
     Program PWSCF v.6.3MaX starts on  8Apr2019 at 10:39: 4 

     This program is part of the open-source Quantum ESPRESSO suite
     for quantum simulation of materials; please cite
         "P. Giannozzi et al., J. Phys.:Condens. Matter 21 395502 (2009);
         "P. Giannozzi et al., J. Phys.:Condens. Matter 29 465901 (2017);
          URL http://www.quantum-espresso.org", 
     in publications or presentations arising from this work. More details at
     http://www.quantum-espresso.org/quote

     Parallel version (MPI), running on    32 processors

     MPI processes distributed on     2 nodes
     R & G space division:  proc/nbgrp/npool/nimage =      32
     Waiting for input...
     Reading input from standard input

     Current dimensions of program PWSCF are:
     Max number of different atomic species (ntypx) = 10
     Max number of k-points (npk) =  40000
     Max angular momentum in pseudopotentials (lmaxx) =  3
               file Mn.pbe-spn-kjpaw_psl.0.3.1.UPF: wavefunction(s)  3P 3D renormalized
               file Mn.pbe-spn-kjpaw_psl.0.3.1.UPF: wavefunction(s)  3P 3D renormalized
               file Au.pbe-dn-kjpaw_psl.0.1.UPF: wavefunction(s)  6S 6P 5D renormalized

     Subspace diagonalization in iterative solution of the eigenvalue problem:
     one sub-group per band group will be used
     scalapack distributed-memory algorithm (size of sub-group:  4*  4 procs)

     Found symmetry operation: I + (  0.0000  0.0000 -0.5000)
     This is a supercell, fractional translations are disabled
 
     Parallelization info
     --------------------
     sticks:   dense  smooth     PW     G-vecs:    dense   smooth      PW
     Min          41      18      5                11487     3460     563
     Max          42      19      6                11527     3505     606
     Sum        1313     593    177               368373   111379   18691
 


     bravais-lattice index     =            0
     lattice parameter (alat)  =       6.4153  a.u.
     unit-cell volume          =    2724.7774 (a.u.)^3
     number of atoms/cell      =           24
     number of atomic types    =            3
     number of electrons       =       296.00
     number of Kohn-Sham states=          178
     kinetic-energy cutoff     =      45.0000  Ry
     charge density cutoff     =     400.0000  Ry
     convergence threshold     =      1.0E-06
     mixing beta               =       0.1000
     number of iterations used =            8  plain     mixing
     Exchange-correlation      = SLA PW PBX PBC ( 1  4  3  4 0 0)

     celldm(1)=   6.415315  celldm(2)=   0.000000  celldm(3)=   0.000000
     celldm(4)=   0.000000  celldm(5)=   0.000000  celldm(6)=   0.000000

     crystal axes: (cart. coord. in units of alat)
               a(1) = (   1.000000   0.000000   0.000000 )  
               a(2) = (   0.000000   1.000000   0.000000 )  
               a(3) = (   0.000000   0.000000  10.319937 )  

     reciprocal axes: (cart. coord. in units 2 pi/alat)
               b(1) = (  1.000000  0.000000  0.000000 )  
               b(2) = (  0.000000  1.000000  0.000000 )  
               b(3) = (  0.000000  0.000000  0.096900 )  


     PseudoPot. # 1 for Mn read from file:
     ./pseudo/Mn.pbe-spn-kjpaw_psl.0.3.1.UPF
     MD5 check sum: 7b43a3fb0e93e198b8dd8488d8cf503e
     Pseudo is Projector augmented-wave + core cor, Zval = 15.0
     Generated using "atomic" code by A. Dal Corso v.5.0.99 svn rev. 10869
     Shape of augmentation charge: PSQ
     Using radial grid of 1187 points,  6 beta functions with: 
                l(1) =   0
                l(2) =   0
                l(3) =   1
                l(4) =   1
                l(5) =   2
                l(6) =   2
     Q(r) pseudized with 0 coefficients 


     PseudoPot. # 2 for Mn read from file:
     ./pseudo/Mn.pbe-spn-kjpaw_psl.0.3.1.UPF
     MD5 check sum: 7b43a3fb0e93e198b8dd8488d8cf503e
     Pseudo is Projector augmented-wave + core cor, Zval = 15.0
     Generated using "atomic" code by A. Dal Corso v.5.0.99 svn rev. 10869
     Shape of augmentation charge: PSQ
     Using radial grid of 1187 points,  6 beta functions with: 
                l(1) =   0
                l(2) =   0
                l(3) =   1
                l(4) =   1
                l(5) =   2
                l(6) =   2
     Q(r) pseudized with 0 coefficients 


     PseudoPot. # 3 for Au read from file:
     ./pseudo/Au.pbe-dn-kjpaw_psl.0.1.UPF
     MD5 check sum: be11e2e8e535ebe2b3ccfb4f88f554cb
     Pseudo is Projector augmented-wave + core cor, Zval = 11.0
     Generated using "atomic" code by A. Dal Corso v.5.0.2 svn rev. 9415
     Shape of augmentation charge: PSQ
     Using radial grid of 1279 points,  6 beta functions with: 
                l(1) =   0
                l(2) =   0
                l(3) =   1
                l(4) =   1
                l(5) =   2
                l(6) =   2
     Q(r) pseudized with 0 coefficients 


     atomic species   valence    mass     pseudopotential
        Mn1           15.00    54.93800     Mn( 1.00)
        Mn2           15.00    54.93800     Mn( 1.00)
        Au            11.00   196.96600     Au( 1.00)

     Starting magnetic structure 
     atomic species   magnetization
        Mn1          0.800
        Mn2         -0.800
        Au           0.000


     Full LDA+U calculation (l_max = 2) with parameters (eV):
     U(  1) =   3.1200   J(  1) =   0.7000   B(  1) =   0.0803
     U(  2) =   3.1200   J(  2) =   0.7000   B(  2) =   0.0803



      8 Sym. Ops. (no inversion) found



   Cartesian axes

     site n.     atom                  positions (alat units)
         1           Mn1 tau(   1) = (   0.0000000   0.0000000   0.0000000  )
         2           Mn1 tau(   2) = (   0.5000000   0.5000000   1.2899921  )
         3           Mn1 tau(   3) = (   0.0000000   0.0000000   2.5799843  )
         4           Mn2 tau(   4) = (   0.5000000   0.5000000   3.8699764  )
         5           Mn1 tau(   5) = (   0.0000000   0.0000000   5.1599686  )
         6           Mn1 tau(   6) = (   0.5000000   0.5000000   6.4499607  )
         7           Mn1 tau(   7) = (   0.0000000   0.0000000   7.7399528  )
         8           Mn2 tau(   8) = (   0.5000000   0.5000000   9.0299450  )
         9           Au  tau(   9) = (   0.5000000   0.5000000   0.4127975  )
        10           Au  tau(  10) = (   0.0000000   0.0000000   0.8771947  )
        11           Au  tau(  11) = (   0.0000000   0.0000000   1.7027896  )
        12           Au  tau(  12) = (   0.5000000   0.5000000   2.1671868  )
        13           Au  tau(  13) = (   0.5000000   0.5000000   2.9927818  )
        14           Au  tau(  14) = (   0.0000000   0.0000000   3.4571789  )
        15           Au  tau(  15) = (   0.0000000   0.0000000   4.2827739  )
        16           Au  tau(  16) = (   0.5000000   0.5000000   4.7471711  )
        17           Au  tau(  17) = (   0.5000000   0.5000000   5.5727660  )
        18           Au  tau(  18) = (   0.0000000   0.0000000   6.0371632  )
        19           Au  tau(  19) = (   0.0000000   0.0000000   6.8627582  )
        20           Au  tau(  20) = (   0.5000000   0.5000000   7.3271553  )
        21           Au  tau(  21) = (   0.5000000   0.5000000   8.1527503  )
        22           Au  tau(  22) = (   0.0000000   0.0000000   8.6171475  )
        23           Au  tau(  23) = (   0.0000000   0.0000000   9.4427424  )
        24           Au  tau(  24) = (   0.5000000   0.5000000   9.9071396  )

     number of k points=    45 (tetrahedron method)
                       cart. coord. in units 2pi/alat
        k(    1) = (   0.0000000   0.0000000   0.0000000), wk =   0.0039062
        k(    2) = (   0.0000000   0.0000000   0.0242250), wk =   0.0078125
        k(    3) = (   0.0000000   0.0000000  -0.0484499), wk =   0.0039062
        k(    4) = (   0.0000000   0.1250000   0.0000000), wk =   0.0156250
        k(    5) = (   0.0000000   0.1250000   0.0242250), wk =   0.0312500
        k(    6) = (   0.0000000   0.1250000  -0.0484499), wk =   0.0156250
        k(    7) = (   0.0000000   0.2500000   0.0000000), wk =   0.0156250
        k(    8) = (   0.0000000   0.2500000   0.0242250), wk =   0.0312500
        k(    9) = (   0.0000000   0.2500000  -0.0484499), wk =   0.0156250
        k(   10) = (   0.0000000   0.3750000   0.0000000), wk =   0.0156250
        k(   11) = (   0.0000000   0.3750000   0.0242250), wk =   0.0312500
        k(   12) = (   0.0000000   0.3750000  -0.0484499), wk =   0.0156250
        k(   13) = (   0.0000000  -0.5000000   0.0000000), wk =   0.0078125
        k(   14) = (   0.0000000  -0.5000000   0.0242250), wk =   0.0156250
        k(   15) = (   0.0000000  -0.5000000  -0.0484499), wk =   0.0078125
        k(   16) = (   0.1250000   0.1250000   0.0000000), wk =   0.0156250
        k(   17) = (   0.1250000   0.1250000   0.0242250), wk =   0.0312500
        k(   18) = (   0.1250000   0.1250000  -0.0484499), wk =   0.0156250
        k(   19) = (   0.1250000   0.2500000   0.0000000), wk =   0.0312500
        k(   20) = (   0.1250000   0.2500000   0.0242250), wk =   0.0625000
        k(   21) = (   0.1250000   0.2500000  -0.0484499), wk =   0.0312500
        k(   22) = (   0.1250000   0.3750000   0.0000000), wk =   0.0312500
        k(   23) = (   0.1250000   0.3750000   0.0242250), wk =   0.0625000
        k(   24) = (   0.1250000   0.3750000  -0.0484499), wk =   0.0312500
        k(   25) = (   0.1250000  -0.5000000   0.0000000), wk =   0.0156250
        k(   26) = (   0.1250000  -0.5000000   0.0242250), wk =   0.0312500
        k(   27) = (   0.1250000  -0.5000000  -0.0484499), wk =   0.0156250
        k(   28) = (   0.2500000   0.2500000   0.0000000), wk =   0.0156250
        k(   29) = (   0.2500000   0.2500000   0.0242250), wk =   0.0312500
        k(   30) = (   0.2500000   0.2500000  -0.0484499), wk =   0.0156250
        k(   31) = (   0.2500000   0.3750000   0.0000000), wk =   0.0312500
        k(   32) = (   0.2500000   0.3750000   0.0242250), wk =   0.0625000
        k(   33) = (   0.2500000   0.3750000  -0.0484499), wk =   0.0312500
        k(   34) = (   0.2500000  -0.5000000   0.0000000), wk =   0.0156250
        k(   35) = (   0.2500000  -0.5000000   0.0242250), wk =   0.0312500
        k(   36) = (   0.2500000  -0.5000000  -0.0484499), wk =   0.0156250
        k(   37) = (   0.3750000   0.3750000   0.0000000), wk =   0.0156250
        k(   38) = (   0.3750000   0.3750000   0.0242250), wk =   0.0312500
        k(   39) = (   0.3750000   0.3750000  -0.0484499), wk =   0.0156250
        k(   40) = (   0.3750000  -0.5000000   0.0000000), wk =   0.0156250
        k(   41) = (   0.3750000  -0.5000000   0.0242250), wk =   0.0312500
        k(   42) = (   0.3750000  -0.5000000  -0.0484499), wk =   0.0156250
        k(   43) = (  -0.5000000  -0.5000000   0.0000000), wk =   0.0039062
        k(   44) = (  -0.5000000  -0.5000000   0.0242250), wk =   0.0078125
        k(   45) = (  -0.5000000  -0.5000000  -0.0484499), wk =   0.0039062

     Dense  grid:   368373 G-vectors     FFT dimensions: (  45,  45, 432)

     Smooth grid:   111379 G-vectors     FFT dimensions: (  27,  27, 288)

     Estimated max dynamical RAM per process >     186.81 MB

     Estimated total dynamical RAM >       5.84 GB
     Generating pointlists ...
     new r_m :   0.3377 (alat units)  2.1668 (a.u.) for type    1
     new r_m :   0.3377 (alat units)  2.1668 (a.u.) for type    2
     new r_m :   0.3377 (alat units)  2.1668 (a.u.) for type    3

     Check: negative/imaginary core charge=   -0.000006    0.000000

     Initial potential from superposition of free atoms

     starting charge  295.99426, renormalised to  296.00000
     Number of +U iterations with fixed ns =  0
     Starting occupations:
 --- enter write_ns ---
 LDA+U parameters:
U(  1) =   3.1200   J(  1) =   0.7000   B(  1) =   0.0803
U(  2) =   3.1200   J(  2) =   0.7000   B(  2) =   0.0803
atom    1   Tr[ns(na)] (up, down, total) =   5.00000  0.00000  5.00000
   spin  1
    eigenvalues: 
  1.000  1.000  1.000  1.000  1.000
    eigenvectors:
  1.000  0.000  0.000  0.000  0.000
  0.000  1.000  0.000  0.000  0.000
  0.000  0.000  1.000  0.000  0.000
  0.000  0.000  0.000  1.000  0.000
  0.000  0.000  0.000  0.000  1.000
    occupations:
  1.000  0.000  0.000  0.000  0.000
  0.000  1.000  0.000  0.000  0.000
  0.000  0.000  1.000  0.000  0.000
  0.000  0.000  0.000  1.000  0.000
  0.000  0.000  0.000  0.000  1.000
   spin  2
    eigenvalues: 
  0.000  0.000  0.000  0.000  0.000
    eigenvectors:
  1.000  0.000  0.000  0.000  0.000
  0.000  1.000  0.000  0.000  0.000
  0.000  0.000  1.000  0.000  0.000
  0.000  0.000  0.000  1.000  0.000
  0.000  0.000  0.000  0.000  1.000
    occupations:
  0.000  0.000  0.000  0.000  0.000
  0.000  0.000  0.000  0.000  0.000
  0.000  0.000  0.000  0.000  0.000
  0.000  0.000  0.000  0.000  0.000
  0.000  0.000  0.000  0.000  0.000
atomic mag. moment =     5.000000
atom    2   Tr[ns(na)] (up, down, total) =   5.00000  0.00000  5.00000
   spin  1
    eigenvalues: 
  1.000  1.000  1.000  1.000  1.000
    eigenvectors:
  1.000  0.000  0.000  0.000  0.000
  0.000  1.000  0.000  0.000  0.000
  0.000  0.000  1.000  0.000  0.000
  0.000  0.000  0.000  1.000  0.000
  0.000  0.000  0.000  0.000  1.000
    occupations:
  1.000  0.000  0.000  0.000  0.000
  0.000  1.000  0.000  0.000  0.000
  0.000  0.000  1.000  0.000  0.000
  0.000  0.000  0.000  1.000  0.000
  0.000  0.000  0.000  0.000  1.000
   spin  2
    eigenvalues: 
  0.000  0.000  0.000  0.000  0.000
    eigenvectors:
  1.000  0.000  0.000  0.000  0.000
  0.000  1.000  0.000  0.000  0.000
  0.000  0.000  1.000  0.000  0.000
  0.000  0.000  0.000  1.000  0.000
  0.000  0.000  0.000  0.000  1.000
    occupations:
  0.000  0.000  0.000  0.000  0.000
  0.000  0.000  0.000  0.000  0.000
  0.000  0.000  0.000  0.000  0.000
  0.000  0.000  0.000  0.000  0.000
  0.000  0.000  0.000  0.000  0.000
atomic mag. moment =     5.000000
atom    3   Tr[ns(na)] (up, down, total) =   5.00000  0.00000  5.00000
   spin  1
    eigenvalues: 
  1.000  1.000  1.000  1.000  1.000
    eigenvectors:
  1.000  0.000  0.000  0.000  0.000
  0.000  1.000  0.000  0.000  0.000
  0.000  0.000  1.000  0.000  0.000
  0.000  0.000  0.000  1.000  0.000
  0.000  0.000  0.000  0.000  1.000
    occupations:
  1.000  0.000  0.000  0.000  0.000
  0.000  1.000  0.000  0.000  0.000
  0.000  0.000  1.000  0.000  0.000
  0.000  0.000  0.000  1.000  0.000
  0.000  0.000  0.000  0.000  1.000
   spin  2
    eigenvalues: 
  0.000  0.000  0.000  0.000  0.000
    eigenvectors:
  1.000  0.000  0.000  0.000  0.000
  0.000  1.000  0.000  0.000  0.000
  0.000  0.000  1.000  0.000  0.000
  0.000  0.000  0.000  1.000  0.000
  0.000  0.000  0.000  0.000  1.000
    occupations:
  0.000  0.000  0.000  0.000  0.000
  0.000  0.000  0.000  0.000  0.000
  0.000  0.000  0.000  0.000  0.000
  0.000  0.000  0.000  0.000  0.000
  0.000  0.000  0.000  0.000  0.000
atomic mag. moment =     5.000000
atom    4   Tr[ns(na)] (up, down, total) =   0.00000  5.00000  5.00000
   spin  1
    eigenvalues: 
  0.000  0.000  0.000  0.000  0.000
    eigenvectors:
  1.000  0.000  0.000  0.000  0.000
  0.000  1.000  0.000  0.000  0.000
  0.000  0.000  1.000  0.000  0.000
  0.000  0.000  0.000  1.000  0.000
  0.000  0.000  0.000  0.000  1.000
    occupations:
  0.000  0.000  0.000  0.000  0.000
  0.000  0.000  0.000  0.000  0.000
  0.000  0.000  0.000  0.000  0.000
  0.000  0.000  0.000  0.000  0.000
  0.000  0.000  0.000  0.000  0.000
   spin  2
    eigenvalues: 
  1.000  1.000  1.000  1.000  1.000
    eigenvectors:
  1.000  0.000  0.000  0.000  0.000
  0.000  1.000  0.000  0.000  0.000
  0.000  0.000  1.000  0.000  0.000
  0.000  0.000  0.000  1.000  0.000
  0.000  0.000  0.000  0.000  1.000
    occupations:
  1.000  0.000  0.000  0.000  0.000
  0.000  1.000  0.000  0.000  0.000
  0.000  0.000  1.000  0.000  0.000
  0.000  0.000  0.000  1.000  0.000
  0.000  0.000  0.000  0.000  1.000
atomic mag. moment =    -5.000000
atom    5   Tr[ns(na)] (up, down, total) =   5.00000  0.00000  5.00000
   spin  1
    eigenvalues: 
  1.000  1.000  1.000  1.000  1.000
    eigenvectors:
  1.000  0.000  0.000  0.000  0.000
  0.000  1.000  0.000  0.000  0.000
  0.000  0.000  1.000  0.000  0.000
  0.000  0.000  0.000  1.000  0.000
  0.000  0.000  0.000  0.000  1.000
    occupations:
  1.000  0.000  0.000  0.000  0.000
  0.000  1.000  0.000  0.000  0.000
  0.000  0.000  1.000  0.000  0.000
  0.000  0.000  0.000  1.000  0.000
  0.000  0.000  0.000  0.000  1.000
   spin  2
    eigenvalues: 
  0.000  0.000  0.000  0.000  0.000
    eigenvectors:
  1.000  0.000  0.000  0.000  0.000
  0.000  1.000  0.000  0.000  0.000
  0.000  0.000  1.000  0.000  0.000
  0.000  0.000  0.000  1.000  0.000
  0.000  0.000  0.000  0.000  1.000
    occupations:
  0.000  0.000  0.000  0.000  0.000
  0.000  0.000  0.000  0.000  0.000
  0.000  0.000  0.000  0.000  0.000
  0.000  0.000  0.000  0.000  0.000
  0.000  0.000  0.000  0.000  0.000
atomic mag. moment =     5.000000
atom    6   Tr[ns(na)] (up, down, total) =   5.00000  0.00000  5.00000
   spin  1
    eigenvalues: 
  1.000  1.000  1.000  1.000  1.000
    eigenvectors:
  1.000  0.000  0.000  0.000  0.000
  0.000  1.000  0.000  0.000  0.000
  0.000  0.000  1.000  0.000  0.000
  0.000  0.000  0.000  1.000  0.000
  0.000  0.000  0.000  0.000  1.000
    occupations:
  1.000  0.000  0.000  0.000  0.000
  0.000  1.000  0.000  0.000  0.000
  0.000  0.000  1.000  0.000  0.000
  0.000  0.000  0.000  1.000  0.000
  0.000  0.000  0.000  0.000  1.000
   spin  2
    eigenvalues: 
  0.000  0.000  0.000  0.000  0.000
    eigenvectors:
  1.000  0.000  0.000  0.000  0.000
  0.000  1.000  0.000  0.000  0.000
  0.000  0.000  1.000  0.000  0.000
  0.000  0.000  0.000  1.000  0.000
  0.000  0.000  0.000  0.000  1.000
    occupations:
  0.000  0.000  0.000  0.000  0.000
  0.000  0.000  0.000  0.000  0.000
  0.000  0.000  0.000  0.000  0.000
  0.000  0.000  0.000  0.000  0.000
  0.000  0.000  0.000  0.000  0.000
atomic mag. moment =     5.000000
atom    7   Tr[ns(na)] (up, down, total) =   5.00000  0.00000  5.00000
   spin  1
    eigenvalues: 
  1.000  1.000  1.000  1.000  1.000
    eigenvectors:
  1.000  0.000  0.000  0.000  0.000
  0.000  1.000  0.000  0.000  0.000
  0.000  0.000  1.000  0.000  0.000
  0.000  0.000  0.000  1.000  0.000
  0.000  0.000  0.000  0.000  1.000
    occupations:
  1.000  0.000  0.000  0.000  0.000
  0.000  1.000  0.000  0.000  0.000
  0.000  0.000  1.000  0.000  0.000
  0.000  0.000  0.000  1.000  0.000
  0.000  0.000  0.000  0.000  1.000
   spin  2
    eigenvalues: 
  0.000  0.000  0.000  0.000  0.000
    eigenvectors:
  1.000  0.000  0.000  0.000  0.000
  0.000  1.000  0.000  0.000  0.000
  0.000  0.000  1.000  0.000  0.000
  0.000  0.000  0.000  1.000  0.000
  0.000  0.000  0.000  0.000  1.000
    occupations:
  0.000  0.000  0.000  0.000  0.000
  0.000  0.000  0.000  0.000  0.000
  0.000  0.000  0.000  0.000  0.000
  0.000  0.000  0.000  0.000  0.000
  0.000  0.000  0.000  0.000  0.000
atomic mag. moment =     5.000000
atom    8   Tr[ns(na)] (up, down, total) =   0.00000  5.00000  5.00000
   spin  1
    eigenvalues: 
  0.000  0.000  0.000  0.000  0.000
    eigenvectors:
  1.000  0.000  0.000  0.000  0.000
  0.000  1.000  0.000  0.000  0.000
  0.000  0.000  1.000  0.000  0.000
  0.000  0.000  0.000  1.000  0.000
  0.000  0.000  0.000  0.000  1.000
    occupations:
  0.000  0.000  0.000  0.000  0.000
  0.000  0.000  0.000  0.000  0.000
  0.000  0.000  0.000  0.000  0.000
  0.000  0.000  0.000  0.000  0.000
  0.000  0.000  0.000  0.000  0.000
   spin  2
    eigenvalues: 
  1.000  1.000  1.000  1.000  1.000
    eigenvectors:
  1.000  0.000  0.000  0.000  0.000
  0.000  1.000  0.000  0.000  0.000
  0.000  0.000  1.000  0.000  0.000
  0.000  0.000  0.000  1.000  0.000
  0.000  0.000  0.000  0.000  1.000
    occupations:
  1.000  0.000  0.000  0.000  0.000
  0.000  1.000  0.000  0.000  0.000
  0.000  0.000  1.000  0.000  0.000
  0.000  0.000  0.000  1.000  0.000
  0.000  0.000  0.000  0.000  1.000
atomic mag. moment =    -5.000000
N of occupied +U levels =   40.000000
 --- exit write_ns ---
 Atomic wfc used for LDA+U Projector are NOT orthogonalized
     Starting wfcs are  224 randomized atomic wfcs
     Checking if some PAW data can be deallocated... 

     total cpu time spent up to now is       94.5 secs

     Self-consistent Calculation

     iteration #  1     ecut=    45.00 Ry     beta= 0.10
     Davidson diagonalization with overlap
     ethr =  1.00E-02,  avg # of iterations =  3.7
 --- enter write_ns ---
 LDA+U parameters:
U(  1) =   3.1200   J(  1) =   0.7000   B(  1) =   0.0803
U(  2) =   3.1200   J(  2) =   0.7000   B(  2) =   0.0803
atom    1   Tr[ns(na)] (up, down, total) =   5.01738  0.40583  5.42320
   spin  1
    eigenvalues: 
  1.003  1.003  1.003  1.004  1.004
    eigenvectors:
  0.000  0.000  0.000  1.000  0.000
  0.000  0.265  0.735  0.000  0.000
  0.000  0.735  0.265  0.000  0.000
  0.000  0.000  0.000  0.000  1.000
  1.000  0.000  0.000  0.000  0.000
    occupations:
  1.004 -0.000 -0.000  0.000  0.000
 -0.000  1.003 -0.000  0.000  0.000
 -0.000 -0.000  1.003  0.000  0.000
  0.000  0.000  0.000  1.004 -0.000
  0.000  0.000  0.000 -0.000  1.003
   spin  2
    eigenvalues: 
  0.053  0.072  0.080  0.080  0.121
    eigenvectors:
  0.000  1.000  0.000  0.000  0.000
  0.000  0.000  0.466  0.534  0.000
  0.000  0.000  0.534  0.466  0.000
  1.000  0.000  0.000  0.000  0.000
  0.000  0.000  0.000  0.000  1.000
    occupations:
  0.072 -0.000 -0.000  0.000  0.000
 -0.000  0.080 -0.000  0.000  0.000
 -0.000 -0.000  0.080  0.000  0.000
  0.000  0.000  0.000  0.053 -0.000
  0.000  0.000  0.000 -0.000  0.121
atomic mag. moment =     4.611550
atom    2   Tr[ns(na)] (up, down, total) =   5.01761  0.40017  5.41777
   spin  1
    eigenvalues: 
  1.003  1.003  1.003  1.004  1.004
    eigenvectors:
  0.000  0.000  0.000  1.000  0.000
  0.000  0.299  0.701  0.000  0.000
  0.000  0.701  0.299  0.000  0.000
  0.000  0.000  0.000  0.000  1.000
  1.000  0.000  0.000  0.000  0.000
    occupations:
  1.004 -0.000 -0.000  0.000  0.000
 -0.000  1.003 -0.000  0.000  0.000
 -0.000 -0.000  1.003  0.000  0.000
  0.000  0.000  0.000  1.004 -0.000
  0.000  0.000  0.000 -0.000  1.003
   spin  2
    eigenvalues: 
  0.053  0.074  0.081  0.081  0.111
    eigenvectors:
  0.000  1.000  0.000  0.000  0.000
  0.000  0.000  0.407  0.593  0.000
  0.000  0.000  0.593  0.407  0.000
  1.000  0.000  0.000  0.000  0.000
  0.000  0.000  0.000  0.000  1.000
    occupations:
  0.074 -0.000 -0.000  0.000  0.000
 -0.000  0.081 -0.000  0.000  0.000
 -0.000 -0.000  0.081  0.000  0.000
  0.000  0.000  0.000  0.053 -0.000
  0.000  0.000  0.000 -0.000  0.111
atomic mag. moment =     4.617440
atom    3   Tr[ns(na)] (up, down, total) =   5.01742  0.40678  5.42420
   spin  1
    eigenvalues: 
  1.003  1.003  1.003  1.004  1.004
    eigenvectors:
  0.000  0.000  0.000  1.000  0.000
  0.000  0.283  0.717  0.000  0.000
  0.000  0.717  0.283  0.000  0.000
  0.000  0.000  0.000  0.000  1.000
  1.000  0.000  0.000  0.000  0.000
    occupations:
  1.004 -0.000 -0.000  0.000  0.000
 -0.000  1.003 -0.000  0.000  0.000
 -0.000 -0.000  1.003  0.000  0.000
  0.000  0.000  0.000  1.004 -0.000
  0.000  0.000  0.000 -0.000  1.003
   spin  2
    eigenvalues: 
  0.053  0.073  0.080  0.080  0.121
    eigenvectors:
  0.000  1.000  0.000  0.000  0.000
  0.000  0.000  0.408  0.592  0.000
  0.000  0.000  0.592  0.408  0.000
  1.000  0.000  0.000  0.000  0.000
  0.000  0.000  0.000  0.000  1.000
    occupations:
  0.073 -0.000 -0.000  0.000  0.000
 -0.000  0.080 -0.000  0.000  0.000
 -0.000 -0.000  0.080  0.000  0.000
  0.000  0.000  0.000  0.053 -0.000
  0.000  0.000  0.000 -0.000  0.121
atomic mag. moment =     4.610640
atom    4   Tr[ns(na)] (up, down, total) =   0.41550  5.01728  5.43278
   spin  1
    eigenvalues: 
  0.054  0.075  0.081  0.081  0.125
    eigenvectors:
  0.000  1.000  0.000  0.000  0.000
  0.000  0.000  0.288  0.712  0.000
  0.000  0.000  0.712  0.288  0.000
  1.000  0.000  0.000  0.000  0.000
  0.000  0.000  0.000  0.000  1.000
    occupations:
  0.075 -0.000 -0.000  0.000  0.000
 -0.000  0.081 -0.000  0.000  0.000
 -0.000 -0.000  0.081  0.000  0.000
  0.000  0.000  0.000  0.054 -0.000
  0.000  0.000  0.000 -0.000  0.125
   spin  2
    eigenvalues: 
  1.003  1.003  1.003  1.004  1.004
    eigenvectors:
  0.000  0.000  0.000  1.000  0.000
  0.000  0.290  0.710  0.000  0.000
  0.000  0.710  0.290  0.000  0.000
  0.000  0.000  0.000  0.000  1.000
  1.000  0.000  0.000  0.000  0.000
    occupations:
  1.004 -0.000 -0.000  0.000  0.000
 -0.000  1.003 -0.000  0.000  0.000
 -0.000 -0.000  1.003  0.000  0.000
  0.000  0.000  0.000  1.004 -0.000
  0.000  0.000  0.000 -0.000  1.003
atomic mag. moment =    -4.601773
atom    5   Tr[ns(na)] (up, down, total) =   5.01744  0.40637  5.42381
   spin  1
    eigenvalues: 
  1.003  1.003  1.003  1.004  1.004
    eigenvectors:
  0.000  0.000  0.000  1.000  0.000
  0.000  0.396  0.604  0.000  0.000
  0.000  0.604  0.396  0.000  0.000
  0.000  0.000  0.000  0.000  1.000
  1.000  0.000  0.000  0.000  0.000
    occupations:
  1.004 -0.000 -0.000  0.000  0.000
 -0.000  1.003 -0.000  0.000  0.000
 -0.000 -0.000  1.003  0.000  0.000
  0.000  0.000  0.000  1.004 -0.000
  0.000  0.000  0.000 -0.000  1.003
   spin  2
    eigenvalues: 
  0.053  0.073  0.080  0.080  0.121
    eigenvectors:
  0.000  1.000  0.000  0.000  0.000
  0.000  0.000  0.451  0.549  0.000
  0.000  0.000  0.549  0.451  0.000
  1.000  0.000  0.000  0.000  0.000
  0.000  0.000  0.000  0.000  1.000
    occupations:
  0.073 -0.000 -0.000  0.000  0.000
 -0.000  0.080 -0.000  0.000  0.000
 -0.000 -0.000  0.080  0.000  0.000
  0.000  0.000  0.000  0.053 -0.000
  0.000  0.000  0.000 -0.000  0.121
atomic mag. moment =     4.611063
atom    6   Tr[ns(na)] (up, down, total) =   5.01769  0.39924  5.41693
   spin  1
    eigenvalues: 
  1.003  1.003  1.003  1.004  1.004
    eigenvectors:
  0.000  0.000  0.000  1.000  0.000
  0.000  0.275  0.725  0.000  0.000
  0.000  0.725  0.275  0.000  0.000
  0.000  0.000  0.000  0.000  1.000
  1.000  0.000  0.000  0.000  0.000
    occupations:
  1.004 -0.000 -0.000  0.000  0.000
 -0.000  1.003 -0.000  0.000  0.000
 -0.000 -0.000  1.003  0.000  0.000
  0.000  0.000  0.000  1.004 -0.000
  0.000  0.000  0.000 -0.000  1.003
   spin  2
    eigenvalues: 
  0.053  0.074  0.081  0.081  0.111
    eigenvectors:
  0.000  1.000  0.000  0.000  0.000
  0.000  0.000  0.317  0.683  0.000
  0.000  0.000  0.683  0.317  0.000
  1.000  0.000  0.000  0.000  0.000
  0.000  0.000  0.000  0.000  1.000
    occupations:
  0.074 -0.000 -0.000  0.000  0.000
 -0.000  0.081 -0.000  0.000  0.000
 -0.000 -0.000  0.081  0.000  0.000
  0.000  0.000  0.000  0.053 -0.000
  0.000  0.000  0.000 -0.000  0.111
atomic mag. moment =     4.618458
atom    7   Tr[ns(na)] (up, down, total) =   5.01744  0.40599  5.42343
   spin  1
    eigenvalues: 
  1.003  1.003  1.003  1.004  1.004
    eigenvectors:
  0.000  0.000  0.000  1.000  0.000
  0.000  0.470  0.530  0.000  0.000
  0.000  0.530  0.470  0.000  0.000
  0.000  0.000  0.000  0.000  1.000
  1.000  0.000  0.000  0.000  0.000
    occupations:
  1.004 -0.000 -0.000  0.000  0.000
 -0.000  1.003 -0.000  0.000  0.000
 -0.000 -0.000  1.003  0.000  0.000
  0.000  0.000  0.000  1.004 -0.000
  0.000  0.000  0.000 -0.000  1.003
   spin  2
    eigenvalues: 
  0.053  0.072  0.080  0.080  0.121
    eigenvectors:
  0.000  1.000  0.000  0.000  0.000
  0.000  0.000  0.398  0.602  0.000
  0.000  0.000  0.602  0.398  0.000
  1.000  0.000  0.000  0.000  0.000
  0.000  0.000  0.000  0.000  1.000
    occupations:
  0.072 -0.000 -0.000  0.000  0.000
 -0.000  0.080 -0.000  0.000  0.000
 -0.000 -0.000  0.080  0.000  0.000
  0.000  0.000  0.000  0.053 -0.000
  0.000  0.000  0.000 -0.000  0.121
atomic mag. moment =     4.611445
atom    8   Tr[ns(na)] (up, down, total) =   0.41538  5.01737  5.43275
   spin  1
    eigenvalues: 
  0.054  0.075  0.081  0.081  0.125
    eigenvectors:
  0.000  1.000  0.000  0.000  0.000
  0.000  0.000  0.344  0.656  0.000
  0.000  0.000  0.656  0.344  0.000
  1.000  0.000  0.000  0.000  0.000
  0.000  0.000  0.000  0.000  1.000
    occupations:
  0.075 -0.000 -0.000  0.000  0.000
 -0.000  0.081 -0.000  0.000  0.000
 -0.000 -0.000  0.081  0.000  0.000
  0.000  0.000  0.000  0.054 -0.000
  0.000  0.000  0.000 -0.000  0.125
   spin  2
    eigenvalues: 
  1.003  1.003  1.003  1.004  1.004
    eigenvectors:
  0.000  0.000  0.000  1.000  0.000
  0.000  0.397  0.603  0.000  0.000
  0.000  0.603  0.397  0.000  0.000
  0.000  0.000  0.000  0.000  1.000
  1.000  0.000  0.000  0.000  0.000
    occupations:
  1.004 -0.000 -0.000  0.000  0.000
 -0.000  1.003 -0.000  0.000  0.000
 -0.000 -0.000  1.003  0.000  0.000
  0.000  0.000  0.000  1.004 -0.000
  0.000  0.000  0.000 -0.000  1.003
atomic mag. moment =    -4.601987
N of occupied +U levels =   43.394874
 --- exit write_ns ---

     total cpu time spent up to now is      323.7 secs

     total energy              =  -14687.27698634 Ry
     Harris-Foulkes estimate   =  -14685.81668129 Ry
     estimated scf accuracy    <      11.55171772 Ry

     total magnetization       =    20.25 Bohr mag/cell
     absolute magnetization    =    41.56 Bohr mag/cell

     iteration #  2     ecut=    45.00 Ry     beta= 0.10
     Davidson diagonalization with overlap
     ethr =  3.90E-03,  avg # of iterations =  1.0

     total cpu time spent up to now is      473.5 secs

     total energy              =  -14692.28390527 Ry
     Harris-Foulkes estimate   =  -14687.34945563 Ry
     estimated scf accuracy    <       9.31676411 Ry

     total magnetization       =    19.98 Bohr mag/cell
     absolute magnetization    =    41.22 Bohr mag/cell

     iteration #  3     ecut=    45.00 Ry     beta= 0.10
     Davidson diagonalization with overlap
     ethr =  3.15E-03,  avg # of iterations =  3.1

     total cpu time spent up to now is      678.4 secs

     total energy              =  -14693.10109099 Ry
     Harris-Foulkes estimate   =  -14693.78976812 Ry
     estimated scf accuracy    <      50.32458335 Ry

     total magnetization       =    18.96 Bohr mag/cell
     absolute magnetization    =    38.81 Bohr mag/cell

     iteration #  4     ecut=    45.00 Ry     beta= 0.10
     Davidson diagonalization with overlap
     ethr =  3.15E-03,  avg # of iterations =  2.4

     total cpu time spent up to now is      854.2 secs

     total energy              =  -14693.67403876 Ry
     Harris-Foulkes estimate   =  -14693.80291076 Ry
     estimated scf accuracy    <       5.42480932 Ry

     total magnetization       =    18.90 Bohr mag/cell
     absolute magnetization    =    38.84 Bohr mag/cell

     iteration #  5     ecut=    45.00 Ry     beta= 0.10
     Davidson diagonalization with overlap
     ethr =  1.83E-03,  avg # of iterations =  1.2

     total cpu time spent up to now is     1008.6 secs

     total energy              =  -14693.30335219 Ry
     Harris-Foulkes estimate   =  -14693.72215064 Ry
     estimated scf accuracy    <       2.64463446 Ry

     total magnetization       =    18.75 Bohr mag/cell
     absolute magnetization    =    38.85 Bohr mag/cell

     iteration #  6     ecut=    45.00 Ry     beta= 0.10
     Davidson diagonalization with overlap
     ethr =  8.93E-04,  avg # of iterations =  2.1

     total cpu time spent up to now is     1179.3 secs

     total energy              =  -14693.10989174 Ry
     Harris-Foulkes estimate   =  -14693.38684310 Ry
     estimated scf accuracy    <       2.89461627 Ry

     total magnetization       =    18.78 Bohr mag/cell
     absolute magnetization    =    39.01 Bohr mag/cell

     iteration #  7     ecut=    45.00 Ry     beta= 0.10
     Davidson diagonalization with overlap
     ethr =  8.93E-04,  avg # of iterations =  4.6

     total cpu time spent up to now is     1426.4 secs

     total energy              =  -14693.77265786 Ry
     Harris-Foulkes estimate   =  -14693.63876803 Ry
     estimated scf accuracy    <      18.25654064 Ry

     total magnetization       =    18.38 Bohr mag/cell
     absolute magnetization    =    38.34 Bohr mag/cell

     iteration #  8     ecut=    45.00 Ry     beta= 0.10
     Davidson diagonalization with overlap
     ethr =  8.93E-04,  avg # of iterations =  2.6

     total cpu time spent up to now is     1606.3 secs

     total energy              =  -14693.99731835 Ry
     Harris-Foulkes estimate   =  -14693.99762361 Ry
     estimated scf accuracy    <       0.20744787 Ry

     total magnetization       =    17.70 Bohr mag/cell
     absolute magnetization    =    37.57 Bohr mag/cell

     iteration #  9     ecut=    45.00 Ry     beta= 0.10
     Davidson diagonalization with overlap
     ethr =  7.01E-05,  avg # of iterations =  7.1

     total cpu time spent up to now is     1898.0 secs

     total energy              =  -14694.00501691 Ry
     Harris-Foulkes estimate   =  -14694.00526299 Ry
     estimated scf accuracy    <       0.16450468 Ry

     total magnetization       =    17.67 Bohr mag/cell
     absolute magnetization    =    37.41 Bohr mag/cell

     iteration # 10     ecut=    45.00 Ry     beta= 0.10
     Davidson diagonalization with overlap
     ethr =  5.56E-05,  avg # of iterations =  1.1

     total cpu time spent up to now is     2048.2 secs

     total energy              =  -14693.97589971 Ry
     Harris-Foulkes estimate   =  -14694.00798830 Ry
     estimated scf accuracy    <       0.15149935 Ry

     total magnetization       =    17.62 Bohr mag/cell
     absolute magnetization    =    37.32 Bohr mag/cell

     iteration # 11     ecut=    45.00 Ry     beta= 0.10
     Davidson diagonalization with overlap
     ethr =  5.12E-05,  avg # of iterations =  2.5

     total cpu time spent up to now is     2244.5 secs

     total energy              =  -14693.99831424 Ry
     Harris-Foulkes estimate   =  -14693.99942357 Ry
     estimated scf accuracy    <       0.03569514 Ry

     total magnetization       =    17.58 Bohr mag/cell
     absolute magnetization    =    37.33 Bohr mag/cell

     iteration # 12     ecut=    45.00 Ry     beta= 0.10
     Davidson diagonalization with overlap
     ethr =  1.21E-05,  avg # of iterations =  2.2

     total cpu time spent up to now is     2461.8 secs

     total energy              =  -14694.00174254 Ry
     Harris-Foulkes estimate   =  -14694.00058802 Ry
     estimated scf accuracy    <       0.01202630 Ry

     total magnetization       =    17.56 Bohr mag/cell
     absolute magnetization    =    37.30 Bohr mag/cell

     iteration # 13     ecut=    45.00 Ry     beta= 0.10
     Davidson diagonalization with overlap
     c_bands:  1 eigenvalues not converged
     c_bands:  2 eigenvalues not converged
     c_bands:  1 eigenvalues not converged
     ethr =  4.06E-06,  avg # of iterations =  3.7

     total cpu time spent up to now is     2705.2 secs

     total energy              =  -14694.00331329 Ry
     Harris-Foulkes estimate   =  -14694.00209474 Ry
     estimated scf accuracy    <       0.01517796 Ry

     total magnetization       =    17.56 Bohr mag/cell
     absolute magnetization    =    37.30 Bohr mag/cell

     iteration # 14     ecut=    45.00 Ry     beta= 0.10
     Davidson diagonalization with overlap
     ethr =  4.06E-06,  avg # of iterations =  2.2

     total cpu time spent up to now is     2915.6 secs

     total energy              =  -14694.00446713 Ry
     Harris-Foulkes estimate   =  -14694.00378935 Ry
     estimated scf accuracy    <       0.00747282 Ry

     total magnetization       =    17.54 Bohr mag/cell
     absolute magnetization    =    37.29 Bohr mag/cell

     iteration # 15     ecut=    45.00 Ry     beta= 0.10
     Davidson diagonalization with overlap
     ethr =  2.52E-06,  avg # of iterations =  1.7

     total cpu time spent up to now is     3118.8 secs

     total energy              =  -14694.00490643 Ry
     Harris-Foulkes estimate   =  -14694.00466576 Ry
     estimated scf accuracy    <       0.00141148 Ry

     total magnetization       =    17.52 Bohr mag/cell
     absolute magnetization    =    37.28 Bohr mag/cell

     iteration # 16     ecut=    45.00 Ry     beta= 0.10
     Davidson diagonalization with overlap
     ethr =  4.77E-07,  avg # of iterations =  4.0

     total cpu time spent up to now is     3382.8 secs

     total energy              =  -14694.00511594 Ry
     Harris-Foulkes estimate   =  -14694.00498098 Ry
     estimated scf accuracy    <       0.00072324 Ry

     total magnetization       =    17.52 Bohr mag/cell
     absolute magnetization    =    37.28 Bohr mag/cell

     iteration # 17     ecut=    45.00 Ry     beta= 0.10
     Davidson diagonalization with overlap
     ethr =  2.44E-07,  avg # of iterations =  1.4

     total cpu time spent up to now is     3575.6 secs

     total energy              =  -14694.00523751 Ry
     Harris-Foulkes estimate   =  -14694.00515111 Ry
     estimated scf accuracy    <       0.00201082 Ry

     total magnetization       =    17.51 Bohr mag/cell
     absolute magnetization    =    37.28 Bohr mag/cell

     iteration # 18     ecut=    45.00 Ry     beta= 0.10
     Davidson diagonalization with overlap
     ethr =  2.44E-07,  avg # of iterations =  1.3

     total cpu time spent up to now is     3765.8 secs

     total energy              =  -14694.00533095 Ry
     Harris-Foulkes estimate   =  -14694.00527078 Ry
     estimated scf accuracy    <       0.00024567 Ry

     total magnetization       =    17.50 Bohr mag/cell
     absolute magnetization    =    37.27 Bohr mag/cell

     iteration # 19     ecut=    45.00 Ry     beta= 0.10
     Davidson diagonalization with overlap
     ethr =  8.30E-08,  avg # of iterations =  1.6

     total cpu time spent up to now is     3942.4 secs

     total energy              =  -14694.00536385 Ry
     Harris-Foulkes estimate   =  -14694.00533770 Ry
     estimated scf accuracy    <       0.00027930 Ry

     total magnetization       =    17.49 Bohr mag/cell
     absolute magnetization    =    37.26 Bohr mag/cell

     iteration # 20     ecut=    45.00 Ry     beta= 0.10
     Davidson diagonalization with overlap
     ethr =  8.30E-08,  avg # of iterations =  1.1

     total cpu time spent up to now is     4130.9 secs

     total energy              =  -14694.00538589 Ry
     Harris-Foulkes estimate   =  -14694.00536855 Ry
     estimated scf accuracy    <       0.00015787 Ry

     total magnetization       =    17.49 Bohr mag/cell
     absolute magnetization    =    37.26 Bohr mag/cell

     iteration # 21     ecut=    45.00 Ry     beta= 0.10
     Davidson diagonalization with overlap
     ethr =  5.33E-08,  avg # of iterations =  1.3

     total cpu time spent up to now is     4320.8 secs

     total energy              =  -14694.00540477 Ry
     Harris-Foulkes estimate   =  -14694.00538672 Ry
     estimated scf accuracy    <       0.00014657 Ry

     total magnetization       =    17.48 Bohr mag/cell
     absolute magnetization    =    37.26 Bohr mag/cell

     iteration # 22     ecut=    45.00 Ry     beta= 0.10
     Davidson diagonalization with overlap
     ethr =  4.95E-08,  avg # of iterations =  1.2

     total cpu time spent up to now is     4501.1 secs

     total energy              =  -14694.00541512 Ry
     Harris-Foulkes estimate   =  -14694.00540665 Ry
     estimated scf accuracy    <       0.00010913 Ry

     total magnetization       =    17.48 Bohr mag/cell
     absolute magnetization    =    37.25 Bohr mag/cell

     iteration # 23     ecut=    45.00 Ry     beta= 0.10
     Davidson diagonalization with overlap
     ethr =  3.69E-08,  avg # of iterations =  1.1

     total cpu time spent up to now is     4695.9 secs

     total energy              =  -14694.00541646 Ry
     Harris-Foulkes estimate   =  -14694.00541551 Ry
     estimated scf accuracy    <       0.00010816 Ry

     total magnetization       =    17.48 Bohr mag/cell
     absolute magnetization    =    37.25 Bohr mag/cell

     iteration # 24     ecut=    45.00 Ry     beta= 0.10
     Davidson diagonalization with overlap
     ethr =  3.65E-08,  avg # of iterations =  1.0

     total cpu time spent up to now is     4891.0 secs

     total energy              =  -14694.00542553 Ry
     Harris-Foulkes estimate   =  -14694.00541862 Ry
     estimated scf accuracy    <       0.00012749 Ry

     total magnetization       =    17.48 Bohr mag/cell
     absolute magnetization    =    37.25 Bohr mag/cell

     iteration # 25     ecut=    45.00 Ry     beta= 0.10
     Davidson diagonalization with overlap
     ethr =  3.65E-08,  avg # of iterations =  1.1

     total cpu time spent up to now is     5091.2 secs

     total energy              =  -14694.00543016 Ry
     Harris-Foulkes estimate   =  -14694.00542646 Ry
     estimated scf accuracy    <       0.00002211 Ry

     total magnetization       =    17.48 Bohr mag/cell
     absolute magnetization    =    37.25 Bohr mag/cell

     iteration # 26     ecut=    45.00 Ry     beta= 0.10
     Davidson diagonalization with overlap
     ethr =  7.47E-09,  avg # of iterations =  2.0

     total cpu time spent up to now is     5311.1 secs

     total energy              =  -14694.00543310 Ry
     Harris-Foulkes estimate   =  -14694.00543248 Ry
     estimated scf accuracy    <       0.00009452 Ry

     total magnetization       =    17.48 Bohr mag/cell
     absolute magnetization    =    37.26 Bohr mag/cell

     iteration # 27     ecut=    45.00 Ry     beta= 0.10
     Davidson diagonalization with overlap
     ethr =  7.47E-09,  avg # of iterations =  1.0

     total cpu time spent up to now is     5501.2 secs

     total energy              =  -14694.00543468 Ry
     Harris-Foulkes estimate   =  -14694.00543398 Ry
     estimated scf accuracy    <       0.00004125 Ry

     total magnetization       =    17.48 Bohr mag/cell
     absolute magnetization    =    37.26 Bohr mag/cell

     iteration # 28     ecut=    45.00 Ry     beta= 0.10
     Davidson diagonalization with overlap
     ethr =  7.47E-09,  avg # of iterations =  1.0

     total cpu time spent up to now is     5688.0 secs

     total energy              =  -14694.00543577 Ry
     Harris-Foulkes estimate   =  -14694.00543506 Ry
     estimated scf accuracy    <       0.00004836 Ry

     total magnetization       =    17.48 Bohr mag/cell
     absolute magnetization    =    37.26 Bohr mag/cell

     iteration # 29     ecut=    45.00 Ry     beta= 0.10
     Davidson diagonalization with overlap
     ethr =  7.47E-09,  avg # of iterations =  1.0

     total cpu time spent up to now is     5874.7 secs

     total energy              =  -14694.00543676 Ry
     Harris-Foulkes estimate   =  -14694.00543612 Ry
     estimated scf accuracy    <       0.00002992 Ry

     total magnetization       =    17.48 Bohr mag/cell
     absolute magnetization    =    37.26 Bohr mag/cell

     iteration # 30     ecut=    45.00 Ry     beta= 0.10
     Davidson diagonalization with overlap
     ethr =  7.47E-09,  avg # of iterations =  1.0

     total cpu time spent up to now is     6066.9 secs

     total energy              =  -14694.00543748 Ry
     Harris-Foulkes estimate   =  -14694.00543691 Ry
     estimated scf accuracy    <       0.00003795 Ry

     total magnetization       =    17.48 Bohr mag/cell
     absolute magnetization    =    37.26 Bohr mag/cell

     iteration # 31     ecut=    45.00 Ry     beta= 0.10
     Davidson diagonalization with overlap
     ethr =  7.47E-09,  avg # of iterations =  1.0

     total cpu time spent up to now is     6257.6 secs

     total energy              =  -14694.00543827 Ry
     Harris-Foulkes estimate   =  -14694.00543772 Ry
     estimated scf accuracy    <       0.00003942 Ry

     total magnetization       =    17.48 Bohr mag/cell
     absolute magnetization    =    37.26 Bohr mag/cell

     iteration # 32     ecut=    45.00 Ry     beta= 0.10
     Davidson diagonalization with overlap
     ethr =  7.47E-09,  avg # of iterations =  1.0

     total cpu time spent up to now is     6419.2 secs

     total energy              =  -14694.00543879 Ry
     Harris-Foulkes estimate   =  -14694.00543835 Ry
     estimated scf accuracy    <       0.00002222 Ry

     total magnetization       =    17.48 Bohr mag/cell
     absolute magnetization    =    37.26 Bohr mag/cell

     iteration # 33     ecut=    45.00 Ry     beta= 0.10
     Davidson diagonalization with overlap
     ethr =  7.47E-09,  avg # of iterations =  1.0

     total cpu time spent up to now is     6607.7 secs

     total energy              =  -14694.00543926 Ry
     Harris-Foulkes estimate   =  -14694.00543892 Ry
     estimated scf accuracy    <       0.00003987 Ry

     total magnetization       =    17.48 Bohr mag/cell
     absolute magnetization    =    37.26 Bohr mag/cell

     iteration # 34     ecut=    45.00 Ry     beta= 0.10
     Davidson diagonalization with overlap
     ethr =  7.47E-09,  avg # of iterations =  1.0

     total cpu time spent up to now is     6844.9 secs

     total energy              =  -14694.00543978 Ry
     Harris-Foulkes estimate   =  -14694.00543940 Ry
     estimated scf accuracy    <       0.00000937 Ry

     total magnetization       =    17.48 Bohr mag/cell
     absolute magnetization    =    37.26 Bohr mag/cell

     iteration # 35     ecut=    45.00 Ry     beta= 0.10
     Davidson diagonalization with overlap
     ethr =  3.16E-09,  avg # of iterations =  1.0

     total cpu time spent up to now is     7036.9 secs

     total energy              =  -14694.00543985 Ry
     Harris-Foulkes estimate   =  -14694.00543980 Ry
     estimated scf accuracy    <       0.00003008 Ry

     total magnetization       =    17.48 Bohr mag/cell
     absolute magnetization    =    37.26 Bohr mag/cell

     iteration # 36     ecut=    45.00 Ry     beta= 0.10
     Davidson diagonalization with overlap
     ethr =  3.16E-09,  avg # of iterations =  1.0

     total cpu time spent up to now is     7227.8 secs

     total energy              =  -14694.00543993 Ry
     Harris-Foulkes estimate   =  -14694.00543985 Ry
     estimated scf accuracy    <       0.00002284 Ry

     total magnetization       =    17.48 Bohr mag/cell
     absolute magnetization    =    37.26 Bohr mag/cell

     iteration # 37     ecut=    45.00 Ry     beta= 0.10
     Davidson diagonalization with overlap
     ethr =  3.16E-09,  avg # of iterations =  1.0

     total cpu time spent up to now is     7407.3 secs

     total energy              =  -14694.00544036 Ry
     Harris-Foulkes estimate   =  -14694.00544004 Ry
     estimated scf accuracy    <       0.00001087 Ry

     total magnetization       =    17.48 Bohr mag/cell
     absolute magnetization    =    37.26 Bohr mag/cell

     iteration # 38     ecut=    45.00 Ry     beta= 0.10
     Davidson diagonalization with overlap
     ethr =  3.16E-09,  avg # of iterations =  1.0
 
     Magnetic moment per site:
     atom:    1    charge:   13.5460    magn:    4.2484    constr:    0.0000
     atom:    2    charge:   13.5517    magn:    4.2061    constr:    0.0000
     atom:    3    charge:   13.5459    magn:    4.2487    constr:    0.0000
     atom:    4    charge:   13.5464    magn:   -4.2429    constr:    0.0000
     atom:    5    charge:   13.5461    magn:    4.2486    constr:    0.0000
     atom:    6    charge:   13.5518    magn:    4.2060    constr:    0.0000
     atom:    7    charge:   13.5461    magn:    4.2483    constr:    0.0000
     atom:    8    charge:   13.5463    magn:   -4.2439    constr:    0.0000
     atom:    9    charge:    9.1221    magn:    0.0332    constr:    0.0000
     atom:   10    charge:    9.1225    magn:    0.0372    constr:    0.0000
     atom:   11    charge:    9.1225    magn:    0.0373    constr:    0.0000
     atom:   12    charge:    9.1221    magn:    0.0333    constr:    0.0000
     atom:   13    charge:    9.1235    magn:    0.0430    constr:    0.0000
     atom:   14    charge:    9.1246    magn:   -0.0379    constr:    0.0000
     atom:   15    charge:    9.1247    magn:   -0.0379    constr:    0.0000
     atom:   16    charge:    9.1235    magn:    0.0430    constr:    0.0000
     atom:   17    charge:    9.1221    magn:    0.0332    constr:    0.0000
     atom:   18    charge:    9.1225    magn:    0.0372    constr:    0.0000
     atom:   19    charge:    9.1225    magn:    0.0372    constr:    0.0000
     atom:   20    charge:    9.1221    magn:    0.0331    constr:    0.0000
     atom:   21    charge:    9.1236    magn:    0.0426    constr:    0.0000
     atom:   22    charge:    9.1247    magn:   -0.0383    constr:    0.0000
     atom:   23    charge:    9.1247    magn:   -0.0383    constr:    0.0000
     atom:   24    charge:    9.1236    magn:    0.0427    constr:    0.0000

     total cpu time spent up to now is     7571.8 secs

     End of self-consistent calculation
 --- enter write_ns ---
 LDA+U parameters:
U(  1) =   3.1200   J(  1) =   0.7000   B(  1) =   0.0803
U(  2) =   3.1200   J(  2) =   0.7000   B(  2) =   0.0803
atom    1   Tr[ns(na)] (up, down, total) =   4.97351  0.72562  5.69913
   spin  1
    eigenvalues: 
  0.985  0.994  0.994  0.998  1.002
    eigenvectors:
  0.000  0.000  0.000  1.000  0.000
  0.000  0.357  0.643  0.000  0.000
  0.000  0.643  0.357  0.000  0.000
  0.000  0.000  0.000  0.000  1.000
  1.000  0.000  0.000  0.000  0.000
    occupations:
  0.998 -0.000 -0.000  0.000  0.000
 -0.000  0.994 -0.000  0.000  0.000
 -0.000 -0.000  0.994  0.000  0.000
  0.000  0.000  0.000  1.002 -0.000
  0.000  0.000  0.000 -0.000  0.985
   spin  2
    eigenvalues: 
  0.066  0.121  0.146  0.146  0.247
    eigenvectors:
  0.000  1.000  0.000  0.000  0.000
  0.000  0.000  0.343  0.657  0.000
  0.000  0.000  0.657  0.343  0.000
  1.000  0.000  0.000  0.000  0.000
  0.000  0.000  0.000  0.000  1.000
    occupations:
  0.121 -0.000 -0.000  0.000  0.000
 -0.000  0.146 -0.000  0.000  0.000
 -0.000 -0.000  0.146  0.000  0.000
  0.000  0.000  0.000  0.066 -0.000
  0.000  0.000  0.000 -0.000  0.247
atomic mag. moment =     4.247886
atom    2   Tr[ns(na)] (up, down, total) =   4.97020  0.75935  5.72956
   spin  1
    eigenvalues: 
  0.985  0.993  0.993  0.996  1.002
    eigenvectors:
  0.000  0.000  0.000  1.000  0.000
  0.000  0.290  0.710  0.000  0.000
  0.000  0.710  0.290  0.000  0.000
  0.000  0.000  0.000  0.000  1.000
  1.000  0.000  0.000  0.000  0.000
    occupations:
  0.996 -0.000 -0.000  0.000  0.000
 -0.000  0.993 -0.000  0.000  0.000
 -0.000 -0.000  0.993  0.000  0.000
  0.000  0.000  0.000  1.002 -0.000
  0.000  0.000  0.000 -0.000  0.985
   spin  2
    eigenvalues: 
  0.065  0.138  0.144  0.144  0.269
    eigenvectors:
  0.000  1.000  0.000  0.000  0.000
  0.000  0.000  0.269  0.731  0.000
  0.000  0.000  0.731  0.269  0.000
  1.000  0.000  0.000  0.000  0.000
  0.000  0.000  0.000  0.000  1.000
    occupations:
  0.138 -0.000 -0.000  0.000  0.000
 -0.000  0.144 -0.000  0.000  0.000
 -0.000 -0.000  0.144  0.000  0.000
  0.000  0.000  0.000  0.065 -0.000
  0.000  0.000  0.000 -0.000  0.269
atomic mag. moment =     4.210848
atom    3   Tr[ns(na)] (up, down, total) =   4.97352  0.72538  5.69890
   spin  1
    eigenvalues: 
  0.985  0.994  0.994  0.998  1.002
    eigenvectors:
  0.000  0.000  0.000  1.000  0.000
  0.000  0.286  0.714  0.000  0.000
  0.000  0.714  0.286  0.000  0.000
  0.000  0.000  0.000  0.000  1.000
  1.000  0.000  0.000  0.000  0.000
    occupations:
  0.998 -0.000 -0.000  0.000  0.000
 -0.000  0.994 -0.000  0.000  0.000
 -0.000 -0.000  0.994  0.000  0.000
  0.000  0.000  0.000  1.002 -0.000
  0.000  0.000  0.000 -0.000  0.985
   spin  2
    eigenvalues: 
  0.066  0.121  0.146  0.146  0.247
    eigenvectors:
  0.000  1.000  0.000  0.000  0.000
  0.000  0.000  0.300  0.700  0.000
  0.000  0.000  0.700  0.300  0.000
  1.000  0.000  0.000  0.000  0.000
  0.000  0.000  0.000  0.000  1.000
    occupations:
  0.121 -0.000 -0.000  0.000  0.000
 -0.000  0.146 -0.000  0.000  0.000
 -0.000 -0.000  0.146  0.000  0.000
  0.000  0.000  0.000  0.066 -0.000
  0.000  0.000  0.000 -0.000  0.247
atomic mag. moment =     4.248143
atom    4   Tr[ns(na)] (up, down, total) =   0.73190  4.97024  5.70214
   spin  1
    eigenvalues: 
  0.065  0.133  0.141  0.141  0.252
    eigenvectors:
  0.000  1.000  0.000  0.000  0.000
  0.000  0.000  0.381  0.619  0.000
  0.000  0.000  0.619  0.381  0.000
  1.000  0.000  0.000  0.000  0.000
  0.000  0.000  0.000  0.000  1.000
    occupations:
  0.133 -0.000 -0.000  0.000  0.000
 -0.000  0.141 -0.000  0.000  0.000
 -0.000 -0.000  0.141  0.000  0.000
  0.000  0.000  0.000  0.065 -0.000
  0.000  0.000  0.000 -0.000  0.252
   spin  2
    eigenvalues: 
  0.985  0.994  0.994  0.996  1.003
    eigenvectors:
  0.000  0.000  0.000  1.000  0.000
  0.000  0.315  0.685  0.000  0.000
  0.000  0.685  0.315  0.000  0.000
  0.000  0.000  0.000  0.000  1.000
  1.000  0.000  0.000  0.000  0.000
    occupations:
  0.996 -0.000 -0.000  0.000  0.000
 -0.000  0.994 -0.000  0.000  0.000
 -0.000 -0.000  0.994  0.000  0.000
  0.000  0.000  0.000  1.003 -0.000
  0.000  0.000  0.000 -0.000  0.985
atomic mag. moment =    -4.238335
atom    5   Tr[ns(na)] (up, down, total) =   4.97352  0.72556  5.69908
   spin  1
    eigenvalues: 
  0.985  0.994  0.994  0.998  1.002
    eigenvectors:
  0.000  0.000  0.000  1.000  0.000
  0.000  0.389  0.611  0.000  0.000
  0.000  0.611  0.389  0.000  0.000
  0.000  0.000  0.000  0.000  1.000
  1.000  0.000  0.000  0.000  0.000
    occupations:
  0.998 -0.000 -0.000  0.000  0.000
 -0.000  0.994 -0.000  0.000  0.000
 -0.000 -0.000  0.994  0.000  0.000
  0.000  0.000  0.000  1.002 -0.000
  0.000  0.000  0.000 -0.000  0.985
   spin  2
    eigenvalues: 
  0.066  0.121  0.146  0.146  0.247
    eigenvectors:
  0.000  1.000  0.000  0.000  0.000
  0.000  0.000  0.296  0.704  0.000
  0.000  0.000  0.704  0.296  0.000
  1.000  0.000  0.000  0.000  0.000
  0.000  0.000  0.000  0.000  1.000
    occupations:
  0.121 -0.000 -0.000  0.000  0.000
 -0.000  0.146 -0.000  0.000  0.000
 -0.000 -0.000  0.146  0.000  0.000
  0.000  0.000  0.000  0.066 -0.000
  0.000  0.000  0.000 -0.000  0.247
atomic mag. moment =     4.247959
atom    6   Tr[ns(na)] (up, down, total) =   4.97020  0.75945  5.72965
   spin  1
    eigenvalues: 
  0.985  0.993  0.993  0.996  1.002
    eigenvectors:
  0.000  0.000  0.000  1.000  0.000
  0.000  0.211  0.789  0.000  0.000
  0.000  0.789  0.211  0.000  0.000
  0.000  0.000  0.000  0.000  1.000
  1.000  0.000  0.000  0.000  0.000
    occupations:
  0.996 -0.000 -0.000  0.000  0.000
 -0.000  0.993 -0.000  0.000  0.000
 -0.000 -0.000  0.993  0.000  0.000
  0.000  0.000  0.000  1.002 -0.000
  0.000  0.000  0.000 -0.000  0.985
   spin  2
    eigenvalues: 
  0.065  0.138  0.144  0.144  0.269
    eigenvectors:
  0.000  1.000  0.000  0.000  0.000
  0.000  0.000  0.320  0.680  0.000
  0.000  0.000  0.680  0.320  0.000
  1.000  0.000  0.000  0.000  0.000
  0.000  0.000  0.000  0.000  1.000
    occupations:
  0.138 -0.000 -0.000  0.000  0.000
 -0.000  0.144 -0.000  0.000  0.000
 -0.000 -0.000  0.144  0.000  0.000
  0.000  0.000  0.000  0.065 -0.000
  0.000  0.000  0.000 -0.000  0.269
atomic mag. moment =     4.210746
atom    7   Tr[ns(na)] (up, down, total) =   4.97350  0.72574  5.69924
   spin  1
    eigenvalues: 
  0.985  0.994  0.994  0.998  1.002
    eigenvectors:
  0.000  0.000  0.000  1.000  0.000
  0.000  0.347  0.653  0.000  0.000
  0.000  0.653  0.347  0.000  0.000
  0.000  0.000  0.000  0.000  1.000
  1.000  0.000  0.000  0.000  0.000
    occupations:
  0.998 -0.000 -0.000  0.000  0.000
 -0.000  0.994 -0.000  0.000  0.000
 -0.000 -0.000  0.994  0.000  0.000
  0.000  0.000  0.000  1.002 -0.000
  0.000  0.000  0.000 -0.000  0.985
   spin  2
    eigenvalues: 
  0.066  0.121  0.146  0.146  0.247
    eigenvectors:
  0.000  1.000  0.000  0.000  0.000
  0.000  0.000  0.339  0.661  0.000
  0.000  0.000  0.661  0.339  0.000
  1.000  0.000  0.000  0.000  0.000
  0.000  0.000  0.000  0.000  1.000
    occupations:
  0.121 -0.000 -0.000  0.000  0.000
 -0.000  0.146 -0.000  0.000  0.000
 -0.000 -0.000  0.146  0.000  0.000
  0.000  0.000  0.000  0.066 -0.000
  0.000  0.000  0.000 -0.000  0.247
atomic mag. moment =     4.247764
atom    8   Tr[ns(na)] (up, down, total) =   0.73132  4.97035  5.70167
   spin  1
    eigenvalues: 
  0.065  0.132  0.141  0.141  0.252
    eigenvectors:
  0.000  1.000  0.000  0.000  0.000
  0.000  0.000  0.358  0.642  0.000
  0.000  0.000  0.642  0.358  0.000
  1.000  0.000  0.000  0.000  0.000
  0.000  0.000  0.000  0.000  1.000
    occupations:
  0.132 -0.000 -0.000  0.000  0.000
 -0.000  0.141 -0.000  0.000  0.000
 -0.000 -0.000  0.141  0.000  0.000
  0.000  0.000  0.000  0.065 -0.000
  0.000  0.000  0.000 -0.000  0.252
   spin  2
    eigenvalues: 
  0.985  0.994  0.994  0.996  1.003
    eigenvectors:
  0.000  0.000  0.000  1.000  0.000
  0.000  0.338  0.662  0.000  0.000
  0.000  0.662  0.338  0.000  0.000
  0.000  0.000  0.000  0.000  1.000
  1.000  0.000  0.000  0.000  0.000
    occupations:
  0.996 -0.000 -0.000  0.000  0.000
 -0.000  0.994 -0.000  0.000  0.000
 -0.000 -0.000  0.994  0.000  0.000
  0.000  0.000  0.000  1.003 -0.000
  0.000  0.000  0.000 -0.000  0.985
atomic mag. moment =    -4.239029
N of occupied +U levels =   45.659361
 --- exit write_ns ---

 ------ SPIN UP ------------


          k = 0.0000 0.0000 0.0000 ( 13925 PWs)   bands (ev):

   -66.7573 -66.7572 -66.7569 -66.7567 -66.6199 -66.6199 -62.2208 -62.2200
   -35.5250 -35.5250 -35.5246 -35.5244 -35.4750 -35.4750 -35.4749 -35.4749
   -35.4746 -35.4746 -35.4744 -35.4744 -35.4016 -35.4015 -35.3328 -35.3328
   -35.3328 -35.3328 -31.0459 -31.0453 -31.0376 -31.0376 -31.0368 -31.0368
     5.7412   5.8775   5.9072   6.2779   6.3909   6.9562   7.0631   7.6126
     8.2145   8.3781   8.3852   8.3957   8.4247   8.5249   8.5438   8.5547
     8.7003   8.7632   8.8371   8.8905   8.8923   8.8969   9.1265   9.2684
     9.3008   9.3756   9.3960   9.4413   9.5365   9.6483   9.6877   9.7972
     9.8985   9.9071  10.0008  10.0230  10.0967  10.1228  10.1228  10.1314
    10.1539  10.1539  10.1599  10.2014  10.2014  10.2628  10.3024  10.3115
    10.3298  10.3298  10.3489  10.3489  10.5797  10.5797  10.5803  10.5803
    10.5888  10.5888  10.5905  10.6135  10.6135  10.6304  10.6304  10.6440
    10.6440  10.6634  10.6813  10.7473  10.7473  10.7860  10.7860  10.8284
    10.9246  11.0103  11.0103  11.0240  11.0403  11.0403  11.1408  11.2206
    11.2377  11.2512  11.3331  11.4056  11.4056  11.4369  11.4415  11.4728
    11.6043  11.6043  11.6300  11.6950  11.7728  11.8655  11.8739  11.8933
    11.8933  11.9033  11.9368  11.9691  12.1577  12.1577  12.1595  12.1857
    12.1922  12.2393  12.3313  12.3313  12.5682  12.6181  12.6664  12.6664
    12.7152  12.7152  12.8159  12.8372  12.8619  13.0157  13.0748  13.0795
    13.3102  13.7911  14.2831  15.0038  15.6375  16.3400  16.9023  16.9023
    16.9049  16.9049  16.9398  16.9404  17.0980  17.0985  17.5278  17.5595
    18.1944  19.3311  19.6341  20.0360  20.0360  20.3767  20.3767  20.4368
    20.4368  21.3326

          k = 0.0000 0.0000 0.0242 ( 13893 PWs)   bands (ev):

   -66.7573 -66.7572 -66.7569 -66.7567 -66.6199 -66.6199 -62.2208 -62.2200
   -35.5250 -35.5250 -35.5246 -35.5244 -35.4750 -35.4750 -35.4749 -35.4749
   -35.4746 -35.4746 -35.4744 -35.4744 -35.4016 -35.4015 -35.3328 -35.3328
   -35.3328 -35.3328 -31.0459 -31.0453 -31.0376 -31.0376 -31.0368 -31.0368
     5.7506   5.8253   5.9771   6.1893   6.4941   6.8196   7.2047   7.5412
     8.2840   8.3854   8.3866   8.3940   8.4125   8.5291   8.5502   8.5561
     8.6456   8.6735   8.8446   8.8822   8.9236   8.9895   9.1166   9.2822
     9.3296   9.3300   9.3567   9.4239   9.5809   9.6715   9.6752   9.7746
     9.8996   9.9056  10.0041  10.0197  10.1021  10.1256  10.1256  10.1266
    10.1458  10.1458  10.1831  10.2161  10.2161  10.2683  10.2884  10.2891
    10.2891  10.2962  10.3970  10.3970  10.5295  10.5295  10.5798  10.5798
    10.5802  10.5802  10.6004  10.6284  10.6284  10.6303  10.6303  10.6515
    10.6864  10.6864  10.7039  10.7446  10.7446  10.7954  10.7954  10.8060
    10.9237  10.9237  10.9395  11.0088  11.1341  11.1341  11.1595  11.2229
    11.2350  11.2363  11.3479  11.3479  11.3489  11.4214  11.4461  11.4682
    11.6400  11.6607  11.6607  11.6857  11.7880  11.8503  11.8503  11.8586
    11.8711  11.8978  11.9421  11.9648  12.1725  12.1867  12.1913  12.1920
    12.1920  12.2283  12.3101  12.3101  12.5758  12.6109  12.6751  12.6751
    12.7092  12.7092  12.8359  12.8412  12.8586  12.9686  13.0755  13.0789
    13.3825  13.6986  14.3981  14.8716  15.7756  16.2489  16.9026  16.9026
    16.9046  16.9046  16.9398  16.9404  17.0980  17.0985  17.5298  17.5500
    18.3165  19.0070  19.9877  20.0600  20.0600  20.2461  20.2461  20.6052
    20.6052  20.9792

          k = 0.0000 0.0000-0.0484 ( 13878 PWs)   bands (ev):

   -66.7573 -66.7572 -66.7569 -66.7567 -66.6199 -66.6199 -62.2208 -62.2200
   -35.5250 -35.5250 -35.5246 -35.5244 -35.4750 -35.4750 -35.4749 -35.4749
   -35.4746 -35.4746 -35.4744 -35.4744 -35.4016 -35.4015 -35.3328 -35.3328
   -35.3328 -35.3328 -31.0459 -31.0453 -31.0376 -31.0376 -31.0368 -31.0368
     5.7788   5.7790   6.0763   6.0763   6.6505   6.6506   7.3846   7.3848
     8.3864   8.3865   8.3901   8.3901   8.4519   8.4520   8.5395   8.5395
     8.6248   8.6248   8.8630   8.8631   8.9835   8.9835   9.2064   9.2064
     9.3173   9.3173   9.3822   9.3823   9.6381   9.6382   9.7233   9.7233
     9.9024   9.9025  10.0119  10.0119  10.1145  10.1149  10.1337  10.1337
    10.1339  10.1339  10.2357  10.2358  10.2480  10.2480  10.2481  10.2481
    10.2819  10.2820  10.4602  10.4602  10.4603  10.4603  10.5800  10.5800
    10.5801  10.5801  10.6250  10.6250  10.6298  10.6298  10.6298  10.6298
    10.7308  10.7308  10.7308  10.7308  10.7550  10.7550  10.8400  10.8400
    10.8400  10.8400  10.9740  10.9741  11.1996  11.1996  11.2287  11.2288
    11.2439  11.2439  11.2439  11.2439  11.3853  11.3853  11.4572  11.4572
    11.6631  11.6631  11.7593  11.7593  11.7593  11.7593  11.8232  11.8232
    11.8845  11.8845  11.9539  11.9540  12.1890  12.1891  12.2013  12.2013
    12.2563  12.2563  12.2563  12.2563  12.5936  12.5936  12.6934  12.6934
    12.6935  12.6935  12.8502  12.8502  12.8919  12.8919  13.0772  13.0772
    13.5330  13.5330  14.6284  14.6285  16.0281  16.0283  16.9031  16.9031
    16.9041  16.9041  16.9398  16.9404  17.0980  17.0985  17.5367  17.5370
    18.6177  18.6179  20.1309  20.1309  20.1311  20.1311  20.4749  20.4750
    20.8336  20.8336

          k = 0.0000 0.1250 0.0000 ( 13879 PWs)   bands (ev):

   -66.7571 -66.7570 -66.7566 -66.7565 -66.6197 -66.6196 -62.2208 -62.2200
   -35.5249 -35.5248 -35.5245 -35.5242 -35.4768 -35.4766 -35.4763 -35.4762
   -35.4749 -35.4748 -35.4745 -35.4743 -35.4014 -35.4013 -35.3346 -35.3346
   -35.3327 -35.3327 -31.0457 -31.0451 -31.0398 -31.0390 -31.0375 -31.0367
     5.9848   6.1182   6.1451   6.5053   6.6084   7.1494   7.2345   7.7421
     8.2305   8.4685   8.5118   8.5209   8.5291   8.6119   8.6560   8.6659
     8.6857   8.7675   8.8022   8.8888   8.9594   8.9872   9.1488   9.2090
     9.2342   9.2588   9.3069   9.4089   9.4326   9.6120   9.7082   9.7850
     9.8130   9.8175   9.8259   9.8814   9.9254   9.9292   9.9391   9.9517
    10.0272  10.0455  10.0509  10.1108  10.1496  10.1894  10.1950  10.2344
    10.2725  10.2788  10.3451  10.3856  10.4076  10.4182  10.5051  10.5667
    10.5929  10.6328  10.6548  10.6826  10.6926  10.7201  10.7520  10.8269
    10.8319  10.8367  10.8582  10.8807  10.8818  11.0159  11.0659  11.0694
    11.1219  11.1342  11.1352  11.1427  11.1522  11.1591  11.2667  11.3075
    11.3130  11.3385  11.3710  11.3865  11.4008  11.4275  11.4328  11.5566
    11.6062  11.6917  11.7293  11.7414  11.7970  11.8118  11.8212  11.8356
    11.8559  11.9525  11.9963  12.0153  12.0230  12.1635  12.1656  12.1677
    12.2271  12.2891  12.3011  12.4042  12.4963  12.5612  12.5635  12.6488
    12.6766  12.7192  12.7610  12.9421  12.9514  12.9542  12.9739  12.9936
    13.2693  13.8423  14.3196  15.1331  15.7549  16.4703  16.6843  16.7550
    16.9501  16.9509  16.9962  16.9968  17.0300  17.0313  17.5575  17.8762
    18.2827  18.6062  18.8828  18.9926  19.7064  19.7310  19.8361  19.9174
    20.6459  20.8582

          k = 0.0000 0.1250 0.0242 ( 13869 PWs)   bands (ev):

   -66.7571 -66.7570 -66.7566 -66.7565 -66.6197 -66.6196 -62.2208 -62.2200
   -35.5249 -35.5248 -35.5245 -35.5242 -35.4768 -35.4766 -35.4763 -35.4762
   -35.4749 -35.4748 -35.4745 -35.4743 -35.4014 -35.4013 -35.3346 -35.3346
   -35.3327 -35.3327 -31.0457 -31.0451 -31.0398 -31.0390 -31.0375 -31.0367
     5.9940   6.0668   6.2136   6.4188   6.7083   7.0168   7.3699   7.6770
     8.2898   8.4745   8.4948   8.5223   8.5256   8.5688   8.6435   8.6619
     8.6755   8.7720   8.8484   8.8998   8.9573   9.0021   9.1196   9.1787
     9.2412   9.2642   9.3253   9.3973   9.4617   9.5799   9.7340   9.7874
     9.8028   9.8057   9.8405   9.8749   9.9263   9.9289   9.9400   9.9483
    10.0281  10.0370  10.0651  10.1025  10.1562  10.1851  10.2005  10.2508
    10.2534  10.2941  10.3335  10.3346  10.4332  10.4699  10.4916  10.5722
    10.5898  10.6375  10.6403  10.6528  10.6844  10.6914  10.8223  10.8305
    10.8322  10.8395  10.8525  10.8774  10.8947  11.0208  11.0423  11.0566
    11.1139  11.1201  11.1322  11.1415  11.1645  11.1720  11.2554  11.3112
    11.3216  11.3532  11.3569  11.3857  11.3978  11.4370  11.4561  11.5603
    11.5817  11.6971  11.7349  11.7422  11.7490  11.8032  11.8294  11.8596
    11.8697  11.9564  11.9790  11.9986  12.0638  12.1642  12.1671  12.1818
    12.2009  12.2623  12.3262  12.3923  12.5092  12.5541  12.5774  12.6359
    12.6851  12.7140  12.7830  12.9345  12.9435  12.9500  12.9575  12.9713
    13.3579  13.7284  14.4564  14.9856  15.8998  16.3727  16.7099  16.7514
    16.9501  16.9509  16.9962  16.9968  17.0301  17.0312  17.5776  17.7680
    18.4758  18.6365  18.7838  19.1217  19.3207  19.5375  20.0438  20.3109
    20.6192  20.6653

          k = 0.0000 0.1250-0.0484 ( 13868 PWs)   bands (ev):

   -66.7571 -66.7570 -66.7566 -66.7565 -66.6197 -66.6196 -62.2208 -62.2200
   -35.5249 -35.5248 -35.5245 -35.5242 -35.4768 -35.4766 -35.4763 -35.4762
   -35.4749 -35.4748 -35.4745 -35.4743 -35.4014 -35.4013 -35.3346 -35.3346
   -35.3327 -35.3327 -31.0457 -31.0451 -31.0398 -31.0390 -31.0375 -31.0367
     6.0214   6.0216   6.3095   6.3096   6.8570   6.8571   7.5348   7.5349
     8.4109   8.4110   8.4940   8.4942   8.5266   8.5267   8.6520   8.6520
     8.7188   8.7188   8.9073   8.9073   8.9802   8.9802   9.1249   9.1249
     9.2551   9.2552   9.3655   9.3657   9.5206   9.5207   9.7737   9.7739
     9.7943   9.7945   9.8592   9.8593   9.9278   9.9278   9.9429   9.9430
    10.0310  10.0311  10.0847  10.0847  10.1696  10.1697  10.2261  10.2262
    10.2863  10.2863  10.3131  10.3131  10.4627  10.4629  10.5513  10.5513
    10.5818  10.5820  10.6464  10.6466  10.6882  10.6882  10.8327  10.8328
    10.8403  10.8406  10.8669  10.8669  10.9617  10.9617  11.0354  11.0356
    11.1212  11.1212  11.1248  11.1248  11.1903  11.1903  11.2540  11.2541
    11.3511  11.3512  11.3715  11.3715  11.4529  11.4530  11.4700  11.4700
    11.6558  11.6558  11.7202  11.7202  11.7728  11.7728  11.8472  11.8473
    11.9390  11.9391  11.9661  11.9661  12.1377  12.1377  12.1657  12.1657
    12.2203  12.2203  12.3620  12.3621  12.5343  12.5343  12.6076  12.6076
    12.7007  12.7007  12.8455  12.8456  12.9468  12.9468  12.9647  12.9648
    13.5340  13.5340  14.7164  14.7165  16.1538  16.1540  16.7376  16.7385
    16.9502  16.9508  16.9963  16.9968  17.0301  17.0312  17.6440  17.6444
    18.6740  18.6741  18.8851  18.8853  19.3183  19.3183  20.3020  20.3020
    20.7225  20.7227

          k = 0.0000 0.2500 0.0000 ( 13848 PWs)   bands (ev):

   -66.7569 -66.7568 -66.7565 -66.7563 -66.6195 -66.6195 -62.2204 -62.2196
   -35.5245 -35.5244 -35.5241 -35.5239 -35.4810 -35.4808 -35.4805 -35.4804
   -35.4747 -35.4745 -35.4742 -35.4741 -35.4010 -35.4009 -35.3388 -35.3388
   -35.3325 -35.3325 -31.0451 -31.0451 -31.0445 -31.0442 -31.0371 -31.0363
     6.6740   6.7963   6.8146   7.1334   7.2045   7.6400   7.6634   8.0098
     8.2120   8.4380   8.4419   8.6436   8.6696   8.7236   8.7806   8.7849
     8.8337   8.8399   8.9146   8.9268   8.9302   8.9464   8.9547   9.0892
     9.0988   9.1035   9.3476   9.4651   9.4743   9.4996   9.5501   9.5880
     9.6041   9.6063   9.6146   9.6687   9.6742   9.6824   9.7960   9.8537
     9.8921   9.9192   9.9429   9.9947  10.0311  10.1511  10.2394  10.2626
    10.3347  10.4697  10.4901  10.5395  10.5820  10.6027  10.6167  10.6228
    10.7338  10.7340  10.7551  10.7906  10.8055  10.8262  10.8611  10.8805
    11.0329  11.0466  11.0825  11.0855  11.1098  11.1233  11.1493  11.1832
    11.2596  11.2922  11.3411  11.3455  11.3805  11.4099  11.4293  11.4910
    11.5190  11.5387  11.5878  11.5917  11.6319  11.6532  11.6619  11.7090
    11.7239  11.7548  11.7804  11.7843  11.8096  11.8243  11.8317  11.8689
    11.8757  11.9631  11.9967  12.0290  12.0309  12.1157  12.1161  12.1181
    12.2238  12.2385  12.2957  12.3600  12.4975  12.5167  12.5846  12.6672
    12.7448  12.7617  12.7894  12.9162  12.9759  12.9956  13.0205  13.0262
    13.1422  13.9906  14.3871  15.3699  15.7700  16.0250  16.1554  16.2630
    16.2928  16.5984  16.7924  16.8559  16.8564  16.8616  17.1583  17.2812
    17.2823  17.4385  17.5416  17.6855  18.3499  18.3914  18.4239  18.4649
    19.2650  20.3032

          k = 0.0000 0.2500 0.0242 ( 13862 PWs)   bands (ev):

   -66.7569 -66.7568 -66.7565 -66.7563 -66.6195 -66.6195 -62.2204 -62.2196
   -35.5245 -35.5244 -35.5241 -35.5239 -35.4810 -35.4808 -35.4805 -35.4804
   -35.4747 -35.4745 -35.4742 -35.4741 -35.4010 -35.4009 -35.3388 -35.3388
   -35.3325 -35.3325 -31.0451 -31.0451 -31.0445 -31.0442 -31.0371 -31.0363
     6.6824   6.7481   6.8774   7.0560   7.2898   7.5295   7.7695   7.9674
     8.2455   8.3763   8.4996   8.6070   8.6971   8.7352   8.7558   8.7859
     8.8366   8.8399   8.9140   8.9250   8.9453   8.9536   8.9571   9.0682
     9.0911   9.1005   9.3875   9.4660   9.4721   9.5052   9.5373   9.5610
     9.6053   9.6069   9.6100   9.6635   9.6734   9.6737   9.8117   9.8756
     9.9017   9.9253   9.9402  10.0018  10.0269  10.0916  10.2492  10.3125
    10.3150  10.4580  10.5030  10.5417  10.5652  10.6149  10.6249  10.6503
    10.6552  10.7349  10.7566  10.7912  10.8347  10.8359  10.8502  10.9264
    10.9962  11.0218  11.0579  11.0712  11.1235  11.1610  11.1800  11.1864
    11.2575  11.2811  11.3292  11.3335  11.3847  11.4065  11.4493  11.4999
    11.5144  11.5363  11.5717  11.5814  11.6105  11.6723  11.6974  11.7238
    11.7254  11.7288  11.7559  11.8013  11.8143  11.8313  11.8362  11.8627
    11.8746  11.9462  11.9959  12.0053  12.0580  12.1164  12.1178  12.1503
    12.1852  12.2277  12.3216  12.3590  12.4960  12.5090  12.6116  12.6798
    12.7321  12.7685  12.7864  12.8144  12.9790  12.9929  13.0215  13.0255
    13.2874  13.8104  14.5818  15.1995  15.8811  16.0369  16.1268  16.1685
    16.4196  16.5958  16.7876  16.8372  16.8559  16.8564  17.1714  17.2812
    17.2823  17.3216  17.6775  17.7252  18.1755  18.1829  18.5596  18.6724
    19.3112  19.9209

          k = 0.0000 0.2500-0.0484 ( 13842 PWs)   bands (ev):

   -66.7569 -66.7568 -66.7565 -66.7563 -66.6195 -66.6195 -62.2204 -62.2196
   -35.5245 -35.5244 -35.5241 -35.5238 -35.4810 -35.4808 -35.4805 -35.4804
   -35.4747 -35.4745 -35.4742 -35.4741 -35.4010 -35.4009 -35.3388 -35.3388
   -35.3325 -35.3325 -31.0451 -31.0451 -31.0445 -31.0442 -31.0371 -31.0363
     6.7072   6.7074   6.9615   6.9615   7.4077   7.4077   7.8773   7.8775
     8.3095   8.3095   8.5554   8.5554   8.7257   8.7258   8.7631   8.7631
     8.8392   8.8393   8.9198   8.9198   8.9503   8.9503   9.0083   9.0083
     9.0956   9.0959   9.4684   9.4685   9.4720   9.4720   9.5190   9.5191
     9.6082   9.6085   9.6355   9.6355   9.6726   9.6727   9.8438   9.8439
     9.9336   9.9336   9.9950   9.9950  10.0157  10.0158  10.2761  10.2762
    10.3916  10.3916  10.5495  10.5496  10.5725  10.5726  10.6259  10.6259
    10.7045  10.7045  10.7521  10.7521  10.8507  10.8508  10.9199  10.9200
    10.9808  10.9808  11.0478  11.0479  11.1616  11.1617  11.1996  11.1996
    11.2629  11.2630  11.3188  11.3188  11.3960  11.3961  11.4878  11.4878
    11.5199  11.5199  11.5574  11.5575  11.6646  11.6646  11.6957  11.6957
    11.7299  11.7300  11.7774  11.7776  11.8398  11.8399  11.8475  11.8475
    11.8943  11.8944  11.9952  11.9953  12.1171  12.1171  12.1198  12.1199
    12.1965  12.1966  12.3491  12.3492  12.4979  12.4980  12.6909  12.6910
    12.7066  12.7067  12.7785  12.7785  12.9861  12.9862  13.0236  13.0236
    13.5373  13.5373  14.8956  14.8957  16.0169  16.0173  16.1001  16.1003
    16.5483  16.5486  16.7940  16.7941  16.8559  16.8564  17.2193  17.2194
    17.2812  17.2823  17.7872  17.7875  18.0499  18.0499  18.6953  18.6954
    19.5430  19.5431

          k = 0.0000 0.3750 0.0000 ( 13856 PWs)   bands (ev):

   -66.7575 -66.7574 -66.7571 -66.7569 -66.6201 -66.6201 -62.2194 -62.2187
   -35.5241 -35.5240 -35.5237 -35.5234 -35.4850 -35.4849 -35.4846 -35.4845
   -35.4744 -35.4743 -35.4740 -35.4738 -35.4006 -35.4005 -35.3429 -35.3429
   -35.3323 -35.3322 -31.0505 -31.0496 -31.0446 -31.0439 -31.0368 -31.0360
     7.6351   7.7323   7.7349   7.9549   7.9558   8.1126   8.1335   8.1717
     8.1759   8.2162   8.2317   8.3357   8.3575   8.5036   8.5572   8.7074
     8.8369   8.9343   8.9682   9.0109   9.1287   9.1863   9.2214   9.2258
     9.2319   9.2336   9.2422   9.2487   9.3130   9.3308   9.3752   9.3891
     9.4345   9.4620   9.5859   9.6490   9.6547   9.6591   9.7211   9.7257
     9.7416   9.9911  10.0109  10.0445  10.0730  10.0736  10.1868  10.3555
    10.3583  10.3760  10.4063  10.4220  10.5026  10.5193  10.5377  10.7237
    10.7708  10.8433  10.8555  10.9500  10.9679  11.1108  11.1419  11.1670
    11.2513  11.3205  11.3220  11.3664  11.3894  11.4656  11.4730  11.4747
    11.4757  11.5079  11.5293  11.5405  11.5408  11.5770  11.6140  11.6183
    11.6395  11.6912  11.7060  11.7316  11.7877  11.8230  11.8306  11.8645
    11.8787  11.9238  11.9534  12.0014  12.0408  12.0571  12.0666  12.0780
    12.0911  12.1519  12.1693  12.1929  12.2675  12.3005  12.3729  12.3786
    12.3957  12.4018  12.5067  12.5323  12.5514  12.6184  12.6212  12.7605
    12.8415  12.8555  12.8752  12.9582  13.0013  13.0470  13.0613  13.0693
    13.0733  13.9104  14.1106  14.1257  14.2331  14.2539  14.9969  15.0078
    15.0409  15.0971  15.7310  15.7859  15.9513  15.9831  16.7854  16.7859
    16.9331  16.9681  16.9908  17.0732  17.4827  17.4838  17.9285  17.9585
    19.4502  19.5753

          k = 0.0000 0.3750 0.0242 ( 13870 PWs)   bands (ev):

   -66.7575 -66.7574 -66.7571 -66.7569 -66.6201 -66.6201 -62.2194 -62.2187
   -35.5241 -35.5240 -35.5237 -35.5234 -35.4850 -35.4849 -35.4846 -35.4845
   -35.4744 -35.4743 -35.4740 -35.4738 -35.4006 -35.4005 -35.3429 -35.3429
   -35.3323 -35.3322 -31.0505 -31.0496 -31.0446 -31.0439 -31.0368 -31.0360
     7.6416   7.6920   7.7836   7.8977   8.0090   8.0926   8.1448   8.1665
     8.1808   8.2027   8.2506   8.3099   8.3872   8.4735   8.5891   8.6842
     8.8601   8.9424   8.9480   8.9949   9.1412   9.2080   9.2196   9.2218
     9.2247   9.2338   9.2408   9.2668   9.3113   9.3350   9.3621   9.4021
     9.4024   9.4303   9.6269   9.6503   9.6543   9.6579   9.7272   9.7384
     9.7528   9.9801   9.9972  10.0108  10.0454  10.0662  10.2688  10.3497
    10.3597  10.3872  10.4080  10.4186  10.4902  10.4991  10.5582  10.6780
    10.7695  10.8227  10.8949  10.9832  10.9971  11.0647  11.1554  11.1718
    11.2728  11.2908  11.3441  11.3625  11.4048  11.4180  11.4184  11.4688
    11.4751  11.5125  11.5227  11.5346  11.5589  11.5929  11.6012  11.6329
    11.6567  11.7022  11.7059  11.7547  11.7805  11.7927  11.8247  11.8658
    11.8734  11.8816  11.9916  12.0214  12.0576  12.0588  12.0708  12.0740
    12.1274  12.1518  12.1598  12.2214  12.2384  12.3167  12.3647  12.3892
    12.3997  12.4270  12.5084  12.5301  12.5344  12.6156  12.6194  12.6975
    12.7744  12.8280  12.8621  12.8736  13.0491  13.0590  13.0703  13.0729
    13.2722  13.8233  13.9718  14.1136  14.3511  14.4028  14.8059  14.8326
    15.1868  15.2924  15.6342  15.8384  15.8843  16.0108  16.7854  16.7859
    16.9463  16.9670  16.9984  17.0600  17.4827  17.4838  17.9343  17.9554
    19.4723  19.6369

          k = 0.0000 0.3750-0.0484 ( 13872 PWs)   bands (ev):

   -66.7575 -66.7574 -66.7571 -66.7569 -66.6201 -66.6201 -62.2194 -62.2187
   -35.5241 -35.5240 -35.5237 -35.5234 -35.4850 -35.4849 -35.4846 -35.4845
   -35.4744 -35.4743 -35.4740 -35.4738 -35.4006 -35.4005 -35.3429 -35.3429
   -35.3323 -35.3322 -31.0505 -31.0496 -31.0446 -31.0439 -31.0368 -31.0360
     7.6608   7.6610   7.8393   7.8393   8.0556   8.0556   8.1573   8.1574
     8.1895   8.1896   8.2788   8.2789   8.4292   8.4292   8.6381   8.6382
     8.9051   8.9051   8.9651   8.9652   9.1727   9.1728   9.2230   9.2230
     9.2374   9.2374   9.2714   9.2715   9.3249   9.3250   9.3462   9.3463
     9.4186   9.4187   9.6518   9.6520   9.6528   9.6528   9.7320   9.7320
     9.8527   9.8528  10.0074  10.0074  10.0522  10.0522  10.3384  10.3384
    10.3803  10.3803  10.4126  10.4127  10.4729  10.4730  10.6103  10.6104
    10.7840  10.7841  10.9810  10.9810  11.0164  11.0164  11.1845  11.1846
    11.2680  11.2681  11.3561  11.3562  11.3711  11.3712  11.4566  11.4567
    11.4765  11.4765  11.5476  11.5477  11.5656  11.5656  11.6154  11.6154
    11.7008  11.7008  11.7376  11.7377  11.7893  11.7894  11.8072  11.8073
    11.8832  11.8833  12.0139  12.0141  12.0702  12.0704  12.0977  12.0978
    12.1411  12.1411  12.1515  12.1515  12.3429  12.3430  12.3948  12.3948
    12.4280  12.4281  12.4873  12.4874  12.5286  12.5286  12.6159  12.6160
    12.8022  12.8023  12.8691  12.8691  13.0540  13.0540  13.0718  13.0718
    13.5594  13.5594  14.0188  14.0190  14.5340  14.5340  14.6552  14.6553
    15.3343  15.3345  15.6673  15.6673  15.9741  15.9743  16.7854  16.7860
    16.9618  16.9621  17.0268  17.0272  17.4827  17.4838  17.9461  17.9463
    19.5534  19.5535

          k = 0.0000-0.5000 0.0000 ( 13918 PWs)   bands (ev):

   -66.7579 -66.7578 -66.7575 -66.7573 -66.6205 -66.6205 -62.2189 -62.2181
   -35.5239 -35.5238 -35.5235 -35.5233 -35.4867 -35.4866 -35.4862 -35.4861
   -35.4743 -35.4742 -35.4739 -35.4737 -35.4004 -35.4003 -35.3445 -35.3445
   -35.3322 -35.3321 -31.0527 -31.0519 -31.0444 -31.0437 -31.0367 -31.0359
     8.1076   8.1083   8.1267   8.1487   8.1562   8.2199   8.2405   8.2815
     8.3194   8.3762   8.4176   8.4591   8.4809   8.5089   8.6208   8.6580
     8.6721   8.8016   8.8183   8.8604   9.1158   9.1325   9.1331   9.1458
     9.1944   9.2493   9.2820   9.2832   9.3119   9.3203   9.3462   9.4193
     9.5000   9.6567   9.6637   9.6652   9.6851   9.6899   9.7053   9.7524
     9.8063   9.8409   9.8608  10.0200  10.0331  10.0339  10.0766  10.1246
    10.1474  10.4064  10.4882  10.4901  10.5255  10.5364  10.5528  10.5709
    10.5771  10.7181  10.7205  11.1505  11.1596  11.2492  11.2587  11.2758
    11.3510  11.3938  11.4139  11.5067  11.5248  11.5435  11.5554  11.5572
    11.5605  11.5721  11.5775  11.6218  11.6369  11.6484  11.6514  11.6761
    11.7116  11.7412  11.7889  11.8205  11.8398  11.8481  11.9126  11.9466
    11.9489  12.1169  12.1754  12.1921  12.3086  12.3366  12.4032  12.4097
    12.4098  12.4306  12.4949  12.5225  12.5377  12.5786  12.5842  12.6358
    12.6434  12.6549  12.6723  12.6924  12.7550  12.8383  12.8416  12.8610
    12.9330  12.9404  12.9716  13.0296  13.0730  13.0891  13.0894  13.0957
    13.1274  13.3416  13.4398  13.4720  13.7248  13.8095  13.9321  13.9814
    14.3253  14.4181  14.4590  14.5312  14.7592  14.8217  16.6577  16.7142
    16.7667  16.7672  16.8325  16.8351  17.5565  17.5577  17.9070  17.9260
    19.4688  19.5398

          k = 0.0000-0.5000 0.0242 ( 13918 PWs)   bands (ev):

[...]
    11.8499  11.8499  11.8789  11.8790  11.9156  11.9156  11.9885  11.9886
    12.0668  12.0669  12.2419  12.2420  12.3221  12.3222  12.4287  12.4288
    12.4580  12.4580  12.8164  12.8164  12.8806  12.8806  13.0712  13.0713
    13.2427  13.2428  13.6879  13.6879  13.8244  13.8245  14.1176  14.1176
    14.4730  14.4730  14.6666  14.6666  14.8846  14.8846  15.4624  15.4625
    16.1289  16.1291  16.9187  16.9188  16.9490  16.9492  17.0845  17.0845
    17.1368  17.1368  17.1392  17.1394  17.1791  17.1792  17.4582  17.4582
    17.5109  17.5110  17.8382  17.8383  17.8708  17.8710  18.1273  18.1274
    18.2205  18.2205  18.2858  18.2858  18.4849  18.4851  18.5291  18.5292
    19.9859  20.1022

          k = 0.3750 0.3750 0.0000 ( 13948 PWs)   bands (ev):

   -66.8127 -66.8112 -62.1528 -62.1526 -62.1524 -62.1523 -62.0541 -62.0540
   -35.5804 -35.5792 -35.5397 -35.5396 -35.5381 -35.5380 -30.9857 -30.9855
   -30.9855 -30.9853 -30.9853 -30.9853 -30.9851 -30.9851 -30.9734 -30.9733
   -30.9731 -30.9729 -30.8865 -30.8864 -30.8829 -30.8828 -30.8827 -30.8826
     8.1622   8.1863   8.4926   8.5151   8.5191   8.7001   8.7343   8.8405
     9.0399   9.0458   9.1149   9.1550   9.1754   9.2386   9.2703   9.3068
     9.3241   9.3351   9.3618   9.4185   9.4299   9.4743   9.5134   9.5249
     9.5272   9.5740   9.5913   9.6072   9.6901   9.7204   9.7283   9.9126
     9.9542   9.9742  10.0099  10.0292  10.0854  10.1241  10.1402  10.1419
    10.2231  10.2650  10.2738  10.4263  10.4433  10.5669  10.5746  10.5845
    10.5973  10.6859  10.7595  10.7643  10.8027  10.8284  10.8376  10.9240
    11.0482  11.0670  11.1690  11.1818  11.1979  11.2489  11.2704  11.3421
    11.4474  11.4836  11.4924  11.5307  11.5819  11.6010  11.6072  11.6170
    11.7564  11.8778  11.9025  11.9529  11.9635  11.9696  11.9722  12.0467
    12.0594  12.0704  12.0966  12.1529  12.1575  12.2307  12.2321  12.2429
    12.3816  12.4201  12.5277  12.6587  12.6673  12.9065  12.9930  13.1846
    13.3755  13.5120  13.9272  14.0872  14.3721  14.5897  14.7702  14.8971
    15.0974  15.1473  15.2362  15.3014  15.4255  15.4449  16.3265  16.3404
    16.4156  16.4641  16.9683  17.0368  17.0606  17.0826  17.1164  17.1271
    17.1568  17.1608  17.2706  17.3926  17.4174  17.4824  17.6402  17.7098
    17.8529  17.8727  17.8728  17.8791  17.9606  18.0431  18.1129  18.2074
    18.3302  18.3598  18.3830  18.4090  18.6000  18.8688  19.0093  19.0422
    19.0908  19.1019

          k = 0.3750 0.3750 0.0242 ( 13940 PWs)   bands (ev):

   -66.8127 -66.8112 -62.1528 -62.1526 -62.1524 -62.1523 -62.0541 -62.0540
   -35.5804 -35.5792 -35.5397 -35.5396 -35.5381 -35.5380 -30.9857 -30.9855
   -30.9855 -30.9853 -30.9853 -30.9853 -30.9851 -30.9851 -30.9734 -30.9733
   -30.9731 -30.9729 -30.8865 -30.8864 -30.8829 -30.8828 -30.8827 -30.8826
     8.1654   8.1824   8.4943   8.5054   8.5424   8.6470   8.7819   8.8379
     9.0419   9.0486   9.1013   9.1552   9.1753   9.2103   9.2792   9.3254
     9.3331   9.3419   9.3619   9.4260   9.4369   9.4711   9.4839   9.5001
     9.5602   9.5632   9.5835   9.6378   9.6650   9.6898   9.7884   9.9226
     9.9260   9.9744   9.9799  10.0314  10.0923  10.1218  10.1380  10.2035
    10.2292  10.2329  10.2717  10.3862  10.4711  10.5488  10.5667  10.5850
    10.6343  10.6961  10.7504  10.7549  10.8096  10.8338  10.8382  10.9023
    11.0508  11.0642  11.1759  11.1814  11.2125  11.2478  11.2735  11.3262
    11.4507  11.4725  11.5035  11.5267  11.5845  11.5969  11.6102  11.6162
    11.7691  11.8428  11.9381  11.9540  11.9612  11.9705  11.9720  12.0251
    12.0520  12.0849  12.1000  12.1494  12.1679  12.2203  12.2346  12.2420
    12.3886  12.4154  12.5370  12.6073  12.7273  12.8638  13.0350  13.1575
    13.4003  13.4937  13.9483  14.0584  14.4052  14.5515  14.7992  14.8841
    15.1028  15.1368  15.2484  15.2931  15.4290  15.4426  16.3284  16.3383
    16.4222  16.4565  16.9796  17.0293  17.0616  17.0746  17.1200  17.1264
    17.1575  17.1602  17.2853  17.3700  17.4267  17.4723  17.6551  17.7027
    17.8722  17.8727  17.8728  17.8858  17.9450  18.0056  18.1460  18.2145
    18.2798  18.3085  18.4698  18.4775  18.6570  18.8051  18.8168  18.8808
    19.1334  19.1796

          k = 0.3750 0.3750-0.0484 ( 13950 PWs)   bands (ev):

   -66.8127 -66.8112 -62.1528 -62.1526 -62.1524 -62.1523 -62.0541 -62.0540
   -35.5804 -35.5792 -35.5397 -35.5396 -35.5381 -35.5380 -30.9857 -30.9855
   -30.9855 -30.9853 -30.9853 -30.9853 -30.9851 -30.9851 -30.9734 -30.9733
   -30.9731 -30.9729 -30.8865 -30.8864 -30.8829 -30.8828 -30.8827 -30.8826
     8.1733   8.1736   8.4986   8.4989   8.5871   8.5871   8.8223   8.8223
     9.0474   9.0475   9.1120   9.1121   9.1952   9.1953   9.3075   9.3076
     9.3290   9.3290   9.4287   9.4287   9.4558   9.4559   9.4575   9.4575
     9.5672   9.5673   9.6112   9.6112   9.6736   9.6736   9.8560   9.8560
     9.9677   9.9678   9.9750   9.9754  10.1294  10.1294  10.1666  10.1666
    10.2398  10.2401  10.3087  10.3087  10.5226  10.5227  10.5623  10.5624
    10.6926  10.6927  10.7390  10.7390  10.8231  10.8232  10.8643  10.8643
    11.0574  11.0574  11.1798  11.1802  11.2392  11.2398  11.2920  11.2924
    11.4597  11.4598  11.5166  11.5168  11.5902  11.5905  11.6137  11.6140
    11.8012  11.8013  11.9571  11.9573  11.9715  11.9715  11.9825  11.9826
    12.0661  12.0661  12.1286  12.1287  12.1955  12.1955  12.2390  12.2392
    12.4031  12.4031  12.5641  12.5642  12.7958  12.7958  13.0996  13.0996
    13.4495  13.4496  14.0002  14.0003  14.4769  14.4769  14.8478  14.8479
    15.1176  15.1177  15.2723  15.2723  15.4363  15.4365  16.3332  16.3333
    16.4388  16.4389  17.0059  17.0061  17.0654  17.0654  17.1242  17.1243
    17.1589  17.1589  17.3240  17.3242  17.4491  17.4491  17.6824  17.6824
    17.8727  17.8728  17.8993  17.8995  17.9440  17.9441  18.2208  18.2208
    18.2373  18.2374  18.6178  18.6178  18.6369  18.6370  18.7601  18.7601
    19.1600  19.1601

          k = 0.3750-0.5000 0.0000 ( 13934 PWs)   bands (ev):

   -66.8128 -66.8113 -62.1525 -62.1524 -62.1522 -62.1521 -62.0538 -62.0538
   -35.5803 -35.5791 -35.5413 -35.5397 -35.5395 -35.5379 -30.9878 -30.9876
   -30.9874 -30.9874 -30.9854 -30.9852 -30.9850 -30.9849 -30.9733 -30.9732
   -30.9729 -30.9728 -30.8863 -30.8863 -30.8850 -30.8849 -30.8826 -30.8825
     8.2789   8.2890   8.3039   8.3297   8.6481   8.6860   8.7432   8.7850
     8.9531   9.0595   9.1335   9.1857   9.1867   9.1908   9.2099   9.2768
     9.2783   9.2976   9.3255   9.3745   9.3777   9.4125   9.4244   9.4833
     9.5127   9.5475   9.6214   9.6490   9.7074   9.7121   9.8788   9.9390
     9.9661   9.9840  10.0003  10.0012  10.0815  10.0920  10.1919  10.2269
    10.3214  10.3719  10.3772  10.4813  10.5517  10.5625  10.6370  10.7298
    10.7316  10.7398  10.7960  10.8663  10.8708  11.0861  11.0931  11.1113
    11.1710  11.2074  11.2180  11.3190  11.3641  11.3847  11.4659  11.5109
    11.5170  11.6459  11.6623  11.6886  11.7092  11.7455  11.7810  11.8224
    11.9300  11.9560  11.9849  11.9854  11.9936  12.0079  12.0830  12.1000
    12.1088  12.1134  12.1814  12.2016  12.2957  12.2984  12.2990  12.3619
    12.3675  12.4186  12.9302  13.0430  13.0512  13.1011  13.1810  13.2766
    13.6739  13.7193  14.1471  14.2294  14.3229  14.3671  14.4403  14.4410
    14.6601  14.6984  14.7217  14.7640  15.3908  15.3951  15.7373  15.7540
    16.7797  16.8104  17.0234  17.0591  17.0608  17.0731  17.0732  17.0991
    17.1052  17.2070  17.2673  17.3219  17.3375  17.6877  17.7600  17.8567
    17.9041  17.9337  18.0256  18.0352  18.0870  18.1083  18.1640  18.1921
    18.2042  18.4951  18.4980  18.5729  18.7620  18.7646  18.8871  18.9123
    18.9616  19.1792

          k = 0.3750-0.5000 0.0242 ( 13948 PWs)   bands (ev):

   -66.8128 -66.8113 -62.1525 -62.1524 -62.1522 -62.1521 -62.0538 -62.0538
   -35.5803 -35.5791 -35.5413 -35.5397 -35.5395 -35.5379 -30.9878 -30.9876
   -30.9874 -30.9874 -30.9854 -30.9852 -30.9850 -30.9849 -30.9733 -30.9732
   -30.9729 -30.9728 -30.8863 -30.8863 -30.8850 -30.8849 -30.8826 -30.8825
     8.2803   8.2874   8.3072   8.3254   8.6630   8.6933   8.7335   8.7544
     8.9918   9.0736   9.1264   9.1491   9.1873   9.1915   9.1957   9.2495
     9.3006   9.3205   9.3222   9.3798   9.4006   9.4086   9.4171   9.4845
     9.5105   9.5620   9.5791   9.6504   9.6987   9.7742   9.8331   9.9101
     9.9690   9.9995  10.0036  10.0106  10.0973  10.1220  10.1782  10.2349
    10.2742  10.3067  10.4473  10.5285  10.5492  10.5599  10.6254  10.7107
    10.7382  10.7424  10.7828  10.8016  10.9536  11.0886  11.0894  11.0928
    11.1907  11.2085  11.2156  11.2933  11.3696  11.3834  11.4716  11.5036
    11.5373  11.6187  11.6807  11.6955  11.7063  11.7332  11.7914  11.8183
    11.9338  11.9524  11.9855  11.9885  11.9912  12.0044  12.0863  12.0981
    12.1095  12.1128  12.1834  12.1972  12.2969  12.2990  12.3097  12.3580
    12.3692  12.4094  12.9446  13.0267  13.0516  13.0926  13.2023  13.2665
    13.6806  13.7127  14.1555  14.2101  14.3461  14.3766  14.4250  14.4283
    14.6711  14.7098  14.7141  14.7557  15.3914  15.3945  15.7398  15.7516
    16.7837  16.8053  17.0278  17.0498  17.0696  17.0730  17.0732  17.0928
    17.1205  17.2181  17.2365  17.2601  17.4369  17.6431  17.7680  17.8296
    17.9288  17.9604  18.0076  18.0252  18.1053  18.1118  18.1423  18.1757
    18.2494  18.4360  18.5120  18.5654  18.7828  18.8391  18.8875  18.9000
    18.9512  19.1200

          k = 0.3750-0.5000-0.0484 ( 13940 PWs)   bands (ev):

   -66.8128 -66.8113 -62.1525 -62.1524 -62.1522 -62.1521 -62.0538 -62.0538
   -35.5803 -35.5791 -35.5413 -35.5397 -35.5395 -35.5379 -30.9878 -30.9876
   -30.9874 -30.9874 -30.9854 -30.9852 -30.9850 -30.9849 -30.9733 -30.9732
   -30.9729 -30.9728 -30.8863 -30.8863 -30.8850 -30.8849 -30.8826 -30.8825
     8.2836   8.2840   8.3157   8.3159   8.7029   8.7029   8.7122   8.7123
     9.0682   9.0683   9.1035   9.1036   9.1889   9.1889   9.2139   9.2139
     9.3099   9.3099   9.3718   9.3719   9.3959   9.3960   9.4557   9.4557
     9.5355   9.5355   9.5993   9.5994   9.7650   9.7651   9.8415   9.8416
     9.9917   9.9920  10.0106  10.0109  10.1391  10.1392  10.1937  10.1938
    10.2596  10.2599  10.5093  10.5094  10.5746  10.5747  10.6395  10.6396
    10.7572  10.7573  10.7674  10.7675  11.0318  11.0321  11.0915  11.0916
    11.2112  11.2121  11.2396  11.2398  11.3781  11.3788  11.4867  11.4871
    11.5781  11.5782  11.6971  11.6971  11.7126  11.7127  11.8070  11.8070
    11.9432  11.9432  11.9876  11.9876  11.9963  11.9963  12.0928  12.0929
    12.1111  12.1113  12.1892  12.1894  12.2985  12.2985  12.3346  12.3347
    12.3884  12.3885  12.9818  12.9819  13.0721  13.0721  13.2388  13.2388
    13.6967  13.6969  14.1788  14.1788  14.3881  14.3882  14.4009  14.4010
    14.6943  14.6943  14.7341  14.7342  15.3930  15.3930  15.7458  15.7458
    16.7939  16.7941  17.0382  17.0383  17.0730  17.0732  17.0807  17.0808
    17.1652  17.1654  17.2408  17.2410  17.5470  17.5470  17.7922  17.7922
    17.9713  17.9714  17.9982  17.9983  18.1225  18.1226  18.1405  18.1405
    18.3347  18.3348  18.5432  18.5432  18.8318  18.8319  18.9240  18.9242
    18.9869  18.9869

          k =-0.5000-0.5000 0.0000 ( 13964 PWs)   bands (ev):

   -66.8128 -66.8113 -62.1524 -62.1522 -62.1520 -62.1519 -62.0537 -62.0536
   -35.5802 -35.5790 -35.5411 -35.5411 -35.5395 -35.5395 -30.9876 -30.9876
   -30.9874 -30.9874 -30.9872 -30.9872 -30.9871 -30.9871 -30.9732 -30.9730
   -30.9728 -30.9727 -30.8862 -30.8862 -30.8848 -30.8848 -30.8847 -30.8847
     8.1966   8.2066   8.2319   8.2550   8.6121   8.6362   8.7087   8.7782
     8.8699   8.9863   9.2043   9.2110   9.2149   9.2443   9.2578   9.2578
     9.2785   9.2785   9.3486   9.3486   9.4186   9.4481   9.4556   9.4556
     9.4738   9.4738   9.7103   9.7103   9.7129   9.7129   9.9236   9.9323
     9.9323   9.9328   9.9328   9.9662  10.0539  10.0539  10.0875  10.0875
    10.4820  10.4820  10.5219  10.5916  10.5916  10.6135  10.6173  10.6821
    10.6862  10.6977  10.9846  10.9846  11.1634  11.1646  11.1868  11.1868
    11.2790  11.2866  11.3995  11.4009  11.4816  11.4816  11.9072  11.9072
    11.9266  11.9267  11.9766  11.9769  11.9778  11.9780  12.0165  12.0166
    12.0332  12.0332  12.0391  12.0391  12.0837  12.0837  12.0840  12.0841
    12.1313  12.1313  12.1538  12.1563  12.2108  12.2278  12.2736  12.2757
    12.3190  12.3340  13.3942  13.4066  13.4097  13.4226  13.4401  13.4402
    13.9096  13.9096  14.0416  14.0416  14.2904  14.2904  14.4576  14.4576
    14.7162  14.7162  14.7708  14.7708  15.9171  15.9171  15.9205  15.9205
    16.6108  16.6307  16.7683  16.8790  16.8975  16.9056  17.0228  17.1792
    17.1792  17.2173  17.4049  17.4049  17.6291  17.6291  17.7563  17.7770
    17.8488  18.0948  18.0950  18.0951  18.0951  18.1385  18.1590  18.2157
    18.2158  18.2436  18.2978  18.2978  18.3006  18.4467  18.4467  18.6778
    18.7659  18.7830

          k =-0.5000-0.5000 0.0242 ( 13960 PWs)   bands (ev):

   -66.8128 -66.8113 -62.1524 -62.1522 -62.1520 -62.1519 -62.0537 -62.0536
   -35.5802 -35.5790 -35.5411 -35.5411 -35.5395 -35.5395 -30.9876 -30.9876
   -30.9874 -30.9874 -30.9872 -30.9872 -30.9871 -30.9871 -30.9732 -30.9730
   -30.9728 -30.9727 -30.8862 -30.8862 -30.8848 -30.8848 -30.8847 -30.8847
     8.1980   8.2050   8.2350   8.2513   8.6276   8.6449   8.6953   8.7313
     8.9269   9.0103   9.1146   9.1457   9.2600   9.2600   9.2741   9.2741
     9.2914   9.3113   9.3589   9.3589   9.4031   9.4200   9.4200   9.4299
     9.5166   9.5166   9.6394   9.6394   9.7908   9.7908   9.9305   9.9321
     9.9321   9.9328   9.9328   9.9605   9.9698   9.9698  10.1780  10.1780
    10.4017  10.4017  10.5297  10.5815  10.6478  10.6755  10.6755  10.6827
    10.6856  10.6916  10.9169  10.9169  11.1635  11.1644  11.2509  11.2509
    11.2801  11.2855  11.3995  11.4009  11.4446  11.4446  11.9266  11.9267
    11.9305  11.9305  11.9766  11.9769  11.9778  11.9780  12.0165  12.0166
    12.0181  12.0181  12.0391  12.0391  12.0837  12.0837  12.0840  12.0841
    12.1313  12.1313  12.1542  12.1559  12.2131  12.2250  12.2739  12.2754
    12.3215  12.3321  13.3952  13.4026  13.4138  13.4215  13.4401  13.4402
    13.9246  13.9246  14.0150  14.0150  14.3205  14.3205  14.4351  14.4351
    14.7266  14.7266  14.7645  14.7645  15.9176  15.9176  15.9200  15.9200
    16.6131  16.6270  16.7806  16.8541  16.8987  16.9044  17.0574  17.1891
    17.1990  17.1990  17.3423  17.3423  17.7238  17.7238  17.7674  17.8192
    17.8318  18.0592  18.0948  18.0950  18.0951  18.0951  18.1191  18.1191
    18.1573  18.2157  18.2158  18.2305  18.3993  18.6351  18.6420  18.6420
    18.7686  18.7806

          k =-0.5000-0.5000-0.0484 ( 13992 PWs)   bands (ev):

   -66.8128 -66.8113 -62.1524 -62.1522 -62.1520 -62.1519 -62.0537 -62.0536
   -35.5802 -35.5790 -35.5411 -35.5411 -35.5395 -35.5395 -30.9876 -30.9876
   -30.9874 -30.9874 -30.9872 -30.9872 -30.9871 -30.9871 -30.9732 -30.9730
   -30.9728 -30.9727 -30.8862 -30.8862 -30.8848 -30.8848 -30.8847 -30.8847
     8.2012   8.2016   8.2427   8.2428   8.6679   8.6680   8.6704   8.6704
     9.0185   9.0185   9.0696   9.0697   9.2661   9.2661   9.2662   9.2662
     9.3588   9.3588   9.3805   9.3806   9.3846   9.3846   9.3846   9.3846
     9.5743   9.5743   9.5744   9.5744   9.8767   9.8767   9.8768   9.8768
     9.9325   9.9325   9.9330   9.9330   9.9459   9.9464  10.2886  10.2886
    10.2886  10.2886  10.5511  10.5511  10.6742  10.6743  10.6842  10.6842
    10.7980  10.7980  10.7981  10.7981  11.1638  11.1641  11.2822  11.2834
    11.3559  11.3559  11.3560  11.3560  11.3995  11.4009  11.9266  11.9267
    11.9766  11.9769  11.9778  11.9780  11.9781  11.9781  11.9781  11.9781
    12.0165  12.0166  12.0391  12.0391  12.0837  12.0837  12.0840  12.0841
    12.1313  12.1313  12.1549  12.1551  12.2187  12.2188  12.2746  12.2747
    12.3271  12.3271  13.3981  13.3982  13.4183  13.4184  13.4401  13.4402
    13.9648  13.9648  13.9649  13.9649  14.3809  14.3809  14.3810  14.3810
    14.7474  14.7474  14.7476  14.7476  15.9188  15.9188  15.9188  15.9188
    16.6192  16.6195  16.8126  16.8127  16.9014  16.9015  17.1250  17.1251
    17.2563  17.2563  17.2565  17.2565  17.7968  17.7969  17.9056  17.9056
    17.9057  17.9057  17.9247  17.9248  18.0948  18.0950  18.0951  18.0951
    18.1965  18.1966  18.2157  18.2158  18.5313  18.5313  18.7747  18.7747
    18.9031  18.9031

     the Fermi energy is    15.2816 ev

!    total energy              =  -14694.00544134 Ry
     Harris-Foulkes estimate   =  -14694.00544044 Ry
     estimated scf accuracy    <       0.00000090 Ry

     total all-electron energy =   -626921.601163 Ry

     The total energy is the sum of the following terms:

     one-electron contribution =    -714.47286170 Ry
     hartree contribution      =     656.53250142 Ry
     xc contribution           =    -737.88157574 Ry
     ewald contribution        =   -2196.78933708 Ry
     Hubbard energy            =       0.44928561 Ry
     one-center paw contrib.   =  -11701.84345385 Ry

     total magnetization       =    17.48 Bohr mag/cell
     absolute magnetization    =    37.26 Bohr mag/cell

     convergence has been achieved in  38 iterations

     Writing output data file mnau2.save/
 
     init_run     :     84.24s CPU     86.27s WALL (       1 calls)
     electrons    :   7332.18s CPU   7477.93s WALL (       1 calls)

     Called by init_run:
     wfcinit      :     80.49s CPU     82.20s WALL (       1 calls)
     potinit      :      1.70s CPU      1.79s WALL (       1 calls)
     hinit0       :      1.16s CPU      1.23s WALL (       1 calls)

     Called by electrons:
     c_bands      :   6332.81s CPU   6453.54s WALL (      38 calls)
     sum_band     :    922.80s CPU    946.18s WALL (      38 calls)
     v_of_rho     :      6.02s CPU      6.11s WALL (      39 calls)
     newd         :     21.35s CPU     21.81s WALL (      39 calls)
     PAW_pot      :     48.19s CPU     48.69s WALL (      39 calls)
     mix_rho      :      1.73s CPU      1.86s WALL (      38 calls)

     Called by c_bands:
     init_us_2    :     19.22s CPU     19.41s WALL (    7020 calls)
     cegterg      :   6168.24s CPU   6285.30s WALL (    3420 calls)

     Called by sum_band:
     sum_band:bec :      7.53s CPU      7.58s WALL (    3420 calls)
     addusdens    :     26.84s CPU     27.05s WALL (      38 calls)

     Called by *egterg:
     h_psi        :   3255.74s CPU   3326.39s WALL (    9856 calls)
     s_psi        :    337.14s CPU    337.97s WALL (    9946 calls)
     g_psi        :      3.34s CPU      3.38s WALL (    6346 calls)
     cdiaghg      :   1327.93s CPU   1362.03s WALL (    9766 calls)

     Called by h_psi:
     h_psi:pot    :   2993.10s CPU   3061.43s WALL (    9856 calls)
     h_psi:calbec :    499.70s CPU    520.68s WALL (    9856 calls)
     vloc_psi     :   2159.81s CPU   2206.44s WALL (    9856 calls)
     add_vuspsi   :    333.37s CPU    334.14s WALL (    9856 calls)
     vhpsi        :    257.89s CPU    260.05s WALL (    9856 calls)

     General routines
     calbec       :    971.33s CPU   1004.67s WALL (   26642 calls)
     fft          :      5.23s CPU      5.43s WALL (     971 calls)
     ffts         :      0.27s CPU      0.30s WALL (     154 calls)
     fftw         :   2643.04s CPU   2698.89s WALL ( 3133406 calls)
     interpolate  :      0.47s CPU      0.50s WALL (      78 calls)
     davcio       :      0.01s CPU      3.38s WALL (      90 calls)
 
     Parallel routines
     fft_scatt_xy :     71.46s CPU     72.55s WALL ( 3134531 calls)
     fft_scatt_yz :   2239.28s CPU   2288.65s WALL ( 3134531 calls)

     Hubbard U routines
     new_ns       :     36.59s CPU     38.67s WALL (      38 calls)
     vhpsi        :    257.89s CPU    260.05s WALL (    9856 calls)
 
     PWSCF        :     2h 5m CPU        5h 2m WALL

       8h
 
   This run was terminated on:  12:47:31   8Apr2019            

=------------------------------------------------------------------------------=
   JOB DONE.
=------------------------------------------------------------------------------=
