
     Program PWSCF v.6.3MaX starts on  8Apr2019 at 12:47:35 

     This program is part of the open-source Quantum ESPRESSO suite
     for quantum simulation of materials; please cite
         "P. Giannozzi et al., J. Phys.:Condens. Matter 21 395502 (2009);
         "P. Giannozzi et al., J. Phys.:Condens. Matter 29 465901 (2017);
          URL http://www.quantum-espresso.org", 
     in publications or presentations arising from this work. More details at
     http://www.quantum-espresso.org/quote

     Parallel version (MPI), running on    32 processors

     MPI processes distributed on     1 nodes
     R & G space division:  proc/nbgrp/npool/nimage =      32
     Waiting for input...
     Reading input from standard input

     Current dimensions of program PWSCF are:
     Max number of different atomic species (ntypx) = 10
     Max number of k-points (npk) =  40000
     Max angular momentum in pseudopotentials (lmaxx) =  3
               file Mn.pbe-spn-kjpaw_psl.0.3.1.UPF: wavefunction(s)  3P 3D renormalized
               file Mn.pbe-spn-kjpaw_psl.0.3.1.UPF: wavefunction(s)  3P 3D renormalized
               file Au.pbe-dn-kjpaw_psl.0.1.UPF: wavefunction(s)  6S 6P 5D renormalized

     Subspace diagonalization in iterative solution of the eigenvalue problem:
     one sub-group per band group will be used
     scalapack distributed-memory algorithm (size of sub-group:  4*  4 procs)

 
     Parallelization info
     --------------------
     sticks:   dense  smooth     PW     G-vecs:    dense   smooth      PW
     Min          41      18      5                11487     3460     563
     Max          42      19      6                11527     3505     606
     Sum        1313     593    177               368373   111379   18691
 


     bravais-lattice index     =            0
     lattice parameter (alat)  =       6.4153  a.u.
     unit-cell volume          =    2724.7774 (a.u.)^3
     number of atoms/cell      =           24
     number of atomic types    =            3
     number of electrons       =       296.00
     number of Kohn-Sham states=          178
     kinetic-energy cutoff     =      45.0000  Ry
     charge density cutoff     =     400.0000  Ry
     convergence threshold     =      1.0E-06
     mixing beta               =       0.1000
     number of iterations used =            8  plain     mixing
     Exchange-correlation      = SLA PW PBX PBC ( 1  4  3  4 0 0)

     celldm(1)=   6.415315  celldm(2)=   0.000000  celldm(3)=   0.000000
     celldm(4)=   0.000000  celldm(5)=   0.000000  celldm(6)=   0.000000

     crystal axes: (cart. coord. in units of alat)
               a(1) = (   1.000000   0.000000   0.000000 )  
               a(2) = (   0.000000   1.000000   0.000000 )  
               a(3) = (   0.000000   0.000000  10.319937 )  

     reciprocal axes: (cart. coord. in units 2 pi/alat)
               b(1) = (  1.000000  0.000000  0.000000 )  
               b(2) = (  0.000000  1.000000  0.000000 )  
               b(3) = (  0.000000  0.000000  0.096900 )  


     PseudoPot. # 1 for Mn read from file:
     ./pseudo/Mn.pbe-spn-kjpaw_psl.0.3.1.UPF
     MD5 check sum: 7b43a3fb0e93e198b8dd8488d8cf503e
     Pseudo is Projector augmented-wave + core cor, Zval = 15.0
     Generated using "atomic" code by A. Dal Corso v.5.0.99 svn rev. 10869
     Shape of augmentation charge: PSQ
     Using radial grid of 1187 points,  6 beta functions with: 
                l(1) =   0
                l(2) =   0
                l(3) =   1
                l(4) =   1
                l(5) =   2
                l(6) =   2
     Q(r) pseudized with 0 coefficients 


     PseudoPot. # 2 for Mn read from file:
     ./pseudo/Mn.pbe-spn-kjpaw_psl.0.3.1.UPF
     MD5 check sum: 7b43a3fb0e93e198b8dd8488d8cf503e
     Pseudo is Projector augmented-wave + core cor, Zval = 15.0
     Generated using "atomic" code by A. Dal Corso v.5.0.99 svn rev. 10869
     Shape of augmentation charge: PSQ
     Using radial grid of 1187 points,  6 beta functions with: 
                l(1) =   0
                l(2) =   0
                l(3) =   1
                l(4) =   1
                l(5) =   2
                l(6) =   2
     Q(r) pseudized with 0 coefficients 


     PseudoPot. # 3 for Au read from file:
     ./pseudo/Au.pbe-dn-kjpaw_psl.0.1.UPF
     MD5 check sum: be11e2e8e535ebe2b3ccfb4f88f554cb
     Pseudo is Projector augmented-wave + core cor, Zval = 11.0
     Generated using "atomic" code by A. Dal Corso v.5.0.2 svn rev. 9415
     Shape of augmentation charge: PSQ
     Using radial grid of 1279 points,  6 beta functions with: 
                l(1) =   0
                l(2) =   0
                l(3) =   1
                l(4) =   1
                l(5) =   2
                l(6) =   2
     Q(r) pseudized with 0 coefficients 


     atomic species   valence    mass     pseudopotential
        Mn1           15.00    54.93800     Mn( 1.00)
        Mn2           15.00    54.93800     Mn( 1.00)
        Au            11.00   196.96600     Au( 1.00)

     Starting magnetic structure 
     atomic species   magnetization
        Mn1          0.800
        Mn2         -0.800
        Au           0.000


     Full LDA+U calculation (l_max = 2) with parameters (eV):
     U(  1) =   3.1200   J(  1) =   0.7000   B(  1) =   0.0803
     U(  2) =   3.1200   J(  2) =   0.7000   B(  2) =   0.0803



      8 Sym. Ops. (no inversion) found



   Cartesian axes

     site n.     atom                  positions (alat units)
         1           Mn1 tau(   1) = (   0.0000000   0.0000000   0.0000000  )
         2           Mn1 tau(   2) = (   0.5000000   0.5000000   1.2899921  )
         3           Mn1 tau(   3) = (   0.0000000   0.0000000   2.5799843  )
         4           Mn2 tau(   4) = (   0.5000000   0.5000000   3.8699764  )
         5           Mn1 tau(   5) = (   0.0000000   0.0000000   5.1599686  )
         6           Mn1 tau(   6) = (   0.5000000   0.5000000   6.4499607  )
         7           Mn2 tau(   7) = (   0.0000000   0.0000000   7.7399528  )
         8           Mn2 tau(   8) = (   0.5000000   0.5000000   9.0299450  )
         9           Au  tau(   9) = (   0.5000000   0.5000000   0.4127975  )
        10           Au  tau(  10) = (   0.0000000   0.0000000   0.8771947  )
        11           Au  tau(  11) = (   0.0000000   0.0000000   1.7027896  )
        12           Au  tau(  12) = (   0.5000000   0.5000000   2.1671868  )
        13           Au  tau(  13) = (   0.5000000   0.5000000   2.9927818  )
        14           Au  tau(  14) = (   0.0000000   0.0000000   3.4571789  )
        15           Au  tau(  15) = (   0.0000000   0.0000000   4.2827739  )
        16           Au  tau(  16) = (   0.5000000   0.5000000   4.7471711  )
        17           Au  tau(  17) = (   0.5000000   0.5000000   5.5727660  )
        18           Au  tau(  18) = (   0.0000000   0.0000000   6.0371632  )
        19           Au  tau(  19) = (   0.0000000   0.0000000   6.8627582  )
        20           Au  tau(  20) = (   0.5000000   0.5000000   7.3271553  )
        21           Au  tau(  21) = (   0.5000000   0.5000000   8.1527503  )
        22           Au  tau(  22) = (   0.0000000   0.0000000   8.6171475  )
        23           Au  tau(  23) = (   0.0000000   0.0000000   9.4427424  )
        24           Au  tau(  24) = (   0.5000000   0.5000000   9.9071396  )

     number of k points=    45 (tetrahedron method)
                       cart. coord. in units 2pi/alat
        k(    1) = (   0.0000000   0.0000000   0.0000000), wk =   0.0039062
        k(    2) = (   0.0000000   0.0000000   0.0242250), wk =   0.0078125
        k(    3) = (   0.0000000   0.0000000  -0.0484499), wk =   0.0039062
        k(    4) = (   0.0000000   0.1250000   0.0000000), wk =   0.0156250
        k(    5) = (   0.0000000   0.1250000   0.0242250), wk =   0.0312500
        k(    6) = (   0.0000000   0.1250000  -0.0484499), wk =   0.0156250
        k(    7) = (   0.0000000   0.2500000   0.0000000), wk =   0.0156250
        k(    8) = (   0.0000000   0.2500000   0.0242250), wk =   0.0312500
        k(    9) = (   0.0000000   0.2500000  -0.0484499), wk =   0.0156250
        k(   10) = (   0.0000000   0.3750000   0.0000000), wk =   0.0156250
        k(   11) = (   0.0000000   0.3750000   0.0242250), wk =   0.0312500
        k(   12) = (   0.0000000   0.3750000  -0.0484499), wk =   0.0156250
        k(   13) = (   0.0000000  -0.5000000   0.0000000), wk =   0.0078125
        k(   14) = (   0.0000000  -0.5000000   0.0242250), wk =   0.0156250
        k(   15) = (   0.0000000  -0.5000000  -0.0484499), wk =   0.0078125
        k(   16) = (   0.1250000   0.1250000   0.0000000), wk =   0.0156250
        k(   17) = (   0.1250000   0.1250000   0.0242250), wk =   0.0312500
        k(   18) = (   0.1250000   0.1250000  -0.0484499), wk =   0.0156250
        k(   19) = (   0.1250000   0.2500000   0.0000000), wk =   0.0312500
        k(   20) = (   0.1250000   0.2500000   0.0242250), wk =   0.0625000
        k(   21) = (   0.1250000   0.2500000  -0.0484499), wk =   0.0312500
        k(   22) = (   0.1250000   0.3750000   0.0000000), wk =   0.0312500
        k(   23) = (   0.1250000   0.3750000   0.0242250), wk =   0.0625000
        k(   24) = (   0.1250000   0.3750000  -0.0484499), wk =   0.0312500
        k(   25) = (   0.1250000  -0.5000000   0.0000000), wk =   0.0156250
        k(   26) = (   0.1250000  -0.5000000   0.0242250), wk =   0.0312500
        k(   27) = (   0.1250000  -0.5000000  -0.0484499), wk =   0.0156250
        k(   28) = (   0.2500000   0.2500000   0.0000000), wk =   0.0156250
        k(   29) = (   0.2500000   0.2500000   0.0242250), wk =   0.0312500
        k(   30) = (   0.2500000   0.2500000  -0.0484499), wk =   0.0156250
        k(   31) = (   0.2500000   0.3750000   0.0000000), wk =   0.0312500
        k(   32) = (   0.2500000   0.3750000   0.0242250), wk =   0.0625000
        k(   33) = (   0.2500000   0.3750000  -0.0484499), wk =   0.0312500
        k(   34) = (   0.2500000  -0.5000000   0.0000000), wk =   0.0156250
        k(   35) = (   0.2500000  -0.5000000   0.0242250), wk =   0.0312500
        k(   36) = (   0.2500000  -0.5000000  -0.0484499), wk =   0.0156250
        k(   37) = (   0.3750000   0.3750000   0.0000000), wk =   0.0156250
        k(   38) = (   0.3750000   0.3750000   0.0242250), wk =   0.0312500
        k(   39) = (   0.3750000   0.3750000  -0.0484499), wk =   0.0156250
        k(   40) = (   0.3750000  -0.5000000   0.0000000), wk =   0.0156250
        k(   41) = (   0.3750000  -0.5000000   0.0242250), wk =   0.0312500
        k(   42) = (   0.3750000  -0.5000000  -0.0484499), wk =   0.0156250
        k(   43) = (  -0.5000000  -0.5000000   0.0000000), wk =   0.0039062
        k(   44) = (  -0.5000000  -0.5000000   0.0242250), wk =   0.0078125
        k(   45) = (  -0.5000000  -0.5000000  -0.0484499), wk =   0.0039062

     Dense  grid:   368373 G-vectors     FFT dimensions: (  45,  45, 432)

     Smooth grid:   111379 G-vectors     FFT dimensions: (  27,  27, 288)

     Estimated max dynamical RAM per process >     186.81 MB

     Estimated total dynamical RAM >       5.84 GB
     Generating pointlists ...
     new r_m :   0.3377 (alat units)  2.1668 (a.u.) for type    1
     new r_m :   0.3377 (alat units)  2.1668 (a.u.) for type    2
     new r_m :   0.3377 (alat units)  2.1668 (a.u.) for type    3

     Check: negative/imaginary core charge=   -0.000006    0.000000

     Initial potential from superposition of free atoms

     starting charge  295.99426, renormalised to  296.00000
     Number of +U iterations with fixed ns =  0
     Starting occupations:
 --- enter write_ns ---
 LDA+U parameters:
U(  1) =   3.1200   J(  1) =   0.7000   B(  1) =   0.0803
U(  2) =   3.1200   J(  2) =   0.7000   B(  2) =   0.0803
atom    1   Tr[ns(na)] (up, down, total) =   5.00000  0.00000  5.00000
   spin  1
    eigenvalues: 
  1.000  1.000  1.000  1.000  1.000
    eigenvectors:
  1.000  0.000  0.000  0.000  0.000
  0.000  1.000  0.000  0.000  0.000
  0.000  0.000  1.000  0.000  0.000
  0.000  0.000  0.000  1.000  0.000
  0.000  0.000  0.000  0.000  1.000
    occupations:
  1.000  0.000  0.000  0.000  0.000
  0.000  1.000  0.000  0.000  0.000
  0.000  0.000  1.000  0.000  0.000
  0.000  0.000  0.000  1.000  0.000
  0.000  0.000  0.000  0.000  1.000
   spin  2
    eigenvalues: 
  0.000  0.000  0.000  0.000  0.000
    eigenvectors:
  1.000  0.000  0.000  0.000  0.000
  0.000  1.000  0.000  0.000  0.000
  0.000  0.000  1.000  0.000  0.000
  0.000  0.000  0.000  1.000  0.000
  0.000  0.000  0.000  0.000  1.000
    occupations:
  0.000  0.000  0.000  0.000  0.000
  0.000  0.000  0.000  0.000  0.000
  0.000  0.000  0.000  0.000  0.000
  0.000  0.000  0.000  0.000  0.000
  0.000  0.000  0.000  0.000  0.000
atomic mag. moment =     5.000000
atom    2   Tr[ns(na)] (up, down, total) =   5.00000  0.00000  5.00000
   spin  1
    eigenvalues: 
  1.000  1.000  1.000  1.000  1.000
    eigenvectors:
  1.000  0.000  0.000  0.000  0.000
  0.000  1.000  0.000  0.000  0.000
  0.000  0.000  1.000  0.000  0.000
  0.000  0.000  0.000  1.000  0.000
  0.000  0.000  0.000  0.000  1.000
    occupations:
  1.000  0.000  0.000  0.000  0.000
  0.000  1.000  0.000  0.000  0.000
  0.000  0.000  1.000  0.000  0.000
  0.000  0.000  0.000  1.000  0.000
  0.000  0.000  0.000  0.000  1.000
   spin  2
    eigenvalues: 
  0.000  0.000  0.000  0.000  0.000
    eigenvectors:
  1.000  0.000  0.000  0.000  0.000
  0.000  1.000  0.000  0.000  0.000
  0.000  0.000  1.000  0.000  0.000
  0.000  0.000  0.000  1.000  0.000
  0.000  0.000  0.000  0.000  1.000
    occupations:
  0.000  0.000  0.000  0.000  0.000
  0.000  0.000  0.000  0.000  0.000
  0.000  0.000  0.000  0.000  0.000
  0.000  0.000  0.000  0.000  0.000
  0.000  0.000  0.000  0.000  0.000
atomic mag. moment =     5.000000
atom    3   Tr[ns(na)] (up, down, total) =   5.00000  0.00000  5.00000
   spin  1
    eigenvalues: 
  1.000  1.000  1.000  1.000  1.000
    eigenvectors:
  1.000  0.000  0.000  0.000  0.000
  0.000  1.000  0.000  0.000  0.000
  0.000  0.000  1.000  0.000  0.000
  0.000  0.000  0.000  1.000  0.000
  0.000  0.000  0.000  0.000  1.000
    occupations:
  1.000  0.000  0.000  0.000  0.000
  0.000  1.000  0.000  0.000  0.000
  0.000  0.000  1.000  0.000  0.000
  0.000  0.000  0.000  1.000  0.000
  0.000  0.000  0.000  0.000  1.000
   spin  2
    eigenvalues: 
  0.000  0.000  0.000  0.000  0.000
    eigenvectors:
  1.000  0.000  0.000  0.000  0.000
  0.000  1.000  0.000  0.000  0.000
  0.000  0.000  1.000  0.000  0.000
  0.000  0.000  0.000  1.000  0.000
  0.000  0.000  0.000  0.000  1.000
    occupations:
  0.000  0.000  0.000  0.000  0.000
  0.000  0.000  0.000  0.000  0.000
  0.000  0.000  0.000  0.000  0.000
  0.000  0.000  0.000  0.000  0.000
  0.000  0.000  0.000  0.000  0.000
atomic mag. moment =     5.000000
atom    4   Tr[ns(na)] (up, down, total) =   0.00000  5.00000  5.00000
   spin  1
    eigenvalues: 
  0.000  0.000  0.000  0.000  0.000
    eigenvectors:
  1.000  0.000  0.000  0.000  0.000
  0.000  1.000  0.000  0.000  0.000
  0.000  0.000  1.000  0.000  0.000
  0.000  0.000  0.000  1.000  0.000
  0.000  0.000  0.000  0.000  1.000
    occupations:
  0.000  0.000  0.000  0.000  0.000
  0.000  0.000  0.000  0.000  0.000
  0.000  0.000  0.000  0.000  0.000
  0.000  0.000  0.000  0.000  0.000
  0.000  0.000  0.000  0.000  0.000
   spin  2
    eigenvalues: 
  1.000  1.000  1.000  1.000  1.000
    eigenvectors:
  1.000  0.000  0.000  0.000  0.000
  0.000  1.000  0.000  0.000  0.000
  0.000  0.000  1.000  0.000  0.000
  0.000  0.000  0.000  1.000  0.000
  0.000  0.000  0.000  0.000  1.000
    occupations:
  1.000  0.000  0.000  0.000  0.000
  0.000  1.000  0.000  0.000  0.000
  0.000  0.000  1.000  0.000  0.000
  0.000  0.000  0.000  1.000  0.000
  0.000  0.000  0.000  0.000  1.000
atomic mag. moment =    -5.000000
atom    5   Tr[ns(na)] (up, down, total) =   5.00000  0.00000  5.00000
   spin  1
    eigenvalues: 
  1.000  1.000  1.000  1.000  1.000
    eigenvectors:
  1.000  0.000  0.000  0.000  0.000
  0.000  1.000  0.000  0.000  0.000
  0.000  0.000  1.000  0.000  0.000
  0.000  0.000  0.000  1.000  0.000
  0.000  0.000  0.000  0.000  1.000
    occupations:
  1.000  0.000  0.000  0.000  0.000
  0.000  1.000  0.000  0.000  0.000
  0.000  0.000  1.000  0.000  0.000
  0.000  0.000  0.000  1.000  0.000
  0.000  0.000  0.000  0.000  1.000
   spin  2
    eigenvalues: 
  0.000  0.000  0.000  0.000  0.000
    eigenvectors:
  1.000  0.000  0.000  0.000  0.000
  0.000  1.000  0.000  0.000  0.000
  0.000  0.000  1.000  0.000  0.000
  0.000  0.000  0.000  1.000  0.000
  0.000  0.000  0.000  0.000  1.000
    occupations:
  0.000  0.000  0.000  0.000  0.000
  0.000  0.000  0.000  0.000  0.000
  0.000  0.000  0.000  0.000  0.000
  0.000  0.000  0.000  0.000  0.000
  0.000  0.000  0.000  0.000  0.000
atomic mag. moment =     5.000000
atom    6   Tr[ns(na)] (up, down, total) =   5.00000  0.00000  5.00000
   spin  1
    eigenvalues: 
  1.000  1.000  1.000  1.000  1.000
    eigenvectors:
  1.000  0.000  0.000  0.000  0.000
  0.000  1.000  0.000  0.000  0.000
  0.000  0.000  1.000  0.000  0.000
  0.000  0.000  0.000  1.000  0.000
  0.000  0.000  0.000  0.000  1.000
    occupations:
  1.000  0.000  0.000  0.000  0.000
  0.000  1.000  0.000  0.000  0.000
  0.000  0.000  1.000  0.000  0.000
  0.000  0.000  0.000  1.000  0.000
  0.000  0.000  0.000  0.000  1.000
   spin  2
    eigenvalues: 
  0.000  0.000  0.000  0.000  0.000
    eigenvectors:
  1.000  0.000  0.000  0.000  0.000
  0.000  1.000  0.000  0.000  0.000
  0.000  0.000  1.000  0.000  0.000
  0.000  0.000  0.000  1.000  0.000
  0.000  0.000  0.000  0.000  1.000
    occupations:
  0.000  0.000  0.000  0.000  0.000
  0.000  0.000  0.000  0.000  0.000
  0.000  0.000  0.000  0.000  0.000
  0.000  0.000  0.000  0.000  0.000
  0.000  0.000  0.000  0.000  0.000
atomic mag. moment =     5.000000
atom    7   Tr[ns(na)] (up, down, total) =   0.00000  5.00000  5.00000
   spin  1
    eigenvalues: 
  0.000  0.000  0.000  0.000  0.000
    eigenvectors:
  1.000  0.000  0.000  0.000  0.000
  0.000  1.000  0.000  0.000  0.000
  0.000  0.000  1.000  0.000  0.000
  0.000  0.000  0.000  1.000  0.000
  0.000  0.000  0.000  0.000  1.000
    occupations:
  0.000  0.000  0.000  0.000  0.000
  0.000  0.000  0.000  0.000  0.000
  0.000  0.000  0.000  0.000  0.000
  0.000  0.000  0.000  0.000  0.000
  0.000  0.000  0.000  0.000  0.000
   spin  2
    eigenvalues: 
  1.000  1.000  1.000  1.000  1.000
    eigenvectors:
  1.000  0.000  0.000  0.000  0.000
  0.000  1.000  0.000  0.000  0.000
  0.000  0.000  1.000  0.000  0.000
  0.000  0.000  0.000  1.000  0.000
  0.000  0.000  0.000  0.000  1.000
    occupations:
  1.000  0.000  0.000  0.000  0.000
  0.000  1.000  0.000  0.000  0.000
  0.000  0.000  1.000  0.000  0.000
  0.000  0.000  0.000  1.000  0.000
  0.000  0.000  0.000  0.000  1.000
atomic mag. moment =    -5.000000
atom    8   Tr[ns(na)] (up, down, total) =   0.00000  5.00000  5.00000
   spin  1
    eigenvalues: 
  0.000  0.000  0.000  0.000  0.000
    eigenvectors:
  1.000  0.000  0.000  0.000  0.000
  0.000  1.000  0.000  0.000  0.000
  0.000  0.000  1.000  0.000  0.000
  0.000  0.000  0.000  1.000  0.000
  0.000  0.000  0.000  0.000  1.000
    occupations:
  0.000  0.000  0.000  0.000  0.000
  0.000  0.000  0.000  0.000  0.000
  0.000  0.000  0.000  0.000  0.000
  0.000  0.000  0.000  0.000  0.000
  0.000  0.000  0.000  0.000  0.000
   spin  2
    eigenvalues: 
  1.000  1.000  1.000  1.000  1.000
    eigenvectors:
  1.000  0.000  0.000  0.000  0.000
  0.000  1.000  0.000  0.000  0.000
  0.000  0.000  1.000  0.000  0.000
  0.000  0.000  0.000  1.000  0.000
  0.000  0.000  0.000  0.000  1.000
    occupations:
  1.000  0.000  0.000  0.000  0.000
  0.000  1.000  0.000  0.000  0.000
  0.000  0.000  1.000  0.000  0.000
  0.000  0.000  0.000  1.000  0.000
  0.000  0.000  0.000  0.000  1.000
atomic mag. moment =    -5.000000
N of occupied +U levels =   40.000000
 --- exit write_ns ---
 Atomic wfc used for LDA+U Projector are NOT orthogonalized
     Starting wfcs are  224 randomized atomic wfcs
     Checking if some PAW data can be deallocated... 

     total cpu time spent up to now is       82.6 secs

     Self-consistent Calculation

     iteration #  1     ecut=    45.00 Ry     beta= 0.10
     Davidson diagonalization with overlap
     ethr =  1.00E-02,  avg # of iterations =  4.1
 --- enter write_ns ---
 LDA+U parameters:
U(  1) =   3.1200   J(  1) =   0.7000   B(  1) =   0.0803
U(  2) =   3.1200   J(  2) =   0.7000   B(  2) =   0.0803
atom    1   Tr[ns(na)] (up, down, total) =   5.01741  0.40626  5.42368
   spin  1
    eigenvalues: 
  1.003  1.003  1.003  1.004  1.004
    eigenvectors:
  0.000  0.000  0.000  1.000  0.000
  0.000  0.334  0.666  0.000  0.000
  0.000  0.666  0.334  0.000  0.000
  0.000  0.000  0.000  0.000  1.000
  1.000  0.000  0.000  0.000  0.000
    occupations:
  1.004 -0.000 -0.000  0.000  0.000
 -0.000  1.003 -0.000  0.000  0.000
 -0.000 -0.000  1.003  0.000  0.000
  0.000  0.000  0.000  1.004 -0.000
  0.000  0.000  0.000 -0.000  1.003
   spin  2
    eigenvalues: 
  0.052  0.073  0.080  0.080  0.120
    eigenvectors:
  0.000  1.000  0.000  0.000  0.000
  0.000  0.000  0.345  0.655  0.000
  0.000  0.000  0.655  0.345  0.000
  1.000  0.000  0.000  0.000  0.000
  0.000  0.000  0.000  0.000  1.000
    occupations:
  0.073 -0.000 -0.000  0.000  0.000
 -0.000  0.080 -0.000  0.000  0.000
 -0.000 -0.000  0.080  0.000  0.000
  0.000  0.000  0.000  0.052 -0.000
  0.000  0.000  0.000 -0.000  0.120
atomic mag. moment =     4.611151
atom    2   Tr[ns(na)] (up, down, total) =   5.01763  0.39957  5.41720
   spin  1
    eigenvalues: 
  1.003  1.003  1.003  1.004  1.004
    eigenvectors:
  0.000  0.000  0.000  1.000  0.000
  0.000  0.322  0.678  0.000  0.000
  0.000  0.678  0.322  0.000  0.000
  0.000  0.000  0.000  0.000  1.000
  1.000  0.000  0.000  0.000  0.000
    occupations:
  1.004 -0.000 -0.000  0.000  0.000
 -0.000  1.003 -0.000  0.000  0.000
 -0.000 -0.000  1.003  0.000  0.000
  0.000  0.000  0.000  1.004 -0.000
  0.000  0.000  0.000 -0.000  1.003
   spin  2
    eigenvalues: 
  0.053  0.074  0.081  0.081  0.110
    eigenvectors:
  0.000  1.000  0.000  0.000  0.000
  0.000  0.000  0.418  0.582  0.000
  0.000  0.000  0.582  0.418  0.000
  1.000  0.000  0.000  0.000  0.000
  0.000  0.000  0.000  0.000  1.000
    occupations:
  0.074 -0.000 -0.000  0.000  0.000
 -0.000  0.081 -0.000  0.000  0.000
 -0.000 -0.000  0.081  0.000  0.000
  0.000  0.000  0.000  0.053 -0.000
  0.000  0.000  0.000 -0.000  0.110
atomic mag. moment =     4.618062
atom    3   Tr[ns(na)] (up, down, total) =   5.01742  0.40633  5.42375
   spin  1
    eigenvalues: 
  1.003  1.003  1.003  1.004  1.004
    eigenvectors:
  0.000  0.000  0.000  1.000  0.000
  0.000  0.302  0.698  0.000  0.000
  0.000  0.698  0.302  0.000  0.000
  0.000  0.000  0.000  0.000  1.000
  1.000  0.000  0.000  0.000  0.000
    occupations:
  1.004 -0.000 -0.000  0.000  0.000
 -0.000  1.003 -0.000  0.000  0.000
 -0.000 -0.000  1.003  0.000  0.000
  0.000  0.000  0.000  1.004 -0.000
  0.000  0.000  0.000 -0.000  1.003
   spin  2
    eigenvalues: 
  0.053  0.072  0.080  0.080  0.121
    eigenvectors:
  0.000  1.000  0.000  0.000  0.000
  0.000  0.000  0.386  0.614  0.000
  0.000  0.000  0.614  0.386  0.000
  1.000  0.000  0.000  0.000  0.000
  0.000  0.000  0.000  0.000  1.000
    occupations:
  0.072 -0.000 -0.000  0.000  0.000
 -0.000  0.080 -0.000  0.000  0.000
 -0.000 -0.000  0.080  0.000  0.000
  0.000  0.000  0.000  0.053 -0.000
  0.000  0.000  0.000 -0.000  0.121
atomic mag. moment =     4.611096
atom    4   Tr[ns(na)] (up, down, total) =   0.41364  5.01726  5.43090
   spin  1
    eigenvalues: 
  0.053  0.075  0.081  0.081  0.125
    eigenvectors:
  0.000  1.000  0.000  0.000  0.000
  0.000  0.000  0.339  0.661  0.000
  0.000  0.000  0.661  0.339  0.000
  1.000  0.000  0.000  0.000  0.000
  0.000  0.000  0.000  0.000  1.000
    occupations:
  0.075 -0.000 -0.000  0.000  0.000
 -0.000  0.081 -0.000  0.000  0.000
 -0.000 -0.000  0.081  0.000  0.000
  0.000  0.000  0.000  0.053 -0.000
  0.000  0.000  0.000 -0.000  0.125
   spin  2
    eigenvalues: 
  1.003  1.003  1.003  1.004  1.004
    eigenvectors:
  0.000  0.000  0.000  1.000  0.000
  0.000  0.260  0.740  0.000  0.000
  0.000  0.740  0.260  0.000  0.000
  0.000  0.000  0.000  0.000  1.000
  1.000  0.000  0.000  0.000  0.000
    occupations:
  1.004 -0.000 -0.000  0.000  0.000
 -0.000  1.003 -0.000  0.000  0.000
 -0.000 -0.000  1.003  0.000  0.000
  0.000  0.000  0.000  1.004 -0.000
  0.000  0.000  0.000 -0.000  1.003
atomic mag. moment =    -4.603628
atom    5   Tr[ns(na)] (up, down, total) =   5.01744  0.41288  5.43033
   spin  1
    eigenvalues: 
  1.003  1.003  1.003  1.004  1.004
    eigenvectors:
  0.000  0.000  0.000  1.000  0.000
  0.000  0.321  0.679  0.000  0.000
  0.000  0.679  0.321  0.000  0.000
  0.000  0.000  0.000  0.000  1.000
  1.000  0.000  0.000  0.000  0.000
    occupations:
  1.004 -0.000 -0.000  0.000  0.000
 -0.000  1.003 -0.000  0.000  0.000
 -0.000 -0.000  1.003  0.000  0.000
  0.000  0.000  0.000  1.004 -0.000
  0.000  0.000  0.000 -0.000  1.003
   spin  2
    eigenvalues: 
  0.053  0.074  0.082  0.082  0.123
    eigenvectors:
  0.000  1.000  0.000  0.000  0.000
  0.000  0.000  0.331  0.669  0.000
  0.000  0.000  0.669  0.331  0.000
  1.000  0.000  0.000  0.000  0.000
  0.000  0.000  0.000  0.000  1.000
    occupations:
  0.074 -0.000 -0.000  0.000  0.000
 -0.000  0.082 -0.000  0.000  0.000
 -0.000 -0.000  0.082  0.000  0.000
  0.000  0.000  0.000  0.053 -0.000
  0.000  0.000  0.000 -0.000  0.123
atomic mag. moment =     4.604559
atom    6   Tr[ns(na)] (up, down, total) =   5.01757  0.41322  5.43079
   spin  1
    eigenvalues: 
  1.003  1.003  1.003  1.004  1.004
    eigenvectors:
  0.000  0.000  0.000  1.000  0.000
  0.000  0.371  0.629  0.000  0.000
  0.000  0.629  0.371  0.000  0.000
  0.000  0.000  0.000  0.000  1.000
  1.000  0.000  0.000  0.000  0.000
    occupations:
  1.004 -0.000 -0.000  0.000  0.000
 -0.000  1.003 -0.000  0.000  0.000
 -0.000 -0.000  1.003  0.000  0.000
  0.000  0.000  0.000  1.004 -0.000
  0.000  0.000  0.000 -0.000  1.003
   spin  2
    eigenvalues: 
  0.053  0.074  0.082  0.082  0.122
    eigenvectors:
  0.000  1.000  0.000  0.000  0.000
  0.000  0.000  0.364  0.636  0.000
  0.000  0.000  0.636  0.364  0.000
  1.000  0.000  0.000  0.000  0.000
  0.000  0.000  0.000  0.000  1.000
    occupations:
  0.074 -0.000 -0.000  0.000  0.000
 -0.000  0.082 -0.000  0.000  0.000
 -0.000 -0.000  0.082  0.000  0.000
  0.000  0.000  0.000  0.053 -0.000
  0.000  0.000  0.000 -0.000  0.122
atomic mag. moment =     4.604351
atom    7   Tr[ns(na)] (up, down, total) =   0.41322  5.01758  5.43080
   spin  1
    eigenvalues: 
  0.053  0.074  0.082  0.082  0.121
    eigenvectors:
  0.000  1.000  0.000  0.000  0.000
  0.000  0.000  0.467  0.533  0.000
  0.000  0.000  0.533  0.467  0.000
  1.000  0.000  0.000  0.000  0.000
  0.000  0.000  0.000  0.000  1.000
    occupations:
  0.074 -0.000 -0.000  0.000  0.000
 -0.000  0.082 -0.000  0.000  0.000
 -0.000 -0.000  0.082  0.000  0.000
  0.000  0.000  0.000  0.053 -0.000
  0.000  0.000  0.000 -0.000  0.121
   spin  2
    eigenvalues: 
  1.003  1.003  1.003  1.004  1.004
    eigenvectors:
  0.000  0.000  0.000  1.000  0.000
  0.000  0.304  0.696  0.000  0.000
  0.000  0.696  0.304  0.000  0.000
  0.000  0.000  0.000  0.000  1.000
  1.000  0.000  0.000  0.000  0.000
    occupations:
  1.004 -0.000 -0.000  0.000  0.000
 -0.000  1.003 -0.000  0.000  0.000
 -0.000 -0.000  1.003  0.000  0.000
  0.000  0.000  0.000  1.004 -0.000
  0.000  0.000  0.000 -0.000  1.003
atomic mag. moment =    -4.604360
atom    8   Tr[ns(na)] (up, down, total) =   0.41244  5.01749  5.42993
   spin  1
    eigenvalues: 
  0.053  0.075  0.082  0.082  0.121
    eigenvectors:
  0.000  1.000  0.000  0.000  0.000
  0.000  0.000  0.389  0.611  0.000
  0.000  0.000  0.611  0.389  0.000
  1.000  0.000  0.000  0.000  0.000
  0.000  0.000  0.000  0.000  1.000
    occupations:
  0.075 -0.000 -0.000  0.000  0.000
 -0.000  0.082 -0.000  0.000  0.000
 -0.000 -0.000  0.082  0.000  0.000
  0.000  0.000  0.000  0.053 -0.000
  0.000  0.000  0.000 -0.000  0.121
   spin  2
    eigenvalues: 
  1.003  1.003  1.003  1.004  1.004
    eigenvectors:
  0.000  0.000  0.000  1.000  0.000
  0.000  0.283  0.717  0.000  0.000
  0.000  0.717  0.283  0.000  0.000
  0.000  0.000  0.000  0.000  1.000
  1.000  0.000  0.000  0.000  0.000
    occupations:
  1.004 -0.000 -0.000  0.000  0.000
 -0.000  1.003 -0.000  0.000  0.000
 -0.000 -0.000  1.003  0.000  0.000
  0.000  0.000  0.000  1.004 -0.000
  0.000  0.000  0.000 -0.000  1.003
atomic mag. moment =    -4.605051
N of occupied +U levels =   43.417372
 --- exit write_ns ---

     total cpu time spent up to now is      278.4 secs

     total energy              =  -14687.27611319 Ry
     Harris-Foulkes estimate   =  -14685.81558586 Ry
     estimated scf accuracy    <      11.56389160 Ry

     total magnetization       =    10.10 Bohr mag/cell
     absolute magnetization    =    41.52 Bohr mag/cell

     iteration #  2     ecut=    45.00 Ry     beta= 0.10
     Davidson diagonalization with overlap
     ethr =  3.91E-03,  avg # of iterations =  1.0

     total cpu time spent up to now is      402.5 secs

     total energy              =  -14688.77976160 Ry
     Harris-Foulkes estimate   =  -14687.35479028 Ry
     estimated scf accuracy    <       9.93719442 Ry

     total magnetization       =     9.96 Bohr mag/cell
     absolute magnetization    =    41.19 Bohr mag/cell

     iteration #  3     ecut=    45.00 Ry     beta= 0.10
     Davidson diagonalization with overlap
     ethr =  3.36E-03,  avg # of iterations =  3.8

     total cpu time spent up to now is      580.4 secs

     total energy              =  -14692.06964772 Ry
     Harris-Foulkes estimate   =  -14690.03160852 Ry
     estimated scf accuracy    <     112.10230160 Ry

     total magnetization       =    10.11 Bohr mag/cell
     absolute magnetization    =    40.72 Bohr mag/cell

     iteration #  4     ecut=    45.00 Ry     beta= 0.10
     Davidson diagonalization with overlap
     ethr =  3.36E-03,  avg # of iterations =  3.1

     total cpu time spent up to now is      747.9 secs

     total energy              =  -14694.40661163 Ry
     Harris-Foulkes estimate   =  -14694.17749229 Ry
     estimated scf accuracy    <       4.41020767 Ry

     total magnetization       =     9.25 Bohr mag/cell
     absolute magnetization    =    38.48 Bohr mag/cell

     iteration #  5     ecut=    45.00 Ry     beta= 0.10
     Davidson diagonalization with overlap
     ethr =  1.49E-03,  avg # of iterations =  3.4

     total cpu time spent up to now is      911.8 secs

     total energy              =  -14694.65722338 Ry
     Harris-Foulkes estimate   =  -14694.45325368 Ry
     estimated scf accuracy    <       8.73964716 Ry

     total magnetization       =     9.18 Bohr mag/cell
     absolute magnetization    =    38.28 Bohr mag/cell

     iteration #  6     ecut=    45.00 Ry     beta= 0.10
     Davidson diagonalization with overlap
     ethr =  1.49E-03,  avg # of iterations =  1.1

     total cpu time spent up to now is     1033.5 secs

     total energy              =  -14693.38877546 Ry
     Harris-Foulkes estimate   =  -14694.69611106 Ry
     estimated scf accuracy    <       6.82166178 Ry

     total magnetization       =     9.18 Bohr mag/cell
     absolute magnetization    =    38.04 Bohr mag/cell

     iteration #  7     ecut=    45.00 Ry     beta= 0.10
     Davidson diagonalization with overlap
     ethr =  1.49E-03,  avg # of iterations =  3.5

     total cpu time spent up to now is     1198.9 secs

     total energy              =  -14693.80841687 Ry
     Harris-Foulkes estimate   =  -14693.75599176 Ry
     estimated scf accuracy    <       2.36478736 Ry

     total magnetization       =     9.07 Bohr mag/cell
     absolute magnetization    =    38.65 Bohr mag/cell

     iteration #  8     ecut=    45.00 Ry     beta= 0.10
     Davidson diagonalization with overlap
     ethr =  7.99E-04,  avg # of iterations =  4.7

     total cpu time spent up to now is     1412.7 secs

     total energy              =  -14693.98611674 Ry
     Harris-Foulkes estimate   =  -14693.97498084 Ry
     estimated scf accuracy    <       0.18562039 Ry

     total magnetization       =     8.93 Bohr mag/cell
     absolute magnetization    =    37.73 Bohr mag/cell

     iteration #  9     ecut=    45.00 Ry     beta= 0.10
     Davidson diagonalization with overlap
     ethr =  6.27E-05,  avg # of iterations =  3.2

     total cpu time spent up to now is     1578.5 secs

     total energy              =  -14693.99966400 Ry
     Harris-Foulkes estimate   =  -14694.00055282 Ry
     estimated scf accuracy    <       0.10832152 Ry

     total magnetization       =     8.81 Bohr mag/cell
     absolute magnetization    =    37.43 Bohr mag/cell

     iteration # 10     ecut=    45.00 Ry     beta= 0.10
     Davidson diagonalization with overlap
     ethr =  3.66E-05,  avg # of iterations =  1.1

     total cpu time spent up to now is     1697.5 secs

     total energy              =  -14693.98971634 Ry
     Harris-Foulkes estimate   =  -14694.00128775 Ry
     estimated scf accuracy    <       0.09208499 Ry

     total magnetization       =     8.82 Bohr mag/cell
     absolute magnetization    =    37.39 Bohr mag/cell

     iteration # 11     ecut=    45.00 Ry     beta= 0.10
     Davidson diagonalization with overlap
     ethr =  3.11E-05,  avg # of iterations =  2.5

     total cpu time spent up to now is     1846.4 secs

     total energy              =  -14693.99909713 Ry
     Harris-Foulkes estimate   =  -14693.99973193 Ry
     estimated scf accuracy    <       0.04890998 Ry

     total magnetization       =     8.79 Bohr mag/cell
     absolute magnetization    =    37.45 Bohr mag/cell

     iteration # 12     ecut=    45.00 Ry     beta= 0.10
     Davidson diagonalization with overlap
     ethr =  1.65E-05,  avg # of iterations =  1.5

     total cpu time spent up to now is     1975.2 secs

     total energy              =  -14694.00408027 Ry
     Harris-Foulkes estimate   =  -14694.00190792 Ry
     estimated scf accuracy    <       0.00839909 Ry

     total magnetization       =     8.79 Bohr mag/cell
     absolute magnetization    =    37.39 Bohr mag/cell

     iteration # 13     ecut=    45.00 Ry     beta= 0.10
     Davidson diagonalization with overlap
     c_bands:  2 eigenvalues not converged
     c_bands:  2 eigenvalues not converged
     ethr =  2.84E-06,  avg # of iterations =  6.8

     total cpu time spent up to now is     2209.8 secs

     total energy              =  -14694.00575587 Ry
     Harris-Foulkes estimate   =  -14694.00468796 Ry
     estimated scf accuracy    <       0.00505940 Ry

     total magnetization       =     8.77 Bohr mag/cell
     absolute magnetization    =    37.32 Bohr mag/cell

     iteration # 14     ecut=    45.00 Ry     beta= 0.10
     Davidson diagonalization with overlap
     c_bands:  2 eigenvalues not converged
     ethr =  1.71E-06,  avg # of iterations =  2.8

     total cpu time spent up to now is     2361.4 secs

     total energy              =  -14694.00643620 Ry
     Harris-Foulkes estimate   =  -14694.00597937 Ry
     estimated scf accuracy    <       0.00267520 Ry

     total magnetization       =     8.75 Bohr mag/cell
     absolute magnetization    =    37.28 Bohr mag/cell

     iteration # 15     ecut=    45.00 Ry     beta= 0.10
     Davidson diagonalization with overlap
     ethr =  9.04E-07,  avg # of iterations =  1.9

     total cpu time spent up to now is     2495.1 secs

     total energy              =  -14694.00679426 Ry
     Harris-Foulkes estimate   =  -14694.00662104 Ry
     estimated scf accuracy    <       0.00288147 Ry

     total magnetization       =     8.74 Bohr mag/cell
     absolute magnetization    =    37.27 Bohr mag/cell

     iteration # 16     ecut=    45.00 Ry     beta= 0.10
     Davidson diagonalization with overlap
     ethr =  9.04E-07,  avg # of iterations =  1.1

     total cpu time spent up to now is     2616.7 secs

     total energy              =  -14694.00693630 Ry
     Harris-Foulkes estimate   =  -14694.00685800 Ry
     estimated scf accuracy    <       0.00069518 Ry

     total magnetization       =     8.75 Bohr mag/cell
     absolute magnetization    =    37.28 Bohr mag/cell

     iteration # 17     ecut=    45.00 Ry     beta= 0.10
     Davidson diagonalization with overlap
     ethr =  2.35E-07,  avg # of iterations =  1.7

     total cpu time spent up to now is     2750.0 secs

     total energy              =  -14694.00705248 Ry
     Harris-Foulkes estimate   =  -14694.00696314 Ry
     estimated scf accuracy    <       0.00199181 Ry

     total magnetization       =     8.74 Bohr mag/cell
     absolute magnetization    =    37.28 Bohr mag/cell

     iteration # 18     ecut=    45.00 Ry     beta= 0.10
     Davidson diagonalization with overlap
     ethr =  2.35E-07,  avg # of iterations =  1.1

     total cpu time spent up to now is     2872.1 secs

     total energy              =  -14694.00708833 Ry
     Harris-Foulkes estimate   =  -14694.00707544 Ry
     estimated scf accuracy    <       0.00013439 Ry

     total magnetization       =     8.75 Bohr mag/cell
     absolute magnetization    =    37.27 Bohr mag/cell

     iteration # 19     ecut=    45.00 Ry     beta= 0.10
     Davidson diagonalization with overlap
     ethr =  4.54E-08,  avg # of iterations =  3.3

     total cpu time spent up to now is     3037.2 secs

     total energy              =  -14694.00711628 Ry
     Harris-Foulkes estimate   =  -14694.00709779 Ry
     estimated scf accuracy    <       0.00010822 Ry

     total magnetization       =     8.75 Bohr mag/cell
     absolute magnetization    =    37.27 Bohr mag/cell

     iteration # 20     ecut=    45.00 Ry     beta= 0.10
     Davidson diagonalization with overlap
     ethr =  3.66E-08,  avg # of iterations =  1.2

     total cpu time spent up to now is     3163.4 secs

     total energy              =  -14694.00713814 Ry
     Harris-Foulkes estimate   =  -14694.00711100 Ry
     estimated scf accuracy    <       0.00005840 Ry

     total magnetization       =     8.74 Bohr mag/cell
     absolute magnetization    =    37.27 Bohr mag/cell

     iteration # 21     ecut=    45.00 Ry     beta= 0.10
     Davidson diagonalization with overlap
     ethr =  1.97E-08,  avg # of iterations =  2.4

     total cpu time spent up to now is     3314.8 secs

     total energy              =  -14694.00714928 Ry
     Harris-Foulkes estimate   =  -14694.00713763 Ry
     estimated scf accuracy    <       0.00002303 Ry

     total magnetization       =     8.74 Bohr mag/cell
     absolute magnetization    =    37.26 Bohr mag/cell

     iteration # 22     ecut=    45.00 Ry     beta= 0.10
     Davidson diagonalization with overlap
     ethr =  7.78E-09,  avg # of iterations =  1.8

     total cpu time spent up to now is     3449.3 secs

     total energy              =  -14694.00715214 Ry
     Harris-Foulkes estimate   =  -14694.00714897 Ry
     estimated scf accuracy    <       0.00002038 Ry

     total magnetization       =     8.74 Bohr mag/cell
     absolute magnetization    =    37.26 Bohr mag/cell

     iteration # 23     ecut=    45.00 Ry     beta= 0.10
     Davidson diagonalization with overlap
     ethr =  6.89E-09,  avg # of iterations =  1.0

     total cpu time spent up to now is     3567.8 secs

     total energy              =  -14694.00715444 Ry
     Harris-Foulkes estimate   =  -14694.00715190 Ry
     estimated scf accuracy    <       0.00000611 Ry

     total magnetization       =     8.74 Bohr mag/cell
     absolute magnetization    =    37.26 Bohr mag/cell

     iteration # 24     ecut=    45.00 Ry     beta= 0.10
     Davidson diagonalization with overlap
     ethr =  2.07E-09,  avg # of iterations =  1.6

     total cpu time spent up to now is     3695.9 secs

     total energy              =  -14694.00715544 Ry
     Harris-Foulkes estimate   =  -14694.00715354 Ry
     estimated scf accuracy    <       0.00000810 Ry

     total magnetization       =     8.74 Bohr mag/cell
     absolute magnetization    =    37.26 Bohr mag/cell

     iteration # 25     ecut=    45.00 Ry     beta= 0.10
     Davidson diagonalization with overlap
     ethr =  2.07E-09,  avg # of iterations =  1.1

     total cpu time spent up to now is     3814.3 secs

     total energy              =  -14694.00715802 Ry
     Harris-Foulkes estimate   =  -14694.00715640 Ry
     estimated scf accuracy    <       0.00000699 Ry

     total magnetization       =     8.74 Bohr mag/cell
     absolute magnetization    =    37.26 Bohr mag/cell

     iteration # 26     ecut=    45.00 Ry     beta= 0.10
     Davidson diagonalization with overlap
     ethr =  2.07E-09,  avg # of iterations =  1.3

     total cpu time spent up to now is     3937.8 secs

     total energy              =  -14694.00715849 Ry
     Harris-Foulkes estimate   =  -14694.00715726 Ry
     estimated scf accuracy    <       0.00000220 Ry

     total magnetization       =     8.74 Bohr mag/cell
     absolute magnetization    =    37.26 Bohr mag/cell

     iteration # 27     ecut=    45.00 Ry     beta= 0.10
     Davidson diagonalization with overlap
     ethr =  7.43E-10,  avg # of iterations =  2.3

     total cpu time spent up to now is     4080.2 secs

     total energy              =  -14694.00716008 Ry
     Harris-Foulkes estimate   =  -14694.00715912 Ry
     estimated scf accuracy    <       0.00000521 Ry

     total magnetization       =     8.74 Bohr mag/cell
     absolute magnetization    =    37.26 Bohr mag/cell

     iteration # 28     ecut=    45.00 Ry     beta= 0.10
     Davidson diagonalization with overlap
     ethr =  7.43E-10,  avg # of iterations =  2.2
 
     Magnetic moment per site:
     atom:    1    charge:   13.5498    magn:    4.2264    constr:    0.0000
     atom:    2    charge:   13.5520    magn:    4.2038    constr:    0.0000
     atom:    3    charge:   13.5457    magn:    4.2519    constr:    0.0000
     atom:    4    charge:   13.5468    magn:   -4.2355    constr:    0.0000
     atom:    5    charge:   13.5454    magn:    4.2511    constr:    0.0000
     atom:    6    charge:   13.5488    magn:    4.2301    constr:    0.0000
     atom:    7    charge:   13.5487    magn:   -4.2331    constr:    0.0000
     atom:    8    charge:   13.5484    magn:   -4.2353    constr:    0.0000
     atom:    9    charge:    9.1212    magn:    0.0313    constr:    0.0000
     atom:   10    charge:    9.1219    magn:    0.0356    constr:    0.0000
     atom:   11    charge:    9.1223    magn:    0.0378    constr:    0.0000
     atom:   12    charge:    9.1220    magn:    0.0329    constr:    0.0000
     atom:   13    charge:    9.1231    magn:    0.0446    constr:    0.0000
     atom:   14    charge:    9.1246    magn:   -0.0371    constr:    0.0000
     atom:   15    charge:    9.1235    magn:   -0.0376    constr:    0.0000
     atom:   16    charge:    9.1232    magn:    0.0508    constr:    0.0000
     atom:   17    charge:    9.1232    magn:    0.0392    constr:    0.0000
     atom:   18    charge:    9.1230    magn:    0.0394    constr:    0.0000
     atom:   19    charge:    9.1225    magn:    0.0431    constr:    0.0000
     atom:   20    charge:    9.1224    magn:   -0.0439    constr:    0.0000
     atom:   21    charge:    9.1230    magn:   -0.0386    constr:    0.0000
     atom:   22    charge:    9.1233    magn:   -0.0395    constr:    0.0000
     atom:   23    charge:    9.1239    magn:   -0.0446    constr:    0.0000
     atom:   24    charge:    9.1222    magn:    0.0370    constr:    0.0000

     total cpu time spent up to now is     4220.9 secs

     End of self-consistent calculation
 --- enter write_ns ---
 LDA+U parameters:
U(  1) =   3.1200   J(  1) =   0.7000   B(  1) =   0.0803
U(  2) =   3.1200   J(  2) =   0.7000   B(  2) =   0.0803
atom    1   Tr[ns(na)] (up, down, total) =   4.97063  0.74467  5.71530
   spin  1
    eigenvalues: 
  0.984  0.993  0.993  0.997  1.002
    eigenvectors:
  0.000  0.000  0.000  1.000  0.000
  0.000  0.319  0.681  0.000  0.000
  0.000  0.681  0.319  0.000  0.000
  0.000  0.000  0.000  0.000  1.000
  1.000  0.000  0.000  0.000  0.000
    occupations:
  0.997 -0.000 -0.000  0.000  0.000
 -0.000  0.993 -0.000  0.000  0.000
 -0.000 -0.000  0.993  0.000  0.000
  0.000  0.000  0.000  1.002 -0.000
  0.000  0.000  0.000 -0.000  0.984
   spin  2
    eigenvalues: 
  0.065  0.132  0.146  0.146  0.256
    eigenvectors:
  0.000  1.000  0.000  0.000  0.000
  0.000  0.000  0.316  0.684  0.000
  0.000  0.000  0.684  0.316  0.000
  1.000  0.000  0.000  0.000  0.000
  0.000  0.000  0.000  0.000  1.000
    occupations:
  0.132 -0.000 -0.000  0.000  0.000
 -0.000  0.146 -0.000  0.000  0.000
 -0.000 -0.000  0.146  0.000  0.000
  0.000  0.000  0.000  0.065 -0.000
  0.000  0.000  0.000 -0.000  0.256
atomic mag. moment =     4.225961
atom    2   Tr[ns(na)] (up, down, total) =   4.96982  0.76122  5.73104
   spin  1
    eigenvalues: 
  0.984  0.993  0.993  0.996  1.002
    eigenvectors:
  0.000  0.000  0.000  1.000  0.000
  0.000  0.411  0.589  0.000  0.000
  0.000  0.589  0.411  0.000  0.000
  0.000  0.000  0.000  0.000  1.000
  1.000  0.000  0.000  0.000  0.000
    occupations:
  0.996 -0.000 -0.000  0.000  0.000
 -0.000  0.993 -0.000  0.000  0.000
 -0.000 -0.000  0.993  0.000  0.000
  0.000  0.000  0.000  1.002 -0.000
  0.000  0.000  0.000 -0.000  0.984
   spin  2
    eigenvalues: 
  0.065  0.141  0.143  0.143  0.269
    eigenvectors:
  0.000  1.000  0.000  0.000  0.000
  0.000  0.000  0.252  0.748  0.000
  0.000  0.000  0.748  0.252  0.000
  1.000  0.000  0.000  0.000  0.000
  0.000  0.000  0.000  0.000  1.000
    occupations:
  0.141 -0.000 -0.000  0.000  0.000
 -0.000  0.143 -0.000  0.000  0.000
 -0.000 -0.000  0.143  0.000  0.000
  0.000  0.000  0.000  0.065 -0.000
  0.000  0.000  0.000 -0.000  0.269
atomic mag. moment =     4.208604
atom    3   Tr[ns(na)] (up, down, total) =   4.97365  0.72347  5.69712
   spin  1
    eigenvalues: 
  0.985  0.994  0.994  0.998  1.002
    eigenvectors:
  0.000  0.000  0.000  1.000  0.000
  0.000  0.341  0.659  0.000  0.000
  0.000  0.659  0.341  0.000  0.000
  0.000  0.000  0.000  0.000  1.000
  1.000  0.000  0.000  0.000  0.000
    occupations:
  0.998 -0.000 -0.000  0.000  0.000
 -0.000  0.994 -0.000  0.000  0.000
 -0.000 -0.000  0.994  0.000  0.000
  0.000  0.000  0.000  1.002 -0.000
  0.000  0.000  0.000 -0.000  0.985
   spin  2
    eigenvalues: 
  0.066  0.117  0.147  0.147  0.246
    eigenvectors:
  0.000  1.000  0.000  0.000  0.000
  0.000  0.000  0.259  0.741  0.000
  0.000  0.000  0.741  0.259  0.000
  1.000  0.000  0.000  0.000  0.000
  0.000  0.000  0.000  0.000  1.000
    occupations:
  0.117 -0.000 -0.000  0.000  0.000
 -0.000  0.147 -0.000  0.000  0.000
 -0.000 -0.000  0.147  0.000  0.000
  0.000  0.000  0.000  0.066 -0.000
  0.000  0.000  0.000 -0.000  0.246
atomic mag. moment =     4.250173
atom    4   Tr[ns(na)] (up, down, total) =   0.73700  4.96929  5.70629
   spin  1
    eigenvalues: 
  0.065  0.130  0.145  0.145  0.251
    eigenvectors:
  0.000  1.000  0.000  0.000  0.000
  0.000  0.000  0.355  0.645  0.000
  0.000  0.000  0.645  0.355  0.000
  1.000  0.000  0.000  0.000  0.000
  0.000  0.000  0.000  0.000  1.000
    occupations:
  0.130 -0.000 -0.000  0.000  0.000
 -0.000  0.145 -0.000  0.000  0.000
 -0.000 -0.000  0.145  0.000  0.000
  0.000  0.000  0.000  0.065 -0.000
  0.000  0.000  0.000 -0.000  0.251
   spin  2
    eigenvalues: 
  0.984  0.994  0.994  0.995  1.003
    eigenvectors:
  0.000  0.000  0.000  1.000  0.000
  0.000  0.350  0.650  0.000  0.000
  0.000  0.650  0.350  0.000  0.000
  0.000  0.000  0.000  0.000  1.000
  1.000  0.000  0.000  0.000  0.000
    occupations:
  0.995 -0.000 -0.000  0.000  0.000
 -0.000  0.994 -0.000  0.000  0.000
 -0.000 -0.000  0.994  0.000  0.000
  0.000  0.000  0.000  1.003 -0.000
  0.000  0.000  0.000 -0.000  0.984
atomic mag. moment =    -4.232294
atom    5   Tr[ns(na)] (up, down, total) =   4.97384  0.72435  5.69819
   spin  1
    eigenvalues: 
  0.985  0.994  0.994  0.997  1.003
    eigenvectors:
  0.000  0.000  0.000  1.000  0.000
  0.000  0.296  0.704  0.000  0.000
  0.000  0.704  0.296  0.000  0.000
  0.000  0.000  0.000  0.000  1.000
  1.000  0.000  0.000  0.000  0.000
    occupations:
  0.997 -0.000 -0.000  0.000  0.000
 -0.000  0.994 -0.000  0.000  0.000
 -0.000 -0.000  0.994  0.000  0.000
  0.000  0.000  0.000  1.003 -0.000
  0.000  0.000  0.000 -0.000  0.985
   spin  2
    eigenvalues: 
  0.066  0.120  0.146  0.146  0.247
    eigenvectors:
  0.000  1.000  0.000  0.000  0.000
  0.000  0.000  0.354  0.646  0.000
  0.000  0.000  0.646  0.354  0.000
  1.000  0.000  0.000  0.000  0.000
  0.000  0.000  0.000  0.000  1.000
    occupations:
  0.120 -0.000 -0.000  0.000  0.000
 -0.000  0.146 -0.000  0.000  0.000
 -0.000 -0.000  0.146  0.000  0.000
  0.000  0.000  0.000  0.066 -0.000
  0.000  0.000  0.000 -0.000  0.247
atomic mag. moment =     4.249493
atom    6   Tr[ns(na)] (up, down, total) =   4.97116  0.74228  5.71344
   spin  1
    eigenvalues: 
  0.985  0.994  0.994  0.996  1.002
    eigenvectors:
  0.000  0.000  0.000  1.000  0.000
  0.000  0.349  0.651  0.000  0.000
  0.000  0.651  0.349  0.000  0.000
  0.000  0.000  0.000  0.000  1.000
  1.000  0.000  0.000  0.000  0.000
    occupations:
  0.996 -0.000 -0.000  0.000  0.000
 -0.000  0.994 -0.000  0.000  0.000
 -0.000 -0.000  0.994  0.000  0.000
  0.000  0.000  0.000  1.002 -0.000
  0.000  0.000  0.000 -0.000  0.985
   spin  2
    eigenvalues: 
  0.064  0.131  0.146  0.146  0.256
    eigenvectors:
  0.000  1.000  0.000  0.000  0.000
  0.000  0.000  0.294  0.706  0.000
  0.000  0.000  0.706  0.294  0.000
  1.000  0.000  0.000  0.000  0.000
  0.000  0.000  0.000  0.000  1.000
    occupations:
  0.131 -0.000 -0.000  0.000  0.000
 -0.000  0.146 -0.000  0.000  0.000
 -0.000 -0.000  0.146  0.000  0.000
  0.000  0.000  0.000  0.064 -0.000
  0.000  0.000  0.000 -0.000  0.256
atomic mag. moment =     4.228883
atom    7   Tr[ns(na)] (up, down, total) =   0.74083  4.97165  5.71248
   spin  1
    eigenvalues: 
  0.064  0.133  0.144  0.144  0.256
    eigenvectors:
  0.000  1.000  0.000  0.000  0.000
  0.000  0.000  0.298  0.702  0.000
  0.000  0.000  0.702  0.298  0.000
  1.000  0.000  0.000  0.000  0.000
  0.000  0.000  0.000  0.000  1.000
    occupations:
  0.133 -0.000 -0.000  0.000  0.000
 -0.000  0.144 -0.000  0.000  0.000
 -0.000 -0.000  0.144  0.000  0.000
  0.000  0.000  0.000  0.064 -0.000
  0.000  0.000  0.000 -0.000  0.256
   spin  2
    eigenvalues: 
  0.985  0.994  0.994  0.997  1.002
    eigenvectors:
  0.000  0.000  0.000  1.000  0.000
  0.000  0.389  0.611  0.000  0.000
  0.000  0.611  0.389  0.000  0.000
  0.000  0.000  0.000  0.000  1.000
  1.000  0.000  0.000  0.000  0.000
    occupations:
  0.997 -0.000 -0.000  0.000  0.000
 -0.000  0.994 -0.000  0.000  0.000
 -0.000 -0.000  0.994  0.000  0.000
  0.000  0.000  0.000  1.002 -0.000
  0.000  0.000  0.000 -0.000  0.985
atomic mag. moment =    -4.230817
atom    8   Tr[ns(na)] (up, down, total) =   0.73903  4.97184  5.71087
   spin  1
    eigenvalues: 
  0.064  0.139  0.141  0.141  0.255
    eigenvectors:
  0.000  1.000  0.000  0.000  0.000
  0.000  0.000  0.290  0.710  0.000
  0.000  0.000  0.710  0.290  0.000
  1.000  0.000  0.000  0.000  0.000
  0.000  0.000  0.000  0.000  1.000
    occupations:
  0.139 -0.000 -0.000  0.000  0.000
 -0.000  0.141 -0.000  0.000  0.000
 -0.000 -0.000  0.141  0.000  0.000
  0.000  0.000  0.000  0.064 -0.000
  0.000  0.000  0.000 -0.000  0.255
   spin  2
    eigenvalues: 
  0.985  0.994  0.994  0.996  1.002
    eigenvectors:
  0.000  0.000  0.000  1.000  0.000
  0.000  0.384  0.616  0.000  0.000
  0.000  0.616  0.384  0.000  0.000
  0.000  0.000  0.000  0.000  1.000
  1.000  0.000  0.000  0.000  0.000
    occupations:
  0.996 -0.000 -0.000  0.000  0.000
 -0.000  0.994 -0.000  0.000  0.000
 -0.000 -0.000  0.994  0.000  0.000
  0.000  0.000  0.000  1.002 -0.000
  0.000  0.000  0.000 -0.000  0.985
atomic mag. moment =    -4.232810
N of occupied +U levels =   45.684732
 --- exit write_ns ---

 ------ SPIN UP ------------


          k = 0.0000 0.0000 0.0000 ( 13925 PWs)   bands (ev):

   -66.7786 -66.7784 -66.7081 -66.6939 -66.6285 -62.2267 -62.1374 -62.1237
   -35.5492 -35.5474 -35.4953 -35.4953 -35.4947 -35.4947 -35.4796 -35.4634
   -35.4245 -35.4245 -35.4117 -35.4117 -35.4086 -35.3422 -35.3422 -31.0536
   -31.0426 -31.0426 -30.9641 -30.9558 -30.9558 -30.9509 -30.9420 -30.9420
     5.7510   5.8763   5.9581   6.3321   6.3907   6.9798   7.0810   7.6143
     8.2760   8.3858   8.3883   8.4069   8.4411   8.5454   8.6009   8.7179
     8.7777   8.8043   8.8629   8.9124   9.0322   9.1663   9.2027   9.2765
     9.3018   9.3729   9.4479   9.4764   9.6053   9.7132   9.8762   9.8989
     9.9108   9.9387  10.0220  10.0996  10.1170  10.1170  10.1605  10.1778
    10.1778  10.1900  10.1900  10.2311  10.2836  10.2917  10.3344  10.3344
    10.3493  10.3493  10.5336  10.5410  10.5683  10.5683  10.5748  10.5748
    10.5963  10.6009  10.6009  10.6110  10.6110  10.6559  10.6559  10.6644
    10.7003  10.7003  10.7375  10.7659  10.7659  10.9723  10.9819  10.9819
    11.0203  11.0436  11.0436  11.0940  11.1505  11.2265  11.2511  11.2730
    11.3864  11.3864  11.3883  11.4660  11.5552  11.5552  11.6466  11.6622
    11.7165  11.7510  11.8182  11.8684  11.8684  11.8891  11.9591  11.9844
    11.9844  12.0826  12.0978  12.1668  12.1856  12.2417  12.2754  12.2754
    12.5582  12.5582  12.5961  12.6700  12.6921  12.6921  12.8165  12.8588
    12.9759  12.9877  13.0754  13.2317  13.7648  14.0023  14.8337  15.5075
    16.1849  16.8302  16.8302  16.8833  16.8833  16.9328  16.9857  17.0423
    17.0964  17.1240  17.1240  17.1412  17.1955  17.5213  17.5627  17.5867
    18.4022  19.4140  19.7644  20.0622  20.0622  20.3983  20.3983  20.5132
    20.5132  21.4233

          k = 0.0000 0.0000 0.0242 ( 13893 PWs)   bands (ev):

   -66.7786 -66.7784 -66.7081 -66.6939 -66.6285 -62.2267 -62.1374 -62.1237
   -35.5492 -35.5474 -35.4953 -35.4953 -35.4947 -35.4947 -35.4796 -35.4634
   -35.4245 -35.4245 -35.4117 -35.4117 -35.4086 -35.3422 -35.3422 -31.0536
   -31.0426 -31.0426 -30.9641 -30.9558 -30.9558 -30.9509 -30.9420 -30.9420
     5.7576   5.8449   6.0081   6.2282   6.5106   6.8429   7.2222   7.5486
     8.3354   8.3859   8.3926   8.4069   8.4379   8.5455   8.5999   8.6825
     8.7175   8.7959   8.8636   8.9550   9.0755   9.1613   9.1867   9.2908
     9.3313   9.3611   9.4076   9.4653   9.6216   9.7195   9.8701   9.8990
     9.9108   9.9378  10.0220  10.1010  10.1182  10.1182  10.1603  10.1637
    10.1637  10.2124  10.2124  10.2352  10.2840  10.2911  10.2917  10.2917
    10.3992  10.3992  10.5288  10.5318  10.5318  10.5337  10.5697  10.5697
    10.5759  10.5759  10.6081  10.6476  10.6476  10.6562  10.6748  10.6748
    10.7086  10.7086  10.7469  10.7725  10.7725  10.9104  10.9104  10.9755
    11.0062  11.0909  11.1211  11.1211  11.1704  11.2272  11.2403  11.2720
    11.3296  11.3296  11.3903  11.4666  11.6085  11.6085  11.6434  11.6636
    11.7158  11.7499  11.8199  11.8199  11.8222  11.8896  11.9593  12.0154
    12.0154  12.0734  12.0978  12.1820  12.1856  12.2336  12.2686  12.2686
    12.5600  12.5600  12.5969  12.6693  12.6916  12.6916  12.8294  12.8589
    12.9404  12.9877  13.0754  13.2916  13.6496  14.1262  14.7409  15.6050
    16.1228  16.8302  16.8302  16.8833  16.8833  16.9328  16.9857  17.0423
    17.0964  17.1240  17.1240  17.1412  17.1955  17.5203  17.5625  17.5915
    18.4870  19.1422  20.0818  20.0843  20.0843  20.2882  20.2882  20.6629
    20.6629  21.0544

          k = 0.0000 0.0000-0.0484 ( 13878 PWs)   bands (ev):

   -66.7786 -66.7784 -66.7081 -66.6939 -66.6285 -62.2267 -62.1374 -62.1237
   -35.5492 -35.5474 -35.4953 -35.4953 -35.4947 -35.4947 -35.4796 -35.4634
   -35.4245 -35.4245 -35.4117 -35.4117 -35.4086 -35.3422 -35.3422 -31.0536
   -31.0426 -31.0426 -30.9641 -30.9558 -30.9558 -30.9509 -30.9420 -30.9420
     5.7675   5.8201   6.0751   6.1419   6.6464   6.6967   7.3874   7.4100
     8.3825   8.3859   8.4068   8.4331   8.4529   8.5344   8.5456   8.6346
     8.7171   8.7811   8.8643   8.9934   9.0803   9.1569   9.2157   9.3120
     9.3357   9.3420   9.3775   9.4498   9.6343   9.7262   9.8637   9.8990
     9.9107   9.9368  10.0221  10.1024  10.1197  10.1197  10.1563  10.1563
    10.1601  10.2395  10.2410  10.2410  10.2558  10.2558  10.2845  10.2906
    10.4583  10.4583  10.4672  10.4672  10.5248  10.5267  10.5695  10.5695
    10.5758  10.5758  10.6261  10.6411  10.6496  10.6496  10.6865  10.6865
    10.7275  10.7275  10.7563  10.8005  10.8005  10.8445  10.8445  10.9787
    10.9935  11.0877  11.1993  11.2085  11.2085  11.2187  11.2278  11.2461
    11.2461  11.2711  11.3922  11.4672  11.6402  11.6651  11.6700  11.6700
    11.7151  11.7488  11.7620  11.7620  11.8263  11.8901  11.9595  12.0385
    12.0385  12.0655  12.0977  12.1856  12.2048  12.2164  12.2612  12.2612
    12.5618  12.5618  12.5978  12.6686  12.6910  12.6910  12.8528  12.8590
    12.8994  12.9876  13.0754  13.3742  13.5377  14.2382  14.6374  15.7175
    16.0372  16.8302  16.8302  16.8834  16.8834  16.9328  16.9857  17.0423
    17.0964  17.1240  17.1240  17.1412  17.1955  17.5195  17.5624  17.5957
    18.6344  18.9003  20.1260  20.1260  20.2037  20.2037  20.4987  20.6121
    20.8589  20.8589

          k = 0.0000 0.1250 0.0000 ( 13879 PWs)   bands (ev):

   -66.7783 -66.7781 -66.7078 -66.6936 -66.6282 -62.2267 -62.1374 -62.1237
   -35.5490 -35.5472 -35.4971 -35.4964 -35.4952 -35.4946 -35.4794 -35.4633
   -35.4263 -35.4244 -35.4135 -35.4116 -35.4084 -35.3440 -35.3421 -31.0534
   -31.0448 -31.0425 -30.9638 -30.9579 -30.9556 -30.9506 -30.9442 -30.9419
     5.9943   6.1170   6.1959   6.5580   6.6119   7.1781   7.2553   7.7562
     8.2849   8.4780   8.5208   8.5277   8.5400   8.6477   8.6892   8.7126
     8.7889   8.8328   8.9183   8.9555   9.0145   9.1713   9.2033   9.2502
     9.3150   9.3370   9.3441   9.4439   9.6154   9.6763   9.7596   9.7808
     9.8203   9.8594   9.8832   9.9002   9.9222   9.9980  10.0110  10.0424
    10.0562  10.0741  10.1363  10.1774  10.2259  10.2298  10.2462  10.2769
    10.3256  10.3961  10.4005  10.4280  10.4662  10.5191  10.5400  10.6044
    10.6321  10.6628  10.6690  10.6928  10.7619  10.7823  10.8164  10.8212
    10.8304  10.8831  10.8897  10.9932  11.0544  11.0577  11.1041  11.1187
    11.1307  11.1420  11.1930  11.2118  11.2499  11.2953  11.3240  11.3650
    11.3673  11.4079  11.4216  11.4356  11.5223  11.6751  11.6835  11.7192
    11.7553  11.8032  11.8090  11.8118  11.8414  11.8979  11.9283  11.9825
    12.0219  12.0861  12.0968  12.1619  12.1801  12.2438  12.3428  12.4115
    12.4206  12.4324  12.5360  12.6153  12.7085  12.7558  12.8390  12.8662
    12.9499  12.9503  12.9593  13.2006  13.8233  14.0536  14.9588  15.6139
    16.3157  16.5770  16.7185  16.9156  16.9425  16.9447  16.9943  16.9990
    17.0103  17.0493  17.0887  17.1091  17.2667  17.5062  17.6099  17.9252
    18.5080  18.6431  18.9298  19.0996  19.7842  19.8512  19.9102  20.0400
    20.6772  20.9260

          k = 0.0000 0.1250 0.0242 ( 13869 PWs)   bands (ev):

   -66.7783 -66.7781 -66.7078 -66.6936 -66.6282 -62.2267 -62.1374 -62.1237
   -35.5490 -35.5472 -35.4971 -35.4964 -35.4952 -35.4946 -35.4794 -35.4633
   -35.4263 -35.4244 -35.4135 -35.4116 -35.4084 -35.3440 -35.3421 -31.0534
   -31.0448 -31.0425 -30.9638 -30.9579 -30.9556 -30.9506 -30.9442 -30.9419
     6.0007   6.0865   6.2445   6.4571   6.7277   7.0431   7.3929   7.6947
     8.3378   8.4799   8.5208   8.5242   8.5384   8.6053   8.6613   8.7168
     8.7974   8.8518   8.9279   8.9537   9.0431   9.1480   9.1910   9.2567
     9.3012   9.3256   9.3527   9.4791   9.5939   9.6731   9.7670   9.7810
     9.8191   9.8620   9.8817   9.9054   9.9222   9.9875  10.0110  10.0393
    10.0610  10.0783  10.1353  10.1761  10.2245  10.2269  10.2632  10.2800
    10.3192  10.3562  10.4063  10.4373  10.5014  10.5093  10.5545  10.6001
    10.6304  10.6624  10.6721  10.6845  10.6928  10.8124  10.8239  10.8273
    10.8584  10.8772  10.8997  11.0010  11.0362  11.0518  11.0971  11.1193
    11.1322  11.1550  11.1813  11.1977  11.2510  11.3020  11.3165  11.3596
    11.3650  11.4089  11.4335  11.4506  11.5580  11.6514  11.6722  11.7185
    11.7275  11.7681  11.7904  11.8524  11.8675  11.9025  11.9445  11.9987
    12.0123  12.0855  12.0954  12.1616  12.1635  12.2332  12.3525  12.4177
    12.4233  12.4298  12.5339  12.6133  12.7089  12.7720  12.8389  12.8665
    12.9027  12.9499  12.9593  13.2771  13.6799  14.2068  14.8494  15.7209
    16.2379  16.6057  16.7133  16.9156  16.9415  16.9454  16.9943  16.9990
    17.0103  17.0493  17.0886  17.1091  17.2667  17.5000  17.6386  17.8525
    18.6296  18.6892  18.8521  19.2106  19.4402  19.6395  20.1359  20.4055
    20.6925  20.7108

          k = 0.0000 0.1250-0.0484 ( 13868 PWs)   bands (ev):

   -66.7783 -66.7781 -66.7078 -66.6936 -66.6282 -62.2267 -62.1374 -62.1237
   -35.5490 -35.5472 -35.4971 -35.4964 -35.4952 -35.4946 -35.4794 -35.4633
   -35.4263 -35.4244 -35.4135 -35.4116 -35.4084 -35.3440 -35.3421 -31.0534
   -31.0448 -31.0425 -30.9638 -30.9579 -30.9556 -30.9506 -30.9442 -30.9419
     6.0102   6.0625   6.3095   6.3738   6.8590   6.9024   7.5507   7.5621
     8.4183   8.4858   8.4997   8.5217   8.5279   8.5451   8.6592   8.7259
     8.7954   8.8516   8.9363   8.9769   9.0670   9.1230   9.1735   9.2662
     9.2845   9.3178   9.3623   9.5296   9.5519   9.6706   9.7732   9.7812
     9.8180   9.8651   9.8796   9.9120   9.9222   9.9766  10.0109  10.0367
    10.0649  10.0820  10.1341  10.1750  10.2220  10.2278  10.2844  10.2866
    10.3120  10.3216  10.4068  10.4497  10.4853  10.5622  10.5651  10.5944
    10.6227  10.6290  10.6625  10.6745  10.6928  10.8130  10.8272  10.8280
    10.8711  10.8756  10.9454  10.9961  11.0108  11.0431  11.0942  11.1222
    11.1293  11.1591  11.1690  11.2081  11.2533  11.2715  11.3325  11.3576
    11.3602  11.4025  11.4559  11.4686  11.6121  11.6259  11.6379  11.6902
    11.7221  11.7629  11.7842  11.8555  11.8775  11.9364  11.9520  11.9892
    12.0245  12.0838  12.0961  12.1425  12.1620  12.2233  12.3617  12.4232
    12.4238  12.4296  12.5317  12.6112  12.7094  12.8041  12.8388  12.8478
    12.8668  12.9499  12.9592  13.3846  13.5399  14.3452  14.7233  15.8449
    16.1376  16.6301  16.7063  16.9156  16.9407  16.9458  16.9943  16.9990
    17.0103  17.0493  17.0885  17.1091  17.2667  17.4950  17.6876  17.7699
    18.6811  18.7847  18.9182  19.1187  19.3607  19.4616  20.3801  20.4162
    20.7172  20.8072

          k = 0.0000 0.2500 0.0000 ( 13848 PWs)   bands (ev):

   -66.7782 -66.7780 -66.7076 -66.6934 -66.6281 -62.2263 -62.1370 -62.1233
   -35.5486 -35.5468 -35.5013 -35.5006 -35.4950 -35.4943 -35.4790 -35.4629
   -35.4305 -35.4242 -35.4177 -35.4114 -35.4080 -35.3482 -35.3419 -31.0528
   -31.0501 -31.0422 -30.9632 -30.9632 -30.9553 -30.9501 -30.9495 -30.9415
     6.6827   6.7953   6.8649   7.1796   7.2179   7.6785   7.6899   8.0546
     8.2464   8.4761   8.4927   8.6811   8.7130   8.7434   8.7949   8.8299
     8.8458   8.8729   8.9179   8.9372   8.9821   8.9988   9.0799   9.2099
     9.2561   9.4003   9.4625   9.4767   9.5205   9.5655   9.5950   9.6368
     9.6380   9.6693   9.6767   9.7194   9.7579   9.7883   9.8441   9.8762
     9.9282   9.9961  10.0160  10.1488  10.1523  10.1563  10.2661  10.3255
    10.3701  10.5228  10.5538  10.5598  10.5994  10.6068  10.6324  10.7410
    10.7615  10.8032  10.8086  10.8627  10.8657  10.8901  10.9619  11.0074
    11.0495  11.0888  11.1279  11.1646  11.1721  11.1743  11.2160  11.2831
    11.3546  11.3675  11.3934  11.4224  11.4267  11.4373  11.5244  11.5383
    11.5461  11.6076  11.6201  11.6481  11.6731  11.7177  11.7452  11.7650
    11.8152  11.8221  11.8405  11.8582  11.8754  11.9206  11.9852  11.9879
    12.0370  12.0562  12.0885  12.1130  12.1390  12.2268  12.2599  12.3917
    12.4590  12.5429  12.5570  12.5728  12.7170  12.7804  12.8745  12.8865
    12.9257  12.9839  13.0217  13.0980  13.9797  14.1685  15.1983  15.6198
    16.0135  16.0347  16.2003  16.2915  16.3463  16.5450  16.7958  16.8053
    16.8536  17.0153  17.0346  17.0698  17.2315  17.2617  17.3431  17.3809
    17.4058  17.6438  17.7456  17.9358  18.4426  18.5015  18.5331  18.7254
    19.4257  20.4004

          k = 0.0000 0.2500 0.0242 ( 13862 PWs)   bands (ev):

   -66.7782 -66.7780 -66.7076 -66.6934 -66.6281 -62.2263 -62.1370 -62.1233
   -35.5486 -35.5468 -35.5013 -35.5006 -35.4950 -35.4943 -35.4790 -35.4629
   -35.4305 -35.4242 -35.4177 -35.4114 -35.4080 -35.3482 -35.3419 -31.0528
   -31.0501 -31.0422 -30.9632 -30.9632 -30.9553 -30.9501 -30.9495 -30.9415
     6.6882   6.7682   6.9077   7.0919   7.3154   7.5609   7.8029   8.0106
     8.2811   8.4201   8.5452   8.6515   8.7202   8.7551   8.7945   8.8266
     8.8464   8.8730   8.9151   8.9372   8.9818   9.0088   9.0806   9.1914
     9.2514   9.4349   9.4625   9.4766   9.5213   9.5640   9.5926   9.6255
     9.6385   9.6688   9.6767   9.6888   9.7548   9.7900   9.8450   9.9273
     9.9278   9.9962  10.0157  10.1121  10.1475  10.1524  10.2758  10.3540
    10.3602  10.4988  10.5506  10.5811  10.6029  10.6211  10.6324  10.7269
    10.7565  10.7675  10.8069  10.8678  10.8981  10.9113  10.9504  11.0221
    11.0356  11.0621  11.1129  11.1681  11.1765  11.2176  11.2176  11.2713
    11.3527  11.3665  11.3857  11.4141  11.4246  11.4532  11.5211  11.5365
    11.5396  11.5836  11.6251  11.6470  11.7052  11.7295  11.7402  11.7770
    11.8132  11.8255  11.8406  11.8547  11.8785  11.8884  11.9687  12.0065
    12.0141  12.0548  12.1128  12.1298  12.1440  12.2172  12.2501  12.3925
    12.4614  12.5377  12.5617  12.5963  12.7165  12.7806  12.7835  12.8861
    12.9260  12.9839  13.0218  13.2307  13.7617  14.3914  15.0551  15.7294
    15.9849  16.0418  16.1652  16.3021  16.3587  16.5489  16.7958  16.8027
    16.8536  17.0153  17.0334  17.0702  17.2417  17.2617  17.3431  17.3586
    17.4058  17.6165  17.8010  18.0016  18.2515  18.3732  18.6985  18.8330
    19.4660  20.0528

          k = 0.0000 0.2500-0.0484 ( 13842 PWs)   bands (ev):

   -66.7782 -66.7780 -66.7076 -66.6934 -66.6281 -62.2263 -62.1370 -62.1233
   -35.5486 -35.5468 -35.5013 -35.5006 -35.4950 -35.4943 -35.4790 -35.4629
   -35.4305 -35.4242 -35.4177 -35.4114 -35.4080 -35.3482 -35.3419 -31.0528
   -31.0501 -31.0422 -30.9632 -30.9632 -30.9553 -30.9501 -30.9495 -30.9415
     6.6961   6.7474   6.9647   7.0202   7.4253   7.4476   7.8954   7.9356
     8.3316   8.3678   8.5985   8.6039   8.7249   8.7585   8.8047   8.8177
     8.8462   8.8728   8.9128   8.9372   8.9821   9.0195   9.0814   9.1725
     9.2492   9.4626   9.4764   9.4767   9.5221   9.5626   9.5779   9.6074
     9.6402   9.6673   9.6747   9.6767   9.7520   9.7915   9.8460   9.9275
     9.9963   9.9986  10.0153  10.0449  10.1462  10.1525  10.2901  10.3344
    10.4002  10.4662  10.5487  10.6068  10.6075  10.6282  10.6365  10.7174
    10.7188  10.7651  10.8087  10.8756  10.9042  10.9401  10.9496  11.0142
    11.0416  11.0439  11.0851  11.1784  11.1977  11.2196  11.2416  11.2530
    11.3499  11.3663  11.3776  11.4081  11.4237  11.4738  11.5080  11.5330
    11.5351  11.5606  11.6428  11.6599  11.6985  11.7268  11.7670  11.7904
    11.8095  11.8324  11.8404  11.8450  11.8662  11.8885  11.9323  11.9995
    12.0313  12.0547  12.1129  12.1507  12.1638  12.1998  12.2390  12.3930
    12.4640  12.5338  12.5651  12.6512  12.6878  12.7159  12.7808  12.8857
    12.9264  12.9838  13.0218  13.4146  13.5446  14.5896  14.8801  15.8675
    15.9034  16.0621  16.1211  16.3202  16.3605  16.5541  16.7958  16.7998
    16.8536  17.0153  17.0322  17.0707  17.2565  17.2617  17.3332  17.3431
    17.4058  17.5934  17.8943  18.0373  18.1902  18.2177  18.8170  18.8601
    19.6135  19.7619

          k = 0.0000 0.3750 0.0000 ( 13856 PWs)   bands (ev):

   -66.7788 -66.7785 -66.7082 -66.6940 -66.6287 -62.2254 -62.1360 -62.1223
   -35.5482 -35.5464 -35.5053 -35.5047 -35.4947 -35.4941 -35.4786 -35.4625
   -35.4346 -35.4240 -35.4217 -35.4111 -35.4076 -35.3523 -35.3416 -31.0555
   -31.0523 -31.0418 -30.9686 -30.9627 -30.9550 -30.9549 -30.9495 -30.9412
     7.6414   7.7331   7.7790   7.9720   7.9810   8.1248   8.1351   8.1727
     8.1957   8.2725   8.2868   8.4237   8.4515   8.6192   8.6561   8.8701
     8.8947   8.9462   9.0434   9.1045   9.1523   9.2209   9.2226   9.2280
     9.2387   9.2598   9.2781   9.3152   9.3652   9.4086   9.5139   9.5293
     9.5898   9.5954   9.6143   9.6747   9.6950   9.7006   9.8717   9.9069
     9.9375  10.0101  10.0446  10.0812  10.0983  10.1345  10.2189  10.3540
    10.3707  10.4179  10.4691  10.5401  10.5730  10.6314  10.6399  10.8330
    10.8649  10.8786  10.9922  11.0370  11.1466  11.2060  11.2102  11.3131
    11.3307  11.3505  11.3840  11.4114  11.4710  11.4867  11.4900  11.4947
    11.5173  11.5704  11.5769  11.5885  11.5938  11.6469  11.6609  11.6824
    11.7404  11.7651  11.8272  11.8287  11.8344  11.9017  11.9026  11.9207
    12.0181  12.0474  12.0552  12.0634  12.0886  12.1054  12.1534  12.1679
    12.1857  12.2221  12.3063  12.3536  12.3882  12.4060  12.4244  12.5070
    12.5190  12.6011  12.6428  12.6757  12.8122  12.8712  12.9622  12.9664
    12.9789  12.9951  13.0515  13.0695  13.9054  14.0243  14.0480  14.2327
    14.2765  14.8245  14.8907  15.0612  15.1044  15.6265  15.6306  15.9122
    15.9436  16.7581  16.7829  16.8277  16.9122  16.9431  16.9726  17.0532
    17.1102  17.2449  17.4633  17.5515  17.5724  17.9347  17.9657  18.1615
    19.5409  19.6640

          k = 0.0000 0.3750 0.0242 ( 13870 PWs)   bands (ev):

   -66.7788 -66.7785 -66.7082 -66.6940 -66.6287 -62.2254 -62.1360 -62.1223
   -35.5482 -35.5464 -35.5053 -35.5047 -35.4947 -35.4941 -35.4786 -35.4625
   -35.4346 -35.4240 -35.4217 -35.4111 -35.4076 -35.3523 -35.3416 -31.0555
   -31.0523 -31.0418 -30.9686 -30.9627 -30.9550 -30.9549 -30.9495 -30.9412
     7.6450   7.7134   7.8088   7.9214   8.0274   8.1053   8.1475   8.1688
     8.2027   8.2481   8.3150   8.3961   8.4759   8.5979   8.6766   8.8417
     8.9226   8.9561   9.0284   9.0803   9.1766   9.2226   9.2252   9.2281
     9.2387   9.2597   9.2866   9.3187   9.3657   9.4081   9.4896   9.5140
     9.5600   9.5954   9.6446   9.6745   9.6956   9.7505   9.8704   9.9034
     9.9355  10.0155  10.0471  10.0516  10.0813  10.0928  10.2962  10.3547
    10.3800  10.4179  10.4593  10.5376  10.5502  10.6403  10.6415  10.8179
    10.8305  10.9035  11.0069  11.0544  11.1686  11.2050  11.2171  11.2952
    11.3004  11.3655  11.4033  11.4316  11.4472  11.4725  11.4821  11.4917
    11.5190  11.5461  11.5781  11.5828  11.6060  11.6407  11.6644  11.6960
    11.7245  11.7690  11.7935  11.8245  11.8590  11.8860  11.8994  11.9515
    12.0197  12.0282  12.0525  12.0784  12.0865  12.1209  12.1450  12.1927
    12.2292  12.2493  12.2911  12.3462  12.3915  12.4100  12.4281  12.5097
    12.5181  12.5990  12.6396  12.6783  12.7102  12.8123  12.8712  12.9662
    12.9790  13.0515  13.0695  13.2525  13.7695  13.9627  14.1210  14.2507
    14.4187  14.6683  14.8274  15.0705  15.2618  15.5365  15.7197  15.8561
    15.9446  16.7581  16.7829  16.8254  16.9261  16.9431  16.9725  17.0420
    17.1191  17.2419  17.4633  17.5515  17.5724  17.9342  17.9677  18.1624
    19.5518  19.6851

          k = 0.0000 0.3750-0.0484 ( 13872 PWs)   bands (ev):

   -66.7788 -66.7785 -66.7082 -66.6940 -66.6287 -62.2254 -62.1360 -62.1223
   -35.5482 -35.5464 -35.5053 -35.5047 -35.4947 -35.4941 -35.4786 -35.4625
   -35.4346 -35.4240 -35.4217 -35.4111 -35.4076 -35.3523 -35.3416 -31.0555
   -31.0523 -31.0418 -30.9686 -30.9627 -30.9550 -30.9549 -30.9495 -30.9412
     7.6496   7.6993   7.8473   7.8782   8.0632   8.0793   8.1563   8.1631
     8.2147   8.2288   8.3421   8.3679   8.4931   8.5811   8.6916   8.8242
     8.9366   8.9784   9.0045   9.0627   9.2024   9.2145   9.2225   9.2282
     9.2387   9.2596   9.3039   9.3255   9.3661   9.4075   9.4453   9.5142
     9.5562   9.5954   9.6498   9.6743   9.6962   9.8168   9.8691   9.8884
     9.9338   9.9902  10.0203  10.0515  10.0818  10.0853  10.3351  10.3670
    10.4064  10.4179  10.4379  10.5197  10.5354  10.6425  10.6499  10.8032
    10.8142  10.9118  11.0206  11.0700  11.1925  11.1998  11.2371  11.2799
    11.2896  11.3571  11.3970  11.4421  11.4571  11.4635  11.4695  11.4763
    11.5241  11.5332  11.5689  11.5788  11.6097  11.6337  11.6889  11.7093
    11.7102  11.7661  11.7880  11.8019  11.8709  11.8773  11.8942  11.9800
    12.0135  12.0365  12.0503  12.0776  12.0840  12.1074  12.1445  12.2020
    12.2519  12.2750  12.3377  12.3930  12.3962  12.4144  12.4475  12.4842
    12.5126  12.5264  12.5966  12.6370  12.6805  12.8124  12.8712  12.9661
    12.9791  13.0515  13.0695  13.5058  13.5336  14.0003  14.0432  14.4473
    14.4726  14.5893  14.6468  15.2014  15.2453  15.6197  15.6340  15.8713
    15.9124  16.7581  16.7829  16.8238  16.9409  16.9431  16.9723  17.0307
    17.1269  17.2388  17.4633  17.5515  17.5724  17.9336  17.9698  18.1633
    19.5731  19.6811

          k = 0.0000-0.5000 0.0000 ( 13918 PWs)   bands (ev):

   -66.7792 -66.7790 -66.7087 -66.6945 -66.6291 -62.2248 -62.1355 -62.1217
   -35.5480 -35.5462 -35.5070 -35.5063 -35.4946 -35.4940 -35.4784 -35.4623
   -35.4362 -35.4239 -35.4234 -35.4110 -35.4075 -35.3539 -35.3415 -31.0577
   -31.0520 -31.0417 -30.9709 -30.9625 -30.9572 -30.9548 -30.9493 -30.9411
     8.1053   8.1115   8.1357   8.1438   8.2018   8.2486   8.3091   8.3394
     8.3613   8.4400   8.4609   8.4989   8.5109   8.6191   8.6732   8.6858
     8.7436   8.8276   9.0369   9.0419   9.1222   9.1299   9.1496   9.1543
     9.2189   9.2903   9.2986   9.3246   9.4589   9.4612   9.5429   9.5483
     9.5769   9.6667   9.6776   9.7008   9.7331   9.7665   9.8282   9.8362
     9.8386   9.9550  10.0280  10.0331  10.0348  10.0720  10.1000  10.1967
    10.3381  10.4688  10.4974  10.5577  10.5708  10.5725  10.5981  10.6028
    10.7295  10.9012  11.1999  11.2577  11.3106  11.3612  11.3849  11.3860
    11.4119  11.4882  11.4891  11.5317  11.5343  11.5473  11.5537  11.5671
    11.5704  11.5964  11.6172  11.6528  11.6551  11.7208  11.7358  11.7673
    11.7868  11.8203  11.8394  11.9050  11.9451  12.0600  12.0640  12.1676
    12.2407  12.2420  12.3033  12.4046  12.4117  12.4178  12.4349  12.4923
    12.5085  12.5459  12.5630  12.5858  12.6446  12.6635  12.6662  12.6889
    12.7032  12.7394  12.8503  12.8658  12.9061  12.9515  12.9706  12.9981
    13.0010  13.0824  13.0875  13.1108  13.2506  13.4269  13.4547  13.7282
    13.8257  13.8565  13.8864  14.3190  14.3782  14.4831  14.5249  14.8161
    14.8390  16.6480  16.6815  16.7105  16.7642  16.8281  16.8332  16.8384
    16.9879  17.0095  17.5373  17.6346  17.6371  17.9135  18.0079  18.0301
    19.5741  19.6226

          k = 0.0000-0.5000 0.0242 ( 13918 PWs)   bands (ev):

   -66.7792 -66.7790 -66.7087 -66.6945 -66.6291 -62.2248 -62.1355 -62.1217
   -35.5480 -35.5462 -35.5070 -35.5063 -35.4946 -35.4940 -35.4784 -35.4623
   -35.4362 -35.4239 -35.4234 -35.4110 -35.4075 -35.3539 -35.3415 -31.0577
   -31.0520 -31.0417 -30.9709 -30.9625 -30.9572 -30.9548 -30.9493 -30.9411
     8.1056   8.1112   8.1363   8.1428   8.2035   8.2466   8.3144   8.3352
     8.3566   8.4489   8.4637   8.4972   8.5053   8.6192   8.6677   8.6850
     8.7512   8.8302   9.0320   9.0335   9.1222   9.1299   9.1496   9.1543
     9.2316   9.2903   9.2986   9.3371   9.4588   9.4612   9.5244   9.5279
     9.5771   9.6667   9.6829   9.7150   9.7402   9.7630   9.8271   9.8359
     9.8386   9.9555  10.0277  10.0332  10.0348  10.0839  10.1228  10.1837
    10.2963  10.4687  10.4974  10.5691  10.5708  10.5759  10.6021  10.6028
    10.7295  10.9115  11.1997  11.2546  11.3249  11.3460  11.3849  11.3862
    11.4172  11.4844  11.4912  11.5238  11.5324  11.5467  11.5505  11.5733
    11.5738  11.5942  11.6128  11.6341  11.6447  11.7262  11.7489  11.7666
    11.7865  11.8171  11.8373  11.9333  11.9451  12.0600  12.0649  12.1872
    12.2189  12.2404  12.2899  12.4050  12.4133  12.4174  12.4430  12.4948
    12.5090  12.5384  12.5592  12.5846  12.6447  12.6741  12.6745  12.6888
    12.7038  12.7297  12.8416  12.8503  12.9060  12.9806  12.9895  12.9981
    13.0011  13.0824  13.0874  13.0875  13.2180  13.4722  13.4874  13.6644
    13.7210  13.9593  13.9691  14.2323  14.2893  14.5616  14.6086  14.7900
    14.8121  16.6558  16.6820  16.7036  16.7642  16.8281  16.8331  16.8384
    16.9879  17.0095  17.5372  17.6346  17.6371  17.9136  18.0078  18.0301
    19.5953  19.6445

          k = 0.0000-0.5000-0.0484 ( 13892 PWs)   bands (ev):

   -66.7792 -66.7790 -66.7087 -66.6945 -66.6291 -62.2248 -62.1355 -62.1217
   -35.5480 -35.5462 -35.5070 -35.5063 -35.4946 -35.4940 -35.4784 -35.4623
   -35.4362 -35.4239 -35.4234 -35.4110 -35.4075 -35.3539 -35.3415 -31.0577
   -31.0520 -31.0417 -30.9709 -30.9625 -30.9572 -30.9548 -30.9493 -30.9411
     8.1058   8.1109   8.1369   8.1419   8.2053   8.2446   8.3208   8.3313
     8.3507   8.4595   8.4667   8.4953   8.4976   8.6193   8.6630   8.6843
     8.7580   8.8328   9.0258   9.0271   9.1222   9.1299   9.1496   9.1543
     9.2444   9.2903   9.2987   9.3513   9.4586   9.4612   9.5070   9.5074
     9.5773   9.6667   9.6863   9.7295   9.7475   9.7573   9.8260   9.8356
     9.8386   9.9560  10.0275  10.0332  10.0347  10.1001  10.1606  10.1663
    10.2431  10.4686  10.4974  10.5664  10.5708  10.5902  10.6029  10.6054
    10.7295  10.9225  11.1996  11.2524  11.3314  11.3401  11.3849  11.3865
    11.4211  11.4778  11.4963  11.5130  11.5296  11.5486  11.5509  11.5738
    11.5789  11.5894  11.6081  11.6232  11.6366  11.7305  11.7569  11.7659
    11.7862  11.8149  11.8354  11.9451  11.9635  12.0600  12.0659  12.1948
    12.2145  12.2388  12.2686  12.4055  12.4149  12.4169  12.4504  12.4981
    12.5097  12.5308  12.5553  12.5833  12.6448  12.6853  12.6863  12.6887
    12.7045  12.7166  12.8222  12.8503  12.9058  12.9981  13.0012  13.0067
    13.0273  13.0456  13.0823  13.0875  13.1882  13.5286  13.5545  13.5800
    13.6488  14.0568  14.0573  14.1268  14.2002  14.6356  14.6934  14.7472
    14.7600  16.6671  16.6826  16.6931  16.7642  16.8281  16.8330  16.8384
    16.9880  17.0095  17.5372  17.6346  17.6370  17.9137  18.0077  18.0301
    19.6230  19.6749

          k = 0.1250 0.1250 0.0000 ( 13839 PWs)   bands (ev):

   -66.7780 -66.7778 -66.7075 -66.6933 -66.6279 -62.2268 -62.1375 -62.1238
   -35.5489 -35.5471 -35.4970 -35.4969 -35.4964 -35.4963 -35.4793 -35.4631
   -35.4262 -35.4262 -35.4134 -35.4133 -35.4083 -35.3439 -35.3438 -31.0532
   -31.0447 -31.0445 -30.9636 -30.9579 -30.9577 -30.9504 -30.9441 -30.9439
     6.2259   6.3460   6.4257   6.7787   6.8301   7.3787   7.4397   7.9145
     8.3436   8.5608   8.6007   8.6603   8.6745   8.7202   8.7399   8.7888
     8.8149   8.9278   9.0046   9.0353   9.0470   9.1325   9.2603   9.3375
     9.3458   9.3812   9.3914   9.4682   9.5215   9.6317   9.6466   9.6917
     9.7157   9.8188   9.8374   9.8502   9.8680   9.8738   9.8942   9.9012
     9.9152   9.9284  10.0915  10.1064  10.1166  10.1344  10.2612  10.2700
    10.3151  10.3326  10.3423  10.3817  10.4045  10.4401  10.5075  10.5221
    10.5501  10.5901  10.6258  10.6780  10.7153  10.7418  10.7757  10.8572
    10.8643  10.9331  11.0244  11.0343  11.0609  11.1022  11.1180  11.1771
    11.1793  11.1967  11.2256  11.2639  11.3110  11.3881  11.4070  11.4354
    11.4892  11.5284  11.5364  11.5556  11.6134  11.6901  11.7220  11.7666
    11.7794  11.8009  11.8263  11.9043  11.9632  11.9799  12.0143  12.0640
    12.0880  12.0927  12.1299  12.1389  12.2326  12.3327  12.3328  12.3498
    12.4660  12.5837  12.5988  12.6059  12.7039  12.7301  12.7348  12.7631
    12.8296  12.8421  12.9547  13.2182  13.9266  14.1556  15.1022  15.7473
[...]
    11.6220  11.6560  11.6870  11.6984  11.8409  11.8713  11.8828  11.8851
    11.9112  11.9806  12.0029  12.0040  12.0583  12.1773  12.1828  12.2307
    12.3163  12.3679  12.3682  12.4374  12.4503  12.4659  12.4765  12.8160
    12.8781  12.8923  12.9057  13.0750  13.2389  13.3702  13.3778  13.7222
    13.8271  13.8895  13.9768  14.2336  14.4337  14.4904  14.5540  14.7661
    14.8813  15.2305  15.2730  15.4777  16.1194  16.3799  16.3829  16.8991
    16.9494  17.0719  17.0862  17.0960  17.1161  17.1215  17.1449  17.1510
    17.1656  17.4556  17.4904  17.6486  17.6669  17.8179  17.8571  18.1204
    18.1266  18.1331  18.1835  18.2584  18.3645  18.3764  18.4666  18.4957
    19.8516  19.8815

          k = 0.3750 0.3750 0.0000 ( 13948 PWs)   bands (ev):

   -66.8116 -66.7253 -66.7093 -62.1717 -62.1710 -62.1224 -62.1117 -62.0643
   -35.5790 -35.5389 -35.5388 -35.4933 -35.4804 -35.4541 -35.4541 -35.4369
   -35.4368 -31.0038 -31.0036 -31.0029 -31.0027 -30.9955 -30.9917 -30.9530
   -30.9528 -30.9485 -30.9442 -30.9440 -30.9347 -30.8958 -30.8937 -30.8935
     8.0716   8.1692   8.4050   8.4453   8.4959   8.6476   8.6716   8.7797
     9.0035   9.0281   9.0520   9.0614   9.1218   9.1960   9.2141   9.2650
     9.3171   9.3205   9.3419   9.3429   9.4016   9.4022   9.4795   9.4869
     9.5093   9.5158   9.5415   9.5821   9.6674   9.6901   9.7131   9.8515
     9.9511   9.9606   9.9782  10.0141  10.0637  10.0989  10.1189  10.1215
    10.1358  10.1623  10.1873  10.2512  10.2626  10.4004  10.4177  10.4726
    10.5582  10.5906  10.5921  10.6626  10.6748  10.7289  10.7432  10.7840
    10.8285  10.9549  10.9975  11.0566  11.1009  11.1198  11.1794  11.1913
    11.2550  11.3865  11.4506  11.4735  11.5166  11.5470  11.5544  11.5718
    11.5872  11.6047  11.6312  11.6989  11.7665  11.9011  11.9462  11.9607
    11.9646  11.9791  11.9903  12.0336  12.0376  12.0905  12.1103  12.1195
    12.1433  12.2262  12.2474  12.3483  12.3889  12.4106  12.5281  12.6469
    12.6828  12.7172  13.0118  13.0563  13.3279  13.4492  13.8921  14.0321
    14.3392  14.5071  14.8276  15.0430  15.0985  15.1698  15.2487  15.3503
    15.4316  15.8871  16.1800  16.3208  16.4321  16.9885  16.9907  17.0085
    17.0483  17.0870  17.1033  17.1551  17.2422  17.3722  17.3858  17.4851
    17.5005  17.7019  17.8308  17.8587  17.8816  17.9319  18.0568  18.0614
    18.1117  18.2497  18.2985  18.3473  18.3783  18.6411  18.8685  18.9272
    18.9719  19.0239

          k = 0.3750 0.3750 0.0242 ( 13940 PWs)   bands (ev):

   -66.8116 -66.7253 -66.7093 -62.1717 -62.1710 -62.1224 -62.1117 -62.0643
   -35.5790 -35.5389 -35.5388 -35.4933 -35.4804 -35.4541 -35.4541 -35.4369
   -35.4368 -31.0038 -31.0036 -31.0029 -31.0027 -30.9955 -30.9917 -30.9530
   -30.9528 -30.9485 -30.9442 -30.9440 -30.9347 -30.8958 -30.8937 -30.8935
     8.0722   8.1674   8.4056   8.4551   8.4983   8.5959   8.7129   8.7871
     9.0039   9.0238   9.0403   9.0657   9.1349   9.1602   9.2145   9.2934
     9.3131   9.3176   9.3402   9.3602   9.4081   9.4132   9.4607   9.4624
     9.4910   9.5410   9.5460   9.5996   9.6416   9.6641   9.7666   9.8677
     9.9081   9.9535   9.9725  10.0052  10.0714  10.0933  10.1216  10.1293
    10.1599  10.1924  10.1979  10.2181  10.2601  10.3809  10.4405  10.4448
    10.5514  10.5708  10.6292  10.6702  10.6834  10.7201  10.7485  10.7951
    10.8281  10.9232  10.9976  11.0565  11.1008  11.1157  11.1747  11.2222
    11.2565  11.3783  11.4492  11.4764  11.5138  11.5489  11.5523  11.5639
    11.5861  11.6052  11.6311  11.6989  11.7857  11.8755  11.9464  11.9644
    11.9782  11.9812  11.9903  12.0323  12.0452  12.0740  12.0917  12.1299
    12.1641  12.2254  12.2375  12.3479  12.3915  12.4106  12.5396  12.6333
    12.6466  12.7735  12.9521  13.1144  13.2936  13.4724  13.8672  14.0675
    14.3046  14.5337  14.8158  15.0473  15.1041  15.1570  15.2603  15.3448
    15.4327  15.8871  16.1780  16.3205  16.4353  16.9628  17.0136  17.0169
    17.0470  17.0832  17.1049  17.1548  17.2495  17.3472  17.3749  17.4924
    17.5249  17.6982  17.8143  17.8587  17.8970  17.9302  18.0511  18.0569
    18.1323  18.2218  18.3236  18.3662  18.4087  18.6785  18.6873  18.7785
    18.9606  19.1471

          k = 0.3750 0.3750-0.0484 ( 13950 PWs)   bands (ev):

   -66.8116 -66.7253 -66.7093 -62.1717 -62.1710 -62.1224 -62.1117 -62.0643
   -35.5790 -35.5389 -35.5388 -35.4933 -35.4804 -35.4541 -35.4541 -35.4369
   -35.4368 -31.0038 -31.0036 -31.0029 -31.0027 -30.9955 -30.9917 -30.9530
   -30.9528 -30.9485 -30.9442 -30.9440 -30.9347 -30.8958 -30.8937 -30.8935
     8.0728   8.1657   8.4060   8.4660   8.5062   8.5594   8.7307   8.7969
     9.0048   9.0134   9.0435   9.0666   9.1124   9.1702   9.2196   9.2711
     9.3182   9.3313   9.3385   9.4102   9.4147   9.4183   9.4386   9.4442
     9.4537   9.5474   9.5821   9.5944   9.6295   9.6468   9.8242   9.8478
     9.9004   9.9506   9.9533   9.9722  10.0977  10.1215  10.1229  10.1331
    10.1601  10.1638  10.2070  10.2341  10.2925  10.3159  10.4296  10.4770
    10.5433  10.5471  10.6564  10.6779  10.6902  10.7102  10.7539  10.8195
    10.8277  10.8800  10.9977  11.0564  11.1008  11.1135  11.1738  11.2431
    11.2637  11.3669  11.4480  11.4792  11.5109  11.5473  11.5508  11.5597
    11.5850  11.6058  11.6311  11.6989  11.8183  11.8405  11.9467  11.9641
    11.9774  11.9904  11.9999  12.0318  12.0567  12.0580  12.0738  12.1366
    12.1840  12.2231  12.2245  12.3474  12.3939  12.4107  12.5613  12.5943
    12.6463  12.8232  12.9006  13.1609  13.2537  13.4912  13.8470  14.1033
    14.2688  14.5567  14.8032  15.0514  15.1127  15.1427  15.2715  15.3382
    15.4338  15.8871  16.1761  16.3203  16.4384  16.9513  17.0191  17.0308
    17.0439  17.0797  17.1061  17.1546  17.2577  17.3268  17.3639  17.4989
    17.5448  17.6941  17.8022  17.8587  17.9023  17.9393  18.0286  18.0569
    18.1907  18.2083  18.2484  18.4824  18.5161  18.5215  18.6028  18.7478
    18.9220  19.1474

          k = 0.3750-0.5000 0.0000 ( 13934 PWs)   bands (ev):

   -66.8117 -66.7253 -66.7094 -62.1715 -62.1707 -62.1222 -62.1115 -62.0641
   -35.5789 -35.5405 -35.5387 -35.4931 -35.4803 -35.4557 -35.4539 -35.4385
   -35.4367 -31.0059 -31.0050 -31.0035 -31.0026 -30.9954 -30.9915 -30.9551
   -30.9527 -30.9484 -30.9463 -30.9439 -30.9345 -30.8958 -30.8956 -30.8934
     8.1947   8.1972   8.2768   8.3105   8.5586   8.5689   8.7189   8.7247
     8.9361   8.9733   9.1237   9.1383   9.1736   9.1776   9.2126   9.2308
     9.2324   9.2639   9.3010   9.3074   9.3175   9.3857   9.4110   9.4544
     9.4796   9.4858   9.5939   9.6369   9.6472   9.6643   9.8775   9.9134
     9.9261   9.9322   9.9933   9.9943  10.0688  10.0727  10.0938  10.1066
    10.2020  10.2792  10.2820  10.3372  10.3646  10.4088  10.4842  10.5864
    10.6619  10.6988  10.7073  10.7310  10.7904  10.8269  10.9064  11.0069
    11.0796  11.0812  11.1416  11.1743  11.2098  11.2700  11.3486  11.3704
    11.4026  11.4412  11.4928  11.5242  11.5675  11.6575  11.6662  11.6924
    11.7061  11.7846  11.7980  11.8061  11.9332  11.9589  11.9641  11.9929
    11.9946  12.0568  12.0582  12.0821  12.1012  12.1776  12.2130  12.2250
    12.2821  12.2960  12.3154  12.3612  12.3689  12.4595  12.4703  12.9565
    13.0402  13.1337  13.1355  13.2174  13.6823  13.8283  13.8338  14.1771
    14.3567  14.3796  14.5150  14.5171  14.6730  14.7137  14.9619  14.9629
    15.3833  15.7347  15.9852  15.9871  16.7850  16.9864  16.9926  17.0331
    17.0552  17.0680  17.0926  17.1064  17.1849  17.2477  17.4578  17.5141
    17.5964  17.8234  17.9169  17.9735  18.0059  18.0472  18.1229  18.1331
    18.1588  18.2175  18.3819  18.5003  18.6680  18.7046  18.8563  18.8611
    18.9173  18.9258

          k = 0.3750-0.5000 0.0242 ( 13948 PWs)   bands (ev):

   -66.8117 -66.7253 -66.7094 -62.1715 -62.1707 -62.1222 -62.1115 -62.0641
   -35.5789 -35.5405 -35.5387 -35.4931 -35.4803 -35.4557 -35.4539 -35.4385
   -35.4367 -31.0059 -31.0050 -31.0035 -31.0026 -30.9954 -30.9915 -30.9551
   -30.9527 -30.9484 -30.9463 -30.9439 -30.9345 -30.8958 -30.8956 -30.8934
     8.1949   8.1976   8.2762   8.3091   8.5665   8.5726   8.7075   8.7113
     8.9659   8.9889   9.1093   9.1136   9.1758   9.1758   9.1897   9.2133
     9.2539   9.2600   9.3040   9.3241   9.3478   9.3799   9.4034   9.4558
     9.4815   9.4965   9.5556   9.6004   9.6825   9.7195   9.8225   9.8604
     9.9538   9.9791   9.9922   9.9981  10.0661  10.0694  10.1105  10.1266
    10.1971  10.2518  10.2683  10.3214  10.3266  10.4605  10.5296  10.5879
    10.6594  10.7008  10.7086  10.7123  10.7700  10.7825  10.9573  11.0186
    11.0777  11.0821  11.1540  11.1613  11.2078  11.2485  11.3549  11.3804
    11.4022  11.4363  11.4812  11.5298  11.5839  11.6503  11.6534  11.6974
    11.7125  11.7816  11.7981  11.8072  11.9355  11.9572  11.9660  11.9918
    11.9925  12.0552  12.0576  12.0835  12.1013  12.1773  12.2117  12.2222
    12.2889  12.2957  12.3201  12.3644  12.3747  12.4518  12.4601  12.9675
    13.0498  13.1138  13.1265  13.2288  13.6857  13.8270  13.8306  14.1817
    14.3468  14.3873  14.5025  14.5286  14.6797  14.7065  14.9606  14.9649
    15.3833  15.7346  15.9852  15.9871  16.7836  16.9883  16.9923  17.0299
    17.0552  17.0630  17.0879  17.1158  17.2097  17.2399  17.4180  17.5174
    17.6292  17.8063  17.9397  17.9419  18.0389  18.0408  18.1157  18.1311
    18.1786  18.2039  18.3368  18.5172  18.7241  18.7283  18.8572  18.8585
    18.8881  18.9236

          k = 0.3750-0.5000-0.0484 ( 13940 PWs)   bands (ev):

   -66.8117 -66.7253 -66.7094 -62.1715 -62.1707 -62.1222 -62.1115 -62.0641
   -35.5789 -35.5405 -35.5387 -35.4931 -35.4803 -35.4557 -35.4539 -35.4385
   -35.4367 -31.0059 -31.0050 -31.0035 -31.0026 -30.9954 -30.9915 -30.9551
   -30.9527 -30.9484 -30.9463 -30.9439 -30.9345 -30.8958 -30.8956 -30.8934
     8.1951   8.1979   8.2757   8.3078   8.5759   8.5765   8.6904   8.7036
     9.0080   9.0138   9.0593   9.0986   9.1744   9.1801   9.1847   9.1962
     9.2604   9.2609   9.3005   9.3582   9.3736   9.3737   9.3844   9.4479
     9.5028   9.5127   9.5177   9.5708   9.7409   9.7603   9.7788   9.7982
     9.9761   9.9890   9.9911  10.0049  10.0643  10.0670  10.1413  10.1751
    10.1807  10.1867  10.2537  10.3123  10.3175  10.4946  10.5642  10.6256
    10.6494  10.6551  10.7056  10.7113  10.7488  10.7634  10.9964  11.0281
    11.0734  11.0831  11.1453  11.1779  11.2066  11.2176  11.3613  11.3897
    11.4016  11.4314  11.4708  11.5353  11.6036  11.6370  11.6437  11.7007
    11.7182  11.7786  11.7982  11.8081  11.9384  11.9548  11.9684  11.9901
    11.9908  12.0538  12.0570  12.0848  12.1013  12.1770  12.2105  12.2199
    12.2951  12.2955  12.3241  12.3689  12.3832  12.4431  12.4477  12.9808
    13.0624  13.0943  13.1144  13.2377  13.6892  13.8257  13.8272  14.1866
    14.3372  14.3966  14.4889  14.5400  14.6859  14.6988  14.9594  14.9668
    15.3834  15.7346  15.9852  15.9870  16.7822  16.9843  17.0000  17.0248
    17.0552  17.0593  17.0847  17.1249  17.2312  17.2389  17.3792  17.5207
    17.6562  17.7933  17.9172  17.9659  18.0277  18.0726  18.0983  18.1300
    18.1919  18.2101  18.2847  18.5322  18.7610  18.8117  18.8308  18.8477
    18.8674  18.9192

          k =-0.5000-0.5000 0.0000 ( 13964 PWs)   bands (ev):

   -66.8117 -66.7253 -66.7094 -62.1713 -62.1706 -62.1220 -62.1113 -62.0640
   -35.5788 -35.5403 -35.5403 -35.4931 -35.4802 -35.4555 -35.4555 -35.4383
   -35.4383 -31.0057 -31.0057 -31.0048 -31.0048 -30.9952 -30.9914 -30.9549
   -30.9549 -30.9483 -30.9461 -30.9461 -30.9344 -30.8956 -30.8956 -30.8955
     8.1101   8.1128   8.1942   8.2373   8.5042   8.5126   8.6816   8.7037
     8.8551   8.8977   9.1533   9.1661   9.2070   9.2245   9.2517   9.2517
     9.2891   9.2891   9.3292   9.3292   9.4162   9.4299   9.4432   9.4432
     9.4595   9.4595   9.6969   9.6969   9.7021   9.7021   9.9203   9.9309
     9.9309   9.9320   9.9320   9.9625   9.9703  10.0325  10.0325  10.0731
    10.0731  10.1018  10.1018  10.4844  10.4844  10.5443  10.6152  10.6211
    10.6211  10.6279  10.6694  10.6760  11.0649  11.0649  11.1405  11.1446
    11.1549  11.1878  11.1878  11.2790  11.3991  11.4328  11.4331  11.4804
    11.4970  11.5586  11.5586  11.9199  11.9423  11.9423  11.9607  11.9668
    11.9737  11.9742  11.9947  12.0037  12.0103  12.0280  12.0600  12.0648
    12.0685  12.0757  12.0918  12.0972  12.1202  12.1435  12.2023  12.2197
    12.2240  12.2646  12.3127  12.3269  12.3269  12.3425  12.3431  13.3871
    13.3998  13.4139  13.4163  13.4284  13.8843  13.8843  14.0451  14.0451
    14.3237  14.3237  14.5746  14.5746  14.7315  14.7315  15.2524  15.2524
    15.9076  15.9076  16.6139  16.6422  16.6422  16.6871  16.6964  16.8062
    16.8847  16.9760  16.9814  17.1246  17.3086  17.3086  17.4621  17.4621
    17.7606  17.7717  17.8544  17.9939  18.0779  18.0808  18.1385  18.1385
    18.1387  18.1449  18.1615  18.2033  18.2093  18.2681  18.3669  18.3669
    18.5362  18.7731

          k =-0.5000-0.5000 0.0242 ( 13960 PWs)   bands (ev):

   -66.8117 -66.7253 -66.7094 -62.1713 -62.1706 -62.1220 -62.1113 -62.0640
   -35.5788 -35.5403 -35.5403 -35.4931 -35.4802 -35.4555 -35.4555 -35.4383
   -35.4383 -31.0057 -31.0057 -31.0048 -31.0048 -30.9952 -30.9914 -30.9549
   -30.9549 -30.9483 -30.9461 -30.9461 -30.9344 -30.8956 -30.8956 -30.8955
     8.1103   8.1131   8.1937   8.2362   8.5117   8.5168   8.6702   8.6794
     8.8953   8.9219   9.0829   9.1069   9.2528   9.2528   9.2713   9.2838
     9.2838   9.2849   9.3414   9.3414   9.3991   9.4071   9.4071   9.4105
     9.5030   9.5030   9.6266   9.6266   9.7796   9.7796   9.9273   9.9309
     9.9309   9.9317   9.9317   9.9599   9.9599   9.9632   9.9647  10.0732
    10.0732  10.1807  10.1807  10.4090  10.4090  10.5432  10.6168  10.6280
    10.6687  10.6760  10.6989  10.6989  10.9789  10.9789  11.1406  11.1446
    11.1548  11.2686  11.2686  11.2791  11.3991  11.4328  11.4330  11.4804
    11.4970  11.5235  11.5235  11.9199  11.9554  11.9554  11.9607  11.9668
    11.9737  11.9742  11.9947  12.0037  12.0103  12.0280  12.0600  12.0648
    12.0685  12.0757  12.0918  12.0972  12.1202  12.1434  12.2038  12.2198
    12.2220  12.2645  12.3139  12.3228  12.3228  12.3419  12.3431  13.3871
    13.3998  13.4139  13.4162  13.4284  13.9008  13.9008  14.0170  14.0170
    14.3462  14.3462  14.5594  14.5594  14.7362  14.7362  15.2523  15.2523
    15.9076  15.9076  16.6139  16.6435  16.6435  16.6873  16.6964  16.8054
    16.8848  16.9788  16.9811  17.1212  17.2676  17.2676  17.5431  17.5431
    17.7719  17.7889  17.8378  17.9600  17.9960  17.9960  18.0779  18.0808
    18.1387  18.1449  18.1770  18.2033  18.2334  18.2579  18.5299  18.5386
    18.5386  18.7732

          k =-0.5000-0.5000-0.0484 ( 13992 PWs)   bands (ev):

   -66.8117 -66.7253 -66.7094 -62.1713 -62.1706 -62.1220 -62.1113 -62.0640
   -35.5788 -35.5403 -35.5403 -35.4931 -35.4802 -35.4555 -35.4555 -35.4383
   -35.4383 -31.0057 -31.0057 -31.0048 -31.0048 -30.9952 -30.9914 -30.9549
   -30.9549 -30.9483 -30.9461 -30.9461 -30.9344 -30.8956 -30.8956 -30.8955
     8.1105   8.1133   8.1932   8.2351   8.5206   8.5213   8.6582   8.6593
     8.9535   8.9542   9.0150   9.0600   9.2541   9.2541   9.2793   9.2793
     9.3280   9.3520   9.3627   9.3627   9.3634   9.3647   9.3774   9.3774
     9.5579   9.5579   9.5642   9.5642   9.8621   9.8621   9.8711   9.8711
     9.9309   9.9309   9.9325   9.9325   9.9379   9.9555   9.9640  10.0732
    10.0732  10.2750  10.2750  10.3120  10.3120  10.5422  10.6183  10.6280
    10.6681  10.6759  10.7858  10.7858  10.8887  10.8887  11.1406  11.1445
    11.1547  11.2791  11.3411  11.3411  11.3991  11.4328  11.4330  11.4730
    11.4730  11.4804  11.4970  11.9199  11.9607  11.9668  11.9679  11.9679
    11.9737  11.9742  11.9947  12.0037  12.0103  12.0280  12.0600  12.0648
    12.0685  12.0757  12.0918  12.0972  12.1202  12.1434  12.2057  12.2195
    12.2200  12.2643  12.3151  12.3185  12.3185  12.3411  12.3432  13.3871
    13.3998  13.4139  13.4162  13.4284  13.9296  13.9296  13.9782  13.9782
    14.3693  14.3693  14.5424  14.5424  14.7405  14.7405  15.2523  15.2523
    15.9076  15.9076  16.6139  16.6448  16.6448  16.6874  16.6964  16.8046
    16.8850  16.9809  16.9818  17.1177  17.2407  17.2407  17.6352  17.6352
    17.7972  17.8076  17.8129  17.8734  17.8734  17.9227  18.0779  18.0808
    18.1387  18.1449  18.1977  18.2033  18.2422  18.2546  18.5231  18.7734
    18.7787  18.7787

     the Fermi energy is    15.2642 ev

!    total energy              =  -14694.00716442 Ry
     Harris-Foulkes estimate   =  -14694.00715981 Ry
     estimated scf accuracy    <       0.00000056 Ry

     total all-electron energy =   -626921.602886 Ry

     The total energy is the sum of the following terms:

     one-electron contribution =    -714.50058836 Ry
     hartree contribution      =     656.54795365 Ry
     xc contribution           =    -737.87618203 Ry
     ewald contribution        =   -2196.78933708 Ry
     Hubbard energy            =       0.45115495 Ry
     one-center paw contrib.   =  -11701.84016556 Ry

     total magnetization       =     8.74 Bohr mag/cell
     absolute magnetization    =    37.26 Bohr mag/cell

     convergence has been achieved in  28 iterations

     Writing output data file mnau2.save/
 
     init_run     :     72.49s CPU     74.49s WALL (       1 calls)
     electrons    :   4060.46s CPU   4146.45s WALL (       1 calls)

     Called by init_run:
     wfcinit      :     68.71s CPU     70.31s WALL (       1 calls)
     potinit      :      1.67s CPU      1.76s WALL (       1 calls)
     hinit0       :      1.12s CPU      1.36s WALL (       1 calls)

     Called by electrons:
     c_bands      :   3608.97s CPU   3674.91s WALL (      28 calls)
     sum_band     :    404.70s CPU    416.18s WALL (      28 calls)
     v_of_rho     :      3.09s CPU      3.11s WALL (      29 calls)
     newd         :     13.85s CPU     14.05s WALL (      29 calls)
     PAW_pot      :     30.31s CPU     30.54s WALL (      29 calls)
     mix_rho      :      0.74s CPU      0.75s WALL (      28 calls)

     Called by c_bands:
     init_us_2    :      9.03s CPU      9.12s WALL (    5220 calls)
     cegterg      :   3482.08s CPU   3547.34s WALL (    2520 calls)

     Called by sum_band:
     sum_band:bec :      5.63s CPU      5.66s WALL (    2520 calls)
     addusdens    :     17.52s CPU     17.59s WALL (      28 calls)

     Called by *egterg:
     h_psi        :   1372.88s CPU   1408.68s WALL (    8606 calls)
     s_psi        :    258.62s CPU    258.93s WALL (    8696 calls)
     g_psi        :      2.72s CPU      2.76s WALL (    5996 calls)
     cdiaghg      :   1157.16s CPU   1184.82s WALL (    8516 calls)

     Called by h_psi:
     h_psi:pot    :   1233.40s CPU   1268.29s WALL (    8606 calls)
     h_psi:calbec :    323.88s CPU    337.01s WALL (    8606 calls)
     vloc_psi     :    658.10s CPU    679.57s WALL (    8606 calls)
     add_vuspsi   :    251.23s CPU    251.57s WALL (    8606 calls)
     vhpsi        :    136.42s CPU    137.28s WALL (    8606 calls)

     General routines
     calbec       :    596.71s CPU    617.35s WALL (   22342 calls)
     fft          :      2.19s CPU      2.20s WALL (     721 calls)
     ffts         :      0.09s CPU      0.09s WALL (     114 calls)
     fftw         :    773.25s CPU    798.16s WALL ( 2335332 calls)
     interpolate  :      0.23s CPU      0.23s WALL (      58 calls)
     davcio       :      0.01s CPU      4.08s WALL (      90 calls)
 
     Parallel routines
     fft_scatt_xy :     58.54s CPU     60.28s WALL ( 2336167 calls)
     fft_scatt_yz :    446.36s CPU    460.79s WALL ( 2336167 calls)

     Hubbard U routines
     new_ns       :     23.40s CPU     23.53s WALL (      28 calls)
     vhpsi        :    136.42s CPU    137.28s WALL (    8606 calls)
 
     PWSCF        :     1h 9m CPU        9h 1m WALL

      11h
 
   This run was terminated on:  13:59:11   8Apr2019            

=------------------------------------------------------------------------------=
   JOB DONE.
=------------------------------------------------------------------------------=
