
     Program PWSCF v.6.3MaX starts on  8Apr2019 at 13:59:14 

     This program is part of the open-source Quantum ESPRESSO suite
     for quantum simulation of materials; please cite
         "P. Giannozzi et al., J. Phys.:Condens. Matter 21 395502 (2009);
         "P. Giannozzi et al., J. Phys.:Condens. Matter 29 465901 (2017);
          URL http://www.quantum-espresso.org", 
     in publications or presentations arising from this work. More details at
     http://www.quantum-espresso.org/quote

     Parallel version (MPI), running on    32 processors

     MPI processes distributed on     1 nodes
     R & G space division:  proc/nbgrp/npool/nimage =      32
     Waiting for input...
     Reading input from standard input

     Current dimensions of program PWSCF are:
     Max number of different atomic species (ntypx) = 10
     Max number of k-points (npk) =  40000
     Max angular momentum in pseudopotentials (lmaxx) =  3
               file Mn.pbe-spn-kjpaw_psl.0.3.1.UPF: wavefunction(s)  3P 3D renormalized
               file Mn.pbe-spn-kjpaw_psl.0.3.1.UPF: wavefunction(s)  3P 3D renormalized
               file Au.pbe-dn-kjpaw_psl.0.1.UPF: wavefunction(s)  6S 6P 5D renormalized

     Subspace diagonalization in iterative solution of the eigenvalue problem:
     one sub-group per band group will be used
     scalapack distributed-memory algorithm (size of sub-group:  4*  4 procs)

 
     Parallelization info
     --------------------
     sticks:   dense  smooth     PW     G-vecs:    dense   smooth      PW
     Min          41      18      5                11487     3460     563
     Max          42      19      6                11527     3505     606
     Sum        1313     593    177               368373   111379   18691
 


     bravais-lattice index     =            0
     lattice parameter (alat)  =       6.4153  a.u.
     unit-cell volume          =    2724.7774 (a.u.)^3
     number of atoms/cell      =           24
     number of atomic types    =            3
     number of electrons       =       296.00
     number of Kohn-Sham states=          178
     kinetic-energy cutoff     =      45.0000  Ry
     charge density cutoff     =     400.0000  Ry
     convergence threshold     =      1.0E-06
     mixing beta               =       0.1000
     number of iterations used =            8  plain     mixing
     Exchange-correlation      = SLA PW PBX PBC ( 1  4  3  4 0 0)

     celldm(1)=   6.415315  celldm(2)=   0.000000  celldm(3)=   0.000000
     celldm(4)=   0.000000  celldm(5)=   0.000000  celldm(6)=   0.000000

     crystal axes: (cart. coord. in units of alat)
               a(1) = (   1.000000   0.000000   0.000000 )  
               a(2) = (   0.000000   1.000000   0.000000 )  
               a(3) = (   0.000000   0.000000  10.319937 )  

     reciprocal axes: (cart. coord. in units 2 pi/alat)
               b(1) = (  1.000000  0.000000  0.000000 )  
               b(2) = (  0.000000  1.000000  0.000000 )  
               b(3) = (  0.000000  0.000000  0.096900 )  


     PseudoPot. # 1 for Mn read from file:
     ./pseudo/Mn.pbe-spn-kjpaw_psl.0.3.1.UPF
     MD5 check sum: 7b43a3fb0e93e198b8dd8488d8cf503e
     Pseudo is Projector augmented-wave + core cor, Zval = 15.0
     Generated using "atomic" code by A. Dal Corso v.5.0.99 svn rev. 10869
     Shape of augmentation charge: PSQ
     Using radial grid of 1187 points,  6 beta functions with: 
                l(1) =   0
                l(2) =   0
                l(3) =   1
                l(4) =   1
                l(5) =   2
                l(6) =   2
     Q(r) pseudized with 0 coefficients 


     PseudoPot. # 2 for Mn read from file:
     ./pseudo/Mn.pbe-spn-kjpaw_psl.0.3.1.UPF
     MD5 check sum: 7b43a3fb0e93e198b8dd8488d8cf503e
     Pseudo is Projector augmented-wave + core cor, Zval = 15.0
     Generated using "atomic" code by A. Dal Corso v.5.0.99 svn rev. 10869
     Shape of augmentation charge: PSQ
     Using radial grid of 1187 points,  6 beta functions with: 
                l(1) =   0
                l(2) =   0
                l(3) =   1
                l(4) =   1
                l(5) =   2
                l(6) =   2
     Q(r) pseudized with 0 coefficients 


     PseudoPot. # 3 for Au read from file:
     ./pseudo/Au.pbe-dn-kjpaw_psl.0.1.UPF
     MD5 check sum: be11e2e8e535ebe2b3ccfb4f88f554cb
     Pseudo is Projector augmented-wave + core cor, Zval = 11.0
     Generated using "atomic" code by A. Dal Corso v.5.0.2 svn rev. 9415
     Shape of augmentation charge: PSQ
     Using radial grid of 1279 points,  6 beta functions with: 
                l(1) =   0
                l(2) =   0
                l(3) =   1
                l(4) =   1
                l(5) =   2
                l(6) =   2
     Q(r) pseudized with 0 coefficients 


     atomic species   valence    mass     pseudopotential
        Mn1           15.00    54.93800     Mn( 1.00)
        Mn2           15.00    54.93800     Mn( 1.00)
        Au            11.00   196.96600     Au( 1.00)

     Starting magnetic structure 
     atomic species   magnetization
        Mn1          0.800
        Mn2         -0.800
        Au           0.000


     Full LDA+U calculation (l_max = 2) with parameters (eV):
     U(  1) =   3.1200   J(  1) =   0.7000   B(  1) =   0.0803
     U(  2) =   3.1200   J(  2) =   0.7000   B(  2) =   0.0803



     16 Sym. Ops., with inversion, found ( 8 have fractional translation)



   Cartesian axes

     site n.     atom                  positions (alat units)
         1           Mn1 tau(   1) = (   0.0000000   0.0000000   0.0000000  )
         2           Mn1 tau(   2) = (   0.5000000   0.5000000   1.2899921  )
         3           Mn1 tau(   3) = (   0.0000000   0.0000000   2.5799843  )
         4           Mn2 tau(   4) = (   0.5000000   0.5000000   3.8699764  )
         5           Mn1 tau(   5) = (   0.0000000   0.0000000   5.1599686  )
         6           Mn2 tau(   6) = (   0.5000000   0.5000000   6.4499607  )
         7           Mn1 tau(   7) = (   0.0000000   0.0000000   7.7399528  )
         8           Mn2 tau(   8) = (   0.5000000   0.5000000   9.0299450  )
         9           Au  tau(   9) = (   0.5000000   0.5000000   0.4127975  )
        10           Au  tau(  10) = (   0.0000000   0.0000000   0.8771947  )
        11           Au  tau(  11) = (   0.0000000   0.0000000   1.7027896  )
        12           Au  tau(  12) = (   0.5000000   0.5000000   2.1671868  )
        13           Au  tau(  13) = (   0.5000000   0.5000000   2.9927818  )
        14           Au  tau(  14) = (   0.0000000   0.0000000   3.4571789  )
        15           Au  tau(  15) = (   0.0000000   0.0000000   4.2827739  )
        16           Au  tau(  16) = (   0.5000000   0.5000000   4.7471711  )
        17           Au  tau(  17) = (   0.5000000   0.5000000   5.5727660  )
        18           Au  tau(  18) = (   0.0000000   0.0000000   6.0371632  )
        19           Au  tau(  19) = (   0.0000000   0.0000000   6.8627582  )
        20           Au  tau(  20) = (   0.5000000   0.5000000   7.3271553  )
        21           Au  tau(  21) = (   0.5000000   0.5000000   8.1527503  )
        22           Au  tau(  22) = (   0.0000000   0.0000000   8.6171475  )
        23           Au  tau(  23) = (   0.0000000   0.0000000   9.4427424  )
        24           Au  tau(  24) = (   0.5000000   0.5000000   9.9071396  )

     number of k points=    45 (tetrahedron method)
                       cart. coord. in units 2pi/alat
        k(    1) = (   0.0000000   0.0000000   0.0000000), wk =   0.0039062
        k(    2) = (   0.0000000   0.0000000   0.0242250), wk =   0.0078125
        k(    3) = (   0.0000000   0.0000000  -0.0484499), wk =   0.0039062
        k(    4) = (   0.0000000   0.1250000   0.0000000), wk =   0.0156250
        k(    5) = (   0.0000000   0.1250000   0.0242250), wk =   0.0312500
        k(    6) = (   0.0000000   0.1250000  -0.0484499), wk =   0.0156250
        k(    7) = (   0.0000000   0.2500000   0.0000000), wk =   0.0156250
        k(    8) = (   0.0000000   0.2500000   0.0242250), wk =   0.0312500
        k(    9) = (   0.0000000   0.2500000  -0.0484499), wk =   0.0156250
        k(   10) = (   0.0000000   0.3750000   0.0000000), wk =   0.0156250
        k(   11) = (   0.0000000   0.3750000   0.0242250), wk =   0.0312500
        k(   12) = (   0.0000000   0.3750000  -0.0484499), wk =   0.0156250
        k(   13) = (   0.0000000  -0.5000000   0.0000000), wk =   0.0078125
        k(   14) = (   0.0000000  -0.5000000   0.0242250), wk =   0.0156250
        k(   15) = (   0.0000000  -0.5000000  -0.0484499), wk =   0.0078125
        k(   16) = (   0.1250000   0.1250000   0.0000000), wk =   0.0156250
        k(   17) = (   0.1250000   0.1250000   0.0242250), wk =   0.0312500
        k(   18) = (   0.1250000   0.1250000  -0.0484499), wk =   0.0156250
        k(   19) = (   0.1250000   0.2500000   0.0000000), wk =   0.0312500
        k(   20) = (   0.1250000   0.2500000   0.0242250), wk =   0.0625000
        k(   21) = (   0.1250000   0.2500000  -0.0484499), wk =   0.0312500
        k(   22) = (   0.1250000   0.3750000   0.0000000), wk =   0.0312500
        k(   23) = (   0.1250000   0.3750000   0.0242250), wk =   0.0625000
        k(   24) = (   0.1250000   0.3750000  -0.0484499), wk =   0.0312500
        k(   25) = (   0.1250000  -0.5000000   0.0000000), wk =   0.0156250
        k(   26) = (   0.1250000  -0.5000000   0.0242250), wk =   0.0312500
        k(   27) = (   0.1250000  -0.5000000  -0.0484499), wk =   0.0156250
        k(   28) = (   0.2500000   0.2500000   0.0000000), wk =   0.0156250
        k(   29) = (   0.2500000   0.2500000   0.0242250), wk =   0.0312500
        k(   30) = (   0.2500000   0.2500000  -0.0484499), wk =   0.0156250
        k(   31) = (   0.2500000   0.3750000   0.0000000), wk =   0.0312500
        k(   32) = (   0.2500000   0.3750000   0.0242250), wk =   0.0625000
        k(   33) = (   0.2500000   0.3750000  -0.0484499), wk =   0.0312500
        k(   34) = (   0.2500000  -0.5000000   0.0000000), wk =   0.0156250
        k(   35) = (   0.2500000  -0.5000000   0.0242250), wk =   0.0312500
        k(   36) = (   0.2500000  -0.5000000  -0.0484499), wk =   0.0156250
        k(   37) = (   0.3750000   0.3750000   0.0000000), wk =   0.0156250
        k(   38) = (   0.3750000   0.3750000   0.0242250), wk =   0.0312500
        k(   39) = (   0.3750000   0.3750000  -0.0484499), wk =   0.0156250
        k(   40) = (   0.3750000  -0.5000000   0.0000000), wk =   0.0156250
        k(   41) = (   0.3750000  -0.5000000   0.0242250), wk =   0.0312500
        k(   42) = (   0.3750000  -0.5000000  -0.0484499), wk =   0.0156250
        k(   43) = (  -0.5000000  -0.5000000   0.0000000), wk =   0.0039062
        k(   44) = (  -0.5000000  -0.5000000   0.0242250), wk =   0.0078125
        k(   45) = (  -0.5000000  -0.5000000  -0.0484499), wk =   0.0039062

     Dense  grid:   368373 G-vectors     FFT dimensions: (  45,  45, 432)

     Smooth grid:   111379 G-vectors     FFT dimensions: (  27,  27, 288)

     Estimated max dynamical RAM per process >     186.81 MB

     Estimated total dynamical RAM >       5.84 GB
     Generating pointlists ...
     new r_m :   0.3377 (alat units)  2.1668 (a.u.) for type    1
     new r_m :   0.3377 (alat units)  2.1668 (a.u.) for type    2
     new r_m :   0.3377 (alat units)  2.1668 (a.u.) for type    3

     Check: negative/imaginary core charge=   -0.000006    0.000000

     Initial potential from superposition of free atoms

     starting charge  295.99426, renormalised to  296.00000
     Number of +U iterations with fixed ns =  0
     Starting occupations:
 --- enter write_ns ---
 LDA+U parameters:
U(  1) =   3.1200   J(  1) =   0.7000   B(  1) =   0.0803
U(  2) =   3.1200   J(  2) =   0.7000   B(  2) =   0.0803
atom    1   Tr[ns(na)] (up, down, total) =   5.00000  0.00000  5.00000
   spin  1
    eigenvalues: 
  1.000  1.000  1.000  1.000  1.000
    eigenvectors:
  1.000  0.000  0.000  0.000  0.000
  0.000  1.000  0.000  0.000  0.000
  0.000  0.000  1.000  0.000  0.000
  0.000  0.000  0.000  1.000  0.000
  0.000  0.000  0.000  0.000  1.000
    occupations:
  1.000  0.000  0.000  0.000  0.000
  0.000  1.000  0.000  0.000  0.000
  0.000  0.000  1.000  0.000  0.000
  0.000  0.000  0.000  1.000  0.000
  0.000  0.000  0.000  0.000  1.000
   spin  2
    eigenvalues: 
  0.000  0.000  0.000  0.000  0.000
    eigenvectors:
  1.000  0.000  0.000  0.000  0.000
  0.000  1.000  0.000  0.000  0.000
  0.000  0.000  1.000  0.000  0.000
  0.000  0.000  0.000  1.000  0.000
  0.000  0.000  0.000  0.000  1.000
    occupations:
  0.000  0.000  0.000  0.000  0.000
  0.000  0.000  0.000  0.000  0.000
  0.000  0.000  0.000  0.000  0.000
  0.000  0.000  0.000  0.000  0.000
  0.000  0.000  0.000  0.000  0.000
atomic mag. moment =     5.000000
atom    2   Tr[ns(na)] (up, down, total) =   5.00000  0.00000  5.00000
   spin  1
    eigenvalues: 
  1.000  1.000  1.000  1.000  1.000
    eigenvectors:
  1.000  0.000  0.000  0.000  0.000
  0.000  1.000  0.000  0.000  0.000
  0.000  0.000  1.000  0.000  0.000
  0.000  0.000  0.000  1.000  0.000
  0.000  0.000  0.000  0.000  1.000
    occupations:
  1.000  0.000  0.000  0.000  0.000
  0.000  1.000  0.000  0.000  0.000
  0.000  0.000  1.000  0.000  0.000
  0.000  0.000  0.000  1.000  0.000
  0.000  0.000  0.000  0.000  1.000
   spin  2
    eigenvalues: 
  0.000  0.000  0.000  0.000  0.000
    eigenvectors:
  1.000  0.000  0.000  0.000  0.000
  0.000  1.000  0.000  0.000  0.000
  0.000  0.000  1.000  0.000  0.000
  0.000  0.000  0.000  1.000  0.000
  0.000  0.000  0.000  0.000  1.000
    occupations:
  0.000  0.000  0.000  0.000  0.000
  0.000  0.000  0.000  0.000  0.000
  0.000  0.000  0.000  0.000  0.000
  0.000  0.000  0.000  0.000  0.000
  0.000  0.000  0.000  0.000  0.000
atomic mag. moment =     5.000000
atom    3   Tr[ns(na)] (up, down, total) =   5.00000  0.00000  5.00000
   spin  1
    eigenvalues: 
  1.000  1.000  1.000  1.000  1.000
    eigenvectors:
  1.000  0.000  0.000  0.000  0.000
  0.000  1.000  0.000  0.000  0.000
  0.000  0.000  1.000  0.000  0.000
  0.000  0.000  0.000  1.000  0.000
  0.000  0.000  0.000  0.000  1.000
    occupations:
  1.000  0.000  0.000  0.000  0.000
  0.000  1.000  0.000  0.000  0.000
  0.000  0.000  1.000  0.000  0.000
  0.000  0.000  0.000  1.000  0.000
  0.000  0.000  0.000  0.000  1.000
   spin  2
    eigenvalues: 
  0.000  0.000  0.000  0.000  0.000
    eigenvectors:
  1.000  0.000  0.000  0.000  0.000
  0.000  1.000  0.000  0.000  0.000
  0.000  0.000  1.000  0.000  0.000
  0.000  0.000  0.000  1.000  0.000
  0.000  0.000  0.000  0.000  1.000
    occupations:
  0.000  0.000  0.000  0.000  0.000
  0.000  0.000  0.000  0.000  0.000
  0.000  0.000  0.000  0.000  0.000
  0.000  0.000  0.000  0.000  0.000
  0.000  0.000  0.000  0.000  0.000
atomic mag. moment =     5.000000
atom    4   Tr[ns(na)] (up, down, total) =   0.00000  5.00000  5.00000
   spin  1
    eigenvalues: 
  0.000  0.000  0.000  0.000  0.000
    eigenvectors:
  1.000  0.000  0.000  0.000  0.000
  0.000  1.000  0.000  0.000  0.000
  0.000  0.000  1.000  0.000  0.000
  0.000  0.000  0.000  1.000  0.000
  0.000  0.000  0.000  0.000  1.000
    occupations:
  0.000  0.000  0.000  0.000  0.000
  0.000  0.000  0.000  0.000  0.000
  0.000  0.000  0.000  0.000  0.000
  0.000  0.000  0.000  0.000  0.000
  0.000  0.000  0.000  0.000  0.000
   spin  2
    eigenvalues: 
  1.000  1.000  1.000  1.000  1.000
    eigenvectors:
  1.000  0.000  0.000  0.000  0.000
  0.000  1.000  0.000  0.000  0.000
  0.000  0.000  1.000  0.000  0.000
  0.000  0.000  0.000  1.000  0.000
  0.000  0.000  0.000  0.000  1.000
    occupations:
  1.000  0.000  0.000  0.000  0.000
  0.000  1.000  0.000  0.000  0.000
  0.000  0.000  1.000  0.000  0.000
  0.000  0.000  0.000  1.000  0.000
  0.000  0.000  0.000  0.000  1.000
atomic mag. moment =    -5.000000
atom    5   Tr[ns(na)] (up, down, total) =   5.00000  0.00000  5.00000
   spin  1
    eigenvalues: 
  1.000  1.000  1.000  1.000  1.000
    eigenvectors:
  1.000  0.000  0.000  0.000  0.000
  0.000  1.000  0.000  0.000  0.000
  0.000  0.000  1.000  0.000  0.000
  0.000  0.000  0.000  1.000  0.000
  0.000  0.000  0.000  0.000  1.000
    occupations:
  1.000  0.000  0.000  0.000  0.000
  0.000  1.000  0.000  0.000  0.000
  0.000  0.000  1.000  0.000  0.000
  0.000  0.000  0.000  1.000  0.000
  0.000  0.000  0.000  0.000  1.000
   spin  2
    eigenvalues: 
  0.000  0.000  0.000  0.000  0.000
    eigenvectors:
  1.000  0.000  0.000  0.000  0.000
  0.000  1.000  0.000  0.000  0.000
  0.000  0.000  1.000  0.000  0.000
  0.000  0.000  0.000  1.000  0.000
  0.000  0.000  0.000  0.000  1.000
    occupations:
  0.000  0.000  0.000  0.000  0.000
  0.000  0.000  0.000  0.000  0.000
  0.000  0.000  0.000  0.000  0.000
  0.000  0.000  0.000  0.000  0.000
  0.000  0.000  0.000  0.000  0.000
atomic mag. moment =     5.000000
atom    6   Tr[ns(na)] (up, down, total) =   0.00000  5.00000  5.00000
   spin  1
    eigenvalues: 
  0.000  0.000  0.000  0.000  0.000
    eigenvectors:
  1.000  0.000  0.000  0.000  0.000
  0.000  1.000  0.000  0.000  0.000
  0.000  0.000  1.000  0.000  0.000
  0.000  0.000  0.000  1.000  0.000
  0.000  0.000  0.000  0.000  1.000
    occupations:
  0.000  0.000  0.000  0.000  0.000
  0.000  0.000  0.000  0.000  0.000
  0.000  0.000  0.000  0.000  0.000
  0.000  0.000  0.000  0.000  0.000
  0.000  0.000  0.000  0.000  0.000
   spin  2
    eigenvalues: 
  1.000  1.000  1.000  1.000  1.000
    eigenvectors:
  1.000  0.000  0.000  0.000  0.000
  0.000  1.000  0.000  0.000  0.000
  0.000  0.000  1.000  0.000  0.000
  0.000  0.000  0.000  1.000  0.000
  0.000  0.000  0.000  0.000  1.000
    occupations:
  1.000  0.000  0.000  0.000  0.000
  0.000  1.000  0.000  0.000  0.000
  0.000  0.000  1.000  0.000  0.000
  0.000  0.000  0.000  1.000  0.000
  0.000  0.000  0.000  0.000  1.000
atomic mag. moment =    -5.000000
atom    7   Tr[ns(na)] (up, down, total) =   5.00000  0.00000  5.00000
   spin  1
    eigenvalues: 
  1.000  1.000  1.000  1.000  1.000
    eigenvectors:
  1.000  0.000  0.000  0.000  0.000
  0.000  1.000  0.000  0.000  0.000
  0.000  0.000  1.000  0.000  0.000
  0.000  0.000  0.000  1.000  0.000
  0.000  0.000  0.000  0.000  1.000
    occupations:
  1.000  0.000  0.000  0.000  0.000
  0.000  1.000  0.000  0.000  0.000
  0.000  0.000  1.000  0.000  0.000
  0.000  0.000  0.000  1.000  0.000
  0.000  0.000  0.000  0.000  1.000
   spin  2
    eigenvalues: 
  0.000  0.000  0.000  0.000  0.000
    eigenvectors:
  1.000  0.000  0.000  0.000  0.000
  0.000  1.000  0.000  0.000  0.000
  0.000  0.000  1.000  0.000  0.000
  0.000  0.000  0.000  1.000  0.000
  0.000  0.000  0.000  0.000  1.000
    occupations:
  0.000  0.000  0.000  0.000  0.000
  0.000  0.000  0.000  0.000  0.000
  0.000  0.000  0.000  0.000  0.000
  0.000  0.000  0.000  0.000  0.000
  0.000  0.000  0.000  0.000  0.000
atomic mag. moment =     5.000000
atom    8   Tr[ns(na)] (up, down, total) =   0.00000  5.00000  5.00000
   spin  1
    eigenvalues: 
  0.000  0.000  0.000  0.000  0.000
    eigenvectors:
  1.000  0.000  0.000  0.000  0.000
  0.000  1.000  0.000  0.000  0.000
  0.000  0.000  1.000  0.000  0.000
  0.000  0.000  0.000  1.000  0.000
  0.000  0.000  0.000  0.000  1.000
    occupations:
  0.000  0.000  0.000  0.000  0.000
  0.000  0.000  0.000  0.000  0.000
  0.000  0.000  0.000  0.000  0.000
  0.000  0.000  0.000  0.000  0.000
  0.000  0.000  0.000  0.000  0.000
   spin  2
    eigenvalues: 
  1.000  1.000  1.000  1.000  1.000
    eigenvectors:
  1.000  0.000  0.000  0.000  0.000
  0.000  1.000  0.000  0.000  0.000
  0.000  0.000  1.000  0.000  0.000
  0.000  0.000  0.000  1.000  0.000
  0.000  0.000  0.000  0.000  1.000
    occupations:
  1.000  0.000  0.000  0.000  0.000
  0.000  1.000  0.000  0.000  0.000
  0.000  0.000  1.000  0.000  0.000
  0.000  0.000  0.000  1.000  0.000
  0.000  0.000  0.000  0.000  1.000
atomic mag. moment =    -5.000000
N of occupied +U levels =   40.000000
 --- exit write_ns ---
 Atomic wfc used for LDA+U Projector are NOT orthogonalized
     Starting wfcs are  224 randomized atomic wfcs
     Checking if some PAW data can be deallocated... 

     total cpu time spent up to now is       78.8 secs

     Self-consistent Calculation

     iteration #  1     ecut=    45.00 Ry     beta= 0.10
     Davidson diagonalization with overlap
     ethr =  1.00E-02,  avg # of iterations =  4.1
 --- enter write_ns ---
 LDA+U parameters:
U(  1) =   3.1200   J(  1) =   0.7000   B(  1) =   0.0803
U(  2) =   3.1200   J(  2) =   0.7000   B(  2) =   0.0803
atom    1   Tr[ns(na)] (up, down, total) =   5.01742  0.40573  5.42315
   spin  1
    eigenvalues: 
  1.003  1.003  1.003  1.004  1.004
    eigenvectors:
  0.000  0.000  0.000  1.000  0.000
  0.000  0.466  0.534  0.000  0.000
  0.000  0.534  0.466  0.000  0.000
  0.000  0.000  0.000  0.000  1.000
  1.000  0.000  0.000  0.000  0.000
    occupations:
  1.004 -0.000 -0.000  0.000  0.000
 -0.000  1.003 -0.000  0.000  0.000
 -0.000 -0.000  1.003  0.000  0.000
  0.000  0.000  0.000  1.004 -0.000
  0.000  0.000  0.000 -0.000  1.003
   spin  2
    eigenvalues: 
  0.053  0.072  0.080  0.080  0.120
    eigenvectors:
  0.000  1.000  0.000  0.000  0.000
  0.000  0.000  0.334  0.666  0.000
  0.000  0.000  0.666  0.334  0.000
  1.000  0.000  0.000  0.000  0.000
  0.000  0.000  0.000  0.000  1.000
    occupations:
  0.072 -0.000 -0.000  0.000  0.000
 -0.000  0.080 -0.000  0.000  0.000
 -0.000 -0.000  0.080  0.000  0.000
  0.000  0.000  0.000  0.053 -0.000
  0.000  0.000  0.000 -0.000  0.120
atomic mag. moment =     4.611687
atom    2   Tr[ns(na)] (up, down, total) =   5.01761  0.40175  5.41936
   spin  1
    eigenvalues: 
  1.003  1.003  1.003  1.004  1.004
    eigenvectors:
  0.000  0.000  0.000  1.000  0.000
  0.000  0.303  0.697  0.000  0.000
  0.000  0.697  0.303  0.000  0.000
  0.000  0.000  0.000  0.000  1.000
  1.000  0.000  0.000  0.000  0.000
    occupations:
  1.004 -0.000 -0.000  0.000  0.000
 -0.000  1.003 -0.000  0.000  0.000
 -0.000 -0.000  1.003  0.000  0.000
  0.000  0.000  0.000  1.004 -0.000
  0.000  0.000  0.000 -0.000  1.003
   spin  2
    eigenvalues: 
  0.053  0.074  0.081  0.081  0.113
    eigenvectors:
  0.000  1.000  0.000  0.000  0.000
  0.000  0.000  0.393  0.607  0.000
  0.000  0.000  0.607  0.393  0.000
  1.000  0.000  0.000  0.000  0.000
  0.000  0.000  0.000  0.000  1.000
    occupations:
  0.074 -0.000 -0.000  0.000  0.000
 -0.000  0.081 -0.000  0.000  0.000
 -0.000 -0.000  0.081  0.000  0.000
  0.000  0.000  0.000  0.053 -0.000
  0.000  0.000  0.000 -0.000  0.113
atomic mag. moment =     4.615861
atom    3   Tr[ns(na)] (up, down, total) =   5.01742  0.40573  5.42315
   spin  1
    eigenvalues: 
  1.003  1.003  1.003  1.004  1.004
    eigenvectors:
  0.000  0.000  0.000  1.000  0.000
  0.000  0.264  0.736  0.000  0.000
  0.000  0.736  0.264  0.000  0.000
  0.000  0.000  0.000  0.000  1.000
  1.000  0.000  0.000  0.000  0.000
    occupations:
  1.004 -0.000 -0.000  0.000  0.000
 -0.000  1.003 -0.000  0.000  0.000
 -0.000 -0.000  1.003  0.000  0.000
  0.000  0.000  0.000  1.004 -0.000
  0.000  0.000  0.000 -0.000  1.003
   spin  2
    eigenvalues: 
  0.053  0.072  0.080  0.080  0.120
    eigenvectors:
  0.000  1.000  0.000  0.000  0.000
  0.000  0.000  0.355  0.645  0.000
  0.000  0.000  0.645  0.355  0.000
  1.000  0.000  0.000  0.000  0.000
  0.000  0.000  0.000  0.000  1.000
    occupations:
  0.072 -0.000 -0.000  0.000  0.000
 -0.000  0.080 -0.000  0.000  0.000
 -0.000 -0.000  0.080  0.000  0.000
  0.000  0.000  0.000  0.053 -0.000
  0.000  0.000  0.000 -0.000  0.120
atomic mag. moment =     4.611687
atom    4   Tr[ns(na)] (up, down, total) =   0.41071  5.01728  5.42799
   spin  1
    eigenvalues: 
  0.053  0.073  0.080  0.080  0.124
    eigenvectors:
  0.000  1.000  0.000  0.000  0.000
  0.000  0.000  0.330  0.670  0.000
  0.000  0.000  0.670  0.330  0.000
  1.000  0.000  0.000  0.000  0.000
  0.000  0.000  0.000  0.000  1.000
    occupations:
  0.073 -0.000 -0.000  0.000  0.000
 -0.000  0.080 -0.000  0.000  0.000
 -0.000 -0.000  0.080  0.000  0.000
  0.000  0.000  0.000  0.053 -0.000
  0.000  0.000  0.000 -0.000  0.124
   spin  2
    eigenvalues: 
  1.003  1.003  1.003  1.004  1.004
    eigenvectors:
  0.000  0.000  0.000  1.000  0.000
  0.000  0.403  0.597  0.000  0.000
  0.000  0.597  0.403  0.000  0.000
  0.000  0.000  0.000  0.000  1.000
  1.000  0.000  0.000  0.000  0.000
    occupations:
  1.004 -0.000 -0.000  0.000  0.000
 -0.000  1.003 -0.000  0.000  0.000
 -0.000 -0.000  1.003  0.000  0.000
  0.000  0.000  0.000  1.004 -0.000
  0.000  0.000  0.000 -0.000  1.003
atomic mag. moment =    -4.606574
atom    5   Tr[ns(na)] (up, down, total) =   5.01731  0.41069  5.42800
   spin  1
    eigenvalues: 
  1.003  1.003  1.003  1.004  1.004
    eigenvectors:
  0.000  0.000  0.000  1.000  0.000
  0.000  0.288  0.712  0.000  0.000
  0.000  0.712  0.288  0.000  0.000
  0.000  0.000  0.000  0.000  1.000
  1.000  0.000  0.000  0.000  0.000
    occupations:
  1.004 -0.000 -0.000  0.000  0.000
 -0.000  1.003 -0.000  0.000  0.000
 -0.000 -0.000  1.003  0.000  0.000
  0.000  0.000  0.000  1.004 -0.000
  0.000  0.000  0.000 -0.000  1.003
   spin  2
    eigenvalues: 
  0.053  0.073  0.080  0.080  0.125
    eigenvectors:
  0.000  1.000  0.000  0.000  0.000
  0.000  0.000  0.267  0.733  0.000
  0.000  0.000  0.733  0.267  0.000
  1.000  0.000  0.000  0.000  0.000
  0.000  0.000  0.000  0.000  1.000
    occupations:
  0.073 -0.000 -0.000  0.000  0.000
 -0.000  0.080 -0.000  0.000  0.000
 -0.000 -0.000  0.080  0.000  0.000
  0.000  0.000  0.000  0.053 -0.000
  0.000  0.000  0.000 -0.000  0.125
atomic mag. moment =     4.606625
atom    6   Tr[ns(na)] (up, down, total) =   0.40930  5.01749  5.42680
   spin  1
    eigenvalues: 
  0.053  0.072  0.080  0.080  0.125
    eigenvectors:
  0.000  1.000  0.000  0.000  0.000
  0.000  0.000  0.403  0.597  0.000
  0.000  0.000  0.597  0.403  0.000
  1.000  0.000  0.000  0.000  0.000
  0.000  0.000  0.000  0.000  1.000
    occupations:
  0.072 -0.000 -0.000  0.000  0.000
 -0.000  0.080 -0.000  0.000  0.000
 -0.000 -0.000  0.080  0.000  0.000
  0.000  0.000  0.000  0.053 -0.000
  0.000  0.000  0.000 -0.000  0.125
   spin  2
    eigenvalues: 
  1.003  1.003  1.003  1.004  1.004
    eigenvectors:
  0.000  0.000  0.000  1.000  0.000
  0.000  0.367  0.633  0.000  0.000
  0.000  0.633  0.367  0.000  0.000
  0.000  0.000  0.000  0.000  1.000
  1.000  0.000  0.000  0.000  0.000
    occupations:
  1.004 -0.000 -0.000  0.000  0.000
 -0.000  1.003 -0.000  0.000  0.000
 -0.000 -0.000  1.003  0.000  0.000
  0.000  0.000  0.000  1.004 -0.000
  0.000  0.000  0.000 -0.000  1.003
atomic mag. moment =    -4.608191
atom    7   Tr[ns(na)] (up, down, total) =   5.01731  0.41069  5.42800
   spin  1
    eigenvalues: 
  1.003  1.003  1.003  1.004  1.004
    eigenvectors:
  0.000  0.000  0.000  1.000  0.000
  0.000  0.278  0.722  0.000  0.000
  0.000  0.722  0.278  0.000  0.000
  0.000  0.000  0.000  0.000  1.000
  1.000  0.000  0.000  0.000  0.000
    occupations:
  1.004 -0.000 -0.000  0.000  0.000
 -0.000  1.003 -0.000  0.000  0.000
 -0.000 -0.000  1.003  0.000  0.000
  0.000  0.000  0.000  1.004 -0.000
  0.000  0.000  0.000 -0.000  1.003
   spin  2
    eigenvalues: 
  0.053  0.073  0.080  0.080  0.125
    eigenvectors:
  0.000  1.000  0.000  0.000  0.000
  0.000  0.000  0.347  0.653  0.000
  0.000  0.000  0.653  0.347  0.000
  1.000  0.000  0.000  0.000  0.000
  0.000  0.000  0.000  0.000  1.000
    occupations:
  0.073 -0.000 -0.000  0.000  0.000
 -0.000  0.080 -0.000  0.000  0.000
 -0.000 -0.000  0.080  0.000  0.000
  0.000  0.000  0.000  0.053 -0.000
  0.000  0.000  0.000 -0.000  0.125
atomic mag. moment =     4.606625
atom    8   Tr[ns(na)] (up, down, total) =   0.41071  5.01728  5.42799
   spin  1
    eigenvalues: 
  0.053  0.073  0.080  0.080  0.124
    eigenvectors:
  0.000  1.000  0.000  0.000  0.000
  0.000  0.000  0.354  0.646  0.000
  0.000  0.000  0.646  0.354  0.000
  1.000  0.000  0.000  0.000  0.000
  0.000  0.000  0.000  0.000  1.000
    occupations:
  0.073 -0.000 -0.000  0.000  0.000
 -0.000  0.080 -0.000  0.000  0.000
 -0.000 -0.000  0.080  0.000  0.000
  0.000  0.000  0.000  0.053 -0.000
  0.000  0.000  0.000 -0.000  0.124
   spin  2
    eigenvalues: 
  1.003  1.003  1.003  1.004  1.004
    eigenvectors:
  0.000  0.000  0.000  1.000  0.000
  0.000  0.292  0.708  0.000  0.000
  0.000  0.708  0.292  0.000  0.000
  0.000  0.000  0.000  0.000  1.000
  1.000  0.000  0.000  0.000  0.000
    occupations:
  1.004 -0.000 -0.000  0.000  0.000
 -0.000  1.003 -0.000  0.000  0.000
 -0.000 -0.000  1.003  0.000  0.000
  0.000  0.000  0.000  1.004 -0.000
  0.000  0.000  0.000 -0.000  1.003
atomic mag. moment =    -4.606574
N of occupied +U levels =   43.404462
 --- exit write_ns ---

     total cpu time spent up to now is      276.2 secs

     total energy              =  -14687.28329914 Ry
     Harris-Foulkes estimate   =  -14685.82462024 Ry
     estimated scf accuracy    <      11.56293526 Ry

     total magnetization       =    10.08 Bohr mag/cell
     absolute magnetization    =    41.62 Bohr mag/cell

     iteration #  2     ecut=    45.00 Ry     beta= 0.10
     Davidson diagonalization with overlap
     ethr =  3.91E-03,  avg # of iterations =  1.0

     total cpu time spent up to now is      396.0 secs

     total energy              =  -14689.23641379 Ry
     Harris-Foulkes estimate   =  -14687.35975019 Ry
     estimated scf accuracy    <       9.74743295 Ry

     total magnetization       =     9.87 Bohr mag/cell
     absolute magnetization    =    41.26 Bohr mag/cell

     iteration #  3     ecut=    45.00 Ry     beta= 0.10
     Davidson diagonalization with overlap
     ethr =  3.29E-03,  avg # of iterations =  4.7

     total cpu time spent up to now is      594.0 secs

     total energy              =  -14691.63581948 Ry
     Harris-Foulkes estimate   =  -14690.76185708 Ry
     estimated scf accuracy    <     156.89355782 Ry

     total magnetization       =    10.14 Bohr mag/cell
     absolute magnetization    =    40.47 Bohr mag/cell

     iteration #  4     ecut=    45.00 Ry     beta= 0.10
     Davidson diagonalization with overlap
     ethr =  3.29E-03,  avg # of iterations =  3.8

     total cpu time spent up to now is      773.4 secs

     total energy              =  -14695.05399105 Ry
     Harris-Foulkes estimate   =  -14694.20964720 Ry
     estimated scf accuracy    <       3.57535625 Ry

     total magnetization       =     9.24 Bohr mag/cell
     absolute magnetization    =    38.53 Bohr mag/cell

     iteration #  5     ecut=    45.00 Ry     beta= 0.10
     Davidson diagonalization with overlap
     ethr =  1.21E-03,  avg # of iterations =  4.8

     total cpu time spent up to now is      965.7 secs

     total energy              =  -14692.78317107 Ry
     Harris-Foulkes estimate   =  -14695.19636565 Ry
     estimated scf accuracy    <       6.93239415 Ry

     total magnetization       =     9.01 Bohr mag/cell
     absolute magnetization    =    37.67 Bohr mag/cell

     iteration #  6     ecut=    45.00 Ry     beta= 0.10
     Davidson diagonalization with overlap
     ethr =  1.21E-03,  avg # of iterations =  5.1

     total cpu time spent up to now is     1254.9 secs

     total energy              =  -14693.89895277 Ry
     Harris-Foulkes estimate   =  -14693.86083044 Ry
     estimated scf accuracy    <       1.57308644 Ry

     total magnetization       =     9.20 Bohr mag/cell
     absolute magnetization    =    38.23 Bohr mag/cell

     iteration #  7     ecut=    45.00 Ry     beta= 0.10
     Davidson diagonalization with overlap
     ethr =  5.31E-04,  avg # of iterations =  1.7

     total cpu time spent up to now is     1386.6 secs

     total energy              =  -14693.96906367 Ry
     Harris-Foulkes estimate   =  -14693.96591079 Ry
     estimated scf accuracy    <       0.18579981 Ry

     total magnetization       =     8.93 Bohr mag/cell
     absolute magnetization    =    38.02 Bohr mag/cell

     iteration #  8     ecut=    45.00 Ry     beta= 0.10
     Davidson diagonalization with overlap
     ethr =  6.28E-05,  avg # of iterations =  4.3

     total cpu time spent up to now is     1576.8 secs

     total energy              =  -14693.99312142 Ry
     Harris-Foulkes estimate   =  -14693.98598032 Ry
     estimated scf accuracy    <       0.05899005 Ry

     total magnetization       =     8.86 Bohr mag/cell
     absolute magnetization    =    37.59 Bohr mag/cell

     iteration #  9     ecut=    45.00 Ry     beta= 0.10
     Davidson diagonalization with overlap
     ethr =  1.99E-05,  avg # of iterations =  2.7

     total cpu time spent up to now is     1731.2 secs

     total energy              =  -14693.99220827 Ry
     Harris-Foulkes estimate   =  -14693.99916148 Ry
     estimated scf accuracy    <       0.09234632 Ry

     total magnetization       =     8.79 Bohr mag/cell
     absolute magnetization    =    37.35 Bohr mag/cell

     iteration # 10     ecut=    45.00 Ry     beta= 0.10
     Davidson diagonalization with overlap
     ethr =  1.99E-05,  avg # of iterations =  1.6

     total cpu time spent up to now is     1862.8 secs

     total energy              =  -14693.99160380 Ry
     Harris-Foulkes estimate   =  -14693.99508491 Ry
     estimated scf accuracy    <       0.03441486 Ry

     total magnetization       =     8.77 Bohr mag/cell
     absolute magnetization    =    37.35 Bohr mag/cell

     iteration # 11     ecut=    45.00 Ry     beta= 0.10
     Davidson diagonalization with overlap
     ethr =  1.16E-05,  avg # of iterations =  2.5

     total cpu time spent up to now is     2013.0 secs

     total energy              =  -14693.99516581 Ry
     Harris-Foulkes estimate   =  -14693.99382384 Ry
     estimated scf accuracy    <       0.00748739 Ry

     total magnetization       =     8.79 Bohr mag/cell
     absolute magnetization    =    37.46 Bohr mag/cell

     iteration # 12     ecut=    45.00 Ry     beta= 0.10
     Davidson diagonalization with overlap
     ethr =  2.53E-06,  avg # of iterations =  4.3

     total cpu time spent up to now is     2212.2 secs

     total energy              =  -14693.99635664 Ry
     Harris-Foulkes estimate   =  -14693.99626733 Ry
     estimated scf accuracy    <       0.00181128 Ry

     total magnetization       =     8.77 Bohr mag/cell
     absolute magnetization    =    37.39 Bohr mag/cell

     iteration # 13     ecut=    45.00 Ry     beta= 0.10
     Davidson diagonalization with overlap
     c_bands:  1 eigenvalues not converged
     ethr =  6.12E-07,  avg # of iterations =  3.6

     total cpu time spent up to now is     2386.0 secs

     total energy              =  -14693.99667758 Ry
     Harris-Foulkes estimate   =  -14693.99646868 Ry
     estimated scf accuracy    <       0.00188380 Ry

     total magnetization       =     8.77 Bohr mag/cell
     absolute magnetization    =    37.37 Bohr mag/cell

     iteration # 14     ecut=    45.00 Ry     beta= 0.10
     Davidson diagonalization with overlap
     ethr =  6.12E-07,  avg # of iterations =  1.4

     total cpu time spent up to now is     2513.8 secs

     total energy              =  -14693.99683935 Ry
     Harris-Foulkes estimate   =  -14693.99677660 Ry
     estimated scf accuracy    <       0.00038587 Ry

     total magnetization       =     8.76 Bohr mag/cell
     absolute magnetization    =    37.37 Bohr mag/cell

     iteration # 15     ecut=    45.00 Ry     beta= 0.10
     Davidson diagonalization with overlap
     ethr =  1.30E-07,  avg # of iterations =  2.3

     total cpu time spent up to now is     2657.4 secs

     total energy              =  -14693.99690152 Ry
     Harris-Foulkes estimate   =  -14693.99685362 Ry
     estimated scf accuracy    <       0.00013047 Ry

     total magnetization       =     8.76 Bohr mag/cell
     absolute magnetization    =    37.37 Bohr mag/cell

     iteration # 16     ecut=    45.00 Ry     beta= 0.10
     Davidson diagonalization with overlap
     ethr =  4.41E-08,  avg # of iterations =  2.6

     total cpu time spent up to now is     2810.8 secs

     total energy              =  -14693.99694422 Ry
     Harris-Foulkes estimate   =  -14693.99691676 Ry
     estimated scf accuracy    <       0.00009553 Ry

     total magnetization       =     8.76 Bohr mag/cell
     absolute magnetization    =    37.36 Bohr mag/cell

     iteration # 17     ecut=    45.00 Ry     beta= 0.10
     Davidson diagonalization with overlap
     ethr =  3.23E-08,  avg # of iterations =  1.8

     total cpu time spent up to now is     2945.0 secs

     total energy              =  -14693.99696542 Ry
     Harris-Foulkes estimate   =  -14693.99694532 Ry
     estimated scf accuracy    <       0.00003444 Ry

     total magnetization       =     8.76 Bohr mag/cell
     absolute magnetization    =    37.36 Bohr mag/cell

     iteration # 18     ecut=    45.00 Ry     beta= 0.10
     Davidson diagonalization with overlap
     ethr =  1.16E-08,  avg # of iterations =  2.5

     total cpu time spent up to now is     3092.4 secs

     total energy              =  -14693.99697861 Ry
     Harris-Foulkes estimate   =  -14693.99697232 Ry
     estimated scf accuracy    <       0.00001450 Ry

     total magnetization       =     8.75 Bohr mag/cell
     absolute magnetization    =    37.35 Bohr mag/cell

     iteration # 19     ecut=    45.00 Ry     beta= 0.10
     Davidson diagonalization with overlap
     ethr =  4.90E-09,  avg # of iterations =  2.3

     total cpu time spent up to now is     3242.6 secs

     total energy              =  -14693.99698547 Ry
     Harris-Foulkes estimate   =  -14693.99698076 Ry
     estimated scf accuracy    <       0.00000573 Ry

     total magnetization       =     8.75 Bohr mag/cell
     absolute magnetization    =    37.35 Bohr mag/cell

     iteration # 20     ecut=    45.00 Ry     beta= 0.10
     Davidson diagonalization with overlap
     ethr =  1.94E-09,  avg # of iterations =  2.7

     total cpu time spent up to now is     3395.2 secs

     total energy              =  -14693.99698906 Ry
     Harris-Foulkes estimate   =  -14693.99698628 Ry
     estimated scf accuracy    <       0.00000222 Ry

     total magnetization       =     8.75 Bohr mag/cell
     absolute magnetization    =    37.35 Bohr mag/cell

     iteration # 21     ecut=    45.00 Ry     beta= 0.10
     Davidson diagonalization with overlap
     ethr =  7.50E-10,  avg # of iterations =  2.6

     total cpu time spent up to now is     3544.8 secs

     total energy              =  -14693.99699183 Ry
     Harris-Foulkes estimate   =  -14693.99698954 Ry
     estimated scf accuracy    <       0.00000159 Ry

     total magnetization       =     8.75 Bohr mag/cell
     absolute magnetization    =    37.35 Bohr mag/cell

     iteration # 22     ecut=    45.00 Ry     beta= 0.10
     Davidson diagonalization with overlap
     ethr =  5.38E-10,  avg # of iterations =  2.2

     total cpu time spent up to now is     3688.7 secs

     total energy              =  -14693.99699390 Ry
     Harris-Foulkes estimate   =  -14693.99699222 Ry
     estimated scf accuracy    <       0.00000146 Ry

     total magnetization       =     8.75 Bohr mag/cell
     absolute magnetization    =    37.35 Bohr mag/cell

     iteration # 23     ecut=    45.00 Ry     beta= 0.10
     Davidson diagonalization with overlap
     ethr =  4.94E-10,  avg # of iterations =  2.2

     total cpu time spent up to now is     3831.7 secs

     total energy              =  -14693.99699446 Ry
     Harris-Foulkes estimate   =  -14693.99699301 Ry
     estimated scf accuracy    <       0.00000133 Ry

     total magnetization       =     8.75 Bohr mag/cell
     absolute magnetization    =    37.35 Bohr mag/cell

     iteration # 24     ecut=    45.00 Ry     beta= 0.10
     Davidson diagonalization with overlap
     ethr =  4.49E-10,  avg # of iterations =  1.9
 
     Magnetic moment per site:
     atom:    1    charge:   13.5461    magn:    4.2471    constr:    0.0000
     atom:    2    charge:   13.5523    magn:    4.2069    constr:    0.0000
     atom:    3    charge:   13.5461    magn:    4.2471    constr:    0.0000
     atom:    4    charge:   13.5445    magn:   -4.2560    constr:    0.0000
     atom:    5    charge:   13.5415    magn:    4.2739    constr:    0.0000
     atom:    6    charge:   13.5413    magn:   -4.2761    constr:    0.0000
     atom:    7    charge:   13.5415    magn:    4.2739    constr:    0.0000
     atom:    8    charge:   13.5445    magn:   -4.2560    constr:    0.0000
     atom:    9    charge:    9.1221    magn:    0.0342    constr:    0.0000
     atom:   10    charge:    9.1226    magn:    0.0377    constr:    0.0000
     atom:   11    charge:    9.1226    magn:    0.0377    constr:    0.0000
     atom:   12    charge:    9.1221    magn:    0.0342    constr:    0.0000
     atom:   13    charge:    9.1237    magn:    0.0401    constr:    0.0000
     atom:   14    charge:    9.1247    magn:   -0.0395    constr:    0.0000
     atom:   15    charge:    9.1249    magn:   -0.0387    constr:    0.0000
     atom:   16    charge:    9.1251    magn:    0.0419    constr:    0.0000
     atom:   17    charge:    9.1256    magn:    0.0384    constr:    0.0000
     atom:   18    charge:    9.1257    magn:   -0.0372    constr:    0.0000
     atom:   19    charge:    9.1257    magn:   -0.0372    constr:    0.0000
     atom:   20    charge:    9.1256    magn:    0.0384    constr:    0.0000
     atom:   21    charge:    9.1251    magn:    0.0419    constr:    0.0000
     atom:   22    charge:    9.1249    magn:   -0.0387    constr:    0.0000
     atom:   23    charge:    9.1247    magn:   -0.0395    constr:    0.0000
     atom:   24    charge:    9.1237    magn:    0.0401    constr:    0.0000

     total cpu time spent up to now is     3967.2 secs

     End of self-consistent calculation
 --- enter write_ns ---
 LDA+U parameters:
U(  1) =   3.1200   J(  1) =   0.7000   B(  1) =   0.0803
U(  2) =   3.1200   J(  2) =   0.7000   B(  2) =   0.0803
atom    1   Tr[ns(na)] (up, down, total) =   4.97331  0.72629  5.69960
   spin  1
    eigenvalues: 
  0.985  0.994  0.994  0.998  1.002
    eigenvectors:
  0.000  0.000  0.000  1.000  0.000
  0.000  0.328  0.672  0.000  0.000
  0.000  0.672  0.328  0.000  0.000
  0.000  0.000  0.000  0.000  1.000
  1.000  0.000  0.000  0.000  0.000
    occupations:
  0.998 -0.000 -0.000  0.000  0.000
 -0.000  0.994 -0.000  0.000  0.000
 -0.000 -0.000  0.994  0.000  0.000
  0.000  0.000  0.000  1.002 -0.000
  0.000  0.000  0.000 -0.000  0.985
   spin  2
    eigenvalues: 
  0.066  0.127  0.143  0.143  0.248
    eigenvectors:
  0.000  1.000  0.000  0.000  0.000
  0.000  0.000  0.382  0.618  0.000
  0.000  0.000  0.618  0.382  0.000
  1.000  0.000  0.000  0.000  0.000
  0.000  0.000  0.000  0.000  1.000
    occupations:
  0.127 -0.000 -0.000  0.000  0.000
 -0.000  0.143 -0.000  0.000  0.000
 -0.000 -0.000  0.143  0.000  0.000
  0.000  0.000  0.000  0.066 -0.000
  0.000  0.000  0.000 -0.000  0.248
atomic mag. moment =     4.247018
atom    2   Tr[ns(na)] (up, down, total) =   4.97006  0.75997  5.73003
   spin  1
    eigenvalues: 
  0.985  0.993  0.993  0.996  1.002
    eigenvectors:
  0.000  0.000  0.000  1.000  0.000
  0.000  0.302  0.698  0.000  0.000
  0.000  0.698  0.302  0.000  0.000
  0.000  0.000  0.000  0.000  1.000
  1.000  0.000  0.000  0.000  0.000
    occupations:
  0.996 -0.000 -0.000  0.000  0.000
 -0.000  0.993 -0.000  0.000  0.000
 -0.000 -0.000  0.993  0.000  0.000
  0.000  0.000  0.000  1.002 -0.000
  0.000  0.000  0.000 -0.000  0.985
   spin  2
    eigenvalues: 
  0.064  0.140  0.143  0.143  0.269
    eigenvectors:
  0.000  1.000  0.000  0.000  0.000
  0.000  0.000  0.347  0.653  0.000
  0.000  0.000  0.653  0.347  0.000
  1.000  0.000  0.000  0.000  0.000
  0.000  0.000  0.000  0.000  1.000
    occupations:
  0.140 -0.000 -0.000  0.000  0.000
 -0.000  0.143 -0.000  0.000  0.000
 -0.000 -0.000  0.143  0.000  0.000
  0.000  0.000  0.000  0.064 -0.000
  0.000  0.000  0.000 -0.000  0.269
atomic mag. moment =     4.210092
atom    3   Tr[ns(na)] (up, down, total) =   4.97331  0.72629  5.69960
   spin  1
    eigenvalues: 
  0.985  0.994  0.994  0.998  1.002
    eigenvectors:
  0.000  0.000  0.000  1.000  0.000
  0.000  0.324  0.676  0.000  0.000
  0.000  0.676  0.324  0.000  0.000
  0.000  0.000  0.000  0.000  1.000
  1.000  0.000  0.000  0.000  0.000
    occupations:
  0.998 -0.000 -0.000  0.000  0.000
 -0.000  0.994 -0.000  0.000  0.000
 -0.000 -0.000  0.994  0.000  0.000
  0.000  0.000  0.000  1.002 -0.000
  0.000  0.000  0.000 -0.000  0.985
   spin  2
    eigenvalues: 
  0.066  0.127  0.143  0.143  0.248
    eigenvectors:
  0.000  1.000  0.000  0.000  0.000
  0.000  0.000  0.307  0.693  0.000
  0.000  0.000  0.693  0.307  0.000
  1.000  0.000  0.000  0.000  0.000
  0.000  0.000  0.000  0.000  1.000
    occupations:
  0.127 -0.000 -0.000  0.000  0.000
 -0.000  0.143 -0.000  0.000  0.000
 -0.000 -0.000  0.143  0.000  0.000
  0.000  0.000  0.000  0.066 -0.000
  0.000  0.000  0.000 -0.000  0.248
atomic mag. moment =     4.247018
atom    4   Tr[ns(na)] (up, down, total) =   0.72072  4.97206  5.69277
   spin  1
    eigenvalues: 
  0.066  0.124  0.143  0.143  0.245
    eigenvectors:
  0.000  1.000  0.000  0.000  0.000
  0.000  0.000  0.356  0.644  0.000
  0.000  0.000  0.644  0.356  0.000
  1.000  0.000  0.000  0.000  0.000
  0.000  0.000  0.000  0.000  1.000
    occupations:
  0.124 -0.000 -0.000  0.000  0.000
 -0.000  0.143 -0.000  0.000  0.000
 -0.000 -0.000  0.143  0.000  0.000
  0.000  0.000  0.000  0.066 -0.000
  0.000  0.000  0.000 -0.000  0.245
   spin  2
    eigenvalues: 
  0.985  0.994  0.994  0.997  1.003
    eigenvectors:
  0.000  0.000  0.000  1.000  0.000
  0.000  0.350  0.650  0.000  0.000
  0.000  0.650  0.350  0.000  0.000
  0.000  0.000  0.000  0.000  1.000
  1.000  0.000  0.000  0.000  0.000
    occupations:
  0.997 -0.000 -0.000  0.000  0.000
 -0.000  0.994 -0.000  0.000  0.000
 -0.000 -0.000  0.994  0.000  0.000
  0.000  0.000  0.000  1.003 -0.000
  0.000  0.000  0.000 -0.000  0.985
atomic mag. moment =    -4.251339
atom    5   Tr[ns(na)] (up, down, total) =   4.97439  0.70553  5.67992
   spin  1
    eigenvalues: 
  0.985  0.994  0.994  0.998  1.003
    eigenvectors:
  0.000  0.000  0.000  1.000  0.000
  0.000  0.382  0.618  0.000  0.000
  0.000  0.618  0.382  0.000  0.000
  0.000  0.000  0.000  0.000  1.000
  1.000  0.000  0.000  0.000  0.000
    occupations:
  0.998 -0.000 -0.000  0.000  0.000
 -0.000  0.994 -0.000  0.000  0.000
 -0.000 -0.000  0.994  0.000  0.000
  0.000  0.000  0.000  1.003 -0.000
  0.000  0.000  0.000 -0.000  0.985
   spin  2
    eigenvalues: 
  0.067  0.111  0.145  0.145  0.238
    eigenvectors:
  0.000  1.000  0.000  0.000  0.000
  0.000  0.000  0.323  0.677  0.000
  0.000  0.000  0.677  0.323  0.000
  1.000  0.000  0.000  0.000  0.000
  0.000  0.000  0.000  0.000  1.000
    occupations:
  0.111 -0.000 -0.000  0.000  0.000
 -0.000  0.145 -0.000  0.000  0.000
 -0.000 -0.000  0.145  0.000  0.000
  0.000  0.000  0.000  0.067 -0.000
  0.000  0.000  0.000 -0.000  0.238
atomic mag. moment =     4.268868
atom    6   Tr[ns(na)] (up, down, total) =   0.70394  4.97463  5.67857
   spin  1
    eigenvalues: 
  0.067  0.110  0.145  0.145  0.238
    eigenvectors:
  0.000  1.000  0.000  0.000  0.000
  0.000  0.000  0.255  0.745  0.000
  0.000  0.000  0.745  0.255  0.000
  1.000  0.000  0.000  0.000  0.000
  0.000  0.000  0.000  0.000  1.000
    occupations:
  0.110 -0.000 -0.000  0.000  0.000
 -0.000  0.145 -0.000  0.000  0.000
 -0.000 -0.000  0.145  0.000  0.000
  0.000  0.000  0.000  0.067 -0.000
  0.000  0.000  0.000 -0.000  0.238
   spin  2
    eigenvalues: 
  0.986  0.994  0.994  0.998  1.003
    eigenvectors:
  0.000  0.000  0.000  1.000  0.000
  0.000  0.412  0.588  0.000  0.000
  0.000  0.588  0.412  0.000  0.000
  0.000  0.000  0.000  0.000  1.000
  1.000  0.000  0.000  0.000  0.000
    occupations:
  0.998 -0.000 -0.000  0.000  0.000
 -0.000  0.994 -0.000  0.000  0.000
 -0.000 -0.000  0.994  0.000  0.000
  0.000  0.000  0.000  1.003 -0.000
  0.000  0.000  0.000 -0.000  0.986
atomic mag. moment =    -4.270692
atom    7   Tr[ns(na)] (up, down, total) =   4.97439  0.70553  5.67992
   spin  1
    eigenvalues: 
  0.985  0.994  0.994  0.998  1.003
    eigenvectors:
  0.000  0.000  0.000  1.000  0.000
  0.000  0.296  0.704  0.000  0.000
  0.000  0.704  0.296  0.000  0.000
  0.000  0.000  0.000  0.000  1.000
  1.000  0.000  0.000  0.000  0.000
    occupations:
  0.998 -0.000 -0.000  0.000  0.000
 -0.000  0.994 -0.000  0.000  0.000
 -0.000 -0.000  0.994  0.000  0.000
  0.000  0.000  0.000  1.003 -0.000
  0.000  0.000  0.000 -0.000  0.985
   spin  2
    eigenvalues: 
  0.067  0.111  0.145  0.145  0.238
    eigenvectors:
  0.000  1.000  0.000  0.000  0.000
  0.000  0.000  0.329  0.671  0.000
  0.000  0.000  0.671  0.329  0.000
  1.000  0.000  0.000  0.000  0.000
  0.000  0.000  0.000  0.000  1.000
    occupations:
  0.111 -0.000 -0.000  0.000  0.000
 -0.000  0.145 -0.000  0.000  0.000
 -0.000 -0.000  0.145  0.000  0.000
  0.000  0.000  0.000  0.067 -0.000
  0.000  0.000  0.000 -0.000  0.238
atomic mag. moment =     4.268868
atom    8   Tr[ns(na)] (up, down, total) =   0.72072  4.97206  5.69277
   spin  1
    eigenvalues: 
  0.066  0.124  0.143  0.143  0.245
    eigenvectors:
  0.000  1.000  0.000  0.000  0.000
  0.000  0.000  0.414  0.586  0.000
  0.000  0.000  0.586  0.414  0.000
  1.000  0.000  0.000  0.000  0.000
  0.000  0.000  0.000  0.000  1.000
    occupations:
  0.124 -0.000 -0.000  0.000  0.000
 -0.000  0.143 -0.000  0.000  0.000
 -0.000 -0.000  0.143  0.000  0.000
  0.000  0.000  0.000  0.066 -0.000
  0.000  0.000  0.000 -0.000  0.245
   spin  2
    eigenvalues: 
  0.985  0.994  0.994  0.997  1.003
    eigenvectors:
  0.000  0.000  0.000  1.000  0.000
  0.000  0.302  0.698  0.000  0.000
  0.000  0.698  0.302  0.000  0.000
  0.000  0.000  0.000  0.000  1.000
  1.000  0.000  0.000  0.000  0.000
    occupations:
  0.997 -0.000 -0.000  0.000  0.000
 -0.000  0.994 -0.000  0.000  0.000
 -0.000 -0.000  0.994  0.000  0.000
  0.000  0.000  0.000  1.003 -0.000
  0.000  0.000  0.000 -0.000  0.985
atomic mag. moment =    -4.251339
N of occupied +U levels =   45.553193
 --- exit write_ns ---

 ------ SPIN UP ------------


          k = 0.0000 0.0000 0.0000 ( 13925 PWs)   bands (ev):

   -66.8340 -66.8340 -66.7318 -66.7318 -66.6038 -62.2029 -62.1955 -62.1955
   -35.5997 -35.5997 -35.5505 -35.5505 -35.5505 -35.5505 -35.4993 -35.4993
   -35.4496 -35.4496 -35.4496 -35.4496 -35.3835 -35.3178 -35.3178 -31.0237
   -31.0216 -31.0216 -31.0184 -31.0184 -31.0135 -31.0135 -31.0135 -31.0135
     5.7636   5.9042   5.9218   6.2788   6.4392   7.0095   7.0605   7.6189
     8.2829   8.4076   8.4133   8.4923   8.5118   8.5190   8.5571   8.5674
     8.7061   8.8318   8.8838   8.9003   8.9589   9.2161   9.2190   9.2726
     9.3093   9.3830   9.4045   9.4546   9.6422   9.7340   9.9218   9.9697
     9.9839  10.0392  10.0706  10.1214  10.1316  10.1316  10.1533  10.1548
    10.1579  10.1769  10.1769  10.2019  10.2019  10.3043  10.3128  10.3427
    10.3427  10.3548  10.3548  10.5584  10.5810  10.5810  10.5812  10.5812
    10.5987  10.6001  10.6001  10.6102  10.6102  10.6199  10.6199  10.6576
    10.6576  10.6748  10.7664  10.7782  10.7782  10.9764  10.9764  10.9919
    11.0500  11.0500  11.0804  11.1454  11.2511  11.2609  11.2651  11.3283
    11.4169  11.4169  11.4182  11.4409  11.4465  11.4877  11.4877  11.4888
    11.6838  11.8316  11.8316  11.8415  11.8835  11.9110  11.9174  11.9807
    12.1192  12.1581  12.1581  12.1677  12.2050  12.2517  12.3419  12.3419
    12.3855  12.3855  12.6169  12.7126  12.7126  12.7883  12.8153  12.8263
    12.8765  13.0245  13.0942  13.1014  13.6492  14.2905  15.0250  15.2528
    16.1684  16.8690  16.8690  16.9163  16.9163  16.9459  16.9459  16.9506
    16.9572  16.9572  17.1471  17.1471  17.1690  17.5715  17.5801  17.5967
    18.4052  19.5285  19.6615  20.0717  20.0717  20.4365  20.4365  20.4696
    20.4696  21.3730

          k = 0.0000 0.0000 0.0242 ( 13893 PWs)   bands (ev):

   -66.8340 -66.8340 -66.7318 -66.7318 -66.6038 -62.2029 -62.1955 -62.1955
   -35.5997 -35.5997 -35.5505 -35.5505 -35.5505 -35.5505 -35.4993 -35.4993
   -35.4496 -35.4496 -35.4496 -35.4496 -35.3835 -35.3178 -35.3178 -31.0237
   -31.0216 -31.0216 -31.0184 -31.0184 -31.0135 -31.0135 -31.0135 -31.0135
     5.7730   5.8479   5.9949   6.2047   6.5280   6.8539   7.2209   7.5528
     8.3454   8.4076   8.4168   8.4911   8.5021   8.5136   8.5667   8.5823
     8.6853   8.6982   8.8841   8.9766   9.0065   9.2007   9.2074   9.2897
     9.3403   9.3727   9.3735   9.4407   9.6506   9.7385   9.9219   9.9688
     9.9850  10.0388  10.0511  10.1266  10.1337  10.1337  10.1502  10.1563
    10.1652  10.1652  10.1833  10.2211  10.2211  10.2987  10.2987  10.2994
    10.3045  10.4060  10.4060  10.5393  10.5393  10.5523  10.5812  10.5812
    10.5826  10.5826  10.6001  10.6001  10.6103  10.6508  10.6508  10.6684
    10.6976  10.6976  10.7706  10.7790  10.7790  10.9104  10.9104  10.9940
    11.0628  11.1237  11.1237  11.1693  11.2512  11.2516  11.2534  11.3394
    11.3394  11.3458  11.4195  11.4331  11.4440  11.4899  11.5545  11.5545
    11.6847  11.8068  11.8068  11.8433  11.8801  11.9109  11.9210  11.9800
    12.1083  12.1837  12.1847  12.1847  12.2050  12.2452  12.3044  12.3044
    12.4053  12.4053  12.6174  12.7123  12.7123  12.7861  12.8175  12.8420
    12.8761  12.9596  13.0942  13.1722  13.6026  14.3776  14.8414  15.4149
    16.1178  16.8688  16.8688  16.9169  16.9169  16.9455  16.9455  16.9506
    16.9572  16.9572  17.1471  17.1471  17.1690  17.5719  17.5778  17.5980
    18.4940  19.1762  20.0593  20.0959  20.0959  20.2915  20.2915  20.6529
    20.6529  21.0414

          k = 0.0000 0.0000-0.0484 ( 13878 PWs)   bands (ev):

   -66.8340 -66.8340 -66.7318 -66.7318 -66.6038 -62.2029 -62.1955 -62.1955
   -35.5997 -35.5997 -35.5505 -35.5505 -35.5505 -35.5505 -35.4993 -35.4993
   -35.4496 -35.4496 -35.4496 -35.4496 -35.3835 -35.3178 -35.3178 -31.0237
   -31.0216 -31.0216 -31.0184 -31.0184 -31.0135 -31.0135 -31.0135 -31.0135
     5.7976   5.8050   6.0744   6.1147   6.6557   6.7090   7.3803   7.4214
     8.4077   8.4085   8.4694   8.4825   8.4899   8.5154   8.5592   8.5660
     8.6151   8.6658   8.8845   8.9983   9.0500   9.2009   9.2088   9.3088
     9.3219   9.3580   9.3849   9.4145   9.6579   9.7431   9.9219   9.9680
     9.9860  10.0365  10.0385  10.1368  10.1368  10.1368  10.1412  10.1556
    10.1566  10.1566  10.2129  10.2510  10.2510  10.2610  10.2610  10.2799
    10.3047  10.4694  10.4694  10.4697  10.4697  10.5477  10.5812  10.5812
    10.5824  10.5824  10.6001  10.6001  10.6229  10.6518  10.6518  10.6595
    10.7447  10.7447  10.7749  10.7837  10.7837  10.8537  10.8537  10.9962
    11.0499  11.1936  11.2111  11.2111  11.2370  11.2444  11.2503  11.2503
    11.2512  11.3630  11.4211  11.4227  11.4413  11.4910  11.6016  11.6016
    11.6857  11.7772  11.7772  11.8452  11.8772  11.9108  11.9242  11.9791
    12.1002  12.2000  12.2050  12.2355  12.2393  12.2393  12.2465  12.2465
    12.4167  12.4167  12.6180  12.7120  12.7120  12.7842  12.8195  12.8757
    12.8863  12.8899  13.0942  13.2250  13.5538  14.5417  14.6331  15.5326
    16.0562  16.8686  16.8686  16.9175  16.9175  16.9451  16.9451  16.9506
    16.9572  16.9572  17.1471  17.1471  17.1690  17.5726  17.5757  17.5991
    18.6467  18.9219  20.1535  20.1535  20.1882  20.1882  20.5032  20.5837
    20.8678  20.8678

          k = 0.0000 0.1250 0.0000 ( 13879 PWs)   bands (ev):

   -66.8338 -66.8337 -66.7316 -66.7316 -66.6035 -62.2029 -62.1955 -62.1955
   -35.5995 -35.5995 -35.5522 -35.5522 -35.5504 -35.5504 -35.4991 -35.4991
   -35.4514 -35.4514 -35.4495 -35.4495 -35.3833 -35.3196 -35.3177 -31.0237
   -31.0235 -31.0214 -31.0182 -31.0182 -31.0157 -31.0157 -31.0134 -31.0134
     6.0072   6.1444   6.1608   6.5091   6.6552   7.2004   7.2408   7.7593
     8.2928   8.5028   8.5425   8.5976   8.6186   8.6230   8.6516   8.6813
     8.7408   8.7753   8.8178   8.9343   9.0164   9.1801   9.2097   9.2471
     9.3244   9.3704   9.3755   9.4434   9.6245   9.7537   9.7811   9.8154
     9.8310   9.8353   9.8382   9.8890   9.9424   9.9799  10.0417  10.0516
    10.1157  10.1191  10.1484  10.1792  10.1892  10.1896  10.2339  10.2796
    10.2979  10.3259  10.4281  10.4471  10.4478  10.4540  10.5124  10.5993
    10.6184  10.6552  10.7064  10.7414  10.7474  10.7729  10.7911  10.8492
    10.8515  10.8992  10.9267  10.9855  11.0244  11.0340  11.1181  11.1228
    11.1437  11.1464  11.2193  11.2225  11.3011  11.3266  11.3543  11.3708
    11.3797  11.4117  11.4133  11.4321  11.5028  11.5163  11.6307  11.7252
    11.7382  11.7455  11.8223  11.8458  11.8637  11.9006  11.9394  12.0037
    12.0136  12.0424  12.1039  12.1814  12.2403  12.2459  12.2883  12.3868
    12.5053  12.5550  12.5578  12.6501  12.6729  12.7353  12.7366  12.7635
    12.9667  12.9806  12.9986  13.0818  13.6930  14.3271  15.1509  15.3766
    16.2908  16.6821  16.7061  16.7537  16.9598  16.9692  16.9708  17.0079
    17.0339  17.0450  17.0454  17.0603  17.0768  17.6127  17.6187  17.9350
    18.4828  18.6793  18.9857  19.0373  19.7911  19.8696  19.9461  19.9683
    20.6928  20.9849

          k = 0.0000 0.1250 0.0242 ( 13869 PWs)   bands (ev):

   -66.8338 -66.8337 -66.7316 -66.7316 -66.6035 -62.2029 -62.1955 -62.1955
   -35.5995 -35.5995 -35.5522 -35.5522 -35.5504 -35.5504 -35.4991 -35.4991
   -35.4514 -35.4514 -35.4495 -35.4495 -35.3833 -35.3196 -35.3177 -31.0237
   -31.0235 -31.0214 -31.0182 -31.0182 -31.0157 -31.0157 -31.0134 -31.0134
     6.0163   6.0893   6.2322   6.4357   6.7420   7.0512   7.3930   7.6977
     8.3472   8.5049   8.5424   8.5817   8.6149   8.6185   8.6334   8.6780
     8.6871   8.7862   8.8781   8.9408   9.0166   9.1696   9.1918   9.2660
     9.3159   9.3463   9.3785   9.4830   9.6044   9.7609   9.7820   9.8085
     9.8101   9.8431   9.8628   9.8845   9.9427   9.9740  10.0398  10.0602
    10.0990  10.1302  10.1427  10.1759  10.1966  10.2013  10.2253  10.2728
    10.3112  10.3286  10.3970  10.4132  10.4669  10.5072  10.5156  10.6015
    10.6156  10.6527  10.6712  10.7062  10.7435  10.7919  10.8456  10.8537
    10.8546  10.9043  10.9119  10.9834  11.0267  11.0504  11.0553  11.1259
    11.1471  11.1500  11.2214  11.2666  11.2928  11.3018  11.3486  11.3687
    11.3728  11.4082  11.4239  11.4663  11.4970  11.5158  11.6264  11.7165
    11.7299  11.7391  11.8128  11.8656  11.8772  11.8985  11.9387  11.9911
    12.0047  12.0578  12.1246  12.1814  12.1978  12.2491  12.3120  12.3842
    12.4948  12.5541  12.5722  12.6405  12.6824  12.7210  12.7461  12.7816
    12.9187  12.9667  12.9806  13.1747  13.6262  14.4320  14.9498  15.5494
    16.2391  16.6827  16.7087  16.7593  16.9599  16.9691  16.9708  17.0079
    17.0339  17.0450  17.0454  17.0603  17.0768  17.5919  17.6624  17.8591
    18.6023  18.7323  18.8638  19.1915  19.4585  19.6183  20.1384  20.3943
    20.7106  20.7111

          k = 0.0000 0.1250-0.0484 ( 13868 PWs)   bands (ev):

   -66.8338 -66.8337 -66.7316 -66.7316 -66.6035 -62.2029 -62.1955 -62.1955
   -35.5995 -35.5995 -35.5522 -35.5522 -35.5504 -35.5504 -35.4991 -35.4991
   -35.4514 -35.4514 -35.4495 -35.4495 -35.3833 -35.3196 -35.3177 -31.0237
   -31.0235 -31.0214 -31.0182 -31.0182 -31.0157 -31.0157 -31.0134 -31.0134
     6.0404   6.0473   6.3101   6.3474   6.8658   6.9125   7.5460   7.5709
     8.4351   8.5057   8.5160   8.5447   8.5787   8.6156   8.6288   8.6781
     8.7103   8.7607   8.9235   8.9641   9.0001   9.1660   9.1728   9.2859
     9.3016   9.3283   9.3841   9.5265   9.5715   9.7694   9.7831   9.7954
     9.8061   9.8507   9.8770   9.8787   9.9429   9.9671  10.0389  10.0765
    10.0802  10.1349  10.1387  10.1738  10.2100  10.2101  10.2135  10.2644
    10.3313  10.3314  10.3654  10.4045  10.4894  10.4931  10.5885  10.5906
    10.6060  10.6103  10.6506  10.7061  10.7455  10.7926  10.8506  10.8607
    10.8842  10.8967  10.9591  10.9659  10.9818  11.0310  11.0648  11.1303
    11.1484  11.1494  11.2308  11.2608  11.2863  11.3032  11.3539  11.3747
    11.3811  11.4021  11.4134  11.4747  11.4859  11.5451  11.6215  11.6822
    11.7373  11.7396  11.8045  11.8670  11.8966  11.9296  11.9388  11.9498
    11.9880  12.1213  12.1345  12.1377  12.1814  12.2524  12.3257  12.3815
    12.4867  12.5532  12.5864  12.6303  12.6945  12.7084  12.7497  12.8336
    12.8360  12.9666  12.9806  13.2486  13.5537  14.6218  14.7197  15.6719
    16.1765  16.6829  16.7107  16.7648  16.9599  16.9691  16.9708  17.0079
    17.0340  17.0450  17.0454  17.0603  17.0768  17.5848  17.7273  17.7608
    18.6950  18.7749  18.9307  19.1383  19.3769  19.4142  20.3735  20.4218
    20.7432  20.8104

          k = 0.0000 0.2500 0.0000 ( 13848 PWs)   bands (ev):

   -66.8336 -66.8336 -66.7314 -66.7314 -66.6034 -62.2025 -62.1952 -62.1952
   -35.5991 -35.5991 -35.5564 -35.5564 -35.5501 -35.5501 -35.4987 -35.4987
   -35.4555 -35.4555 -35.4492 -35.4492 -35.3829 -35.3238 -35.3174 -31.0290
   -31.0229 -31.0211 -31.0209 -31.0209 -31.0176 -31.0176 -31.0130 -31.0130
     6.6962   6.8211   6.8333   7.1451   7.2451   7.6815   7.6907   8.0526
     8.2571   8.4886   8.4896   8.6903   8.7130   8.7514   8.8030   8.8037
     8.8599   8.8872   8.9351   8.9481   8.9504   9.0377   9.1018   9.1058
     9.1663   9.4390   9.4881   9.5261   9.5274   9.5806   9.5979   9.6332
     9.6345   9.6408   9.6760   9.6871   9.6941   9.7771   9.8643   9.8682
     9.9486  10.0034  10.0474  10.0595  10.1657  10.2554  10.2785  10.3534
    10.4137  10.5683  10.5686  10.5876  10.6217  10.6308  10.6462  10.7273
    10.7979  10.8197  10.8344  10.8492  10.8610  10.8753  10.8784  10.9475
    11.0839  11.0967  11.1132  11.1308  11.1356  11.1633  11.2795  11.2916
    11.2917  11.3006  11.3638  11.3967  11.4062  11.4566  11.4663  11.5612
    11.5657  11.6341  11.6408  11.6553  11.6754  11.6821  11.7331  11.7753
    11.8267  11.8337  11.8621  11.8827  11.9096  11.9213  11.9432  12.0023
    12.0060  12.0513  12.0777  12.0829  12.1324  12.2323  12.2856  12.4061
    12.4804  12.5778  12.6222  12.7023  12.7286  12.7459  12.7545  12.8051
    12.9208  13.0038  13.0134  13.0411  13.8522  14.3857  15.3668  15.5314
    15.9482  16.0307  16.1130  16.1920  16.5008  16.5248  16.7213  16.8257
    16.9019  16.9042  16.9281  17.2154  17.2518  17.2746  17.2960  17.2962
    17.4326  17.6293  17.7385  17.9476  18.4610  18.5033  18.5341  18.6720
    19.4185  20.4795

          k = 0.0000 0.2500 0.0242 ( 13862 PWs)   bands (ev):

   -66.8336 -66.8336 -66.7314 -66.7314 -66.6034 -62.2025 -62.1952 -62.1952
   -35.5991 -35.5991 -35.5564 -35.5564 -35.5501 -35.5501 -35.4987 -35.4987
   -35.4555 -35.4555 -35.4492 -35.4492 -35.3829 -35.3238 -35.3174 -31.0290
   -31.0229 -31.0211 -31.0209 -31.0209 -31.0176 -31.0176 -31.0130 -31.0130
     6.7045   6.7705   6.8980   7.0768   7.3218   7.5629   7.8055   8.0089
     8.2913   8.4256   8.5483   8.6539   8.7389   8.7593   8.7952   8.7992
     8.8599   8.8763   8.9434   8.9504   8.9644   9.0377   9.0854   9.1051
     9.1643   9.4621   9.4882   9.5198   9.5374   9.5679   9.6122   9.6239
     9.6355   9.6394   9.6606   9.6929   9.6989   9.7293   9.8667   9.9297
     9.9489  10.0084  10.0377  10.0648  10.1244  10.2436  10.3022  10.3825
    10.3899  10.5563  10.5728  10.5987  10.6059  10.6435  10.6757  10.7320
    10.7534  10.7929  10.8004  10.8563  10.8719  10.9104  10.9131  10.9579
    11.0530  11.0561  11.1018  11.1512  11.1622  11.1992  11.2695  11.2720
    11.2933  11.3034  11.3503  11.3991  11.4122  11.4616  11.4798  11.5585
    11.5640  11.6056  11.6198  11.6488  11.6708  11.7237  11.7593  11.7766
    11.8259  11.8392  11.8647  11.8741  11.9164  11.9181  11.9368  11.9673
    11.9943  12.0219  12.1180  12.1284  12.1324  12.2257  12.2583  12.4177
    12.4760  12.6015  12.6306  12.6990  12.7187  12.7398  12.7690  12.7928
    12.8035  13.0038  13.0411  13.1770  13.7169  14.5416  15.1434  15.6990
    15.9648  16.0197  16.0965  16.2099  16.4010  16.6059  16.7085  16.8275
    16.9019  16.9042  16.9281  17.2036  17.2746  17.2807  17.2960  17.2962
    17.4127  17.5971  17.7915  18.0161  18.2493  18.3729  18.6927  18.8069
    19.4600  20.0472

          k = 0.0000 0.2500-0.0484 ( 13842 PWs)   bands (ev):

   -66.8336 -66.8336 -66.7314 -66.7314 -66.6034 -62.2025 -62.1952 -62.1952
   -35.5991 -35.5991 -35.5564 -35.5564 -35.5501 -35.5501 -35.4987 -35.4987
   -35.4555 -35.4555 -35.4492 -35.4492 -35.3829 -35.3238 -35.3174 -31.0290
   -31.0229 -31.0211 -31.0209 -31.0209 -31.0176 -31.0176 -31.0130 -31.0130
     6.7268   6.7321   6.9687   6.9972   7.4273   7.4514   7.9097   7.9228
     8.3473   8.3672   8.6027   8.6040   8.7513   8.7787   8.7849   8.7870
     8.8598   8.8700   8.9409   8.9517   8.9937   9.0389   9.0564   9.1084
     9.1622   9.4883   9.4913   9.5174   9.5497   9.5532   9.6050   9.6273
     9.6372   9.6374   9.6452   9.6932   9.7024   9.7042   9.8653   9.9491
    10.0022  10.0183  10.0254  10.0618  10.0678  10.2372  10.3354  10.3537
    10.4124  10.5311  10.5719  10.5983  10.6435  10.6529  10.6975  10.7018
    10.7411  10.7598  10.7928  10.8557  10.8709  10.9215  10.9626  10.9924
    11.0076  11.0199  11.0880  11.1626  11.2156  11.2164  11.2360  11.2620
    11.2910  11.3072  11.3374  11.4034  11.4125  11.4652  11.5196  11.5248
    11.5625  11.5872  11.6025  11.6568  11.6791  11.7256  11.7727  11.8038
    11.8231  11.8480  11.8639  11.8738  11.9013  11.9286  11.9299  11.9341
    11.9798  12.0168  12.1324  12.1429  12.1924  12.2036  12.2167  12.4286
    12.4705  12.6411  12.6701  12.6766  12.6918  12.7113  12.7394  12.7775
    12.8013  13.0037  13.0411  13.3329  13.5545  14.7930  14.8760  15.7934
    16.0093  16.0206  16.0396  16.2473  16.3239  16.6696  16.6711  16.8292
    16.9019  16.9042  16.9281  17.1969  17.2746  17.2960  17.2962  17.3135
    17.3852  17.5687  17.8773  18.0693  18.1650  18.2236  18.8050  18.8466
    19.6163  19.7447

          k = 0.0000 0.3750 0.0000 ( 13856 PWs)   bands (ev):

   -66.8342 -66.8342 -66.7320 -66.7320 -66.6039 -62.2016 -62.1942 -62.1942
   -35.5987 -35.5987 -35.5605 -35.5605 -35.5499 -35.5499 -35.4983 -35.4983
   -35.4596 -35.4596 -35.4490 -35.4490 -35.3825 -35.3278 -35.3172 -31.0344
   -31.0263 -31.0263 -31.0224 -31.0208 -31.0171 -31.0171 -31.0127 -31.0127
     7.6564   7.7535   7.7549   7.9725   7.9727   8.1369   8.1514   8.1995
     8.2145   8.2757   8.2895   8.3989   8.4082   8.6030   8.6220   8.7730
     8.9242   8.9767   9.1326   9.1583   9.1642   9.2031   9.2435   9.2529
     9.2671   9.3073   9.3085   9.3324   9.3365   9.3748   9.3998   9.4466
     9.4681   9.6164   9.6868   9.6910   9.6976   9.7125   9.7867   9.8380
     9.9462  10.0449  10.0575  10.1226  10.1425  10.1509  10.2039  10.3782
    10.4263  10.4367  10.5220  10.5757  10.6220  10.6955  10.7061  10.8551
    10.8760  10.9137  10.9170  10.9748  10.9952  11.1733  11.1876  11.2533
    11.2580  11.3282  11.3482  11.3613  11.4001  11.4905  11.5105  11.5328
    11.5472  11.5485  11.5714  11.5869  11.6043  11.6508  11.7006  11.7387
    11.7623  11.7872  11.8240  11.8385  11.8562  11.8813  11.9130  11.9432
    12.0307  12.0402  12.0594  12.0906  12.1108  12.1160  12.1326  12.1368
    12.1752  12.1935  12.3416  12.3451  12.3715  12.3862  12.4204  12.5395
    12.5566  12.6090  12.7213  12.7546  12.7954  12.8395  12.8537  12.8913
    12.9642  12.9838  13.0718  13.0885  13.9321  14.0205  14.0562  14.2481
    14.2696  14.8909  14.9045  15.0721  15.1161  15.5609  15.5870  15.9109
    15.9462  16.8065  16.8336  16.8337  16.8555  16.8918  16.9974  17.0375
    17.0998  17.2227  17.4762  17.4975  17.4975  17.9108  17.9730  18.0797
    19.5667  19.6884

          k = 0.0000 0.3750 0.0242 ( 13870 PWs)   bands (ev):

   -66.8342 -66.8342 -66.7320 -66.7320 -66.6039 -62.2016 -62.1942 -62.1942
   -35.5987 -35.5987 -35.5605 -35.5605 -35.5499 -35.5499 -35.4983 -35.4983
   -35.4596 -35.4596 -35.4490 -35.4490 -35.3825 -35.3278 -35.3172 -31.0344
   -31.0263 -31.0263 -31.0224 -31.0208 -31.0171 -31.0171 -31.0127 -31.0127
     7.6629   7.7130   7.8035   7.9162   8.0252   8.1120   8.1674   8.1937
     8.2206   8.2653   8.3046   8.3647   8.4481   8.5571   8.6673   8.7572
     8.9291   8.9804   9.1083   9.1357   9.1954   9.2391   9.2437   9.2525
     9.2556   9.3087   9.3147   9.3315   9.3364   9.3699   9.4078   9.4209
     9.4429   9.6470   9.6848   9.6909   9.6992   9.7104   9.8138   9.8413
     9.9404  10.0445  10.0483  10.0599  10.1177  10.1448  10.3035  10.3807
    10.4329  10.4367  10.4996  10.5572  10.6191  10.7161  10.7194  10.8151
    10.8432  10.9063  10.9629  11.0048  11.0147  11.1312  11.1800  11.2523
    11.3047  11.3117  11.3363  11.3899  11.4163  11.4467  11.4709  11.4919
    11.5165  11.5669  11.6077  11.6098  11.6405  11.6709  11.6956  11.7256
    11.7426  11.7817  11.7930  11.8256  11.8783  11.8972  11.9344  11.9579
    12.0175  12.0306  12.0492  12.0568  12.0888  12.1017  12.1608  12.1910
    12.2129  12.2367  12.3088  12.3317  12.3842  12.4074  12.4206  12.5385
    12.5494  12.6123  12.7069  12.7219  12.7562  12.7926  12.8396  12.8547
    12.8911  13.0718  13.0885  13.2504  13.7822  13.9698  14.1271  14.2579
    14.4153  14.7134  14.8563  15.0847  15.3178  15.4493  15.6515  15.8721
    15.9435  16.7945  16.8336  16.8337  16.8555  16.9087  16.9978  17.0385
    17.1062  17.2166  17.4762  17.4975  17.4975  17.9055  17.9806  18.0789
    19.5730  19.7234

          k = 0.0000 0.3750-0.0484 ( 13872 PWs)   bands (ev):

   -66.8342 -66.8342 -66.7320 -66.7320 -66.6039 -62.2016 -62.1942 -62.1942
   -35.5987 -35.5987 -35.5605 -35.5605 -35.5499 -35.5499 -35.4983 -35.4983
   -35.4596 -35.4596 -35.4490 -35.4490 -35.3825 -35.3278 -35.3172 -31.0344
   -31.0263 -31.0263 -31.0224 -31.0208 -31.0171 -31.0171 -31.0127 -31.0127
     7.6817   7.6824   7.8535   7.8639   8.0675   8.0774   8.1794   8.1856
     8.2263   8.2582   8.3248   8.3380   8.4849   8.5169   8.7098   8.7253
     8.9336   8.9847   9.0916   9.1259   9.2263   9.2288   9.2439   9.2521
     9.2790   9.3103   9.3304   9.3340   9.3364   9.3596   9.3663   9.4161
     9.4377   9.6716   9.6784   9.6908   9.7016   9.7075   9.8448   9.8676
     9.9347   9.9575  10.0503  10.0639  10.1128  10.1466  10.3568  10.4152
    10.4323  10.4368  10.4572  10.5384  10.6166  10.7403  10.7417  10.7794
    10.8141  10.8948  11.0192  11.0274  11.0357  11.0712  11.1944  11.2317
    11.3024  11.3569  11.3630  11.3656  11.3954  11.4267  11.4626  11.4708
    11.4953  11.5680  11.6316  11.6391  11.6518  11.6796  11.6888  11.7293
    11.7380  11.7590  11.7827  11.7966  11.8930  11.9237  11.9500  11.9932
    11.9945  12.0105  12.0284  12.0440  12.0806  12.0911  12.1643  12.2427
    12.2505  12.2567  12.2821  12.3728  12.4185  12.4238  12.4499  12.4785
    12.5423  12.5458  12.6150  12.7224  12.7580  12.7896  12.8397  12.8556
    12.8910  13.0718  13.0885  13.5074  13.5395  14.0185  14.0399  14.4249
    14.4842  14.6443  14.6751  15.2380  15.2739  15.5584  15.5592  15.8725
    15.9198  16.7859  16.8336  16.8337  16.8555  16.9217  16.9981  17.0394
    17.1141  17.2094  17.4762  17.4975  17.4975  17.9012  17.9874  18.0779
    19.5860  19.7454

          k = 0.0000-0.5000 0.0000 ( 13918 PWs)   bands (ev):

   -66.8346 -66.8346 -66.7324 -66.7324 -66.6044 -62.2010 -62.1936 -62.1936
   -35.5986 -35.5986 -35.5621 -35.5621 -35.5498 -35.5498 -35.4981 -35.4981
   -35.4613 -35.4613 -35.4489 -35.4489 -35.3823 -35.3295 -35.3171 -31.0367
   -31.0286 -31.0286 -31.0222 -31.0206 -31.0168 -31.0168 -31.0126 -31.0126
     8.1314   8.1424   8.1597   8.1953   8.2273   8.2435   8.2626   8.3232
     8.3353   8.4169   8.4415   8.4938   8.5115   8.5213   8.6071   8.6657
     8.7699   8.8534   9.1437   9.1513   9.1526   9.2032   9.2162   9.2257
     9.2518   9.2593   9.2606   9.3077   9.3309   9.3503   9.3766   9.5711
     9.5749   9.6878   9.6933   9.7196   9.7533   9.7741   9.7955   9.8463
     9.8652   9.9419  10.0300  10.0351  10.0369  10.0553  10.1564  10.1662
    10.2995  10.4794  10.5148  10.5427  10.5500  10.6003  10.7006  10.7020
    10.7419  11.0132  11.1471  11.1635  11.2190  11.2353  11.2774  11.3945
    11.4484  11.4713  11.4937  11.5095  11.5642  11.5663  11.5681  11.5840
    11.5872  11.5959  11.6376  11.6421  11.6674  11.6691  11.7088  11.7405
    11.7869  11.8136  11.8254  11.8619  11.9676  12.0185  12.1179  12.1848
    12.2369  12.2801  12.4089  12.4149  12.4206  12.4310  12.4726  12.4918
    12.5293  12.5375  12.5874  12.5998  12.6038  12.6600  12.6673  12.7441
    12.7767  12.8097  12.8135  12.8490  12.8648  12.9406  12.9469  12.9906
    13.0062  13.1020  13.1067  13.1445  13.2060  13.3433  13.3783  13.6290
    13.7487  13.9525  14.0040  14.3379  14.4130  14.4672  14.5295  14.7731
    14.8688  16.5203  16.7296  16.8148  16.8149  16.8369  16.8452  16.8753
    16.8786  16.9042  17.5500  17.5713  17.5713  17.9115  17.9558  17.9884
    19.5841  19.6594

          k = 0.0000-0.5000 0.0242 ( 13918 PWs)   bands (ev):

   -66.8346 -66.8346 -66.7324 -66.7324 -66.6044 -62.2010 -62.1936 -62.1936
   -35.5986 -35.5986 -35.5621 -35.5621 -35.5498 -35.5498 -35.4981 -35.4981
   -35.4613 -35.4613 -35.4489 -35.4489 -35.3823 -35.3295 -35.3171 -31.0367
   -31.0286 -31.0286 -31.0222 -31.0206 -31.0168 -31.0168 -31.0126 -31.0126
     8.1318   8.1378   8.1711   8.1909   8.2213   8.2353   8.2806   8.3057
     8.3529   8.4087   8.4462   8.4903   8.4933   8.5435   8.6043   8.6657
     8.7689   8.8538   9.1408   9.1447   9.1526   9.2083   9.2152   9.2293
     9.2593   9.2606   9.2648   9.3077   9.3414   9.3532   9.3536   9.5440
     9.5847   9.6878   9.7031   9.7348   9.7564   9.7652   9.7746   9.8440
     9.9024   9.9500  10.0144  10.0351  10.0369  10.0553  10.1473  10.1820
    10.3106  10.3858  10.4828  10.5148  10.5992  10.7006  10.7020  10.7259
    10.7419  10.9984  11.0732  11.1911  11.2149  11.2362  11.2782  11.4027
    11.4190  11.4788  11.4942  11.5093  11.5449  11.5624  11.5699  11.5856
    11.5873  11.5889  11.6299  11.6541  11.6612  11.7359  11.7442  11.7455
    11.7857  11.8151  11.8352  11.8599  11.9571  11.9676  12.0755  12.1792
    12.2871  12.3177  12.3744  12.4091  12.4147  12.4310  12.4742  12.4828
    12.5414  12.5638  12.5665  12.5738  12.6090  12.6673  12.7115  12.7390
    12.7540  12.8098  12.8134  12.8648  12.8664  12.8789  12.9421  13.0074
    13.0709  13.1022  13.1067  13.1079  13.2337  13.2608  13.4607  13.6141
    13.6986  13.9927  14.0666  14.2290  14.3463  14.5233  14.6411  14.7404
    14.8421  16.5294  16.7160  16.8148  16.8149  16.8369  16.8509  16.8758
    16.8782  16.9042  17.5500  17.5713  17.5713  17.9146  17.9516  17.9898
    19.6111  19.6741

          k = 0.0000-0.5000-0.0484 ( 13892 PWs)   bands (ev):

   -66.8346 -66.8346 -66.7324 -66.7324 -66.6044 -62.2010 -62.1936 -62.1936
   -35.5986 -35.5986 -35.5621 -35.5621 -35.5498 -35.5498 -35.4981 -35.4981
   -35.4613 -35.4613 -35.4489 -35.4489 -35.3823 -35.3295 -35.3171 -31.0367
   -31.0286 -31.0286 -31.0221 -31.0206 -31.0168 -31.0168 -31.0126 -31.0126
     8.1323   8.1349   8.1875   8.1932   8.1942   8.2435   8.2911   8.2941
     8.3653   8.3997   8.4498   8.4792   8.4926   8.5563   8.6006   8.6656
     8.7680   8.8542   9.1339   9.1457   9.1526   9.2025   9.2068   9.2593
     9.2606   9.2626   9.2780   9.3078   9.3196   9.3303   9.3783   9.5157
     9.5957   9.6878   9.7109   9.7427   9.7468   9.7633   9.7729   9.8414
     9.9414   9.9598   9.9880  10.0351  10.0369  10.0553  10.1288  10.2599
    10.2600  10.3201  10.4862  10.5148  10.5981  10.7006  10.7020  10.7419
    10.8882  10.9340  10.9861  11.2112  11.2207  11.2371  11.2789  11.3877
    11.4084  11.4864  11.4953  11.5068  11.5428  11.5464  11.5736  11.5861
    11.5928  11.6024  11.6194  11.6354  11.6641  11.7473  11.7845  11.7877
    11.7947  11.8166  11.8579  11.8978  11.9040  11.9543  11.9676  12.2426
    12.2943  12.3175  12.3643  12.4093  12.4144  12.4311  12.4695  12.4766
    12.5423  12.5484  12.5610  12.5925  12.6142  12.6673  12.7324  12.7341
    12.7739  12.8098  12.8122  12.8134  12.8648  12.8814  12.9358  13.0399
    13.0646  13.1024  13.1067  13.1493  13.1787  13.2525  13.5250  13.6000
    13.6387  14.0661  14.1280  14.1679  14.2274  14.6354  14.6638  14.7350
    14.7857  16.5397  16.7020  16.8148  16.8149  16.8369  16.8559  16.8768
    16.8772  16.9042  17.5500  17.5713  17.5713  17.9184  17.9469  17.9909
    19.6491  19.6915

          k = 0.1250 0.1250 0.0000 ( 13839 PWs)   bands (ev):

   -66.8334 -66.8334 -66.7313 -66.7313 -66.6032 -62.2030 -62.1956 -62.1956
   -35.5994 -35.5994 -35.5522 -35.5522 -35.5521 -35.5521 -35.4990 -35.4990
   -35.4513 -35.4513 -35.4512 -35.4512 -35.3832 -35.3195 -35.3194 -31.0237
   -31.0235 -31.0233 -31.0180 -31.0180 -31.0156 -31.0156 -31.0154 -31.0154
     6.2392   6.3739   6.3905   6.7317   6.8704   7.3961   7.4291   7.9168
     8.3533   8.5837   8.6826   8.6827   8.7219   8.7393   8.7415   8.7566
     8.7608   8.8086   8.8899   9.0210   9.0672   9.1183   9.2856   9.3553
     9.3602   9.3890   9.3956   9.4727   9.5528   9.6103   9.6516   9.6977
     9.7960   9.8121   9.8193   9.8678   9.8780   9.8974   9.9117   9.9158
     9.9271   9.9388  10.0637  10.1424  10.1447  10.1477  10.1983  10.2237
    10.2928  10.3544  10.3571  10.3888  10.3966  10.3988  10.4526  10.5004
    10.5707  10.6080  10.6563  10.7072  10.7176  10.7292  10.7833  10.8079
    10.8698  10.8847  10.9246  11.0454  11.1177  11.1466  11.1677  11.1994
    11.2513  11.2564  11.2592  11.2820  11.3477  11.3781  11.3889  11.4042
    11.4436  11.4815  11.5155  11.5348  11.5780  11.5801  11.7506  11.7835
    11.8171  11.8309  11.8592  11.8802  11.9133  11.9597  11.9772  11.9969
    12.0436  12.1140  12.1520  12.2149  12.2975  12.3635  12.3958  12.4380
    12.5150  12.5222  12.5341  12.5961  12.6461  12.6578  12.7266  12.7505
    12.8464  12.8626  13.0060  13.1044  13.7928  14.4300  15.2906  15.5076
    16.3779  16.7844  16.7988  16.8529  16.8926  16.8954  16.9104  16.9561
    16.9699  16.9884  16.9999  17.0023  17.0205  17.6461  17.6790  18.2798
    18.6534  19.1745  19.2508  19.4039  19.4674  19.5925  19.6531  19.8443
    20.1279  20.1860

          k = 0.1250 0.1250 0.0242 ( 13842 PWs)   bands (ev):

   -66.8334 -66.8334 -66.7313 -66.7313 -66.6032 -62.2030 -62.1956 -62.1956
   -35.5994 -35.5994 -35.5522 -35.5522 -35.5521 -35.5521 -35.4990 -35.4990
   -35.4513 -35.4513 -35.4512 -35.4512 -35.3832 -35.3195 -35.3194 -31.0237
   -31.0235 -31.0233 -31.0180 -31.0180 -31.0156 -31.0156 -31.0154 -31.0154
     6.2481   6.3201   6.4603   6.6595   6.9552   7.2520   7.5748   7.8587
     8.4010   8.5826   8.6398   8.6678   8.6827   8.7406   8.7576   8.7578
     8.8082   8.8387   8.8751   8.9935   9.0674   9.1481   9.2723   9.3232
     9.3496   9.4074   9.4415   9.4650   9.5390   9.5930   9.6550   9.7187
     9.7861   9.8091   9.8317   9.8630   9.8784   9.8974   9.9058   9.9163
     9.9243   9.9389  10.0810  10.1427  10.1444  10.1477  10.1700  10.2318
    10.2956  10.3544  10.3551  10.3969  10.3986  10.4064  10.4525  10.4859
    10.5722  10.6079  10.6600  10.7018  10.7311  10.7325  10.7785  10.8171
    10.8265  10.8804  10.9671  11.0422  11.1174  11.1342  11.1498  11.2054
    11.2585  11.2752  11.2764  11.2943  11.3370  11.3753  11.3810  11.3817
    11.4206  11.4622  11.5173  11.5704  11.5799  11.6007  11.7632  11.7842
    11.8200  11.8254  11.8482  11.8728  11.9130  11.9185  11.9631  12.0277
    12.0599  12.1194  12.1541  12.2418  12.2747  12.3593  12.3666  12.4575
    12.5137  12.5350  12.5379  12.5968  12.6262  12.6710  12.7436  12.7501
    12.8429  12.8615  12.9148  13.2205  13.7076  14.5471  15.0885  15.6698
    16.3391  16.7971  16.7984  16.8539  16.8674  16.8946  16.9292  16.9627
    16.9712  16.9885  16.9998  17.0024  17.0130  17.6080  17.7603  18.1188
    18.8740  19.1803  19.2715  19.3569  19.4726  19.5392  19.7409  19.7962
    19.8089  20.2527

[...]
    11.5793  11.6739  11.6813  11.6839  11.8481  11.8624  11.8851  11.8956
    11.9321  11.9875  12.0100  12.0318  12.0624  12.1018  12.1256  12.2476
    12.2616  12.3438  12.4020  12.4257  12.4453  12.4646  12.4821  12.8332
    12.8531  12.8985  13.0498  13.0882  13.1618  13.2899  13.4236  13.7325
    13.7534  13.8559  14.1488  14.2552  14.3554  14.6102  14.6537  14.6749
    14.9242  15.0020  15.4652  15.6966  15.9885  16.1535  16.2602  16.9202
    16.9705  17.0111  17.0740  17.0817  17.0917  17.1458  17.1548  17.1829
    17.3667  17.4790  17.5253  17.7073  17.7242  17.8605  17.8677  17.9507
    18.0567  18.1211  18.1556  18.1936  18.3210  18.4124  18.4912  18.5115
    19.7782  19.9541

          k = 0.3750 0.3750 0.0000 ( 13948 PWs)   bands (ev):

   -66.8283 -66.8006 -66.8006 -62.2080 -62.2080 -62.1284 -62.1284 -62.0382
   -35.5956 -35.5664 -35.5664 -35.5546 -35.5545 -35.5283 -35.5283 -35.5282
   -35.5282 -31.0395 -31.0395 -31.0393 -31.0393 -31.0271 -31.0271 -30.9610
   -30.9610 -30.9608 -30.9608 -30.9495 -30.9495 -30.8700 -30.8675 -30.8673
     8.1119   8.2041   8.3005   8.4601   8.5295   8.5643   8.7206   8.7278
     8.9717   9.0443   9.0562   9.1028   9.1387   9.1762   9.1915   9.2759
     9.3003   9.3112   9.3262   9.3546   9.3915   9.3920   9.4925   9.5040
     9.5073   9.5372   9.5541   9.5982   9.6765   9.6997   9.7027   9.8891
     9.9516   9.9720   9.9919  10.0001  10.0415  10.0416  10.0621  10.1316
    10.1496  10.1749  10.2218  10.2775  10.2953  10.3265  10.3326  10.4555
    10.5562  10.5588  10.5861  10.7288  10.7343  10.7642  10.8338  10.8362
    10.8719  10.8849  10.9896  11.0695  11.0785  11.1893  11.2122  11.2364
    11.2787  11.2818  11.3003  11.4575  11.4763  11.4857  11.5206  11.5373
    11.6062  11.6123  11.6338  11.6345  11.7829  11.9562  11.9636  11.9664
    11.9842  11.9948  11.9997  12.0171  12.0334  12.1002  12.1266  12.1391
    12.1888  12.2517  12.2687  12.2913  12.3255  12.4033  12.5045  12.5317
    12.7032  12.7049  13.0135  13.1096  13.3781  13.5210  13.7468  14.0298
    14.4796  14.6094  14.8507  14.8858  15.1017  15.1816  15.2189  15.3102
    15.4585  16.2293  16.3476  16.3518  16.4447  16.4907  16.5961  17.0400
    17.0614  17.1318  17.1390  17.1444  17.1654  17.3567  17.4640  17.6217
    17.6858  17.8029  17.8314  17.8651  17.8675  17.8926  18.0139  18.0666
    18.1134  18.2146  18.2447  18.2927  18.4723  18.5812  18.8479  18.8862
    18.8975  18.9750

          k = 0.3750 0.3750 0.0242 ( 13940 PWs)   bands (ev):

   -66.8283 -66.8006 -66.8006 -62.2080 -62.2080 -62.1284 -62.1284 -62.0382
   -35.5956 -35.5664 -35.5664 -35.5546 -35.5545 -35.5283 -35.5283 -35.5282
   -35.5282 -31.0395 -31.0395 -31.0393 -31.0393 -31.0271 -31.0271 -30.9610
   -30.9610 -30.9608 -30.9608 -30.9495 -30.9495 -30.8700 -30.8675 -30.8673
     8.1136   8.1976   8.3082   8.4611   8.5222   8.5760   8.6635   8.7875
     8.9660   9.0422   9.0615   9.0953   9.1267   9.1682   9.2123   9.2476
     9.2937   9.3268   9.3518   9.3768   9.3807   9.3977   9.4682   9.4751
     9.5110   9.5451   9.5737   9.6070   9.6435   9.6794   9.7639   9.8993
     9.8997   9.9871   9.9920   9.9994  10.0013  10.0605  10.0808  10.1360
    10.1818  10.1971  10.2164  10.2284  10.2810  10.3298  10.3687  10.4168
    10.5516  10.5567  10.6293  10.6899  10.7453  10.7933  10.8368  10.8380
    10.8688  10.8860  10.9428  11.0786  11.0908  11.1906  11.2057  11.2463
    11.2698  11.3005  11.3044  11.4540  11.4652  11.4839  11.5124  11.5421
    11.6027  11.6164  11.6307  11.6365  11.8036  11.9073  11.9643  11.9818
    11.9959  11.9997  12.0122  12.0165  12.0377  12.0929  12.0984  12.1579
    12.1987  12.2474  12.2713  12.2919  12.3117  12.4146  12.5013  12.5428
    12.6340  12.7849  12.9582  13.1618  13.3401  13.5505  13.7319  14.0373
    14.4589  14.6445  14.8084  14.9106  15.1075  15.1635  15.2351  15.3063
    15.4586  16.2302  16.3427  16.3485  16.4562  16.4939  16.5872  17.0457
    17.0606  17.1312  17.1388  17.1446  17.1656  17.3518  17.4515  17.6433
    17.6905  17.7998  17.8311  17.8654  17.8672  17.9000  17.9652  18.0289
    18.1661  18.2191  18.2971  18.3590  18.3994  18.6571  18.6725  18.7439
    18.8629  19.1408

          k = 0.3750 0.3750-0.0484 ( 13950 PWs)   bands (ev):

   -66.8283 -66.8006 -66.8006 -62.2080 -62.2080 -62.1284 -62.1284 -62.0382
   -35.5956 -35.5664 -35.5664 -35.5546 -35.5545 -35.5283 -35.5283 -35.5282
   -35.5282 -31.0395 -31.0395 -31.0393 -31.0393 -31.0271 -31.0271 -30.9610
   -30.9610 -30.9608 -30.9608 -30.9495 -30.9495 -30.8700 -30.8675 -30.8673
     8.1155   8.1916   8.3155   8.4622   8.5164   8.5917   8.6310   8.8191
     8.9587   9.0409   9.0664   9.0947   9.1007   9.1925   9.2057   9.2238
     9.3276   9.3289   9.3492   9.3504   9.4038   9.4444   9.4456   9.4615
     9.4660   9.5776   9.5889   9.5937   9.6251   9.6780   9.8256   9.8364
     9.9224   9.9576   9.9898   9.9922   9.9990  10.0599  10.1397  10.1403
    10.1677  10.1916  10.2092  10.2566  10.2594  10.3179  10.3837  10.3920
    10.5435  10.5673  10.6442  10.7059  10.7122  10.8377  10.8402  10.8520
    10.8656  10.8786  10.8868  11.0786  11.1030  11.1927  11.2008  11.2534
    11.2651  11.3012  11.3279  11.4399  11.4515  11.4973  11.4987  11.5455
    11.6004  11.6198  11.6282  11.6372  11.8431  11.8605  11.9651  11.9796
    11.9966  11.9997  12.0160  12.0427  12.0569  12.0593  12.0854  12.1673
    12.2094  12.2435  12.2732  12.2926  12.2984  12.4247  12.4975  12.5676
    12.5886  12.8624  12.8814  13.2157  13.2918  13.5778  13.7142  14.0446
    14.4426  14.6871  14.7660  14.9235  15.1165  15.1468  15.2475  15.3013
    15.4587  16.2311  16.3385  16.3453  16.4684  16.4970  16.5771  17.0527
    17.0587  17.1306  17.1386  17.1449  17.1659  17.3470  17.4405  17.6657
    17.6952  17.7958  17.8308  17.8662  17.8663  17.9085  17.9280  18.0054
    18.2069  18.2172  18.3353  18.3974  18.4817  18.5016  18.6116  18.7302
    18.8101  19.1732

          k = 0.3750-0.5000 0.0000 ( 13934 PWs)   bands (ev):

   -66.8284 -66.8006 -66.8006 -62.2078 -62.2078 -62.1281 -62.1281 -62.0380
   -35.5955 -35.5663 -35.5663 -35.5561 -35.5544 -35.5299 -35.5299 -35.5281
   -35.5281 -31.0416 -31.0416 -31.0392 -31.0392 -31.0269 -31.0269 -30.9631
   -30.9631 -30.9607 -30.9607 -30.9494 -30.9494 -30.8698 -30.8696 -30.8672
     8.2343   8.2570   8.3088   8.3442   8.3627   8.4759   8.7300   8.7746
     8.8465   9.0675   9.1351   9.1480   9.1778   9.1881   9.1917   9.2173
     9.2475   9.2516   9.2954   9.3030   9.3592   9.4008   9.4157   9.4187
     9.4797   9.5336   9.5888   9.6054   9.7001   9.7025   9.8442   9.8779
     9.9515   9.9707   9.9868  10.0043  10.0131  10.0151  10.1145  10.1601
    10.2024  10.2144  10.2646  10.3768  10.3924  10.3956  10.4437  10.5424
    10.5962  10.6626  10.7298  10.7839  10.8215  10.8362  10.8902  11.1114
    11.1301  11.1593  11.1642  11.1700  11.1994  11.2190  11.2462  11.3019
    11.4030  11.4453  11.4783  11.4902  11.5383  11.5719  11.6619  11.7159
    11.7219  11.7968  11.8103  11.8517  11.9192  11.9642  11.9728  12.0104
    12.0110  12.0686  12.1005  12.1166  12.1447  12.1516  12.1545  12.1987
    12.2268  12.2645  12.3188  12.3713  12.3842  12.3954  12.4845  12.9436
    13.0841  13.1175  13.1898  13.3428  13.5657  13.7251  13.9249  14.1526
    14.2615  14.3007  14.4249  14.4355  14.7110  14.7509  15.3390  15.4082
    15.4519  15.5351  15.7478  15.9812  16.7421  16.8112  16.9217  17.0527
    17.0629  17.0694  17.0840  17.0986  17.2225  17.2507  17.3066  17.6572
    17.7109  17.8297  17.8305  18.0061  18.0130  18.0183  18.1230  18.1357
    18.1507  18.4045  18.4313  18.4503  18.4918  18.6243  18.8143  18.8637
    18.9015  19.0885

          k = 0.3750-0.5000 0.0242 ( 13948 PWs)   bands (ev):

   -66.8284 -66.8006 -66.8006 -62.2078 -62.2078 -62.1281 -62.1281 -62.0380
   -35.5955 -35.5663 -35.5663 -35.5561 -35.5544 -35.5299 -35.5299 -35.5281
   -35.5281 -31.0416 -31.0416 -31.0392 -31.0392 -31.0269 -31.0269 -30.9631
   -30.9631 -30.9607 -30.9607 -30.9494 -30.9494 -30.8698 -30.8696 -30.8672
     8.2358   8.2579   8.3062   8.3374   8.3648   8.4890   8.7285   8.7308
     8.9049   9.0795   9.1026   9.1312   9.1434   9.1906   9.2130   9.2369
     9.2482   9.2535   9.2907   9.3116   9.3699   9.3940   9.4119   9.4244
     9.4797   9.5478   9.5481   9.6418   9.6556   9.7659   9.7903   9.9036
     9.9210   9.9696   9.9817  10.0142  10.0166  10.0448  10.1224  10.1667
    10.1867  10.2250  10.2706  10.3123  10.3245  10.4687  10.5051  10.5619
    10.5816  10.6426  10.7362  10.7704  10.7787  10.8163  10.9588  11.1116
    11.1318  11.1339  11.1585  11.1661  11.2043  11.2389  11.2477  11.3125
    11.4009  11.4092  11.4665  11.5083  11.5643  11.5659  11.6531  11.7171
    11.7277  11.7834  11.8226  11.8485  11.9216  11.9562  11.9774  12.0104
    12.0118  12.0654  12.1054  12.1144  12.1460  12.1507  12.1532  12.2004
    12.2197  12.2783  12.3191  12.3623  12.3908  12.3996  12.4725  12.9609
    13.0781  13.0864  13.2235  13.3334  13.5575  13.7370  13.9190  14.1610
    14.2332  14.3291  14.4263  14.4265  14.7101  14.7524  15.3399  15.4070
    15.4524  15.5320  15.7521  15.9797  16.7396  16.8187  16.9147  17.0528
    17.0661  17.0702  17.0841  17.0923  17.1924  17.2574  17.3656  17.5786
    17.7654  17.7801  17.8941  17.9985  17.9998  18.0255  18.1157  18.1406
    18.1642  18.3235  18.3798  18.5216  18.5472  18.6224  18.8452  18.8556
    18.9217  19.0772

          k = 0.3750-0.5000-0.0484 ( 13940 PWs)   bands (ev):

   -66.8284 -66.8006 -66.8006 -62.2078 -62.2078 -62.1281 -62.1281 -62.0380
   -35.5955 -35.5663 -35.5663 -35.5561 -35.5544 -35.5299 -35.5299 -35.5281
   -35.5281 -31.0416 -31.0416 -31.0392 -31.0392 -31.0269 -31.0269 -30.9631
   -30.9631 -30.9607 -30.9607 -30.9494 -30.9494 -30.8698 -30.8696 -30.8672
     8.2374   8.2589   8.3037   8.3312   8.3668   8.5029   8.7017   8.7270
     8.9674   9.0395   9.1035   9.1129   9.1407   9.1910   9.2123   9.2251
     9.2497   9.2826   9.2986   9.3026   9.3851   9.3934   9.4084   9.4143
     9.5000   9.5113   9.5757   9.6007   9.7202   9.7221   9.8219   9.8475
     9.9509   9.9684   9.9708  10.0152  10.0216  10.0653  10.1379  10.1641
    10.1878  10.2462  10.2581  10.2783  10.2798  10.5261  10.5396  10.5465
    10.6121  10.6224  10.6807  10.7702  10.7736  10.8080  11.0112  11.1005
    11.1117  11.1343  11.1504  11.1671  11.2074  11.2336  11.2811  11.3214
    11.3710  11.3985  11.4608  11.5239  11.5532  11.5912  11.6401  11.7182
    11.7349  11.7729  11.8329  11.8428  11.9247  11.9496  11.9798  12.0104
    12.0127  12.0629  12.1098  12.1124  12.1472  12.1497  12.1519  12.2032
    12.2133  12.2932  12.3193  12.3503  12.3928  12.4135  12.4555  12.9907
    13.0358  13.0887  13.2516  13.3199  13.5500  13.7487  13.9124  14.1750
    14.2083  14.3517  14.4138  14.4281  14.7092  14.7538  15.3408  15.4057
    15.4528  15.5290  15.7564  15.9782  16.7374  16.8268  16.9068  17.0527
    17.0704  17.0728  17.0836  17.0841  17.1741  17.2638  17.4558  17.4824
    17.7609  17.7951  17.9390  17.9767  17.9929  18.0291  18.1097  18.1457
    18.1826  18.2641  18.3617  18.5461  18.5825  18.6194  18.8471  18.9376
    18.9568  18.9692

          k =-0.5000-0.5000 0.0000 ( 13964 PWs)   bands (ev):

   -66.8284 -66.8006 -66.8006 -62.2076 -62.2076 -62.1280 -62.1280 -62.0378
   -35.5954 -35.5662 -35.5662 -35.5560 -35.5560 -35.5297 -35.5297 -35.5297
   -35.5297 -31.0414 -31.0414 -31.0414 -31.0414 -31.0268 -31.0268 -30.9629
   -30.9629 -30.9629 -30.9629 -30.9493 -30.9493 -30.8697 -30.8694 -30.8694
     8.1654   8.1707   8.2262   8.2715   8.2857   8.3993   8.6875   8.7726
     8.7765   8.9970   9.1676   9.1817   9.2132   9.2293   9.2597   9.2597
     9.2969   9.2969   9.3326   9.3326   9.4083   9.4553   9.4553   9.4581
     9.4611   9.4611   9.7034   9.7034   9.7045   9.7045   9.8513   9.9486
     9.9486   9.9555   9.9555   9.9556   9.9556   9.9824  10.0469  10.0594
    10.0594  10.0777  10.0777  10.5071  10.5170  10.5170  10.5719  10.5719
    10.6036  10.6200  10.6982  10.7029  10.9798  10.9798  11.1789  11.1861
    11.1966  11.2124  11.2838  11.2838  11.2901  11.3268  11.3985  11.4162
    11.4162  11.7248  11.7248  11.9219  11.9219  11.9565  11.9565  11.9656
    11.9854  11.9861  12.0048  12.0048  12.0465  12.0465  12.0525  12.0558
    12.0784  12.0792  12.1045  12.1046  12.1447  12.1758  12.1840  12.1936
    12.1936  12.2020  12.2344  12.2649  12.2874  12.3443  12.3948  13.3999
    13.4117  13.4234  13.4389  13.4534  13.8829  13.8829  14.0988  14.0988
    14.2108  14.2108  14.4461  14.4461  14.7674  14.7674  15.8601  15.8601
    15.9347  15.9347  16.0251  16.0251  16.5982  16.6264  16.6934  16.7701
    16.9123  16.9479  17.0235  17.2829  17.3044  17.3044  17.5865  17.5865
    17.7558  17.7873  17.8540  17.8696  18.0406  18.0406  18.1188  18.1188
    18.2195  18.2233  18.2233  18.2245  18.2313  18.2936  18.2953  18.2953
    18.6789  18.7487

          k =-0.5000-0.5000 0.0242 ( 13960 PWs)   bands (ev):

   -66.8284 -66.8006 -66.8006 -62.2076 -62.2076 -62.1280 -62.1280 -62.0378
   -35.5954 -35.5662 -35.5662 -35.5560 -35.5560 -35.5297 -35.5297 -35.5297
   -35.5297 -31.0414 -31.0414 -31.0414 -31.0414 -31.0268 -31.0268 -30.9629
   -30.9629 -30.9629 -30.9629 -30.9493 -30.9493 -30.8697 -30.8694 -30.8694
     8.1668   8.1716   8.2236   8.2654   8.2879   8.4098   8.6851   8.7043
     8.8645   9.0164   9.0766   9.1396   9.2609   9.2609   9.2623   9.2909
     9.2909   9.3043   9.3447   9.3447   9.3932   9.4158   9.4158   9.4363
     9.5086   9.5086   9.6314   9.6314   9.7839   9.7839   9.8602   9.9486
     9.9486   9.9551   9.9551   9.9556   9.9556   9.9666   9.9666   9.9723
    10.0511  10.1777  10.1777  10.4156  10.4156  10.5133  10.5791  10.6434
    10.6752  10.6752  10.6979  10.6982  10.9258  10.9258  11.1788  11.1864
    11.1965  11.2131  11.2882  11.3251  11.3251  11.3281  11.3985  11.4162
    11.4162  11.6799  11.6799  11.9565  11.9565  11.9600  11.9600  11.9656
    11.9854  11.9861  12.0048  12.0048  12.0465  12.0465  12.0525  12.0558
    12.0784  12.0792  12.1045  12.1046  12.1447  12.1762  12.1815  12.1815
    12.1833  12.2022  12.2305  12.2716  12.2874  12.3399  12.3963  13.4001
    13.4109  13.4242  13.4387  13.4534  13.8984  13.8984  14.0540  14.0540
    14.2516  14.2516  14.4341  14.4341  14.7682  14.7682  15.8603  15.8603
    15.9340  15.9340  16.0258  16.0258  16.5972  16.6302  16.6840  16.7883
    16.9068  16.9123  17.0734  17.2520  17.2856  17.2856  17.6539  17.6539
    17.7637  17.8239  17.8338  17.8928  18.0175  18.0175  18.0406  18.0406
    18.0987  18.1188  18.1188  18.2185  18.2313  18.4142  18.5235  18.5235
    18.6448  18.7497

          k =-0.5000-0.5000-0.0484 ( 13992 PWs)   bands (ev):

   -66.8284 -66.8006 -66.8006 -62.2076 -62.2076 -62.1280 -62.1280 -62.0378
   -35.5954 -35.5662 -35.5662 -35.5560 -35.5560 -35.5297 -35.5297 -35.5297
   -35.5297 -31.0414 -31.0414 -31.0414 -31.0414 -31.0268 -31.0268 -30.9629
   -30.9629 -30.9629 -30.9629 -30.9493 -30.9493 -30.8697 -30.8694 -30.8694
     8.1683   8.1725   8.2211   8.2597   8.2899   8.4205   8.6755   8.6827
     8.9415   8.9972   9.0665   9.0698   9.2624   9.2624   9.2860   9.2860
     9.3145   9.3615   9.3615   9.3655   9.3760   9.3834   9.3907   9.3907
     9.5646   9.5646   9.5681   9.5681   9.8692   9.8692   9.8702   9.8734
     9.8734   9.9487   9.9487   9.9556   9.9556   9.9556   9.9556   9.9617
    10.0545  10.2786  10.2786  10.3096  10.3096  10.5223  10.5615  10.6597
    10.6903  10.6982  10.7727  10.7727  10.8415  10.8415  11.1786  11.1867
    11.1963  11.2139  11.2864  11.3292  11.3669  11.3669  11.3985  11.4162
    11.4162  11.6368  11.6368  11.9565  11.9565  11.9656  11.9854  11.9861
    11.9941  11.9941  12.0048  12.0048  12.0465  12.0465  12.0525  12.0558
    12.0784  12.0792  12.1045  12.1046  12.1447  12.1665  12.1665  12.1767
    12.1826  12.2024  12.2275  12.2779  12.2874  12.3352  12.3977  13.4005
    13.4101  13.4249  13.4384  13.4534  13.9217  13.9217  14.0119  14.0119
    14.2852  14.2852  14.4188  14.4188  14.7690  14.7690  15.8605  15.8605
    15.9332  15.9332  16.0266  16.0266  16.5964  16.6348  16.6752  16.8133
    16.8701  16.9123  17.1257  17.2069  17.2702  17.2702  17.7801  17.7970
    17.8097  17.8097  17.8138  17.8138  17.9042  17.9270  17.9751  18.0406
    18.0406  18.1188  18.1188  18.2174  18.2313  18.5220  18.5740  18.7510
    18.7732  18.7732

     the Fermi energy is    15.3021 ev

!    total energy              =  -14693.99700183 Ry
     Harris-Foulkes estimate   =  -14693.99699511 Ry
     estimated scf accuracy    <       0.00000032 Ry

     total all-electron energy =   -626921.592724 Ry

     The total energy is the sum of the following terms:

     one-electron contribution =    -714.31250429 Ry
     hartree contribution      =     656.41847748 Ry
     xc contribution           =    -737.89963110 Ry
     ewald contribution        =   -2196.78933708 Ry
     Hubbard energy            =       0.44243366 Ry
     one-center paw contrib.   =  -11701.85644050 Ry

     total magnetization       =     8.75 Bohr mag/cell
     absolute magnetization    =    37.35 Bohr mag/cell

     convergence has been achieved in  24 iterations

     Writing output data file mnau2.save/
 
     init_run     :     69.25s CPU     70.79s WALL (       1 calls)
     electrons    :   3806.95s CPU   3888.91s WALL (       1 calls)

     Called by init_run:
     wfcinit      :     65.14s CPU     66.44s WALL (       1 calls)
     potinit      :      1.80s CPU      1.85s WALL (       1 calls)
     hinit0       :      1.34s CPU      1.42s WALL (       1 calls)

     Called by electrons:
     c_bands      :   3421.66s CPU   3490.14s WALL (      24 calls)
     sum_band     :    343.40s CPU    355.48s WALL (      24 calls)
     v_of_rho     :      2.84s CPU      2.86s WALL (      25 calls)
     newd         :     12.13s CPU     12.26s WALL (      25 calls)
     PAW_pot      :     27.70s CPU     27.92s WALL (      25 calls)
     mix_rho      :      0.61s CPU      0.66s WALL (      24 calls)

     Called by c_bands:
     init_us_2    :      9.25s CPU      9.32s WALL (    4500 calls)
     cegterg      :   3313.60s CPU   3380.79s WALL (    2160 calls)

     Called by sum_band:
     sum_band:bec :      5.08s CPU      5.12s WALL (    2160 calls)
     addusdens    :     15.74s CPU     15.83s WALL (      24 calls)

     Called by *egterg:
     h_psi        :   1209.49s CPU   1243.41s WALL (    8435 calls)
     s_psi        :    234.34s CPU    234.51s WALL (    8525 calls)
     g_psi        :      2.99s CPU      3.02s WALL (    6185 calls)
     cdiaghg      :   1236.17s CPU   1267.92s WALL (    8345 calls)

     Called by h_psi:
     h_psi:pot    :   1083.49s CPU   1116.62s WALL (    8435 calls)
     h_psi:calbec :    287.87s CPU    302.27s WALL (    8435 calls)
     vloc_psi     :    566.40s CPU    584.98s WALL (    8435 calls)
     add_vuspsi   :    229.03s CPU    229.24s WALL (    8435 calls)
     vhpsi        :    123.34s CPU    124.09s WALL (    8435 calls)

     General routines
     calbec       :    519.65s CPU    541.91s WALL (   21280 calls)
     fft          :      2.00s CPU      2.01s WALL (     621 calls)
     ffts         :      0.07s CPU      0.07s WALL (      98 calls)
     fftw         :    660.50s CPU    682.03s WALL ( 2057640 calls)
     interpolate  :      0.19s CPU      0.19s WALL (      50 calls)
     davcio       :      0.01s CPU      4.86s WALL (      90 calls)
 
     Parallel routines
     fft_scatt_xy :     50.56s CPU     52.14s WALL ( 2058359 calls)
     fft_scatt_yz :    372.07s CPU    384.12s WALL ( 2058359 calls)

     Hubbard U routines
     new_ns       :     19.26s CPU     20.12s WALL (      24 calls)
     vhpsi        :    123.34s CPU    124.09s WALL (    8435 calls)
 
     PWSCF        :     1h 5m CPU        5h 1m WALL

       7h
 
   This run was terminated on:  15: 6:44   8Apr2019            

=------------------------------------------------------------------------------=
   JOB DONE.
=------------------------------------------------------------------------------=
