
     Program PWSCF v.6.3MaX starts on  8Apr2019 at 15: 6:47 

     This program is part of the open-source Quantum ESPRESSO suite
     for quantum simulation of materials; please cite
         "P. Giannozzi et al., J. Phys.:Condens. Matter 21 395502 (2009);
         "P. Giannozzi et al., J. Phys.:Condens. Matter 29 465901 (2017);
          URL http://www.quantum-espresso.org", 
     in publications or presentations arising from this work. More details at
     http://www.quantum-espresso.org/quote

     Parallel version (MPI), running on    32 processors

     MPI processes distributed on     1 nodes
     R & G space division:  proc/nbgrp/npool/nimage =      32
     Waiting for input...
     Reading input from standard input

     Current dimensions of program PWSCF are:
     Max number of different atomic species (ntypx) = 10
     Max number of k-points (npk) =  40000
     Max angular momentum in pseudopotentials (lmaxx) =  3
               file Mn.pbe-spn-kjpaw_psl.0.3.1.UPF: wavefunction(s)  3P 3D renormalized
               file Mn.pbe-spn-kjpaw_psl.0.3.1.UPF: wavefunction(s)  3P 3D renormalized
               file Au.pbe-dn-kjpaw_psl.0.1.UPF: wavefunction(s)  6S 6P 5D renormalized

     Subspace diagonalization in iterative solution of the eigenvalue problem:
     one sub-group per band group will be used
     scalapack distributed-memory algorithm (size of sub-group:  4*  4 procs)

 
     Parallelization info
     --------------------
     sticks:   dense  smooth     PW     G-vecs:    dense   smooth      PW
     Min          41      18      5                11487     3460     563
     Max          42      19      6                11527     3505     606
     Sum        1313     593    177               368373   111379   18691
 


     bravais-lattice index     =            0
     lattice parameter (alat)  =       6.4153  a.u.
     unit-cell volume          =    2724.7774 (a.u.)^3
     number of atoms/cell      =           24
     number of atomic types    =            3
     number of electrons       =       296.00
     number of Kohn-Sham states=          178
     kinetic-energy cutoff     =      45.0000  Ry
     charge density cutoff     =     400.0000  Ry
     convergence threshold     =      1.0E-06
     mixing beta               =       0.1000
     number of iterations used =            8  plain     mixing
     Exchange-correlation      = SLA PW PBX PBC ( 1  4  3  4 0 0)

     celldm(1)=   6.415315  celldm(2)=   0.000000  celldm(3)=   0.000000
     celldm(4)=   0.000000  celldm(5)=   0.000000  celldm(6)=   0.000000

     crystal axes: (cart. coord. in units of alat)
               a(1) = (   1.000000   0.000000   0.000000 )  
               a(2) = (   0.000000   1.000000   0.000000 )  
               a(3) = (   0.000000   0.000000  10.319937 )  

     reciprocal axes: (cart. coord. in units 2 pi/alat)
               b(1) = (  1.000000  0.000000  0.000000 )  
               b(2) = (  0.000000  1.000000  0.000000 )  
               b(3) = (  0.000000  0.000000  0.096900 )  


     PseudoPot. # 1 for Mn read from file:
     ./pseudo/Mn.pbe-spn-kjpaw_psl.0.3.1.UPF
     MD5 check sum: 7b43a3fb0e93e198b8dd8488d8cf503e
     Pseudo is Projector augmented-wave + core cor, Zval = 15.0
     Generated using "atomic" code by A. Dal Corso v.5.0.99 svn rev. 10869
     Shape of augmentation charge: PSQ
     Using radial grid of 1187 points,  6 beta functions with: 
                l(1) =   0
                l(2) =   0
                l(3) =   1
                l(4) =   1
                l(5) =   2
                l(6) =   2
     Q(r) pseudized with 0 coefficients 


     PseudoPot. # 2 for Mn read from file:
     ./pseudo/Mn.pbe-spn-kjpaw_psl.0.3.1.UPF
     MD5 check sum: 7b43a3fb0e93e198b8dd8488d8cf503e
     Pseudo is Projector augmented-wave + core cor, Zval = 15.0
     Generated using "atomic" code by A. Dal Corso v.5.0.99 svn rev. 10869
     Shape of augmentation charge: PSQ
     Using radial grid of 1187 points,  6 beta functions with: 
                l(1) =   0
                l(2) =   0
                l(3) =   1
                l(4) =   1
                l(5) =   2
                l(6) =   2
     Q(r) pseudized with 0 coefficients 


     PseudoPot. # 3 for Au read from file:
     ./pseudo/Au.pbe-dn-kjpaw_psl.0.1.UPF
     MD5 check sum: be11e2e8e535ebe2b3ccfb4f88f554cb
     Pseudo is Projector augmented-wave + core cor, Zval = 11.0
     Generated using "atomic" code by A. Dal Corso v.5.0.2 svn rev. 9415
     Shape of augmentation charge: PSQ
     Using radial grid of 1279 points,  6 beta functions with: 
                l(1) =   0
                l(2) =   0
                l(3) =   1
                l(4) =   1
                l(5) =   2
                l(6) =   2
     Q(r) pseudized with 0 coefficients 


     atomic species   valence    mass     pseudopotential
        Mn1           15.00    54.93800     Mn( 1.00)
        Mn2           15.00    54.93800     Mn( 1.00)
        Au            11.00   196.96600     Au( 1.00)

     Starting magnetic structure 
     atomic species   magnetization
        Mn1          0.800
        Mn2         -0.800
        Au           0.000


     Full LDA+U calculation (l_max = 2) with parameters (eV):
     U(  1) =   3.1200   J(  1) =   0.7000   B(  1) =   0.0803
     U(  2) =   3.1200   J(  2) =   0.7000   B(  2) =   0.0803



      8 Sym. Ops. (no inversion) found



   Cartesian axes

     site n.     atom                  positions (alat units)
         1           Mn1 tau(   1) = (   0.0000000   0.0000000   0.0000000  )
         2           Mn1 tau(   2) = (   0.5000000   0.5000000   1.2899921  )
         3           Mn1 tau(   3) = (   0.0000000   0.0000000   2.5799843  )
         4           Mn2 tau(   4) = (   0.5000000   0.5000000   3.8699764  )
         5           Mn1 tau(   5) = (   0.0000000   0.0000000   5.1599686  )
         6           Mn2 tau(   6) = (   0.5000000   0.5000000   6.4499607  )
         7           Mn2 tau(   7) = (   0.0000000   0.0000000   7.7399528  )
         8           Mn2 tau(   8) = (   0.5000000   0.5000000   9.0299450  )
         9           Au  tau(   9) = (   0.5000000   0.5000000   0.4127975  )
        10           Au  tau(  10) = (   0.0000000   0.0000000   0.8771947  )
        11           Au  tau(  11) = (   0.0000000   0.0000000   1.7027896  )
        12           Au  tau(  12) = (   0.5000000   0.5000000   2.1671868  )
        13           Au  tau(  13) = (   0.5000000   0.5000000   2.9927818  )
        14           Au  tau(  14) = (   0.0000000   0.0000000   3.4571789  )
        15           Au  tau(  15) = (   0.0000000   0.0000000   4.2827739  )
        16           Au  tau(  16) = (   0.5000000   0.5000000   4.7471711  )
        17           Au  tau(  17) = (   0.5000000   0.5000000   5.5727660  )
        18           Au  tau(  18) = (   0.0000000   0.0000000   6.0371632  )
        19           Au  tau(  19) = (   0.0000000   0.0000000   6.8627582  )
        20           Au  tau(  20) = (   0.5000000   0.5000000   7.3271553  )
        21           Au  tau(  21) = (   0.5000000   0.5000000   8.1527503  )
        22           Au  tau(  22) = (   0.0000000   0.0000000   8.6171475  )
        23           Au  tau(  23) = (   0.0000000   0.0000000   9.4427424  )
        24           Au  tau(  24) = (   0.5000000   0.5000000   9.9071396  )

     number of k points=    45 (tetrahedron method)
                       cart. coord. in units 2pi/alat
        k(    1) = (   0.0000000   0.0000000   0.0000000), wk =   0.0039062
        k(    2) = (   0.0000000   0.0000000   0.0242250), wk =   0.0078125
        k(    3) = (   0.0000000   0.0000000  -0.0484499), wk =   0.0039062
        k(    4) = (   0.0000000   0.1250000   0.0000000), wk =   0.0156250
        k(    5) = (   0.0000000   0.1250000   0.0242250), wk =   0.0312500
        k(    6) = (   0.0000000   0.1250000  -0.0484499), wk =   0.0156250
        k(    7) = (   0.0000000   0.2500000   0.0000000), wk =   0.0156250
        k(    8) = (   0.0000000   0.2500000   0.0242250), wk =   0.0312500
        k(    9) = (   0.0000000   0.2500000  -0.0484499), wk =   0.0156250
        k(   10) = (   0.0000000   0.3750000   0.0000000), wk =   0.0156250
        k(   11) = (   0.0000000   0.3750000   0.0242250), wk =   0.0312500
        k(   12) = (   0.0000000   0.3750000  -0.0484499), wk =   0.0156250
        k(   13) = (   0.0000000  -0.5000000   0.0000000), wk =   0.0078125
        k(   14) = (   0.0000000  -0.5000000   0.0242250), wk =   0.0156250
        k(   15) = (   0.0000000  -0.5000000  -0.0484499), wk =   0.0078125
        k(   16) = (   0.1250000   0.1250000   0.0000000), wk =   0.0156250
        k(   17) = (   0.1250000   0.1250000   0.0242250), wk =   0.0312500
        k(   18) = (   0.1250000   0.1250000  -0.0484499), wk =   0.0156250
        k(   19) = (   0.1250000   0.2500000   0.0000000), wk =   0.0312500
        k(   20) = (   0.1250000   0.2500000   0.0242250), wk =   0.0625000
        k(   21) = (   0.1250000   0.2500000  -0.0484499), wk =   0.0312500
        k(   22) = (   0.1250000   0.3750000   0.0000000), wk =   0.0312500
        k(   23) = (   0.1250000   0.3750000   0.0242250), wk =   0.0625000
        k(   24) = (   0.1250000   0.3750000  -0.0484499), wk =   0.0312500
        k(   25) = (   0.1250000  -0.5000000   0.0000000), wk =   0.0156250
        k(   26) = (   0.1250000  -0.5000000   0.0242250), wk =   0.0312500
        k(   27) = (   0.1250000  -0.5000000  -0.0484499), wk =   0.0156250
        k(   28) = (   0.2500000   0.2500000   0.0000000), wk =   0.0156250
        k(   29) = (   0.2500000   0.2500000   0.0242250), wk =   0.0312500
        k(   30) = (   0.2500000   0.2500000  -0.0484499), wk =   0.0156250
        k(   31) = (   0.2500000   0.3750000   0.0000000), wk =   0.0312500
        k(   32) = (   0.2500000   0.3750000   0.0242250), wk =   0.0625000
        k(   33) = (   0.2500000   0.3750000  -0.0484499), wk =   0.0312500
        k(   34) = (   0.2500000  -0.5000000   0.0000000), wk =   0.0156250
        k(   35) = (   0.2500000  -0.5000000   0.0242250), wk =   0.0312500
        k(   36) = (   0.2500000  -0.5000000  -0.0484499), wk =   0.0156250
        k(   37) = (   0.3750000   0.3750000   0.0000000), wk =   0.0156250
        k(   38) = (   0.3750000   0.3750000   0.0242250), wk =   0.0312500
        k(   39) = (   0.3750000   0.3750000  -0.0484499), wk =   0.0156250
        k(   40) = (   0.3750000  -0.5000000   0.0000000), wk =   0.0156250
        k(   41) = (   0.3750000  -0.5000000   0.0242250), wk =   0.0312500
        k(   42) = (   0.3750000  -0.5000000  -0.0484499), wk =   0.0156250
        k(   43) = (  -0.5000000  -0.5000000   0.0000000), wk =   0.0039062
        k(   44) = (  -0.5000000  -0.5000000   0.0242250), wk =   0.0078125
        k(   45) = (  -0.5000000  -0.5000000  -0.0484499), wk =   0.0039062

     Dense  grid:   368373 G-vectors     FFT dimensions: (  45,  45, 432)

     Smooth grid:   111379 G-vectors     FFT dimensions: (  27,  27, 288)

     Estimated max dynamical RAM per process >     186.81 MB

     Estimated total dynamical RAM >       5.84 GB
     Generating pointlists ...
     new r_m :   0.3377 (alat units)  2.1668 (a.u.) for type    1
     new r_m :   0.3377 (alat units)  2.1668 (a.u.) for type    2
     new r_m :   0.3377 (alat units)  2.1668 (a.u.) for type    3

     Check: negative/imaginary core charge=   -0.000006    0.000000

     Initial potential from superposition of free atoms

     starting charge  295.99426, renormalised to  296.00000
     Number of +U iterations with fixed ns =  0
     Starting occupations:
 --- enter write_ns ---
 LDA+U parameters:
U(  1) =   3.1200   J(  1) =   0.7000   B(  1) =   0.0803
U(  2) =   3.1200   J(  2) =   0.7000   B(  2) =   0.0803
atom    1   Tr[ns(na)] (up, down, total) =   5.00000  0.00000  5.00000
   spin  1
    eigenvalues: 
  1.000  1.000  1.000  1.000  1.000
    eigenvectors:
  1.000  0.000  0.000  0.000  0.000
  0.000  1.000  0.000  0.000  0.000
  0.000  0.000  1.000  0.000  0.000
  0.000  0.000  0.000  1.000  0.000
  0.000  0.000  0.000  0.000  1.000
    occupations:
  1.000  0.000  0.000  0.000  0.000
  0.000  1.000  0.000  0.000  0.000
  0.000  0.000  1.000  0.000  0.000
  0.000  0.000  0.000  1.000  0.000
  0.000  0.000  0.000  0.000  1.000
   spin  2
    eigenvalues: 
  0.000  0.000  0.000  0.000  0.000
    eigenvectors:
  1.000  0.000  0.000  0.000  0.000
  0.000  1.000  0.000  0.000  0.000
  0.000  0.000  1.000  0.000  0.000
  0.000  0.000  0.000  1.000  0.000
  0.000  0.000  0.000  0.000  1.000
    occupations:
  0.000  0.000  0.000  0.000  0.000
  0.000  0.000  0.000  0.000  0.000
  0.000  0.000  0.000  0.000  0.000
  0.000  0.000  0.000  0.000  0.000
  0.000  0.000  0.000  0.000  0.000
atomic mag. moment =     5.000000
atom    2   Tr[ns(na)] (up, down, total) =   5.00000  0.00000  5.00000
   spin  1
    eigenvalues: 
  1.000  1.000  1.000  1.000  1.000
    eigenvectors:
  1.000  0.000  0.000  0.000  0.000
  0.000  1.000  0.000  0.000  0.000
  0.000  0.000  1.000  0.000  0.000
  0.000  0.000  0.000  1.000  0.000
  0.000  0.000  0.000  0.000  1.000
    occupations:
  1.000  0.000  0.000  0.000  0.000
  0.000  1.000  0.000  0.000  0.000
  0.000  0.000  1.000  0.000  0.000
  0.000  0.000  0.000  1.000  0.000
  0.000  0.000  0.000  0.000  1.000
   spin  2
    eigenvalues: 
  0.000  0.000  0.000  0.000  0.000
    eigenvectors:
  1.000  0.000  0.000  0.000  0.000
  0.000  1.000  0.000  0.000  0.000
  0.000  0.000  1.000  0.000  0.000
  0.000  0.000  0.000  1.000  0.000
  0.000  0.000  0.000  0.000  1.000
    occupations:
  0.000  0.000  0.000  0.000  0.000
  0.000  0.000  0.000  0.000  0.000
  0.000  0.000  0.000  0.000  0.000
  0.000  0.000  0.000  0.000  0.000
  0.000  0.000  0.000  0.000  0.000
atomic mag. moment =     5.000000
atom    3   Tr[ns(na)] (up, down, total) =   5.00000  0.00000  5.00000
   spin  1
    eigenvalues: 
  1.000  1.000  1.000  1.000  1.000
    eigenvectors:
  1.000  0.000  0.000  0.000  0.000
  0.000  1.000  0.000  0.000  0.000
  0.000  0.000  1.000  0.000  0.000
  0.000  0.000  0.000  1.000  0.000
  0.000  0.000  0.000  0.000  1.000
    occupations:
  1.000  0.000  0.000  0.000  0.000
  0.000  1.000  0.000  0.000  0.000
  0.000  0.000  1.000  0.000  0.000
  0.000  0.000  0.000  1.000  0.000
  0.000  0.000  0.000  0.000  1.000
   spin  2
    eigenvalues: 
  0.000  0.000  0.000  0.000  0.000
    eigenvectors:
  1.000  0.000  0.000  0.000  0.000
  0.000  1.000  0.000  0.000  0.000
  0.000  0.000  1.000  0.000  0.000
  0.000  0.000  0.000  1.000  0.000
  0.000  0.000  0.000  0.000  1.000
    occupations:
  0.000  0.000  0.000  0.000  0.000
  0.000  0.000  0.000  0.000  0.000
  0.000  0.000  0.000  0.000  0.000
  0.000  0.000  0.000  0.000  0.000
  0.000  0.000  0.000  0.000  0.000
atomic mag. moment =     5.000000
atom    4   Tr[ns(na)] (up, down, total) =   0.00000  5.00000  5.00000
   spin  1
    eigenvalues: 
  0.000  0.000  0.000  0.000  0.000
    eigenvectors:
  1.000  0.000  0.000  0.000  0.000
  0.000  1.000  0.000  0.000  0.000
  0.000  0.000  1.000  0.000  0.000
  0.000  0.000  0.000  1.000  0.000
  0.000  0.000  0.000  0.000  1.000
    occupations:
  0.000  0.000  0.000  0.000  0.000
  0.000  0.000  0.000  0.000  0.000
  0.000  0.000  0.000  0.000  0.000
  0.000  0.000  0.000  0.000  0.000
  0.000  0.000  0.000  0.000  0.000
   spin  2
    eigenvalues: 
  1.000  1.000  1.000  1.000  1.000
    eigenvectors:
  1.000  0.000  0.000  0.000  0.000
  0.000  1.000  0.000  0.000  0.000
  0.000  0.000  1.000  0.000  0.000
  0.000  0.000  0.000  1.000  0.000
  0.000  0.000  0.000  0.000  1.000
    occupations:
  1.000  0.000  0.000  0.000  0.000
  0.000  1.000  0.000  0.000  0.000
  0.000  0.000  1.000  0.000  0.000
  0.000  0.000  0.000  1.000  0.000
  0.000  0.000  0.000  0.000  1.000
atomic mag. moment =    -5.000000
atom    5   Tr[ns(na)] (up, down, total) =   5.00000  0.00000  5.00000
   spin  1
    eigenvalues: 
  1.000  1.000  1.000  1.000  1.000
    eigenvectors:
  1.000  0.000  0.000  0.000  0.000
  0.000  1.000  0.000  0.000  0.000
  0.000  0.000  1.000  0.000  0.000
  0.000  0.000  0.000  1.000  0.000
  0.000  0.000  0.000  0.000  1.000
    occupations:
  1.000  0.000  0.000  0.000  0.000
  0.000  1.000  0.000  0.000  0.000
  0.000  0.000  1.000  0.000  0.000
  0.000  0.000  0.000  1.000  0.000
  0.000  0.000  0.000  0.000  1.000
   spin  2
    eigenvalues: 
  0.000  0.000  0.000  0.000  0.000
    eigenvectors:
  1.000  0.000  0.000  0.000  0.000
  0.000  1.000  0.000  0.000  0.000
  0.000  0.000  1.000  0.000  0.000
  0.000  0.000  0.000  1.000  0.000
  0.000  0.000  0.000  0.000  1.000
    occupations:
  0.000  0.000  0.000  0.000  0.000
  0.000  0.000  0.000  0.000  0.000
  0.000  0.000  0.000  0.000  0.000
  0.000  0.000  0.000  0.000  0.000
  0.000  0.000  0.000  0.000  0.000
atomic mag. moment =     5.000000
atom    6   Tr[ns(na)] (up, down, total) =   0.00000  5.00000  5.00000
   spin  1
    eigenvalues: 
  0.000  0.000  0.000  0.000  0.000
    eigenvectors:
  1.000  0.000  0.000  0.000  0.000
  0.000  1.000  0.000  0.000  0.000
  0.000  0.000  1.000  0.000  0.000
  0.000  0.000  0.000  1.000  0.000
  0.000  0.000  0.000  0.000  1.000
    occupations:
  0.000  0.000  0.000  0.000  0.000
  0.000  0.000  0.000  0.000  0.000
  0.000  0.000  0.000  0.000  0.000
  0.000  0.000  0.000  0.000  0.000
  0.000  0.000  0.000  0.000  0.000
   spin  2
    eigenvalues: 
  1.000  1.000  1.000  1.000  1.000
    eigenvectors:
  1.000  0.000  0.000  0.000  0.000
  0.000  1.000  0.000  0.000  0.000
  0.000  0.000  1.000  0.000  0.000
  0.000  0.000  0.000  1.000  0.000
  0.000  0.000  0.000  0.000  1.000
    occupations:
  1.000  0.000  0.000  0.000  0.000
  0.000  1.000  0.000  0.000  0.000
  0.000  0.000  1.000  0.000  0.000
  0.000  0.000  0.000  1.000  0.000
  0.000  0.000  0.000  0.000  1.000
atomic mag. moment =    -5.000000
atom    7   Tr[ns(na)] (up, down, total) =   0.00000  5.00000  5.00000
   spin  1
    eigenvalues: 
  0.000  0.000  0.000  0.000  0.000
    eigenvectors:
  1.000  0.000  0.000  0.000  0.000
  0.000  1.000  0.000  0.000  0.000
  0.000  0.000  1.000  0.000  0.000
  0.000  0.000  0.000  1.000  0.000
  0.000  0.000  0.000  0.000  1.000
    occupations:
  0.000  0.000  0.000  0.000  0.000
  0.000  0.000  0.000  0.000  0.000
  0.000  0.000  0.000  0.000  0.000
  0.000  0.000  0.000  0.000  0.000
  0.000  0.000  0.000  0.000  0.000
   spin  2
    eigenvalues: 
  1.000  1.000  1.000  1.000  1.000
    eigenvectors:
  1.000  0.000  0.000  0.000  0.000
  0.000  1.000  0.000  0.000  0.000
  0.000  0.000  1.000  0.000  0.000
  0.000  0.000  0.000  1.000  0.000
  0.000  0.000  0.000  0.000  1.000
    occupations:
  1.000  0.000  0.000  0.000  0.000
  0.000  1.000  0.000  0.000  0.000
  0.000  0.000  1.000  0.000  0.000
  0.000  0.000  0.000  1.000  0.000
  0.000  0.000  0.000  0.000  1.000
atomic mag. moment =    -5.000000
atom    8   Tr[ns(na)] (up, down, total) =   0.00000  5.00000  5.00000
   spin  1
    eigenvalues: 
  0.000  0.000  0.000  0.000  0.000
    eigenvectors:
  1.000  0.000  0.000  0.000  0.000
  0.000  1.000  0.000  0.000  0.000
  0.000  0.000  1.000  0.000  0.000
  0.000  0.000  0.000  1.000  0.000
  0.000  0.000  0.000  0.000  1.000
    occupations:
  0.000  0.000  0.000  0.000  0.000
  0.000  0.000  0.000  0.000  0.000
  0.000  0.000  0.000  0.000  0.000
  0.000  0.000  0.000  0.000  0.000
  0.000  0.000  0.000  0.000  0.000
   spin  2
    eigenvalues: 
  1.000  1.000  1.000  1.000  1.000
    eigenvectors:
  1.000  0.000  0.000  0.000  0.000
  0.000  1.000  0.000  0.000  0.000
  0.000  0.000  1.000  0.000  0.000
  0.000  0.000  0.000  1.000  0.000
  0.000  0.000  0.000  0.000  1.000
    occupations:
  1.000  0.000  0.000  0.000  0.000
  0.000  1.000  0.000  0.000  0.000
  0.000  0.000  1.000  0.000  0.000
  0.000  0.000  0.000  1.000  0.000
  0.000  0.000  0.000  0.000  1.000
atomic mag. moment =    -5.000000
N of occupied +U levels =   40.000000
 --- exit write_ns ---
 Atomic wfc used for LDA+U Projector are NOT orthogonalized
     Starting wfcs are  224 randomized atomic wfcs
     Checking if some PAW data can be deallocated... 

     total cpu time spent up to now is       80.8 secs

     Self-consistent Calculation

     iteration #  1     ecut=    45.00 Ry     beta= 0.10
     Davidson diagonalization with overlap
     ethr =  1.00E-02,  avg # of iterations =  4.2
 --- enter write_ns ---
 LDA+U parameters:
U(  1) =   3.1200   J(  1) =   0.7000   B(  1) =   0.0803
U(  2) =   3.1200   J(  2) =   0.7000   B(  2) =   0.0803
atom    1   Tr[ns(na)] (up, down, total) =   5.01747  0.40710  5.42456
   spin  1
    eigenvalues: 
  1.003  1.003  1.003  1.004  1.004
    eigenvectors:
  0.000  0.000  0.000  1.000  0.000
  0.000  0.311  0.689  0.000  0.000
  0.000  0.689  0.311  0.000  0.000
  0.000  0.000  0.000  0.000  1.000
  1.000  0.000  0.000  0.000  0.000
    occupations:
  1.004 -0.000 -0.000  0.000  0.000
 -0.000  1.003 -0.000  0.000  0.000
 -0.000 -0.000  1.003  0.000  0.000
  0.000  0.000  0.000  1.004 -0.000
  0.000  0.000  0.000 -0.000  1.003
   spin  2
    eigenvalues: 
  0.053  0.073  0.081  0.081  0.120
    eigenvectors:
  0.000  1.000  0.000  0.000  0.000
  0.000  0.000  0.417  0.583  0.000
  0.000  0.000  0.583  0.417  0.000
  1.000  0.000  0.000  0.000  0.000
  0.000  0.000  0.000  0.000  1.000
    occupations:
  0.073 -0.000 -0.000  0.000  0.000
 -0.000  0.081 -0.000  0.000  0.000
 -0.000 -0.000  0.081  0.000  0.000
  0.000  0.000  0.000  0.053 -0.000
  0.000  0.000  0.000 -0.000  0.120
atomic mag. moment =     4.610372
atom    2   Tr[ns(na)] (up, down, total) =   5.01770  0.40204  5.41973
   spin  1
    eigenvalues: 
  1.003  1.003  1.003  1.004  1.004
    eigenvectors:
  0.000  0.000  0.000  1.000  0.000
  0.000  0.299  0.701  0.000  0.000
  0.000  0.701  0.299  0.000  0.000
  0.000  0.000  0.000  0.000  1.000
  1.000  0.000  0.000  0.000  0.000
    occupations:
  1.004 -0.000 -0.000  0.000  0.000
 -0.000  1.003 -0.000  0.000  0.000
 -0.000 -0.000  1.003  0.000  0.000
  0.000  0.000  0.000  1.004 -0.000
  0.000  0.000  0.000 -0.000  1.003
   spin  2
    eigenvalues: 
  0.053  0.074  0.082  0.082  0.111
    eigenvectors:
  0.000  1.000  0.000  0.000  0.000
  0.000  0.000  0.346  0.654  0.000
  0.000  0.000  0.654  0.346  0.000
  1.000  0.000  0.000  0.000  0.000
  0.000  0.000  0.000  0.000  1.000
    occupations:
  0.074 -0.000 -0.000  0.000  0.000
 -0.000  0.082 -0.000  0.000  0.000
 -0.000 -0.000  0.082  0.000  0.000
  0.000  0.000  0.000  0.053 -0.000
  0.000  0.000  0.000 -0.000  0.111
atomic mag. moment =     4.615662
atom    3   Tr[ns(na)] (up, down, total) =   5.01749  0.40644  5.42393
   spin  1
    eigenvalues: 
  1.003  1.003  1.003  1.004  1.004
    eigenvectors:
  0.000  0.000  0.000  1.000  0.000
  0.000  0.295  0.705  0.000  0.000
  0.000  0.705  0.295  0.000  0.000
  0.000  0.000  0.000  0.000  1.000
  1.000  0.000  0.000  0.000  0.000
    occupations:
  1.004 -0.000 -0.000  0.000  0.000
 -0.000  1.003 -0.000  0.000  0.000
 -0.000 -0.000  1.003  0.000  0.000
  0.000  0.000  0.000  1.004 -0.000
  0.000  0.000  0.000 -0.000  1.003
   spin  2
    eigenvalues: 
  0.053  0.072  0.080  0.080  0.121
    eigenvectors:
  0.000  1.000  0.000  0.000  0.000
  0.000  0.000  0.355  0.645  0.000
  0.000  0.000  0.645  0.355  0.000
  1.000  0.000  0.000  0.000  0.000
  0.000  0.000  0.000  0.000  1.000
    occupations:
  0.072 -0.000 -0.000  0.000  0.000
 -0.000  0.080 -0.000  0.000  0.000
 -0.000 -0.000  0.080  0.000  0.000
  0.000  0.000  0.000  0.053 -0.000
  0.000  0.000  0.000 -0.000  0.121
atomic mag. moment =     4.611049
atom    4   Tr[ns(na)] (up, down, total) =   0.41262  5.01718  5.42980
   spin  1
    eigenvalues: 
  0.053  0.074  0.080  0.080  0.125
    eigenvectors:
  0.000  1.000  0.000  0.000  0.000
  0.000  0.000  0.428  0.572  0.000
  0.000  0.000  0.572  0.428  0.000
  1.000  0.000  0.000  0.000  0.000
  0.000  0.000  0.000  0.000  1.000
    occupations:
  0.074 -0.000 -0.000  0.000  0.000
 -0.000  0.080 -0.000  0.000  0.000
 -0.000 -0.000  0.080  0.000  0.000
  0.000  0.000  0.000  0.053 -0.000
  0.000  0.000  0.000 -0.000  0.125
   spin  2
    eigenvalues: 
  1.003  1.003  1.003  1.004  1.004
    eigenvectors:
  0.000  0.000  0.000  1.000  0.000
  0.000  0.255  0.745  0.000  0.000
  0.000  0.745  0.255  0.000  0.000
  0.000  0.000  0.000  0.000  1.000
  1.000  0.000  0.000  0.000  0.000
    occupations:
  1.004 -0.000 -0.000  0.000  0.000
 -0.000  1.003 -0.000  0.000  0.000
 -0.000 -0.000  1.003  0.000  0.000
  0.000  0.000  0.000  1.004 -0.000
  0.000  0.000  0.000 -0.000  1.003
atomic mag. moment =    -4.604567
atom    5   Tr[ns(na)] (up, down, total) =   5.01734  0.41260  5.42994
   spin  1
    eigenvalues: 
  1.003  1.003  1.003  1.004  1.004
    eigenvectors:
  0.000  0.000  0.000  1.000  0.000
  0.000  0.257  0.743  0.000  0.000
  0.000  0.743  0.257  0.000  0.000
  0.000  0.000  0.000  0.000  1.000
  1.000  0.000  0.000  0.000  0.000
    occupations:
  1.004 -0.000 -0.000  0.000  0.000
 -0.000  1.003 -0.000  0.000  0.000
 -0.000 -0.000  1.003  0.000  0.000
  0.000  0.000  0.000  1.004 -0.000
  0.000  0.000  0.000 -0.000  1.003
   spin  2
    eigenvalues: 
  0.053  0.074  0.081  0.081  0.125
    eigenvectors:
  0.000  1.000  0.000  0.000  0.000
  0.000  0.000  0.352  0.648  0.000
  0.000  0.000  0.648  0.352  0.000
  1.000  0.000  0.000  0.000  0.000
  0.000  0.000  0.000  0.000  1.000
    occupations:
  0.074 -0.000 -0.000  0.000  0.000
 -0.000  0.081 -0.000  0.000  0.000
 -0.000 -0.000  0.081  0.000  0.000
  0.000  0.000  0.000  0.053 -0.000
  0.000  0.000  0.000 -0.000  0.125
atomic mag. moment =     4.604738
atom    6   Tr[ns(na)] (up, down, total) =   0.40591  5.01762  5.42352
   spin  1
    eigenvalues: 
  0.053  0.072  0.080  0.080  0.120
    eigenvectors:
  0.000  1.000  0.000  0.000  0.000
  0.000  0.000  0.402  0.598  0.000
  0.000  0.000  0.598  0.402  0.000
  1.000  0.000  0.000  0.000  0.000
  0.000  0.000  0.000  0.000  1.000
    occupations:
  0.072 -0.000 -0.000  0.000  0.000
 -0.000  0.080 -0.000  0.000  0.000
 -0.000 -0.000  0.080  0.000  0.000
  0.000  0.000  0.000  0.053 -0.000
  0.000  0.000  0.000 -0.000  0.120
   spin  2
    eigenvalues: 
  1.003  1.003  1.003  1.004  1.004
    eigenvectors:
  0.000  0.000  0.000  1.000  0.000
  0.000  0.303  0.697  0.000  0.000
  0.000  0.697  0.303  0.000  0.000
  0.000  0.000  0.000  0.000  1.000
  1.000  0.000  0.000  0.000  0.000
    occupations:
  1.004 -0.000 -0.000  0.000  0.000
 -0.000  1.003 -0.000  0.000  0.000
 -0.000 -0.000  1.003  0.000  0.000
  0.000  0.000  0.000  1.004 -0.000
  0.000  0.000  0.000 -0.000  1.003
atomic mag. moment =    -4.611706
atom    7   Tr[ns(na)] (up, down, total) =   0.40195  5.01771  5.41966
   spin  1
    eigenvalues: 
  0.053  0.074  0.082  0.082  0.111
    eigenvectors:
  0.000  1.000  0.000  0.000  0.000
  0.000  0.000  0.344  0.656  0.000
  0.000  0.000  0.656  0.344  0.000
  1.000  0.000  0.000  0.000  0.000
  0.000  0.000  0.000  0.000  1.000
    occupations:
  0.074 -0.000 -0.000  0.000  0.000
 -0.000  0.082 -0.000  0.000  0.000
 -0.000 -0.000  0.082  0.000  0.000
  0.000  0.000  0.000  0.053 -0.000
  0.000  0.000  0.000 -0.000  0.111
   spin  2
    eigenvalues: 
  1.003  1.003  1.003  1.004  1.004
    eigenvectors:
  0.000  0.000  0.000  1.000  0.000
  0.000  0.321  0.679  0.000  0.000
  0.000  0.679  0.321  0.000  0.000
  0.000  0.000  0.000  0.000  1.000
  1.000  0.000  0.000  0.000  0.000
    occupations:
  1.004 -0.000 -0.000  0.000  0.000
 -0.000  1.003 -0.000  0.000  0.000
 -0.000 -0.000  1.003  0.000  0.000
  0.000  0.000  0.000  1.004 -0.000
  0.000  0.000  0.000 -0.000  1.003
atomic mag. moment =    -4.615762
atom    8   Tr[ns(na)] (up, down, total) =   0.40765  5.01746  5.42511
   spin  1
    eigenvalues: 
  0.053  0.073  0.081  0.081  0.120
    eigenvectors:
  0.000  1.000  0.000  0.000  0.000
  0.000  0.000  0.466  0.534  0.000
  0.000  0.000  0.534  0.466  0.000
  1.000  0.000  0.000  0.000  0.000
  0.000  0.000  0.000  0.000  1.000
    occupations:
  0.073 -0.000 -0.000  0.000  0.000
 -0.000  0.081 -0.000  0.000  0.000
 -0.000 -0.000  0.081  0.000  0.000
  0.000  0.000  0.000  0.053 -0.000
  0.000  0.000  0.000 -0.000  0.120
   spin  2
    eigenvalues: 
  1.003  1.003  1.003  1.004  1.004
    eigenvectors:
  0.000  0.000  0.000  1.000  0.000
  0.000  0.305  0.695  0.000  0.000
  0.000  0.695  0.305  0.000  0.000
  0.000  0.000  0.000  0.000  1.000
  1.000  0.000  0.000  0.000  0.000
    occupations:
  1.004 -0.000 -0.000  0.000  0.000
 -0.000  1.003 -0.000  0.000  0.000
 -0.000 -0.000  1.003  0.000  0.000
  0.000  0.000  0.000  1.004 -0.000
  0.000  0.000  0.000 -0.000  1.003
atomic mag. moment =    -4.609817
N of occupied +U levels =   43.396263
 --- exit write_ns ---

     total cpu time spent up to now is      286.9 secs

     total energy              =  -14687.27823441 Ry
     Harris-Foulkes estimate   =  -14685.81898309 Ry
     estimated scf accuracy    <      11.55165041 Ry

     total magnetization       =    -0.00 Bohr mag/cell
     absolute magnetization    =    41.56 Bohr mag/cell

     iteration #  2     ecut=    45.00 Ry     beta= 0.10
     Davidson diagonalization with overlap
     ethr =  3.90E-03,  avg # of iterations =  1.0

     total cpu time spent up to now is      406.3 secs

     total energy              =  -14690.92793541 Ry
     Harris-Foulkes estimate   =  -14687.35233782 Ry
     estimated scf accuracy    <       9.42693376 Ry

     total magnetization       =    -0.00 Bohr mag/cell
     absolute magnetization    =    41.22 Bohr mag/cell

     iteration #  3     ecut=    45.00 Ry     beta= 0.10
     Davidson diagonalization with overlap
     ethr =  3.18E-03,  avg # of iterations =  5.1

     total cpu time spent up to now is      612.9 secs

     total energy              =  -14690.65103426 Ry
     Harris-Foulkes estimate   =  -14693.11475440 Ry
     estimated scf accuracy    <     281.87208841 Ry

     total magnetization       =     0.08 Bohr mag/cell
     absolute magnetization    =    38.66 Bohr mag/cell

     iteration #  4     ecut=    45.00 Ry     beta= 0.10
     Davidson diagonalization with overlap
     ethr =  3.18E-03,  avg # of iterations =  4.6

     total cpu time spent up to now is      809.9 secs

     total energy              =  -14693.91442585 Ry
     Harris-Foulkes estimate   =  -14694.05482823 Ry
     estimated scf accuracy    <       4.20891608 Ry

     total magnetization       =     0.01 Bohr mag/cell
     absolute magnetization    =    38.61 Bohr mag/cell

     iteration #  5     ecut=    45.00 Ry     beta= 0.10
     Davidson diagonalization with overlap
     ethr =  1.42E-03,  avg # of iterations =  3.6

     total cpu time spent up to now is      979.5 secs

     total energy              =  -14693.56878026 Ry
     Harris-Foulkes estimate   =  -14693.93412831 Ry
     estimated scf accuracy    <       3.36625335 Ry

     total magnetization       =     0.01 Bohr mag/cell
     absolute magnetization    =    38.68 Bohr mag/cell

     iteration #  6     ecut=    45.00 Ry     beta= 0.10
     Davidson diagonalization with overlap
     ethr =  1.14E-03,  avg # of iterations =  2.7

     total cpu time spent up to now is     1132.3 secs

     total energy              =  -14693.42220229 Ry
     Harris-Foulkes estimate   =  -14693.61337726 Ry
     estimated scf accuracy    <       2.83258611 Ry

     total magnetization       =    -0.11 Bohr mag/cell
     absolute magnetization    =    38.89 Bohr mag/cell

     iteration #  7     ecut=    45.00 Ry     beta= 0.10
     Davidson diagonalization with overlap
     ethr =  9.57E-04,  avg # of iterations =  5.8

     total cpu time spent up to now is     1354.8 secs

     total energy              =  -14693.67168442 Ry
     Harris-Foulkes estimate   =  -14693.80220839 Ry
     estimated scf accuracy    <      24.64160043 Ry

     total magnetization       =     0.27 Bohr mag/cell
     absolute magnetization    =    38.64 Bohr mag/cell

     iteration #  8     ecut=    45.00 Ry     beta= 0.10
     Davidson diagonalization with overlap
     ethr =  9.57E-04,  avg # of iterations =  5.0

     total cpu time spent up to now is     1560.7 secs

     total energy              =  -14693.99583375 Ry
     Harris-Foulkes estimate   =  -14694.02107189 Ry
     estimated scf accuracy    <       0.72928293 Ry

     total magnetization       =     0.10 Bohr mag/cell
     absolute magnetization    =    37.36 Bohr mag/cell

     iteration #  9     ecut=    45.00 Ry     beta= 0.10
     Davidson diagonalization with overlap
     ethr =  2.46E-04,  avg # of iterations =  2.4

     total cpu time spent up to now is     1706.4 secs

     total energy              =  -14694.00447328 Ry
     Harris-Foulkes estimate   =  -14694.00726075 Ry
     estimated scf accuracy    <       0.23647731 Ry

     total magnetization       =    -0.00 Bohr mag/cell
     absolute magnetization    =    37.39 Bohr mag/cell

     iteration # 10     ecut=    45.00 Ry     beta= 0.10
     Davidson diagonalization with overlap
     ethr =  7.99E-05,  avg # of iterations =  1.9

     total cpu time spent up to now is     1843.6 secs

     total energy              =  -14693.97302736 Ry
     Harris-Foulkes estimate   =  -14694.00735066 Ry
     estimated scf accuracy    <       0.20138921 Ry

     total magnetization       =     0.05 Bohr mag/cell
     absolute magnetization    =    37.34 Bohr mag/cell

     iteration # 11     ecut=    45.00 Ry     beta= 0.10
     Davidson diagonalization with overlap
     ethr =  6.80E-05,  avg # of iterations =  3.0

     total cpu time spent up to now is     2009.9 secs

     total energy              =  -14693.99574099 Ry
     Harris-Foulkes estimate   =  -14693.99892135 Ry
     estimated scf accuracy    <       0.05123224 Ry

     total magnetization       =     0.02 Bohr mag/cell
     absolute magnetization    =    37.39 Bohr mag/cell

     iteration # 12     ecut=    45.00 Ry     beta= 0.10
     Davidson diagonalization with overlap
     ethr =  1.73E-05,  avg # of iterations =  3.1

     total cpu time spent up to now is     2165.8 secs

     total energy              =  -14694.00047010 Ry
     Harris-Foulkes estimate   =  -14693.99964220 Ry
     estimated scf accuracy    <       0.02862691 Ry

     total magnetization       =     0.03 Bohr mag/cell
     absolute magnetization    =    37.32 Bohr mag/cell

     iteration # 13     ecut=    45.00 Ry     beta= 0.10
     Davidson diagonalization with overlap
     c_bands:  5 eigenvalues not converged
     c_bands:  1 eigenvalues not converged
     ethr =  9.67E-06,  avg # of iterations =  4.2

     total cpu time spent up to now is     2341.5 secs

     total energy              =  -14694.00251283 Ry
     Harris-Foulkes estimate   =  -14694.00150380 Ry
     estimated scf accuracy    <       0.00713934 Ry

     total magnetization       =    -0.01 Bohr mag/cell
     absolute magnetization    =    37.28 Bohr mag/cell

     iteration # 14     ecut=    45.00 Ry     beta= 0.10
     Davidson diagonalization with overlap
     ethr =  2.41E-06,  avg # of iterations =  5.5

     total cpu time spent up to now is     2550.6 secs

     total energy              =  -14694.00294727 Ry
     Harris-Foulkes estimate   =  -14694.00304645 Ry
     estimated scf accuracy    <       0.03536820 Ry

     total magnetization       =     0.00 Bohr mag/cell
     absolute magnetization    =    37.28 Bohr mag/cell

     iteration # 15     ecut=    45.00 Ry     beta= 0.10
     Davidson diagonalization with overlap
     c_bands:  1 eigenvalues not converged
     c_bands:  1 eigenvalues not converged
     c_bands:  4 eigenvalues not converged
     ethr =  2.41E-06,  avg # of iterations =  5.2

     total cpu time spent up to now is     2747.6 secs

     total energy              =  -14694.00381230 Ry
     Harris-Foulkes estimate   =  -14694.00351169 Ry
     estimated scf accuracy    <       0.00625642 Ry

     total magnetization       =     0.01 Bohr mag/cell
     absolute magnetization    =    37.26 Bohr mag/cell

     iteration # 16     ecut=    45.00 Ry     beta= 0.10
     Davidson diagonalization with overlap
     ethr =  2.11E-06,  avg # of iterations =  1.4

     total cpu time spent up to now is     2873.1 secs

     total energy              =  -14694.00419270 Ry
     Harris-Foulkes estimate   =  -14694.00396409 Ry
     estimated scf accuracy    <       0.00142869 Ry

     total magnetization       =     0.00 Bohr mag/cell
     absolute magnetization    =    37.27 Bohr mag/cell

     iteration # 17     ecut=    45.00 Ry     beta= 0.10
     Davidson diagonalization with overlap
     ethr =  4.83E-07,  avg # of iterations =  2.9

     total cpu time spent up to now is     3026.6 secs

     total energy              =  -14694.00444858 Ry
     Harris-Foulkes estimate   =  -14694.00426654 Ry
     estimated scf accuracy    <       0.00171070 Ry

     total magnetization       =    -0.01 Bohr mag/cell
     absolute magnetization    =    37.26 Bohr mag/cell

     iteration # 18     ecut=    45.00 Ry     beta= 0.10
     Davidson diagonalization with overlap
     ethr =  4.83E-07,  avg # of iterations =  1.3

     total cpu time spent up to now is     3150.8 secs

     total energy              =  -14694.00459718 Ry
     Harris-Foulkes estimate   =  -14694.00449400 Ry
     estimated scf accuracy    <       0.00035747 Ry

     total magnetization       =     0.00 Bohr mag/cell
     absolute magnetization    =    37.25 Bohr mag/cell

     iteration # 19     ecut=    45.00 Ry     beta= 0.10
     Davidson diagonalization with overlap
     ethr =  1.21E-07,  avg # of iterations =  1.9

     total cpu time spent up to now is     3284.6 secs

     total energy              =  -14694.00467458 Ry
     Harris-Foulkes estimate   =  -14694.00460803 Ry
     estimated scf accuracy    <       0.00016277 Ry

     total magnetization       =     0.00 Bohr mag/cell
     absolute magnetization    =    37.25 Bohr mag/cell

     iteration # 20     ecut=    45.00 Ry     beta= 0.10
     Davidson diagonalization with overlap
     ethr =  5.50E-08,  avg # of iterations =  1.9

     total cpu time spent up to now is     3417.5 secs

     total energy              =  -14694.00471597 Ry
     Harris-Foulkes estimate   =  -14694.00467556 Ry
     estimated scf accuracy    <       0.00009097 Ry

     total magnetization       =     0.00 Bohr mag/cell
     absolute magnetization    =    37.24 Bohr mag/cell

     iteration # 21     ecut=    45.00 Ry     beta= 0.10
     Davidson diagonalization with overlap
     ethr =  3.07E-08,  avg # of iterations =  2.4

     total cpu time spent up to now is     3563.0 secs

     total energy              =  -14694.00473760 Ry
     Harris-Foulkes estimate   =  -14694.00471672 Ry
     estimated scf accuracy    <       0.00004048 Ry

     total magnetization       =     0.00 Bohr mag/cell
     absolute magnetization    =    37.24 Bohr mag/cell

     iteration # 22     ecut=    45.00 Ry     beta= 0.10
     Davidson diagonalization with overlap
     ethr =  1.37E-08,  avg # of iterations =  2.5

     total cpu time spent up to now is     3716.2 secs

     total energy              =  -14694.00474081 Ry
     Harris-Foulkes estimate   =  -14694.00473794 Ry
     estimated scf accuracy    <       0.00004955 Ry

     total magnetization       =    -0.00 Bohr mag/cell
     absolute magnetization    =    37.23 Bohr mag/cell

     iteration # 23     ecut=    45.00 Ry     beta= 0.10
     Davidson diagonalization with overlap
     ethr =  1.37E-08,  avg # of iterations =  1.3

     total cpu time spent up to now is     3838.8 secs

     total energy              =  -14694.00474361 Ry
     Harris-Foulkes estimate   =  -14694.00474127 Ry
     estimated scf accuracy    <       0.00001809 Ry

     total magnetization       =     0.00 Bohr mag/cell
     absolute magnetization    =    37.23 Bohr mag/cell

     iteration # 24     ecut=    45.00 Ry     beta= 0.10
     Davidson diagonalization with overlap
     ethr =  6.11E-09,  avg # of iterations =  1.2

     total cpu time spent up to now is     3959.0 secs

     total energy              =  -14694.00474510 Ry
     Harris-Foulkes estimate   =  -14694.00474402 Ry
     estimated scf accuracy    <       0.00002053 Ry

     total magnetization       =    -0.00 Bohr mag/cell
     absolute magnetization    =    37.23 Bohr mag/cell

     iteration # 25     ecut=    45.00 Ry     beta= 0.10
     Davidson diagonalization with overlap
     ethr =  6.11E-09,  avg # of iterations =  1.0

     total cpu time spent up to now is     4079.9 secs

     total energy              =  -14694.00474614 Ry
     Harris-Foulkes estimate   =  -14694.00474480 Ry
     estimated scf accuracy    <       0.00002060 Ry

     total magnetization       =    -0.00 Bohr mag/cell
     absolute magnetization    =    37.23 Bohr mag/cell

     iteration # 26     ecut=    45.00 Ry     beta= 0.10
     Davidson diagonalization with overlap
     ethr =  6.11E-09,  avg # of iterations =  1.1

     total cpu time spent up to now is     4199.3 secs

     total energy              =  -14694.00474762 Ry
     Harris-Foulkes estimate   =  -14694.00474649 Ry
     estimated scf accuracy    <       0.00000368 Ry

     total magnetization       =    -0.00 Bohr mag/cell
     absolute magnetization    =    37.23 Bohr mag/cell

     iteration # 27     ecut=    45.00 Ry     beta= 0.10
     Davidson diagonalization with overlap
     ethr =  1.24E-09,  avg # of iterations =  1.8

     total cpu time spent up to now is     4330.6 secs

     total energy              =  -14694.00474928 Ry
     Harris-Foulkes estimate   =  -14694.00474814 Ry
     estimated scf accuracy    <       0.00002126 Ry

     total magnetization       =     0.00 Bohr mag/cell
     absolute magnetization    =    37.23 Bohr mag/cell

     iteration # 28     ecut=    45.00 Ry     beta= 0.10
     Davidson diagonalization with overlap
     ethr =  1.24E-09,  avg # of iterations =  1.6

     total cpu time spent up to now is     4459.8 secs

     total energy              =  -14694.00474985 Ry
     Harris-Foulkes estimate   =  -14694.00474888 Ry
     estimated scf accuracy    <       0.00000142 Ry

     total magnetization       =    -0.00 Bohr mag/cell
     absolute magnetization    =    37.23 Bohr mag/cell

     iteration # 29     ecut=    45.00 Ry     beta= 0.10
     Davidson diagonalization with overlap
     ethr =  4.78E-10,  avg # of iterations =  2.1
 
     Magnetic moment per site:
     atom:    1    charge:   13.5487    magn:    4.2318    constr:    0.0000
     atom:    2    charge:   13.5526    magn:    4.2053    constr:    0.0000
     atom:    3    charge:   13.5460    magn:    4.2500    constr:    0.0000
     atom:    4    charge:   13.5434    magn:   -4.2586    constr:    0.0000
     atom:    5    charge:   13.5433    magn:    4.2586    constr:    0.0000
     atom:    6    charge:   13.5461    magn:   -4.2500    constr:    0.0000
     atom:    7    charge:   13.5524    magn:   -4.2053    constr:    0.0000
     atom:    8    charge:   13.5489    magn:   -4.2317    constr:    0.0000
     atom:    9    charge:    9.1218    magn:    0.0331    constr:    0.0000
     atom:   10    charge:    9.1220    magn:    0.0350    constr:    0.0000
     atom:   11    charge:    9.1224    magn:    0.0372    constr:    0.0000
     atom:   12    charge:    9.1222    magn:    0.0334    constr:    0.0000
     atom:   13    charge:    9.1234    magn:    0.0405    constr:    0.0000
     atom:   14    charge:    9.1252    magn:   -0.0385    constr:    0.0000
     atom:   15    charge:    9.1246    magn:   -0.0419    constr:    0.0000
     atom:   16    charge:    9.1245    magn:    0.0419    constr:    0.0000
     atom:   17    charge:    9.1251    magn:    0.0385    constr:    0.0000
     atom:   18    charge:    9.1235    magn:   -0.0405    constr:    0.0000
     atom:   19    charge:    9.1223    magn:   -0.0334    constr:    0.0000
     atom:   20    charge:    9.1222    magn:   -0.0372    constr:    0.0000
     atom:   21    charge:    9.1219    magn:   -0.0350    constr:    0.0000
     atom:   22    charge:    9.1220    magn:   -0.0331    constr:    0.0000
     atom:   23    charge:    9.1235    magn:   -0.0389    constr:    0.0000
     atom:   24    charge:    9.1234    magn:    0.0389    constr:    0.0000

     total cpu time spent up to now is     4596.5 secs

     End of self-consistent calculation
 --- enter write_ns ---
 LDA+U parameters:
U(  1) =   3.1200   J(  1) =   0.7000   B(  1) =   0.0803
U(  2) =   3.1200   J(  2) =   0.7000   B(  2) =   0.0803
atom    1   Tr[ns(na)] (up, down, total) =   4.97114  0.73995  5.71109
   spin  1
    eigenvalues: 
  0.985  0.994  0.994  0.997  1.002
    eigenvectors:
  0.000  0.000  0.000  1.000  0.000
  0.000  0.262  0.738  0.000  0.000
  0.000  0.738  0.262  0.000  0.000
  0.000  0.000  0.000  0.000  1.000
  1.000  0.000  0.000  0.000  0.000
    occupations:
  0.997 -0.000 -0.000  0.000  0.000
 -0.000  0.994 -0.000  0.000  0.000
 -0.000 -0.000  0.994  0.000  0.000
  0.000  0.000  0.000  1.002 -0.000
  0.000  0.000  0.000 -0.000  0.985
   spin  2
    eigenvalues: 
  0.065  0.136  0.142  0.142  0.255
    eigenvectors:
  0.000  1.000  0.000  0.000  0.000
  0.000  0.000  0.340  0.660  0.000
  0.000  0.000  0.660  0.340  0.000
  1.000  0.000  0.000  0.000  0.000
  0.000  0.000  0.000  0.000  1.000
    occupations:
  0.136 -0.000 -0.000  0.000  0.000
 -0.000  0.142 -0.000  0.000  0.000
 -0.000 -0.000  0.142  0.000  0.000
  0.000  0.000  0.000  0.065 -0.000
  0.000  0.000  0.000 -0.000  0.255
atomic mag. moment =     4.231192
atom    2   Tr[ns(na)] (up, down, total) =   4.97004  0.76141  5.73145
   spin  1
    eigenvalues: 
  0.984  0.993  0.993  0.997  1.002
    eigenvectors:
  0.000  0.000  0.000  1.000  0.000
  0.000  0.262  0.738  0.000  0.000
  0.000  0.738  0.262  0.000  0.000
  0.000  0.000  0.000  0.000  1.000
  1.000  0.000  0.000  0.000  0.000
    occupations:
  0.997 -0.000 -0.000  0.000  0.000
 -0.000  0.993 -0.000  0.000  0.000
 -0.000 -0.000  0.993  0.000  0.000
  0.000  0.000  0.000  1.002 -0.000
  0.000  0.000  0.000 -0.000  0.984
   spin  2
    eigenvalues: 
  0.064  0.142  0.143  0.143  0.269
    eigenvectors:
  0.000  1.000  0.000  0.000  0.000
  0.000  0.000  0.323  0.677  0.000
  0.000  0.000  0.677  0.323  0.000
  1.000  0.000  0.000  0.000  0.000
  0.000  0.000  0.000  0.000  1.000
    occupations:
  0.142 -0.000 -0.000  0.000  0.000
 -0.000  0.143 -0.000  0.000  0.000
 -0.000 -0.000  0.143  0.000  0.000
  0.000  0.000  0.000  0.064 -0.000
  0.000  0.000  0.000 -0.000  0.269
atomic mag. moment =     4.208634
atom    3   Tr[ns(na)] (up, down, total) =   4.97354  0.72485  5.69839
   spin  1
    eigenvalues: 
  0.985  0.994  0.994  0.998  1.002
    eigenvectors:
  0.000  0.000  0.000  1.000  0.000
  0.000  0.279  0.721  0.000  0.000
  0.000  0.721  0.279  0.000  0.000
  0.000  0.000  0.000  0.000  1.000
  1.000  0.000  0.000  0.000  0.000
    occupations:
  0.998 -0.000 -0.000  0.000  0.000
 -0.000  0.994 -0.000  0.000  0.000
 -0.000 -0.000  0.994  0.000  0.000
  0.000  0.000  0.000  1.002 -0.000
  0.000  0.000  0.000 -0.000  0.985
   spin  2
    eigenvalues: 
  0.066  0.123  0.144  0.144  0.247
    eigenvectors:
  0.000  1.000  0.000  0.000  0.000
  0.000  0.000  0.304  0.696  0.000
  0.000  0.000  0.696  0.304  0.000
  1.000  0.000  0.000  0.000  0.000
  0.000  0.000  0.000  0.000  1.000
    occupations:
  0.123 -0.000 -0.000  0.000  0.000
 -0.000  0.144 -0.000  0.000  0.000
 -0.000 -0.000  0.144  0.000  0.000
  0.000  0.000  0.000  0.066 -0.000
  0.000  0.000  0.000 -0.000  0.247
atomic mag. moment =     4.248692
atom    4   Tr[ns(na)] (up, down, total) =   0.71734  4.97211  5.68945
   spin  1
    eigenvalues: 
  0.066  0.117  0.145  0.145  0.245
    eigenvectors:
  0.000  1.000  0.000  0.000  0.000
  0.000  0.000  0.245  0.755  0.000
  0.000  0.000  0.755  0.245  0.000
  1.000  0.000  0.000  0.000  0.000
  0.000  0.000  0.000  0.000  1.000
    occupations:
  0.117 -0.000 -0.000  0.000  0.000
 -0.000  0.145 -0.000  0.000  0.000
 -0.000 -0.000  0.145  0.000  0.000
  0.000  0.000  0.000  0.066 -0.000
  0.000  0.000  0.000 -0.000  0.245
   spin  2
    eigenvalues: 
  0.985  0.994  0.994  0.996  1.003
    eigenvectors:
  0.000  0.000  0.000  1.000  0.000
  0.000  0.368  0.632  0.000  0.000
  0.000  0.632  0.368  0.000  0.000
  0.000  0.000  0.000  0.000  1.000
  1.000  0.000  0.000  0.000  0.000
    occupations:
  0.996 -0.000 -0.000  0.000  0.000
 -0.000  0.994 -0.000  0.000  0.000
 -0.000 -0.000  0.994  0.000  0.000
  0.000  0.000  0.000  1.003 -0.000
  0.000  0.000  0.000 -0.000  0.985
atomic mag. moment =    -4.254770
atom    5   Tr[ns(na)] (up, down, total) =   4.97211  0.71739  5.68950
   spin  1
    eigenvalues: 
  0.985  0.994  0.994  0.996  1.003
    eigenvectors:
  0.000  0.000  0.000  1.000  0.000
  0.000  0.366  0.634  0.000  0.000
  0.000  0.634  0.366  0.000  0.000
  0.000  0.000  0.000  0.000  1.000
  1.000  0.000  0.000  0.000  0.000
    occupations:
  0.996 -0.000 -0.000  0.000  0.000
 -0.000  0.994 -0.000  0.000  0.000
 -0.000 -0.000  0.994  0.000  0.000
  0.000  0.000  0.000  1.003 -0.000
  0.000  0.000  0.000 -0.000  0.985
   spin  2
    eigenvalues: 
  0.066  0.117  0.145  0.145  0.245
    eigenvectors:
  0.000  1.000  0.000  0.000  0.000
  0.000  0.000  0.296  0.704  0.000
  0.000  0.000  0.704  0.296  0.000
  1.000  0.000  0.000  0.000  0.000
  0.000  0.000  0.000  0.000  1.000
    occupations:
  0.117 -0.000 -0.000  0.000  0.000
 -0.000  0.145 -0.000  0.000  0.000
 -0.000 -0.000  0.145  0.000  0.000
  0.000  0.000  0.000  0.066 -0.000
  0.000  0.000  0.000 -0.000  0.245
atomic mag. moment =     4.254728
atom    6   Tr[ns(na)] (up, down, total) =   0.72482  4.97354  5.69837
   spin  1
    eigenvalues: 
  0.066  0.123  0.144  0.144  0.247
    eigenvectors:
  0.000  1.000  0.000  0.000  0.000
  0.000  0.000  0.312  0.688  0.000
  0.000  0.000  0.688  0.312  0.000
  1.000  0.000  0.000  0.000  0.000
  0.000  0.000  0.000  0.000  1.000
    occupations:
  0.123 -0.000 -0.000  0.000  0.000
 -0.000  0.144 -0.000  0.000  0.000
 -0.000 -0.000  0.144  0.000  0.000
  0.000  0.000  0.000  0.066 -0.000
  0.000  0.000  0.000 -0.000  0.247
   spin  2
    eigenvalues: 
  0.985  0.994  0.994  0.998  1.002
    eigenvectors:
  0.000  0.000  0.000  1.000  0.000
  0.000  0.322  0.678  0.000  0.000
  0.000  0.678  0.322  0.000  0.000
  0.000  0.000  0.000  0.000  1.000
  1.000  0.000  0.000  0.000  0.000
    occupations:
  0.998 -0.000 -0.000  0.000  0.000
 -0.000  0.994 -0.000  0.000  0.000
 -0.000 -0.000  0.994  0.000  0.000
  0.000  0.000  0.000  1.002 -0.000
  0.000  0.000  0.000 -0.000  0.985
atomic mag. moment =    -4.248719
atom    7   Tr[ns(na)] (up, down, total) =   0.76139  4.97004  5.73143
   spin  1
    eigenvalues: 
  0.064  0.142  0.143  0.143  0.269
    eigenvectors:
  0.000  1.000  0.000  0.000  0.000
  0.000  0.000  0.294  0.706  0.000
  0.000  0.000  0.706  0.294  0.000
  1.000  0.000  0.000  0.000  0.000
  0.000  0.000  0.000  0.000  1.000
    occupations:
  0.142 -0.000 -0.000  0.000  0.000
 -0.000  0.143 -0.000  0.000  0.000
 -0.000 -0.000  0.143  0.000  0.000
  0.000  0.000  0.000  0.064 -0.000
  0.000  0.000  0.000 -0.000  0.269
   spin  2
    eigenvalues: 
  0.984  0.993  0.993  0.997  1.002
    eigenvectors:
  0.000  0.000  0.000  1.000  0.000
  0.000  0.252  0.748  0.000  0.000
  0.000  0.748  0.252  0.000  0.000
  0.000  0.000  0.000  0.000  1.000
  1.000  0.000  0.000  0.000  0.000
    occupations:
  0.997 -0.000 -0.000  0.000  0.000
 -0.000  0.993 -0.000  0.000  0.000
 -0.000 -0.000  0.993  0.000  0.000
  0.000  0.000  0.000  1.002 -0.000
  0.000  0.000  0.000 -0.000  0.984
atomic mag. moment =    -4.208650
atom    8   Tr[ns(na)] (up, down, total) =   0.74001  4.97115  5.71115
   spin  1
    eigenvalues: 
  0.065  0.136  0.142  0.142  0.255
    eigenvectors:
  0.000  1.000  0.000  0.000  0.000
  0.000  0.000  0.293  0.707  0.000
  0.000  0.000  0.707  0.293  0.000
  1.000  0.000  0.000  0.000  0.000
  0.000  0.000  0.000  0.000  1.000
    occupations:
  0.136 -0.000 -0.000  0.000  0.000
 -0.000  0.142 -0.000  0.000  0.000
 -0.000 -0.000  0.142  0.000  0.000
  0.000  0.000  0.000  0.065 -0.000
  0.000  0.000  0.000 -0.000  0.255
   spin  2
    eigenvalues: 
  0.985  0.994  0.994  0.997  1.002
    eigenvectors:
  0.000  0.000  0.000  1.000  0.000
  0.000  0.296  0.704  0.000  0.000
  0.000  0.704  0.296  0.000  0.000
  0.000  0.000  0.000  0.000  1.000
  1.000  0.000  0.000  0.000  0.000
    occupations:
  0.997 -0.000 -0.000  0.000  0.000
 -0.000  0.994 -0.000  0.000  0.000
 -0.000 -0.000  0.994  0.000  0.000
  0.000  0.000  0.000  1.002 -0.000
  0.000  0.000  0.000 -0.000  0.985
atomic mag. moment =    -4.231142
N of occupied +U levels =   45.660831
 --- exit write_ns ---

 ------ SPIN UP ------------


          k = 0.0000 0.0000 0.0000 ( 13925 PWs)   bands (ev):

   -66.8591 -66.7586 -66.7125 -66.6155 -62.2503 -62.1544 -62.1269 -62.0525
   -35.6282 -35.5740 -35.5740 -35.5265 -35.4810 -35.4762 -35.4762 -35.4304
   -35.4304 -35.3938 -35.3305 -35.3305 -31.0741 -31.0671 -31.0671 -30.9772
   -30.9742 -30.9742 -30.9517 -30.9459 -30.9459 -30.8848 -30.8695 -30.8695
     5.7637   5.8940   5.9905   6.3449   6.4326   7.0254   7.0783   7.6178
     8.3292   8.3925   8.4030   8.4658   8.5134   8.5499   8.6331   8.8292
     8.8662   8.8795   8.9502   9.1093   9.1860   9.2187   9.2267   9.2811
     9.3194   9.3753   9.4649   9.6130   9.7251   9.7302   9.9070   9.9449
    10.0255  10.0872  10.0996  10.1123  10.1123  10.1692  10.1830  10.1830
    10.1979  10.1979  10.2541  10.2878  10.3477  10.3477  10.3479  10.3519
    10.3519  10.4921  10.5469  10.5469  10.5604  10.5858  10.5858  10.6063
    10.6063  10.6117  10.6181  10.6181  10.6522  10.6522  10.6743  10.7419
    10.7663  10.7663  10.8922  10.9606  10.9606  10.9840  11.0494  11.0494
    11.0901  11.1580  11.2388  11.2567  11.2717  11.3875  11.3875  11.4010
    11.4029  11.4777  11.4913  11.4913  11.6719  11.8143  11.8143  11.8222
    11.8665  11.8993  11.9236  11.9236  11.9642  12.0018  12.1246  12.1825
    12.1911  12.2380  12.2380  12.2527  12.3277  12.3277  12.6048  12.6968
    12.6968  12.7713  12.8208  12.8631  12.9755  13.0807  13.1156  13.6304
    13.9334  14.7680  15.1274  16.0993  16.7974  16.7974  16.8557  16.8557
    16.9109  16.9447  16.9447  16.9751  17.0080  17.1007  17.1041  17.1478
    17.1750  17.2229  17.2229  17.2277  17.5160  17.5701  17.5886  17.6559
    18.5320  19.5932  19.8267  20.0893  20.0893  20.4511  20.4511  20.5651
    20.5651  21.4748

          k = 0.0000 0.0000 0.0242 ( 13893 PWs)   bands (ev):

   -66.8591 -66.7586 -66.7125 -66.6155 -62.2503 -62.1544 -62.1269 -62.0525
   -35.6282 -35.5740 -35.5740 -35.5265 -35.4810 -35.4762 -35.4762 -35.4304
   -35.4304 -35.3938 -35.3305 -35.3305 -31.0741 -31.0671 -31.0671 -30.9772
   -30.9742 -30.9742 -30.9517 -30.9459 -30.9459 -30.8848 -30.8695 -30.8695
     5.7686   5.8687   6.0350   6.2533   6.5415   6.8709   7.2357   7.5569
     8.3752   8.3925   8.4089   8.4658   8.5113   8.5500   8.6347   8.7347
     8.8661   8.8974   8.9934   9.1123   9.1566   9.2063   9.2511   9.2986
     9.3515   9.3667   9.4501   9.5870   9.7314   9.7362   9.9070   9.9449
    10.0255  10.0852  10.1026  10.1130  10.1130  10.1679  10.1711  10.1711
    10.2180  10.2180  10.2561  10.2878  10.3012  10.3012  10.3476  10.4062
    10.4062  10.4948  10.5369  10.5369  10.5491  10.5491  10.5515  10.5864
    10.5864  10.6235  10.6442  10.6442  10.6684  10.6928  10.6928  10.7371
    10.7681  10.7681  10.9024  10.9024  10.9032  10.9846  11.0683  11.1137
    11.1137  11.1809  11.2388  11.2487  11.2709  11.3235  11.3235  11.4011
    11.4037  11.4775  11.5501  11.5501  11.6721  11.7730  11.7730  11.8208
    11.8664  11.8994  11.9498  11.9498  11.9642  12.0076  12.1106  12.1911
    12.1973  12.2300  12.2300  12.2472  12.3316  12.3316  12.6049  12.6968
    12.6968  12.7712  12.8286  12.8631  12.9394  13.0808  13.1726  13.5452
    14.0327  14.6555  15.2204  16.0688  16.7974  16.7974  16.8555  16.8555
    16.9109  16.9449  16.9449  16.9751  17.0080  17.1007  17.1041  17.1478
    17.1749  17.2229  17.2229  17.2277  17.5142  17.5612  17.6056  17.6542
    18.5887  19.3251  20.1092  20.1092  20.1615  20.3415  20.3415  20.7173
    20.7173  21.1171

          k = 0.0000 0.0000-0.0484 ( 13878 PWs)   bands (ev):

   -66.8591 -66.7586 -66.7125 -66.6155 -62.2503 -62.1544 -62.1269 -62.0525
   -35.6282 -35.5740 -35.5740 -35.5265 -35.4810 -35.4762 -35.4762 -35.4304
   -35.4304 -35.3938 -35.3305 -35.3305 -31.0741 -31.0671 -31.0671 -30.9772
   -30.9742 -30.9742 -30.9517 -30.9459 -30.9459 -30.8848 -30.8695 -30.8695
     5.7750   5.8490   6.0951   6.1738   6.6803   6.7190   7.3887   7.4346
     8.3925   8.3963   8.4600   8.4658   8.5069   8.5500   8.6224   8.6654
     8.8660   8.8903   9.0535   9.1040   9.1156   9.1961   9.2867   9.3182
     9.3534   9.3873   9.4229   9.5613   9.7327   9.7447   9.9070   9.9449
    10.0255  10.0833  10.1057  10.1138  10.1138  10.1647  10.1647  10.1665
    10.2407  10.2407  10.2581  10.2707  10.2707  10.2877  10.3472  10.4683
    10.4683  10.4703  10.4703  10.4980  10.5436  10.5477  10.5477  10.5864
    10.5864  10.6375  10.6451  10.6451  10.6590  10.7327  10.7336  10.7336
    10.7775  10.7775  10.8487  10.8487  10.9151  10.9851  11.0502  11.1863
    11.1863  11.2047  11.2348  11.2388  11.2500  11.2500  11.2701  11.4012
    11.4044  11.4774  11.6028  11.6028  11.6723  11.7280  11.7280  11.8195
    11.8663  11.8994  11.9643  11.9693  11.9693  12.0143  12.0984  12.1911
    12.2129  12.2220  12.2220  12.2382  12.3350  12.3350  12.6050  12.6967
    12.6967  12.7712  12.8403  12.8631  12.9089  13.0808  13.2339  13.4643
    14.1308  14.5477  15.2948  16.0356  16.7975  16.7975  16.8552  16.8552
    16.9109  16.9451  16.9451  16.9751  17.0080  17.1007  17.1041  17.1478
    17.1749  17.2228  17.2228  17.2277  17.5125  17.5572  17.6180  17.6518
    18.6668  19.1481  20.1407  20.1407  20.2664  20.2664  20.5806  20.6735
    20.9140  20.9141

          k = 0.0000 0.1250 0.0000 ( 13879 PWs)   bands (ev):

   -66.8588 -66.7583 -66.7122 -66.6153 -62.2503 -62.1544 -62.1269 -62.0525
   -35.6280 -35.5757 -35.5739 -35.5264 -35.4808 -35.4780 -35.4761 -35.4322
   -35.4303 -35.3936 -35.3323 -35.3304 -31.0739 -31.0693 -31.0670 -30.9770
   -30.9764 -30.9741 -30.9514 -30.9481 -30.9458 -30.8846 -30.8717 -30.8694
     6.0069   6.1344   6.2288   6.5746   6.6519   7.2228   7.2631   7.7724
     8.3341   8.4923   8.5279   8.5774   8.6097   8.6587   8.7174   8.7651
     8.8317   8.9271   9.0179   9.0903   9.2043   9.2185   9.2475   9.3373
     9.3677   9.3871   9.4578   9.5288   9.6298   9.7562   9.7644   9.8189
     9.8654   9.8677   9.9254   9.9277  10.0217  10.0495  10.0870  10.0972
    10.1471  10.1501  10.1791  10.2103  10.2448  10.2783  10.3099  10.3680
    10.4173  10.4211  10.4537  10.4776  10.5182  10.5300  10.5889  10.6379
    10.6883  10.6933  10.7126  10.7723  10.7977  10.8221  10.8411  10.8971
    10.9120  10.9275  10.9736  11.0761  11.1132  11.1204  11.1284  11.1587
    11.1695  11.2213  11.2912  11.3456  11.3506  11.3664  11.3765  11.3900
    11.4394  11.5118  11.5643  11.6913  11.7243  11.7516  11.8087  11.8164
    11.8385  11.8866  11.9258  11.9789  11.9840  12.0691  12.1084  12.1579
    12.1675  12.1737  12.2296  12.2525  12.3757  12.5026  12.5382  12.6201
    12.6756  12.7189  12.7573  12.9481  12.9543  12.9655  13.0895  13.6804
    14.0046  14.8929  15.2460  16.2188  16.5242  16.6646  16.7541  16.9212
    16.9248  16.9397  16.9686  16.9802  16.9975  16.9995  17.0744  17.0835
    17.1287  17.1393  17.2304  17.3405  17.4709  17.6328  17.6585  17.9867
    18.6225  18.7194  19.0207  19.1732  19.9244  19.9417  20.0100  20.1115
    20.7060  21.0011

          k = 0.0000 0.1250 0.0242 ( 13869 PWs)   bands (ev):

   -66.8588 -66.7583 -66.7122 -66.6153 -62.2503 -62.1544 -62.1269 -62.0525
   -35.6280 -35.5757 -35.5739 -35.5264 -35.4808 -35.4780 -35.4761 -35.4322
   -35.4303 -35.3936 -35.3323 -35.3304 -31.0739 -31.0693 -31.0670 -30.9770
   -30.9764 -30.9741 -30.9514 -30.9481 -30.9458 -30.8846 -30.8717 -30.8694
     6.0117   6.1099   6.2718   6.4839   6.7587   7.0728   7.4150   7.7140
     8.3792   8.4938   8.5281   8.5757   8.6062   8.6514   8.6782   8.7449
     8.8683   8.9386   9.0057   9.1155   9.1847   9.2179   9.2655   9.3247
     9.3527   9.3676   9.4976   9.5349   9.6114   9.7645   9.7656   9.8186
     9.8464   9.8658   9.9277   9.9448  10.0218  10.0477  10.0884  10.0890
    10.1478  10.1538  10.1804  10.2030  10.2456  10.2945  10.3105  10.3647
    10.3884  10.4104  10.4667  10.4852  10.5295  10.5499  10.5862  10.6374
    10.6880  10.6944  10.7112  10.7116  10.8009  10.8364  10.8682  10.8949
    10.9174  10.9434  10.9736  11.0778  11.0922  11.1184  11.1296  11.1444
    11.1717  11.2282  11.2903  11.3197  11.3555  11.3644  11.3887  11.3964
    11.4561  11.5387  11.5550  11.6748  11.7097  11.7275  11.7837  11.8453
    11.8690  11.8847  11.9426  11.9683  11.9947  12.0525  12.1159  12.1334
    12.1675  12.1808  12.2414  12.2496  12.3748  12.5040  12.5378  12.6190
    12.6762  12.7187  12.7687  12.8963  12.9543  12.9655  13.1676  13.5729
    14.1270  14.7601  15.3521  16.1751  16.5434  16.6692  16.7463  16.9211
    16.9248  16.9397  16.9691  16.9802  16.9975  16.9995  17.0744  17.0835
    17.1287  17.1394  17.2304  17.3405  17.4723  17.5990  17.7173  17.9251
    18.6667  18.8063  18.9424  19.2887  19.5897  19.7283  20.2306  20.4920
    20.7170  20.8018

          k = 0.0000 0.1250-0.0484 ( 13868 PWs)   bands (ev):

   -66.8588 -66.7583 -66.7122 -66.6153 -62.2503 -62.1544 -62.1269 -62.0525
   -35.6280 -35.5757 -35.5739 -35.5264 -35.4808 -35.4780 -35.4761 -35.4322
   -35.4303 -35.3936 -35.3323 -35.3304 -31.0739 -31.0693 -31.0670 -30.9770
   -30.9764 -30.9741 -30.9514 -30.9481 -30.9458 -30.8846 -30.8717 -30.8694
     6.0178   6.0909   6.3298   6.4071   6.8930   6.9271   7.5666   7.5905
     8.4368   8.5002   8.5294   8.5624   8.5925   8.6178   8.6652   8.7470
     8.8780   8.9549   9.0007   9.1496   9.1541   9.2211   9.2817   9.3100
     9.3269   9.3661   9.5307   9.5538   9.5768   9.7645   9.7775   9.8184
     9.8270   9.8662   9.9277   9.9600  10.0219  10.0460  10.0794  10.0907
    10.1485  10.1569  10.1828  10.1957  10.2464  10.3111  10.3246  10.3392
    10.3747  10.4030  10.4767  10.4872  10.5288  10.5833  10.5972  10.6369
    10.6545  10.6877  10.6955  10.7097  10.8042  10.8369  10.8772  10.8845
    10.9523  10.9623  10.9720  11.0532  11.0796  11.1187  11.1269  11.1387
    11.1757  11.2452  11.2716  11.3016  11.3587  11.3654  11.3877  11.4245
    11.4620  11.5405  11.5816  11.6602  11.6637  11.7263  11.7785  11.8486
    11.8838  11.9156  11.9431  11.9526  12.0156  12.0381  12.1061  12.1218
    12.1675  12.1870  12.2466  12.2500  12.3739  12.5055  12.5374  12.6180
    12.6768  12.7185  12.7877  12.8525  12.9543  12.9655  13.2540  13.4655
    14.2523  14.6273  15.4351  16.1303  16.5594  16.6762  16.7365  16.9209
    16.9248  16.9397  16.9695  16.9802  16.9975  16.9995  17.0744  17.0834
    17.1286  17.1395  17.2304  17.3405  17.4739  17.5832  17.7975  17.8301
    18.6954  18.8849  18.9655  19.3381  19.4395  19.5538  20.4761  20.5124
    20.7309  20.8939

          k = 0.0000 0.2500 0.0000 ( 13848 PWs)   bands (ev):

   -66.8587 -66.7582 -66.7121 -66.6151 -62.2500 -62.1541 -62.1265 -62.0521
   -35.6276 -35.5799 -35.5736 -35.5260 -35.4822 -35.4804 -35.4759 -35.4364
   -35.4300 -35.3932 -35.3365 -35.3302 -31.0746 -31.0733 -31.0667 -30.9817
   -30.9764 -30.9738 -30.9534 -30.9509 -30.9454 -30.8840 -30.8770 -30.8691
     6.6949   6.8113   6.8988   7.2073   7.2504   7.7140   7.7244   8.1076
     8.2835   8.5215   8.5430   8.7231   8.7405   8.7635   8.8143   8.8508
     8.8915   8.9349   8.9462   9.0238   9.0484   9.1006   9.2791   9.3984
     9.4539   9.4722   9.5036   9.5393   9.5961   9.5970   9.6481   9.6566
     9.6597   9.6801   9.7069   9.8024   9.8397   9.8844   9.9306   9.9766
    10.0172  10.0196  10.1351  10.1673  10.1771  10.2691  10.2911  10.3682
    10.4240  10.5571  10.6054  10.6148  10.6161  10.6386  10.7503  10.7768
    10.8182  10.8443  10.8523  10.9086  10.9878  10.9966  11.0373  11.0953
    11.1199  11.1324  11.1610  11.1930  11.2006  11.2695  11.2835  11.3376
    11.3777  11.3981  11.4443  11.4593  11.5227  11.5609  11.5862  11.6066
    11.6579  11.6768  11.6872  11.7184  11.7540  11.8093  11.8170  11.8508
    11.8591  11.9024  11.9380  11.9897  12.0120  12.0335  12.0775  12.1185
    12.1383  12.2221  12.2341  12.3042  12.4357  12.4877  12.5682  12.6546
    12.6817  12.7328  12.7865  12.8758  12.9894  13.0133  13.0274  13.8415
    14.1413  15.1333  15.3684  15.9404  16.0190  16.0790  16.0904  16.2814
    16.4112  16.6414  16.7639  16.8061  16.8582  16.9067  17.0708  17.0766
    17.1004  17.2181  17.2339  17.2681  17.3255  17.3843  17.4662  17.4677
    17.5061  17.7692  18.0091  18.0722  18.5287  18.5529  18.6814  18.9393
    19.5622  20.5189

          k = 0.0000 0.2500 0.0242 ( 13862 PWs)   bands (ev):

   -66.8587 -66.7582 -66.7121 -66.6151 -62.2500 -62.1541 -62.1265 -62.0521
   -35.6276 -35.5799 -35.5736 -35.5260 -35.4822 -35.4804 -35.4759 -35.4364
   -35.4300 -35.3932 -35.3365 -35.3302 -31.0746 -31.0733 -31.0667 -30.9817
   -30.9764 -30.9738 -30.9534 -30.9509 -30.9454 -30.8840 -30.8770 -30.8691
     6.6990   6.7904   6.9358   7.1226   7.3464   7.5939   7.8392   8.0611
     8.3205   8.4679   8.5931   8.6978   8.7393   8.7711   8.8238   8.8528
     8.8854   8.9319   8.9455   9.0302   9.0468   9.1024   9.2804   9.3632
     9.4722   9.5030   9.5035   9.5395   9.5958   9.5959   9.6471   9.6569
     9.6576   9.6801   9.7068   9.7473   9.8395   9.9307   9.9486   9.9777
    10.0134  10.0224  10.1305  10.1357  10.1754  10.2572  10.3158  10.3906
    10.4047  10.5566  10.5849  10.6193  10.6325  10.6456  10.7466  10.7737
    10.8234  10.8309  10.8528  10.9124  10.9807  11.0078  11.0378  11.0871
    11.1167  11.1217  11.1784  11.1979  11.2178  11.2698  11.2717  11.3277
    11.3753  11.4028  11.4422  11.4787  11.5202  11.5556  11.5690  11.5994
    11.6224  11.6822  11.7118  11.7533  11.7586  11.8084  11.8213  11.8563
    11.8576  11.9002  11.9240  11.9725  12.0067  12.0070  12.1128  12.1186
    12.1538  12.2156  12.2361  12.2953  12.4381  12.4854  12.5887  12.6575
    12.6813  12.7312  12.7721  12.7867  12.9895  13.0274  13.1576  13.6682
    14.3216  14.9569  15.5114  15.9242  15.9890  16.0632  16.1168  16.2650
    16.4328  16.6364  16.7639  16.8068  16.8582  16.9067  17.0708  17.0767
    17.1004  17.2152  17.2339  17.2759  17.3255  17.3843  17.4296  17.4662
    17.5401  17.7921  17.9696  18.1788  18.3204  18.5075  18.8196  19.0007
    19.5933  20.1857

          k = 0.0000 0.2500-0.0484 ( 13842 PWs)   bands (ev):

   -66.8587 -66.7582 -66.7121 -66.6151 -62.2500 -62.1541 -62.1265 -62.0521
   -35.6276 -35.5799 -35.5736 -35.5260 -35.4822 -35.4804 -35.4759 -35.4364
   -35.4300 -35.3932 -35.3365 -35.3302 -31.0746 -31.0733 -31.0667 -30.9817
   -30.9764 -30.9738 -30.9534 -30.9509 -30.9454 -30.8840 -30.8770 -30.8691
     6.7041   6.7740   6.9852   7.0569   7.4597   7.4765   7.9248   7.9923
     8.3684   8.4196   8.6408   8.6568   8.7402   8.7734   8.8324   8.8585
     8.8772   8.9281   8.9450   9.0355   9.0469   9.1036   9.2824   9.3412
     9.4722   9.5034   9.5397   9.5492   9.5910   9.5955   9.6418   9.6538
     9.6571   9.6801   9.7045   9.7117   9.8392   9.9309   9.9788  10.0110
    10.0181  10.0238  10.0722  10.1363  10.1736  10.2513  10.3463  10.3746
    10.4123  10.5563  10.5674  10.6219  10.6498  10.6499  10.7414  10.7739
    10.8102  10.8253  10.8630  10.9212  10.9592  11.0276  11.0410  11.0767
    11.1093  11.1168  11.1974  11.2022  11.2331  11.2615  11.2702  11.3115
    11.3779  11.4040  11.4414  11.5118  11.5167  11.5361  11.5582  11.5755
    11.6147  11.7016  11.7126  11.7543  11.7932  11.8057  11.8285  11.8547
    11.8777  11.8855  11.9076  11.9424  12.0020  12.0034  12.1185  12.1374
    12.1681  12.2065  12.2399  12.2841  12.4406  12.4830  12.6324  12.6606
    12.6806  12.6852  12.7296  12.7869  12.9895  13.0274  13.3289  13.4753
    14.5111  14.7719  15.6234  15.8783  15.9770  16.0524  16.1341  16.2508
    16.4516  16.6308  16.7639  16.8074  16.8582  16.9067  17.0708  17.0767
    17.1005  17.2127  17.2339  17.2844  17.3255  17.3843  17.4053  17.4662
    17.5614  17.7948  18.0336  18.1388  18.3424  18.3530  18.9346  19.0177
    19.6895  19.9476

          k = 0.0000 0.3750 0.0000 ( 13856 PWs)   bands (ev):

   -66.8593 -66.7588 -66.7126 -66.6157 -62.2490 -62.1531 -62.1255 -62.0511
   -35.6272 -35.5840 -35.5734 -35.5255 -35.4862 -35.4800 -35.4756 -35.4404
   -35.4298 -35.3928 -35.3406 -35.3299 -31.0800 -31.0727 -31.0663 -30.9871
   -30.9759 -30.9734 -30.9588 -30.9503 -30.9451 -30.8834 -30.8825 -30.8687
     7.6522   7.7435   7.8105   7.9851   8.0097   8.1445   8.1584   8.2091
     8.2244   8.3333   8.3528   8.4912   8.5801   8.6842   8.8416   8.9245
     8.9716   8.9946   9.1438   9.1696   9.2114   9.2291   9.2379   9.3001
     9.3006   9.3034   9.3068   9.3778   9.4191   9.4702   9.6080   9.6314
     9.6723   9.6789   9.6855   9.8045   9.8259   9.8285   9.9504   9.9976
    10.0137  10.0465  10.0729  10.1073  10.1839  10.2030  10.2412  10.3675
    10.4227  10.4402  10.5341  10.6268  10.6512  10.7637  10.8514  10.8865
    10.9632  10.9726  11.1003  11.1643  11.1980  11.2803  11.2886  11.3405
    11.3746  11.3976  11.3992  11.4793  11.5162  11.5321  11.5643  11.5840
    11.6205  11.6353  11.6394  11.6724  11.6852  11.7189  11.7651  11.8067
    11.8385  11.8393  11.8465  11.8564  11.9435  11.9932  12.0082  12.0598
    12.0766  12.0874  12.1047  12.1471  12.1473  12.1748  12.2857  12.3105
    12.3563  12.3700  12.4006  12.4374  12.5251  12.5557  12.6127  12.7433
    12.7584  12.8258  12.8769  12.9670  12.9857  13.0575  13.0751  13.8968
    13.9593  13.9738  14.2447  14.2925  14.7124  14.7930  15.0670  15.1114
    15.4283  15.4798  15.8781  15.9229  16.7356  16.7722  16.7880  16.8417
    16.8586  16.8991  16.9743  16.9984  17.0544  17.1243  17.1903  17.3810
    17.4351  17.5248  17.5657  17.6331  17.9101  17.9815  18.0569  18.2796
    19.5835  19.7374

          k = 0.0000 0.3750 0.0242 ( 13870 PWs)   bands (ev):

   -66.8593 -66.7588 -66.7126 -66.6157 -62.2490 -62.1531 -62.1255 -62.0511
   -35.6272 -35.5840 -35.5734 -35.5255 -35.4862 -35.4800 -35.4756 -35.4404
   -35.4298 -35.3928 -35.3406 -35.3299 -31.0800 -31.0727 -31.0663 -30.9871
   -30.9759 -30.9734 -30.9588 -30.9503 -30.9451 -30.8834 -30.8825 -30.8687
     7.6547   7.7305   7.8335   7.9434   8.0488   8.1267   8.1679   8.1966
     8.2419   8.3063   8.3833   8.4734   8.5902   8.6812   8.8471   8.9105
     8.9741   9.0085   9.1289   9.1597   9.2246   9.2291   9.2379   9.2895
     9.3006   9.3068   9.3321   9.3779   9.4191   9.4694   9.5520   9.6514
     9.6791   9.6852   9.6865   9.8053   9.8278   9.8594   9.9498   9.9975
    10.0134  10.0466  10.0764  10.1041  10.1079  10.1842  10.3228  10.3779
    10.4227  10.4385  10.5183  10.6258  10.6485  10.7665  10.8262  10.9101
    10.9585  10.9679  11.1077  11.1702  11.1999  11.2611  11.3159  11.3471
    11.3767  11.3907  11.4182  11.4791  11.5040  11.5296  11.5426  11.5757
    11.6102  11.6122  11.6386  11.6911  11.6938  11.7287  11.7639  11.7872
    11.8137  11.8351  11.8691  11.8842  11.9386  11.9909  11.9941  12.0232
    12.0626  12.0816  12.1477  12.1516  12.1719  12.2389  12.2848  12.3080
    12.3624  12.3671  12.4020  12.4447  12.5244  12.5521  12.6136  12.7226
    12.7439  12.7582  12.8256  12.8769  13.0575  13.0751  13.2327  13.7153
    13.9679  14.1299  14.1602  14.4257  14.5687  14.8424  14.9556  15.2527
    15.3719  15.5475  15.8509  15.9051  16.7356  16.7616  16.7880  16.8524
    16.8586  16.9024  16.9745  16.9984  17.0587  17.1174  17.1945  17.3808
    17.4351  17.5248  17.5657  17.6331  17.9115  17.9799  18.0578  18.2806
    19.5841  19.7548

          k = 0.0000 0.3750-0.0484 ( 13872 PWs)   bands (ev):

   -66.8593 -66.7588 -66.7126 -66.6157 -62.2490 -62.1531 -62.1255 -62.0511
   -35.6272 -35.5840 -35.5734 -35.5255 -35.4862 -35.4800 -35.4756 -35.4404
   -35.4298 -35.3928 -35.3406 -35.3299 -31.0800 -31.0727 -31.0663 -30.9871
   -30.9759 -30.9734 -30.9588 -30.9503 -30.9451 -30.8834 -30.8825 -30.8687
     7.6576   7.7201   7.8643   7.9068   8.0856   8.0992   8.1756   8.1873
     8.2606   8.2839   8.4110   8.4491   8.5991   8.6779   8.8549   8.8959
     8.9781   9.0199   9.1177   9.1483   9.2291   9.2379   9.2380   9.2821
     9.3006   9.3068   9.3593   9.3779   9.4191   9.4669   9.5144   9.6541
     9.6793   9.6849   9.6959   9.8063   9.8270   9.9090   9.9491   9.9975
    10.0094  10.0413  10.0467  10.0809  10.0999  10.1845  10.3486  10.4225
    10.4227  10.4308  10.4896  10.6248  10.6456  10.7693  10.8109  10.9247
    10.9536  10.9633  11.1154  11.1762  11.1992  11.2517  11.3228  11.3720
    11.3827  11.4018  11.4522  11.4589  11.4729  11.4854  11.5474  11.5664
    11.5903  11.6251  11.6395  11.7009  11.7038  11.7336  11.7642  11.7777
    11.7905  11.8314  11.8840  11.9063  11.9411  11.9887  11.9889  11.9902
    12.0556  12.0811  12.1505  12.1561  12.2052  12.2501  12.2837  12.3562
    12.3608  12.4027  12.4516  12.4679  12.4895  12.5360  12.5484  12.6144
    12.7445  12.7579  12.8254  12.8770  13.0575  13.0751  13.4716  13.4908
    14.0074  14.0574  14.3436  14.3653  14.6086  14.6680  15.0743  15.1688
    15.4993  15.5216  15.8302  15.8801  16.7356  16.7540  16.7880  16.8586
    16.8591  16.9066  16.9747  16.9984  17.0642  17.1098  17.1984  17.3806
    17.4351  17.5248  17.5657  17.6331  17.9131  17.9782  18.0586  18.2816
    19.5864  19.7697

          k = 0.0000-0.5000 0.0000 ( 13918 PWs)   bands (ev):

   -66.8597 -66.7592 -66.7131 -66.6162 -62.2484 -62.1525 -62.1249 -62.0505
   -35.6270 -35.5856 -35.5733 -35.5254 -35.4879 -35.4798 -35.4755 -35.4421
   -35.4297 -35.3927 -35.3422 -35.3298 -31.0822 -31.0725 -31.0662 -30.9894
   -30.9756 -30.9733 -30.9610 -30.9501 -30.9449 -30.8847 -30.8832 -30.8686
     8.1177   8.1228   8.1729   8.1795   8.2276   8.2812   8.3252   8.3854
     8.4466   8.4709   8.5165   8.5297   8.5465   8.6456   8.7465   8.8350
     8.9275   8.9387   9.1303   9.1381   9.1705   9.2018   9.2165   9.2260
     9.2355   9.2950   9.3119   9.3497   9.5583   9.5936   9.6400   9.6728
     9.6900   9.7166   9.7307   9.7437   9.7476   9.8321   9.8631   9.9801
     9.9973  10.0020  10.0365  10.0385  10.0832  10.1073  10.2238  10.3136
    10.4088  10.4781  10.5012  10.5532  10.5912  10.6714  10.7307  10.9369
    11.0749  11.1930  11.2640  11.3730  11.3824  11.4540  11.4563  11.4578
    11.5154  11.5293  11.5425  11.5613  11.5621  11.5787  11.5955  11.6066
    11.6147  11.6335  11.6721  11.7025  11.7326  11.7651  11.7981  11.8442
    11.8635  11.8709  11.9537  12.0841  12.1952  12.2675  12.2735  12.3704
    12.4134  12.4175  12.4397  12.4585  12.4842  12.5047  12.5331  12.5438
    12.5703  12.5943  12.6373  12.6525  12.7191  12.7796  12.7890  12.8541
    12.8559  12.9179  12.9565  12.9813  13.0872  13.0940  13.1117  13.2365
    13.2444  13.4035  13.6223  13.7650  13.8747  13.9069  14.3379  14.4064
    14.4237  14.5235  14.8303  14.8936  16.4942  16.6801  16.6918  16.7693
    16.8379  16.8407  16.8429  16.8635  16.9053  16.9070  17.0587  17.0931
    17.5089  17.5997  17.6411  17.7044  17.9011  18.0085  18.0256  18.1098
    19.6224  19.6729

          k = 0.0000-0.5000 0.0242 ( 13918 PWs)   bands (ev):

   -66.8597 -66.7592 -66.7131 -66.6162 -62.2484 -62.1525 -62.1249 -62.0505
   -35.6270 -35.5856 -35.5733 -35.5254 -35.4879 -35.4798 -35.4755 -35.4421
   -35.4297 -35.3927 -35.3422 -35.3298 -31.0822 -31.0725 -31.0662 -30.9894
   -30.9756 -30.9733 -30.9610 -30.9501 -30.9449 -30.8847 -30.8832 -30.8686
     8.1176   8.1226   8.1738   8.1797   8.2265   8.2800   8.3272   8.3840
     8.4535   8.4715   8.5009   8.5295   8.5555   8.6471   8.7444   8.8336
     8.9299   8.9422   9.1303   9.1381   9.1498   9.2018   9.2215   9.2260
     9.2422   9.2950   9.3119   9.3716   9.5582   9.5712   9.6126   9.6728
     9.6990   9.7309   9.7322   9.7476   9.7490   9.8314   9.8627   9.9807
     9.9973  10.0118  10.0362  10.0385  10.0832  10.1376  10.2069  10.3225
    10.3368  10.4781  10.5012  10.5912  10.6058  10.6714  10.7307  10.9326
    11.0750  11.1913  11.2631  11.3720  11.3789  11.4545  11.4574  11.4663
    11.5175  11.5271  11.5389  11.5611  11.5631  11.5838  11.5856  11.6086
    11.6096  11.6335  11.6563  11.6987  11.7358  11.7650  11.8001  11.8433
    11.8700  11.8933  11.9537  12.0859  12.1784  12.2711  12.2714  12.3704
    12.4134  12.4193  12.4440  12.4589  12.4842  12.5042  12.5319  12.5357
    12.5718  12.5936  12.6472  12.6525  12.7184  12.7796  12.7893  12.8399
    12.8541  12.9179  12.9765  12.9905  13.0872  13.0897  13.0940  13.2090
    13.2663  13.4493  13.5961  13.6781  13.9589  13.9718  14.2217  14.2980
    14.5337  14.6195  14.8007  14.8688  16.5030  16.6807  16.6816  16.7693
    16.8379  16.8407  16.8429  16.8635  16.9053  16.9102  17.0583  17.0931
    17.5089  17.5997  17.6411  17.7044  17.9012  18.0080  18.0259  18.1098
    19.6331  19.6801

          k = 0.0000-0.5000-0.0484 ( 13892 PWs)   bands (ev):

   -66.8597 -66.7592 -66.7131 -66.6162 -62.2484 -62.1525 -62.1249 -62.0505
   -35.6270 -35.5856 -35.5733 -35.5254 -35.4879 -35.4798 -35.4755 -35.4421
   -35.4297 -35.3927 -35.3422 -35.3298 -31.0822 -31.0725 -31.0662 -30.9894
   -30.9756 -30.9733 -30.9610 -30.9501 -30.9449 -30.8847 -30.8832 -30.8686
     8.1176   8.1224   8.1747   8.1799   8.2253   8.2788   8.3293   8.3825
     8.4665   8.4721   8.4825   8.5293   8.5613   8.6487   8.7423   8.8322
     8.9324   8.9456   9.1303   9.1365   9.1381   9.2018   9.2100   9.2261
     9.2610   9.2950   9.3119   9.3929   9.5516   9.5582   9.5884   9.6728
     9.7042   9.7311   9.7427   9.7476   9.7546   9.8307   9.8622   9.9812
     9.9973  10.0229  10.0359  10.0385  10.0832  10.1906  10.1986  10.2502
    10.3296  10.4780  10.5012  10.5911  10.6429  10.6714  10.7307  10.9275
    11.0751  11.1897  11.2623  11.3711  11.3751  11.4551  11.4585  11.4755
    11.5193  11.5240  11.5437  11.5476  11.5606  11.5831  11.5941  11.6045
    11.6175  11.6325  11.6335  11.6967  11.7382  11.7649  11.8011  11.8424
    11.8691  11.9234  11.9537  12.0877  12.1593  12.2687  12.2753  12.3704
    12.4134  12.4211  12.4481  12.4595  12.4842  12.5035  12.5284  12.5308
    12.5732  12.5929  12.6525  12.6567  12.7177  12.7796  12.7895  12.8262
    12.8541  12.9178  12.9953  13.0036  13.0667  13.0872  13.0940  13.1849
    13.2863  13.5161  13.5720  13.5940  14.0546  14.0756  14.1016  14.1882
    14.6183  14.6951  14.7537  14.8302  16.5127  16.6706  16.6813  16.7693
    16.8379  16.8407  16.8428  16.8635  16.9052  16.9134  17.0578  17.0931
    17.5089  17.5997  17.6411  17.7044  17.9014  18.0076  18.0262  18.1098
    19.6450  19.6877

          k = 0.1250 0.1250 0.0000 ( 13839 PWs)   bands (ev):

   -66.8585 -66.7580 -66.7119 -66.6150 -62.2504 -62.1545 -62.1270 -62.0526
   -35.6279 -35.5757 -35.5756 -35.5262 -35.4807 -35.4779 -35.4779 -35.4321
   -35.4320 -35.3935 -35.3322 -35.3322 -31.0736 -31.0692 -31.0690 -30.9768
   -30.9764 -30.9762 -30.9512 -30.9480 -30.9478 -30.8843 -30.8717 -30.8715
     6.2388   6.3643   6.4594   6.7985   6.8694   7.4228   7.4547   7.9409
     8.3906   8.5750   8.6674   8.6805   8.7129   8.7605   8.7813   8.7925
     8.8488   9.0501   9.0508   9.1003   9.2777   9.3003   9.3414   9.3683
     9.4013   9.4169   9.4660   9.4941   9.5963   9.6453   9.6791   9.7651
     9.7788   9.8322   9.8399   9.8720   9.8934   9.8995   9.9245   9.9577
    10.0873  10.0995  10.1046  10.1677  10.1815  10.2629  10.3291  10.3428
    10.3440  10.3757  10.3907  10.4195  10.4359  10.4424  10.5589  10.5957
    10.6475  10.6700  10.6893  10.7585  10.7701  10.7703  10.8722  10.9155
[...]
    11.4650  11.5385  11.6372  11.6376  11.6711  11.7030  11.7438  11.7669
    11.8235  11.8628  11.8857  11.9179  11.9601  11.9816  12.0129  12.0523
    12.0558  12.0959  12.2263  12.2350  12.2765  12.3384  12.3890  12.4313
    12.4505  12.4756  12.4920  12.5389  12.8484  12.8940  12.9007  13.0738
    13.1120  13.3085  13.4457  13.6203  13.8048  13.8874  13.9138  14.3690
    14.3949  14.4451  14.6271  14.8065  14.9700  15.1637  15.2888  15.6651
    16.0005  16.1570  16.5291  16.7800  16.9581  16.9855  17.0250  17.0714
    17.1212  17.1274  17.1673  17.2979  17.4667  17.5875  17.7228  17.7986
    17.9242  17.9848  18.1219  18.1350  18.2756  18.2981  18.4621  18.4657
    19.6367  19.7532

          k = 0.3750 0.3750 0.0000 ( 13948 PWs)   bands (ev):

   -66.8575 -66.7571 -66.7112 -66.6140 -62.2496 -62.1537 -62.1258 -62.0517
   -35.6264 -35.5830 -35.5829 -35.5250 -35.4854 -35.4853 -35.4796 -35.4398
   -35.4397 -35.3922 -35.3396 -35.3396 -31.0790 -31.0788 -31.0721 -30.9861
   -30.9859 -30.9752 -30.9574 -30.9572 -30.9493 -30.8828 -30.8815 -30.8813
     8.0166   8.1540   8.2991   8.3624   8.4762   8.5541   8.6570   8.7087
     8.9531   8.9952   9.0133   9.0338   9.0454   9.1501   9.1735   9.1766
     9.2433   9.2635   9.2999   9.3496   9.3498   9.3750   9.4235   9.4793
     9.4807   9.4860   9.5253   9.5569   9.6490   9.6691   9.6872   9.8195
     9.9269   9.9399   9.9515   9.9849  10.0112  10.0359  10.0362  10.0853
    10.1002  10.1222  10.1446  10.1893  10.2505  10.2516  10.2597  10.3749
    10.3855  10.4433  10.4944  10.5561  10.5569  10.6459  10.6743  10.7161
    10.7391  10.7633  10.8304  10.8479  10.9481  11.0354  11.0628  11.0812
    11.1754  11.2097  11.2239  11.2846  11.3204  11.4368  11.4794  11.5196
    11.5652  11.5778  11.5991  11.6189  11.6404  11.6619  11.7010  11.7577
    11.7870  11.9341  11.9552  11.9615  11.9805  11.9893  12.0128  12.0157
    12.0345  12.0655  12.1088  12.1265  12.1774  12.2241  12.2978  12.3321
    12.4037  12.4575  12.4898  12.5511  12.7226  12.7771  12.7936  13.1148
    13.1610  13.4973  13.6893  14.0415  14.3192  14.5845  14.7694  15.0975
    15.1585  15.1892  15.2631  15.4379  15.6227  16.0250  16.2943  16.4246
    16.5261  16.8321  17.0365  17.0639  17.0832  17.1124  17.1469  17.3256
    17.4077  17.4731  17.6062  17.7160  17.7713  17.8349  17.8603  18.0207
    18.0365  18.0903  18.1103  18.2390  18.2578  18.4773  18.6486  18.7337
    18.7831  18.8936

          k = 0.3750 0.3750 0.0242 ( 13940 PWs)   bands (ev):

   -66.8575 -66.7571 -66.7112 -66.6140 -62.2496 -62.1537 -62.1258 -62.0517
   -35.6264 -35.5830 -35.5829 -35.5250 -35.4854 -35.4853 -35.4796 -35.4398
   -35.4397 -35.3922 -35.3396 -35.3396 -31.0790 -31.0788 -31.0721 -30.9861
   -30.9859 -30.9752 -30.9574 -30.9572 -30.9493 -30.8828 -30.8815 -30.8813
     8.0173   8.1502   8.3071   8.3626   8.4755   8.5457   8.6321   8.7502
     8.9436   8.9940   9.0105   9.0377   9.0503   9.1149   9.1679   9.1971
     9.2268   9.3000   9.3089   9.3475   9.3510   9.3808   9.4049   9.4524
     9.4793   9.5217   9.5224   9.5617   9.6199   9.6476   9.7409   9.8331
     9.8816   9.9438   9.9502   9.9643  10.0166  10.0321  10.0592  10.0687
    10.1152  10.1367  10.1841  10.1841  10.2200  10.2449  10.2616  10.3830
    10.4030  10.4098  10.4754  10.5412  10.5910  10.6512  10.6790  10.7040
    10.7453  10.7863  10.8298  10.8481  10.9232  11.0291  11.0628  11.0787
    11.1717  11.2013  11.2447  11.2963  11.3222  11.4371  11.4788  11.5203
    11.5652  11.5770  11.5999  11.6112  11.6186  11.6619  11.7086  11.7577
    11.8111  11.9285  11.9341  11.9615  11.9808  11.9871  12.0161  12.0316
    12.0412  12.0656  12.0945  12.1211  12.1933  12.2252  12.2986  12.3173
    12.4118  12.4557  12.4927  12.5605  12.6720  12.7932  12.8360  13.0477
    13.2236  13.4659  13.7155  14.0193  14.3493  14.5523  14.7866  15.1039
    15.1552  15.1743  15.2729  15.4365  15.6228  16.0265  16.2929  16.4211
    16.5294  16.8434  17.0321  17.0526  17.0829  17.1148  17.1457  17.2998
    17.4259  17.5059  17.5817  17.7102  17.7791  17.8348  17.8786  17.9931
    18.0177  18.1074  18.1320  18.2745  18.3013  18.4205  18.5442  18.6639
    18.7382  19.0086

          k = 0.3750 0.3750-0.0484 ( 13950 PWs)   bands (ev):

   -66.8575 -66.7571 -66.7112 -66.6140 -62.2496 -62.1537 -62.1258 -62.0517
   -35.6264 -35.5830 -35.5829 -35.5250 -35.4854 -35.4853 -35.4796 -35.4398
   -35.4397 -35.3922 -35.3396 -35.3396 -31.0790 -31.0788 -31.0721 -30.9861
   -30.9859 -30.9752 -30.9574 -30.9572 -30.9493 -30.8828 -30.8815 -30.8813
     8.0179   8.1466   8.3152   8.3629   8.4751   8.5351   8.6215   8.7814
     8.9338   8.9930   9.0088   9.0397   9.0473   9.0996   9.1662   9.1922
     9.2425   9.3001   9.3079   9.3456   9.3869   9.3871   9.4026   9.4351
     9.4389   9.5330   9.5628   9.5727   9.5737   9.6388   9.7914   9.8300
     9.8584   9.9269   9.9443   9.9499  10.0097  10.0331  10.0705  10.1110
    10.1242  10.1325  10.1526  10.2019  10.2232  10.2412  10.2889  10.3263
    10.4022  10.4304  10.4728  10.5227  10.6026  10.6696  10.6831  10.6882
    10.7470  10.8293  10.8294  10.8483  10.8785  11.0248  11.0628  11.0771
    11.1693  11.1996  11.2524  11.3081  11.3288  11.4373  11.4781  11.5210
    11.5654  11.5762  11.5865  11.6006  11.6183  11.6619  11.7118  11.7577
    11.8426  11.8977  11.9342  11.9615  11.9816  11.9848  12.0163  12.0465
    12.0511  12.0662  12.0788  12.1145  12.2088  12.2262  12.2995  12.3022
    12.4182  12.4542  12.4950  12.5770  12.6340  12.7929  12.8887  12.9929
    13.2664  13.4324  13.7401  13.9971  14.3859  14.5146  14.8012  15.1130
    15.1518  15.1586  15.2809  15.4350  15.6228  16.0280  16.2916  16.4176
    16.5328  16.8561  17.0218  17.0465  17.0828  17.1164  17.1447  17.2799
    17.4488  17.5340  17.5542  17.7031  17.7842  17.8348  17.9083  17.9613
    18.0012  18.1050  18.1839  18.3066  18.3601  18.3982  18.4340  18.5400
    18.7724  19.0123

          k = 0.3750-0.5000 0.0000 ( 13934 PWs)   bands (ev):

   -66.8575 -66.7572 -66.7113 -66.6140 -62.2494 -62.1534 -62.1255 -62.0515
   -35.6263 -35.5846 -35.5828 -35.5249 -35.4870 -35.4852 -35.4795 -35.4414
   -35.4396 -35.3921 -35.3412 -35.3394 -31.0811 -31.0787 -31.0720 -30.9882
   -30.9858 -30.9751 -30.9595 -30.9571 -30.9491 -30.8836 -30.8827 -30.8812
     8.1410   8.1456   8.2637   8.2872   8.3664   8.4665   8.6849   8.7106
     8.8322   8.9461   9.1055   9.1137   9.1288   9.1620   9.1762   9.2009
     9.2243   9.2281   9.2472   9.2505   9.3085   9.3819   9.3930   9.3960
     9.4311   9.4634   9.5616   9.5826   9.6262   9.6581   9.8259   9.8497
     9.9084   9.9257   9.9562   9.9570   9.9971   9.9978  10.0792  10.1268
    10.1439  10.1770  10.1924  10.1995  10.3224  10.3611  10.3734  10.3869
    10.4623  10.4784  10.5908  10.6686  10.6990  10.7533  10.7914  10.8636
    10.8804  11.0126  11.0660  11.0901  11.1118  11.1513  11.1767  11.2278
    11.2572  11.3070  11.3208  11.3800  11.4440  11.4898  11.5168  11.5606
    11.6043  11.6160  11.6971  11.7139  11.7421  11.7873  11.8033  11.8151
    11.9024  11.9507  11.9956  11.9957  12.0402  12.0678  12.0772  12.0992
    12.1017  12.1387  12.1854  12.2426  12.2447  12.3031  12.3185  12.3640
    12.3939  12.4406  12.5370  12.5869  12.9674  13.0707  13.1777  13.2339
    13.5711  13.7440  13.8942  14.1873  14.2971  14.3685  14.4362  14.6391
    14.7127  14.7882  15.3399  15.3927  15.4003  15.7429  16.0655  16.3809
    16.7595  16.8957  17.0078  17.0224  17.0663  17.0708  17.1127  17.2171
    17.3969  17.4792  17.5567  17.8061  17.8310  17.9806  17.9919  18.0435
    18.1327  18.1647  18.2846  18.3534  18.4406  18.6127  18.7707  18.7745
    18.8563  18.8643

          k = 0.3750-0.5000 0.0242 ( 13948 PWs)   bands (ev):

   -66.8575 -66.7572 -66.7113 -66.6140 -62.2494 -62.1534 -62.1255 -62.0515
   -35.6263 -35.5846 -35.5828 -35.5249 -35.4870 -35.4852 -35.4795 -35.4414
   -35.4396 -35.3921 -35.3412 -35.3394 -31.0811 -31.0787 -31.0720 -30.9882
   -30.9858 -30.9751 -30.9595 -30.9571 -30.9491 -30.8836 -30.8827 -30.8812
     8.1416   8.1458   8.2624   8.2836   8.3682   8.4797   8.6534   8.7065
     8.8751   8.9591   9.0642   9.0991   9.1229   9.1568   9.1838   9.2030
     9.2116   9.2474   9.2475   9.2749   9.3153   9.3708   9.3907   9.3991
     9.4470   9.4615   9.5202   9.5858   9.6335   9.7082   9.7717   9.8497
     9.8884   9.9476   9.9512   9.9770   9.9990  10.0016  10.0948  10.1374
    10.1431  10.1769  10.1875  10.1988  10.2988  10.3125  10.3319  10.4418
    10.4849  10.5282  10.5893  10.6660  10.7006  10.7508  10.7713  10.7754
    10.9664  11.0133  11.0659  11.0841  11.1334  11.1356  11.1720  11.2305
    11.2587  11.3055  11.3081  11.3823  11.4531  11.4861  11.5039  11.5635
    11.6114  11.6192  11.6960  11.7061  11.7519  11.7873  11.7953  11.8189
    11.9036  11.9496  11.9948  11.9965  12.0405  12.0645  12.0776  12.0980
    12.1040  12.1381  12.1820  12.2404  12.2447  12.3111  12.3145  12.3822
    12.3950  12.4410  12.5283  12.5718  12.9894  13.0754  13.1379  13.2581
    13.5617  13.7534  13.8918  14.1939  14.2847  14.3589  14.4500  14.6534
    14.7085  14.7769  15.3412  15.3960  15.3994  15.7408  16.0655  16.3803
    16.7624  16.8887  17.0069  17.0281  17.0646  17.0662  17.1373  17.2289
    17.3122  17.5430  17.5683  17.7894  17.8294  17.9723  18.0107  18.0324
    18.1383  18.1505  18.2187  18.4344  18.4606  18.6109  18.7634  18.7870
    18.8516  18.8737

          k = 0.3750-0.5000-0.0484 ( 13940 PWs)   bands (ev):

   -66.8575 -66.7572 -66.7113 -66.6140 -62.2494 -62.1534 -62.1255 -62.0515
   -35.6263 -35.5846 -35.5828 -35.5249 -35.4870 -35.4852 -35.4795 -35.4414
   -35.4396 -35.3921 -35.3412 -35.3394 -31.0811 -31.0787 -31.0720 -30.9882
   -30.9858 -30.9751 -30.9595 -30.9571 -30.9491 -30.8836 -30.8827 -30.8812
     8.1422   8.1460   8.2612   8.2802   8.3701   8.4956   8.6250   8.7025
     8.9297   8.9745   9.0074   9.0869   9.1191   9.1562   9.1839   9.1920
     9.2147   9.2512   9.2731   9.2762   9.3320   9.3603   9.3848   9.4002
     9.4633   9.4715   9.4879   9.5601   9.6906   9.7121   9.7654   9.7901
     9.9092   9.9441   9.9500   9.9869   9.9997  10.0110  10.1239  10.1370
    10.1616  10.1635  10.1736  10.2132  10.2570  10.2716  10.3352  10.4606
    10.5014  10.5693  10.6250  10.6620  10.6690  10.7202  10.7518  10.7594
    11.0138  11.0192  11.0681  11.0816  11.1052  11.1521  11.1705  11.2362
    11.2600  11.2915  11.3042  11.3842  11.4725  11.4817  11.4830  11.5659
    11.6181  11.6225  11.6947  11.6999  11.7620  11.7867  11.7872  11.8212
    11.9049  11.9485  11.9940  11.9973  12.0408  12.0615  12.0780  12.0967
    12.1059  12.1375  12.1791  12.2366  12.2462  12.3122  12.3195  12.3965
    12.3999  12.4418  12.5190  12.5549  13.0214  13.0801  13.0974  13.2727
    13.5529  13.7622  13.8893  14.2010  14.2738  14.3491  14.4624  14.6703
    14.7040  14.7628  15.3425  15.3986  15.3994  15.7386  16.0655  16.3797
    16.7657  16.8816  17.0063  17.0348  17.0574  17.0661  17.1892  17.2308
    17.2408  17.5296  17.6563  17.7213  17.8591  17.9546  18.0223  18.0282
    18.1354  18.1482  18.1808  18.4813  18.4846  18.6084  18.7547  18.8216
    18.8475  18.8778

          k =-0.5000-0.5000 0.0000 ( 13964 PWs)   bands (ev):

   -66.8575 -66.7572 -66.7113 -66.6140 -62.2492 -62.1533 -62.1254 -62.0514
   -35.6262 -35.5844 -35.5844 -35.5248 -35.4868 -35.4868 -35.4794 -35.4412
   -35.4412 -35.3920 -35.3410 -35.3410 -31.0809 -31.0809 -31.0719 -30.9880
   -30.9880 -30.9749 -30.9593 -30.9593 -30.9490 -30.8834 -30.8834 -30.8826
     8.0580   8.0581   8.1808   8.2137   8.2903   8.3944   8.6561   8.6671
     8.7639   8.8662   9.1047   9.1468   9.1787   9.1993   9.2360   9.2360
     9.2993   9.2993   9.3155   9.3155   9.4001   9.4348   9.4409   9.4409
     9.4469   9.4469   9.6867   9.6867   9.6940   9.6940   9.8203   9.9076
     9.9076   9.9246   9.9246   9.9606   9.9666   9.9989   9.9989  10.0398
    10.0398  10.0495  10.0613  10.0613  10.1694  10.1694  10.5145  10.5145
    10.5178  10.5957  10.6350  10.6350  10.6696  10.6815  11.0846  11.0846
    11.1090  11.1269  11.1432  11.2165  11.2213  11.2719  11.2719  11.3100
    11.3649  11.4577  11.4955  11.5257  11.5350  11.5874  11.7338  11.7338
    11.9166  11.9436  11.9493  11.9493  11.9535  11.9711  11.9767  11.9947
    12.0073  12.0134  12.0349  12.0368  12.0564  12.0702  12.0804  12.0944
    12.1029  12.1271  12.1417  12.2053  12.2159  12.2606  12.2684  12.3260
    12.3439  12.4115  12.5388  12.5388  13.3536  13.4023  13.4184  13.4377
    13.8532  13.8532  14.0960  14.0960  14.3362  14.3362  14.7243  14.7243
    14.8744  14.8744  15.8711  15.8711  15.9684  15.9684  16.5762  16.6720
    16.6978  16.8434  16.8537  16.8947  16.9776  17.0502  17.0502  17.1312
    17.3072  17.3072  17.7461  17.7762  17.8340  17.9190  18.0005  18.0107
    18.0254  18.0254  18.0931  18.1290  18.2048  18.2104  18.2104  18.2147
    18.2376  18.5523

          k =-0.5000-0.5000 0.0242 ( 13960 PWs)   bands (ev):

   -66.8575 -66.7572 -66.7113 -66.6140 -62.2492 -62.1533 -62.1254 -62.0514
   -35.6262 -35.5844 -35.5844 -35.5248 -35.4868 -35.4868 -35.4794 -35.4412
   -35.4412 -35.3920 -35.3410 -35.3410 -31.0809 -31.0809 -31.0719 -30.9880
   -30.9880 -30.9749 -30.9593 -30.9593 -30.9490 -30.8834 -30.8834 -30.8826
     8.0584   8.0585   8.1795   8.2106   8.2923   8.4053   8.6182   8.6603
     8.8183   8.8866   9.0333   9.0863   9.2364   9.2364   9.2431   9.2657
     9.2918   9.2918   9.3294   9.3294   9.3817   9.4024   9.4024   9.4108
     9.4940   9.4940   9.6171   9.6171   9.7711   9.7711   9.8304   9.9075
     9.9075   9.9245   9.9245   9.9511   9.9533   9.9533   9.9675   9.9998
     9.9998  10.0527  10.1193  10.1193  10.2012  10.2012  10.4348  10.4348
    10.5167  10.5970  10.6692  10.6815  10.7194  10.7194  11.0092  11.0092
    11.1090  11.1265  11.1432  11.2164  11.2223  11.3092  11.3390  11.3390
    11.3650  11.4578  11.4955  11.5257  11.5352  11.5874  11.6872  11.6872
    11.9166  11.9436  11.9535  11.9711  11.9764  11.9764  11.9767  11.9947
    12.0073  12.0134  12.0349  12.0368  12.0564  12.0702  12.0804  12.0944
    12.1029  12.1271  12.1417  12.2055  12.2130  12.2666  12.2683  12.3223
    12.3439  12.4121  12.5340  12.5340  13.3536  13.4023  13.4184  13.4377
    13.8702  13.8702  14.0625  14.0625  14.3606  14.3606  14.7134  14.7134
    14.8784  14.8784  15.8707  15.8707  15.9692  15.9692  16.5761  16.6732
    16.6965  16.8434  16.8526  16.8947  16.9818  17.0293  17.0293  17.1267
    17.3608  17.3608  17.7522  17.7939  17.8202  17.8789  17.8789  17.9278
    17.9688  18.0107  18.0931  18.1290  18.2038  18.2147  18.2577  18.3940
    18.3940  18.5483

          k =-0.5000-0.5000-0.0484 ( 13992 PWs)   bands (ev):

   -66.8575 -66.7572 -66.7113 -66.6140 -62.2492 -62.1533 -62.1254 -62.0514
   -35.6262 -35.5844 -35.5844 -35.5248 -35.4868 -35.4868 -35.4794 -35.4412
   -35.4412 -35.3920 -35.3410 -35.3410 -31.0809 -31.0809 -31.0719 -30.9880
   -30.9880 -30.9749 -30.9593 -30.9593 -30.9490 -30.8834 -30.8834 -30.8826
     8.0586   8.0590   8.1782   8.2076   8.2942   8.4177   8.5897   8.6540
     8.8845   8.9122   8.9616   9.0437   9.2367   9.2367   9.2875   9.2875
     9.3026   9.3350   9.3452   9.3452   9.3457   9.3602   9.3791   9.3791
     9.5504   9.5504   9.5530   9.5530   9.8416   9.8525   9.8525   9.8658
     9.8658   9.9076   9.9076   9.9246   9.9246   9.9406   9.9684   9.9996
     9.9996  10.0555  10.1313  10.1313  10.2663  10.2663  10.3538  10.3538
    10.5156  10.5983  10.6688  10.6815  10.8079  10.8079  10.9217  10.9217
    11.1090  11.1262  11.1433  11.2164  11.2233  11.3084  11.3649  11.3994
    11.3994  11.4577  11.4955  11.5257  11.5354  11.5874  11.6371  11.6371
    11.9166  11.9436  11.9535  11.9711  11.9767  11.9947  11.9984  11.9984
    12.0073  12.0134  12.0349  12.0368  12.0564  12.0702  12.0804  12.0944
    12.1029  12.1271  12.1416  12.2056  12.2105  12.2682  12.2727  12.3179
    12.3439  12.4128  12.5290  12.5290  13.3536  13.4023  13.4184  13.4377
    13.8928  13.8928  14.0264  14.0264  14.3826  14.3826  14.7022  14.7022
    14.8821  14.8821  15.8704  15.8704  15.9699  15.9699  16.5761  16.6745
    16.6950  16.8434  16.8516  16.8946  16.9862  17.0124  17.0124  17.1220
    17.4225  17.4225  17.7608  17.7751  17.7751  17.8052  17.8183  17.9328
    17.9352  18.0107  18.0931  18.1290  18.2027  18.2147  18.2756  18.5441
    18.6027  18.6027

     the Fermi energy is    15.2857 ev

!    total energy              =  -14694.00475346 Ry
     Harris-Foulkes estimate   =  -14694.00474980 Ry
     estimated scf accuracy    <       0.00000086 Ry

     total all-electron energy =   -626921.600475 Ry

     The total energy is the sum of the following terms:

     one-electron contribution =    -714.47082208 Ry
     hartree contribution      =     656.52914974 Ry
     xc contribution           =    -737.87966838 Ry
     ewald contribution        =   -2196.78933708 Ry
     Hubbard energy            =       0.44948798 Ry
     one-center paw contrib.   =  -11701.84356365 Ry

     total magnetization       =     0.00 Bohr mag/cell
     absolute magnetization    =    37.23 Bohr mag/cell

     convergence has been achieved in  29 iterations

     Writing output data file mnau2.save/
 
     init_run     :     69.87s CPU     71.94s WALL (       1 calls)
     electrons    :   4422.08s CPU   4516.62s WALL (       1 calls)

     Called by init_run:
     wfcinit      :     66.23s CPU     67.78s WALL (       1 calls)
     potinit      :      1.63s CPU      1.71s WALL (       1 calls)
     hinit0       :      1.24s CPU      1.33s WALL (       1 calls)

     Called by electrons:
     c_bands      :   3962.77s CPU   4040.72s WALL (      29 calls)
     sum_band     :    414.04s CPU    428.77s WALL (      29 calls)
     v_of_rho     :      3.20s CPU      3.23s WALL (      30 calls)
     newd         :     11.88s CPU     12.09s WALL (      30 calls)
     PAW_pot      :     30.46s CPU     30.75s WALL (      30 calls)
     mix_rho      :      0.75s CPU      0.77s WALL (      29 calls)

     Called by c_bands:
     init_us_2    :     17.47s CPU     17.59s WALL (    5400 calls)
     cegterg      :   3841.54s CPU   3918.53s WALL (    2610 calls)

     Called by sum_band:
     sum_band:bec :      5.85s CPU      5.89s WALL (    2610 calls)
     addusdens    :     22.37s CPU     22.52s WALL (      29 calls)

     Called by *egterg:
     h_psi        :   1421.50s CPU   1463.05s WALL (   10055 calls)
     s_psi        :    282.75s CPU    282.94s WALL (   10145 calls)
     g_psi        :      2.62s CPU      2.65s WALL (    7355 calls)
     cdiaghg      :   1420.83s CPU   1454.56s WALL (    9965 calls)

     Called by h_psi:
     h_psi:pot    :   1286.76s CPU   1327.47s WALL (   10055 calls)
     h_psi:calbec :    340.61s CPU    359.34s WALL (   10055 calls)
     vloc_psi     :    668.32s CPU    690.08s WALL (   10055 calls)
     add_vuspsi   :    277.62s CPU    277.90s WALL (   10055 calls)
     vhpsi        :    130.51s CPU    131.32s WALL (   10055 calls)

     General routines
     calbec       :    604.48s CPU    633.49s WALL (   25420 calls)
     fft          :      2.24s CPU      2.26s WALL (     746 calls)
     ffts         :      0.10s CPU      0.10s WALL (     118 calls)
     fftw         :    774.44s CPU    799.52s WALL ( 2424598 calls)
     interpolate  :      0.22s CPU      0.22s WALL (      60 calls)
     davcio       :      0.01s CPU      5.76s WALL (      90 calls)
 
     Parallel routines
     fft_scatt_xy :     57.10s CPU     58.89s WALL ( 2425462 calls)
     fft_scatt_yz :    440.63s CPU    454.19s WALL ( 2425462 calls)

     Hubbard U routines
     new_ns       :     23.80s CPU     24.09s WALL (      29 calls)
     vhpsi        :    130.51s CPU    131.32s WALL (   10055 calls)
 
     PWSCF        :     1h15m CPU       15h 1m WALL

      17h
 
   This run was terminated on:  16:24:35   8Apr2019            

=------------------------------------------------------------------------------=
   JOB DONE.
=------------------------------------------------------------------------------=
