
     Program PWSCF v.6.3MaX starts on  8Apr2019 at 16:24:38 

     This program is part of the open-source Quantum ESPRESSO suite
     for quantum simulation of materials; please cite
         "P. Giannozzi et al., J. Phys.:Condens. Matter 21 395502 (2009);
         "P. Giannozzi et al., J. Phys.:Condens. Matter 29 465901 (2017);
          URL http://www.quantum-espresso.org", 
     in publications or presentations arising from this work. More details at
     http://www.quantum-espresso.org/quote

     Parallel version (MPI), running on    32 processors

     MPI processes distributed on     1 nodes
     R & G space division:  proc/nbgrp/npool/nimage =      32
     Waiting for input...
     Reading input from standard input

     Current dimensions of program PWSCF are:
     Max number of different atomic species (ntypx) = 10
     Max number of k-points (npk) =  40000
     Max angular momentum in pseudopotentials (lmaxx) =  3
               file Mn.pbe-spn-kjpaw_psl.0.3.1.UPF: wavefunction(s)  3P 3D renormalized
               file Mn.pbe-spn-kjpaw_psl.0.3.1.UPF: wavefunction(s)  3P 3D renormalized
               file Au.pbe-dn-kjpaw_psl.0.1.UPF: wavefunction(s)  6S 6P 5D renormalized

     Subspace diagonalization in iterative solution of the eigenvalue problem:
     one sub-group per band group will be used
     scalapack distributed-memory algorithm (size of sub-group:  4*  4 procs)

 
     Parallelization info
     --------------------
     sticks:   dense  smooth     PW     G-vecs:    dense   smooth      PW
     Min          41      18      5                11487     3460     563
     Max          42      19      6                11527     3505     606
     Sum        1313     593    177               368373   111379   18691
 


     bravais-lattice index     =            0
     lattice parameter (alat)  =       6.4153  a.u.
     unit-cell volume          =    2724.7774 (a.u.)^3
     number of atoms/cell      =           24
     number of atomic types    =            3
     number of electrons       =       296.00
     number of Kohn-Sham states=          178
     kinetic-energy cutoff     =      45.0000  Ry
     charge density cutoff     =     400.0000  Ry
     convergence threshold     =      1.0E-06
     mixing beta               =       0.1000
     number of iterations used =            8  plain     mixing
     Exchange-correlation      = SLA PW PBX PBC ( 1  4  3  4 0 0)

     celldm(1)=   6.415315  celldm(2)=   0.000000  celldm(3)=   0.000000
     celldm(4)=   0.000000  celldm(5)=   0.000000  celldm(6)=   0.000000

     crystal axes: (cart. coord. in units of alat)
               a(1) = (   1.000000   0.000000   0.000000 )  
               a(2) = (   0.000000   1.000000   0.000000 )  
               a(3) = (   0.000000   0.000000  10.319937 )  

     reciprocal axes: (cart. coord. in units 2 pi/alat)
               b(1) = (  1.000000  0.000000  0.000000 )  
               b(2) = (  0.000000  1.000000  0.000000 )  
               b(3) = (  0.000000  0.000000  0.096900 )  


     PseudoPot. # 1 for Mn read from file:
     ./pseudo/Mn.pbe-spn-kjpaw_psl.0.3.1.UPF
     MD5 check sum: 7b43a3fb0e93e198b8dd8488d8cf503e
     Pseudo is Projector augmented-wave + core cor, Zval = 15.0
     Generated using "atomic" code by A. Dal Corso v.5.0.99 svn rev. 10869
     Shape of augmentation charge: PSQ
     Using radial grid of 1187 points,  6 beta functions with: 
                l(1) =   0
                l(2) =   0
                l(3) =   1
                l(4) =   1
                l(5) =   2
                l(6) =   2
     Q(r) pseudized with 0 coefficients 


     PseudoPot. # 2 for Mn read from file:
     ./pseudo/Mn.pbe-spn-kjpaw_psl.0.3.1.UPF
     MD5 check sum: 7b43a3fb0e93e198b8dd8488d8cf503e
     Pseudo is Projector augmented-wave + core cor, Zval = 15.0
     Generated using "atomic" code by A. Dal Corso v.5.0.99 svn rev. 10869
     Shape of augmentation charge: PSQ
     Using radial grid of 1187 points,  6 beta functions with: 
                l(1) =   0
                l(2) =   0
                l(3) =   1
                l(4) =   1
                l(5) =   2
                l(6) =   2
     Q(r) pseudized with 0 coefficients 


     PseudoPot. # 3 for Au read from file:
     ./pseudo/Au.pbe-dn-kjpaw_psl.0.1.UPF
     MD5 check sum: be11e2e8e535ebe2b3ccfb4f88f554cb
     Pseudo is Projector augmented-wave + core cor, Zval = 11.0
     Generated using "atomic" code by A. Dal Corso v.5.0.2 svn rev. 9415
     Shape of augmentation charge: PSQ
     Using radial grid of 1279 points,  6 beta functions with: 
                l(1) =   0
                l(2) =   0
                l(3) =   1
                l(4) =   1
                l(5) =   2
                l(6) =   2
     Q(r) pseudized with 0 coefficients 


     atomic species   valence    mass     pseudopotential
        Mn1           15.00    54.93800     Mn( 1.00)
        Mn2           15.00    54.93800     Mn( 1.00)
        Au            11.00   196.96600     Au( 1.00)

     Starting magnetic structure 
     atomic species   magnetization
        Mn1          0.800
        Mn2         -0.800
        Au           0.000


     Full LDA+U calculation (l_max = 2) with parameters (eV):
     U(  1) =   3.1200   J(  1) =   0.7000   B(  1) =   0.0803
     U(  2) =   3.1200   J(  2) =   0.7000   B(  2) =   0.0803



     16 Sym. Ops., with inversion, found ( 8 have fractional translation)



   Cartesian axes

     site n.     atom                  positions (alat units)
         1           Mn1 tau(   1) = (   0.0000000   0.0000000   0.0000000  )
         2           Mn1 tau(   2) = (   0.5000000   0.5000000   1.2899921  )
         3           Mn1 tau(   3) = (   0.0000000   0.0000000   2.5799843  )
         4           Mn2 tau(   4) = (   0.5000000   0.5000000   3.8699764  )
         5           Mn2 tau(   5) = (   0.0000000   0.0000000   5.1599686  )
         6           Mn1 tau(   6) = (   0.5000000   0.5000000   6.4499607  )
         7           Mn2 tau(   7) = (   0.0000000   0.0000000   7.7399528  )
         8           Mn2 tau(   8) = (   0.5000000   0.5000000   9.0299450  )
         9           Au  tau(   9) = (   0.5000000   0.5000000   0.4127975  )
        10           Au  tau(  10) = (   0.0000000   0.0000000   0.8771947  )
        11           Au  tau(  11) = (   0.0000000   0.0000000   1.7027896  )
        12           Au  tau(  12) = (   0.5000000   0.5000000   2.1671868  )
        13           Au  tau(  13) = (   0.5000000   0.5000000   2.9927818  )
        14           Au  tau(  14) = (   0.0000000   0.0000000   3.4571789  )
        15           Au  tau(  15) = (   0.0000000   0.0000000   4.2827739  )
        16           Au  tau(  16) = (   0.5000000   0.5000000   4.7471711  )
        17           Au  tau(  17) = (   0.5000000   0.5000000   5.5727660  )
        18           Au  tau(  18) = (   0.0000000   0.0000000   6.0371632  )
        19           Au  tau(  19) = (   0.0000000   0.0000000   6.8627582  )
        20           Au  tau(  20) = (   0.5000000   0.5000000   7.3271553  )
        21           Au  tau(  21) = (   0.5000000   0.5000000   8.1527503  )
        22           Au  tau(  22) = (   0.0000000   0.0000000   8.6171475  )
        23           Au  tau(  23) = (   0.0000000   0.0000000   9.4427424  )
        24           Au  tau(  24) = (   0.5000000   0.5000000   9.9071396  )

     number of k points=    45 (tetrahedron method)
                       cart. coord. in units 2pi/alat
        k(    1) = (   0.0000000   0.0000000   0.0000000), wk =   0.0039062
        k(    2) = (   0.0000000   0.0000000   0.0242250), wk =   0.0078125
        k(    3) = (   0.0000000   0.0000000  -0.0484499), wk =   0.0039062
        k(    4) = (   0.0000000   0.1250000   0.0000000), wk =   0.0156250
        k(    5) = (   0.0000000   0.1250000   0.0242250), wk =   0.0312500
        k(    6) = (   0.0000000   0.1250000  -0.0484499), wk =   0.0156250
        k(    7) = (   0.0000000   0.2500000   0.0000000), wk =   0.0156250
        k(    8) = (   0.0000000   0.2500000   0.0242250), wk =   0.0312500
        k(    9) = (   0.0000000   0.2500000  -0.0484499), wk =   0.0156250
        k(   10) = (   0.0000000   0.3750000   0.0000000), wk =   0.0156250
        k(   11) = (   0.0000000   0.3750000   0.0242250), wk =   0.0312500
        k(   12) = (   0.0000000   0.3750000  -0.0484499), wk =   0.0156250
        k(   13) = (   0.0000000  -0.5000000   0.0000000), wk =   0.0078125
        k(   14) = (   0.0000000  -0.5000000   0.0242250), wk =   0.0156250
        k(   15) = (   0.0000000  -0.5000000  -0.0484499), wk =   0.0078125
        k(   16) = (   0.1250000   0.1250000   0.0000000), wk =   0.0156250
        k(   17) = (   0.1250000   0.1250000   0.0242250), wk =   0.0312500
        k(   18) = (   0.1250000   0.1250000  -0.0484499), wk =   0.0156250
        k(   19) = (   0.1250000   0.2500000   0.0000000), wk =   0.0312500
        k(   20) = (   0.1250000   0.2500000   0.0242250), wk =   0.0625000
        k(   21) = (   0.1250000   0.2500000  -0.0484499), wk =   0.0312500
        k(   22) = (   0.1250000   0.3750000   0.0000000), wk =   0.0312500
        k(   23) = (   0.1250000   0.3750000   0.0242250), wk =   0.0625000
        k(   24) = (   0.1250000   0.3750000  -0.0484499), wk =   0.0312500
        k(   25) = (   0.1250000  -0.5000000   0.0000000), wk =   0.0156250
        k(   26) = (   0.1250000  -0.5000000   0.0242250), wk =   0.0312500
        k(   27) = (   0.1250000  -0.5000000  -0.0484499), wk =   0.0156250
        k(   28) = (   0.2500000   0.2500000   0.0000000), wk =   0.0156250
        k(   29) = (   0.2500000   0.2500000   0.0242250), wk =   0.0312500
        k(   30) = (   0.2500000   0.2500000  -0.0484499), wk =   0.0156250
        k(   31) = (   0.2500000   0.3750000   0.0000000), wk =   0.0312500
        k(   32) = (   0.2500000   0.3750000   0.0242250), wk =   0.0625000
        k(   33) = (   0.2500000   0.3750000  -0.0484499), wk =   0.0312500
        k(   34) = (   0.2500000  -0.5000000   0.0000000), wk =   0.0156250
        k(   35) = (   0.2500000  -0.5000000   0.0242250), wk =   0.0312500
        k(   36) = (   0.2500000  -0.5000000  -0.0484499), wk =   0.0156250
        k(   37) = (   0.3750000   0.3750000   0.0000000), wk =   0.0156250
        k(   38) = (   0.3750000   0.3750000   0.0242250), wk =   0.0312500
        k(   39) = (   0.3750000   0.3750000  -0.0484499), wk =   0.0156250
        k(   40) = (   0.3750000  -0.5000000   0.0000000), wk =   0.0156250
        k(   41) = (   0.3750000  -0.5000000   0.0242250), wk =   0.0312500
        k(   42) = (   0.3750000  -0.5000000  -0.0484499), wk =   0.0156250
        k(   43) = (  -0.5000000  -0.5000000   0.0000000), wk =   0.0039062
        k(   44) = (  -0.5000000  -0.5000000   0.0242250), wk =   0.0078125
        k(   45) = (  -0.5000000  -0.5000000  -0.0484499), wk =   0.0039062

     Dense  grid:   368373 G-vectors     FFT dimensions: (  45,  45, 432)

     Smooth grid:   111379 G-vectors     FFT dimensions: (  27,  27, 288)

     Estimated max dynamical RAM per process >     186.81 MB

     Estimated total dynamical RAM >       5.84 GB
     Generating pointlists ...
     new r_m :   0.3377 (alat units)  2.1668 (a.u.) for type    1
     new r_m :   0.3377 (alat units)  2.1668 (a.u.) for type    2
     new r_m :   0.3377 (alat units)  2.1668 (a.u.) for type    3

     Check: negative/imaginary core charge=   -0.000006    0.000000

     Initial potential from superposition of free atoms

     starting charge  295.99426, renormalised to  296.00000
     Number of +U iterations with fixed ns =  0
     Starting occupations:
 --- enter write_ns ---
 LDA+U parameters:
U(  1) =   3.1200   J(  1) =   0.7000   B(  1) =   0.0803
U(  2) =   3.1200   J(  2) =   0.7000   B(  2) =   0.0803
atom    1   Tr[ns(na)] (up, down, total) =   5.00000  0.00000  5.00000
   spin  1
    eigenvalues: 
  1.000  1.000  1.000  1.000  1.000
    eigenvectors:
  1.000  0.000  0.000  0.000  0.000
  0.000  1.000  0.000  0.000  0.000
  0.000  0.000  1.000  0.000  0.000
  0.000  0.000  0.000  1.000  0.000
  0.000  0.000  0.000  0.000  1.000
    occupations:
  1.000  0.000  0.000  0.000  0.000
  0.000  1.000  0.000  0.000  0.000
  0.000  0.000  1.000  0.000  0.000
  0.000  0.000  0.000  1.000  0.000
  0.000  0.000  0.000  0.000  1.000
   spin  2
    eigenvalues: 
  0.000  0.000  0.000  0.000  0.000
    eigenvectors:
  1.000  0.000  0.000  0.000  0.000
  0.000  1.000  0.000  0.000  0.000
  0.000  0.000  1.000  0.000  0.000
  0.000  0.000  0.000  1.000  0.000
  0.000  0.000  0.000  0.000  1.000
    occupations:
  0.000  0.000  0.000  0.000  0.000
  0.000  0.000  0.000  0.000  0.000
  0.000  0.000  0.000  0.000  0.000
  0.000  0.000  0.000  0.000  0.000
  0.000  0.000  0.000  0.000  0.000
atomic mag. moment =     5.000000
atom    2   Tr[ns(na)] (up, down, total) =   5.00000  0.00000  5.00000
   spin  1
    eigenvalues: 
  1.000  1.000  1.000  1.000  1.000
    eigenvectors:
  1.000  0.000  0.000  0.000  0.000
  0.000  1.000  0.000  0.000  0.000
  0.000  0.000  1.000  0.000  0.000
  0.000  0.000  0.000  1.000  0.000
  0.000  0.000  0.000  0.000  1.000
    occupations:
  1.000  0.000  0.000  0.000  0.000
  0.000  1.000  0.000  0.000  0.000
  0.000  0.000  1.000  0.000  0.000
  0.000  0.000  0.000  1.000  0.000
  0.000  0.000  0.000  0.000  1.000
   spin  2
    eigenvalues: 
  0.000  0.000  0.000  0.000  0.000
    eigenvectors:
  1.000  0.000  0.000  0.000  0.000
  0.000  1.000  0.000  0.000  0.000
  0.000  0.000  1.000  0.000  0.000
  0.000  0.000  0.000  1.000  0.000
  0.000  0.000  0.000  0.000  1.000
    occupations:
  0.000  0.000  0.000  0.000  0.000
  0.000  0.000  0.000  0.000  0.000
  0.000  0.000  0.000  0.000  0.000
  0.000  0.000  0.000  0.000  0.000
  0.000  0.000  0.000  0.000  0.000
atomic mag. moment =     5.000000
atom    3   Tr[ns(na)] (up, down, total) =   5.00000  0.00000  5.00000
   spin  1
    eigenvalues: 
  1.000  1.000  1.000  1.000  1.000
    eigenvectors:
  1.000  0.000  0.000  0.000  0.000
  0.000  1.000  0.000  0.000  0.000
  0.000  0.000  1.000  0.000  0.000
  0.000  0.000  0.000  1.000  0.000
  0.000  0.000  0.000  0.000  1.000
    occupations:
  1.000  0.000  0.000  0.000  0.000
  0.000  1.000  0.000  0.000  0.000
  0.000  0.000  1.000  0.000  0.000
  0.000  0.000  0.000  1.000  0.000
  0.000  0.000  0.000  0.000  1.000
   spin  2
    eigenvalues: 
  0.000  0.000  0.000  0.000  0.000
    eigenvectors:
  1.000  0.000  0.000  0.000  0.000
  0.000  1.000  0.000  0.000  0.000
  0.000  0.000  1.000  0.000  0.000
  0.000  0.000  0.000  1.000  0.000
  0.000  0.000  0.000  0.000  1.000
    occupations:
  0.000  0.000  0.000  0.000  0.000
  0.000  0.000  0.000  0.000  0.000
  0.000  0.000  0.000  0.000  0.000
  0.000  0.000  0.000  0.000  0.000
  0.000  0.000  0.000  0.000  0.000
atomic mag. moment =     5.000000
atom    4   Tr[ns(na)] (up, down, total) =   0.00000  5.00000  5.00000
   spin  1
    eigenvalues: 
  0.000  0.000  0.000  0.000  0.000
    eigenvectors:
  1.000  0.000  0.000  0.000  0.000
  0.000  1.000  0.000  0.000  0.000
  0.000  0.000  1.000  0.000  0.000
  0.000  0.000  0.000  1.000  0.000
  0.000  0.000  0.000  0.000  1.000
    occupations:
  0.000  0.000  0.000  0.000  0.000
  0.000  0.000  0.000  0.000  0.000
  0.000  0.000  0.000  0.000  0.000
  0.000  0.000  0.000  0.000  0.000
  0.000  0.000  0.000  0.000  0.000
   spin  2
    eigenvalues: 
  1.000  1.000  1.000  1.000  1.000
    eigenvectors:
  1.000  0.000  0.000  0.000  0.000
  0.000  1.000  0.000  0.000  0.000
  0.000  0.000  1.000  0.000  0.000
  0.000  0.000  0.000  1.000  0.000
  0.000  0.000  0.000  0.000  1.000
    occupations:
  1.000  0.000  0.000  0.000  0.000
  0.000  1.000  0.000  0.000  0.000
  0.000  0.000  1.000  0.000  0.000
  0.000  0.000  0.000  1.000  0.000
  0.000  0.000  0.000  0.000  1.000
atomic mag. moment =    -5.000000
atom    5   Tr[ns(na)] (up, down, total) =   0.00000  5.00000  5.00000
   spin  1
    eigenvalues: 
  0.000  0.000  0.000  0.000  0.000
    eigenvectors:
  1.000  0.000  0.000  0.000  0.000
  0.000  1.000  0.000  0.000  0.000
  0.000  0.000  1.000  0.000  0.000
  0.000  0.000  0.000  1.000  0.000
  0.000  0.000  0.000  0.000  1.000
    occupations:
  0.000  0.000  0.000  0.000  0.000
  0.000  0.000  0.000  0.000  0.000
  0.000  0.000  0.000  0.000  0.000
  0.000  0.000  0.000  0.000  0.000
  0.000  0.000  0.000  0.000  0.000
   spin  2
    eigenvalues: 
  1.000  1.000  1.000  1.000  1.000
    eigenvectors:
  1.000  0.000  0.000  0.000  0.000
  0.000  1.000  0.000  0.000  0.000
  0.000  0.000  1.000  0.000  0.000
  0.000  0.000  0.000  1.000  0.000
  0.000  0.000  0.000  0.000  1.000
    occupations:
  1.000  0.000  0.000  0.000  0.000
  0.000  1.000  0.000  0.000  0.000
  0.000  0.000  1.000  0.000  0.000
  0.000  0.000  0.000  1.000  0.000
  0.000  0.000  0.000  0.000  1.000
atomic mag. moment =    -5.000000
atom    6   Tr[ns(na)] (up, down, total) =   5.00000  0.00000  5.00000
   spin  1
    eigenvalues: 
  1.000  1.000  1.000  1.000  1.000
    eigenvectors:
  1.000  0.000  0.000  0.000  0.000
  0.000  1.000  0.000  0.000  0.000
  0.000  0.000  1.000  0.000  0.000
  0.000  0.000  0.000  1.000  0.000
  0.000  0.000  0.000  0.000  1.000
    occupations:
  1.000  0.000  0.000  0.000  0.000
  0.000  1.000  0.000  0.000  0.000
  0.000  0.000  1.000  0.000  0.000
  0.000  0.000  0.000  1.000  0.000
  0.000  0.000  0.000  0.000  1.000
   spin  2
    eigenvalues: 
  0.000  0.000  0.000  0.000  0.000
    eigenvectors:
  1.000  0.000  0.000  0.000  0.000
  0.000  1.000  0.000  0.000  0.000
  0.000  0.000  1.000  0.000  0.000
  0.000  0.000  0.000  1.000  0.000
  0.000  0.000  0.000  0.000  1.000
    occupations:
  0.000  0.000  0.000  0.000  0.000
  0.000  0.000  0.000  0.000  0.000
  0.000  0.000  0.000  0.000  0.000
  0.000  0.000  0.000  0.000  0.000
  0.000  0.000  0.000  0.000  0.000
atomic mag. moment =     5.000000
atom    7   Tr[ns(na)] (up, down, total) =   0.00000  5.00000  5.00000
   spin  1
    eigenvalues: 
  0.000  0.000  0.000  0.000  0.000
    eigenvectors:
  1.000  0.000  0.000  0.000  0.000
  0.000  1.000  0.000  0.000  0.000
  0.000  0.000  1.000  0.000  0.000
  0.000  0.000  0.000  1.000  0.000
  0.000  0.000  0.000  0.000  1.000
    occupations:
  0.000  0.000  0.000  0.000  0.000
  0.000  0.000  0.000  0.000  0.000
  0.000  0.000  0.000  0.000  0.000
  0.000  0.000  0.000  0.000  0.000
  0.000  0.000  0.000  0.000  0.000
   spin  2
    eigenvalues: 
  1.000  1.000  1.000  1.000  1.000
    eigenvectors:
  1.000  0.000  0.000  0.000  0.000
  0.000  1.000  0.000  0.000  0.000
  0.000  0.000  1.000  0.000  0.000
  0.000  0.000  0.000  1.000  0.000
  0.000  0.000  0.000  0.000  1.000
    occupations:
  1.000  0.000  0.000  0.000  0.000
  0.000  1.000  0.000  0.000  0.000
  0.000  0.000  1.000  0.000  0.000
  0.000  0.000  0.000  1.000  0.000
  0.000  0.000  0.000  0.000  1.000
atomic mag. moment =    -5.000000
atom    8   Tr[ns(na)] (up, down, total) =   0.00000  5.00000  5.00000
   spin  1
    eigenvalues: 
  0.000  0.000  0.000  0.000  0.000
    eigenvectors:
  1.000  0.000  0.000  0.000  0.000
  0.000  1.000  0.000  0.000  0.000
  0.000  0.000  1.000  0.000  0.000
  0.000  0.000  0.000  1.000  0.000
  0.000  0.000  0.000  0.000  1.000
    occupations:
  0.000  0.000  0.000  0.000  0.000
  0.000  0.000  0.000  0.000  0.000
  0.000  0.000  0.000  0.000  0.000
  0.000  0.000  0.000  0.000  0.000
  0.000  0.000  0.000  0.000  0.000
   spin  2
    eigenvalues: 
  1.000  1.000  1.000  1.000  1.000
    eigenvectors:
  1.000  0.000  0.000  0.000  0.000
  0.000  1.000  0.000  0.000  0.000
  0.000  0.000  1.000  0.000  0.000
  0.000  0.000  0.000  1.000  0.000
  0.000  0.000  0.000  0.000  1.000
    occupations:
  1.000  0.000  0.000  0.000  0.000
  0.000  1.000  0.000  0.000  0.000
  0.000  0.000  1.000  0.000  0.000
  0.000  0.000  0.000  1.000  0.000
  0.000  0.000  0.000  0.000  1.000
atomic mag. moment =    -5.000000
N of occupied +U levels =   40.000000
 --- exit write_ns ---
 Atomic wfc used for LDA+U Projector are NOT orthogonalized
     Starting wfcs are  224 randomized atomic wfcs
     Checking if some PAW data can be deallocated... 

     total cpu time spent up to now is       80.1 secs

     Self-consistent Calculation

     iteration #  1     ecut=    45.00 Ry     beta= 0.10
     Davidson diagonalization with overlap
     ethr =  1.00E-02,  avg # of iterations =  4.3
 --- enter write_ns ---
 LDA+U parameters:
U(  1) =   3.1200   J(  1) =   0.7000   B(  1) =   0.0803
U(  2) =   3.1200   J(  2) =   0.7000   B(  2) =   0.0803
atom    1   Tr[ns(na)] (up, down, total) =   5.01748  0.40733  5.42480
   spin  1
    eigenvalues: 
  1.003  1.003  1.003  1.004  1.004
    eigenvectors:
  0.000  0.000  0.000  1.000  0.000
  0.000  0.286  0.714  0.000  0.000
  0.000  0.714  0.286  0.000  0.000
  0.000  0.000  0.000  0.000  1.000
  1.000  0.000  0.000  0.000  0.000
    occupations:
  1.004 -0.000 -0.000  0.000  0.000
 -0.000  1.003 -0.000  0.000  0.000
 -0.000 -0.000  1.003  0.000  0.000
  0.000  0.000  0.000  1.004 -0.000
  0.000  0.000  0.000 -0.000  1.003
   spin  2
    eigenvalues: 
  0.053  0.073  0.081  0.081  0.120
    eigenvectors:
  0.000  1.000  0.000  0.000  0.000
  0.000  0.000  0.288  0.712  0.000
  0.000  0.000  0.712  0.288  0.000
  1.000  0.000  0.000  0.000  0.000
  0.000  0.000  0.000  0.000  1.000
    occupations:
  0.073 -0.000 -0.000  0.000  0.000
 -0.000  0.081 -0.000  0.000  0.000
 -0.000 -0.000  0.081  0.000  0.000
  0.000  0.000  0.000  0.053 -0.000
  0.000  0.000  0.000 -0.000  0.120
atomic mag. moment =     4.610149
atom    2   Tr[ns(na)] (up, down, total) =   5.01770  0.40121  5.41891
   spin  1
    eigenvalues: 
  1.003  1.003  1.003  1.004  1.004
    eigenvectors:
  0.000  0.000  0.000  1.000  0.000
  0.000  0.295  0.705  0.000  0.000
  0.000  0.705  0.295  0.000  0.000
  0.000  0.000  0.000  0.000  1.000
  1.000  0.000  0.000  0.000  0.000
    occupations:
  1.004 -0.000 -0.000  0.000  0.000
 -0.000  1.003 -0.000  0.000  0.000
 -0.000 -0.000  1.003  0.000  0.000
  0.000  0.000  0.000  1.004 -0.000
  0.000  0.000  0.000 -0.000  1.003
   spin  2
    eigenvalues: 
  0.053  0.075  0.081  0.081  0.111
    eigenvectors:
  0.000  1.000  0.000  0.000  0.000
  0.000  0.000  0.342  0.658  0.000
  0.000  0.000  0.658  0.342  0.000
  1.000  0.000  0.000  0.000  0.000
  0.000  0.000  0.000  0.000  1.000
    occupations:
  0.075 -0.000 -0.000  0.000  0.000
 -0.000  0.081 -0.000  0.000  0.000
 -0.000 -0.000  0.081  0.000  0.000
  0.000  0.000  0.000  0.053 -0.000
  0.000  0.000  0.000 -0.000  0.111
atomic mag. moment =     4.616493
atom    3   Tr[ns(na)] (up, down, total) =   5.01748  0.40733  5.42480
   spin  1
    eigenvalues: 
  1.003  1.003  1.003  1.004  1.004
    eigenvectors:
  0.000  0.000  0.000  1.000  0.000
  0.000  0.285  0.715  0.000  0.000
  0.000  0.715  0.285  0.000  0.000
  0.000  0.000  0.000  0.000  1.000
  1.000  0.000  0.000  0.000  0.000
    occupations:
  1.004 -0.000 -0.000  0.000  0.000
 -0.000  1.003 -0.000  0.000  0.000
 -0.000 -0.000  1.003  0.000  0.000
  0.000  0.000  0.000  1.004 -0.000
  0.000  0.000  0.000 -0.000  1.003
   spin  2
    eigenvalues: 
  0.053  0.073  0.081  0.081  0.120
    eigenvectors:
  0.000  1.000  0.000  0.000  0.000
  0.000  0.000  0.323  0.677  0.000
  0.000  0.000  0.677  0.323  0.000
  1.000  0.000  0.000  0.000  0.000
  0.000  0.000  0.000  0.000  1.000
    occupations:
  0.073 -0.000 -0.000  0.000  0.000
 -0.000  0.081 -0.000  0.000  0.000
 -0.000 -0.000  0.081  0.000  0.000
  0.000  0.000  0.000  0.053 -0.000
  0.000  0.000  0.000 -0.000  0.120
atomic mag. moment =     4.610149
atom    4   Tr[ns(na)] (up, down, total) =   0.41130  5.01740  5.42870
   spin  1
    eigenvalues: 
  0.053  0.074  0.082  0.082  0.120
    eigenvectors:
  0.000  1.000  0.000  0.000  0.000
  0.000  0.000  0.278  0.722  0.000
  0.000  0.000  0.722  0.278  0.000
  1.000  0.000  0.000  0.000  0.000
  0.000  0.000  0.000  0.000  1.000
    occupations:
  0.074 -0.000 -0.000  0.000  0.000
 -0.000  0.082 -0.000  0.000  0.000
 -0.000 -0.000  0.082  0.000  0.000
  0.000  0.000  0.000  0.053 -0.000
  0.000  0.000  0.000 -0.000  0.120
   spin  2
    eigenvalues: 
  1.003  1.003  1.003  1.004  1.004
    eigenvectors:
  0.000  0.000  0.000  1.000  0.000
  0.000  0.282  0.718  0.000  0.000
  0.000  0.718  0.282  0.000  0.000
  0.000  0.000  0.000  0.000  1.000
  1.000  0.000  0.000  0.000  0.000
    occupations:
  1.004 -0.000 -0.000  0.000  0.000
 -0.000  1.003 -0.000  0.000  0.000
 -0.000 -0.000  1.003  0.000  0.000
  0.000  0.000  0.000  1.004 -0.000
  0.000  0.000  0.000 -0.000  1.003
atomic mag. moment =    -4.606104
atom    5   Tr[ns(na)] (up, down, total) =   0.40990  5.01749  5.42740
   spin  1
    eigenvalues: 
  0.053  0.073  0.082  0.082  0.120
    eigenvectors:
  0.000  1.000  0.000  0.000  0.000
  0.000  0.000  0.389  0.611  0.000
  0.000  0.000  0.611  0.389  0.000
  1.000  0.000  0.000  0.000  0.000
  0.000  0.000  0.000  0.000  1.000
    occupations:
  0.073 -0.000 -0.000  0.000  0.000
 -0.000  0.082 -0.000  0.000  0.000
 -0.000 -0.000  0.082  0.000  0.000
  0.000  0.000  0.000  0.053 -0.000
  0.000  0.000  0.000 -0.000  0.120
   spin  2
    eigenvalues: 
  1.003  1.003  1.003  1.004  1.004
    eigenvectors:
  0.000  0.000  0.000  1.000  0.000
  0.000  0.276  0.724  0.000  0.000
  0.000  0.724  0.276  0.000  0.000
  0.000  0.000  0.000  0.000  1.000
  1.000  0.000  0.000  0.000  0.000
    occupations:
  1.004 -0.000 -0.000  0.000  0.000
 -0.000  1.003 -0.000  0.000  0.000
 -0.000 -0.000  1.003  0.000  0.000
  0.000  0.000  0.000  1.004 -0.000
  0.000  0.000  0.000 -0.000  1.003
atomic mag. moment =    -4.607591
atom    6   Tr[ns(na)] (up, down, total) =   5.01749  0.41299  5.43048
   spin  1
    eigenvalues: 
  1.003  1.003  1.003  1.004  1.004
    eigenvectors:
  0.000  0.000  0.000  1.000  0.000
  0.000  0.324  0.676  0.000  0.000
  0.000  0.676  0.324  0.000  0.000
  0.000  0.000  0.000  0.000  1.000
  1.000  0.000  0.000  0.000  0.000
    occupations:
  1.004 -0.000 -0.000  0.000  0.000
 -0.000  1.003 -0.000  0.000  0.000
 -0.000 -0.000  1.003  0.000  0.000
  0.000  0.000  0.000  1.004 -0.000
  0.000  0.000  0.000 -0.000  1.003
   spin  2
    eigenvalues: 
  0.053  0.074  0.080  0.080  0.125
    eigenvectors:
  0.000  1.000  0.000  0.000  0.000
  0.000  0.000  0.304  0.696  0.000
  0.000  0.000  0.696  0.304  0.000
  1.000  0.000  0.000  0.000  0.000
  0.000  0.000  0.000  0.000  1.000
    occupations:
  0.074 -0.000 -0.000  0.000  0.000
 -0.000  0.080 -0.000  0.000  0.000
 -0.000 -0.000  0.080  0.000  0.000
  0.000  0.000  0.000  0.053 -0.000
  0.000  0.000  0.000 -0.000  0.125
atomic mag. moment =     4.604492
atom    7   Tr[ns(na)] (up, down, total) =   0.40990  5.01749  5.42740
   spin  1
    eigenvalues: 
  0.053  0.073  0.082  0.082  0.120
    eigenvectors:
  0.000  1.000  0.000  0.000  0.000
  0.000  0.000  0.367  0.633  0.000
  0.000  0.000  0.633  0.367  0.000
  1.000  0.000  0.000  0.000  0.000
  0.000  0.000  0.000  0.000  1.000
    occupations:
  0.073 -0.000 -0.000  0.000  0.000
 -0.000  0.082 -0.000  0.000  0.000
 -0.000 -0.000  0.082  0.000  0.000
  0.000  0.000  0.000  0.053 -0.000
  0.000  0.000  0.000 -0.000  0.120
   spin  2
    eigenvalues: 
  1.003  1.003  1.003  1.004  1.004
    eigenvectors:
  0.000  0.000  0.000  1.000  0.000
  0.000  0.310  0.690  0.000  0.000
  0.000  0.690  0.310  0.000  0.000
  0.000  0.000  0.000  0.000  1.000
  1.000  0.000  0.000  0.000  0.000
    occupations:
  1.004 -0.000 -0.000  0.000  0.000
 -0.000  1.003 -0.000  0.000  0.000
 -0.000 -0.000  1.003  0.000  0.000
  0.000  0.000  0.000  1.004 -0.000
  0.000  0.000  0.000 -0.000  1.003
atomic mag. moment =    -4.607591
atom    8   Tr[ns(na)] (up, down, total) =   0.41130  5.01740  5.42870
   spin  1
    eigenvalues: 
  0.053  0.074  0.082  0.082  0.120
    eigenvectors:
  0.000  1.000  0.000  0.000  0.000
  0.000  0.000  0.305  0.695  0.000
  0.000  0.000  0.695  0.305  0.000
  1.000  0.000  0.000  0.000  0.000
  0.000  0.000  0.000  0.000  1.000
    occupations:
  0.074 -0.000 -0.000  0.000  0.000
 -0.000  0.082 -0.000  0.000  0.000
 -0.000 -0.000  0.082  0.000  0.000
  0.000  0.000  0.000  0.053 -0.000
  0.000  0.000  0.000 -0.000  0.120
   spin  2
    eigenvalues: 
  1.003  1.003  1.003  1.004  1.004
    eigenvectors:
  0.000  0.000  0.000  1.000  0.000
  0.000  0.370  0.630  0.000  0.000
  0.000  0.630  0.370  0.000  0.000
  0.000  0.000  0.000  0.000  1.000
  1.000  0.000  0.000  0.000  0.000
    occupations:
  1.004 -0.000 -0.000  0.000  0.000
 -0.000  1.003 -0.000  0.000  0.000
 -0.000 -0.000  1.003  0.000  0.000
  0.000  0.000  0.000  1.004 -0.000
  0.000  0.000  0.000 -0.000  1.003
atomic mag. moment =    -4.606104
N of occupied +U levels =   43.411185
 --- exit write_ns ---

     total cpu time spent up to now is      281.3 secs

     total energy              =  -14687.27639734 Ry
     Harris-Foulkes estimate   =  -14685.81582971 Ry
     estimated scf accuracy    <      11.55975966 Ry

     total magnetization       =     0.09 Bohr mag/cell
     absolute magnetization    =    41.52 Bohr mag/cell

     iteration #  2     ecut=    45.00 Ry     beta= 0.10
     Davidson diagonalization with overlap
     ethr =  3.91E-03,  avg # of iterations =  1.0

     total cpu time spent up to now is      399.2 secs

     total energy              =  -14690.10223593 Ry
     Harris-Foulkes estimate   =  -14687.35137050 Ry
     estimated scf accuracy    <       9.53877790 Ry

     total magnetization       =    -0.00 Bohr mag/cell
     absolute magnetization    =    41.19 Bohr mag/cell

     iteration #  3     ecut=    45.00 Ry     beta= 0.10
     Davidson diagonalization with overlap
     ethr =  3.22E-03,  avg # of iterations =  4.8

     total cpu time spent up to now is      597.3 secs

     total energy              =  -14690.54841986 Ry
     Harris-Foulkes estimate   =  -14692.08047201 Ry
     estimated scf accuracy    <     267.63732662 Ry

     total magnetization       =    -1.38 Bohr mag/cell
     absolute magnetization    =    39.87 Bohr mag/cell

     iteration #  4     ecut=    45.00 Ry     beta= 0.10
     Davidson diagonalization with overlap
     ethr =  3.22E-03,  avg # of iterations =  4.8

     total cpu time spent up to now is      796.2 secs

     total energy              =  -14694.72430248 Ry
     Harris-Foulkes estimate   =  -14694.20612385 Ry
     estimated scf accuracy    <       4.10903380 Ry

     total magnetization       =    -0.12 Bohr mag/cell
     absolute magnetization    =    38.45 Bohr mag/cell

     iteration #  5     ecut=    45.00 Ry     beta= 0.10
     Davidson diagonalization with overlap
     ethr =  1.39E-03,  avg # of iterations =  4.2

     total cpu time spent up to now is      977.6 secs

     total energy              =  -14693.01964683 Ry
     Harris-Foulkes estimate   =  -14694.78896258 Ry
     estimated scf accuracy    <       6.48339459 Ry

     total magnetization       =    -0.18 Bohr mag/cell
     absolute magnetization    =    37.94 Bohr mag/cell

     iteration #  6     ecut=    45.00 Ry     beta= 0.10
     Davidson diagonalization with overlap
     ethr =  1.39E-03,  avg # of iterations =  4.8

     total cpu time spent up to now is     1193.3 secs

     total energy              =  -14693.85204548 Ry
     Harris-Foulkes estimate   =  -14693.75693251 Ry
     estimated scf accuracy    <       2.72093277 Ry

     total magnetization       =     0.29 Bohr mag/cell
     absolute magnetization    =    38.44 Bohr mag/cell

     iteration #  7     ecut=    45.00 Ry     beta= 0.10
     Davidson diagonalization with overlap
     ethr =  9.19E-04,  avg # of iterations =  2.8

     total cpu time spent up to now is     1344.4 secs

     total energy              =  -14693.96979898 Ry
     Harris-Foulkes estimate   =  -14693.95822869 Ry
     estimated scf accuracy    <       0.18301290 Ry

     total magnetization       =    -0.15 Bohr mag/cell
     absolute magnetization    =    37.83 Bohr mag/cell

     iteration #  8     ecut=    45.00 Ry     beta= 0.10
     Davidson diagonalization with overlap
     ethr =  6.18E-05,  avg # of iterations =  5.4

     total cpu time spent up to now is     1581.5 secs

     total energy              =  -14693.99298598 Ry
     Harris-Foulkes estimate   =  -14693.99601374 Ry
     estimated scf accuracy    <       0.05711699 Ry

     total magnetization       =    -0.19 Bohr mag/cell
     absolute magnetization    =    37.56 Bohr mag/cell

     iteration #  9     ecut=    45.00 Ry     beta= 0.10
     Davidson diagonalization with overlap
     ethr =  1.93E-05,  avg # of iterations =  4.1

     total cpu time spent up to now is     1840.9 secs

     total energy              =  -14694.00409191 Ry
     Harris-Foulkes estimate   =  -14694.01805540 Ry
     estimated scf accuracy    <       0.19461377 Ry

     total magnetization       =    -0.17 Bohr mag/cell
     absolute magnetization    =    37.18 Bohr mag/cell

     iteration # 10     ecut=    45.00 Ry     beta= 0.10
     Davidson diagonalization with overlap
     ethr =  1.93E-05,  avg # of iterations =  2.0

     total cpu time spent up to now is     1977.5 secs

     total energy              =  -14693.99872149 Ry
     Harris-Foulkes estimate   =  -14694.00797115 Ry
     estimated scf accuracy    <       0.06807269 Ry

     total magnetization       =    -0.21 Bohr mag/cell
     absolute magnetization    =    37.21 Bohr mag/cell

     iteration # 11     ecut=    45.00 Ry     beta= 0.10
     Davidson diagonalization with overlap
     ethr =  1.93E-05,  avg # of iterations =  3.0

     total cpu time spent up to now is     2139.2 secs

     total energy              =  -14694.00577698 Ry
     Harris-Foulkes estimate   =  -14694.00411470 Ry
     estimated scf accuracy    <       0.00604004 Ry

     total magnetization       =    -0.23 Bohr mag/cell
     absolute magnetization    =    37.35 Bohr mag/cell

     iteration # 12     ecut=    45.00 Ry     beta= 0.10
     Davidson diagonalization with overlap
     ethr =  2.04E-06,  avg # of iterations =  4.2

     total cpu time spent up to now is     2323.7 secs

     total energy              =  -14694.00672272 Ry
     Harris-Foulkes estimate   =  -14694.00640406 Ry
     estimated scf accuracy    <       0.00207805 Ry

     total magnetization       =    -0.23 Bohr mag/cell
     absolute magnetization    =    37.29 Bohr mag/cell

     iteration # 13     ecut=    45.00 Ry     beta= 0.10
     Davidson diagonalization with overlap
     ethr =  7.02E-07,  avg # of iterations =  1.8

     total cpu time spent up to now is     2457.3 secs

     total energy              =  -14694.00708216 Ry
     Harris-Foulkes estimate   =  -14694.00679762 Ry
     estimated scf accuracy    <       0.00074499 Ry

     total magnetization       =    -0.24 Bohr mag/cell
     absolute magnetization    =    37.27 Bohr mag/cell

     iteration # 14     ecut=    45.00 Ry     beta= 0.10
     Davidson diagonalization with overlap
     ethr =  2.52E-07,  avg # of iterations =  2.4

     total cpu time spent up to now is     2612.5 secs

     total energy              =  -14694.00712187 Ry
     Harris-Foulkes estimate   =  -14694.00717544 Ry
     estimated scf accuracy    <       0.00027422 Ry

     total magnetization       =    -0.24 Bohr mag/cell
     absolute magnetization    =    37.26 Bohr mag/cell

     iteration # 15     ecut=    45.00 Ry     beta= 0.10
     Davidson diagonalization with overlap
     ethr =  9.26E-08,  avg # of iterations =  2.0

     total cpu time spent up to now is     2749.8 secs

     total energy              =  -14694.00720279 Ry
     Harris-Foulkes estimate   =  -14694.00713729 Ry
     estimated scf accuracy    <       0.00015009 Ry

     total magnetization       =    -0.24 Bohr mag/cell
     absolute magnetization    =    37.27 Bohr mag/cell

     iteration # 16     ecut=    45.00 Ry     beta= 0.10
     Davidson diagonalization with overlap
     ethr =  5.07E-08,  avg # of iterations =  1.6

     total cpu time spent up to now is     2878.4 secs

     total energy              =  -14694.00723439 Ry
     Harris-Foulkes estimate   =  -14694.00720104 Ry
     estimated scf accuracy    <       0.00005747 Ry

     total magnetization       =    -0.24 Bohr mag/cell
     absolute magnetization    =    37.26 Bohr mag/cell

     iteration # 17     ecut=    45.00 Ry     beta= 0.10
     Davidson diagonalization with overlap
     ethr =  1.94E-08,  avg # of iterations =  2.4

     total cpu time spent up to now is     3023.2 secs

     total energy              =  -14694.00723961 Ry
     Harris-Foulkes estimate   =  -14694.00722857 Ry
     estimated scf accuracy    <       0.00002196 Ry

     total magnetization       =    -0.24 Bohr mag/cell
     absolute magnetization    =    37.25 Bohr mag/cell

     iteration # 18     ecut=    45.00 Ry     beta= 0.10
     Davidson diagonalization with overlap
     ethr =  7.42E-09,  avg # of iterations =  2.2

     total cpu time spent up to now is     3164.4 secs

     total energy              =  -14694.00724303 Ry
     Harris-Foulkes estimate   =  -14694.00723621 Ry
     estimated scf accuracy    <       0.00001443 Ry

     total magnetization       =    -0.25 Bohr mag/cell
     absolute magnetization    =    37.25 Bohr mag/cell

     iteration # 19     ecut=    45.00 Ry     beta= 0.10
     Davidson diagonalization with overlap
     ethr =  4.87E-09,  avg # of iterations =  1.9

     total cpu time spent up to now is     3297.5 secs

     total energy              =  -14694.00724637 Ry
     Harris-Foulkes estimate   =  -14694.00724272 Ry
     estimated scf accuracy    <       0.00000598 Ry

     total magnetization       =    -0.25 Bohr mag/cell
     absolute magnetization    =    37.25 Bohr mag/cell

     iteration # 20     ecut=    45.00 Ry     beta= 0.10
     Davidson diagonalization with overlap
     ethr =  2.02E-09,  avg # of iterations =  2.2

     total cpu time spent up to now is     3436.6 secs

     total energy              =  -14694.00724698 Ry
     Harris-Foulkes estimate   =  -14694.00724408 Ry
     estimated scf accuracy    <       0.00000759 Ry

     total magnetization       =    -0.25 Bohr mag/cell
     absolute magnetization    =    37.25 Bohr mag/cell

     iteration # 21     ecut=    45.00 Ry     beta= 0.10
     Davidson diagonalization with overlap
     ethr =  2.02E-09,  avg # of iterations =  1.7

     total cpu time spent up to now is     3566.3 secs

     total energy              =  -14694.00725185 Ry
     Harris-Foulkes estimate   =  -14694.00724967 Ry
     estimated scf accuracy    <       0.00000208 Ry

     total magnetization       =    -0.25 Bohr mag/cell
     absolute magnetization    =    37.25 Bohr mag/cell

     iteration # 22     ecut=    45.00 Ry     beta= 0.10
     Davidson diagonalization with overlap
     ethr =  7.01E-10,  avg # of iterations =  2.3
 
     Magnetic moment per site:
     atom:    1    charge:   13.5497    magn:    4.2278    constr:    0.0000
     atom:    2    charge:   13.5534    magn:    4.1987    constr:    0.0000
     atom:    3    charge:   13.5497    magn:    4.2278    constr:    0.0000
     atom:    4    charge:   13.5479    magn:   -4.2354    constr:    0.0000
     atom:    5    charge:   13.5452    magn:   -4.2533    constr:    0.0000
     atom:    6    charge:   13.5481    magn:    4.2312    constr:    0.0000
     atom:    7    charge:   13.5452    magn:   -4.2533    constr:    0.0000
     atom:    8    charge:   13.5479    magn:   -4.2354    constr:    0.0000
     atom:    9    charge:    9.1213    magn:    0.0312    constr:    0.0000
     atom:   10    charge:    9.1218    magn:    0.0351    constr:    0.0000
     atom:   11    charge:    9.1218    magn:    0.0351    constr:    0.0000
     atom:   12    charge:    9.1213    magn:    0.0312    constr:    0.0000
     atom:   13    charge:    9.1220    magn:    0.0373    constr:    0.0000
     atom:   14    charge:    9.1240    magn:   -0.0445    constr:    0.0000
     atom:   15    charge:    9.1236    magn:   -0.0413    constr:    0.0000
     atom:   16    charge:    9.1235    magn:   -0.0397    constr:    0.0000
     atom:   17    charge:    9.1233    magn:   -0.0495    constr:    0.0000
     atom:   18    charge:    9.1232    magn:    0.0382    constr:    0.0000
     atom:   19    charge:    9.1232    magn:    0.0382    constr:    0.0000
     atom:   20    charge:    9.1233    magn:   -0.0495    constr:    0.0000
     atom:   21    charge:    9.1235    magn:   -0.0397    constr:    0.0000
     atom:   22    charge:    9.1236    magn:   -0.0413    constr:    0.0000
     atom:   23    charge:    9.1240    magn:   -0.0445    constr:    0.0000
     atom:   24    charge:    9.1220    magn:    0.0373    constr:    0.0000

     total cpu time spent up to now is     3710.5 secs

     End of self-consistent calculation
 --- enter write_ns ---
 LDA+U parameters:
U(  1) =   3.1200   J(  1) =   0.7000   B(  1) =   0.0803
U(  2) =   3.1200   J(  2) =   0.7000   B(  2) =   0.0803
atom    1   Tr[ns(na)] (up, down, total) =   4.97079  0.74429  5.71508
   spin  1
    eigenvalues: 
  0.984  0.993  0.993  0.997  1.002
    eigenvectors:
  0.000  0.000  0.000  1.000  0.000
  0.000  0.380  0.620  0.000  0.000
  0.000  0.620  0.380  0.000  0.000
  0.000  0.000  0.000  0.000  1.000
  1.000  0.000  0.000  0.000  0.000
    occupations:
  0.997 -0.000 -0.000  0.000  0.000
 -0.000  0.993 -0.000  0.000  0.000
 -0.000 -0.000  0.993  0.000  0.000
  0.000  0.000  0.000  1.002 -0.000
  0.000  0.000  0.000 -0.000  0.984
   spin  2
    eigenvalues: 
  0.065  0.132  0.145  0.145  0.257
    eigenvectors:
  0.000  1.000  0.000  0.000  0.000
  0.000  0.000  0.327  0.673  0.000
  0.000  0.000  0.673  0.327  0.000
  1.000  0.000  0.000  0.000  0.000
  0.000  0.000  0.000  0.000  1.000
    occupations:
  0.132 -0.000 -0.000  0.000  0.000
 -0.000  0.145 -0.000  0.000  0.000
 -0.000 -0.000  0.145  0.000  0.000
  0.000  0.000  0.000  0.065 -0.000
  0.000  0.000  0.000 -0.000  0.257
atomic mag. moment =     4.226503
atom    2   Tr[ns(na)] (up, down, total) =   4.96937  0.76710  5.73646
   spin  1
    eigenvalues: 
  0.984  0.993  0.993  0.996  1.002
    eigenvectors:
  0.000  0.000  0.000  1.000  0.000
  0.000  0.305  0.695  0.000  0.000
  0.000  0.695  0.305  0.000  0.000
  0.000  0.000  0.000  0.000  1.000
  1.000  0.000  0.000  0.000  0.000
    occupations:
  0.996 -0.000 -0.000  0.000  0.000
 -0.000  0.993 -0.000  0.000  0.000
 -0.000 -0.000  0.993  0.000  0.000
  0.000  0.000  0.000  1.002 -0.000
  0.000  0.000  0.000 -0.000  0.984
   spin  2
    eigenvalues: 
  0.064  0.144  0.144  0.146  0.269
    eigenvectors:
  0.000  0.000  0.000  1.000  0.000
  0.000  0.412  0.588  0.000  0.000
  0.000  0.588  0.412  0.000  0.000
  1.000  0.000  0.000  0.000  0.000
  0.000  0.000  0.000  0.000  1.000
    occupations:
  0.146 -0.000 -0.000  0.000  0.000
 -0.000  0.144 -0.000  0.000  0.000
 -0.000 -0.000  0.144  0.000  0.000
  0.000  0.000  0.000  0.064 -0.000
  0.000  0.000  0.000 -0.000  0.269
atomic mag. moment =     4.202273
atom    3   Tr[ns(na)] (up, down, total) =   4.97079  0.74429  5.71508
   spin  1
    eigenvalues: 
  0.984  0.993  0.993  0.997  1.002
    eigenvectors:
  0.000  0.000  0.000  1.000  0.000
  0.000  0.252  0.748  0.000  0.000
  0.000  0.748  0.252  0.000  0.000
  0.000  0.000  0.000  0.000  1.000
  1.000  0.000  0.000  0.000  0.000
    occupations:
  0.997 -0.000 -0.000  0.000  0.000
 -0.000  0.993 -0.000  0.000  0.000
 -0.000 -0.000  0.993  0.000  0.000
  0.000  0.000  0.000  1.002 -0.000
  0.000  0.000  0.000 -0.000  0.984
   spin  2
    eigenvalues: 
  0.065  0.132  0.145  0.145  0.257
    eigenvectors:
  0.000  1.000  0.000  0.000  0.000
  0.000  0.000  0.250  0.750  0.000
  0.000  0.000  0.750  0.250  0.000
  1.000  0.000  0.000  0.000  0.000
  0.000  0.000  0.000  0.000  1.000
    occupations:
  0.132 -0.000 -0.000  0.000  0.000
 -0.000  0.145 -0.000  0.000  0.000
 -0.000 -0.000  0.145  0.000  0.000
  0.000  0.000  0.000  0.065 -0.000
  0.000  0.000  0.000 -0.000  0.257
atomic mag. moment =     4.226503
atom    4   Tr[ns(na)] (up, down, total) =   0.73773  4.97175  5.70948
   spin  1
    eigenvalues: 
  0.064  0.134  0.141  0.141  0.257
    eigenvectors:
  0.000  1.000  0.000  0.000  0.000
  0.000  0.000  0.341  0.659  0.000
  0.000  0.000  0.659  0.341  0.000
  1.000  0.000  0.000  0.000  0.000
  0.000  0.000  0.000  0.000  1.000
    occupations:
  0.134 -0.000 -0.000  0.000  0.000
 -0.000  0.141 -0.000  0.000  0.000
 -0.000 -0.000  0.141  0.000  0.000
  0.000  0.000  0.000  0.064 -0.000
  0.000  0.000  0.000 -0.000  0.257
   spin  2
    eigenvalues: 
  0.985  0.994  0.994  0.996  1.002
    eigenvectors:
  0.000  0.000  0.000  1.000  0.000
  0.000  0.301  0.699  0.000  0.000
  0.000  0.699  0.301  0.000  0.000
  0.000  0.000  0.000  0.000  1.000
  1.000  0.000  0.000  0.000  0.000
    occupations:
  0.996 -0.000 -0.000  0.000  0.000
 -0.000  0.994 -0.000  0.000  0.000
 -0.000 -0.000  0.994  0.000  0.000
  0.000  0.000  0.000  1.002 -0.000
  0.000  0.000  0.000 -0.000  0.985
atomic mag. moment =    -4.234019
atom    5   Tr[ns(na)] (up, down, total) =   0.72275  4.97404  5.69679
   spin  1
    eigenvalues: 
  0.066  0.121  0.143  0.143  0.250
    eigenvectors:
  0.000  1.000  0.000  0.000  0.000
  0.000  0.000  0.236  0.764  0.000
  0.000  0.000  0.764  0.236  0.000
  1.000  0.000  0.000  0.000  0.000
  0.000  0.000  0.000  0.000  1.000
    occupations:
  0.121 -0.000 -0.000  0.000  0.000
 -0.000  0.143 -0.000  0.000  0.000
 -0.000 -0.000  0.143  0.000  0.000
  0.000  0.000  0.000  0.066 -0.000
  0.000  0.000  0.000 -0.000  0.250
   spin  2
    eigenvalues: 
  0.985  0.994  0.994  0.997  1.003
    eigenvectors:
  0.000  0.000  0.000  1.000  0.000
  0.000  0.335  0.665  0.000  0.000
  0.000  0.665  0.335  0.000  0.000
  0.000  0.000  0.000  0.000  1.000
  1.000  0.000  0.000  0.000  0.000
    occupations:
  0.997 -0.000 -0.000  0.000  0.000
 -0.000  0.994 -0.000  0.000  0.000
 -0.000 -0.000  0.994  0.000  0.000
  0.000  0.000  0.000  1.003 -0.000
  0.000  0.000  0.000 -0.000  0.985
atomic mag. moment =    -4.251292
atom    6   Tr[ns(na)] (up, down, total) =   4.96902  0.74079  5.70981
   spin  1
    eigenvalues: 
  0.984  0.994  0.994  0.995  1.003
    eigenvectors:
  0.000  0.000  0.000  1.000  0.000
  0.000  0.231  0.769  0.000  0.000
  0.000  0.769  0.231  0.000  0.000
  0.000  0.000  0.000  0.000  1.000
  1.000  0.000  0.000  0.000  0.000
    occupations:
  0.995 -0.000 -0.000  0.000  0.000
 -0.000  0.994 -0.000  0.000  0.000
 -0.000 -0.000  0.994  0.000  0.000
  0.000  0.000  0.000  1.003 -0.000
  0.000  0.000  0.000 -0.000  0.984
   spin  2
    eigenvalues: 
  0.065  0.127  0.148  0.148  0.253
    eigenvectors:
  0.000  1.000  0.000  0.000  0.000
  0.000  0.000  0.351  0.649  0.000
  0.000  0.000  0.649  0.351  0.000
  1.000  0.000  0.000  0.000  0.000
  0.000  0.000  0.000  0.000  1.000
    occupations:
  0.127 -0.000 -0.000  0.000  0.000
 -0.000  0.148 -0.000  0.000  0.000
 -0.000 -0.000  0.148  0.000  0.000
  0.000  0.000  0.000  0.065 -0.000
  0.000  0.000  0.000 -0.000  0.253
atomic mag. moment =     4.228231
atom    7   Tr[ns(na)] (up, down, total) =   0.72275  4.97404  5.69679
   spin  1
    eigenvalues: 
  0.066  0.121  0.143  0.143  0.250
    eigenvectors:
  0.000  1.000  0.000  0.000  0.000
  0.000  0.000  0.305  0.695  0.000
  0.000  0.000  0.695  0.305  0.000
  1.000  0.000  0.000  0.000  0.000
  0.000  0.000  0.000  0.000  1.000
    occupations:
  0.121 -0.000 -0.000  0.000  0.000
 -0.000  0.143 -0.000  0.000  0.000
 -0.000 -0.000  0.143  0.000  0.000
  0.000  0.000  0.000  0.066 -0.000
  0.000  0.000  0.000 -0.000  0.250
   spin  2
    eigenvalues: 
  0.985  0.994  0.994  0.997  1.003
    eigenvectors:
  0.000  0.000  0.000  1.000  0.000
  0.000  0.284  0.716  0.000  0.000
  0.000  0.716  0.284  0.000  0.000
  0.000  0.000  0.000  0.000  1.000
  1.000  0.000  0.000  0.000  0.000
    occupations:
  0.997 -0.000 -0.000  0.000  0.000
 -0.000  0.994 -0.000  0.000  0.000
 -0.000 -0.000  0.994  0.000  0.000
  0.000  0.000  0.000  1.003 -0.000
  0.000  0.000  0.000 -0.000  0.985
atomic mag. moment =    -4.251292
atom    8   Tr[ns(na)] (up, down, total) =   0.73773  4.97175  5.70948
   spin  1
    eigenvalues: 
  0.064  0.134  0.141  0.141  0.257
    eigenvectors:
  0.000  1.000  0.000  0.000  0.000
  0.000  0.000  0.283  0.717  0.000
  0.000  0.000  0.717  0.283  0.000
  1.000  0.000  0.000  0.000  0.000
  0.000  0.000  0.000  0.000  1.000
    occupations:
  0.134 -0.000 -0.000  0.000  0.000
 -0.000  0.141 -0.000  0.000  0.000
 -0.000 -0.000  0.141  0.000  0.000
  0.000  0.000  0.000  0.064 -0.000
  0.000  0.000  0.000 -0.000  0.257
   spin  2
    eigenvalues: 
  0.985  0.994  0.994  0.996  1.002
    eigenvectors:
  0.000  0.000  0.000  1.000  0.000
  0.000  0.390  0.610  0.000  0.000
  0.000  0.610  0.390  0.000  0.000
  0.000  0.000  0.000  0.000  1.000
  1.000  0.000  0.000  0.000  0.000
    occupations:
  0.996 -0.000 -0.000  0.000  0.000
 -0.000  0.994 -0.000  0.000  0.000
 -0.000 -0.000  0.994  0.000  0.000
  0.000  0.000  0.000  1.002 -0.000
  0.000  0.000  0.000 -0.000  0.985
atomic mag. moment =    -4.234019
N of occupied +U levels =   45.688970
 --- exit write_ns ---

 ------ SPIN UP ------------


          k = 0.0000 0.0000 0.0000 ( 13925 PWs)   bands (ev):

   -66.7798 -66.6937 -66.6937 -66.6004 -62.1774 -62.1774 -62.1476 -62.1476
   -35.5484 -35.4965 -35.4965 -35.4638 -35.4638 -35.4114 -35.4114 -35.4114
   -35.4114 -35.3757 -35.3172 -35.3172 -31.0038 -31.0038 -30.9953 -30.9953
   -30.9952 -30.9952 -30.9751 -30.9751 -30.9652 -30.9652 -30.9652 -30.9652
     5.7853   5.9006   5.9819   6.3910   6.3943   7.0137   7.0956   7.6204
     8.3493   8.4040   8.4196   8.4973   8.5426   8.5655   8.6266   8.8459
     8.8709   8.8776   8.9683   9.1102   9.1469   9.1803   9.2504   9.2838
     9.3056   9.3761   9.4597   9.6087   9.7509   9.8552   9.9218   9.9602
     9.9810  10.0446  10.1215  10.1260  10.1260  10.1869  10.1869  10.1885
    10.1885  10.2515  10.2591  10.2928  10.3001  10.3439  10.3439  10.3531
    10.3531  10.4861  10.5443  10.5933  10.5933  10.6016  10.6074  10.6074
    10.6130  10.6130  10.6247  10.6247  10.6698  10.6778  10.6778  10.7420
    10.7768  10.7768  10.9153  10.9682  10.9682  11.0046  11.0498  11.0498
    11.0522  11.1575  11.2544  11.2549  11.3086  11.3713  11.3713  11.4111
    11.4469  11.4957  11.5226  11.5226  11.6911  11.8108  11.8108  11.8285
    11.8848  11.8848  11.9020  11.9169  11.9806  12.0098  12.1055  12.1727
    12.2004  12.2470  12.2915  12.2915  12.3212  12.3212  12.6261  12.7063
    12.7063  12.8106  12.8213  12.8834  12.9407  13.0913  13.1817  13.6915
    13.7835  14.8238  15.1552  16.0968  16.7821  16.7821  16.8059  16.8059
    16.9551  16.9552  17.0175  17.0176  17.0755  17.0755  17.1068  17.1068
    17.1236  17.1236  17.1767  17.1768  17.5122  17.5316  17.6057  17.6240
    18.5641  19.5720  19.8299  20.1082  20.1082  20.4579  20.4579  20.5592
    20.5592  21.5200

          k = 0.0000 0.0000 0.0242 ( 13893 PWs)   bands (ev):

   -66.7798 -66.6937 -66.6937 -66.6004 -62.1774 -62.1774 -62.1476 -62.1476
   -35.5484 -35.4965 -35.4965 -35.4638 -35.4638 -35.4114 -35.4114 -35.4114
   -35.4114 -35.3757 -35.3172 -35.3172 -31.0038 -31.0038 -30.9953 -30.9953
   -30.9952 -30.9952 -30.9751 -30.9751 -30.9652 -30.9652 -30.9652 -30.9652
     5.7934   5.8679   6.0300   6.2654   6.5378   6.8708   7.2411   7.5603
     8.3974   8.4040   8.4251   8.4973   8.5373   8.5655   8.6294   8.7542
     8.8723   8.8774   9.0207   9.1154   9.1629   9.1695   9.2198   9.2955
     9.3472   9.3696   9.4448   9.5954   9.7521   9.8560   9.9218   9.9634
     9.9810  10.0446  10.1190  10.1277  10.1277  10.1672  10.1672  10.2158
    10.2158  10.2541  10.2620  10.2899  10.2989  10.2989  10.3000  10.4054
    10.4054  10.4898  10.5351  10.5373  10.5373  10.6010  10.6010  10.6114
    10.6134  10.6134  10.6654  10.6672  10.6672  10.6978  10.6978  10.7372
    10.7770  10.7770  10.9097  10.9097  10.9318  11.0050  11.0290  11.1163
    11.1163  11.1749  11.2484  11.2546  11.3076  11.3153  11.3153  11.4121
    11.4455  11.4971  11.5777  11.5777  11.6912  11.7578  11.7578  11.8269
    11.9019  11.9163  11.9163  11.9168  11.9807  12.0188  12.0891  12.1860
    12.2004  12.2424  12.2802  12.2802  12.3298  12.3298  12.6262  12.7062
    12.7062  12.8106  12.8323  12.8834  12.9116  13.0913  13.2391  13.5429
    13.9254  14.7199  15.2518  16.0642  16.7823  16.7823  16.8057  16.8057
    16.9551  16.9552  17.0175  17.0176  17.0759  17.0759  17.1064  17.1064
    17.1236  17.1236  17.1767  17.1768  17.5170  17.5308  17.6082  17.6216
    18.6286  19.3021  20.1314  20.1314  20.1579  20.3396  20.3396  20.7159
    20.7160  21.2282

          k = 0.0000 0.0000-0.0484 ( 13878 PWs)   bands (ev):

   -66.7798 -66.6937 -66.6937 -66.6004 -62.1774 -62.1774 -62.1476 -62.1476
   -35.5484 -35.4965 -35.4965 -35.4638 -35.4638 -35.4114 -35.4114 -35.4114
   -35.4114 -35.3757 -35.3172 -35.3172 -31.0038 -31.0038 -30.9953 -30.9953
   -30.9952 -30.9952 -30.9751 -30.9751 -30.9652 -30.9652 -30.9652 -30.9652
     5.8085   5.8379   6.0866   6.1889   6.6760   6.7226   7.3911   7.4405
     8.4040   8.4156   8.4957   8.4973   8.5145   8.5655   8.6208   8.6830
     8.8630   8.8772   9.0803   9.1224   9.1229   9.1575   9.2397   9.3083
     9.3609   9.3780   9.4233   9.5809   9.7532   9.8569   9.9218   9.9665
     9.9810  10.0446  10.1166  10.1299  10.1299  10.1587  10.1587  10.2416
    10.2416  10.2567  10.2655  10.2661  10.2661  10.2863  10.2999  10.4662
    10.4662  10.4710  10.4710  10.4948  10.5259  10.6009  10.6009  10.6134
    10.6134  10.6213  10.6596  10.6709  10.6709  10.7327  10.7389  10.7389
    10.7780  10.7780  10.8606  10.8606  10.9578  10.9985  11.0055  11.1925
    11.1973  11.1973  11.2362  11.2362  11.2390  11.2548  11.3066  11.4132
    11.4441  11.4984  11.6620  11.6620  11.6768  11.6768  11.6914  11.8254
    11.9018  11.9167  11.9361  11.9361  11.9807  12.0322  12.0706  12.1989
    12.2004  12.2360  12.2715  12.2715  12.3356  12.3356  12.6262  12.7062
    12.7062  12.8105  12.8598  12.8698  12.8834  13.0913  13.3464  13.3998
    14.0153  14.6314  15.3290  16.0282  16.7824  16.7824  16.8055  16.8055
    16.9550  16.9552  17.0175  17.0176  17.0764  17.0764  17.1059  17.1059
    17.1236  17.1236  17.1767  17.1768  17.5225  17.5291  17.6127  17.6171
    18.7253  19.1073  20.1763  20.1763  20.2503  20.2503  20.5433  20.7173
    20.9004  20.9004

          k = 0.0000 0.1250 0.0000 ( 13879 PWs)   bands (ev):

   -66.7795 -66.6934 -66.6934 -66.6001 -62.1774 -62.1774 -62.1476 -62.1476
   -35.5482 -35.4983 -35.4964 -35.4636 -35.4636 -35.4132 -35.4132 -35.4113
   -35.4113 -35.3756 -35.3190 -35.3171 -31.0035 -31.0035 -30.9974 -30.9974
   -30.9951 -30.9951 -30.9749 -30.9749 -30.9674 -30.9674 -30.9651 -30.9651
     6.0288   6.1415   6.2200   6.6158   6.6189   7.2156   7.2763   7.7745
     8.3540   8.5095   8.5396   8.6073   8.6382   8.6701   8.7152   8.7757
     8.8402   8.9437   9.0353   9.0588   9.2181   9.2264   9.2382   9.3316
     9.3404   9.3682   9.4606   9.5891   9.6390   9.6918   9.8045   9.8300
     9.8791   9.8964   9.9346   9.9813  10.0413  10.0434  10.0623  10.0874
    10.1676  10.1719  10.1953  10.2345  10.2498  10.2526  10.3158  10.3884
    10.3910  10.4258  10.4480  10.4618  10.5213  10.5482  10.5683  10.6621
    10.6655  10.7075  10.7338  10.7723  10.8092  10.8524  10.8539  10.9051
    10.9133  10.9740  11.0147  11.0399  11.1159  11.1362  11.1404  11.1416
    11.1655  11.2303  11.3164  11.3573  11.3683  11.3790  11.3837  11.4132
    11.4496  11.5415  11.5887  11.6979  11.7351  11.7795  11.8020  11.8223
    11.8238  11.8855  11.9401  11.9981  12.0023  12.0157  12.1056  12.1444
    12.1763  12.1903  12.2321  12.2676  12.3909  12.5329  12.5470  12.6303
    12.7185  12.7379  12.7561  12.9140  12.9690  12.9728  13.1505  13.7715
    13.8402  14.9412  15.2701  16.2108  16.5173  16.6069  16.8866  16.8878
    16.8894  16.9313  16.9713  16.9730  17.0132  17.0362  17.0598  17.0623
    17.0774  17.0938  17.2361  17.2394  17.4776  17.5279  17.7053  17.9773
    18.6771  18.7078  19.0429  19.1566  19.9052  19.9821  19.9873  20.1128
    20.7297  21.0095

          k = 0.0000 0.1250 0.0242 ( 13869 PWs)   bands (ev):

   -66.7795 -66.6934 -66.6934 -66.6001 -62.1774 -62.1774 -62.1476 -62.1476
   -35.5482 -35.4983 -35.4964 -35.4636 -35.4636 -35.4132 -35.4132 -35.4113
   -35.4113 -35.3756 -35.3190 -35.3171 -31.0035 -31.0035 -30.9974 -30.9974
   -30.9951 -30.9951 -30.9749 -30.9749 -30.9674 -30.9674 -30.9651 -30.9651
     6.0367   6.1094   6.2669   6.4946   6.7570   7.0739   7.4196   7.7168
     8.4006   8.5110   8.5398   8.6010   8.6302   8.6640   8.6927   8.7480
     8.8665   8.9556   9.0219   9.0916   9.1917   9.2283   9.2641   9.3211
     9.3327   9.3402   9.4971   9.5922   9.6220   9.6947   9.8047   9.8296
     9.8796   9.8936   9.9346   9.9897  10.0357  10.0448  10.0586  10.0897
    10.1667  10.1720  10.1951  10.2252  10.2493  10.2719  10.3171  10.3761
    10.3921  10.4095  10.4372  10.4775  10.5370  10.5596  10.5742  10.6612
    10.6666  10.7072  10.7162  10.7327  10.8144  10.8539  10.8867  10.8916
    10.9367  10.9876  11.0153  11.0372  11.1016  11.1193  11.1356  11.1445
    11.1624  11.2370  11.3046  11.3413  11.3726  11.3928  11.3970  11.4109
    11.4571  11.5671  11.5941  11.6732  11.7071  11.7540  11.7776  11.8551
    11.8710  11.8839  11.9457  11.9694  12.0079  12.0445  12.0982  12.1360
    12.1649  12.1763  12.2484  12.2701  12.3921  12.5334  12.5467  12.6293
    12.7188  12.7379  12.7700  12.8731  12.9690  12.9728  13.2234  13.5850
    14.0220  14.8186  15.3793  16.1649  16.5377  16.6054  16.8861  16.8866
    16.8878  16.9327  16.9708  16.9733  17.0132  17.0361  17.0590  17.0630
    17.0776  17.0937  17.2362  17.2394  17.4831  17.5175  17.7355  17.9179
    18.7091  18.8124  18.9521  19.2824  19.5722  19.7402  20.2329  20.4906
    20.7435  20.8045

          k = 0.0000 0.1250-0.0484 ( 13868 PWs)   bands (ev):

   -66.7795 -66.6934 -66.6934 -66.6001 -62.1774 -62.1774 -62.1476 -62.1476
   -35.5482 -35.4983 -35.4964 -35.4636 -35.4636 -35.4132 -35.4132 -35.4113
   -35.4113 -35.3756 -35.3190 -35.3171 -31.0035 -31.0035 -30.9974 -30.9974
   -30.9951 -30.9951 -30.9749 -30.9749 -30.9674 -30.9674 -30.9651 -30.9651
     6.0514   6.0802   6.3220   6.4204   6.8929   6.9289   7.5695   7.5950
     8.4651   8.5208   8.5436   8.5562   8.6189   8.6468   8.6814   8.7495
     8.8707   8.9654   9.0267   9.1182   9.1671   9.2368   9.2866   9.2986
     9.3097   9.3356   9.5374   9.5795   9.6103   9.6961   9.8049   9.8291
     9.8800   9.8912   9.9345  10.0006  10.0274  10.0473  10.0541  10.0918
    10.1659  10.1720  10.1950  10.2206  10.2488  10.2911  10.3184  10.3555
    10.3924  10.4035  10.4314  10.4911  10.5252  10.5779  10.6182  10.6499
    10.6605  10.6676  10.7069  10.7317  10.8207  10.8539  10.8792  10.8944
    10.9902  11.0004  11.0227  11.0334  11.0418  11.1230  11.1346  11.1445
    11.1594  11.2502  11.2810  11.3384  11.3736  11.3959  11.4091  11.4171
    11.4617  11.6092  11.6184  11.6379  11.6481  11.7501  11.7715  11.8768
    11.8769  11.9106  11.9414  11.9515  12.0164  12.0726  12.0810  12.1269
    12.1438  12.1763  12.2585  12.2724  12.3933  12.5339  12.5464  12.6282
    12.7191  12.7380  12.8038  12.8194  12.9690  12.9728  13.3496  13.4202
    14.1336  14.7120  15.4651  16.1174  16.5561  16.6030  16.8829  16.8866
    16.8878  16.9338  16.9705  16.9736  17.0133  17.0360  17.0585  17.0634
    17.0777  17.0936  17.2362  17.2393  17.4975  17.4990  17.8079  17.8210
    18.7342  18.8840  19.0064  19.2985  19.4233  19.5756  20.4940  20.4995
    20.7632  20.8854

          k = 0.0000 0.2500 0.0000 ( 13848 PWs)   bands (ev):

   -66.7794 -66.6933 -66.6933 -66.6000 -62.1770 -62.1770 -62.1472 -62.1472
   -35.5478 -35.5025 -35.4962 -35.4632 -35.4632 -35.4174 -35.4174 -35.4111
   -35.4111 -35.3752 -35.3232 -35.3168 -31.0029 -31.0029 -31.0027 -31.0027
   -30.9948 -30.9948 -30.9743 -30.9743 -30.9727 -30.9727 -30.9648 -30.9648
     6.7176   6.8199   6.8895   7.2322   7.2345   7.7237   7.7274   8.1057
     8.3016   8.5403   8.5455   8.7446   8.7514   8.7766   8.8440   8.8726
     8.9180   8.9282   8.9687   8.9829   9.0255   9.1850   9.2278   9.4041
     9.4561   9.4872   9.5441   9.5484   9.6268   9.6325   9.6434   9.6542
     9.6555   9.6568   9.6962   9.7631   9.8416   9.9027   9.9373   9.9805
    10.0174  10.0879  10.1373  10.1471  10.1595  10.1674  10.3092  10.3881
    10.4154  10.5817  10.6246  10.6367  10.6589  10.6657  10.7365  10.7948
    10.8295  10.8770  10.9226  10.9331  10.9486  10.9537  11.0447  11.0839
    11.1325  11.1743  11.1831  11.1875  11.2013  11.2416  11.2759  11.3347
    11.3862  11.3946  11.4702  11.4879  11.5413  11.5771  11.5789  11.6476
    11.6659  11.6989  11.7283  11.7310  11.7664  11.8093  11.8189  11.8617
    11.8660  11.9380  11.9637  11.9963  11.9991  12.0539  12.0596  12.0749
    12.1264  12.2242  12.2267  12.3011  12.4715  12.4962  12.5668  12.6933
    12.7098  12.7436  12.8022  12.8463  12.9993  13.0384  13.0551  13.9615
    13.9871  15.1546  15.3647  15.9774  15.9826  16.0713  16.1285  16.2564
    16.5171  16.5604  16.7757  16.7803  16.8175  16.9934  16.9993  17.0352
    17.0446  17.2297  17.2716  17.3012  17.3041  17.3776  17.3777  17.4075
    17.5612  17.7988  17.9366  18.0713  18.5478  18.6127  18.6768  18.8703
    19.5715  20.5269

          k = 0.0000 0.2500 0.0242 ( 13862 PWs)   bands (ev):

   -66.7794 -66.6933 -66.6933 -66.6000 -62.1770 -62.1770 -62.1472 -62.1472
   -35.5478 -35.5025 -35.4962 -35.4632 -35.4632 -35.4174 -35.4174 -35.4111
   -35.4111 -35.3752 -35.3232 -35.3168 -31.0029 -31.0029 -31.0027 -31.0027
   -30.9948 -30.9948 -30.9743 -30.9743 -30.9727 -30.9727 -30.9648 -30.9648
     6.7248   6.7909   6.9313   7.1292   7.3494   7.5991   7.8478   8.0598
     8.3373   8.4788   8.6026   8.7114   8.7616   8.7825   8.8512   8.8775
     8.9121   8.9210   8.9651   8.9893   9.0317   9.1879   9.2202   9.3738
     9.4872   9.5094   9.5431   9.5495   9.6220   9.6318   9.6442   9.6546
     9.6560   9.6565   9.6962   9.7147   9.8417   9.9374   9.9549   9.9800
    10.0172  10.0899  10.1326  10.1380  10.1457  10.1562  10.3208  10.4010
    10.4100  10.5808  10.6031  10.6409  10.6662  10.6735  10.7512  10.7893
    10.8305  10.8779  10.8820  10.9250  10.9479  10.9968  11.0548  11.0626
    11.1346  11.1637  11.1766  11.2089  11.2119  11.2394  11.2725  11.3328
    11.3861  11.3983  11.4647  11.4976  11.5422  11.5642  11.5711  11.6207
    11.6463  11.7297  11.7537  11.7598  11.7673  11.8083  11.8183  11.8617
    11.8655  11.9244  11.9363  11.9753  12.0210  12.0241  12.0706  12.1081
    12.1264  12.2209  12.2324  12.2953  12.4744  12.4918  12.5885  12.6976
    12.7096  12.7408  12.7594  12.8024  12.9993  13.0384  13.1839  13.6916
    14.2523  14.9864  15.5108  15.9072  15.9981  16.0762  16.1359  16.2665
    16.5131  16.5598  16.7757  16.7803  16.8178  16.9934  16.9993  17.0367
    17.0434  17.2277  17.2735  17.3012  17.3041  17.3776  17.3777  17.4127
    17.5510  17.7955  17.9495  18.1558  18.3617  18.5074  18.8276  18.9590
    19.6074  20.1757

          k = 0.0000 0.2500-0.0484 ( 13842 PWs)   bands (ev):

   -66.7794 -66.6933 -66.6933 -66.6000 -62.1770 -62.1770 -62.1472 -62.1472
   -35.5478 -35.5025 -35.4962 -35.4632 -35.4632 -35.4174 -35.4174 -35.4111
   -35.4111 -35.3752 -35.3232 -35.3168 -31.0029 -31.0029 -31.0027 -31.0027
   -30.9948 -30.9948 -30.9743 -30.9743 -30.9727 -30.9727 -30.9648 -30.9648
     6.7379   6.7647   6.9803   7.0650   7.4691   7.4759   7.9480   7.9776
     8.3888   8.4258   8.6475   8.6725   8.7654   8.7838   8.8568   8.8926
     8.9046   8.9075   8.9632   8.9934   9.0386   9.1927   9.2100   9.3580
     9.4872   9.5425   9.5503   9.5829   9.5874   9.6312   9.6483   9.6498
     9.6565   9.6599   9.6703   9.6962   9.8417   9.9376   9.9796  10.0170
    10.0181  10.0786  10.0922  10.1390  10.1435  10.1534  10.3376  10.3818
    10.4321  10.5794  10.5837  10.6436  10.6664  10.6897  10.7639  10.7856
    10.8293  10.8530  10.8790  10.9289  10.9415  11.0218  11.0457  11.0707
    11.1172  11.1537  11.2064  11.2074  11.2153  11.2365  11.2702  11.3306
    11.3922  11.3958  11.4613  11.5117  11.5457  11.5494  11.5505  11.6101
    11.6405  11.7312  11.7676  11.7894  11.8000  11.8061  11.8160  11.8633
    11.8635  11.8908  11.9266  11.9502  12.0169  12.0429  12.0631  12.1263
    12.1325  12.2132  12.2427  12.2874  12.4814  12.4832  12.6468  12.6620
    12.7027  12.7090  12.7374  12.8025  12.9994  13.0384  13.3714  13.4687
    14.4167  14.8370  15.6309  15.8305  16.0038  16.0714  16.1461  16.2757
    16.5090  16.5592  16.7757  16.7803  16.8181  16.9934  16.9993  17.0394
    17.0410  17.2259  17.2753  17.3012  17.3041  17.3776  17.3777  17.4171
    17.5450  17.7724  18.0431  18.1668  18.3237  18.3552  18.9340  18.9925
    19.7266  19.9131

          k = 0.0000 0.3750 0.0000 ( 13856 PWs)   bands (ev):

   -66.7800 -66.6939 -66.6939 -66.6005 -62.1760 -62.1760 -62.1462 -62.1462
   -35.5474 -35.5066 -35.4959 -35.4628 -35.4628 -35.4215 -35.4215 -35.4109
   -35.4109 -35.3747 -35.3272 -35.3166 -31.0081 -31.0081 -31.0024 -31.0024
   -30.9944 -30.9944 -30.9781 -30.9781 -30.9737 -30.9737 -30.9644 -30.9644
     7.6778   7.7544   7.8028   8.0023   8.0052   8.1505   8.1729   8.2226
     8.2415   8.3460   8.3720   8.4973   8.5865   8.6792   8.8387   8.9389
     8.9861   8.9946   9.1143   9.1600   9.2285   9.2420   9.2544   9.3085
     9.3118   9.3366   9.3390   9.3873   9.4302   9.5125   9.5456   9.6687
     9.6748   9.6874   9.6922   9.7650   9.8839   9.9230   9.9261   9.9351
     9.9590  10.0425  10.0660  10.1095  10.1295  10.1781  10.2619  10.3789
    10.4410  10.4770  10.5414  10.6798  10.6875  10.7903  10.8760  10.9043
    10.9137  11.0083  11.1102  11.1693  11.1886  11.3098  11.3144  11.3462
    11.3628  11.3720  11.4059  11.4970  11.5178  11.5567  11.5774  11.5780
    11.6348  11.6455  11.6540  11.6541  11.6993  11.7628  11.7636  11.7814
    11.8335  11.8453  11.8651  11.9356  11.9772  11.9795  12.0186  12.0636
    12.0808  12.0903  12.1242  12.1362  12.1487  12.1811  12.2738  12.3138
    12.3374  12.3677  12.4063  12.4191  12.5332  12.5913  12.6280  12.7868
    12.7888  12.8339  12.8942  12.9680  12.9874  13.0672  13.0860  13.8961
    13.9495  14.0020  14.2451  14.2859  14.7177  14.7644  15.0856  15.1217
    15.4328  15.4974  15.8822  15.9283  16.7406  16.7410  16.7904  16.8079
    16.8605  16.9251  16.9255  17.0326  17.0446  17.1252  17.1757  17.3069
    17.5025  17.5028  17.5509  17.5509  17.9181  17.9587  18.1014  18.1907
    19.6054  19.8003

          k = 0.0000 0.3750 0.0242 ( 13870 PWs)   bands (ev):

   -66.7800 -66.6939 -66.6939 -66.6005 -62.1760 -62.1760 -62.1462 -62.1462
   -35.5474 -35.5066 -35.4959 -35.4628 -35.4628 -35.4215 -35.4215 -35.4109
   -35.4109 -35.3747 -35.3272 -35.3166 -31.0081 -31.0081 -31.0024 -31.0024
   -30.9944 -30.9944 -30.9781 -30.9781 -30.9737 -30.9737 -30.9644 -30.9644
     7.6833   7.7329   7.8322   7.9486   8.0556   8.1345   8.1816   8.2097
     8.2563   8.3275   8.3939   8.4807   8.6035   8.6684   8.8467   8.9192
     8.9981   9.0063   9.1063   9.1402   9.2420   9.2494   9.2544   9.3019
     9.3275   9.3366   9.3390   9.3874   9.4302   9.5110   9.5429   9.5893
     9.6876   9.6919   9.7604   9.7653   9.8919   9.9210   9.9308   9.9413
     9.9540  10.0454  10.0703  10.0926  10.1006  10.1334  10.3334  10.3857
    10.4410  10.4737  10.5323  10.6763  10.6784  10.7936  10.8556  10.9019
    10.9273  11.0028  11.1253  11.1761  11.2026  11.2954  11.3089  11.3542
    11.3659  11.3887  11.4177  11.4960  11.5199  11.5253  11.5543  11.5947
    11.6091  11.6152  11.6686  11.6711  11.6986  11.7353  11.7684  11.8034
    11.8134  11.8705  11.8816  11.9283  11.9533  11.9850  12.0071  12.0355
    12.0842  12.0892  12.1365  12.1543  12.1718  12.2435  12.2793  12.3134
    12.3261  12.3759  12.4100  12.4223  12.5325  12.5891  12.6287  12.7236
    12.7874  12.7891  12.8334  12.8943  13.0672  13.0860  13.2342  13.7184
    13.9714  14.1276  14.1699  14.4309  14.5611  14.8043  14.9932  15.2510
    15.3893  15.5608  15.8555  15.9083  16.7406  16.7410  16.7876  16.8053
    16.8721  16.9251  16.9255  17.0190  17.0584  17.1148  17.1864  17.3061
    17.5025  17.5028  17.5509  17.5509  17.9180  17.9568  18.1058  18.1896
    19.6083  19.8200

          k = 0.0000 0.3750-0.0484 ( 13872 PWs)   bands (ev):

   -66.7800 -66.6939 -66.6939 -66.6005 -62.1760 -62.1760 -62.1462 -62.1462
   -35.5474 -35.5066 -35.4959 -35.4628 -35.4628 -35.4215 -35.4215 -35.4109
   -35.4109 -35.3747 -35.3272 -35.3166 -31.0081 -31.0081 -31.0024 -31.0024
   -30.9944 -30.9944 -30.9781 -30.9781 -30.9737 -30.9737 -30.9644 -30.9644
     7.6935   7.7131   7.8680   7.9082   8.0952   8.1058   8.1935   8.1957
     8.2689   8.3132   8.4141   8.4611   8.6263   8.6501   8.8577   8.9013
     9.0044   9.0207   9.0982   9.1236   9.2420   9.2544   9.2703   9.2906
     9.3366   9.3390   9.3462   9.3874   9.4301   9.5063   9.5333   9.5620
     9.6878   9.6915   9.7655   9.7993   9.9065   9.9200   9.9365   9.9472
     9.9814   9.9964  10.0476  10.0811  10.0869  10.1360  10.3636  10.4154
    10.4410  10.4711  10.5123  10.6649  10.6771  10.7969  10.8423  10.9019
    10.9331  10.9974  11.1367  11.1829  11.2247  11.2763  11.2990  11.3598
    11.3859  11.4209  11.4567  11.4592  11.4829  11.5012  11.5338  11.5870
    11.6014  11.6180  11.6809  11.6878  11.6977  11.7226  11.7684  11.7980
    11.8054  11.8869  11.9022  11.9220  11.9478  11.9825  11.9893  12.0257
    12.0800  12.0893  12.1368  12.1568  12.2009  12.2609  12.2883  12.3123
    12.3712  12.4117  12.4264  12.4736  12.4878  12.5417  12.5868  12.6293
    12.7878  12.7895  12.8328  12.8943  13.0672  13.0860  13.4697  13.4974
    14.0242  14.0400  14.3505  14.3851  14.6102  14.6306  15.1017  15.1612
    15.5130  15.5363  15.8360  15.8804  16.7406  16.7411  16.7866  16.8023
    16.8828  16.9251  16.9255  17.0104  17.0681  17.1048  17.1951  17.3053
    17.5025  17.5028  17.5508  17.5509  17.9179  17.9550  18.1103  18.1883
    19.6129  19.8352

          k = 0.0000-0.5000 0.0000 ( 13918 PWs)   bands (ev):

   -66.7804 -66.6943 -66.6943 -66.6010 -62.1755 -62.1755 -62.1456 -62.1456
   -35.5472 -35.5082 -35.4958 -35.4626 -35.4626 -35.4231 -35.4231 -35.4108
   -35.4108 -35.3746 -35.3289 -35.3165 -31.0104 -31.0104 -31.0022 -31.0021
   -30.9943 -30.9943 -30.9804 -30.9804 -30.9735 -30.9735 -30.9643 -30.9643
     8.1310   8.1453   8.2044   8.2154   8.2189   8.2928   8.3492   8.3822
     8.4622   8.4673   8.5037   8.5156   8.5740   8.6574   8.7511   8.8392
     8.9757   8.9764   9.0358   9.0675   9.1460   9.1513   9.2360   9.2570
     9.3125   9.3204   9.3793   9.4070   9.5626   9.5984   9.6310   9.6861
     9.6871   9.7020   9.7048   9.7833   9.8017   9.8433   9.8832   9.9088
     9.9889  10.0103  10.0274  10.0413  10.0471  10.0902  10.2371  10.3036
    10.4164  10.4964  10.5248  10.5882  10.6343  10.7063  10.7510  10.8584
    11.1632  11.2183  11.2790  11.3344  11.3942  11.4190  11.4844  11.4967
    11.5255  11.5410  11.5435  11.5592  11.5664  11.5700  11.5749  11.5943
    11.6059  11.6308  11.6673  11.6699  11.7441  11.7888  11.8285  11.8548
    11.9663  11.9949  11.9994  12.1237  12.1301  12.1748  12.2945  12.3819
    12.4139  12.4225  12.4339  12.4426  12.4451  12.5016  12.5463  12.5569
    12.5765  12.6274  12.6445  12.6709  12.7431  12.8174  12.8241  12.8260
    12.8760  12.9273  12.9693  12.9707  13.0873  13.0964  13.1055  13.1146
    13.3803  13.4444  13.7429  13.7459  13.8388  13.8512  14.3352  14.3889
    14.4870  14.5240  14.8558  14.8571  16.5616  16.6439  16.7017  16.7296
    16.8147  16.8160  16.8160  16.8166  16.9572  16.9896  16.9914  17.0058
    17.5788  17.5788  17.6223  17.6223  17.9678  17.9995  18.0081  18.0110
    19.6678  19.6932

          k = 0.0000-0.5000 0.0242 ( 13918 PWs)   bands (ev):

   -66.7804 -66.6943 -66.6943 -66.6010 -62.1755 -62.1755 -62.1456 -62.1456
   -35.5472 -35.5082 -35.4958 -35.4626 -35.4626 -35.4231 -35.4231 -35.4108
   -35.4108 -35.3746 -35.3289 -35.3165 -31.0104 -31.0104 -31.0022 -31.0021
   -30.9943 -30.9943 -30.9804 -30.9804 -30.9735 -30.9735 -30.9643 -30.9643
     8.1310   8.1454   8.2041   8.2110   8.2236   8.2945   8.3468   8.3799
     8.4661   8.4721   8.4989   8.5137   8.5752   8.6576   8.7494   8.8383
     8.9839   8.9877   9.0269   9.0523   9.1460   9.1513   9.2360   9.2570
     9.3125   9.3204   9.3970   9.4223   9.5626   9.5678   9.5964   9.6859
     9.6873   9.7198   9.7205   9.7815   9.8017   9.8431   9.8832   9.9088
    10.0103  10.0146  10.0274  10.0413  10.0471  10.1063  10.2176  10.2555
    10.4489  10.4964  10.5248  10.5965  10.6295  10.7063  10.7510  10.8522
    11.1632  11.2272  11.2856  11.3344  11.3900  11.4190  11.4853  11.4978
    11.5125  11.5338  11.5517  11.5664  11.5685  11.5691  11.5813  11.5940
    11.6079  11.6286  11.6569  11.6575  11.7471  11.7880  11.8257  11.8529
    11.9663  11.9994  12.0052  12.1301  12.1362  12.1748  12.2877  12.3821
    12.4146  12.4219  12.4312  12.4337  12.4540  12.5034  12.5360  12.5665
    12.5740  12.6274  12.6501  12.6710  12.7372  12.8171  12.8174  12.8259
    12.8760  12.9273  12.9862  12.9867  13.0690  13.0955  13.0964  13.1055
    13.4018  13.4751  13.6581  13.6807  13.9333  13.9342  14.2463  14.2783
    14.5960  14.6079  14.8247  14.8265  16.5644  16.6519  16.6947  16.7276
    16.8147  16.8160  16.8160  16.8166  16.9572  16.9848  16.9960  17.0058
    17.5788  17.5788  17.6223  17.6223  17.9679  17.9998  18.0079  18.0109
    19.6774  19.7048

          k = 0.0000-0.5000-0.0484 ( 13892 PWs)   bands (ev):

   -66.7804 -66.6943 -66.6943 -66.6010 -62.1755 -62.1755 -62.1456 -62.1456
   -35.5472 -35.5082 -35.4958 -35.4626 -35.4626 -35.4231 -35.4231 -35.4108
   -35.4107 -35.3746 -35.3289 -35.3165 -31.0104 -31.0104 -31.0022 -31.0021
   -30.9943 -30.9943 -30.9804 -30.9804 -30.9735 -30.9735 -30.9643 -30.9643
     8.1311   8.1455   8.2038   8.2087   8.2263   8.2964   8.3443   8.3778
     8.4701   8.4796   8.4914   8.5116   8.5763   8.6578   8.7478   8.8374
     8.9971   9.0120   9.0124   9.0249   9.1460   9.1513   9.2360   9.2570
     9.3125   9.3204   9.4186   9.4434   9.5360   9.5626   9.5643   9.6858
     9.6875   9.7285   9.7351   9.7789   9.8017   9.8430   9.8832   9.9088
    10.0104  10.0275  10.0413  10.0471  10.0473  10.1315  10.1893  10.2100
    10.4717  10.4964  10.5248  10.6090  10.6202  10.7063  10.7510  10.8459
    11.1632  11.2365  11.2926  11.3344  11.3853  11.4190  11.4906  11.4931
    11.5032  11.5309  11.5521  11.5664  11.5766  11.5790  11.5805  11.5933
    11.6132  11.6252  11.6415  11.6475  11.7494  11.7874  11.8235  11.8511
    11.9663  11.9994  12.0148  12.1301  12.1495  12.1748  12.2799  12.3822
    12.4154  12.4210  12.4251  12.4336  12.4577  12.5059  12.5290  12.5717
    12.5720  12.6275  12.6560  12.6710  12.7308  12.8108  12.8174  12.8259
    12.8760  12.9273  13.0101  13.0143  13.0384  13.0706  13.0964  13.1055
    13.4265  13.5427  13.5653  13.6347  14.0154  14.0304  14.1460  14.1863
    14.6964  14.7014  14.7623  14.7659  16.5673  16.6648  16.6829  16.7256
    16.8147  16.8160  16.8160  16.8166  16.9572  16.9823  16.9982  17.0057
    17.5788  17.5788  17.6223  17.6223  17.9679  18.0001  18.0076  18.0109
    19.6878  19.7181

          k = 0.1250 0.1250 0.0000 ( 13839 PWs)   bands (ev):

   -66.7792 -66.6931 -66.6931 -66.5998 -62.1775 -62.1775 -62.1476 -62.1476
   -35.5481 -35.4982 -35.4982 -35.4635 -35.4635 -35.4131 -35.4131 -35.4131
   -35.4131 -35.3754 -35.3189 -35.3188 -31.0033 -31.0033 -30.9974 -30.9974
   -30.9972 -30.9972 -30.9747 -30.9747 -30.9674 -30.9674 -30.9672 -30.9672
     6.2610   6.3719   6.4502   6.8368   6.8395   7.4192   7.4652   7.9422
     8.4116   8.5912   8.6795   8.7064   8.7451   8.7722   8.7810   8.8088
     8.8522   9.0630   9.0737   9.0796   9.2846   9.2958   9.3563   9.3618
     9.4086   9.4260   9.4265   9.4803   9.6322   9.6477   9.6638   9.7856
     9.8014   9.8385   9.8418   9.8903   9.8981   9.9048   9.9306   9.9819
    10.0961  10.1019  10.1059  10.1774  10.2489  10.2535  10.2608  10.3590
    10.3612  10.3719  10.3910  10.4065  10.4361  10.4615  10.5707  10.6064
    10.6527  10.6999  10.7012  10.7191  10.7740  10.7909  10.8647  10.9493
    10.9884  10.9986  11.0362  11.0773  11.1397  11.1563  11.2171  11.2286
    11.2450  11.3097  11.3404  11.3510  11.4116  11.4432  11.5080  11.5145
    11.5790  11.5962  11.6885  11.7367  11.7754  11.8265  11.8502  11.8544
    11.9192  11.9716  11.9879  11.9986  12.0477  12.0978  12.1083  12.1511
    12.1555  12.3045  12.3473  12.3729  12.3766  12.5095  12.6045  12.6081
    12.6420  12.7150  12.7440  12.8422  12.8572  12.9214  13.1659  13.8822
    13.9394  15.0779  15.3824  16.3268  16.6374  16.6928  16.7145  16.8084
    16.8536  16.8763  16.9469  16.9573  16.9761  16.9934  17.0150  17.0184
    17.1249  17.1364  17.1440  17.1988  17.4687  17.5815  17.7992  18.3504
    18.8553  19.1819  19.2942  19.4689  19.5796  19.6349  19.7735  20.0983
    20.1544  20.2720

          k = 0.1250 0.1250 0.0242 ( 13842 PWs)   bands (ev):

   -66.7792 -66.6931 -66.6931 -66.5998 -62.1775 -62.1775 -62.1476 -62.1476
   -35.5481 -35.4982 -35.4982 -35.4635 -35.4635 -35.4131 -35.4131 -35.4131
   -35.4131 -35.3754 -35.3189 -35.3188 -31.0033 -31.0033 -30.9974 -30.9974
   -30.9972 -30.9972 -30.9747 -30.9747 -30.9674 -30.9674 -30.9672 -30.9672
     6.2686   6.3409   6.4957   6.7189   6.9737   7.2788   7.6061   7.8866
     8.4532   8.5929   8.6795   8.6844   8.7121   8.7451   8.8088   8.8137
     8.8891   9.0148   9.0630   9.1482   9.2694   9.2991   9.3099   9.3509
     9.4222   9.4443   9.4608   9.4736   9.6210   9.6359   9.6648   9.7965
     9.8008   9.8387   9.8405   9.8867   9.9049   9.9100   9.9308   9.9675
    10.0958  10.1022  10.1154  10.1696  10.2492  10.2531  10.2658  10.3598
    10.3613  10.3686  10.3868  10.4064  10.4429  10.4616  10.5625  10.6059
    10.6624  10.6928  10.7076  10.7187  10.7872  10.7951  10.8591  10.8948
    11.0037  11.0301  11.0321  11.0737  11.1514  11.1553  11.2170  11.2270
    11.2428  11.3233  11.3408  11.3530  11.4042  11.4306  11.4698  11.5096
    11.5802  11.6396  11.7073  11.7466  11.7713  11.8271  11.8434  11.8508
    11.9089  11.9176  11.9864  12.0274  12.0698  12.0880  12.1183  12.1508
    12.1640  12.2962  12.3331  12.3721  12.3869  12.5105  12.6051  12.6136
    12.6380  12.7303  12.7439  12.8313  12.8569  12.8792  13.2548  13.6685
    14.1459  14.9467  15.4948  16.2741  16.6846  16.6930  16.7143  16.8037
    16.8464  16.8651  16.9473  16.9553  16.9765  16.9929  17.0156  17.0181
    17.1251  17.1362  17.1541  17.1922  17.4787  17.5529  17.8651  18.2181
    19.0367  19.1866  19.3107  19.4492  19.5476  19.6130  19.8659  19.8963
    20.0050  20.2955

          k = 0.1250 0.1250-0.0484 ( 13838 PWs)   bands (ev):

   -66.7792 -66.6931 -66.6931 -66.5998 -62.1775 -62.1775 -62.1476 -62.1476
   -35.5481 -35.4982 -35.4982 -35.4635 -35.4635 -35.4131 -35.4131 -35.4131
   -35.4131 -35.3754 -35.3189 -35.3188 -31.0033 -31.0033 -30.9974 -30.9974
   -30.9972 -30.9972 -30.9747 -30.9747 -30.9674 -30.9674 -30.9672 -30.9672
     6.2823   6.3130   6.5490   6.6470   7.1075   7.1368   7.7550   7.7640
     8.5081   8.6082   8.6122   8.6795   8.7040   8.7451   8.8088   8.8250
     8.9237   8.9807   9.0629   9.2059   9.2502   9.2598   9.3033   9.3413
     9.4375   9.4632   9.4654   9.4818   9.6084   9.6240   9.6658   9.8002
     9.8066   9.8385   9.8389   9.8850   9.9049   9.9271   9.9387   9.9388
    10.0955  10.1026  10.1270  10.1594  10.2497  10.2526  10.2708  10.3580
    10.3613  10.3682  10.3830  10.4063  10.4487  10.4617  10.5558  10.6055
    10.6694  10.6886  10.7141  10.7170  10.8000  10.8185  10.8415  10.8528
    11.0109  11.0258  11.0573  11.0641  11.1545  11.1669  11.2168  11.2241
[...]
    11.5524  11.5988  11.5995  11.6034  11.6451  11.6659  11.6786  11.6789
    11.8388  11.8789  11.8833  11.9115  11.9691  11.9744  11.9889  11.9998
    12.1492  12.1588  12.1669  12.1775  12.3280  12.3469  12.3759  12.3992
    12.4318  12.4622  12.4698  12.4895  12.8811  12.9000  12.9076  12.9389
    13.3013  13.3201  13.4392  13.4399  13.8587  13.9051  14.0481  14.0783
    14.4996  14.5376  14.6144  14.7144  15.0896  15.2388  15.2709  15.3518
    16.2800  16.3060  16.4074  16.4877  16.9708  17.0392  17.0888  17.1108
    17.1447  17.1527  17.1654  17.3179  17.4788  17.6453  17.6677  17.7422
    18.0635  18.0795  18.1221  18.1546  18.2109  18.3107  18.4636  18.4669
    19.7230  19.7272

          k = 0.3750 0.3750 0.0000 ( 13948 PWs)   bands (ev):

   -66.7833 -66.7833 -66.7354 -66.7354 -62.1976 -62.1110 -62.1110 -62.0424
   -35.5564 -35.5564 -35.5086 -35.5086 -35.5085 -35.5085 -35.5073 -35.5073
   -35.4622 -35.4622 -35.4621 -35.4621 -31.0272 -31.0270 -31.0222 -30.9435
   -30.9435 -30.9433 -30.9433 -30.9342 -30.9342 -30.8731 -30.8727 -30.8725
     8.0162   8.0860   8.3619   8.3881   8.4043   8.5933   8.6017   8.7518
     8.9247   8.9778   8.9964   9.0089   9.0623   9.0744   9.1847   9.2055
     9.2771   9.2772   9.3016   9.3344   9.3426   9.3778   9.4171   9.4574
     9.4699   9.4927   9.5128   9.5364   9.6498   9.6715   9.6812   9.7903
     9.9173   9.9210   9.9453   9.9934  10.0051  10.0546  10.0888  10.0944
    10.0944  10.1158  10.1289  10.1447  10.1463  10.2324  10.2583  10.3435
    10.3908  10.4337  10.5015  10.5533  10.5628  10.6032  10.6818  10.7071
    10.7072  10.7489  10.8435  10.8593  10.9668  11.0558  11.0686  11.0687
    11.0786  11.1280  11.2279  11.3730  11.4554  11.4821  11.4867  11.5211
    11.5241  11.5337  11.5896  11.5916  11.6114  11.6373  11.6734  11.6755
    11.7726  11.9420  11.9648  11.9679  11.9714  11.9828  11.9831  12.0166
    12.0212  12.0339  12.1201  12.1337  12.1342  12.2608  12.3253  12.3318
    12.3718  12.4093  12.5522  12.5781  12.6670  12.7444  12.7655  13.1230
    13.1522  13.4512  13.7979  14.0734  14.1379  14.5808  14.9323  15.0714
    15.1011  15.1875  15.2671  15.4460  15.8427  15.8799  16.1041  16.2111
    16.9178  16.9570  17.0417  17.0949  17.1046  17.1551  17.1569  17.2247
    17.3400  17.4067  17.5575  17.7272  17.7359  17.8876  17.9057  17.9880
    18.0589  18.0913  18.1291  18.2618  18.3010  18.4520  18.6487  18.7566
    18.7764  18.9126

          k = 0.3750 0.3750 0.0242 ( 13940 PWs)   bands (ev):

   -66.7833 -66.7833 -66.7354 -66.7354 -62.1976 -62.1110 -62.1110 -62.0424
   -35.5564 -35.5564 -35.5086 -35.5086 -35.5085 -35.5085 -35.5073 -35.5073
   -35.4622 -35.4622 -35.4621 -35.4621 -31.0272 -31.0270 -31.0222 -30.9435
   -30.9435 -30.9433 -30.9433 -30.9342 -30.9342 -30.8731 -30.8727 -30.8725
     8.0173   8.0836   8.3624   8.4005   8.4057   8.5300   8.6552   8.7581
     8.9168   8.9791   8.9906   9.0132   9.0624   9.0820   9.1382   9.2253
     9.2763   9.3018   9.3035   9.3327   9.3586   9.3838   9.3936   9.4388
     9.4758   9.4953   9.5185   9.5509   9.6188   9.6411   9.7390   9.8099
     9.8847   9.9211   9.9237   9.9789  10.0097  10.0501  10.0944  10.0945
    10.1133  10.1189  10.1422  10.1519  10.1852  10.1978  10.2504  10.3458
    10.4159  10.4207  10.4430  10.5345  10.6062  10.6168  10.6823  10.6982
    10.7144  10.7708  10.8434  10.8593  10.9356  11.0579  11.0666  11.0686
    11.0792  11.1147  11.2594  11.3697  11.4566  11.4798  11.4930  11.5220
    11.5229  11.5361  11.5837  11.5984  11.6074  11.6098  11.6735  11.6754
    11.7992  11.9351  11.9422  11.9681  11.9713  11.9808  12.0069  12.0169
    12.0199  12.0435  12.0973  12.1159  12.1730  12.2500  12.3257  12.3304
    12.3742  12.4075  12.5681  12.5818  12.6648  12.6770  12.8363  13.0528
    13.2201  13.4256  13.8321  14.0046  14.1894  14.5676  14.9482  15.0607
    15.1082  15.1724  15.2764  15.4448  15.8428  15.8796  16.1094  16.2055
    16.9307  16.9697  17.0366  17.0949  17.1002  17.1258  17.1560  17.1991
    17.3813  17.4308  17.5254  17.7241  17.7492  17.8711  17.9295  17.9878
    18.0573  18.0904  18.1338  18.2949  18.3455  18.3966  18.5563  18.6738
    18.7197  19.0134

          k = 0.3750 0.3750-0.0484 ( 13950 PWs)   bands (ev):

   -66.7833 -66.7833 -66.7354 -66.7354 -62.1976 -62.1110 -62.1110 -62.0424
   -35.5564 -35.5564 -35.5086 -35.5086 -35.5085 -35.5085 -35.5073 -35.5073
   -35.4622 -35.4622 -35.4621 -35.4621 -31.0272 -31.0270 -31.0222 -30.9435
   -30.9435 -30.9433 -30.9433 -30.9342 -30.9342 -30.8731 -30.8727 -30.8725
     8.0185   8.0813   8.3629   8.4019   8.4271   8.4882   8.6780   8.7654
     8.9101   8.9804   8.9875   9.0144   9.0674   9.0682   9.1407   9.2004
     9.3021   9.3065   9.3105   9.3312   9.3678   9.3921   9.4095   9.4238
     9.4241   9.5007   9.5521   9.5778   9.5828   9.6146   9.7898   9.8319
     9.8454   9.9211   9.9215   9.9226  10.0148  10.0941  10.0943  10.1102
    10.1153  10.1198  10.1399  10.1422  10.1616  10.2325  10.2754  10.3101
    10.3818  10.4305  10.4625  10.4962  10.6250  10.6386  10.6661  10.7080
    10.7123  10.8100  10.8433  10.8593  10.8896  11.0620  11.0625  11.0686
    11.0798  11.1071  11.2871  11.3647  11.4579  11.4775  11.5043  11.5173
    11.5246  11.5416  11.5760  11.5808  11.6046  11.6058  11.6737  11.6752
    11.8258  11.9119  11.9424  11.9685  11.9713  11.9789  12.0171  12.0192
    12.0203  12.0633  12.0692  12.1112  12.1999  12.2318  12.3272  12.3279
    12.3771  12.4054  12.5856  12.6083  12.6165  12.6623  12.8869  13.0015
    13.2651  13.3937  13.9100  13.9125  14.2204  14.5541  14.9673  15.0465
    15.1192  15.1550  15.2841  15.4435  15.8429  15.8794  16.1154  16.1992
    16.9471  16.9883  17.0256  17.0941  17.0948  17.0950  17.1577  17.1804
    17.4400  17.4522  17.4712  17.7207  17.7603  17.8619  17.9487  17.9877
    18.0419  18.0896  18.1685  18.3070  18.3802  18.4099  18.4813  18.5150
    18.7537  19.0782

          k = 0.3750-0.5000 0.0000 ( 13934 PWs)   bands (ev):

   -66.7833 -66.7833 -66.7355 -66.7355 -62.1974 -62.1108 -62.1108 -62.0421
   -35.5563 -35.5563 -35.5102 -35.5102 -35.5084 -35.5084 -35.5072 -35.5072
   -35.4637 -35.4637 -35.4620 -35.4620 -31.0293 -31.0269 -31.0221 -30.9456
   -30.9456 -30.9432 -30.9432 -30.9340 -30.9340 -30.8748 -30.8730 -30.8724
     8.1392   8.1502   8.1951   8.2090   8.4875   8.5209   8.6137   8.7213
     8.8096   8.9219   9.1065   9.1236   9.1309   9.1403   9.1801   9.2091
     9.2094   9.2212   9.2215   9.2618   9.2635   9.3559   9.3931   9.4375
     9.4390   9.4618   9.5650   9.5664   9.6234   9.6238   9.8549   9.8746
     9.8769   9.8795   9.9432   9.9550  10.0396  10.0480  10.0574  10.0613
    10.0948  10.1035  10.2350  10.2405  10.2681  10.3509  10.3692  10.3734
    10.3871  10.4833  10.6477  10.6741  10.7154  10.7200  10.7934  10.8333
    10.9372  10.9533  11.0465  11.0638  11.0738  11.0854  11.1983  11.2388
    11.2447  11.3306  11.3681  11.3886  11.4425  11.4445  11.5143  11.5430
    11.5448  11.6065  11.7043  11.7105  11.7271  11.7738  11.7912  11.8072
    11.9136  11.9526  11.9969  12.0028  12.0261  12.0370  12.0464  12.0556
    12.1860  12.1884  12.2163  12.2512  12.2715  12.2859  12.3108  12.3533
    12.3619  12.3718  12.5038  12.5332  13.0404  13.0435  13.1551  13.1751
    13.7238  13.7566  13.8636  13.9209  14.3237  14.3947  14.6791  14.6894
    14.8193  14.8680  14.9852  14.9908  15.8810  15.9499  15.9664  16.0574
    16.9507  16.9561  17.0127  17.0411  17.0621  17.0720  17.1458  17.2568
    17.2630  17.3426  17.7192  17.7339  17.8529  17.9451  18.0453  18.1246
    18.1519  18.1850  18.2287  18.2669  18.5881  18.6771  18.6982  18.8153
    18.8735  18.8857

          k = 0.3750-0.5000 0.0242 ( 13948 PWs)   bands (ev):

   -66.7833 -66.7833 -66.7355 -66.7355 -62.1974 -62.1108 -62.1108 -62.0421
   -35.5563 -35.5563 -35.5102 -35.5102 -35.5084 -35.5084 -35.5072 -35.5072
   -35.4637 -35.4637 -35.4620 -35.4620 -31.0293 -31.0269 -31.0221 -30.9456
   -30.9456 -30.9432 -30.9432 -30.9340 -30.9340 -30.8748 -30.8730 -30.8724
     8.1398   8.1512   8.1935   8.2078   8.4922   8.5323   8.5976   8.6986
     8.8374   8.9442   9.0830   9.1029   9.1233   9.1405   9.1777   9.1861
     9.2164   9.2223   9.2548   9.2596   9.2816   9.3565   9.3931   9.4422
     9.4485   9.4600   9.5314   9.5338   9.6642   9.6660   9.7994   9.8061
     9.9137   9.9189   9.9585   9.9607  10.0313  10.0470  10.0541  10.0610
    10.1136  10.1199  10.2286  10.2419  10.2508  10.2950  10.3486  10.3509
    10.4627  10.5351  10.6462  10.6746  10.7093  10.7185  10.7563  10.7913
    10.9624  10.9813  11.0602  11.0629  11.0852  11.0890  11.1789  11.1950
    11.2783  11.3402  11.3603  11.3792  11.4478  11.4558  11.5061  11.5124
    11.5691  11.6162  11.6951  11.7087  11.7318  11.7741  11.7911  11.8072
    11.9143  11.9536  11.9968  12.0023  12.0274  12.0379  12.0433  12.0534
    12.1883  12.1889  12.2092  12.2349  12.2816  12.2886  12.3264  12.3450
    12.3722  12.3892  12.4845  12.5212  13.0569  13.0592  13.1405  13.1608
    13.7301  13.7648  13.8554  13.9146  14.3284  14.4008  14.6619  14.6775
    14.8386  14.8889  14.9732  14.9839  15.8807  15.9513  15.9652  16.0576
    16.9607  16.9681  17.0120  17.0260  17.0623  17.0872  17.1088  17.1979
    17.3153  17.3957  17.6676  17.7160  17.8782  17.9779  18.0486  18.1155
    18.1347  18.1612  18.2382  18.2722  18.6345  18.6782  18.7175  18.8006
    18.8736  18.8764

          k = 0.3750-0.5000-0.0484 ( 13940 PWs)   bands (ev):

   -66.7833 -66.7833 -66.7355 -66.7355 -62.1974 -62.1108 -62.1108 -62.0421
   -35.5563 -35.5563 -35.5102 -35.5102 -35.5084 -35.5084 -35.5072 -35.5072
   -35.4637 -35.4637 -35.4620 -35.4620 -31.0293 -31.0269 -31.0221 -30.9456
   -30.9456 -30.9432 -30.9432 -30.9340 -30.9340 -30.8748 -30.8730 -30.8724
     8.1403   8.1522   8.1919   8.2066   8.4974   8.5566   8.5689   8.6812
     8.8609   8.9776   9.0444   9.0825   9.1214   9.1406   9.1760   9.1815
     9.2177   9.2252   9.2552   9.2723   9.2979   9.3693   9.3785   9.4497
     9.4559   9.4812   9.4922   9.5069   9.7289   9.7303   9.7323   9.7348
     9.9256   9.9259   9.9676   9.9795  10.0206  10.0457  10.0516  10.0608
    10.1462  10.1552  10.1805  10.2234  10.2534  10.2686  10.3360  10.3462
    10.5043  10.6032  10.6430  10.6598  10.6763  10.7309  10.7377  10.7474
    10.9763  11.0014  11.0622  11.0730  11.1074  11.1103  11.1477  11.1578
    11.2954  11.3509  11.3569  11.3630  11.4537  11.4771  11.4854  11.4978
    11.5791  11.6265  11.6862  11.7070  11.7351  11.7744  11.7910  11.8073
    11.9150  11.9547  11.9966  12.0017  12.0296  12.0392  12.0394  12.0508
    12.1881  12.1966  12.1980  12.2260  12.2845  12.2907  12.3423  12.3427
    12.3733  12.4320  12.4441  12.5077  13.0810  13.0839  13.1152  13.1403
    13.7366  13.7747  13.8455  13.9081  14.3332  14.4073  14.6466  14.6668
    14.8568  14.9180  14.9517  14.9756  15.8804  15.9531  15.9637  16.0578
    16.9758  16.9868  17.0090  17.0092  17.0651  17.0714  17.1047  17.1631
    17.3383  17.4585  17.6048  17.7015  17.9018  18.0081  18.0719  18.0799
    18.1058  18.1759  18.2056  18.2974  18.6794  18.7039  18.7506  18.7584
    18.8415  18.8745

          k =-0.5000-0.5000 0.0000 ( 13964 PWs)   bands (ev):

   -66.7833 -66.7833 -66.7355 -66.7355 -62.1972 -62.1107 -62.1107 -62.0420
   -35.5562 -35.5562 -35.5100 -35.5100 -35.5100 -35.5100 -35.5071 -35.5071
   -35.4636 -35.4636 -35.4636 -35.4636 -31.0291 -31.0291 -31.0220 -30.9454
   -30.9454 -30.9454 -30.9454 -30.9339 -30.9339 -30.8746 -30.8746 -30.8729
     8.0575   8.0645   8.1117   8.1222   8.4314   8.4621   8.5657   8.6835
     8.7195   8.8411   9.1352   9.1419   9.1815   9.1872   9.2399   9.2399
     9.2876   9.2876   9.3142   9.3142   9.4116   9.4156   9.4302   9.4302
     9.4470   9.4470   9.6843   9.6843   9.6895   9.6895   9.8459   9.8985
     9.8985   9.8989   9.8989   9.9193   9.9709   9.9988  10.0110  10.0110
    10.0425  10.0425  10.0597  10.0597  10.1024  10.1024  10.4985  10.4985
    10.5542  10.5849  10.6321  10.6321  10.6678  10.6837  11.0970  11.1099
    11.1188  11.1270  11.1752  11.1752  11.1950  11.1950  11.3565  11.4036
    11.4130  11.4143  11.4361  11.4362  11.4738  11.4738  11.6054  11.6054
    11.9448  11.9449  11.9570  11.9615  11.9616  11.9930  11.9930  12.0346
    12.0404  12.0405  12.0494  12.0542  12.0543  12.0909  12.0910  12.1268
    12.1572  12.1572  12.1941  12.1953  12.2102  12.2594  12.2699  12.3226
    12.3367  12.3571  12.4162  12.4162  13.3619  13.4045  13.4202  13.4388
    13.8466  13.8466  14.0702  14.0702  14.3359  14.3359  14.7399  14.7399
    15.1918  15.1918  15.2491  15.2491  16.5350  16.5350  16.6032  16.6705
    16.6977  16.7377  16.7615  16.7615  16.8908  16.9331  17.0063  17.0551
    17.3379  17.3379  17.7550  17.7643  17.8586  17.8637  18.0371  18.0673
    18.0758  18.0758  18.1459  18.1459  18.1862  18.2022  18.2022  18.2209
    18.2973  18.4973

          k =-0.5000-0.5000 0.0242 ( 13960 PWs)   bands (ev):

   -66.7833 -66.7833 -66.7355 -66.7355 -62.1972 -62.1107 -62.1107 -62.0420
   -35.5562 -35.5562 -35.5100 -35.5100 -35.5100 -35.5100 -35.5071 -35.5071
   -35.4636 -35.4636 -35.4636 -35.4636 -31.0291 -31.0291 -31.0220 -30.9454
   -30.9454 -30.9454 -30.9454 -30.9339 -30.9339 -30.8746 -30.8746 -30.8729
     8.0580   8.0653   8.1104   8.1211   8.4370   8.4745   8.5461   8.6420
     8.7681   8.8676   9.0642   9.0815   9.2405   9.2405   9.2540   9.2546
     9.2814   9.2814   9.3272   9.3272   9.3910   9.3935   9.3954   9.3954
     9.4898   9.4898   9.6135   9.6135   9.7679   9.7679   9.8496   9.8985
     9.8985   9.8989   9.8989   9.9277   9.9485   9.9485   9.9641   9.9971
    10.0431  10.0431  10.0482  10.0482  10.1821  10.1821  10.4198  10.4198
    10.5542  10.5849  10.6678  10.6837  10.7103  10.7103  11.0475  11.0475
    11.0972  11.1105  11.1181  11.1268  11.3270  11.3270  11.3566  11.4047
    11.4120  11.4142  11.4361  11.4362  11.4738  11.4738  11.5638  11.5638
    11.9448  11.9449  11.9570  11.9615  11.9616  11.9930  11.9930  12.0346
    12.0404  12.0405  12.0494  12.0542  12.0543  12.0909  12.0910  12.1268
    12.1763  12.1763  12.1959  12.1961  12.2079  12.2552  12.2737  12.3244
    12.3353  12.3569  12.4048  12.4048  13.3619  13.4045  13.4202  13.4388
    13.8638  13.8638  14.0396  14.0396  14.3551  14.3551  14.7340  14.7340
    15.1941  15.1941  15.2477  15.2477  16.5399  16.5399  16.6032  16.6705
    16.6977  16.7377  16.7485  16.7485  16.8910  16.9333  17.0060  17.0547
    17.3723  17.3723  17.7670  17.7759  17.8425  17.8442  17.9214  17.9214
    18.0456  18.0673  18.1459  18.1459  18.1982  18.2209  18.2901  18.4012
    18.4012  18.4964

          k =-0.5000-0.5000-0.0484 ( 13992 PWs)   bands (ev):

   -66.7833 -66.7833 -66.7355 -66.7355 -62.1972 -62.1107 -62.1107 -62.0420
   -35.5562 -35.5562 -35.5100 -35.5100 -35.5100 -35.5100 -35.5071 -35.5071
   -35.4636 -35.4636 -35.4636 -35.4636 -31.0291 -31.0291 -31.0220 -30.9454
   -30.9454 -30.9454 -30.9454 -30.9339 -30.9339 -30.8746 -30.8746 -30.8729
     8.0586   8.0662   8.1090   8.1199   8.4433   8.5065   8.5077   8.6185
     8.8004   8.9042   9.0106   9.0442   9.2412   9.2412   9.2771   9.2771
     9.3203   9.3344   9.3351   9.3454   9.3454   9.3464   9.3694   9.3694
     9.5432   9.5432   9.5522   9.5522   9.8508   9.8508   9.8533   9.8611
     9.8611   9.8986   9.8986   9.8989   9.8989   9.9456   9.9478   9.9954
    10.0434  10.0434  10.0468  10.0468  10.2735  10.2735  10.3245  10.3245
    10.5543  10.5850  10.6678  10.6837  10.7848  10.7848  10.9648  10.9648
    11.0973  11.1112  11.1173  11.1267  11.3568  11.4062  11.4104  11.4140
    11.4361  11.4362  11.4464  11.4464  11.4732  11.4732  11.4738  11.4738
    11.9448  11.9449  11.9570  11.9615  11.9616  11.9930  11.9930  12.0346
    12.0404  12.0405  12.0494  12.0542  12.0543  12.0909  12.0910  12.1268
    12.1965  12.1965  12.1965  12.1994  12.2041  12.2522  12.2763  12.3268
    12.3332  12.3567  12.3917  12.3917  13.3619  13.4045  13.4202  13.4388
    13.8875  13.8875  14.0046  14.0046  14.3726  14.3726  14.7278  14.7278
    15.1966  15.1966  15.2462  15.2462  16.5453  16.5453  16.6032  16.6705
    16.6977  16.7355  16.7355  16.7377  16.8912  16.9335  17.0057  17.0544
    17.4131  17.4131  17.7903  17.8005  17.8135  17.8144  17.8285  17.8285
    18.0532  18.0673  18.1459  18.1459  18.2122  18.2209  18.2806  18.4955
    18.6212  18.6212

     the Fermi energy is    15.2680 ev

!    total energy              =  -14694.00726083 Ry
     Harris-Foulkes estimate   =  -14694.00725184 Ry
     estimated scf accuracy    <       0.00000082 Ry

     total all-electron energy =   -626921.602983 Ry

     The total energy is the sum of the following terms:

     one-electron contribution =    -714.51352106 Ry
     hartree contribution      =     656.56006670 Ry
     xc contribution           =    -737.87634627 Ry
     ewald contribution        =   -2196.78933708 Ry
     Hubbard energy            =       0.45123011 Ry
     one-center paw contrib.   =  -11701.83935323 Ry

     total magnetization       =    -0.25 Bohr mag/cell
     absolute magnetization    =    37.25 Bohr mag/cell

     convergence has been achieved in  22 iterations

     Writing output data file mnau2.save/
 
     init_run     :     67.86s CPU     72.06s WALL (       1 calls)
     electrons    :   3542.50s CPU   3631.31s WALL (       1 calls)

     Called by init_run:
     wfcinit      :     64.04s CPU     68.00s WALL (       1 calls)
     potinit      :      1.72s CPU      1.82s WALL (       1 calls)
     hinit0       :      1.25s CPU      1.33s WALL (       1 calls)

     Called by electrons:
     c_bands      :   3195.01s CPU   3270.69s WALL (      22 calls)
     sum_band     :    312.47s CPU    324.30s WALL (      22 calls)
     v_of_rho     :      2.43s CPU      2.45s WALL (      23 calls)
     newd         :      8.67s CPU      8.91s WALL (      23 calls)
     PAW_pot      :     24.58s CPU     24.80s WALL (      23 calls)
     mix_rho      :      0.53s CPU      0.56s WALL (      22 calls)

     Called by c_bands:
     init_us_2    :     13.38s CPU     13.46s WALL (    4140 calls)
     cegterg      :   3107.70s CPU   3181.15s WALL (    1980 calls)

     Called by sum_band:
     sum_band:bec :      4.26s CPU      4.29s WALL (    1980 calls)
     addusdens    :     16.54s CPU     16.69s WALL (      22 calls)

     Called by *egterg:
     h_psi        :   1130.48s CPU   1166.17s WALL (    8010 calls)
     s_psi        :    206.34s CPU    207.10s WALL (    8100 calls)
     g_psi        :      2.18s CPU      2.20s WALL (    5940 calls)
     cdiaghg      :   1160.75s CPU   1195.85s WALL (    7920 calls)

     Called by h_psi:
     h_psi:pot    :   1007.88s CPU   1042.50s WALL (    8010 calls)
     h_psi:calbec :    267.67s CPU    282.40s WALL (    8010 calls)
     vloc_psi     :    534.69s CPU    553.90s WALL (    8010 calls)
     add_vuspsi   :    205.36s CPU    206.07s WALL (    8010 calls)
     vhpsi        :    119.17s CPU    120.19s WALL (    8010 calls)

     General routines
     calbec       :    488.27s CPU    511.16s WALL (   20070 calls)
     fft          :      1.72s CPU      1.73s WALL (     571 calls)
     ffts         :      0.07s CPU      0.07s WALL (      90 calls)
     fftw         :    617.18s CPU    639.08s WALL ( 1914996 calls)
     interpolate  :      0.17s CPU      0.17s WALL (      46 calls)
     davcio       :      0.01s CPU      3.62s WALL (      90 calls)
 
     Parallel routines
     fft_scatt_xy :     42.64s CPU     43.90s WALL ( 1915657 calls)
     fft_scatt_yz :    369.93s CPU    383.68s WALL ( 1915657 calls)

     Hubbard U routines
     new_ns       :     17.55s CPU     18.43s WALL (      22 calls)
     vhpsi        :    119.17s CPU    120.19s WALL (    8010 calls)
 
     PWSCF        :     1h 0m CPU        0h 1m WALL

       3h
 
   This run was terminated on:  17:28:37   8Apr2019            

=------------------------------------------------------------------------------=
   JOB DONE.
=------------------------------------------------------------------------------=
