
     Program PWSCF v.6.3MaX starts on  8Apr2019 at 17:28:40 

     This program is part of the open-source Quantum ESPRESSO suite
     for quantum simulation of materials; please cite
         "P. Giannozzi et al., J. Phys.:Condens. Matter 21 395502 (2009);
         "P. Giannozzi et al., J. Phys.:Condens. Matter 29 465901 (2017);
          URL http://www.quantum-espresso.org", 
     in publications or presentations arising from this work. More details at
     http://www.quantum-espresso.org/quote

     Parallel version (MPI), running on    32 processors

     MPI processes distributed on     1 nodes
     R & G space division:  proc/nbgrp/npool/nimage =      32
     Waiting for input...
     Reading input from standard input

     Current dimensions of program PWSCF are:
     Max number of different atomic species (ntypx) = 10
     Max number of k-points (npk) =  40000
     Max angular momentum in pseudopotentials (lmaxx) =  3
               file Mn.pbe-spn-kjpaw_psl.0.3.1.UPF: wavefunction(s)  3P 3D renormalized
               file Mn.pbe-spn-kjpaw_psl.0.3.1.UPF: wavefunction(s)  3P 3D renormalized
               file Au.pbe-dn-kjpaw_psl.0.1.UPF: wavefunction(s)  6S 6P 5D renormalized

     Subspace diagonalization in iterative solution of the eigenvalue problem:
     one sub-group per band group will be used
     scalapack distributed-memory algorithm (size of sub-group:  4*  4 procs)

 
     Parallelization info
     --------------------
     sticks:   dense  smooth     PW     G-vecs:    dense   smooth      PW
     Min          41      18      5                11487     3460     563
     Max          42      19      6                11527     3505     606
     Sum        1313     593    177               368373   111379   18691
 


     bravais-lattice index     =            0
     lattice parameter (alat)  =       6.4153  a.u.
     unit-cell volume          =    2724.7774 (a.u.)^3
     number of atoms/cell      =           24
     number of atomic types    =            3
     number of electrons       =       296.00
     number of Kohn-Sham states=          178
     kinetic-energy cutoff     =      45.0000  Ry
     charge density cutoff     =     400.0000  Ry
     convergence threshold     =      1.0E-06
     mixing beta               =       0.1000
     number of iterations used =            8  plain     mixing
     Exchange-correlation      = SLA PW PBX PBC ( 1  4  3  4 0 0)

     celldm(1)=   6.415315  celldm(2)=   0.000000  celldm(3)=   0.000000
     celldm(4)=   0.000000  celldm(5)=   0.000000  celldm(6)=   0.000000

     crystal axes: (cart. coord. in units of alat)
               a(1) = (   1.000000   0.000000   0.000000 )  
               a(2) = (   0.000000   1.000000   0.000000 )  
               a(3) = (   0.000000   0.000000  10.319937 )  

     reciprocal axes: (cart. coord. in units 2 pi/alat)
               b(1) = (  1.000000  0.000000  0.000000 )  
               b(2) = (  0.000000  1.000000  0.000000 )  
               b(3) = (  0.000000  0.000000  0.096900 )  


     PseudoPot. # 1 for Mn read from file:
     ./pseudo/Mn.pbe-spn-kjpaw_psl.0.3.1.UPF
     MD5 check sum: 7b43a3fb0e93e198b8dd8488d8cf503e
     Pseudo is Projector augmented-wave + core cor, Zval = 15.0
     Generated using "atomic" code by A. Dal Corso v.5.0.99 svn rev. 10869
     Shape of augmentation charge: PSQ
     Using radial grid of 1187 points,  6 beta functions with: 
                l(1) =   0
                l(2) =   0
                l(3) =   1
                l(4) =   1
                l(5) =   2
                l(6) =   2
     Q(r) pseudized with 0 coefficients 


     PseudoPot. # 2 for Mn read from file:
     ./pseudo/Mn.pbe-spn-kjpaw_psl.0.3.1.UPF
     MD5 check sum: 7b43a3fb0e93e198b8dd8488d8cf503e
     Pseudo is Projector augmented-wave + core cor, Zval = 15.0
     Generated using "atomic" code by A. Dal Corso v.5.0.99 svn rev. 10869
     Shape of augmentation charge: PSQ
     Using radial grid of 1187 points,  6 beta functions with: 
                l(1) =   0
                l(2) =   0
                l(3) =   1
                l(4) =   1
                l(5) =   2
                l(6) =   2
     Q(r) pseudized with 0 coefficients 


     PseudoPot. # 3 for Au read from file:
     ./pseudo/Au.pbe-dn-kjpaw_psl.0.1.UPF
     MD5 check sum: be11e2e8e535ebe2b3ccfb4f88f554cb
     Pseudo is Projector augmented-wave + core cor, Zval = 11.0
     Generated using "atomic" code by A. Dal Corso v.5.0.2 svn rev. 9415
     Shape of augmentation charge: PSQ
     Using radial grid of 1279 points,  6 beta functions with: 
                l(1) =   0
                l(2) =   0
                l(3) =   1
                l(4) =   1
                l(5) =   2
                l(6) =   2
     Q(r) pseudized with 0 coefficients 


     atomic species   valence    mass     pseudopotential
        Mn1           15.00    54.93800     Mn( 1.00)
        Mn2           15.00    54.93800     Mn( 1.00)
        Au            11.00   196.96600     Au( 1.00)

     Starting magnetic structure 
     atomic species   magnetization
        Mn1          0.800
        Mn2         -0.800
        Au           0.000


     Full LDA+U calculation (l_max = 2) with parameters (eV):
     U(  1) =   3.1200   J(  1) =   0.7000   B(  1) =   0.0803
     U(  2) =   3.1200   J(  2) =   0.7000   B(  2) =   0.0803



     16 Sym. Ops., with inversion, found ( 8 have fractional translation)



   Cartesian axes

     site n.     atom                  positions (alat units)
         1           Mn1 tau(   1) = (   0.0000000   0.0000000   0.0000000  )
         2           Mn1 tau(   2) = (   0.5000000   0.5000000   1.2899921  )
         3           Mn2 tau(   3) = (   0.0000000   0.0000000   2.5799843  )
         4           Mn1 tau(   4) = (   0.5000000   0.5000000   3.8699764  )
         5           Mn1 tau(   5) = (   0.0000000   0.0000000   5.1599686  )
         6           Mn2 tau(   6) = (   0.5000000   0.5000000   6.4499607  )
         7           Mn1 tau(   7) = (   0.0000000   0.0000000   7.7399528  )
         8           Mn2 tau(   8) = (   0.5000000   0.5000000   9.0299450  )
         9           Au  tau(   9) = (   0.5000000   0.5000000   0.4127975  )
        10           Au  tau(  10) = (   0.0000000   0.0000000   0.8771947  )
        11           Au  tau(  11) = (   0.0000000   0.0000000   1.7027896  )
        12           Au  tau(  12) = (   0.5000000   0.5000000   2.1671868  )
        13           Au  tau(  13) = (   0.5000000   0.5000000   2.9927818  )
        14           Au  tau(  14) = (   0.0000000   0.0000000   3.4571789  )
        15           Au  tau(  15) = (   0.0000000   0.0000000   4.2827739  )
        16           Au  tau(  16) = (   0.5000000   0.5000000   4.7471711  )
        17           Au  tau(  17) = (   0.5000000   0.5000000   5.5727660  )
        18           Au  tau(  18) = (   0.0000000   0.0000000   6.0371632  )
        19           Au  tau(  19) = (   0.0000000   0.0000000   6.8627582  )
        20           Au  tau(  20) = (   0.5000000   0.5000000   7.3271553  )
        21           Au  tau(  21) = (   0.5000000   0.5000000   8.1527503  )
        22           Au  tau(  22) = (   0.0000000   0.0000000   8.6171475  )
        23           Au  tau(  23) = (   0.0000000   0.0000000   9.4427424  )
        24           Au  tau(  24) = (   0.5000000   0.5000000   9.9071396  )

     number of k points=    45 (tetrahedron method)
                       cart. coord. in units 2pi/alat
        k(    1) = (   0.0000000   0.0000000   0.0000000), wk =   0.0039062
        k(    2) = (   0.0000000   0.0000000   0.0242250), wk =   0.0078125
        k(    3) = (   0.0000000   0.0000000  -0.0484499), wk =   0.0039062
        k(    4) = (   0.0000000   0.1250000   0.0000000), wk =   0.0156250
        k(    5) = (   0.0000000   0.1250000   0.0242250), wk =   0.0312500
        k(    6) = (   0.0000000   0.1250000  -0.0484499), wk =   0.0156250
        k(    7) = (   0.0000000   0.2500000   0.0000000), wk =   0.0156250
        k(    8) = (   0.0000000   0.2500000   0.0242250), wk =   0.0312500
        k(    9) = (   0.0000000   0.2500000  -0.0484499), wk =   0.0156250
        k(   10) = (   0.0000000   0.3750000   0.0000000), wk =   0.0156250
        k(   11) = (   0.0000000   0.3750000   0.0242250), wk =   0.0312500
        k(   12) = (   0.0000000   0.3750000  -0.0484499), wk =   0.0156250
        k(   13) = (   0.0000000  -0.5000000   0.0000000), wk =   0.0078125
        k(   14) = (   0.0000000  -0.5000000   0.0242250), wk =   0.0156250
        k(   15) = (   0.0000000  -0.5000000  -0.0484499), wk =   0.0078125
        k(   16) = (   0.1250000   0.1250000   0.0000000), wk =   0.0156250
        k(   17) = (   0.1250000   0.1250000   0.0242250), wk =   0.0312500
        k(   18) = (   0.1250000   0.1250000  -0.0484499), wk =   0.0156250
        k(   19) = (   0.1250000   0.2500000   0.0000000), wk =   0.0312500
        k(   20) = (   0.1250000   0.2500000   0.0242250), wk =   0.0625000
        k(   21) = (   0.1250000   0.2500000  -0.0484499), wk =   0.0312500
        k(   22) = (   0.1250000   0.3750000   0.0000000), wk =   0.0312500
        k(   23) = (   0.1250000   0.3750000   0.0242250), wk =   0.0625000
        k(   24) = (   0.1250000   0.3750000  -0.0484499), wk =   0.0312500
        k(   25) = (   0.1250000  -0.5000000   0.0000000), wk =   0.0156250
        k(   26) = (   0.1250000  -0.5000000   0.0242250), wk =   0.0312500
        k(   27) = (   0.1250000  -0.5000000  -0.0484499), wk =   0.0156250
        k(   28) = (   0.2500000   0.2500000   0.0000000), wk =   0.0156250
        k(   29) = (   0.2500000   0.2500000   0.0242250), wk =   0.0312500
        k(   30) = (   0.2500000   0.2500000  -0.0484499), wk =   0.0156250
        k(   31) = (   0.2500000   0.3750000   0.0000000), wk =   0.0312500
        k(   32) = (   0.2500000   0.3750000   0.0242250), wk =   0.0625000
        k(   33) = (   0.2500000   0.3750000  -0.0484499), wk =   0.0312500
        k(   34) = (   0.2500000  -0.5000000   0.0000000), wk =   0.0156250
        k(   35) = (   0.2500000  -0.5000000   0.0242250), wk =   0.0312500
        k(   36) = (   0.2500000  -0.5000000  -0.0484499), wk =   0.0156250
        k(   37) = (   0.3750000   0.3750000   0.0000000), wk =   0.0156250
        k(   38) = (   0.3750000   0.3750000   0.0242250), wk =   0.0312500
        k(   39) = (   0.3750000   0.3750000  -0.0484499), wk =   0.0156250
        k(   40) = (   0.3750000  -0.5000000   0.0000000), wk =   0.0156250
        k(   41) = (   0.3750000  -0.5000000   0.0242250), wk =   0.0312500
        k(   42) = (   0.3750000  -0.5000000  -0.0484499), wk =   0.0156250
        k(   43) = (  -0.5000000  -0.5000000   0.0000000), wk =   0.0039062
        k(   44) = (  -0.5000000  -0.5000000   0.0242250), wk =   0.0078125
        k(   45) = (  -0.5000000  -0.5000000  -0.0484499), wk =   0.0039062

     Dense  grid:   368373 G-vectors     FFT dimensions: (  45,  45, 432)

     Smooth grid:   111379 G-vectors     FFT dimensions: (  27,  27, 288)

     Estimated max dynamical RAM per process >     186.81 MB

     Estimated total dynamical RAM >       5.84 GB
     Generating pointlists ...
     new r_m :   0.3377 (alat units)  2.1668 (a.u.) for type    1
     new r_m :   0.3377 (alat units)  2.1668 (a.u.) for type    2
     new r_m :   0.3377 (alat units)  2.1668 (a.u.) for type    3

     Check: negative/imaginary core charge=   -0.000006    0.000000

     Initial potential from superposition of free atoms

     starting charge  295.99426, renormalised to  296.00000
     Number of +U iterations with fixed ns =  0
     Starting occupations:
 --- enter write_ns ---
 LDA+U parameters:
U(  1) =   3.1200   J(  1) =   0.7000   B(  1) =   0.0803
U(  2) =   3.1200   J(  2) =   0.7000   B(  2) =   0.0803
atom    1   Tr[ns(na)] (up, down, total) =   5.00000  0.00000  5.00000
   spin  1
    eigenvalues: 
  1.000  1.000  1.000  1.000  1.000
    eigenvectors:
  1.000  0.000  0.000  0.000  0.000
  0.000  1.000  0.000  0.000  0.000
  0.000  0.000  1.000  0.000  0.000
  0.000  0.000  0.000  1.000  0.000
  0.000  0.000  0.000  0.000  1.000
    occupations:
  1.000  0.000  0.000  0.000  0.000
  0.000  1.000  0.000  0.000  0.000
  0.000  0.000  1.000  0.000  0.000
  0.000  0.000  0.000  1.000  0.000
  0.000  0.000  0.000  0.000  1.000
   spin  2
    eigenvalues: 
  0.000  0.000  0.000  0.000  0.000
    eigenvectors:
  1.000  0.000  0.000  0.000  0.000
  0.000  1.000  0.000  0.000  0.000
  0.000  0.000  1.000  0.000  0.000
  0.000  0.000  0.000  1.000  0.000
  0.000  0.000  0.000  0.000  1.000
    occupations:
  0.000  0.000  0.000  0.000  0.000
  0.000  0.000  0.000  0.000  0.000
  0.000  0.000  0.000  0.000  0.000
  0.000  0.000  0.000  0.000  0.000
  0.000  0.000  0.000  0.000  0.000
atomic mag. moment =     5.000000
atom    2   Tr[ns(na)] (up, down, total) =   5.00000  0.00000  5.00000
   spin  1
    eigenvalues: 
  1.000  1.000  1.000  1.000  1.000
    eigenvectors:
  1.000  0.000  0.000  0.000  0.000
  0.000  1.000  0.000  0.000  0.000
  0.000  0.000  1.000  0.000  0.000
  0.000  0.000  0.000  1.000  0.000
  0.000  0.000  0.000  0.000  1.000
    occupations:
  1.000  0.000  0.000  0.000  0.000
  0.000  1.000  0.000  0.000  0.000
  0.000  0.000  1.000  0.000  0.000
  0.000  0.000  0.000  1.000  0.000
  0.000  0.000  0.000  0.000  1.000
   spin  2
    eigenvalues: 
  0.000  0.000  0.000  0.000  0.000
    eigenvectors:
  1.000  0.000  0.000  0.000  0.000
  0.000  1.000  0.000  0.000  0.000
  0.000  0.000  1.000  0.000  0.000
  0.000  0.000  0.000  1.000  0.000
  0.000  0.000  0.000  0.000  1.000
    occupations:
  0.000  0.000  0.000  0.000  0.000
  0.000  0.000  0.000  0.000  0.000
  0.000  0.000  0.000  0.000  0.000
  0.000  0.000  0.000  0.000  0.000
  0.000  0.000  0.000  0.000  0.000
atomic mag. moment =     5.000000
atom    3   Tr[ns(na)] (up, down, total) =   0.00000  5.00000  5.00000
   spin  1
    eigenvalues: 
  0.000  0.000  0.000  0.000  0.000
    eigenvectors:
  1.000  0.000  0.000  0.000  0.000
  0.000  1.000  0.000  0.000  0.000
  0.000  0.000  1.000  0.000  0.000
  0.000  0.000  0.000  1.000  0.000
  0.000  0.000  0.000  0.000  1.000
    occupations:
  0.000  0.000  0.000  0.000  0.000
  0.000  0.000  0.000  0.000  0.000
  0.000  0.000  0.000  0.000  0.000
  0.000  0.000  0.000  0.000  0.000
  0.000  0.000  0.000  0.000  0.000
   spin  2
    eigenvalues: 
  1.000  1.000  1.000  1.000  1.000
    eigenvectors:
  1.000  0.000  0.000  0.000  0.000
  0.000  1.000  0.000  0.000  0.000
  0.000  0.000  1.000  0.000  0.000
  0.000  0.000  0.000  1.000  0.000
  0.000  0.000  0.000  0.000  1.000
    occupations:
  1.000  0.000  0.000  0.000  0.000
  0.000  1.000  0.000  0.000  0.000
  0.000  0.000  1.000  0.000  0.000
  0.000  0.000  0.000  1.000  0.000
  0.000  0.000  0.000  0.000  1.000
atomic mag. moment =    -5.000000
atom    4   Tr[ns(na)] (up, down, total) =   5.00000  0.00000  5.00000
   spin  1
    eigenvalues: 
  1.000  1.000  1.000  1.000  1.000
    eigenvectors:
  1.000  0.000  0.000  0.000  0.000
  0.000  1.000  0.000  0.000  0.000
  0.000  0.000  1.000  0.000  0.000
  0.000  0.000  0.000  1.000  0.000
  0.000  0.000  0.000  0.000  1.000
    occupations:
  1.000  0.000  0.000  0.000  0.000
  0.000  1.000  0.000  0.000  0.000
  0.000  0.000  1.000  0.000  0.000
  0.000  0.000  0.000  1.000  0.000
  0.000  0.000  0.000  0.000  1.000
   spin  2
    eigenvalues: 
  0.000  0.000  0.000  0.000  0.000
    eigenvectors:
  1.000  0.000  0.000  0.000  0.000
  0.000  1.000  0.000  0.000  0.000
  0.000  0.000  1.000  0.000  0.000
  0.000  0.000  0.000  1.000  0.000
  0.000  0.000  0.000  0.000  1.000
    occupations:
  0.000  0.000  0.000  0.000  0.000
  0.000  0.000  0.000  0.000  0.000
  0.000  0.000  0.000  0.000  0.000
  0.000  0.000  0.000  0.000  0.000
  0.000  0.000  0.000  0.000  0.000
atomic mag. moment =     5.000000
atom    5   Tr[ns(na)] (up, down, total) =   5.00000  0.00000  5.00000
   spin  1
    eigenvalues: 
  1.000  1.000  1.000  1.000  1.000
    eigenvectors:
  1.000  0.000  0.000  0.000  0.000
  0.000  1.000  0.000  0.000  0.000
  0.000  0.000  1.000  0.000  0.000
  0.000  0.000  0.000  1.000  0.000
  0.000  0.000  0.000  0.000  1.000
    occupations:
  1.000  0.000  0.000  0.000  0.000
  0.000  1.000  0.000  0.000  0.000
  0.000  0.000  1.000  0.000  0.000
  0.000  0.000  0.000  1.000  0.000
  0.000  0.000  0.000  0.000  1.000
   spin  2
    eigenvalues: 
  0.000  0.000  0.000  0.000  0.000
    eigenvectors:
  1.000  0.000  0.000  0.000  0.000
  0.000  1.000  0.000  0.000  0.000
  0.000  0.000  1.000  0.000  0.000
  0.000  0.000  0.000  1.000  0.000
  0.000  0.000  0.000  0.000  1.000
    occupations:
  0.000  0.000  0.000  0.000  0.000
  0.000  0.000  0.000  0.000  0.000
  0.000  0.000  0.000  0.000  0.000
  0.000  0.000  0.000  0.000  0.000
  0.000  0.000  0.000  0.000  0.000
atomic mag. moment =     5.000000
atom    6   Tr[ns(na)] (up, down, total) =   0.00000  5.00000  5.00000
   spin  1
    eigenvalues: 
  0.000  0.000  0.000  0.000  0.000
    eigenvectors:
  1.000  0.000  0.000  0.000  0.000
  0.000  1.000  0.000  0.000  0.000
  0.000  0.000  1.000  0.000  0.000
  0.000  0.000  0.000  1.000  0.000
  0.000  0.000  0.000  0.000  1.000
    occupations:
  0.000  0.000  0.000  0.000  0.000
  0.000  0.000  0.000  0.000  0.000
  0.000  0.000  0.000  0.000  0.000
  0.000  0.000  0.000  0.000  0.000
  0.000  0.000  0.000  0.000  0.000
   spin  2
    eigenvalues: 
  1.000  1.000  1.000  1.000  1.000
    eigenvectors:
  1.000  0.000  0.000  0.000  0.000
  0.000  1.000  0.000  0.000  0.000
  0.000  0.000  1.000  0.000  0.000
  0.000  0.000  0.000  1.000  0.000
  0.000  0.000  0.000  0.000  1.000
    occupations:
  1.000  0.000  0.000  0.000  0.000
  0.000  1.000  0.000  0.000  0.000
  0.000  0.000  1.000  0.000  0.000
  0.000  0.000  0.000  1.000  0.000
  0.000  0.000  0.000  0.000  1.000
atomic mag. moment =    -5.000000
atom    7   Tr[ns(na)] (up, down, total) =   5.00000  0.00000  5.00000
   spin  1
    eigenvalues: 
  1.000  1.000  1.000  1.000  1.000
    eigenvectors:
  1.000  0.000  0.000  0.000  0.000
  0.000  1.000  0.000  0.000  0.000
  0.000  0.000  1.000  0.000  0.000
  0.000  0.000  0.000  1.000  0.000
  0.000  0.000  0.000  0.000  1.000
    occupations:
  1.000  0.000  0.000  0.000  0.000
  0.000  1.000  0.000  0.000  0.000
  0.000  0.000  1.000  0.000  0.000
  0.000  0.000  0.000  1.000  0.000
  0.000  0.000  0.000  0.000  1.000
   spin  2
    eigenvalues: 
  0.000  0.000  0.000  0.000  0.000
    eigenvectors:
  1.000  0.000  0.000  0.000  0.000
  0.000  1.000  0.000  0.000  0.000
  0.000  0.000  1.000  0.000  0.000
  0.000  0.000  0.000  1.000  0.000
  0.000  0.000  0.000  0.000  1.000
    occupations:
  0.000  0.000  0.000  0.000  0.000
  0.000  0.000  0.000  0.000  0.000
  0.000  0.000  0.000  0.000  0.000
  0.000  0.000  0.000  0.000  0.000
  0.000  0.000  0.000  0.000  0.000
atomic mag. moment =     5.000000
atom    8   Tr[ns(na)] (up, down, total) =   0.00000  5.00000  5.00000
   spin  1
    eigenvalues: 
  0.000  0.000  0.000  0.000  0.000
    eigenvectors:
  1.000  0.000  0.000  0.000  0.000
  0.000  1.000  0.000  0.000  0.000
  0.000  0.000  1.000  0.000  0.000
  0.000  0.000  0.000  1.000  0.000
  0.000  0.000  0.000  0.000  1.000
    occupations:
  0.000  0.000  0.000  0.000  0.000
  0.000  0.000  0.000  0.000  0.000
  0.000  0.000  0.000  0.000  0.000
  0.000  0.000  0.000  0.000  0.000
  0.000  0.000  0.000  0.000  0.000
   spin  2
    eigenvalues: 
  1.000  1.000  1.000  1.000  1.000
    eigenvectors:
  1.000  0.000  0.000  0.000  0.000
  0.000  1.000  0.000  0.000  0.000
  0.000  0.000  1.000  0.000  0.000
  0.000  0.000  0.000  1.000  0.000
  0.000  0.000  0.000  0.000  1.000
    occupations:
  1.000  0.000  0.000  0.000  0.000
  0.000  1.000  0.000  0.000  0.000
  0.000  0.000  1.000  0.000  0.000
  0.000  0.000  0.000  1.000  0.000
  0.000  0.000  0.000  0.000  1.000
atomic mag. moment =    -5.000000
N of occupied +U levels =   40.000000
 --- exit write_ns ---
 Atomic wfc used for LDA+U Projector are NOT orthogonalized
     Starting wfcs are  224 randomized atomic wfcs
     Checking if some PAW data can be deallocated... 

     total cpu time spent up to now is       79.4 secs

     Self-consistent Calculation

     iteration #  1     ecut=    45.00 Ry     beta= 0.10
     Davidson diagonalization with overlap
     ethr =  1.00E-02,  avg # of iterations =  4.0
 --- enter write_ns ---
 LDA+U parameters:
U(  1) =   3.1200   J(  1) =   0.7000   B(  1) =   0.0803
U(  2) =   3.1200   J(  2) =   0.7000   B(  2) =   0.0803
atom    1   Tr[ns(na)] (up, down, total) =   5.01740  0.41078  5.42818
   spin  1
    eigenvalues: 
  1.003  1.003  1.003  1.004  1.004
    eigenvectors:
  0.000  0.000  0.000  1.000  0.000
  0.000  0.268  0.732  0.000  0.000
  0.000  0.732  0.268  0.000  0.000
  0.000  0.000  0.000  0.000  1.000
  1.000  0.000  0.000  0.000  0.000
    occupations:
  1.004 -0.000 -0.000  0.000  0.000
 -0.000  1.003 -0.000  0.000  0.000
 -0.000 -0.000  1.003  0.000  0.000
  0.000  0.000  0.000  1.004 -0.000
  0.000  0.000  0.000 -0.000  1.003
   spin  2
    eigenvalues: 
  0.053  0.073  0.082  0.082  0.121
    eigenvectors:
  0.000  1.000  0.000  0.000  0.000
  0.000  0.000  0.341  0.659  0.000
  0.000  0.000  0.659  0.341  0.000
  1.000  0.000  0.000  0.000  0.000
  0.000  0.000  0.000  0.000  1.000
    occupations:
  0.073 -0.000 -0.000  0.000  0.000
 -0.000  0.082 -0.000  0.000  0.000
 -0.000 -0.000  0.082  0.000  0.000
  0.000  0.000  0.000  0.053 -0.000
  0.000  0.000  0.000 -0.000  0.121
atomic mag. moment =     4.606622
atom    2   Tr[ns(na)] (up, down, total) =   5.01736  0.41038  5.42774
   spin  1
    eigenvalues: 
  1.003  1.003  1.003  1.004  1.004
    eigenvectors:
  0.000  0.000  0.000  1.000  0.000
  0.000  0.296  0.704  0.000  0.000
  0.000  0.704  0.296  0.000  0.000
  0.000  0.000  0.000  0.000  1.000
  1.000  0.000  0.000  0.000  0.000
    occupations:
  1.004 -0.000 -0.000  0.000  0.000
 -0.000  1.003 -0.000  0.000  0.000
 -0.000 -0.000  1.003  0.000  0.000
  0.000  0.000  0.000  1.004 -0.000
  0.000  0.000  0.000 -0.000  1.003
   spin  2
    eigenvalues: 
  0.053  0.073  0.082  0.082  0.121
    eigenvectors:
  0.000  1.000  0.000  0.000  0.000
  0.000  0.000  0.344  0.656  0.000
  0.000  0.000  0.656  0.344  0.000
  1.000  0.000  0.000  0.000  0.000
  0.000  0.000  0.000  0.000  1.000
    occupations:
  0.073 -0.000 -0.000  0.000  0.000
 -0.000  0.082 -0.000  0.000  0.000
 -0.000 -0.000  0.082  0.000  0.000
  0.000  0.000  0.000  0.053 -0.000
  0.000  0.000  0.000 -0.000  0.121
atomic mag. moment =     4.606986
atom    3   Tr[ns(na)] (up, down, total) =   0.41269  5.01740  5.43009
   spin  1
    eigenvalues: 
  0.053  0.074  0.081  0.081  0.124
    eigenvectors:
  0.000  1.000  0.000  0.000  0.000
  0.000  0.000  0.322  0.678  0.000
  0.000  0.000  0.678  0.322  0.000
  1.000  0.000  0.000  0.000  0.000
  0.000  0.000  0.000  0.000  1.000
    occupations:
  0.074 -0.000 -0.000  0.000  0.000
 -0.000  0.081 -0.000  0.000  0.000
 -0.000 -0.000  0.081  0.000  0.000
  0.000  0.000  0.000  0.053 -0.000
  0.000  0.000  0.000 -0.000  0.124
   spin  2
    eigenvalues: 
  1.003  1.003  1.003  1.004  1.004
    eigenvectors:
  0.000  0.000  0.000  1.000  0.000
  0.000  0.405  0.595  0.000  0.000
  0.000  0.595  0.405  0.000  0.000
  0.000  0.000  0.000  0.000  1.000
  1.000  0.000  0.000  0.000  0.000
    occupations:
  1.004 -0.000 -0.000  0.000  0.000
 -0.000  1.003 -0.000  0.000  0.000
 -0.000 -0.000  1.003  0.000  0.000
  0.000  0.000  0.000  1.004 -0.000
  0.000  0.000  0.000 -0.000  1.003
atomic mag. moment =    -4.604703
atom    4   Tr[ns(na)] (up, down, total) =   5.01736  0.41038  5.42774
   spin  1
    eigenvalues: 
  1.003  1.003  1.003  1.004  1.004
    eigenvectors:
  0.000  0.000  0.000  1.000  0.000
  0.000  0.291  0.709  0.000  0.000
  0.000  0.709  0.291  0.000  0.000
  0.000  0.000  0.000  0.000  1.000
  1.000  0.000  0.000  0.000  0.000
    occupations:
  1.004 -0.000 -0.000  0.000  0.000
 -0.000  1.003 -0.000  0.000  0.000
 -0.000 -0.000  1.003  0.000  0.000
  0.000  0.000  0.000  1.004 -0.000
  0.000  0.000  0.000 -0.000  1.003
   spin  2
    eigenvalues: 
  0.053  0.073  0.082  0.082  0.121
    eigenvectors:
  0.000  1.000  0.000  0.000  0.000
  0.000  0.000  0.342  0.658  0.000
  0.000  0.000  0.658  0.342  0.000
  1.000  0.000  0.000  0.000  0.000
  0.000  0.000  0.000  0.000  1.000
    occupations:
  0.073 -0.000 -0.000  0.000  0.000
 -0.000  0.082 -0.000  0.000  0.000
 -0.000 -0.000  0.082  0.000  0.000
  0.000  0.000  0.000  0.053 -0.000
  0.000  0.000  0.000 -0.000  0.121
atomic mag. moment =     4.606986
atom    5   Tr[ns(na)] (up, down, total) =   5.01740  0.41078  5.42818
   spin  1
    eigenvalues: 
  1.003  1.003  1.003  1.004  1.004
    eigenvectors:
  0.000  0.000  0.000  1.000  0.000
  0.000  0.196  0.804  0.000  0.000
  0.000  0.804  0.196  0.000  0.000
  0.000  0.000  0.000  0.000  1.000
  1.000  0.000  0.000  0.000  0.000
    occupations:
  1.004 -0.000 -0.000  0.000  0.000
 -0.000  1.003 -0.000  0.000  0.000
 -0.000 -0.000  1.003  0.000  0.000
  0.000  0.000  0.000  1.004 -0.000
  0.000  0.000  0.000 -0.000  1.003
   spin  2
    eigenvalues: 
  0.053  0.073  0.082  0.082  0.121
    eigenvectors:
  0.000  1.000  0.000  0.000  0.000
  0.000  0.000  0.419  0.581  0.000
  0.000  0.000  0.581  0.419  0.000
  1.000  0.000  0.000  0.000  0.000
  0.000  0.000  0.000  0.000  1.000
    occupations:
  0.073 -0.000 -0.000  0.000  0.000
 -0.000  0.082 -0.000  0.000  0.000
 -0.000 -0.000  0.082  0.000  0.000
  0.000  0.000  0.000  0.053 -0.000
  0.000  0.000  0.000 -0.000  0.121
atomic mag. moment =     4.606622
atom    6   Tr[ns(na)] (up, down, total) =   0.41021  5.01742  5.42763
   spin  1
    eigenvalues: 
  0.053  0.073  0.080  0.080  0.124
    eigenvectors:
  0.000  1.000  0.000  0.000  0.000
  0.000  0.000  0.262  0.738  0.000
  0.000  0.000  0.738  0.262  0.000
  1.000  0.000  0.000  0.000  0.000
  0.000  0.000  0.000  0.000  1.000
    occupations:
  0.073 -0.000 -0.000  0.000  0.000
 -0.000  0.080 -0.000  0.000  0.000
 -0.000 -0.000  0.080  0.000  0.000
  0.000  0.000  0.000  0.053 -0.000
  0.000  0.000  0.000 -0.000  0.124
   spin  2
    eigenvalues: 
  1.003  1.003  1.003  1.004  1.004
    eigenvectors:
  0.000  0.000  0.000  1.000  0.000
  0.000  0.331  0.669  0.000  0.000
  0.000  0.669  0.331  0.000  0.000
  0.000  0.000  0.000  0.000  1.000
  1.000  0.000  0.000  0.000  0.000
    occupations:
  1.004 -0.000 -0.000  0.000  0.000
 -0.000  1.003 -0.000  0.000  0.000
 -0.000 -0.000  1.003  0.000  0.000
  0.000  0.000  0.000  1.004 -0.000
  0.000  0.000  0.000 -0.000  1.003
atomic mag. moment =    -4.607207
atom    7   Tr[ns(na)] (up, down, total) =   5.01731  0.41036  5.42767
   spin  1
    eigenvalues: 
  1.003  1.003  1.003  1.004  1.004
    eigenvectors:
  0.000  0.000  0.000  1.000  0.000
  0.000  0.304  0.696  0.000  0.000
  0.000  0.696  0.304  0.000  0.000
  0.000  0.000  0.000  0.000  1.000
  1.000  0.000  0.000  0.000  0.000
    occupations:
  1.004 -0.000 -0.000  0.000  0.000
 -0.000  1.003 -0.000  0.000  0.000
 -0.000 -0.000  1.003  0.000  0.000
  0.000  0.000  0.000  1.004 -0.000
  0.000  0.000  0.000 -0.000  1.003
   spin  2
    eigenvalues: 
  0.053  0.072  0.080  0.080  0.125
    eigenvectors:
  0.000  1.000  0.000  0.000  0.000
  0.000  0.000  0.286  0.714  0.000
  0.000  0.000  0.714  0.286  0.000
  1.000  0.000  0.000  0.000  0.000
  0.000  0.000  0.000  0.000  1.000
    occupations:
  0.072 -0.000 -0.000  0.000  0.000
 -0.000  0.080 -0.000  0.000  0.000
 -0.000 -0.000  0.080  0.000  0.000
  0.000  0.000  0.000  0.053 -0.000
  0.000  0.000  0.000 -0.000  0.125
atomic mag. moment =     4.606953
atom    8   Tr[ns(na)] (up, down, total) =   0.41021  5.01742  5.42763
   spin  1
    eigenvalues: 
  0.053  0.073  0.080  0.080  0.124
    eigenvectors:
  0.000  1.000  0.000  0.000  0.000
  0.000  0.000  0.306  0.694  0.000
  0.000  0.000  0.694  0.306  0.000
  1.000  0.000  0.000  0.000  0.000
  0.000  0.000  0.000  0.000  1.000
    occupations:
  0.073 -0.000 -0.000  0.000  0.000
 -0.000  0.080 -0.000  0.000  0.000
 -0.000 -0.000  0.080  0.000  0.000
  0.000  0.000  0.000  0.053 -0.000
  0.000  0.000  0.000 -0.000  0.124
   spin  2
    eigenvalues: 
  1.003  1.003  1.003  1.004  1.004
    eigenvectors:
  0.000  0.000  0.000  1.000  0.000
  0.000  0.269  0.731  0.000  0.000
  0.000  0.731  0.269  0.000  0.000
  0.000  0.000  0.000  0.000  1.000
  1.000  0.000  0.000  0.000  0.000
    occupations:
  1.004 -0.000 -0.000  0.000  0.000
 -0.000  1.003 -0.000  0.000  0.000
 -0.000 -0.000  1.003  0.000  0.000
  0.000  0.000  0.000  1.004 -0.000
  0.000  0.000  0.000 -0.000  1.003
atomic mag. moment =    -4.607207
N of occupied +U levels =   43.424872
 --- exit write_ns ---

     total cpu time spent up to now is      278.0 secs

     total energy              =  -14687.28131359 Ry
     Harris-Foulkes estimate   =  -14685.81986596 Ry
     estimated scf accuracy    <      11.56848365 Ry

     total magnetization       =     9.98 Bohr mag/cell
     absolute magnetization    =    41.58 Bohr mag/cell

     iteration #  2     ecut=    45.00 Ry     beta= 0.10
     Davidson diagonalization with overlap
     ethr =  3.91E-03,  avg # of iterations =  1.0

     total cpu time spent up to now is      396.6 secs

     total energy              =  -14692.58992011 Ry
     Harris-Foulkes estimate   =  -14687.35384842 Ry
     estimated scf accuracy    <       9.31367532 Ry

     total magnetization       =     9.87 Bohr mag/cell
     absolute magnetization    =    41.27 Bohr mag/cell

     iteration #  3     ecut=    45.00 Ry     beta= 0.10
     Davidson diagonalization with overlap
     ethr =  3.15E-03,  avg # of iterations =  2.7

     total cpu time spent up to now is      562.4 secs

     total energy              =  -14693.69197335 Ry
     Harris-Foulkes estimate   =  -14694.20386456 Ry
     estimated scf accuracy    <      36.91695322 Ry

     total magnetization       =     9.46 Bohr mag/cell
     absolute magnetization    =    38.53 Bohr mag/cell

     iteration #  4     ecut=    45.00 Ry     beta= 0.10
     Davidson diagonalization with overlap
     ethr =  3.15E-03,  avg # of iterations =  1.4

     total cpu time spent up to now is      687.5 secs

     total energy              =  -14695.43715055 Ry
     Harris-Foulkes estimate   =  -14694.00088929 Ry
     estimated scf accuracy    <       3.53603572 Ry

     total magnetization       =     9.31 Bohr mag/cell
     absolute magnetization    =    38.74 Bohr mag/cell

     iteration #  5     ecut=    45.00 Ry     beta= 0.10
     Davidson diagonalization with overlap
     ethr =  1.19E-03,  avg # of iterations =  2.7

     total cpu time spent up to now is      845.9 secs

     total energy              =  -14692.53530835 Ry
     Harris-Foulkes estimate   =  -14695.83156950 Ry
     estimated scf accuracy    <      10.04550206 Ry

     total magnetization       =     8.96 Bohr mag/cell
     absolute magnetization    =    36.94 Bohr mag/cell

     iteration #  6     ecut=    45.00 Ry     beta= 0.10
     Davidson diagonalization with overlap
     ethr =  1.19E-03,  avg # of iterations =  4.4

     total cpu time spent up to now is     1126.8 secs

     total energy              =  -14693.92335456 Ry
     Harris-Foulkes estimate   =  -14693.88682586 Ry
     estimated scf accuracy    <       0.96659667 Ry

     total magnetization       =     8.99 Bohr mag/cell
     absolute magnetization    =    38.34 Bohr mag/cell

     iteration #  7     ecut=    45.00 Ry     beta= 0.10
     Davidson diagonalization with overlap
     ethr =  3.27E-04,  avg # of iterations =  2.5

     total cpu time spent up to now is     1271.8 secs

     total energy              =  -14693.95602424 Ry
     Harris-Foulkes estimate   =  -14693.96221441 Ry
     estimated scf accuracy    <       0.16248114 Ry

     total magnetization       =     9.08 Bohr mag/cell
     absolute magnetization    =    38.09 Bohr mag/cell

     iteration #  8     ecut=    45.00 Ry     beta= 0.10
     Davidson diagonalization with overlap
     ethr =  5.49E-05,  avg # of iterations =  4.1

     total cpu time spent up to now is     1527.1 secs

     total energy              =  -14694.01572840 Ry
     Harris-Foulkes estimate   =  -14694.01419836 Ry
     estimated scf accuracy    <       0.19630722 Ry

     total magnetization       =     8.89 Bohr mag/cell
     absolute magnetization    =    37.39 Bohr mag/cell

     iteration #  9     ecut=    45.00 Ry     beta= 0.10
     Davidson diagonalization with overlap
     ethr =  5.49E-05,  avg # of iterations =  1.0

     total cpu time spent up to now is     1645.1 secs

     total energy              =  -14693.98803522 Ry
     Harris-Foulkes estimate   =  -14694.01587872 Ry
     estimated scf accuracy    <       0.21023801 Ry

     total magnetization       =     8.90 Bohr mag/cell
     absolute magnetization    =    37.39 Bohr mag/cell

     iteration # 10     ecut=    45.00 Ry     beta= 0.10
     Davidson diagonalization with overlap
     ethr =  5.49E-05,  avg # of iterations =  1.7

     total cpu time spent up to now is     1775.1 secs

     total energy              =  -14693.99515182 Ry
     Harris-Foulkes estimate   =  -14693.99778666 Ry
     estimated scf accuracy    <       0.06019855 Ry

     total magnetization       =     8.94 Bohr mag/cell
     absolute magnetization    =    37.44 Bohr mag/cell

     iteration # 11     ecut=    45.00 Ry     beta= 0.10
     Davidson diagonalization with overlap
     ethr =  2.03E-05,  avg # of iterations =  1.8

     total cpu time spent up to now is     1907.6 secs

     total energy              =  -14693.99677300 Ry
     Harris-Foulkes estimate   =  -14693.99648249 Ry
     estimated scf accuracy    <       0.02807204 Ry

     total magnetization       =     8.92 Bohr mag/cell
     absolute magnetization    =    37.51 Bohr mag/cell

     iteration # 12     ecut=    45.00 Ry     beta= 0.10
     Davidson diagonalization with overlap
     ethr =  9.48E-06,  avg # of iterations =  1.8

     total cpu time spent up to now is     2040.5 secs

     total energy              =  -14693.99827493 Ry
     Harris-Foulkes estimate   =  -14693.99748855 Ry
     estimated scf accuracy    <       0.01377146 Ry

     total magnetization       =     8.91 Bohr mag/cell
     absolute magnetization    =    37.47 Bohr mag/cell

     iteration # 13     ecut=    45.00 Ry     beta= 0.10
     Davidson diagonalization with overlap
     ethr =  4.65E-06,  avg # of iterations =  3.5

     total cpu time spent up to now is     2214.4 secs

     total energy              =  -14693.99904445 Ry
     Harris-Foulkes estimate   =  -14693.99931198 Ry
     estimated scf accuracy    <       0.00294198 Ry

     total magnetization       =     8.89 Bohr mag/cell
     absolute magnetization    =    37.40 Bohr mag/cell

     iteration # 14     ecut=    45.00 Ry     beta= 0.10
     Davidson diagonalization with overlap
     c_bands:  2 eigenvalues not converged
     ethr =  9.94E-07,  avg # of iterations =  2.3

     total cpu time spent up to now is     2357.8 secs

     total energy              =  -14693.99925744 Ry
     Harris-Foulkes estimate   =  -14693.99916712 Ry
     estimated scf accuracy    <       0.00148459 Ry

     total magnetization       =     8.89 Bohr mag/cell
     absolute magnetization    =    37.42 Bohr mag/cell

     iteration # 15     ecut=    45.00 Ry     beta= 0.10
     Davidson diagonalization with overlap
     ethr =  5.02E-07,  avg # of iterations =  3.0

     total cpu time spent up to now is     2530.2 secs

     total energy              =  -14693.99951149 Ry
     Harris-Foulkes estimate   =  -14693.99944099 Ry
     estimated scf accuracy    <       0.00029991 Ry

     total magnetization       =     8.89 Bohr mag/cell
     absolute magnetization    =    37.40 Bohr mag/cell

     iteration # 16     ecut=    45.00 Ry     beta= 0.10
     Davidson diagonalization with overlap
     ethr =  1.01E-07,  avg # of iterations =  2.3

     total cpu time spent up to now is     2679.4 secs

     total energy              =  -14693.99954870 Ry
     Harris-Foulkes estimate   =  -14693.99952932 Ry
     estimated scf accuracy    <       0.00015328 Ry

     total magnetization       =     8.88 Bohr mag/cell
     absolute magnetization    =    37.39 Bohr mag/cell

     iteration # 17     ecut=    45.00 Ry     beta= 0.10
     Davidson diagonalization with overlap
     ethr =  5.18E-08,  avg # of iterations =  1.7

     total cpu time spent up to now is     2809.7 secs

     total energy              =  -14693.99962361 Ry
     Harris-Foulkes estimate   =  -14693.99956157 Ry
     estimated scf accuracy    <       0.00020405 Ry

     total magnetization       =     8.88 Bohr mag/cell
     absolute magnetization    =    37.39 Bohr mag/cell

     iteration # 18     ecut=    45.00 Ry     beta= 0.10
     Davidson diagonalization with overlap
     ethr =  5.18E-08,  avg # of iterations =  2.1

     total cpu time spent up to now is     2953.1 secs

     total energy              =  -14693.99964387 Ry
     Harris-Foulkes estimate   =  -14693.99963244 Ry
     estimated scf accuracy    <       0.00005204 Ry

     total magnetization       =     8.88 Bohr mag/cell
     absolute magnetization    =    37.38 Bohr mag/cell

     iteration # 19     ecut=    45.00 Ry     beta= 0.10
     Davidson diagonalization with overlap
     ethr =  1.76E-08,  avg # of iterations =  1.9

     total cpu time spent up to now is     3089.2 secs

     total energy              =  -14693.99965320 Ry
     Harris-Foulkes estimate   =  -14693.99964930 Ry
     estimated scf accuracy    <       0.00001151 Ry

     total magnetization       =     8.88 Bohr mag/cell
     absolute magnetization    =    37.38 Bohr mag/cell

     iteration # 20     ecut=    45.00 Ry     beta= 0.10
     Davidson diagonalization with overlap
     ethr =  3.89E-09,  avg # of iterations =  3.6

     total cpu time spent up to now is     3266.6 secs

     total energy              =  -14693.99965599 Ry
     Harris-Foulkes estimate   =  -14693.99965249 Ry
     estimated scf accuracy    <       0.00001074 Ry

     total magnetization       =     8.88 Bohr mag/cell
     absolute magnetization    =    37.38 Bohr mag/cell

     iteration # 21     ecut=    45.00 Ry     beta= 0.10
     Davidson diagonalization with overlap
     ethr =  3.63E-09,  avg # of iterations =  1.9

     total cpu time spent up to now is     3401.7 secs

     total energy              =  -14693.99965967 Ry
     Harris-Foulkes estimate   =  -14693.99965748 Ry
     estimated scf accuracy    <       0.00000175 Ry

     total magnetization       =     8.88 Bohr mag/cell
     absolute magnetization    =    37.38 Bohr mag/cell

     iteration # 22     ecut=    45.00 Ry     beta= 0.10
     Davidson diagonalization with overlap
     ethr =  5.90E-10,  avg # of iterations =  3.2

     total cpu time spent up to now is     3578.3 secs

     total energy              =  -14693.99966205 Ry
     Harris-Foulkes estimate   =  -14693.99966030 Ry
     estimated scf accuracy    <       0.00000127 Ry

     total magnetization       =     8.88 Bohr mag/cell
     absolute magnetization    =    37.38 Bohr mag/cell

     iteration # 23     ecut=    45.00 Ry     beta= 0.10
     Davidson diagonalization with overlap
     ethr =  4.29E-10,  avg # of iterations =  2.6

     total cpu time spent up to now is     3732.7 secs

     total energy              =  -14693.99966253 Ry
     Harris-Foulkes estimate   =  -14693.99966115 Ry
     estimated scf accuracy    <       0.00000177 Ry

     total magnetization       =     8.88 Bohr mag/cell
     absolute magnetization    =    37.38 Bohr mag/cell

     iteration # 24     ecut=    45.00 Ry     beta= 0.10
     Davidson diagonalization with overlap
     ethr =  4.29E-10,  avg # of iterations =  2.0
 
     Magnetic moment per site:
     atom:    1    charge:   13.5460    magn:    4.2453    constr:    0.0000
     atom:    2    charge:   13.5455    magn:    4.2507    constr:    0.0000
     atom:    3    charge:   13.5471    magn:   -4.2401    constr:    0.0000
     atom:    4    charge:   13.5455    magn:    4.2507    constr:    0.0000
     atom:    5    charge:   13.5460    magn:    4.2453    constr:    0.0000
     atom:    6    charge:   13.5445    magn:   -4.2581    constr:    0.0000
     atom:    7    charge:   13.5415    magn:    4.2770    constr:    0.0000
     atom:    8    charge:   13.5445    magn:   -4.2581    constr:    0.0000
     atom:    9    charge:    9.1236    magn:    0.0399    constr:    0.0000
     atom:   10    charge:    9.1236    magn:    0.0385    constr:    0.0000
     atom:   11    charge:    9.1237    magn:    0.0457    constr:    0.0000
     atom:   12    charge:    9.1231    magn:   -0.0392    constr:    0.0000
     atom:   13    charge:    9.1231    magn:   -0.0392    constr:    0.0000
     atom:   14    charge:    9.1237    magn:    0.0457    constr:    0.0000
     atom:   15    charge:    9.1236    magn:    0.0385    constr:    0.0000
     atom:   16    charge:    9.1236    magn:    0.0399    constr:    0.0000
     atom:   17    charge:    9.1242    magn:    0.0437    constr:    0.0000
     atom:   18    charge:    9.1235    magn:   -0.0393    constr:    0.0000
     atom:   19    charge:    9.1253    magn:   -0.0368    constr:    0.0000
     atom:   20    charge:    9.1251    magn:    0.0385    constr:    0.0000
     atom:   21    charge:    9.1251    magn:    0.0385    constr:    0.0000
     atom:   22    charge:    9.1253    magn:   -0.0368    constr:    0.0000
     atom:   23    charge:    9.1235    magn:   -0.0393    constr:    0.0000
     atom:   24    charge:    9.1242    magn:    0.0437    constr:    0.0000

     total cpu time spent up to now is     3870.7 secs

     End of self-consistent calculation
 --- enter write_ns ---
 LDA+U parameters:
U(  1) =   3.1200   J(  1) =   0.7000   B(  1) =   0.0803
U(  2) =   3.1200   J(  2) =   0.7000   B(  2) =   0.0803
atom    1   Tr[ns(na)] (up, down, total) =   4.97317  0.72857  5.70174
   spin  1
    eigenvalues: 
  0.985  0.994  0.994  0.997  1.002
    eigenvectors:
  0.000  0.000  0.000  1.000  0.000
  0.000  0.272  0.728  0.000  0.000
  0.000  0.728  0.272  0.000  0.000
  0.000  0.000  0.000  0.000  1.000
  1.000  0.000  0.000  0.000  0.000
    occupations:
  0.997 -0.000 -0.000  0.000  0.000
 -0.000  0.994 -0.000  0.000  0.000
 -0.000 -0.000  0.994  0.000  0.000
  0.000  0.000  0.000  1.002 -0.000
  0.000  0.000  0.000 -0.000  0.985
   spin  2
    eigenvalues: 
  0.066  0.127  0.143  0.143  0.250
    eigenvectors:
  0.000  1.000  0.000  0.000  0.000
  0.000  0.000  0.343  0.657  0.000
  0.000  0.000  0.657  0.343  0.000
  1.000  0.000  0.000  0.000  0.000
  0.000  0.000  0.000  0.000  1.000
    occupations:
  0.127 -0.000 -0.000  0.000  0.000
 -0.000  0.143 -0.000  0.000  0.000
 -0.000 -0.000  0.143  0.000  0.000
  0.000  0.000  0.000  0.066 -0.000
  0.000  0.000  0.000 -0.000  0.250
atomic mag. moment =     4.244595
atom    2   Tr[ns(na)] (up, down, total) =   4.97372  0.72434  5.69806
   spin  1
    eigenvalues: 
  0.985  0.994  0.994  0.997  1.002
    eigenvectors:
  0.000  0.000  0.000  1.000  0.000
  0.000  0.311  0.689  0.000  0.000
  0.000  0.689  0.311  0.000  0.000
  0.000  0.000  0.000  0.000  1.000
  1.000  0.000  0.000  0.000  0.000
    occupations:
  0.997 -0.000 -0.000  0.000  0.000
 -0.000  0.994 -0.000  0.000  0.000
 -0.000 -0.000  0.994  0.000  0.000
  0.000  0.000  0.000  1.002 -0.000
  0.000  0.000  0.000 -0.000  0.985
   spin  2
    eigenvalues: 
  0.066  0.122  0.144  0.144  0.249
    eigenvectors:
  0.000  1.000  0.000  0.000  0.000
  0.000  0.000  0.366  0.634  0.000
  0.000  0.000  0.634  0.366  0.000
  1.000  0.000  0.000  0.000  0.000
  0.000  0.000  0.000  0.000  1.000
    occupations:
  0.122 -0.000 -0.000  0.000  0.000
 -0.000  0.144 -0.000  0.000  0.000
 -0.000 -0.000  0.144  0.000  0.000
  0.000  0.000  0.000  0.066 -0.000
  0.000  0.000  0.000 -0.000  0.249
atomic mag. moment =     4.249374
atom    3   Tr[ns(na)] (up, down, total) =   0.73461  4.97005  5.70467
   spin  1
    eigenvalues: 
  0.065  0.125  0.147  0.147  0.251
    eigenvectors:
  0.000  1.000  0.000  0.000  0.000
  0.000  0.000  0.338  0.662  0.000
  0.000  0.000  0.662  0.338  0.000
  1.000  0.000  0.000  0.000  0.000
  0.000  0.000  0.000  0.000  1.000
    occupations:
  0.125 -0.000 -0.000  0.000  0.000
 -0.000  0.147 -0.000  0.000  0.000
 -0.000 -0.000  0.147  0.000  0.000
  0.000  0.000  0.000  0.065 -0.000
  0.000  0.000  0.000 -0.000  0.251
   spin  2
    eigenvalues: 
  0.984  0.994  0.994  0.996  1.003
    eigenvectors:
  0.000  0.000  0.000  1.000  0.000
  0.000  0.246  0.754  0.000  0.000
  0.000  0.754  0.246  0.000  0.000
  0.000  0.000  0.000  0.000  1.000
  1.000  0.000  0.000  0.000  0.000
    occupations:
  0.996 -0.000 -0.000  0.000  0.000
 -0.000  0.994 -0.000  0.000  0.000
 -0.000 -0.000  0.994  0.000  0.000
  0.000  0.000  0.000  1.003 -0.000
  0.000  0.000  0.000 -0.000  0.984
atomic mag. moment =    -4.235439
atom    4   Tr[ns(na)] (up, down, total) =   4.97372  0.72434  5.69806
   spin  1
    eigenvalues: 
  0.985  0.994  0.994  0.997  1.002
    eigenvectors:
  0.000  0.000  0.000  1.000  0.000
  0.000  0.372  0.628  0.000  0.000
  0.000  0.628  0.372  0.000  0.000
  0.000  0.000  0.000  0.000  1.000
  1.000  0.000  0.000  0.000  0.000
    occupations:
  0.997 -0.000 -0.000  0.000  0.000
 -0.000  0.994 -0.000  0.000  0.000
 -0.000 -0.000  0.994  0.000  0.000
  0.000  0.000  0.000  1.002 -0.000
  0.000  0.000  0.000 -0.000  0.985
   spin  2
    eigenvalues: 
  0.066  0.122  0.144  0.144  0.249
    eigenvectors:
  0.000  1.000  0.000  0.000  0.000
  0.000  0.000  0.353  0.647  0.000
  0.000  0.000  0.647  0.353  0.000
  1.000  0.000  0.000  0.000  0.000
  0.000  0.000  0.000  0.000  1.000
    occupations:
  0.122 -0.000 -0.000  0.000  0.000
 -0.000  0.144 -0.000  0.000  0.000
 -0.000 -0.000  0.144  0.000  0.000
  0.000  0.000  0.000  0.066 -0.000
  0.000  0.000  0.000 -0.000  0.249
atomic mag. moment =     4.249374
atom    5   Tr[ns(na)] (up, down, total) =   4.97317  0.72857  5.70174
   spin  1
    eigenvalues: 
  0.985  0.994  0.994  0.997  1.002
    eigenvectors:
  0.000  0.000  0.000  1.000  0.000
  0.000  0.273  0.727  0.000  0.000
  0.000  0.727  0.273  0.000  0.000
  0.000  0.000  0.000  0.000  1.000
  1.000  0.000  0.000  0.000  0.000
    occupations:
  0.997 -0.000 -0.000  0.000  0.000
 -0.000  0.994 -0.000  0.000  0.000
 -0.000 -0.000  0.994  0.000  0.000
  0.000  0.000  0.000  1.002 -0.000
  0.000  0.000  0.000 -0.000  0.985
   spin  2
    eigenvalues: 
  0.066  0.127  0.143  0.143  0.250
    eigenvectors:
  0.000  1.000  0.000  0.000  0.000
  0.000  0.000  0.344  0.656  0.000
  0.000  0.000  0.656  0.344  0.000
  1.000  0.000  0.000  0.000  0.000
  0.000  0.000  0.000  0.000  1.000
    occupations:
  0.127 -0.000 -0.000  0.000  0.000
 -0.000  0.143 -0.000  0.000  0.000
 -0.000 -0.000  0.143  0.000  0.000
  0.000  0.000  0.000  0.066 -0.000
  0.000  0.000  0.000 -0.000  0.250
atomic mag. moment =     4.244595
atom    6   Tr[ns(na)] (up, down, total) =   0.71988  4.97241  5.69229
   spin  1
    eigenvalues: 
  0.066  0.121  0.145  0.145  0.243
    eigenvectors:
  0.000  1.000  0.000  0.000  0.000
  0.000  0.000  0.264  0.736  0.000
  0.000  0.000  0.736  0.264  0.000
  1.000  0.000  0.000  0.000  0.000
  0.000  0.000  0.000  0.000  1.000
    occupations:
  0.121 -0.000 -0.000  0.000  0.000
 -0.000  0.145 -0.000  0.000  0.000
 -0.000 -0.000  0.145  0.000  0.000
  0.000  0.000  0.000  0.066 -0.000
  0.000  0.000  0.000 -0.000  0.243
   spin  2
    eigenvalues: 
  0.985  0.994  0.994  0.997  1.003
    eigenvectors:
  0.000  0.000  0.000  1.000  0.000
  0.000  0.313  0.687  0.000  0.000
  0.000  0.687  0.313  0.000  0.000
  0.000  0.000  0.000  0.000  1.000
  1.000  0.000  0.000  0.000  0.000
    occupations:
  0.997 -0.000 -0.000  0.000  0.000
 -0.000  0.994 -0.000  0.000  0.000
 -0.000 -0.000  0.994  0.000  0.000
  0.000  0.000  0.000  1.003 -0.000
  0.000  0.000  0.000 -0.000  0.985
atomic mag. moment =    -4.252539
atom    7   Tr[ns(na)] (up, down, total) =   4.97456  0.70351  5.67807
   spin  1
    eigenvalues: 
  0.985  0.994  0.994  0.999  1.003
    eigenvectors:
  0.000  0.000  0.000  1.000  0.000
  0.000  0.318  0.682  0.000  0.000
  0.000  0.682  0.318  0.000  0.000
  0.000  0.000  0.000  0.000  1.000
  1.000  0.000  0.000  0.000  0.000
    occupations:
  0.999 -0.000 -0.000  0.000  0.000
 -0.000  0.994 -0.000  0.000  0.000
 -0.000 -0.000  0.994  0.000  0.000
  0.000  0.000  0.000  1.003 -0.000
  0.000  0.000  0.000 -0.000  0.985
   spin  2
    eigenvalues: 
  0.067  0.108  0.146  0.146  0.237
    eigenvectors:
  0.000  1.000  0.000  0.000  0.000
  0.000  0.000  0.311  0.689  0.000
  0.000  0.000  0.689  0.311  0.000
  1.000  0.000  0.000  0.000  0.000
  0.000  0.000  0.000  0.000  1.000
    occupations:
  0.108 -0.000 -0.000  0.000  0.000
 -0.000  0.146 -0.000  0.000  0.000
 -0.000 -0.000  0.146  0.000  0.000
  0.000  0.000  0.000  0.067 -0.000
  0.000  0.000  0.000 -0.000  0.237
atomic mag. moment =     4.271049
atom    8   Tr[ns(na)] (up, down, total) =   0.71988  4.97241  5.69229
   spin  1
    eigenvalues: 
  0.066  0.121  0.145  0.145  0.243
    eigenvectors:
  0.000  1.000  0.000  0.000  0.000
  0.000  0.000  0.364  0.636  0.000
  0.000  0.000  0.636  0.364  0.000
  1.000  0.000  0.000  0.000  0.000
  0.000  0.000  0.000  0.000  1.000
    occupations:
  0.121 -0.000 -0.000  0.000  0.000
 -0.000  0.145 -0.000  0.000  0.000
 -0.000 -0.000  0.145  0.000  0.000
  0.000  0.000  0.000  0.066 -0.000
  0.000  0.000  0.000 -0.000  0.243
   spin  2
    eigenvalues: 
  0.985  0.994  0.994  0.997  1.003
    eigenvectors:
  0.000  0.000  0.000  1.000  0.000
  0.000  0.271  0.729  0.000  0.000
  0.000  0.729  0.271  0.000  0.000
  0.000  0.000  0.000  0.000  1.000
  1.000  0.000  0.000  0.000  0.000
    occupations:
  0.997 -0.000 -0.000  0.000  0.000
 -0.000  0.994 -0.000  0.000  0.000
 -0.000 -0.000  0.994  0.000  0.000
  0.000  0.000  0.000  1.003 -0.000
  0.000  0.000  0.000 -0.000  0.985
atomic mag. moment =    -4.252539
N of occupied +U levels =   45.566901
 --- exit write_ns ---

 ------ SPIN UP ------------


          k = 0.0000 0.0000 0.0000 ( 13925 PWs)   bands (ev):

   -66.8396 -66.7487 -66.7487 -66.7317 -66.7317 -62.1834 -62.1834 -62.1721
   -35.6048 -35.5563 -35.5563 -35.5197 -35.5197 -35.5011 -35.5011 -35.4644
   -35.4644 -35.4644 -35.4644 -35.4484 -35.4484 -35.4484 -35.4484 -31.0049
   -31.0049 -31.0022 -31.0022 -31.0022 -31.0022 -30.9964 -30.9898 -30.9898
     5.7600   5.8960   5.9195   6.3322   6.3817   7.0107   7.0597   7.6164
     8.2829   8.4178   8.4179   8.4278   8.4730   8.4996   8.5480   8.7221
     8.7474   8.7807   8.7940   8.9104   8.9523   9.2042   9.2335   9.2612
     9.2794   9.3803   9.4520   9.4868   9.5698   9.8010   9.9220   9.9248
     9.9296   9.9737  10.1247  10.1335  10.1335  10.1380  10.1445  10.1655
    10.1728  10.1780  10.1780  10.1845  10.1948  10.1948  10.3455  10.3455
    10.3460  10.3460  10.5307  10.5704  10.5779  10.5779  10.5831  10.5831
    10.5841  10.5841  10.6036  10.6046  10.6115  10.6115  10.6140  10.6140
    10.6724  10.6982  10.6982  10.7153  10.7153  10.9640  10.9640  11.0477
    11.0477  11.0506  11.0997  11.1319  11.1507  11.2586  11.2811  11.2947
    11.3120  11.4171  11.4171  11.4277  11.4679  11.4679  11.6397  11.6937
    11.7183  11.7354  11.7448  11.7819  11.9011  11.9265  11.9265  12.0069
    12.0069  12.1071  12.1169  12.1334  12.1726  12.2495  12.3275  12.3275
    12.5479  12.5479  12.6117  12.6117  12.6618  12.6966  12.8009  12.8244
    12.9962  13.0039  13.0226  13.0759  13.8572  14.0265  15.0199  15.4003
    16.0862  16.8931  16.8931  16.9250  16.9250  16.9470  16.9470  16.9667
    16.9669  16.9856  17.1479  17.1651  17.1652  17.5773  17.5859  17.5938
    18.4390  19.5032  19.6633  20.0690  20.0690  20.4263  20.4263  20.4700
    20.4700  21.4211

          k = 0.0000 0.0000 0.0242 ( 13893 PWs)   bands (ev):

   -66.8396 -66.7487 -66.7487 -66.7317 -66.7317 -62.1834 -62.1834 -62.1721
   -35.6048 -35.5563 -35.5563 -35.5197 -35.5197 -35.5011 -35.5011 -35.4644
   -35.4644 -35.4644 -35.4644 -35.4484 -35.4484 -35.4484 -35.4484 -31.0049
   -31.0049 -31.0022 -31.0022 -31.0022 -31.0022 -30.9964 -30.9898 -30.9898
     5.7692   5.8433   5.9861   6.2286   6.5001   6.8578   7.2205   7.5499
     8.3482   8.4183   8.4223   8.4272   8.4623   8.4998   8.5582   8.6745
     8.7205   8.7491   8.7739   8.9243   9.0498   9.1689   9.2236   9.2868
     9.2994   9.3684   9.4283   9.4628   9.5932   9.8125   9.9097   9.9223
     9.9291   9.9739  10.1245  10.1365  10.1365  10.1460  10.1483  10.1625
    10.1625  10.1645  10.1693  10.1855  10.2171  10.2171  10.2958  10.2958
    10.4027  10.4027  10.5170  10.5372  10.5372  10.5637  10.5788  10.5788
    10.5839  10.5839  10.5841  10.5841  10.6163  10.6181  10.6648  10.6749
    10.6749  10.6981  10.6981  10.7330  10.7330  10.8962  10.8962  11.0573
    11.0817  11.1203  11.1203  11.1233  11.1771  11.2481  11.2808  11.2950
    11.3158  11.3337  11.3337  11.4275  11.5366  11.5366  11.6324  11.7006
    11.7194  11.7390  11.7438  11.7781  11.8835  11.8835  11.9018  12.0435
    12.0435  12.1067  12.1173  12.1220  12.1905  12.2419  12.3179  12.3179
    12.5547  12.5547  12.6080  12.6080  12.6642  12.6940  12.8013  12.8399
    12.9551  12.9960  13.0041  13.1437  13.7638  14.1420  14.8969  15.5472
    16.0144  16.8927  16.8927  16.9262  16.9262  16.9462  16.9462  16.9667
    16.9669  16.9856  17.1479  17.1651  17.1652  17.5792  17.5850  17.5938
    18.5329  19.1546  20.0475  20.0936  20.0936  20.2861  20.2861  20.6464
    20.6464  21.0556

          k = 0.0000 0.0000-0.0484 ( 13878 PWs)   bands (ev):

   -66.8396 -66.7487 -66.7487 -66.7317 -66.7317 -62.1834 -62.1834 -62.1721
   -35.6048 -35.5563 -35.5563 -35.5197 -35.5197 -35.5011 -35.5011 -35.4644
   -35.4644 -35.4644 -35.4644 -35.4484 -35.4484 -35.4484 -35.4484 -31.0049
   -31.0048 -31.0022 -31.0022 -31.0022 -31.0022 -30.9964 -30.9898 -30.9898
     5.7935   5.8011   6.0446   6.1541   6.6067   6.7392   7.3912   7.4070
     8.4187   8.4253   8.4266   8.4506   8.4841   8.5000   8.5099   8.5816
     8.7191   8.7506   8.7574   8.9450   9.1322   9.1341   9.2167   9.2907
     9.3266   9.3463   9.4041   9.4483   9.6085   9.8283   9.8907   9.9228
     9.9285   9.9741  10.1243  10.1431  10.1431  10.1499  10.1499  10.1535
    10.1545  10.1636  10.1636  10.1865  10.2498  10.2498  10.2558  10.2558
    10.4606  10.4606  10.4732  10.4732  10.5059  10.5589  10.5787  10.5787
    10.5838  10.5838  10.5841  10.5841  10.6264  10.6360  10.6508  10.6894
    10.6894  10.6981  10.6981  10.7970  10.7970  10.8138  10.8138  11.0662
    11.0697  11.1127  11.2091  11.2178  11.2178  11.2261  11.2341  11.2341
    11.2805  11.2954  11.3196  11.4274  11.5778  11.5778  11.6262  11.7063
    11.7205  11.7428  11.7434  11.7735  11.8499  11.8499  11.9025  12.0689
    12.0689  12.1063  12.1142  12.1176  12.2126  12.2266  12.3078  12.3078
    12.5624  12.5624  12.6034  12.6034  12.6671  12.6909  12.8017  12.8827
    12.8874  12.9958  13.0043  13.1869  13.7016  14.2346  14.7923  15.7206
    15.8874  16.8923  16.8923  16.9275  16.9275  16.9454  16.9454  16.9667
    16.9669  16.9856  17.1479  17.1651  17.1652  17.5822  17.5830  17.5937
    18.7416  18.8437  20.1579  20.1579  20.1764  20.1764  20.4328  20.6538
    20.8279  20.8279

          k = 0.0000 0.1250 0.0000 ( 13879 PWs)   bands (ev):

   -66.8394 -66.7484 -66.7484 -66.7315 -66.7315 -62.1834 -62.1834 -62.1721
   -35.6047 -35.5581 -35.5562 -35.5196 -35.5196 -35.5010 -35.5010 -35.4661
   -35.4661 -35.4643 -35.4643 -35.4502 -35.4502 -35.4484 -35.4484 -31.0046
   -31.0046 -31.0044 -31.0044 -31.0021 -31.0021 -30.9962 -30.9919 -30.9896
     6.0035   6.1363   6.1586   6.5580   6.6032   7.2007   7.2388   7.7567
     8.2916   8.5068   8.5503   8.5531   8.5675   8.6094   8.6447   8.7241
     8.7468   8.8315   8.8374   8.9451   8.9704   9.1414   9.1534   9.2882
     9.3226   9.3338   9.3978   9.4442   9.6224   9.7874   9.7929   9.7937
     9.8191   9.8358   9.8538   9.8910   9.8979  10.0263  10.0283  10.0366
    10.0472  10.1030  10.1474  10.1746  10.1789  10.1905  10.2629  10.2845
    10.2933  10.3312  10.4297  10.4462  10.4490  10.5020  10.5065  10.5870
    10.6483  10.6553  10.6575  10.7117  10.7423  10.7707  10.8079  10.8238
    10.8295  10.8467  10.9188  10.9969  11.0381  11.0606  11.0862  11.0970
    11.1260  11.1912  11.2289  11.2550  11.2706  11.3177  11.3264  11.3569
    11.3592  11.3925  11.3935  11.4427  11.4658  11.6182  11.6721  11.7049
    11.7469  11.7793  11.8023  11.8094  11.8491  11.8986  11.9308  11.9402
    11.9462  12.0808  12.0955  12.1037  12.2294  12.3614  12.3960  12.4188
    12.4368  12.4666  12.4812  12.5673  12.7044  12.7607  12.8508  12.8643
    12.8653  12.8894  12.9956  13.0559  13.8986  14.0736  15.1442  15.5144
    16.2142  16.6821  16.7129  16.7823  16.9744  16.9816  16.9957  17.0285
    17.0455  17.0516  17.0566  17.0594  17.0765  17.6179  17.6248  17.9270
    18.5236  18.6579  18.9708  19.0498  19.8367  19.8368  19.9109  19.9762
    20.6928  20.9657

          k = 0.0000 0.1250 0.0242 ( 13869 PWs)   bands (ev):

   -66.8394 -66.7484 -66.7484 -66.7315 -66.7315 -62.1834 -62.1834 -62.1721
   -35.6047 -35.5581 -35.5562 -35.5196 -35.5196 -35.5010 -35.5010 -35.4661
   -35.4661 -35.4643 -35.4643 -35.4502 -35.4502 -35.4484 -35.4484 -31.0046
   -31.0046 -31.0044 -31.0044 -31.0021 -31.0021 -30.9962 -30.9919 -30.9896
     6.0125   6.0848   6.2238   6.4570   6.7182   7.0534   7.3915   7.6950
     8.3475   8.5109   8.5474   8.5506   8.5591   8.6012   8.6229   8.6624
     8.7864   8.8379   8.8521   8.9382   9.0117   9.1168   9.1425   9.2910
     9.3183   9.3429   9.3684   9.4881   9.6014   9.7884   9.7888   9.8038
     9.8135   9.8436   9.8538   9.8837   9.9019  10.0196  10.0218  10.0483
    10.0506  10.0951  10.1521  10.1748  10.1782  10.1938  10.2530  10.2883
    10.3022  10.3334  10.3931  10.4371  10.4812  10.5130  10.5228  10.5890
    10.6386  10.6528  10.6594  10.6686  10.7198  10.8072  10.8227  10.8271
    10.8500  10.8508  10.9057  10.9923  11.0217  11.0492  11.0821  11.1168
    11.1463  11.1809  11.2252  11.2503  11.2764  11.2857  11.3273  11.3542
    11.3667  11.3979  11.4034  11.4261  11.5088  11.6304  11.6734  11.7007
    11.7230  11.7295  11.7841  11.8373  11.8744  11.8990  11.9083  11.9519
    11.9921  12.0640  12.0935  12.1040  12.2106  12.3615  12.4093  12.4155
    12.4505  12.4633  12.4757  12.5615  12.7060  12.7786  12.8513  12.8635
    12.8652  12.8896  12.9134  13.1434  13.7772  14.2177  15.0024  15.6716
    16.1415  16.6845  16.7264  16.7756  16.9745  16.9816  16.9957  17.0285
    17.0453  17.0522  17.0557  17.0597  17.0765  17.5975  17.6679  17.8550
    18.6598  18.6951  18.8613  19.1882  19.4369  19.6418  20.1254  20.3885
    20.7092  20.7120

          k = 0.0000 0.1250-0.0484 ( 13868 PWs)   bands (ev):

   -66.8394 -66.7484 -66.7484 -66.7315 -66.7315 -62.1834 -62.1834 -62.1721
   -35.6047 -35.5581 -35.5562 -35.5196 -35.5196 -35.5010 -35.5010 -35.4661
   -35.4661 -35.4643 -35.4643 -35.4502 -35.4502 -35.4484 -35.4484 -31.0046
   -31.0046 -31.0044 -31.0044 -31.0021 -31.0021 -30.9962 -30.9919 -30.9896
     6.0362   6.0436   6.2814   6.3842   6.8232   6.9379   7.5517   7.5607
     8.4535   8.4830   8.5205   8.5381   8.5533   8.5598   8.6163   8.6711
     8.7869   8.8397   8.8548   8.9660   9.0594   9.0688   9.1284   9.2971
     9.3116   9.3481   9.3541   9.5410   9.5592   9.7863   9.7897   9.8093
     9.8124   9.8510   9.8532   9.8770   9.9039  10.0155  10.0178  10.0491
    10.0638  10.0841  10.1574  10.1702  10.1819  10.1964  10.2468  10.2835
    10.3230  10.3351  10.3618  10.4509  10.4629  10.5302  10.5866  10.5882
    10.5920  10.6288  10.6516  10.6605  10.7267  10.8063  10.8231  10.8284
    10.8567  10.8922  10.9267  10.9424  11.0025  11.0555  11.0833  11.1331
    11.1662  11.1827  11.2102  11.2348  11.2472  11.3080  11.3321  11.3381
    11.3752  11.4069  11.4074  11.4148  11.5501  11.6628  11.6727  11.6752
    11.6778  11.7109  11.7876  11.8282  11.8821  11.9041  11.9258  11.9579
    12.0279  12.0416  12.0894  12.1043  12.1902  12.3604  12.4182  12.4238
    12.4537  12.4661  12.4677  12.5550  12.7075  12.8293  12.8327  12.8517
    12.8636  12.8644  12.8899  13.2017  13.6960  14.3321  14.8798  15.8501
    16.0136  16.6857  16.7477  16.7613  16.9745  16.9816  16.9957  17.0285
    17.0452  17.0532  17.0546  17.0600  17.0765  17.5903  17.7424  17.7493
    18.7315  18.7599  18.9812  19.0602  19.3380  19.4711  20.3484  20.4372
    20.7569  20.7868

          k = 0.0000 0.2500 0.0000 ( 13848 PWs)   bands (ev):

   -66.8392 -66.7482 -66.7482 -66.7313 -66.7313 -62.1830 -62.1830 -62.1717
   -35.6043 -35.5623 -35.5560 -35.5192 -35.5192 -35.5006 -35.5006 -35.4703
   -35.4703 -35.4640 -35.4640 -35.4544 -35.4544 -35.4481 -35.4481 -31.0097
   -31.0097 -31.0040 -31.0040 -31.0017 -31.0017 -30.9972 -30.9956 -30.9893
     6.6925   6.8131   6.8315   7.1790   7.2102   7.6790   7.6867   8.0478
     8.2539   8.4828   8.4873   8.6957   8.6962   8.7473   8.8193   8.8288
     8.8634   8.8683   8.8835   8.8958   8.9287   9.0622   9.1070   9.1591
     9.2377   9.3157   9.4862   9.4972   9.5277   9.5763   9.5794   9.6345
     9.6380   9.6415   9.6520   9.7515   9.7979   9.8046   9.8106   9.8324
     9.8661  10.0027  10.0476  10.0549  10.1629  10.2702  10.2919  10.3605
    10.4176  10.5371  10.5732  10.5789  10.6086  10.6240  10.6741  10.7039
    10.7129  10.8136  10.8260  10.8316  10.8710  10.8887  10.9514  10.9968
    11.0109  11.0659  11.0680  11.1205  11.1700  11.2127  11.2355  11.2806
    11.2923  11.3613  11.3914  11.4402  11.4469  11.4675  11.4682  11.5365
    11.5395  11.5432  11.5831  11.6481  11.6548  11.6780  11.7033  11.7759
    11.8111  11.8302  11.8807  11.8813  11.8850  11.8991  11.9349  12.0209
    12.0493  12.0609  12.0716  12.0792  12.0875  12.2161  12.3237  12.4172
    12.4994  12.5592  12.5748  12.6115  12.7118  12.7188  12.8939  12.9098
    12.9156  12.9345  12.9488  12.9921  14.0237  14.1833  15.3377  15.6349
    15.9808  16.0114  16.0939  16.3191  16.3853  16.5324  16.5979  16.9046
    16.9165  16.9269  17.0332  17.0611  17.2963  17.2985  17.2996  17.3054
    17.4766  17.5807  17.8178  17.9145  18.5022  18.5178  18.5311  18.6323
    19.4225  20.4296

          k = 0.0000 0.2500 0.0242 ( 13862 PWs)   bands (ev):

   -66.8392 -66.7482 -66.7482 -66.7313 -66.7313 -62.1830 -62.1830 -62.1717
   -35.6043 -35.5623 -35.5560 -35.5192 -35.5192 -35.5006 -35.5006 -35.4703
   -35.4703 -35.4640 -35.4640 -35.4544 -35.4544 -35.4481 -35.4481 -31.0097
   -31.0097 -31.0040 -31.0040 -31.0017 -31.0017 -30.9972 -30.9956 -30.9893
     6.7007   6.7661   6.8907   7.0900   7.3090   7.5608   7.8019   8.0043
     8.2880   8.4210   8.5447   8.6512   8.7270   8.7553   8.8127   8.8193
     8.8635   8.8721   8.8824   8.8972   8.9388   9.0589   9.1136   9.1558
     9.2049   9.3531   9.4866   9.4960   9.5314   9.5608   9.5961   9.6311
     9.6355   9.6414   9.6458   9.7497   9.7563   9.8037   9.8092   9.8314
     9.9350  10.0079  10.0366  10.0614  10.1208  10.2591  10.3145  10.3922
    10.3953  10.5109  10.5914  10.5984  10.6026  10.6410  10.6606  10.7047
    10.7205  10.7435  10.8420  10.8695  10.8796  10.8888  10.9421  10.9637
    11.0418  11.0474  11.1061  11.1308  11.1311  11.2093  11.2382  11.2755
    11.3159  11.3595  11.3930  11.4345  11.4531  11.4545  11.4761  11.5349
    11.5403  11.5535  11.5774  11.5944  11.6431  11.7134  11.7447  11.7711
    11.8117  11.8356  11.8682  11.8777  11.8903  11.9094  11.9306  11.9820
    12.0019  12.0669  12.0703  12.1284  12.1316  12.2064  12.2832  12.4457
    12.4980  12.5563  12.5981  12.6055  12.7144  12.7186  12.7863  12.8936
    12.9105  12.9330  12.9496  13.1479  13.8180  14.4015  15.1752  15.7541
    15.9692  16.0097  16.1368  16.3101  16.3883  16.4298  16.6596  16.9046
    16.9165  16.9269  17.0353  17.0600  17.2963  17.2996  17.3054  17.3166
    17.4506  17.5542  17.8709  17.9839  18.2766  18.3581  18.7036  18.7934
    19.4661  20.0420

          k = 0.0000 0.2500-0.0484 ( 13842 PWs)   bands (ev):

   -66.8392 -66.7482 -66.7482 -66.7313 -66.7313 -62.1830 -62.1830 -62.1717
   -35.6043 -35.5623 -35.5560 -35.5192 -35.5192 -35.5006 -35.5006 -35.4703
   -35.4703 -35.4640 -35.4640 -35.4544 -35.4544 -35.4481 -35.4481 -31.0097
   -31.0097 -31.0040 -31.0040 -31.0017 -31.0017 -30.9972 -30.9956 -30.9893
     6.7221   6.7290   6.9437   7.0250   7.4040   7.4625   7.9085   7.9159
     8.3483   8.3582   8.5988   8.6015   8.7370   8.7652   8.8069   8.8104
     8.8609   8.8773   8.8803   8.8981   8.9496   9.0562   9.1207   9.1514
     9.1818   9.3819   9.4872   9.4947   9.5370   9.5510   9.6070   9.6219
     9.6362   9.6379   9.6408   9.7235   9.7615   9.8018   9.8080   9.8304
    10.0197  10.0199  10.0222  10.0459  10.0646  10.2531  10.3516  10.3555
    10.4349  10.4744  10.5851  10.6168  10.6397  10.6522  10.6547  10.6805
    10.7112  10.7222  10.8584  10.8594  10.8816  10.9107  10.9243  10.9653
    11.0269  11.0747  11.0846  11.1398  11.1634  11.1871  11.2054  11.3069
    11.3229  11.3574  11.3948  11.4298  11.4494  11.4635  11.4769  11.5202
    11.5415  11.5500  11.5632  11.6053  11.6239  11.7261  11.7642  11.7867
    11.8111  11.8487  11.8512  11.8733  11.9046  11.9131  11.9197  11.9546
    11.9746  12.0672  12.0702  12.1654  12.1856  12.1965  12.2225  12.4710
    12.4944  12.5515  12.5998  12.6673  12.6702  12.7169  12.7184  12.8934
    12.9114  12.9316  12.9503  13.2687  13.6706  14.5701  15.0190  15.8396
    15.9420  16.0222  16.2320  16.2625  16.3388  16.3939  16.6895  16.9046
    16.9165  16.9269  17.0378  17.0585  17.2963  17.2996  17.3054  17.3482
    17.4105  17.5329  17.9916  18.0437  18.1252  18.2317  18.8169  18.8334
    19.6540  19.7080

          k = 0.0000 0.3750 0.0000 ( 13856 PWs)   bands (ev):

   -66.8398 -66.7488 -66.7488 -66.7319 -66.7319 -62.1820 -62.1820 -62.1707
   -35.6039 -35.5663 -35.5558 -35.5187 -35.5187 -35.5002 -35.5002 -35.4744
   -35.4744 -35.4638 -35.4638 -35.4585 -35.4585 -35.4479 -35.4479 -31.0150
   -31.0150 -31.0035 -31.0035 -31.0026 -31.0014 -31.0014 -30.9951 -30.9890
     7.6532   7.7469   7.7543   7.9702   7.9712   8.1275   8.1407   8.1909
     8.2135   8.2676   8.2834   8.4114   8.4140   8.6000   8.6222   8.7685
     8.9257   8.9499   9.1150   9.1250   9.1826   9.1876   9.2554   9.2559
     9.2582   9.2754   9.2835   9.2968   9.3360   9.3519   9.4911   9.5466
     9.5880   9.5907   9.6084   9.6197   9.6866   9.7117   9.7322   9.8311
     9.9765   9.9938  10.0977  10.1023  10.1307  10.1529  10.2027  10.3873
    10.4021  10.5096  10.5348  10.5732  10.6357  10.6711  10.6750  10.7431
    10.8576  10.8578  10.8755  10.9656  11.1946  11.2078  11.2124  11.2369
    11.2467  11.3348  11.3390  11.3554  11.4522  11.4765  11.4826  11.5122
    11.5198  11.5334  11.5684  11.5750  11.6068  11.6279  11.7096  11.7340
    11.7448  11.7478  11.8011  11.8236  11.8302  11.8510  11.9095  11.9506
    12.0327  12.0556  12.0587  12.0895  12.1048  12.1089  12.1228  12.1357
    12.1914  12.2090  12.3129  12.3510  12.3942  12.4161  12.4537  12.4705
    12.5521  12.6338  12.6354  12.7190  12.7954  12.7997  12.9643  12.9705
    12.9834  12.9881  12.9900  13.0007  13.9355  14.0293  14.0540  14.2432
    14.2616  14.8537  14.8596  15.1188  15.1287  15.6040  15.6130  15.8864
    15.8868  16.8337  16.8399  16.8505  16.8514  16.9159  17.0011  17.0700
    17.0869  17.2112  17.4994  17.4997  17.5072  17.9399  17.9832  18.0772
    19.6321  19.6971

          k = 0.0000 0.3750 0.0242 ( 13870 PWs)   bands (ev):

   -66.8398 -66.7488 -66.7488 -66.7319 -66.7319 -62.1820 -62.1820 -62.1707
   -35.6039 -35.5663 -35.5558 -35.5187 -35.5187 -35.5002 -35.5002 -35.4744
   -35.4744 -35.4638 -35.4638 -35.4585 -35.4585 -35.4479 -35.4479 -31.0150
   -31.0150 -31.0035 -31.0035 -31.0026 -31.0014 -31.0014 -30.9951 -30.9890
     7.6596   7.7095   7.7994   7.9157   8.0207   8.1063   8.1566   8.1854
     8.2190   8.2519   8.3042   8.3734   8.4525   8.5630   8.6625   8.7511
     8.9338   8.9523   9.0991   9.1063   9.2036   9.2168   9.2546   9.2559
     9.2566   9.2644   9.2798   9.3097   9.3365   9.3471   9.4758   9.4999
     9.5761   9.6111   9.6197   9.6478   9.6876   9.7129   9.7508   9.8448
     9.9410  10.0200  10.0556  10.0974  10.1025  10.1292  10.3042  10.3807
    10.4143  10.4987  10.5357  10.5699  10.5978  10.6690  10.6897  10.7294
    10.7893  10.8951  10.9287  11.0075  11.1676  11.1860  11.2098  11.2381
    11.2647  11.2871  11.3715  11.3908  11.4175  11.4791  11.4814  11.5046
    11.5299  11.5353  11.5587  11.5768  11.6123  11.6344  11.6758  11.6975
    11.7215  11.7607  11.7990  11.8427  11.8640  11.8649  11.9207  11.9699
    12.0172  12.0369  12.0402  12.0628  12.0995  12.1042  12.1352  12.1970
    12.2257  12.2494  12.3036  12.3216  12.4130  12.4210  12.4493  12.4685
    12.5543  12.6192  12.6492  12.7053  12.7177  12.7958  12.7993  12.9707
    12.9882  12.9897  13.0007  13.2502  13.7897  13.9656  14.1203  14.2687
    14.4127  14.6868  14.8170  15.1119  15.3156  15.4897  15.7201  15.8017
    15.9015  16.8207  16.8337  16.8505  16.8514  16.9437  16.9991  17.0673
    17.1014  17.1989  17.4994  17.4997  17.5072  17.9271  18.0033  18.0716
    19.6411  19.7421

          k = 0.0000 0.3750-0.0484 ( 13872 PWs)   bands (ev):

   -66.8398 -66.7488 -66.7488 -66.7319 -66.7319 -62.1820 -62.1820 -62.1707
   -35.6039 -35.5663 -35.5558 -35.5187 -35.5187 -35.5002 -35.5002 -35.4744
   -35.4744 -35.4638 -35.4638 -35.4585 -35.4585 -35.4479 -35.4479 -31.0150
   -31.0150 -31.0035 -31.0035 -31.0026 -31.0014 -31.0014 -30.9951 -30.9890
     7.6763   7.6811   7.8414   7.8714   8.0523   8.0832   8.1714   8.1747
     8.2271   8.2392   8.3311   8.3420   8.4777   8.5359   8.7105   8.7110
     8.9416   8.9552   9.0849   9.0955   9.2341   9.2344   9.2455   9.2532
     9.2559   9.2562   9.2840   9.3204   9.3386   9.3406   9.4287   9.5110
     9.5630   9.6125   9.6197   9.6675   9.6890   9.7139   9.7861   9.8661
     9.9111   9.9917  10.0332  10.0972  10.1026  10.1275  10.3731  10.3854
    10.4265  10.4742  10.5368  10.5518  10.5668  10.6675  10.7199  10.7254
    10.7418  10.9012  10.9688  11.0774  11.1298  11.1467  11.2226  11.2322
    11.2680  11.2796  11.3542  11.4037  11.4445  11.4597  11.4731  11.5102
    11.5237  11.5436  11.5481  11.6030  11.6106  11.6189  11.6530  11.6677
    11.7272  11.7561  11.8095  11.8208  11.8869  11.9100  11.9434  11.9639
    12.0022  12.0102  12.0235  12.0678  12.0942  12.1133  12.1162  12.2479
    12.2564  12.2813  12.2825  12.4012  12.4100  12.4311  12.4397  12.4847
    12.4948  12.5567  12.6120  12.6555  12.7163  12.7964  12.7988  12.9708
    12.9885  12.9894  13.0008  13.4893  13.5636  14.0239  14.0245  14.4680
    14.4873  14.5804  14.6513  15.2478  15.2788  15.5920  15.6113  15.8429
    15.8552  16.8084  16.8337  16.8505  16.8514  16.9654  16.9954  17.0658
    17.1214  17.1806  17.4994  17.4997  17.5072  17.9186  18.0220  18.0630
    19.6928  19.7101

          k = 0.0000-0.5000 0.0000 ( 13918 PWs)   bands (ev):

   -66.8402 -66.7493 -66.7492 -66.7323 -66.7323 -62.1814 -62.1814 -62.1702
   -35.6037 -35.5680 -35.5557 -35.5186 -35.5186 -35.5000 -35.5000 -35.4760
   -35.4760 -35.4637 -35.4637 -35.4601 -35.4601 -35.4478 -35.4478 -31.0173
   -31.0173 -31.0049 -31.0033 -31.0033 -31.0013 -31.0013 -30.9948 -30.9888
     8.1299   8.1301   8.1578   8.1593   8.2150   8.2206   8.3092   8.3135
     8.3859   8.3877   8.4255   8.5001   8.5067   8.5534   8.6478   8.7007
     8.7045   8.7275   9.1532   9.1585   9.1670   9.1745   9.1797   9.2307
     9.2438   9.2482   9.2567   9.2581   9.4368   9.4636   9.4715   9.5033
     9.5370   9.5450   9.6986   9.7055   9.7545   9.7651   9.7817   9.8143
     9.9332   9.9828  10.0119  10.0345  10.0355  10.0391  10.1127  10.2669
    10.3010  10.3615  10.5583  10.5701  10.5831  10.5949  10.6222  10.7000
    10.7736  10.8636  11.0749  11.2265  11.2439  11.3151  11.3177  11.3653
    11.4295  11.4314  11.5188  11.5201  11.5282  11.5343  11.5694  11.5708
    11.5708  11.6096  11.6219  11.6610  11.6662  11.6907  11.7333  11.7757
    11.7905  11.8009  11.8177  11.8272  11.9311  12.0422  12.0658  12.2090
    12.2693  12.2975  12.3639  12.3668  12.4095  12.4167  12.4241  12.4841
    12.5167  12.5777  12.5970  12.6331  12.6594  12.6595  12.6638  12.7049
    12.7421  12.7980  12.8082  12.8325  12.8511  12.9562  12.9707  12.9936
    13.0113  13.0199  13.0305  13.1781  13.2560  13.3114  13.3847  13.7434
    13.8177  13.8521  13.8840  14.3706  14.4353  14.4670  14.4854  14.8059
    14.8402  16.5895  16.7076  16.8148  16.8203  16.8312  16.8332  16.8986
    16.8986  16.8988  17.5734  17.5734  17.5812  17.9385  17.9744  17.9914
    19.6618  19.6763

          k = 0.0000-0.5000 0.0242 ( 13918 PWs)   bands (ev):

   -66.8402 -66.7493 -66.7492 -66.7323 -66.7323 -62.1814 -62.1814 -62.1702
   -35.6037 -35.5680 -35.5557 -35.5186 -35.5186 -35.5000 -35.5000 -35.4760
   -35.4760 -35.4637 -35.4637 -35.4601 -35.4601 -35.4478 -35.4478 -31.0173
   -31.0173 -31.0049 -31.0033 -31.0033 -31.0013 -31.0013 -30.9948 -30.9888
     8.1287   8.1329   8.1518   8.1629   8.2152   8.2223   8.3043   8.3192
     8.3735   8.3936   8.4342   8.4987   8.5025   8.5553   8.6476   8.6965
     8.7087   8.7282   9.1532   9.1587   9.1610   9.1668   9.1797   9.2012
     9.2439   9.2567   9.2774   9.3022   9.4362   9.4368   9.4710   9.5038
     9.5129   9.5370   9.7157   9.7206   9.7598   9.7651   9.7786   9.8141
     9.9332   9.9833  10.0170  10.0341  10.0356  10.0390  10.1218  10.2411
    10.2822  10.3799  10.5587  10.5701  10.5823  10.5957  10.6222  10.7000
    10.7713  10.8784  11.0748  11.2274  11.2439  11.3237  11.3282  11.3654
    11.4136  11.4283  11.5148  11.5200  11.5327  11.5363  11.5396  11.5697
    11.5721  11.6056  11.6065  11.6508  11.6624  11.7274  11.7433  11.7755
    11.7934  11.7935  11.8177  11.8235  11.9589  12.0428  12.0788  12.2090
    12.2291  12.2962  12.3515  12.3889  12.4099  12.4183  12.4237  12.4939
    12.5188  12.5682  12.5815  12.6425  12.6567  12.6639  12.6794  12.7075
    12.7420  12.7875  12.8082  12.8221  12.8320  12.9918  12.9921  12.9936
    13.0116  13.0196  13.0305  13.1456  13.2138  13.3381  13.4267  13.7051
    13.7344  13.9383  13.9449  14.2763  14.3243  14.5669  14.5988  14.7753
    14.8126  16.5922  16.7083  16.8148  16.8179  16.8312  16.8332  16.8981
    16.8991  16.8991  17.5734  17.5734  17.5812  17.9386  17.9744  17.9913
    19.6983  19.7022

          k = 0.0000-0.5000-0.0484 ( 13892 PWs)   bands (ev):

   -66.8402 -66.7493 -66.7492 -66.7323 -66.7323 -62.1814 -62.1814 -62.1702
   -35.6037 -35.5680 -35.5557 -35.5186 -35.5186 -35.5000 -35.5000 -35.4760
   -35.4760 -35.4637 -35.4637 -35.4601 -35.4601 -35.4478 -35.4478 -31.0173
   -31.0173 -31.0049 -31.0033 -31.0033 -31.0013 -31.0013 -30.9948 -30.9888
     8.1277   8.1398   8.1422   8.1667   8.2097   8.2300   8.2950   8.3347
     8.3555   8.4006   8.4407   8.4971   8.4982   8.5570   8.6473   8.6942
     8.7110   8.7290   9.1515   9.1532   9.1589   9.1665   9.1797   9.1867
     9.2440   9.2567   9.3111   9.3370   9.4017   9.4368   9.4706   9.4787
     9.5043   9.5370   9.7294   9.7332   9.7647   9.7677   9.7740   9.8139
     9.9332   9.9838  10.0232  10.0338  10.0357  10.0389  10.1334  10.2191
    10.2612  10.3935  10.5590  10.5701  10.5816  10.5964  10.6221  10.7000
    10.7689  10.8933  11.0747  11.2282  11.2439  11.3333  11.3549  11.3656
    11.3753  11.4267  11.5078  11.5217  11.5232  11.5373  11.5452  11.5648
    11.5743  11.5801  11.6077  11.6472  11.6611  11.7497  11.7550  11.7752
    11.7816  11.7975  11.8177  11.8191  11.9929  12.0433  12.0923  12.1896
    12.2090  12.2949  12.3392  12.4042  12.4103  12.4198  12.4232  12.5045
    12.5219  12.5591  12.5678  12.6510  12.6542  12.6640  12.6996  12.7098
    12.7420  12.7774  12.7960  12.8083  12.8316  12.9936  13.0120  13.0193
    13.0198  13.0270  13.0305  13.1107  13.1743  13.3609  13.4643  13.6758
    13.6862  13.9933  14.0083  14.2057  14.2521  14.6724  14.6885  14.7046
    14.7597  16.5948  16.7091  16.8148  16.8156  16.8312  16.8332  16.8977
    16.8992  16.8996  17.5734  17.5734  17.5811  17.9387  17.9744  17.9912
    19.7403  19.8093

          k = 0.1250 0.1250 0.0000 ( 13839 PWs)   bands (ev):

   -66.8391 -66.7481 -66.7481 -66.7312 -66.7312 -62.1834 -62.1834 -62.1722
   -35.6045 -35.5580 -35.5580 -35.5194 -35.5194 -35.5008 -35.5008 -35.4661
   -35.4661 -35.4660 -35.4660 -35.4501 -35.4501 -35.4501 -35.4501 -31.0044
   -31.0044 -31.0043 -31.0043 -31.0041 -31.0041 -30.9960 -30.9919 -30.9917
     6.2354   6.3655   6.3884   6.7784   6.8215   7.3958   7.4264   7.9138
     8.3516   8.5891   8.6342   8.6865   8.6944   8.7159   8.7318   8.7459
     8.7489   8.9344   8.9526   9.0091   9.0230   9.1216   9.1545   9.3643
     9.3675   9.3899   9.3993   9.4700   9.5504   9.6404   9.6818   9.7067
     9.7473   9.8092   9.8153   9.8767   9.8858   9.8901   9.8939   9.8948
     9.9145   9.9210  10.0719  10.1412  10.1496  10.1571  10.1975  10.2076
    10.3355  10.3439  10.3538  10.3585  10.3675  10.3956  10.5145  10.5330
    10.5339  10.5442  10.6621  10.7137  10.7204  10.7225  10.7926  10.7993
    10.8439  10.8996  10.9021  11.0879  11.1291  11.1355  11.1376  11.1661
    11.1922  11.2065  11.2127  11.2963  11.3824  11.4007  11.4204  11.4375
    11.4417  11.4848  11.5259  11.5493  11.6001  11.6093  11.6580  11.7786
    11.7952  11.8007  11.8344  11.8707  11.9028  11.9737  11.9957  12.0262
    12.0658  12.0908  12.1120  12.1717  12.2816  12.3478  12.3822  12.4243
    12.5117  12.5317  12.5882  12.6102  12.6535  12.7070  12.7371  12.7596
    12.7677  12.7883  12.9989  13.0773  13.9982  14.1773  15.2805  15.6581
    16.2907  16.7994  16.8247  16.8630  16.8942  16.8976  16.9259  16.9699
    16.9777  17.0030  17.0099  17.0132  17.0252  17.6592  17.6838  18.2743
    18.6718  19.1964  19.2530  19.3274  19.4806  19.5698  19.6557  19.9560
    20.0420  20.1746

          k = 0.1250 0.1250 0.0242 ( 13842 PWs)   bands (ev):

   -66.8391 -66.7481 -66.7481 -66.7312 -66.7312 -62.1834 -62.1834 -62.1722
   -35.6045 -35.5580 -35.5580 -35.5194 -35.5194 -35.5008 -35.5008 -35.4661
   -35.4661 -35.4660 -35.4660 -35.4501 -35.4501 -35.4501 -35.4501 -31.0044
   -31.0044 -31.0043 -31.0043 -31.0041 -31.0041 -30.9960 -30.9919 -30.9917
     6.2443   6.3154   6.4518   6.6798   6.9335   7.2531   7.5725   7.8557
     8.4005   8.5907   8.6076   8.6514   8.6869   8.6940   8.7329   8.7461
     8.8269   8.9334   8.9536   8.9591   9.0597   9.1062   9.1754   9.3150
     9.3607   9.4130   9.4431   9.4615   9.5370   9.6229   9.6887   9.7290
     9.7386   9.8025   9.8204   9.8774   9.8810   9.8850   9.8979   9.8998
     9.9135   9.9212  10.0814  10.1411  10.1497  10.1542  10.1571  10.2373
    10.3359  10.3495  10.3533  10.3591  10.3754  10.3956  10.4910  10.5327
    10.5340  10.5569  10.6661  10.6985  10.7302  10.7338  10.7771  10.8092
    10.8244  10.8877  10.9344  11.0859  11.1241  11.1359  11.1369  11.1671
    11.1754  11.2075  11.2460  11.3059  11.3584  11.3795  11.4148  11.4385
    11.4541  11.4691  11.5333  11.5475  11.6232  11.6256  11.6565  11.7768
    11.8008  11.8013  11.8264  11.8672  11.9102  11.9188  11.9886  12.0599
    12.0732  12.0904  12.1381  12.1600  12.2840  12.3315  12.3720  12.4427
    12.5077  12.5273  12.5955  12.6123  12.6497  12.7155  12.7415  12.7634
    12.7661  12.7906  12.9042  13.1844  13.8529  14.3410  15.1396  15.8033
    16.2302  16.8159  16.8239  16.8651  16.8812  16.8928  16.9312  16.9731
    16.9806  17.0031  17.0057  17.0131  17.0252  17.6180  17.7681  18.1181
    18.8928  19.2055  19.2758  19.2988  19.4582  19.5169  19.7355  19.7966
    19.8744  20.1654

[...]
    11.5788  11.6892  11.6899  11.6993  11.8542  11.8742  11.8812  11.9039
    11.9088  12.0002  12.0217  12.0360  12.0844  12.1020  12.1238  12.2509
    12.2704  12.3278  12.4071  12.4433  12.4506  12.4568  12.4643  12.8319
    12.8417  12.9154  12.9943  13.1472  13.1932  13.2740  13.3774  13.7440
    13.7682  13.8969  14.0912  14.3062  14.4261  14.5223  14.5224  14.7659
    14.8186  15.1816  15.4586  15.6441  16.0578  16.1606  16.2360  16.9115
    16.9226  17.0552  17.0850  17.1032  17.1097  17.1152  17.1166  17.1746
    17.2821  17.5061  17.5175  17.7430  17.7716  17.8342  17.8769  17.9468
    17.9875  18.1529  18.1856  18.2046  18.3110  18.3930  18.4491  18.4696
    19.8546  19.9923

          k = 0.3750 0.3750 0.0000 ( 13948 PWs)   bands (ev):

   -66.7904 -66.7904 -66.7606 -62.2111 -62.1422 -62.1422 -62.1302 -62.1302
   -35.5547 -35.5547 -35.5290 -35.5190 -35.5190 -35.5190 -35.5190 -35.4879
   -35.4878 -31.0439 -31.0437 -31.0277 -30.9734 -30.9734 -30.9732 -30.9732
   -30.9658 -30.9658 -30.9612 -30.9612 -30.9610 -30.9610 -30.9542 -30.9542
     8.1353   8.2162   8.2771   8.4821   8.5374   8.5754   8.7041   8.7060
     9.0251   9.0425   9.0763   9.0973   9.1069   9.2019   9.2333   9.2491
     9.2763   9.3344   9.3451   9.3627   9.3858   9.4137   9.4320   9.5026
     9.5084   9.5366   9.5395   9.6234   9.6661   9.6985   9.7076   9.8653
     9.9654   9.9776  10.0077  10.0154  10.0457  10.0554  10.1075  10.1376
    10.1523  10.2058  10.2159  10.2844  10.2910  10.3195  10.3287  10.4985
    10.5109  10.6009  10.6460  10.6661  10.6948  10.7218  10.8064  10.8286
    10.8780  11.0039  11.0127  11.0184  11.1186  11.1852  11.2245  11.2433
    11.2877  11.3012  11.3064  11.4654  11.4744  11.4763  11.5172  11.5566
    11.5795  11.6299  11.6427  11.6493  11.7838  11.9617  11.9682  11.9725
    11.9886  11.9994  12.0125  12.0136  12.0269  12.1246  12.1365  12.1452
    12.1468  12.2576  12.2602  12.2926  12.3542  12.4125  12.4954  12.5298
    12.6877  12.7074  13.0506  13.0804  13.4170  13.4746  13.7048  14.1706
    14.3344  14.6498  14.8721  14.8832  15.1074  15.1855  15.2099  15.3613
    15.3858  16.2634  16.3668  16.3819  16.4330  16.4546  16.6002  17.0109
    17.0530  17.0959  17.1111  17.1510  17.2826  17.3409  17.4479  17.5143
    17.6969  17.8242  17.8617  17.8743  17.8931  17.9209  17.9973  18.0090
    18.1681  18.2026  18.2524  18.2558  18.4274  18.5579  18.8708  18.9077
    18.9723  19.0334

          k = 0.3750 0.3750 0.0242 ( 13940 PWs)   bands (ev):

   -66.7904 -66.7904 -66.7606 -62.2111 -62.1422 -62.1422 -62.1302 -62.1302
   -35.5547 -35.5547 -35.5290 -35.5190 -35.5190 -35.5190 -35.5190 -35.4879
   -35.4878 -31.0439 -31.0437 -31.0277 -30.9734 -30.9734 -30.9732 -30.9732
   -30.9658 -30.9658 -30.9612 -30.9612 -30.9610 -30.9610 -30.9542 -30.9542
     8.1384   8.2047   8.2884   8.4833   8.5358   8.5812   8.6422   8.7739
     8.9897   9.0523   9.0800   9.0929   9.1335   9.1833   9.2075   9.2647
     9.2861   9.3355   9.3573   9.3671   9.3840   9.3938   9.4606   9.4741
     9.5128   9.5401   9.5456   9.6291   9.6447   9.6660   9.7666   9.8827
     9.9047  10.0026  10.0045  10.0076  10.0168  10.0822  10.1015  10.1537
    10.1948  10.2066  10.2176  10.2293  10.2861  10.3336  10.3596  10.4297
    10.5485  10.6005  10.6334  10.6717  10.7030  10.7525  10.7906  10.8375
    10.8779  10.9610  11.0125  11.0186  11.1400  11.1850  11.2178  11.2549
    11.2888  11.3039  11.3193  11.4491  11.4605  11.4849  11.5114  11.5606
    11.5772  11.6306  11.6420  11.6496  11.8055  11.9112  11.9692  11.9850
    12.0011  12.0121  12.0139  12.0191  12.0302  12.1076  12.1105  12.1618
    12.1648  12.2490  12.2694  12.2905  12.3410  12.4276  12.4903  12.5412
    12.6278  12.7773  12.9713  13.1597  13.3567  13.5252  13.6903  14.1854
    14.3145  14.6747  14.8201  14.9181  15.1142  15.1633  15.2277  15.3560
    15.3887  16.2655  16.3598  16.3627  16.4605  16.4671  16.5827  17.0164
    17.0491  17.0976  17.1097  17.1510  17.2899  17.3335  17.4311  17.5304
    17.6995  17.8317  17.8617  17.8742  17.8931  17.9086  17.9535  18.0613
    18.1303  18.2054  18.2881  18.3444  18.3643  18.6185  18.6675  18.7843
    18.9704  19.1400

          k = 0.3750 0.3750-0.0484 ( 13950 PWs)   bands (ev):

   -66.7904 -66.7904 -66.7606 -62.2111 -62.1422 -62.1422 -62.1302 -62.1302
   -35.5547 -35.5547 -35.5290 -35.5190 -35.5190 -35.5190 -35.5190 -35.4879
   -35.4878 -31.0439 -31.0437 -31.0277 -30.9734 -30.9734 -30.9732 -30.9732
   -30.9658 -30.9658 -30.9612 -30.9612 -30.9610 -30.9610 -30.9542 -30.9542
     8.1421   8.1946   8.2979   8.4844   8.5351   8.5941   8.6067   8.8120
     8.9602   9.0542   9.0801   9.1004   9.1479   9.1799   9.1807   9.2709
     9.3123   9.3273   9.3371   9.3528   9.4015   9.4408   9.4467   9.4600
     9.4866   9.5422   9.5911   9.5932   9.6412   9.6578   9.8317   9.8368
     9.9303   9.9374  10.0063  10.0070  10.0174  10.1004  10.1480  10.1585
    10.1608  10.1973  10.2252  10.2463  10.2780  10.3452  10.3738  10.3814
    10.5596  10.5958  10.6225  10.6844  10.7092  10.7763  10.7926  10.8388
    10.8777  10.9179  11.0124  11.0188  11.1534  11.1847  11.2141  11.2609
    11.2921  11.3009  11.3522  11.4111  11.4577  11.4972  11.5003  11.5659
    11.5734  11.6314  11.6412  11.6498  11.8522  11.8572  11.9706  11.9817
    12.0022  12.0118  12.0141  12.0338  12.0596  12.0734  12.1012  12.1720
    12.1740  12.2444  12.2755  12.2874  12.3302  12.4420  12.4832  12.5733
    12.5761  12.8395  12.9049  13.2255  13.2950  13.5614  13.6713  14.2053
    14.2901  14.7120  14.7756  14.9323  15.1287  15.1405  15.2387  15.3511
    15.3910  16.2677  16.3510  16.3532  16.4657  16.5051  16.5539  17.0236
    17.0435  17.0996  17.1080  17.1510  17.3015  17.3218  17.4185  17.5422
    17.7020  17.8551  17.8617  17.8656  17.8742  17.8932  17.9684  18.0307
    18.1904  18.2214  18.2251  18.3984  18.4686  18.4980  18.6591  18.6649
    18.9449  19.0866

          k = 0.3750-0.5000 0.0000 ( 13934 PWs)   bands (ev):

   -66.7905 -66.7905 -66.7607 -62.2109 -62.1420 -62.1420 -62.1299 -62.1299
   -35.5546 -35.5546 -35.5288 -35.5206 -35.5206 -35.5188 -35.5188 -35.4894
   -35.4877 -31.0460 -31.0436 -31.0276 -30.9755 -30.9755 -30.9731 -30.9731
   -30.9657 -30.9657 -30.9633 -30.9633 -30.9609 -30.9609 -30.9541 -30.9541
     8.2635   8.2734   8.3237   8.3530   8.3532   8.4412   8.7353   8.7498
     8.9232   9.0075   9.1347   9.1503   9.1937   9.2012   9.2151   9.2177
     9.2442   9.2927   9.2964   9.3101   9.3440   9.3509   9.4326   9.4331
     9.4609   9.5048   9.6194   9.6463   9.6558   9.6746   9.8948   9.9072
     9.9368   9.9480   9.9943  10.0127  10.0366  10.0500  10.1267  10.1412
    10.2103  10.2375  10.2632  10.3506  10.3887  10.4161  10.4324  10.5694
    10.6214  10.7085  10.7182  10.7942  10.8017  10.8215  10.9064  10.9753
    11.1427  11.1554  11.2002  11.2029  11.2161  11.2455  11.2983  11.3776
    11.3806  11.4340  11.4617  11.5150  11.5174  11.6440  11.6796  11.6835
    11.6924  11.8005  11.8273  11.8430  11.9327  11.9662  11.9870  11.9882
    11.9918  12.0812  12.1150  12.1339  12.1377  12.1453  12.1534  12.2101
    12.2198  12.2525  12.3483  12.3599  12.3887  12.4108  12.4570  12.9744
    13.0018  13.1492  13.2419  13.2949  13.6121  13.7302  13.8649  14.1886
    14.2336  14.3152  14.5255  14.5325  14.5944  14.6032  15.3733  15.4232
    15.4470  15.6052  15.7712  15.9182  16.7696  16.8300  16.8861  17.0430
    17.0497  17.0655  17.0791  17.0810  17.2530  17.2664  17.4205  17.4998
    17.6529  17.8712  17.9257  17.9595  18.0297  18.0313  18.0896  18.1067
    18.1700  18.2415  18.4441  18.5026  18.5561  18.5753  18.8384  18.9476
    18.9603  19.0416

          k = 0.3750-0.5000 0.0242 ( 13948 PWs)   bands (ev):

   -66.7905 -66.7905 -66.7607 -62.2109 -62.1420 -62.1420 -62.1299 -62.1299
   -35.5546 -35.5546 -35.5288 -35.5206 -35.5206 -35.5188 -35.5188 -35.4894
   -35.4877 -31.0460 -31.0436 -31.0276 -30.9755 -30.9755 -30.9731 -30.9731
   -30.9657 -30.9657 -30.9633 -30.9633 -30.9609 -30.9609 -30.9541 -30.9541
     8.2658   8.2753   8.3181   8.3351   8.3701   8.4472   8.7315   8.7373
     8.9465   9.0217   9.1259   9.1272   9.1803   9.2001   9.2091   9.2170
     9.2463   9.2893   9.3191   9.3218   9.3414   9.3603   9.4226   9.4228
     9.4749   9.5186   9.5814   9.6099   9.6923   9.7272   9.8304   9.8718
     9.9605   9.9933  10.0024  10.0112  10.0365  10.0508  10.1373  10.1505
    10.2057  10.2346  10.2595  10.3108  10.3193  10.4792  10.4907  10.5676
    10.6236  10.6992  10.7102  10.7606  10.7954  10.8081  10.9403  10.9855
    11.1421  11.1608  11.2003  11.2097  11.2118  11.2459  11.2871  11.3586
    11.3872  11.4401  11.4530  11.5256  11.5279  11.6342  11.6631  11.6955
    11.6985  11.8005  11.8272  11.8422  11.9343  11.9676  11.9812  11.9908
    11.9922  12.0790  12.1108  12.1375  12.1404  12.1453  12.1537  12.2095
    12.2181  12.2558  12.3580  12.3647  12.3879  12.4023  12.4485  12.9826
    13.0057  13.1367  13.2375  13.3016  13.6157  13.7289  13.8619  14.1926
    14.2361  14.3086  14.5259  14.5353  14.5962  14.5996  15.3727  15.4237
    15.4474  15.6049  15.7712  15.9182  16.7677  16.8283  16.8901  17.0438
    17.0491  17.0657  17.0789  17.0817  17.2579  17.2624  17.4067  17.5113
    17.6632  17.8498  17.9127  17.9815  18.0312  18.0424  18.0826  18.1078
    18.1718  18.2517  18.3847  18.4584  18.6250  18.6302  18.8424  18.9432
    18.9501  19.0385

          k = 0.3750-0.5000-0.0484 ( 13940 PWs)   bands (ev):

   -66.7905 -66.7905 -66.7607 -62.2109 -62.1420 -62.1420 -62.1299 -62.1299
   -35.5546 -35.5546 -35.5288 -35.5206 -35.5206 -35.5188 -35.5188 -35.4894
   -35.4877 -31.0460 -31.0436 -31.0276 -30.9755 -30.9755 -30.9731 -30.9731
   -30.9657 -30.9657 -30.9633 -30.9633 -30.9609 -30.9609 -30.9541 -30.9541
     8.2685   8.2776   8.3125   8.3268   8.3772   8.4531   8.7262   8.7279
     8.9733   9.0404   9.0976   9.1129   9.1705   9.2017   9.2040   9.2164
     9.2484   9.2920   9.3153   9.3387   9.3471   9.3888   9.3990   9.4082
     9.4949   9.5412   9.5536   9.5757   9.7450   9.7722   9.7784   9.8166
     9.9865   9.9951  10.0081  10.0230  10.0364  10.0519  10.1704  10.1740
    10.1754  10.2148  10.2644  10.2809  10.2860  10.5163  10.5383  10.5657
    10.6295  10.6718  10.7158  10.7165  10.7911  10.8059  10.9636  10.9945
    11.1415  11.1705  11.1980  11.2006  11.2225  11.2470  11.2778  11.3377
    11.3963  11.4433  11.4447  11.5357  11.5385  11.6249  11.6531  11.7004
    11.7033  11.8005  11.8272  11.8415  11.9361  11.9692  11.9777  11.9898
    11.9938  12.0770  12.1074  12.1401  12.1429  12.1453  12.1540  12.2089
    12.2164  12.2591  12.3711  12.3745  12.3851  12.3887  12.4382  12.9918
    13.0096  13.1238  13.2330  13.3076  13.6194  13.7276  13.8588  14.1971
    14.2386  14.3017  14.5200  14.5480  14.5862  14.6041  15.3721  15.4243
    15.4479  15.6047  15.7712  15.9182  16.7658  16.8266  16.8940  17.0445
    17.0486  17.0659  17.0786  17.0824  17.2497  17.2734  17.3918  17.5227
    17.6735  17.8328  17.9006  17.9992  18.0309  18.0614  18.0679  18.1093
    18.1746  18.2633  18.3450  18.4285  18.6607  18.6886  18.8515  18.9279
    18.9488  18.9637

          k =-0.5000-0.5000 0.0000 ( 13964 PWs)   bands (ev):

   -66.7905 -66.7905 -66.7607 -62.2107 -62.1418 -62.1418 -62.1298 -62.1298
   -35.5545 -35.5545 -35.5288 -35.5204 -35.5204 -35.5204 -35.5204 -35.4893
   -35.4893 -31.0458 -31.0458 -31.0275 -30.9753 -30.9753 -30.9753 -30.9753
   -30.9656 -30.9656 -30.9631 -30.9631 -30.9631 -30.9631 -30.9540 -30.9540
     8.1889   8.1923   8.2428   8.2742   8.2797   8.3650   8.7117   8.7370
     8.8511   8.9306   9.1747   9.2020   9.2076   9.2152   9.2664   9.2664
     9.3029   9.3029   9.3258   9.3258   9.4243   9.4420   9.4564   9.4564
     9.4586   9.4586   9.7038   9.7038   9.7046   9.7046   9.9005   9.9672
     9.9672   9.9680   9.9680   9.9788   9.9793   9.9793  10.0355  10.0615
    10.0615  10.0782  10.0782  10.5179  10.5179  10.5391  10.5649  10.5649
    10.5884  10.6378  10.6774  10.6801  11.0724  11.0724  11.1557  11.1557
    11.1874  11.1963  11.1997  11.2534  11.3171  11.3324  11.4252  11.4253
    11.4494  11.7905  11.7905  11.9334  11.9334  11.9606  11.9644  11.9645
    11.9810  12.0054  12.0064  12.0160  12.0160  12.0505  12.0546  12.0546
    12.0734  12.1027  12.1032  12.1113  12.1113  12.1705  12.1705  12.1815
    12.1828  12.1978  12.2392  12.2423  12.3051  12.3498  12.3851  13.4021
    13.4175  13.4295  13.4313  13.4338  13.8936  13.8936  14.0930  14.0930
    14.1827  14.1827  14.5812  14.5812  14.6378  14.6378  15.8849  15.8849
    15.9514  15.9514  16.0065  16.0065  16.6155  16.6534  16.6760  16.8062
    16.8282  16.9651  17.1069  17.1943  17.3876  17.3876  17.4779  17.4779
    17.7668  17.7786  17.8706  18.0217  18.0368  18.0712  18.1111  18.1111
    18.1221  18.1221  18.1973  18.1973  18.2083  18.3298  18.3298  18.3944
    18.5055  18.7593

          k =-0.5000-0.5000 0.0242 ( 13960 PWs)   bands (ev):

   -66.7905 -66.7905 -66.7607 -62.2107 -62.1418 -62.1418 -62.1298 -62.1298
   -35.5545 -35.5545 -35.5288 -35.5204 -35.5204 -35.5204 -35.5204 -35.4893
   -35.4893 -31.0458 -31.0458 -31.0275 -30.9753 -30.9753 -30.9753 -30.9753
   -30.9656 -30.9656 -30.9631 -30.9631 -30.9631 -30.9631 -30.9540 -30.9540
     8.1904   8.1952   8.2370   8.2593   8.2941   8.3703   8.7054   8.7167
     8.8869   8.9520   9.1044   9.1276   9.2684   9.2684   9.2751   9.2903
     9.2932   9.2932   9.3411   9.3411   9.4085   9.4146   9.4146   9.4239
     9.5082   9.5082   9.6316   9.6316   9.7843   9.7843   9.9033   9.9629
     9.9629   9.9680   9.9680   9.9696   9.9696   9.9795   9.9816   9.9816
    10.0340  10.1791  10.1791  10.4146  10.4146  10.5383  10.5884  10.6393
    10.6648  10.6648  10.6773  10.6793  10.9885  10.9885  11.1875  11.1961
    11.1996  11.2255  11.2255  11.2536  11.3171  11.3323  11.4252  11.4253
    11.4494  11.7447  11.7447  11.9606  11.9644  11.9645  11.9810  11.9841
    11.9841  12.0054  12.0064  12.0160  12.0160  12.0505  12.0546  12.0546
    12.0734  12.1027  12.1032  12.1113  12.1113  12.1530  12.1530  12.1818
    12.1823  12.1984  12.2385  12.2420  12.3056  12.3498  12.3850  13.4021
    13.4175  13.4295  13.4313  13.4338  13.9120  13.9120  14.0431  14.0431
    14.2204  14.2204  14.5668  14.5668  14.6464  14.6464  15.8856  15.8856
    15.9492  15.9492  16.0083  16.0083  16.6155  16.6534  16.6762  16.8054
    16.8282  16.9669  17.1068  17.1917  17.3386  17.3386  17.5673  17.5673
    17.7790  17.7962  17.8508  17.9824  18.0258  18.0258  18.0368  18.0812
    18.1111  18.1111  18.1221  18.1221  18.2407  18.3917  18.4955  18.5320
    18.5320  18.7597

          k =-0.5000-0.5000-0.0484 ( 13992 PWs)   bands (ev):

   -66.7905 -66.7905 -66.7607 -62.2107 -62.1418 -62.1418 -62.1298 -62.1298
   -35.5545 -35.5545 -35.5288 -35.5204 -35.5204 -35.5204 -35.5204 -35.4893
   -35.4893 -31.0458 -31.0458 -31.0275 -30.9753 -30.9753 -30.9753 -30.9753
   -30.9656 -30.9656 -30.9631 -30.9631 -30.9631 -30.9631 -30.9540 -30.9540
     8.1921   8.1989   8.2305   8.2516   8.3010   8.3756   8.6996   8.7013
     8.9269   8.9816   9.0546   9.0806   9.2715   9.2715   9.2855   9.2855
     9.3247   9.3449   9.3598   9.3598   9.3811   9.3887   9.3887   9.3902
     9.5628   9.5628   9.5696   9.5696   9.8703   9.8703   9.8730   9.8730
     9.9062   9.9676   9.9676   9.9680   9.9680   9.9801   9.9801   9.9802
    10.0325  10.2889  10.2889  10.2999  10.2999  10.5376  10.5885  10.6407
    10.6773  10.6784  10.7369  10.7369  10.9180  10.9180  11.1876  11.1960
    11.1995  11.2538  11.2690  11.2690  11.3171  11.3322  11.4252  11.4253
    11.4494  11.7085  11.7085  11.9606  11.9644  11.9645  11.9810  12.0054
    12.0064  12.0160  12.0160  12.0331  12.0331  12.0505  12.0546  12.0546
    12.0734  12.1027  12.1032  12.1113  12.1113  12.1259  12.1259  12.1819
    12.1822  12.1990  12.2378  12.2418  12.3061  12.3498  12.3849  13.4021
    13.4175  13.4295  13.4312  13.4338  13.9486  13.9486  13.9873  13.9873
    14.2463  14.2463  14.5541  14.5541  14.6527  14.6527  15.8863  15.8863
    15.9470  15.9470  16.0100  16.0100  16.6154  16.6533  16.6764  16.8047
    16.8283  16.9687  17.1066  17.1891  17.3120  17.3120  17.6591  17.6591
    17.8093  17.8138  17.8204  17.8998  17.8998  17.9420  18.0368  18.0905
    18.1111  18.1111  18.1221  18.1221  18.2690  18.3889  18.4840  18.7602
    18.7924  18.7924

     the Fermi energy is    15.2996 ev

!    total energy              =  -14693.99967037 Ry
     Harris-Foulkes estimate   =  -14693.99966373 Ry
     estimated scf accuracy    <       0.00000063 Ry

     total all-electron energy =   -626921.595392 Ry

     The total energy is the sum of the following terms:

     one-electron contribution =    -714.32831103 Ry
     hartree contribution      =     656.42437583 Ry
     xc contribution           =    -737.89563693 Ry
     ewald contribution        =   -2196.78933708 Ry
     Hubbard energy            =       0.44347291 Ry
     one-center paw contrib.   =  -11701.85423408 Ry

     total magnetization       =     8.88 Bohr mag/cell
     absolute magnetization    =    37.38 Bohr mag/cell

     convergence has been achieved in  24 iterations

     Writing output data file mnau2.save/
 
     init_run     :     69.45s CPU     71.10s WALL (       1 calls)
     electrons    :   3720.21s CPU   3794.22s WALL (       1 calls)

     Called by init_run:
     wfcinit      :     65.69s CPU     67.11s WALL (       1 calls)
     potinit      :      1.64s CPU      1.71s WALL (       1 calls)
     hinit0       :      1.17s CPU      1.28s WALL (       1 calls)

     Called by electrons:
     c_bands      :   3332.02s CPU   3392.50s WALL (      24 calls)
     sum_band     :    347.36s CPU    357.53s WALL (      24 calls)
     v_of_rho     :      2.69s CPU      2.73s WALL (      25 calls)
     newd         :     11.90s CPU     12.06s WALL (      25 calls)
     PAW_pot      :     26.81s CPU     27.08s WALL (      25 calls)
     mix_rho      :      0.60s CPU      0.64s WALL (      24 calls)

     Called by c_bands:
     init_us_2    :      9.32s CPU      9.40s WALL (    4500 calls)
     cegterg      :   3245.68s CPU   3304.73s WALL (    2160 calls)

     Called by sum_band:
     sum_band:bec :      4.38s CPU      4.40s WALL (    2160 calls)
     addusdens    :     14.21s CPU     14.30s WALL (      24 calls)

     Called by *egterg:
     h_psi        :   1243.00s CPU   1273.97s WALL (    7583 calls)
     s_psi        :    219.64s CPU    220.08s WALL (    7673 calls)
     g_psi        :      1.89s CPU      1.92s WALL (    5333 calls)
     cdiaghg      :   1121.73s CPU   1146.76s WALL (    7493 calls)

     Called by h_psi:
     h_psi:pot    :   1104.72s CPU   1134.58s WALL (    7583 calls)
     h_psi:calbec :    293.17s CPU    304.36s WALL (    7583 calls)
     vloc_psi     :    597.12s CPU    615.44s WALL (    7583 calls)
     add_vuspsi   :    214.28s CPU    214.66s WALL (    7583 calls)
     vhpsi        :    135.83s CPU    136.91s WALL (    7583 calls)

     General routines
     calbec       :    547.00s CPU    564.73s WALL (   19576 calls)
     fft          :      1.91s CPU      1.94s WALL (     621 calls)
     ffts         :      0.08s CPU      0.09s WALL (      98 calls)
     fftw         :    698.03s CPU    719.23s WALL ( 2084676 calls)
     interpolate  :      0.18s CPU      0.19s WALL (      50 calls)
     davcio       :      0.01s CPU      2.40s WALL (      90 calls)
 
     Parallel routines
     fft_scatt_xy :     45.60s CPU     46.96s WALL ( 2085395 calls)
     fft_scatt_yz :    437.39s CPU    450.51s WALL ( 2085395 calls)

     Hubbard U routines
     new_ns       :     19.46s CPU     20.12s WALL (      24 calls)
     vhpsi        :    135.83s CPU    136.91s WALL (    7583 calls)
 
     PWSCF        :     1h 3m CPU        3h 1m WALL

       6h
 
   This run was terminated on:  18:34:42   8Apr2019            

=------------------------------------------------------------------------------=
   JOB DONE.
=------------------------------------------------------------------------------=
