
     Program PWSCF v.6.3MaX starts on  8Apr2019 at 18:34:45 

     This program is part of the open-source Quantum ESPRESSO suite
     for quantum simulation of materials; please cite
         "P. Giannozzi et al., J. Phys.:Condens. Matter 21 395502 (2009);
         "P. Giannozzi et al., J. Phys.:Condens. Matter 29 465901 (2017);
          URL http://www.quantum-espresso.org", 
     in publications or presentations arising from this work. More details at
     http://www.quantum-espresso.org/quote

     Parallel version (MPI), running on    32 processors

     MPI processes distributed on     1 nodes
     R & G space division:  proc/nbgrp/npool/nimage =      32
     Waiting for input...
     Reading input from standard input

     Current dimensions of program PWSCF are:
     Max number of different atomic species (ntypx) = 10
     Max number of k-points (npk) =  40000
     Max angular momentum in pseudopotentials (lmaxx) =  3
               file Mn.pbe-spn-kjpaw_psl.0.3.1.UPF: wavefunction(s)  3P 3D renormalized
               file Mn.pbe-spn-kjpaw_psl.0.3.1.UPF: wavefunction(s)  3P 3D renormalized
               file Au.pbe-dn-kjpaw_psl.0.1.UPF: wavefunction(s)  6S 6P 5D renormalized

     Subspace diagonalization in iterative solution of the eigenvalue problem:
     one sub-group per band group will be used
     scalapack distributed-memory algorithm (size of sub-group:  4*  4 procs)

 
     Parallelization info
     --------------------
     sticks:   dense  smooth     PW     G-vecs:    dense   smooth      PW
     Min          41      18      5                11487     3460     563
     Max          42      19      6                11527     3505     606
     Sum        1313     593    177               368373   111379   18691
 


     bravais-lattice index     =            0
     lattice parameter (alat)  =       6.4153  a.u.
     unit-cell volume          =    2724.7774 (a.u.)^3
     number of atoms/cell      =           24
     number of atomic types    =            3
     number of electrons       =       296.00
     number of Kohn-Sham states=          178
     kinetic-energy cutoff     =      45.0000  Ry
     charge density cutoff     =     400.0000  Ry
     convergence threshold     =      1.0E-06
     mixing beta               =       0.1000
     number of iterations used =            8  plain     mixing
     Exchange-correlation      = SLA PW PBX PBC ( 1  4  3  4 0 0)

     celldm(1)=   6.415315  celldm(2)=   0.000000  celldm(3)=   0.000000
     celldm(4)=   0.000000  celldm(5)=   0.000000  celldm(6)=   0.000000

     crystal axes: (cart. coord. in units of alat)
               a(1) = (   1.000000   0.000000   0.000000 )  
               a(2) = (   0.000000   1.000000   0.000000 )  
               a(3) = (   0.000000   0.000000  10.319937 )  

     reciprocal axes: (cart. coord. in units 2 pi/alat)
               b(1) = (  1.000000  0.000000  0.000000 )  
               b(2) = (  0.000000  1.000000  0.000000 )  
               b(3) = (  0.000000  0.000000  0.096900 )  


     PseudoPot. # 1 for Mn read from file:
     ./pseudo/Mn.pbe-spn-kjpaw_psl.0.3.1.UPF
     MD5 check sum: 7b43a3fb0e93e198b8dd8488d8cf503e
     Pseudo is Projector augmented-wave + core cor, Zval = 15.0
     Generated using "atomic" code by A. Dal Corso v.5.0.99 svn rev. 10869
     Shape of augmentation charge: PSQ
     Using radial grid of 1187 points,  6 beta functions with: 
                l(1) =   0
                l(2) =   0
                l(3) =   1
                l(4) =   1
                l(5) =   2
                l(6) =   2
     Q(r) pseudized with 0 coefficients 


     PseudoPot. # 2 for Mn read from file:
     ./pseudo/Mn.pbe-spn-kjpaw_psl.0.3.1.UPF
     MD5 check sum: 7b43a3fb0e93e198b8dd8488d8cf503e
     Pseudo is Projector augmented-wave + core cor, Zval = 15.0
     Generated using "atomic" code by A. Dal Corso v.5.0.99 svn rev. 10869
     Shape of augmentation charge: PSQ
     Using radial grid of 1187 points,  6 beta functions with: 
                l(1) =   0
                l(2) =   0
                l(3) =   1
                l(4) =   1
                l(5) =   2
                l(6) =   2
     Q(r) pseudized with 0 coefficients 


     PseudoPot. # 3 for Au read from file:
     ./pseudo/Au.pbe-dn-kjpaw_psl.0.1.UPF
     MD5 check sum: be11e2e8e535ebe2b3ccfb4f88f554cb
     Pseudo is Projector augmented-wave + core cor, Zval = 11.0
     Generated using "atomic" code by A. Dal Corso v.5.0.2 svn rev. 9415
     Shape of augmentation charge: PSQ
     Using radial grid of 1279 points,  6 beta functions with: 
                l(1) =   0
                l(2) =   0
                l(3) =   1
                l(4) =   1
                l(5) =   2
                l(6) =   2
     Q(r) pseudized with 0 coefficients 


     atomic species   valence    mass     pseudopotential
        Mn1           15.00    54.93800     Mn( 1.00)
        Mn2           15.00    54.93800     Mn( 1.00)
        Au            11.00   196.96600     Au( 1.00)

     Starting magnetic structure 
     atomic species   magnetization
        Mn1          0.800
        Mn2         -0.800
        Au           0.000


     Full LDA+U calculation (l_max = 2) with parameters (eV):
     U(  1) =   3.1200   J(  1) =   0.7000   B(  1) =   0.0803
     U(  2) =   3.1200   J(  2) =   0.7000   B(  2) =   0.0803



      8 Sym. Ops. (no inversion) found



   Cartesian axes

     site n.     atom                  positions (alat units)
         1           Mn1 tau(   1) = (   0.0000000   0.0000000   0.0000000  )
         2           Mn1 tau(   2) = (   0.5000000   0.5000000   1.2899921  )
         3           Mn2 tau(   3) = (   0.0000000   0.0000000   2.5799843  )
         4           Mn1 tau(   4) = (   0.5000000   0.5000000   3.8699764  )
         5           Mn2 tau(   5) = (   0.0000000   0.0000000   5.1599686  )
         6           Mn1 tau(   6) = (   0.5000000   0.5000000   6.4499607  )
         7           Mn2 tau(   7) = (   0.0000000   0.0000000   7.7399528  )
         8           Mn2 tau(   8) = (   0.5000000   0.5000000   9.0299450  )
         9           Au  tau(   9) = (   0.5000000   0.5000000   0.4127975  )
        10           Au  tau(  10) = (   0.0000000   0.0000000   0.8771947  )
        11           Au  tau(  11) = (   0.0000000   0.0000000   1.7027896  )
        12           Au  tau(  12) = (   0.5000000   0.5000000   2.1671868  )
        13           Au  tau(  13) = (   0.5000000   0.5000000   2.9927818  )
        14           Au  tau(  14) = (   0.0000000   0.0000000   3.4571789  )
        15           Au  tau(  15) = (   0.0000000   0.0000000   4.2827739  )
        16           Au  tau(  16) = (   0.5000000   0.5000000   4.7471711  )
        17           Au  tau(  17) = (   0.5000000   0.5000000   5.5727660  )
        18           Au  tau(  18) = (   0.0000000   0.0000000   6.0371632  )
        19           Au  tau(  19) = (   0.0000000   0.0000000   6.8627582  )
        20           Au  tau(  20) = (   0.5000000   0.5000000   7.3271553  )
        21           Au  tau(  21) = (   0.5000000   0.5000000   8.1527503  )
        22           Au  tau(  22) = (   0.0000000   0.0000000   8.6171475  )
        23           Au  tau(  23) = (   0.0000000   0.0000000   9.4427424  )
        24           Au  tau(  24) = (   0.5000000   0.5000000   9.9071396  )

     number of k points=    45 (tetrahedron method)
                       cart. coord. in units 2pi/alat
        k(    1) = (   0.0000000   0.0000000   0.0000000), wk =   0.0039062
        k(    2) = (   0.0000000   0.0000000   0.0242250), wk =   0.0078125
        k(    3) = (   0.0000000   0.0000000  -0.0484499), wk =   0.0039062
        k(    4) = (   0.0000000   0.1250000   0.0000000), wk =   0.0156250
        k(    5) = (   0.0000000   0.1250000   0.0242250), wk =   0.0312500
        k(    6) = (   0.0000000   0.1250000  -0.0484499), wk =   0.0156250
        k(    7) = (   0.0000000   0.2500000   0.0000000), wk =   0.0156250
        k(    8) = (   0.0000000   0.2500000   0.0242250), wk =   0.0312500
        k(    9) = (   0.0000000   0.2500000  -0.0484499), wk =   0.0156250
        k(   10) = (   0.0000000   0.3750000   0.0000000), wk =   0.0156250
        k(   11) = (   0.0000000   0.3750000   0.0242250), wk =   0.0312500
        k(   12) = (   0.0000000   0.3750000  -0.0484499), wk =   0.0156250
        k(   13) = (   0.0000000  -0.5000000   0.0000000), wk =   0.0078125
        k(   14) = (   0.0000000  -0.5000000   0.0242250), wk =   0.0156250
        k(   15) = (   0.0000000  -0.5000000  -0.0484499), wk =   0.0078125
        k(   16) = (   0.1250000   0.1250000   0.0000000), wk =   0.0156250
        k(   17) = (   0.1250000   0.1250000   0.0242250), wk =   0.0312500
        k(   18) = (   0.1250000   0.1250000  -0.0484499), wk =   0.0156250
        k(   19) = (   0.1250000   0.2500000   0.0000000), wk =   0.0312500
        k(   20) = (   0.1250000   0.2500000   0.0242250), wk =   0.0625000
        k(   21) = (   0.1250000   0.2500000  -0.0484499), wk =   0.0312500
        k(   22) = (   0.1250000   0.3750000   0.0000000), wk =   0.0312500
        k(   23) = (   0.1250000   0.3750000   0.0242250), wk =   0.0625000
        k(   24) = (   0.1250000   0.3750000  -0.0484499), wk =   0.0312500
        k(   25) = (   0.1250000  -0.5000000   0.0000000), wk =   0.0156250
        k(   26) = (   0.1250000  -0.5000000   0.0242250), wk =   0.0312500
        k(   27) = (   0.1250000  -0.5000000  -0.0484499), wk =   0.0156250
        k(   28) = (   0.2500000   0.2500000   0.0000000), wk =   0.0156250
        k(   29) = (   0.2500000   0.2500000   0.0242250), wk =   0.0312500
        k(   30) = (   0.2500000   0.2500000  -0.0484499), wk =   0.0156250
        k(   31) = (   0.2500000   0.3750000   0.0000000), wk =   0.0312500
        k(   32) = (   0.2500000   0.3750000   0.0242250), wk =   0.0625000
        k(   33) = (   0.2500000   0.3750000  -0.0484499), wk =   0.0312500
        k(   34) = (   0.2500000  -0.5000000   0.0000000), wk =   0.0156250
        k(   35) = (   0.2500000  -0.5000000   0.0242250), wk =   0.0312500
        k(   36) = (   0.2500000  -0.5000000  -0.0484499), wk =   0.0156250
        k(   37) = (   0.3750000   0.3750000   0.0000000), wk =   0.0156250
        k(   38) = (   0.3750000   0.3750000   0.0242250), wk =   0.0312500
        k(   39) = (   0.3750000   0.3750000  -0.0484499), wk =   0.0156250
        k(   40) = (   0.3750000  -0.5000000   0.0000000), wk =   0.0156250
        k(   41) = (   0.3750000  -0.5000000   0.0242250), wk =   0.0312500
        k(   42) = (   0.3750000  -0.5000000  -0.0484499), wk =   0.0156250
        k(   43) = (  -0.5000000  -0.5000000   0.0000000), wk =   0.0039062
        k(   44) = (  -0.5000000  -0.5000000   0.0242250), wk =   0.0078125
        k(   45) = (  -0.5000000  -0.5000000  -0.0484499), wk =   0.0039062

     Dense  grid:   368373 G-vectors     FFT dimensions: (  45,  45, 432)

     Smooth grid:   111379 G-vectors     FFT dimensions: (  27,  27, 288)

     Estimated max dynamical RAM per process >     186.81 MB

     Estimated total dynamical RAM >       5.84 GB
     Generating pointlists ...
     new r_m :   0.3377 (alat units)  2.1668 (a.u.) for type    1
     new r_m :   0.3377 (alat units)  2.1668 (a.u.) for type    2
     new r_m :   0.3377 (alat units)  2.1668 (a.u.) for type    3

     Check: negative/imaginary core charge=   -0.000006    0.000000

     Initial potential from superposition of free atoms

     starting charge  295.99426, renormalised to  296.00000
     Number of +U iterations with fixed ns =  0
     Starting occupations:
 --- enter write_ns ---
 LDA+U parameters:
U(  1) =   3.1200   J(  1) =   0.7000   B(  1) =   0.0803
U(  2) =   3.1200   J(  2) =   0.7000   B(  2) =   0.0803
atom    1   Tr[ns(na)] (up, down, total) =   5.00000  0.00000  5.00000
   spin  1
    eigenvalues: 
  1.000  1.000  1.000  1.000  1.000
    eigenvectors:
  1.000  0.000  0.000  0.000  0.000
  0.000  1.000  0.000  0.000  0.000
  0.000  0.000  1.000  0.000  0.000
  0.000  0.000  0.000  1.000  0.000
  0.000  0.000  0.000  0.000  1.000
    occupations:
  1.000  0.000  0.000  0.000  0.000
  0.000  1.000  0.000  0.000  0.000
  0.000  0.000  1.000  0.000  0.000
  0.000  0.000  0.000  1.000  0.000
  0.000  0.000  0.000  0.000  1.000
   spin  2
    eigenvalues: 
  0.000  0.000  0.000  0.000  0.000
    eigenvectors:
  1.000  0.000  0.000  0.000  0.000
  0.000  1.000  0.000  0.000  0.000
  0.000  0.000  1.000  0.000  0.000
  0.000  0.000  0.000  1.000  0.000
  0.000  0.000  0.000  0.000  1.000
    occupations:
  0.000  0.000  0.000  0.000  0.000
  0.000  0.000  0.000  0.000  0.000
  0.000  0.000  0.000  0.000  0.000
  0.000  0.000  0.000  0.000  0.000
  0.000  0.000  0.000  0.000  0.000
atomic mag. moment =     5.000000
atom    2   Tr[ns(na)] (up, down, total) =   5.00000  0.00000  5.00000
   spin  1
    eigenvalues: 
  1.000  1.000  1.000  1.000  1.000
    eigenvectors:
  1.000  0.000  0.000  0.000  0.000
  0.000  1.000  0.000  0.000  0.000
  0.000  0.000  1.000  0.000  0.000
  0.000  0.000  0.000  1.000  0.000
  0.000  0.000  0.000  0.000  1.000
    occupations:
  1.000  0.000  0.000  0.000  0.000
  0.000  1.000  0.000  0.000  0.000
  0.000  0.000  1.000  0.000  0.000
  0.000  0.000  0.000  1.000  0.000
  0.000  0.000  0.000  0.000  1.000
   spin  2
    eigenvalues: 
  0.000  0.000  0.000  0.000  0.000
    eigenvectors:
  1.000  0.000  0.000  0.000  0.000
  0.000  1.000  0.000  0.000  0.000
  0.000  0.000  1.000  0.000  0.000
  0.000  0.000  0.000  1.000  0.000
  0.000  0.000  0.000  0.000  1.000
    occupations:
  0.000  0.000  0.000  0.000  0.000
  0.000  0.000  0.000  0.000  0.000
  0.000  0.000  0.000  0.000  0.000
  0.000  0.000  0.000  0.000  0.000
  0.000  0.000  0.000  0.000  0.000
atomic mag. moment =     5.000000
atom    3   Tr[ns(na)] (up, down, total) =   0.00000  5.00000  5.00000
   spin  1
    eigenvalues: 
  0.000  0.000  0.000  0.000  0.000
    eigenvectors:
  1.000  0.000  0.000  0.000  0.000
  0.000  1.000  0.000  0.000  0.000
  0.000  0.000  1.000  0.000  0.000
  0.000  0.000  0.000  1.000  0.000
  0.000  0.000  0.000  0.000  1.000
    occupations:
  0.000  0.000  0.000  0.000  0.000
  0.000  0.000  0.000  0.000  0.000
  0.000  0.000  0.000  0.000  0.000
  0.000  0.000  0.000  0.000  0.000
  0.000  0.000  0.000  0.000  0.000
   spin  2
    eigenvalues: 
  1.000  1.000  1.000  1.000  1.000
    eigenvectors:
  1.000  0.000  0.000  0.000  0.000
  0.000  1.000  0.000  0.000  0.000
  0.000  0.000  1.000  0.000  0.000
  0.000  0.000  0.000  1.000  0.000
  0.000  0.000  0.000  0.000  1.000
    occupations:
  1.000  0.000  0.000  0.000  0.000
  0.000  1.000  0.000  0.000  0.000
  0.000  0.000  1.000  0.000  0.000
  0.000  0.000  0.000  1.000  0.000
  0.000  0.000  0.000  0.000  1.000
atomic mag. moment =    -5.000000
atom    4   Tr[ns(na)] (up, down, total) =   5.00000  0.00000  5.00000
   spin  1
    eigenvalues: 
  1.000  1.000  1.000  1.000  1.000
    eigenvectors:
  1.000  0.000  0.000  0.000  0.000
  0.000  1.000  0.000  0.000  0.000
  0.000  0.000  1.000  0.000  0.000
  0.000  0.000  0.000  1.000  0.000
  0.000  0.000  0.000  0.000  1.000
    occupations:
  1.000  0.000  0.000  0.000  0.000
  0.000  1.000  0.000  0.000  0.000
  0.000  0.000  1.000  0.000  0.000
  0.000  0.000  0.000  1.000  0.000
  0.000  0.000  0.000  0.000  1.000
   spin  2
    eigenvalues: 
  0.000  0.000  0.000  0.000  0.000
    eigenvectors:
  1.000  0.000  0.000  0.000  0.000
  0.000  1.000  0.000  0.000  0.000
  0.000  0.000  1.000  0.000  0.000
  0.000  0.000  0.000  1.000  0.000
  0.000  0.000  0.000  0.000  1.000
    occupations:
  0.000  0.000  0.000  0.000  0.000
  0.000  0.000  0.000  0.000  0.000
  0.000  0.000  0.000  0.000  0.000
  0.000  0.000  0.000  0.000  0.000
  0.000  0.000  0.000  0.000  0.000
atomic mag. moment =     5.000000
atom    5   Tr[ns(na)] (up, down, total) =   0.00000  5.00000  5.00000
   spin  1
    eigenvalues: 
  0.000  0.000  0.000  0.000  0.000
    eigenvectors:
  1.000  0.000  0.000  0.000  0.000
  0.000  1.000  0.000  0.000  0.000
  0.000  0.000  1.000  0.000  0.000
  0.000  0.000  0.000  1.000  0.000
  0.000  0.000  0.000  0.000  1.000
    occupations:
  0.000  0.000  0.000  0.000  0.000
  0.000  0.000  0.000  0.000  0.000
  0.000  0.000  0.000  0.000  0.000
  0.000  0.000  0.000  0.000  0.000
  0.000  0.000  0.000  0.000  0.000
   spin  2
    eigenvalues: 
  1.000  1.000  1.000  1.000  1.000
    eigenvectors:
  1.000  0.000  0.000  0.000  0.000
  0.000  1.000  0.000  0.000  0.000
  0.000  0.000  1.000  0.000  0.000
  0.000  0.000  0.000  1.000  0.000
  0.000  0.000  0.000  0.000  1.000
    occupations:
  1.000  0.000  0.000  0.000  0.000
  0.000  1.000  0.000  0.000  0.000
  0.000  0.000  1.000  0.000  0.000
  0.000  0.000  0.000  1.000  0.000
  0.000  0.000  0.000  0.000  1.000
atomic mag. moment =    -5.000000
atom    6   Tr[ns(na)] (up, down, total) =   5.00000  0.00000  5.00000
   spin  1
    eigenvalues: 
  1.000  1.000  1.000  1.000  1.000
    eigenvectors:
  1.000  0.000  0.000  0.000  0.000
  0.000  1.000  0.000  0.000  0.000
  0.000  0.000  1.000  0.000  0.000
  0.000  0.000  0.000  1.000  0.000
  0.000  0.000  0.000  0.000  1.000
    occupations:
  1.000  0.000  0.000  0.000  0.000
  0.000  1.000  0.000  0.000  0.000
  0.000  0.000  1.000  0.000  0.000
  0.000  0.000  0.000  1.000  0.000
  0.000  0.000  0.000  0.000  1.000
   spin  2
    eigenvalues: 
  0.000  0.000  0.000  0.000  0.000
    eigenvectors:
  1.000  0.000  0.000  0.000  0.000
  0.000  1.000  0.000  0.000  0.000
  0.000  0.000  1.000  0.000  0.000
  0.000  0.000  0.000  1.000  0.000
  0.000  0.000  0.000  0.000  1.000
    occupations:
  0.000  0.000  0.000  0.000  0.000
  0.000  0.000  0.000  0.000  0.000
  0.000  0.000  0.000  0.000  0.000
  0.000  0.000  0.000  0.000  0.000
  0.000  0.000  0.000  0.000  0.000
atomic mag. moment =     5.000000
atom    7   Tr[ns(na)] (up, down, total) =   0.00000  5.00000  5.00000
   spin  1
    eigenvalues: 
  0.000  0.000  0.000  0.000  0.000
    eigenvectors:
  1.000  0.000  0.000  0.000  0.000
  0.000  1.000  0.000  0.000  0.000
  0.000  0.000  1.000  0.000  0.000
  0.000  0.000  0.000  1.000  0.000
  0.000  0.000  0.000  0.000  1.000
    occupations:
  0.000  0.000  0.000  0.000  0.000
  0.000  0.000  0.000  0.000  0.000
  0.000  0.000  0.000  0.000  0.000
  0.000  0.000  0.000  0.000  0.000
  0.000  0.000  0.000  0.000  0.000
   spin  2
    eigenvalues: 
  1.000  1.000  1.000  1.000  1.000
    eigenvectors:
  1.000  0.000  0.000  0.000  0.000
  0.000  1.000  0.000  0.000  0.000
  0.000  0.000  1.000  0.000  0.000
  0.000  0.000  0.000  1.000  0.000
  0.000  0.000  0.000  0.000  1.000
    occupations:
  1.000  0.000  0.000  0.000  0.000
  0.000  1.000  0.000  0.000  0.000
  0.000  0.000  1.000  0.000  0.000
  0.000  0.000  0.000  1.000  0.000
  0.000  0.000  0.000  0.000  1.000
atomic mag. moment =    -5.000000
atom    8   Tr[ns(na)] (up, down, total) =   0.00000  5.00000  5.00000
   spin  1
    eigenvalues: 
  0.000  0.000  0.000  0.000  0.000
    eigenvectors:
  1.000  0.000  0.000  0.000  0.000
  0.000  1.000  0.000  0.000  0.000
  0.000  0.000  1.000  0.000  0.000
  0.000  0.000  0.000  1.000  0.000
  0.000  0.000  0.000  0.000  1.000
    occupations:
  0.000  0.000  0.000  0.000  0.000
  0.000  0.000  0.000  0.000  0.000
  0.000  0.000  0.000  0.000  0.000
  0.000  0.000  0.000  0.000  0.000
  0.000  0.000  0.000  0.000  0.000
   spin  2
    eigenvalues: 
  1.000  1.000  1.000  1.000  1.000
    eigenvectors:
  1.000  0.000  0.000  0.000  0.000
  0.000  1.000  0.000  0.000  0.000
  0.000  0.000  1.000  0.000  0.000
  0.000  0.000  0.000  1.000  0.000
  0.000  0.000  0.000  0.000  1.000
    occupations:
  1.000  0.000  0.000  0.000  0.000
  0.000  1.000  0.000  0.000  0.000
  0.000  0.000  1.000  0.000  0.000
  0.000  0.000  0.000  1.000  0.000
  0.000  0.000  0.000  0.000  1.000
atomic mag. moment =    -5.000000
N of occupied +U levels =   40.000000
 --- exit write_ns ---
 Atomic wfc used for LDA+U Projector are NOT orthogonalized
     Starting wfcs are  224 randomized atomic wfcs
     Checking if some PAW data can be deallocated... 

     total cpu time spent up to now is       78.6 secs

     Self-consistent Calculation

     iteration #  1     ecut=    45.00 Ry     beta= 0.10
     Davidson diagonalization with overlap
     ethr =  1.00E-02,  avg # of iterations =  4.1
 --- enter write_ns ---
 LDA+U parameters:
U(  1) =   3.1200   J(  1) =   0.7000   B(  1) =   0.0803
U(  2) =   3.1200   J(  2) =   0.7000   B(  2) =   0.0803
atom    1   Tr[ns(na)] (up, down, total) =   5.01746  0.41167  5.42913
   spin  1
    eigenvalues: 
  1.003  1.003  1.003  1.004  1.004
    eigenvectors:
  0.000  0.000  0.000  1.000  0.000
  0.000  0.284  0.716  0.000  0.000
  0.000  0.716  0.284  0.000  0.000
  0.000  0.000  0.000  0.000  1.000
  1.000  0.000  0.000  0.000  0.000
    occupations:
  1.004 -0.000 -0.000  0.000  0.000
 -0.000  1.003 -0.000  0.000  0.000
 -0.000 -0.000  1.003  0.000  0.000
  0.000  0.000  0.000  1.004 -0.000
  0.000  0.000  0.000 -0.000  1.003
   spin  2
    eigenvalues: 
  0.053  0.074  0.083  0.083  0.120
    eigenvectors:
  0.000  1.000  0.000  0.000  0.000
  0.000  0.000  0.429  0.571  0.000
  0.000  0.000  0.571  0.429  0.000
  1.000  0.000  0.000  0.000  0.000
  0.000  0.000  0.000  0.000  1.000
    occupations:
  0.074 -0.000 -0.000  0.000  0.000
 -0.000  0.083 -0.000  0.000  0.000
 -0.000 -0.000  0.083  0.000  0.000
  0.000  0.000  0.000  0.053 -0.000
  0.000  0.000  0.000 -0.000  0.120
atomic mag. moment =     4.605791
atom    2   Tr[ns(na)] (up, down, total) =   5.01750  0.41021  5.42771
   spin  1
    eigenvalues: 
  1.003  1.003  1.003  1.004  1.004
    eigenvectors:
  0.000  0.000  0.000  1.000  0.000
  0.000  0.299  0.701  0.000  0.000
  0.000  0.701  0.299  0.000  0.000
  0.000  0.000  0.000  0.000  1.000
  1.000  0.000  0.000  0.000  0.000
    occupations:
  1.004 -0.000 -0.000  0.000  0.000
 -0.000  1.003 -0.000  0.000  0.000
 -0.000 -0.000  1.003  0.000  0.000
  0.000  0.000  0.000  1.004 -0.000
  0.000  0.000  0.000 -0.000  1.003
   spin  2
    eigenvalues: 
  0.053  0.073  0.082  0.082  0.120
    eigenvectors:
  0.000  1.000  0.000  0.000  0.000
  0.000  0.000  0.395  0.605  0.000
  0.000  0.000  0.605  0.395  0.000
  1.000  0.000  0.000  0.000  0.000
  0.000  0.000  0.000  0.000  1.000
    occupations:
  0.073 -0.000 -0.000  0.000  0.000
 -0.000  0.082 -0.000  0.000  0.000
 -0.000 -0.000  0.082  0.000  0.000
  0.000  0.000  0.000  0.053 -0.000
  0.000  0.000  0.000 -0.000  0.120
atomic mag. moment =     4.607299
atom    3   Tr[ns(na)] (up, down, total) =   0.41025  5.01734  5.42759
   spin  1
    eigenvalues: 
  0.053  0.073  0.080  0.080  0.124
    eigenvectors:
  0.000  1.000  0.000  0.000  0.000
  0.000  0.000  0.362  0.638  0.000
  0.000  0.000  0.638  0.362  0.000
  1.000  0.000  0.000  0.000  0.000
  0.000  0.000  0.000  0.000  1.000
    occupations:
  0.073 -0.000 -0.000  0.000  0.000
 -0.000  0.080 -0.000  0.000  0.000
 -0.000 -0.000  0.080  0.000  0.000
  0.000  0.000  0.000  0.053 -0.000
  0.000  0.000  0.000 -0.000  0.124
   spin  2
    eigenvalues: 
  1.003  1.003  1.003  1.004  1.004
    eigenvectors:
  0.000  0.000  0.000  1.000  0.000
  0.000  0.392  0.608  0.000  0.000
  0.000  0.608  0.392  0.000  0.000
  0.000  0.000  0.000  0.000  1.000
  1.000  0.000  0.000  0.000  0.000
    occupations:
  1.004 -0.000 -0.000  0.000  0.000
 -0.000  1.003 -0.000  0.000  0.000
 -0.000 -0.000  1.003  0.000  0.000
  0.000  0.000  0.000  1.004 -0.000
  0.000  0.000  0.000 -0.000  1.003
atomic mag. moment =    -4.607088
atom    4   Tr[ns(na)] (up, down, total) =   5.01721  0.40933  5.42654
   spin  1
    eigenvalues: 
  1.003  1.003  1.003  1.004  1.004
    eigenvectors:
  0.000  0.000  0.000  1.000  0.000
  0.000  0.293  0.707  0.000  0.000
  0.000  0.707  0.293  0.000  0.000
  0.000  0.000  0.000  0.000  1.000
  1.000  0.000  0.000  0.000  0.000
    occupations:
  1.004 -0.000 -0.000  0.000  0.000
 -0.000  1.003 -0.000  0.000  0.000
 -0.000 -0.000  1.003  0.000  0.000
  0.000  0.000  0.000  1.004 -0.000
  0.000  0.000  0.000 -0.000  1.003
   spin  2
    eigenvalues: 
  0.053  0.072  0.080  0.080  0.125
    eigenvectors:
  0.000  1.000  0.000  0.000  0.000
  0.000  0.000  0.401  0.599  0.000
  0.000  0.000  0.599  0.401  0.000
  1.000  0.000  0.000  0.000  0.000
  0.000  0.000  0.000  0.000  1.000
    occupations:
  0.072 -0.000 -0.000  0.000  0.000
 -0.000  0.080 -0.000  0.000  0.000
 -0.000 -0.000  0.080  0.000  0.000
  0.000  0.000  0.000  0.053 -0.000
  0.000  0.000  0.000 -0.000  0.125
atomic mag. moment =     4.607876
atom    5   Tr[ns(na)] (up, down, total) =   0.40999  5.01733  5.42733
   spin  1
    eigenvalues: 
  0.053  0.072  0.080  0.080  0.125
    eigenvectors:
  0.000  1.000  0.000  0.000  0.000
  0.000  0.000  0.382  0.618  0.000
  0.000  0.000  0.618  0.382  0.000
  1.000  0.000  0.000  0.000  0.000
  0.000  0.000  0.000  0.000  1.000
    occupations:
  0.072 -0.000 -0.000  0.000  0.000
 -0.000  0.080 -0.000  0.000  0.000
 -0.000 -0.000  0.080  0.000  0.000
  0.000  0.000  0.000  0.053 -0.000
  0.000  0.000  0.000 -0.000  0.125
   spin  2
    eigenvalues: 
  1.003  1.003  1.003  1.004  1.004
    eigenvectors:
  0.000  0.000  0.000  1.000  0.000
  0.000  0.337  0.663  0.000  0.000
  0.000  0.663  0.337  0.000  0.000
  0.000  0.000  0.000  0.000  1.000
  1.000  0.000  0.000  0.000  0.000
    occupations:
  1.004 -0.000 -0.000  0.000  0.000
 -0.000  1.003 -0.000  0.000  0.000
 -0.000 -0.000  1.003  0.000  0.000
  0.000  0.000  0.000  1.004 -0.000
  0.000  0.000  0.000 -0.000  1.003
atomic mag. moment =    -4.607339
atom    6   Tr[ns(na)] (up, down, total) =   5.01745  0.40988  5.42733
   spin  1
    eigenvalues: 
  1.003  1.003  1.003  1.004  1.004
    eigenvectors:
  0.000  0.000  0.000  1.000  0.000
  0.000  0.251  0.749  0.000  0.000
  0.000  0.749  0.251  0.000  0.000
  0.000  0.000  0.000  0.000  1.000
  1.000  0.000  0.000  0.000  0.000
    occupations:
  1.004 -0.000 -0.000  0.000  0.000
 -0.000  1.003 -0.000  0.000  0.000
 -0.000 -0.000  1.003  0.000  0.000
  0.000  0.000  0.000  1.004 -0.000
  0.000  0.000  0.000 -0.000  1.003
   spin  2
    eigenvalues: 
  0.053  0.073  0.080  0.080  0.124
    eigenvectors:
  0.000  1.000  0.000  0.000  0.000
  0.000  0.000  0.366  0.634  0.000
  0.000  0.000  0.634  0.366  0.000
  1.000  0.000  0.000  0.000  0.000
  0.000  0.000  0.000  0.000  1.000
    occupations:
  0.073 -0.000 -0.000  0.000  0.000
 -0.000  0.080 -0.000  0.000  0.000
 -0.000 -0.000  0.080  0.000  0.000
  0.000  0.000  0.000  0.053 -0.000
  0.000  0.000  0.000 -0.000  0.124
atomic mag. moment =     4.607570
atom    7   Tr[ns(na)] (up, down, total) =   0.41008  5.01751  5.42759
   spin  1
    eigenvalues: 
  0.053  0.073  0.082  0.082  0.121
    eigenvectors:
  0.000  1.000  0.000  0.000  0.000
  0.000  0.000  0.373  0.627  0.000
  0.000  0.000  0.627  0.373  0.000
  1.000  0.000  0.000  0.000  0.000
  0.000  0.000  0.000  0.000  1.000
    occupations:
  0.073 -0.000 -0.000  0.000  0.000
 -0.000  0.082 -0.000  0.000  0.000
 -0.000 -0.000  0.082  0.000  0.000
  0.000  0.000  0.000  0.053 -0.000
  0.000  0.000  0.000 -0.000  0.121
   spin  2
    eigenvalues: 
  1.003  1.003  1.003  1.004  1.004
    eigenvectors:
  0.000  0.000  0.000  1.000  0.000
  0.000  0.320  0.680  0.000  0.000
  0.000  0.680  0.320  0.000  0.000
  0.000  0.000  0.000  0.000  1.000
  1.000  0.000  0.000  0.000  0.000
    occupations:
  1.004 -0.000 -0.000  0.000  0.000
 -0.000  1.003 -0.000  0.000  0.000
 -0.000 -0.000  1.003  0.000  0.000
  0.000  0.000  0.000  1.004 -0.000
  0.000  0.000  0.000 -0.000  1.003
atomic mag. moment =    -4.607436
atom    8   Tr[ns(na)] (up, down, total) =   0.41223  5.01746  5.42969
   spin  1
    eigenvalues: 
  0.053  0.074  0.083  0.083  0.120
    eigenvectors:
  0.000  1.000  0.000  0.000  0.000
  0.000  0.000  0.361  0.639  0.000
  0.000  0.000  0.639  0.361  0.000
  1.000  0.000  0.000  0.000  0.000
  0.000  0.000  0.000  0.000  1.000
    occupations:
  0.074 -0.000 -0.000  0.000  0.000
 -0.000  0.083 -0.000  0.000  0.000
 -0.000 -0.000  0.083  0.000  0.000
  0.000  0.000  0.000  0.053 -0.000
  0.000  0.000  0.000 -0.000  0.120
   spin  2
    eigenvalues: 
  1.003  1.003  1.003  1.004  1.004
    eigenvectors:
  0.000  0.000  0.000  1.000  0.000
  0.000  0.263  0.737  0.000  0.000
  0.000  0.737  0.263  0.000  0.000
  0.000  0.000  0.000  0.000  1.000
  1.000  0.000  0.000  0.000  0.000
    occupations:
  1.004 -0.000 -0.000  0.000  0.000
 -0.000  1.003 -0.000  0.000  0.000
 -0.000 -0.000  1.003  0.000  0.000
  0.000  0.000  0.000  1.004 -0.000
  0.000  0.000  0.000 -0.000  1.003
atomic mag. moment =    -4.605237
N of occupied +U levels =   43.422899
 --- exit write_ns ---

     total cpu time spent up to now is      275.3 secs

     total energy              =  -14687.28034187 Ry
     Harris-Foulkes estimate   =  -14685.81928710 Ry
     estimated scf accuracy    <      11.56538164 Ry

     total magnetization       =     0.00 Bohr mag/cell
     absolute magnetization    =    41.58 Bohr mag/cell

     iteration #  2     ecut=    45.00 Ry     beta= 0.10
     Davidson diagonalization with overlap
     ethr =  3.91E-03,  avg # of iterations =  1.0

     total cpu time spent up to now is      394.8 secs

     total energy              =  -14692.67497359 Ry
     Harris-Foulkes estimate   =  -14687.35327272 Ry
     estimated scf accuracy    <       9.30769880 Ry

     total magnetization       =    -0.00 Bohr mag/cell
     absolute magnetization    =    41.27 Bohr mag/cell

     iteration #  3     ecut=    45.00 Ry     beta= 0.10
     Davidson diagonalization with overlap
     ethr =  3.14E-03,  avg # of iterations =  2.1

     total cpu time spent up to now is      546.5 secs

     total energy              =  -14694.00121852 Ry
     Harris-Foulkes estimate   =  -14694.14502371 Ry
     estimated scf accuracy    <      12.20603932 Ry

     total magnetization       =    -0.01 Bohr mag/cell
     absolute magnetization    =    38.60 Bohr mag/cell

     iteration #  4     ecut=    45.00 Ry     beta= 0.10
     Davidson diagonalization with overlap
     ethr =  3.14E-03,  avg # of iterations =  1.1

     total cpu time spent up to now is      665.1 secs

     total energy              =  -14695.62574494 Ry
     Harris-Foulkes estimate   =  -14694.05345770 Ry
     estimated scf accuracy    <       4.71633073 Ry

     total magnetization       =     0.00 Bohr mag/cell
     absolute magnetization    =    38.70 Bohr mag/cell

     iteration #  5     ecut=    45.00 Ry     beta= 0.10
     Davidson diagonalization with overlap
     ethr =  1.59E-03,  avg # of iterations =  2.0

     total cpu time spent up to now is      808.7 secs

     total energy              =  -14693.04146587 Ry
     Harris-Foulkes estimate   =  -14696.08763982 Ry
     estimated scf accuracy    <      11.55404809 Ry

     total magnetization       =    -0.04 Bohr mag/cell
     absolute magnetization    =    36.61 Bohr mag/cell

     iteration #  6     ecut=    45.00 Ry     beta= 0.10
     Davidson diagonalization with overlap
     ethr =  1.59E-03,  avg # of iterations =  4.4

     total cpu time spent up to now is     1018.7 secs

     total energy              =  -14693.67848564 Ry
     Harris-Foulkes estimate   =  -14694.15811765 Ry
     estimated scf accuracy    <      17.67495861 Ry

     total magnetization       =    -0.13 Bohr mag/cell
     absolute magnetization    =    38.19 Bohr mag/cell

     iteration #  7     ecut=    45.00 Ry     beta= 0.10
     Davidson diagonalization with overlap
     ethr =  1.59E-03,  avg # of iterations =  2.3

     total cpu time spent up to now is     1161.5 secs

     total energy              =  -14693.92950663 Ry
     Harris-Foulkes estimate   =  -14693.92163323 Ry
     estimated scf accuracy    <       0.66564076 Ry

     total magnetization       =     0.10 Bohr mag/cell
     absolute magnetization    =    38.35 Bohr mag/cell

     iteration #  8     ecut=    45.00 Ry     beta= 0.10
     Davidson diagonalization with overlap
     ethr =  2.25E-04,  avg # of iterations =  4.9

     total cpu time spent up to now is     1372.8 secs

     total energy              =  -14693.97144565 Ry
     Harris-Foulkes estimate   =  -14693.97022602 Ry
     estimated scf accuracy    <       0.19161943 Ry

     total magnetization       =    -0.06 Bohr mag/cell
     absolute magnetization    =    37.93 Bohr mag/cell

     iteration #  9     ecut=    45.00 Ry     beta= 0.10
     Davidson diagonalization with overlap
     ethr =  6.47E-05,  avg # of iterations =  3.9

     total cpu time spent up to now is     1570.8 secs

     total energy              =  -14694.01822660 Ry
     Harris-Foulkes estimate   =  -14694.01377000 Ry
     estimated scf accuracy    <       0.19768571 Ry

     total magnetization       =     0.01 Bohr mag/cell
     absolute magnetization    =    37.39 Bohr mag/cell

     iteration # 10     ecut=    45.00 Ry     beta= 0.10
     Davidson diagonalization with overlap
     ethr =  6.47E-05,  avg # of iterations =  1.0

     total cpu time spent up to now is     1688.7 secs

     total energy              =  -14693.98099324 Ry
     Harris-Foulkes estimate   =  -14694.01946922 Ry
     estimated scf accuracy    <       0.26060066 Ry

     total magnetization       =     0.01 Bohr mag/cell
     absolute magnetization    =    37.40 Bohr mag/cell

     iteration # 11     ecut=    45.00 Ry     beta= 0.10
     Davidson diagonalization with overlap
     ethr =  6.47E-05,  avg # of iterations =  1.8

     total cpu time spent up to now is     1824.2 secs

     total energy              =  -14693.99460808 Ry
     Harris-Foulkes estimate   =  -14693.99510762 Ry
     estimated scf accuracy    <       0.11147127 Ry

     total magnetization       =     0.00 Bohr mag/cell
     absolute magnetization    =    37.49 Bohr mag/cell

     iteration # 12     ecut=    45.00 Ry     beta= 0.10
     Davidson diagonalization with overlap
     ethr =  3.77E-05,  avg # of iterations =  1.0

     total cpu time spent up to now is     1945.9 secs

     total energy              =  -14693.99514437 Ry
     Harris-Foulkes estimate   =  -14693.99648120 Ry
     estimated scf accuracy    <       0.05682968 Ry

     total magnetization       =     0.00 Bohr mag/cell
     absolute magnetization    =    37.49 Bohr mag/cell

     iteration # 13     ecut=    45.00 Ry     beta= 0.10
     Davidson diagonalization with overlap
     c_bands:  4 eigenvalues not converged
     ethr =  1.92E-05,  avg # of iterations =  1.8

     total cpu time spent up to now is     2079.2 secs

     total energy              =  -14693.99702508 Ry
     Harris-Foulkes estimate   =  -14693.99711372 Ry
     estimated scf accuracy    <       0.01049122 Ry

     total magnetization       =     0.00 Bohr mag/cell
     absolute magnetization    =    37.46 Bohr mag/cell

     iteration # 14     ecut=    45.00 Ry     beta= 0.10
     Davidson diagonalization with overlap
     ethr =  3.54E-06,  avg # of iterations =  4.3

     total cpu time spent up to now is     2282.1 secs

     total energy              =  -14693.99881721 Ry
     Harris-Foulkes estimate   =  -14693.99826916 Ry
     estimated scf accuracy    <       0.00211931 Ry

     total magnetization       =    -0.00 Bohr mag/cell
     absolute magnetization    =    37.44 Bohr mag/cell

     iteration # 15     ecut=    45.00 Ry     beta= 0.10
     Davidson diagonalization with overlap
     ethr =  7.16E-07,  avg # of iterations =  2.2

     total cpu time spent up to now is     2422.0 secs

     total energy              =  -14693.99913323 Ry
     Harris-Foulkes estimate   =  -14693.99888540 Ry
     estimated scf accuracy    <       0.00191023 Ry

     total magnetization       =     0.00 Bohr mag/cell
     absolute magnetization    =    37.40 Bohr mag/cell

     iteration # 16     ecut=    45.00 Ry     beta= 0.10
     Davidson diagonalization with overlap
     ethr =  6.45E-07,  avg # of iterations =  2.0

     total cpu time spent up to now is     2558.8 secs

     total energy              =  -14693.99937521 Ry
     Harris-Foulkes estimate   =  -14693.99930929 Ry
     estimated scf accuracy    <       0.00187179 Ry

     total magnetization       =    -0.00 Bohr mag/cell
     absolute magnetization    =    37.37 Bohr mag/cell

     iteration # 17     ecut=    45.00 Ry     beta= 0.10
     Davidson diagonalization with overlap
     ethr =  6.32E-07,  avg # of iterations =  1.0

     total cpu time spent up to now is     2678.4 secs

     total energy              =  -14693.99941252 Ry
     Harris-Foulkes estimate   =  -14693.99944596 Ry
     estimated scf accuracy    <       0.00249333 Ry

     total magnetization       =     0.01 Bohr mag/cell
     absolute magnetization    =    37.37 Bohr mag/cell

     iteration # 18     ecut=    45.00 Ry     beta= 0.10
     Davidson diagonalization with overlap
     ethr =  6.32E-07,  avg # of iterations =  1.0

     total cpu time spent up to now is     2797.6 secs

     total energy              =  -14693.99952440 Ry
     Harris-Foulkes estimate   =  -14693.99943289 Ry
     estimated scf accuracy    <       0.00035725 Ry

     total magnetization       =    -0.00 Bohr mag/cell
     absolute magnetization    =    37.36 Bohr mag/cell

     iteration # 19     ecut=    45.00 Ry     beta= 0.10
     Davidson diagonalization with overlap
     ethr =  1.21E-07,  avg # of iterations =  2.3

     total cpu time spent up to now is     2939.8 secs

     total energy              =  -14693.99954785 Ry
     Harris-Foulkes estimate   =  -14693.99955046 Ry
     estimated scf accuracy    <       0.00015350 Ry

     total magnetization       =     0.00 Bohr mag/cell
     absolute magnetization    =    37.38 Bohr mag/cell

     iteration # 20     ecut=    45.00 Ry     beta= 0.10
     Davidson diagonalization with overlap
     ethr =  5.19E-08,  avg # of iterations =  1.4

     total cpu time spent up to now is     3065.6 secs

     total energy              =  -14693.99955908 Ry
     Harris-Foulkes estimate   =  -14693.99955690 Ry
     estimated scf accuracy    <       0.00008694 Ry

     total magnetization       =     0.00 Bohr mag/cell
     absolute magnetization    =    37.38 Bohr mag/cell

     iteration # 21     ecut=    45.00 Ry     beta= 0.10
     Davidson diagonalization with overlap
     ethr =  2.94E-08,  avg # of iterations =  2.3

     total cpu time spent up to now is     3212.1 secs

     total energy              =  -14693.99955866 Ry
     Harris-Foulkes estimate   =  -14693.99955267 Ry
     estimated scf accuracy    <       0.00008285 Ry

     total magnetization       =    -0.00 Bohr mag/cell
     absolute magnetization    =    37.37 Bohr mag/cell

     iteration # 22     ecut=    45.00 Ry     beta= 0.10
     Davidson diagonalization with overlap
     ethr =  2.80E-08,  avg # of iterations =  1.0

     total cpu time spent up to now is     3329.9 secs

     total energy              =  -14693.99957976 Ry
     Harris-Foulkes estimate   =  -14693.99957251 Ry
     estimated scf accuracy    <       0.00004679 Ry

     total magnetization       =    -0.00 Bohr mag/cell
     absolute magnetization    =    37.37 Bohr mag/cell

     iteration # 23     ecut=    45.00 Ry     beta= 0.10
     Davidson diagonalization with overlap
     ethr =  1.58E-08,  avg # of iterations =  1.7

     total cpu time spent up to now is     3461.0 secs

     total energy              =  -14693.99957946 Ry
     Harris-Foulkes estimate   =  -14693.99957472 Ry
     estimated scf accuracy    <       0.00000949 Ry

     total magnetization       =    -0.00 Bohr mag/cell
     absolute magnetization    =    37.37 Bohr mag/cell

     iteration # 24     ecut=    45.00 Ry     beta= 0.10
     Davidson diagonalization with overlap
     ethr =  3.21E-09,  avg # of iterations =  2.6

     total cpu time spent up to now is     3614.1 secs

     total energy              =  -14693.99958495 Ry
     Harris-Foulkes estimate   =  -14693.99958263 Ry
     estimated scf accuracy    <       0.00000958 Ry

     total magnetization       =    -0.00 Bohr mag/cell
     absolute magnetization    =    37.37 Bohr mag/cell

     iteration # 25     ecut=    45.00 Ry     beta= 0.10
     Davidson diagonalization with overlap
     ethr =  3.21E-09,  avg # of iterations =  1.0

     total cpu time spent up to now is     3733.0 secs

     total energy              =  -14693.99958551 Ry
     Harris-Foulkes estimate   =  -14693.99958130 Ry
     estimated scf accuracy    <       0.00000791 Ry

     total magnetization       =    -0.00 Bohr mag/cell
     absolute magnetization    =    37.37 Bohr mag/cell

     iteration # 26     ecut=    45.00 Ry     beta= 0.10
     Davidson diagonalization with overlap
     ethr =  2.67E-09,  avg # of iterations =  1.6

     total cpu time spent up to now is     3862.2 secs

     total energy              =  -14693.99959013 Ry
     Harris-Foulkes estimate   =  -14693.99958876 Ry
     estimated scf accuracy    <       0.00001128 Ry

     total magnetization       =    -0.00 Bohr mag/cell
     absolute magnetization    =    37.37 Bohr mag/cell

     iteration # 27     ecut=    45.00 Ry     beta= 0.10
     Davidson diagonalization with overlap
     ethr =  2.67E-09,  avg # of iterations =  1.0

     total cpu time spent up to now is     3980.5 secs

     total energy              =  -14693.99958958 Ry
     Harris-Foulkes estimate   =  -14693.99958859 Ry
     estimated scf accuracy    <       0.00000665 Ry

     total magnetization       =     0.00 Bohr mag/cell
     absolute magnetization    =    37.37 Bohr mag/cell

     iteration # 28     ecut=    45.00 Ry     beta= 0.10
     Davidson diagonalization with overlap
     ethr =  2.25E-09,  avg # of iterations =  1.0

     total cpu time spent up to now is     4100.4 secs

     total energy              =  -14693.99959039 Ry
     Harris-Foulkes estimate   =  -14693.99958953 Ry
     estimated scf accuracy    <       0.00000169 Ry

     total magnetization       =    -0.00 Bohr mag/cell
     absolute magnetization    =    37.37 Bohr mag/cell

     iteration # 29     ecut=    45.00 Ry     beta= 0.10
     Davidson diagonalization with overlap
     ethr =  5.71E-10,  avg # of iterations =  2.2
 
     Magnetic moment per site:
     atom:    1    charge:   13.5485    magn:    4.2324    constr:    0.0000
     atom:    2    charge:   13.5462    magn:    4.2469    constr:    0.0000
     atom:    3    charge:   13.5451    magn:   -4.2523    constr:    0.0000
     atom:    4    charge:   13.5415    magn:    4.2754    constr:    0.0000
     atom:    5    charge:   13.5412    magn:   -4.2753    constr:    0.0000
     atom:    6    charge:   13.5450    magn:    4.2523    constr:    0.0000
     atom:    7    charge:   13.5461    magn:   -4.2469    constr:    0.0000
     atom:    8    charge:   13.5487    magn:   -4.2324    constr:    0.0000
     atom:    9    charge:    9.1232    magn:    0.0399    constr:    0.0000
     atom:   10    charge:    9.1233    magn:    0.0400    constr:    0.0000
     atom:   11    charge:    9.1238    magn:    0.0460    constr:    0.0000
     atom:   12    charge:    9.1232    magn:   -0.0398    constr:    0.0000
     atom:   13    charge:    9.1246    magn:   -0.0388    constr:    0.0000
     atom:   14    charge:    9.1252    magn:    0.0394    constr:    0.0000
     atom:   15    charge:    9.1257    magn:    0.0363    constr:    0.0000
     atom:   16    charge:    9.1256    magn:   -0.0363    constr:    0.0000
     atom:   17    charge:    9.1250    magn:   -0.0394    constr:    0.0000
     atom:   18    charge:    9.1247    magn:    0.0388    constr:    0.0000
     atom:   19    charge:    9.1234    magn:    0.0398    constr:    0.0000
     atom:   20    charge:    9.1237    magn:   -0.0460    constr:    0.0000
     atom:   21    charge:    9.1233    magn:   -0.0400    constr:    0.0000
     atom:   22    charge:    9.1233    magn:   -0.0399    constr:    0.0000
     atom:   23    charge:    9.1226    magn:   -0.0437    constr:    0.0000
     atom:   24    charge:    9.1225    magn:    0.0437    constr:    0.0000

     total cpu time spent up to now is     4244.5 secs

     End of self-consistent calculation
 --- enter write_ns ---
 LDA+U parameters:
U(  1) =   3.1200   J(  1) =   0.7000   B(  1) =   0.0803
U(  2) =   3.1200   J(  2) =   0.7000   B(  2) =   0.0803
atom    1   Tr[ns(na)] (up, down, total) =   4.97142  0.74082  5.71224
   spin  1
    eigenvalues: 
  0.985  0.994  0.994  0.996  1.002
    eigenvectors:
  0.000  0.000  0.000  1.000  0.000
  0.000  0.316  0.684  0.000  0.000
  0.000  0.684  0.316  0.000  0.000
  0.000  0.000  0.000  0.000  1.000
  1.000  0.000  0.000  0.000  0.000
    occupations:
  0.996 -0.000 -0.000  0.000  0.000
 -0.000  0.994 -0.000  0.000  0.000
 -0.000 -0.000  0.994  0.000  0.000
  0.000  0.000  0.000  1.002 -0.000
  0.000  0.000  0.000 -0.000  0.985
   spin  2
    eigenvalues: 
  0.064  0.131  0.144  0.144  0.256
    eigenvectors:
  0.000  1.000  0.000  0.000  0.000
  0.000  0.000  0.268  0.732  0.000
  0.000  0.000  0.732  0.268  0.000
  1.000  0.000  0.000  0.000  0.000
  0.000  0.000  0.000  0.000  1.000
    occupations:
  0.131 -0.000 -0.000  0.000  0.000
 -0.000  0.144 -0.000  0.000  0.000
 -0.000 -0.000  0.144  0.000  0.000
  0.000  0.000  0.000  0.064 -0.000
  0.000  0.000  0.000 -0.000  0.256
atomic mag. moment =     4.230607
atom    2   Tr[ns(na)] (up, down, total) =   4.97346  0.72801  5.70146
   spin  1
    eigenvalues: 
  0.985  0.994  0.994  0.997  1.002
    eigenvectors:
  0.000  0.000  0.000  1.000  0.000
  0.000  0.337  0.663  0.000  0.000
  0.000  0.663  0.337  0.000  0.000
  0.000  0.000  0.000  0.000  1.000
  1.000  0.000  0.000  0.000  0.000
    occupations:
  0.997 -0.000 -0.000  0.000  0.000
 -0.000  0.994 -0.000  0.000  0.000
 -0.000 -0.000  0.994  0.000  0.000
  0.000  0.000  0.000  1.002 -0.000
  0.000  0.000  0.000 -0.000  0.985
   spin  2
    eigenvalues: 
  0.066  0.130  0.142  0.142  0.249
    eigenvectors:
  0.000  1.000  0.000  0.000  0.000
  0.000  0.000  0.358  0.642  0.000
  0.000  0.000  0.642  0.358  0.000
  1.000  0.000  0.000  0.000  0.000
  0.000  0.000  0.000  0.000  1.000
    occupations:
  0.130 -0.000 -0.000  0.000  0.000
 -0.000  0.142 -0.000  0.000  0.000
 -0.000 -0.000  0.142  0.000  0.000
  0.000  0.000  0.000  0.066 -0.000
  0.000  0.000  0.000 -0.000  0.249
atomic mag. moment =     4.245451
atom    3   Tr[ns(na)] (up, down, total) =   0.72412  4.97173  5.69585
   spin  1
    eigenvalues: 
  0.066  0.123  0.146  0.146  0.244
    eigenvectors:
  0.000  1.000  0.000  0.000  0.000
  0.000  0.000  0.226  0.774  0.000
  0.000  0.000  0.774  0.226  0.000
  1.000  0.000  0.000  0.000  0.000
  0.000  0.000  0.000  0.000  1.000
    occupations:
  0.123 -0.000 -0.000  0.000  0.000
 -0.000  0.146 -0.000  0.000  0.000
 -0.000 -0.000  0.146  0.000  0.000
  0.000  0.000  0.000  0.066 -0.000
  0.000  0.000  0.000 -0.000  0.244
   spin  2
    eigenvalues: 
  0.985  0.994  0.994  0.997  1.003
    eigenvectors:
  0.000  0.000  0.000  1.000  0.000
  0.000  0.312  0.688  0.000  0.000
  0.000  0.688  0.312  0.000  0.000
  0.000  0.000  0.000  0.000  1.000
  1.000  0.000  0.000  0.000  0.000
    occupations:
  0.997 -0.000 -0.000  0.000  0.000
 -0.000  0.994 -0.000  0.000  0.000
 -0.000 -0.000  0.994  0.000  0.000
  0.000  0.000  0.000  1.003 -0.000
  0.000  0.000  0.000 -0.000  0.985
atomic mag. moment =    -4.247605
atom    4   Tr[ns(na)] (up, down, total) =   4.97447  0.70443  5.67890
   spin  1
    eigenvalues: 
  0.985  0.994  0.994  0.998  1.003
    eigenvectors:
  0.000  0.000  0.000  1.000  0.000
  0.000  0.281  0.719  0.000  0.000
  0.000  0.719  0.281  0.000  0.000
  0.000  0.000  0.000  0.000  1.000
  1.000  0.000  0.000  0.000  0.000
    occupations:
  0.998 -0.000 -0.000  0.000  0.000
 -0.000  0.994 -0.000  0.000  0.000
 -0.000 -0.000  0.994  0.000  0.000
  0.000  0.000  0.000  1.003 -0.000
  0.000  0.000  0.000 -0.000  0.985
   spin  2
    eigenvalues: 
  0.067  0.107  0.147  0.147  0.238
    eigenvectors:
  0.000  1.000  0.000  0.000  0.000
  0.000  0.000  0.279  0.721  0.000
  0.000  0.000  0.721  0.279  0.000
  1.000  0.000  0.000  0.000  0.000
  0.000  0.000  0.000  0.000  1.000
    occupations:
  0.107 -0.000 -0.000  0.000  0.000
 -0.000  0.147 -0.000  0.000  0.000
 -0.000 -0.000  0.147  0.000  0.000
  0.000  0.000  0.000  0.067 -0.000
  0.000  0.000  0.000 -0.000  0.238
atomic mag. moment =     4.270036
atom    5   Tr[ns(na)] (up, down, total) =   0.70435  4.97445  5.67880
   spin  1
    eigenvalues: 
  0.067  0.107  0.147  0.147  0.238
    eigenvectors:
  0.000  1.000  0.000  0.000  0.000
  0.000  0.000  0.327  0.673  0.000
  0.000  0.000  0.673  0.327  0.000
  1.000  0.000  0.000  0.000  0.000
  0.000  0.000  0.000  0.000  1.000
    occupations:
  0.107 -0.000 -0.000  0.000  0.000
 -0.000  0.147 -0.000  0.000  0.000
 -0.000 -0.000  0.147  0.000  0.000
  0.000  0.000  0.000  0.067 -0.000
  0.000  0.000  0.000 -0.000  0.238
   spin  2
    eigenvalues: 
  0.985  0.994  0.994  0.998  1.003
    eigenvectors:
  0.000  0.000  0.000  1.000  0.000
  0.000  0.280  0.720  0.000  0.000
  0.000  0.720  0.280  0.000  0.000
  0.000  0.000  0.000  0.000  1.000
  1.000  0.000  0.000  0.000  0.000
    occupations:
  0.998 -0.000 -0.000  0.000  0.000
 -0.000  0.994 -0.000  0.000  0.000
 -0.000 -0.000  0.994  0.000  0.000
  0.000  0.000  0.000  1.003 -0.000
  0.000  0.000  0.000 -0.000  0.985
atomic mag. moment =    -4.270097
atom    6   Tr[ns(na)] (up, down, total) =   4.97170  0.72405  5.69576
   spin  1
    eigenvalues: 
  0.985  0.994  0.994  0.997  1.003
    eigenvectors:
  0.000  0.000  0.000  1.000  0.000
  0.000  0.383  0.617  0.000  0.000
  0.000  0.617  0.383  0.000  0.000
  0.000  0.000  0.000  0.000  1.000
  1.000  0.000  0.000  0.000  0.000
    occupations:
  0.997 -0.000 -0.000  0.000  0.000
 -0.000  0.994 -0.000  0.000  0.000
 -0.000 -0.000  0.994  0.000  0.000
  0.000  0.000  0.000  1.003 -0.000
  0.000  0.000  0.000 -0.000  0.985
   spin  2
    eigenvalues: 
  0.066  0.123  0.146  0.146  0.244
    eigenvectors:
  0.000  1.000  0.000  0.000  0.000
  0.000  0.000  0.257  0.743  0.000
  0.000  0.000  0.743  0.257  0.000
  1.000  0.000  0.000  0.000  0.000
  0.000  0.000  0.000  0.000  1.000
    occupations:
  0.123 -0.000 -0.000  0.000  0.000
 -0.000  0.146 -0.000  0.000  0.000
 -0.000 -0.000  0.146  0.000  0.000
  0.000  0.000  0.000  0.066 -0.000
  0.000  0.000  0.000 -0.000  0.244
atomic mag. moment =     4.247650
atom    7   Tr[ns(na)] (up, down, total) =   0.72803  4.97346  5.70149
   spin  1
    eigenvalues: 
  0.066  0.130  0.142  0.142  0.249
    eigenvectors:
  0.000  1.000  0.000  0.000  0.000
  0.000  0.000  0.335  0.665  0.000
  0.000  0.000  0.665  0.335  0.000
  1.000  0.000  0.000  0.000  0.000
  0.000  0.000  0.000  0.000  1.000
    occupations:
  0.130 -0.000 -0.000  0.000  0.000
 -0.000  0.142 -0.000  0.000  0.000
 -0.000 -0.000  0.142  0.000  0.000
  0.000  0.000  0.000  0.066 -0.000
  0.000  0.000  0.000 -0.000  0.249
   spin  2
    eigenvalues: 
  0.985  0.994  0.994  0.997  1.002
    eigenvectors:
  0.000  0.000  0.000  1.000  0.000
  0.000  0.411  0.589  0.000  0.000
  0.000  0.589  0.411  0.000  0.000
  0.000  0.000  0.000  0.000  1.000
  1.000  0.000  0.000  0.000  0.000
    occupations:
  0.997 -0.000 -0.000  0.000  0.000
 -0.000  0.994 -0.000  0.000  0.000
 -0.000 -0.000  0.994  0.000  0.000
  0.000  0.000  0.000  1.002 -0.000
  0.000  0.000  0.000 -0.000  0.985
atomic mag. moment =    -4.245433
atom    8   Tr[ns(na)] (up, down, total) =   0.74083  4.97143  5.71226
   spin  1
    eigenvalues: 
  0.064  0.131  0.144  0.144  0.256
    eigenvectors:
  0.000  1.000  0.000  0.000  0.000
  0.000  0.000  0.278  0.722  0.000
  0.000  0.000  0.722  0.278  0.000
  1.000  0.000  0.000  0.000  0.000
  0.000  0.000  0.000  0.000  1.000
    occupations:
  0.131 -0.000 -0.000  0.000  0.000
 -0.000  0.144 -0.000  0.000  0.000
 -0.000 -0.000  0.144  0.000  0.000
  0.000  0.000  0.000  0.064 -0.000
  0.000  0.000  0.000 -0.000  0.256
   spin  2
    eigenvalues: 
  0.985  0.994  0.994  0.996  1.002
    eigenvectors:
  0.000  0.000  0.000  1.000  0.000
  0.000  0.272  0.728  0.000  0.000
  0.000  0.728  0.272  0.000  0.000
  0.000  0.000  0.000  0.000  1.000
  1.000  0.000  0.000  0.000  0.000
    occupations:
  0.996 -0.000 -0.000  0.000  0.000
 -0.000  0.994 -0.000  0.000  0.000
 -0.000 -0.000  0.994  0.000  0.000
  0.000  0.000  0.000  1.002 -0.000
  0.000  0.000  0.000 -0.000  0.985
atomic mag. moment =    -4.230603
N of occupied +U levels =   45.576759
 --- exit write_ns ---

 ------ SPIN UP ------------


          k = 0.0000 0.0000 0.0000 ( 13925 PWs)   bands (ev):

   -66.8494 -66.7881 -66.7311 -66.6886 -62.2216 -62.1850 -62.1289 -62.1018
   -35.6161 -35.5653 -35.5653 -35.5516 -35.5066 -35.5066 -35.4994 -35.4601
   -35.4486 -35.4486 -35.4051 -35.4051 -31.0414 -31.0409 -31.0409 -31.0072
   -31.0036 -31.0036 -30.9548 -30.9474 -30.9474 -30.9291 -30.9200 -30.9200
     5.7773   5.9030   5.9670   6.3377   6.4392   7.0273   7.0859   7.6215
     8.3524   8.4326   8.4478   8.4868   8.5193   8.5195   8.5988   8.7489
     8.8082   8.8477   8.9645   9.0796   9.1525   9.2369   9.2668   9.2930
     9.3082   9.3814   9.4642   9.5129   9.8724   9.9335   9.9377   9.9635
     9.9953  10.0716  10.1288  10.1288  10.1361  10.1439  10.1864  10.1864
    10.1920  10.1992  10.1992  10.2045  10.3120  10.3473  10.3473  10.3561
    10.3561  10.5218  10.5696  10.5696  10.5706  10.5777  10.6015  10.6015
    10.6035  10.6035  10.6142  10.6172  10.6172  10.6247  10.6247  10.6777
    10.7266  10.7266  10.9463  10.9463  10.9679  11.0530  11.0530  11.1058
    11.1094  11.1658  11.2619  11.2666  11.3049  11.3618  11.3937  11.3937
    11.4142  11.4583  11.4583  11.4644  11.6771  11.7533  11.7750  11.7831
    11.7831  11.8819  11.9269  12.0034  12.0034  12.0525  12.1240  12.1435
    12.1841  12.2557  12.2644  12.2644  12.3828  12.3828  12.5937  12.5937
    12.6975  12.7860  12.8262  12.8266  12.9768  13.0144  13.0732  13.5745
    14.0192  14.8387  15.2361  15.9157  16.8304  16.8304  16.8677  16.8677
    16.9295  16.9295  16.9317  16.9635  16.9959  17.0606  17.1349  17.1349
    17.1523  17.1597  17.1686  17.2216  17.5509  17.5873  17.6122  17.6269
    18.6133  19.5783  19.7971  20.1043  20.1043  20.4562  20.4562  20.5466
    20.5466  21.4652

          k = 0.0000 0.0000 0.0242 ( 13893 PWs)   bands (ev):

   -66.8494 -66.7881 -66.7311 -66.6886 -62.2216 -62.1850 -62.1289 -62.1018
   -35.6161 -35.5653 -35.5653 -35.5516 -35.5066 -35.5066 -35.4994 -35.4601
   -35.4486 -35.4486 -35.4051 -35.4051 -31.0414 -31.0409 -31.0409 -31.0072
   -31.0036 -31.0036 -30.9548 -30.9474 -30.9474 -30.9291 -30.9200 -30.9200
     5.7845   5.8674   6.0179   6.2530   6.5413   6.8768   7.2410   7.5601
     8.4096   8.4327   8.4492   8.4868   8.5148   8.5196   8.6044   8.7244
     8.7489   8.8291   9.0081   9.1139   9.1563   9.2231   9.2329   9.3108
     9.3482   9.3733   9.4495   9.5000   9.8747   9.9362   9.9377   9.9635
     9.9953  10.0665  10.1304  10.1304  10.1363  10.1444  10.1716  10.1716
    10.1919  10.2087  10.2222  10.2222  10.3016  10.3016  10.3115  10.4087
    10.4087  10.5251  10.5417  10.5417  10.5665  10.5689  10.5702  10.5702
    10.6026  10.6026  10.6087  10.6087  10.6269  10.6726  10.6895  10.6895
    10.7353  10.7353  10.8882  10.8882  10.9761  11.0861  11.1068  11.1155
    11.1155  11.1893  11.2543  11.2642  11.3048  11.3179  11.3179  11.3636
    11.4146  11.4641  11.5244  11.5244  11.6765  11.7534  11.7567  11.7567
    11.7753  11.8814  11.9271  12.0184  12.0184  12.0582  12.1240  12.1267
    12.2006  12.2506  12.2556  12.2556  12.3869  12.3869  12.5933  12.5933
    12.6976  12.7858  12.8264  12.8372  12.9337  13.0145  13.1262  13.5226
    14.0870  14.7325  15.3496  15.8659  16.8309  16.8309  16.8668  16.8668
    16.9301  16.9301  16.9317  16.9635  16.9959  17.0606  17.1348  17.1348
    17.1523  17.1597  17.1686  17.2216  17.5529  17.5872  17.6112  17.6286
    18.6896  19.2785  20.1281  20.1281  20.1435  20.3332  20.3332  20.7075
    20.7075  21.1202

          k = 0.0000 0.0000-0.0484 ( 13878 PWs)   bands (ev):

   -66.8494 -66.7881 -66.7311 -66.6886 -62.2216 -62.1850 -62.1289 -62.1018
   -35.6161 -35.5653 -35.5653 -35.5516 -35.5066 -35.5066 -35.4994 -35.4601
   -35.4486 -35.4486 -35.4051 -35.4051 -31.0414 -31.0409 -31.0409 -31.0072
   -31.0036 -31.0036 -30.9548 -30.9474 -30.9474 -30.9291 -30.9200 -30.9200
     5.7963   5.8400   6.0725   6.1824   6.6620   6.7424   7.4031   7.4284
     8.4327   8.4504   8.4867   8.4946   8.5196   8.5228   8.5926   8.6285
     8.7488   8.8192   9.0384   9.1331   9.1610   9.2114   9.2248   9.3308
     9.3598   9.3785   9.4276   9.4859   9.8772   9.9377   9.9389   9.9635
     9.9953  10.0615  10.1323  10.1323  10.1364  10.1450  10.1635  10.1635
    10.1919  10.2126  10.2530  10.2530  10.2636  10.2636  10.3109  10.4692
    10.4692  10.4754  10.4754  10.5298  10.5565  10.5671  10.5701  10.5701
    10.6026  10.6026  10.6086  10.6086  10.6399  10.6648  10.7101  10.7101
    10.7839  10.7839  10.8172  10.8172  10.9865  11.0665  11.1078  11.2046
    11.2046  11.2126  11.2256  11.2256  11.2409  11.2619  11.3048  11.3655
    11.4150  11.4637  11.5716  11.5716  11.6759  11.7252  11.7252  11.7534
    11.7756  11.8810  11.9274  12.0325  12.0325  12.0658  12.1121  12.1240
    12.2161  12.2423  12.2467  12.2467  12.3907  12.3907  12.5930  12.5930
    12.6978  12.7855  12.8265  12.8572  12.8941  13.0145  13.1717  13.4711
    14.1596  14.6367  15.4597  15.7983  16.8313  16.8313  16.8658  16.8658
    16.9307  16.9307  16.9316  16.9635  16.9959  17.0606  17.1347  17.1347
    17.1523  17.1597  17.1686  17.2216  17.5549  17.5871  17.6103  17.6302
    18.8345  19.0328  20.1766  20.1766  20.2397  20.2397  20.5288  20.7136
    20.8935  20.8935

          k = 0.0000 0.1250 0.0000 ( 13879 PWs)   bands (ev):

   -66.8491 -66.7878 -66.7308 -66.6883 -62.2217 -62.1850 -62.1289 -62.1019
   -35.6159 -35.5670 -35.5652 -35.5515 -35.5084 -35.5065 -35.4992 -35.4599
   -35.4504 -35.4485 -35.4069 -35.4050 -31.0431 -31.0412 -31.0408 -31.0070
   -31.0058 -31.0035 -30.9546 -30.9496 -30.9473 -30.9288 -30.9222 -30.9199
     6.0206   6.1435   6.2061   6.5664   6.6591   7.2243   7.2678   7.7746
     8.3552   8.5347   8.5642   8.5965   8.6177   8.6335   8.6895   8.7658
     8.7937   8.8563   8.9806   9.0309   9.2020   9.2477   9.2621   9.3017
     9.3448   9.4120   9.4653   9.6265   9.6693   9.7790   9.7931   9.8262
     9.8458   9.8491   9.9046   9.9780  10.0352  10.0630  10.0806  10.1133
    10.1506  10.1676  10.1757  10.2123  10.2139  10.2690  10.3013  10.3149
    10.4184  10.4229  10.4535  10.4622  10.5077  10.5208  10.5753  10.6386
    10.6625  10.6760  10.7569  10.7806  10.7995  10.8094  10.8434  10.8512
    10.9377  10.9818  11.0017  11.0395  11.0798  11.1192  11.1359  11.2067
    11.2340  11.2460  11.2986  11.3193  11.3408  11.3738  11.3817  11.4278
    11.4414  11.4548  11.6079  11.6192  11.6980  11.7468  11.8032  11.8098
    11.8156  11.8922  11.9187  11.9348  11.9579  12.0568  12.0853  12.1113
    12.1538  12.1795  12.2836  12.4333  12.4513  12.4575  12.5072  12.5896
    12.6847  12.7405  12.7595  12.8705  12.8919  12.9465  13.0498  13.6400
    14.0691  14.9615  15.3498  16.0438  16.5849  16.6645  16.7301  16.9323
    16.9380  16.9587  16.9749  16.9911  17.0127  17.0357  17.0526  17.0654
    17.0758  17.1035  17.1302  17.2810  17.5269  17.6315  17.6967  17.9800
    18.6639  18.7555  19.0275  19.1496  19.9125  19.9239  20.0251  20.0933
    20.7375  21.0017

          k = 0.0000 0.1250 0.0242 ( 13869 PWs)   bands (ev):

   -66.8491 -66.7878 -66.7308 -66.6883 -62.2217 -62.1850 -62.1289 -62.1019
   -35.6159 -35.5670 -35.5652 -35.5515 -35.5084 -35.5065 -35.4992 -35.4599
   -35.4504 -35.4485 -35.4069 -35.4050 -31.0431 -31.0412 -31.0408 -31.0070
   -31.0058 -31.0035 -30.9546 -30.9496 -30.9473 -30.9288 -30.9222 -30.9199
     6.0276   6.1089   6.2557   6.4829   6.7591   7.0770   7.4180   7.7163
     8.4058   8.5361   8.5640   8.5921   8.6149   8.6325   8.6611   8.7115
     8.8245   8.8762   8.9801   9.0517   9.1848   9.2500   9.2701   9.3035
     9.3414   9.3743   9.5088   9.6123   9.6719   9.7792   9.7901   9.8249
     9.8476   9.8492   9.9041   9.9825  10.0322  10.0682  10.0763  10.1110
    10.1516  10.1661  10.1787  10.2114  10.2146  10.2615  10.3159  10.3168
    10.4106  10.4126  10.4337  10.4716  10.5155  10.5496  10.5763  10.6367
    10.6641  10.6774  10.7105  10.7529  10.8021  10.8417  10.8571  10.8839
    10.9168  10.9814  11.0249  11.0400  11.0525  11.1061  11.1529  11.1773
    11.2411  11.2771  11.2810  11.3101  11.3409  11.3797  11.3804  11.4170
    11.4409  11.4960  11.5821  11.6480  11.6848  11.7296  11.7542  11.8059
    11.8763  11.8940  11.9193  11.9282  11.9872  12.0263  12.0955  12.1102
    12.1582  12.1607  12.2946  12.4294  12.4512  12.4563  12.5122  12.5871
    12.6856  12.7401  12.7729  12.8706  12.8888  12.8919  13.1228  13.5645
    14.1610  14.8365  15.4750  15.9894  16.5932  16.6646  16.7304  16.9323
    16.9368  16.9591  16.9750  16.9911  17.0127  17.0358  17.0524  17.0655
    17.0758  17.1034  17.1302  17.2810  17.5274  17.6180  17.7344  17.9219
    18.7135  18.8475  18.9363  19.2767  19.5580  19.7266  20.2296  20.4818
    20.7544  20.8016

          k = 0.0000 0.1250-0.0484 ( 13868 PWs)   bands (ev):

   -66.8491 -66.7878 -66.7308 -66.6883 -62.2217 -62.1850 -62.1289 -62.1019
   -35.6159 -35.5670 -35.5652 -35.5515 -35.5084 -35.5065 -35.4992 -35.4599
   -35.4504 -35.4485 -35.4069 -35.4050 -31.0431 -31.0412 -31.0408 -31.0070
   -31.0058 -31.0035 -30.9546 -30.9496 -30.9473 -30.9288 -30.9222 -30.9199
     6.0389   6.0824   6.3092   6.4137   6.8782   6.9457   7.5717   7.5907
     8.4919   8.5355   8.5513   8.5694   8.5983   8.6138   8.6359   8.7139
     8.8270   8.8853   8.9915   9.0701   9.1671   9.2488   9.2814   9.3072
     9.3367   9.3469   9.5552   9.5811   9.6758   9.7793   9.7864   9.8237
     9.8492   9.8496   9.9036   9.9873  10.0297  10.0718  10.0732  10.1082
    10.1525  10.1651  10.1813  10.2103  10.2153  10.2565  10.3169  10.3347
    10.3874  10.4078  10.4304  10.4819  10.5081  10.5773  10.5991  10.6351
    10.6527  10.6652  10.6793  10.7491  10.8044  10.8421  10.8672  10.8967
    10.9465  10.9791  11.0054  11.0408  11.0469  11.0930  11.1667  11.1727
    11.2264  11.2642  11.3037  11.3065  11.3445  11.3779  11.3805  11.4155
    11.4390  11.5346  11.5683  11.6583  11.6699  11.7214  11.7230  11.8073
    11.8950  11.9054  11.9258  11.9329  11.9909  12.0163  12.1002  12.1063
    12.1365  12.1669  12.3035  12.4258  12.4510  12.4550  12.5171  12.5844
    12.6866  12.7397  12.8002  12.8364  12.8706  12.8919  13.1870  13.4899
    14.2581  14.7210  15.5946  15.9150  16.6009  16.6646  16.7308  16.9323
    16.9357  16.9593  16.9750  16.9910  17.0127  17.0360  17.0522  17.0655
    17.0758  17.1033  17.1302  17.2810  17.5279  17.6091  17.8056  17.8309
    18.7614  18.8455  19.0832  19.2418  19.4231  19.5566  20.4708  20.5148
    20.7839  20.8602

          k = 0.0000 0.2500 0.0000 ( 13848 PWs)   bands (ev):

   -66.8489 -66.7877 -66.7307 -66.6881 -62.2213 -62.1846 -62.1286 -62.1015
   -35.6155 -35.5712 -35.5649 -35.5511 -35.5126 -35.5063 -35.4988 -35.4595
   -35.4546 -35.4483 -35.4111 -35.4048 -31.0483 -31.0406 -31.0404 -31.0111
   -31.0064 -31.0032 -30.9549 -30.9540 -30.9470 -30.9282 -30.9275 -30.9195
     6.7088   6.8208   6.8785   7.1960   7.2591   7.7197   7.7210   8.0991
     8.2986   8.5293   8.5432   8.7284   8.7501   8.7737   8.8266   8.8595
     8.8843   8.8969   8.9645   8.9799   9.0569   9.1321   9.2325   9.2874
     9.5012   9.5103   9.5236   9.5578   9.5915   9.6257   9.6272   9.6360
     9.6782   9.6796   9.6907   9.7921   9.8184   9.8235   9.9006   9.9996
    10.0262  10.0513  10.1481  10.1718  10.1742  10.2672  10.3317  10.4302
    10.4501  10.5800  10.6190  10.6453  10.6537  10.6674  10.7329  10.7562
    10.8453  10.8652  10.8875  10.9153  10.9336  10.9409  11.0233  11.0321
    11.1208  11.1262  11.1777  11.1784  11.1948  11.2858  11.2972  11.3141
    11.3810  11.4219  11.4330  11.4533  11.4798  11.4859  11.5591  11.6065
    11.6508  11.6678  11.7112  11.7192  11.7881  11.7949  11.8315  11.8735
    11.8951  11.9007  11.9178  11.9605  12.0295  12.0575  12.0594  12.0683
    12.0821  12.2084  12.2126  12.3553  12.5160  12.5647  12.5671  12.6625
    12.7071  12.7324  12.7541  12.8701  12.9136  12.9546  12.9825  13.8318
    14.1768  15.1798  15.4504  15.9252  16.0123  16.0513  16.1350  16.2811
    16.4033  16.5274  16.6797  16.8221  16.9065  16.9189  17.0408  17.0574
    17.0857  17.2497  17.2631  17.2972  17.3046  17.3518  17.4115  17.4171
    17.6634  17.7875  17.9024  18.1038  18.5434  18.6322  18.6822  18.8297
    19.5731  20.5215

          k = 0.0000 0.2500 0.0242 ( 13862 PWs)   bands (ev):

   -66.8489 -66.7877 -66.7307 -66.6881 -62.2213 -62.1846 -62.1286 -62.1015
   -35.6155 -35.5712 -35.5649 -35.5511 -35.5126 -35.5063 -35.4988 -35.4595
   -35.4546 -35.4483 -35.4111 -35.4048 -31.0483 -31.0406 -31.0404 -31.0111
   -31.0064 -31.0032 -30.9549 -30.9540 -30.9470 -30.9282 -30.9275 -30.9195
     6.7150   6.7903   6.9225   7.1194   7.3473   7.5950   7.8419   8.0537
     8.3341   8.4723   8.5958   8.6983   8.7601   8.7831   8.8238   8.8586
     8.8830   8.8971   8.9634   8.9888   9.0518   9.1371   9.2242   9.2831
     9.5012   9.5233   9.5345   9.5588   9.5896   9.6251   9.6273   9.6339
     9.6790   9.6794   9.6901   9.7633   9.7923   9.8235   9.9658   9.9992
    10.0271  10.0506  10.1379  10.1493  10.1740  10.2592  10.3501  10.4324
    10.4528  10.5686  10.6045  10.6491  10.6696  10.6871  10.7232  10.7551
    10.8448  10.8540  10.8694  10.9139  10.9314  10.9774  10.9926  11.0551
    11.1189  11.1343  11.1476  11.1790  11.2290  11.2692  11.2971  11.3238
    11.3769  11.4199  11.4298  11.4596  11.4783  11.4953  11.5575  11.5936
    11.6130  11.6706  11.7087  11.7731  11.7953  11.7975  11.8337  11.8682
    11.8921  11.9096  11.9145  11.9588  11.9902  12.0032  12.0794  12.0906
    12.1141  12.2014  12.2304  12.3360  12.5212  12.5688  12.5875  12.6579
    12.7070  12.7326  12.7549  12.7616  12.9137  12.9546  13.1248  13.6791
    14.3374  15.0173  15.5876  15.9188  15.9973  16.0337  16.1265  16.2939
    16.3922  16.5404  16.6756  16.8221  16.9065  16.9189  17.0408  17.0575
    17.0857  17.2497  17.2568  17.2972  17.3130  17.3518  17.4171  17.4174
    17.6280  17.7983  17.9433  18.1752  18.3583  18.5026  18.8350  18.9332
    19.6125  20.1623

          k = 0.0000 0.2500-0.0484 ( 13842 PWs)   bands (ev):

   -66.8489 -66.7877 -66.7307 -66.6881 -62.2213 -62.1846 -62.1286 -62.1015
   -35.6155 -35.5712 -35.5649 -35.5511 -35.5126 -35.5063 -35.4988 -35.4595
   -35.4546 -35.4483 -35.4111 -35.4048 -31.0483 -31.0406 -31.0404 -31.0111
   -31.0064 -31.0032 -30.9549 -30.9540 -30.9470 -30.9282 -30.9275 -30.9195
     6.7245   6.7671   6.9710   7.0577   7.4545   7.4829   7.9399   7.9736
     8.3883   8.4167   8.6462   8.6541   8.7636   8.7916   8.8201   8.8580
     8.8822   8.8974   8.9631   8.9965   9.0473   9.1418   9.2153   9.2796
     9.5013   9.5230   9.5599   9.5678   9.5878   9.6153   9.6288   9.6321
     9.6783   9.6838   9.6869   9.7242   9.7925   9.8234   9.9988  10.0280
    10.0433  10.0498  10.0741  10.1505  10.1737  10.2530  10.3775  10.4046
    10.4809  10.5475  10.5978  10.6548  10.6785  10.7124  10.7170  10.7507
    10.8093  10.8579  10.8862  10.9045  10.9295  10.9752  11.0022  11.0740
    11.1061  11.1101  11.1759  11.1802  11.2244  11.2699  11.2971  11.3287
    11.3724  11.4177  11.4274  11.4652  11.4770  11.5180  11.5423  11.5673
    11.6034  11.6780  11.7043  11.7944  11.8075  11.8240  11.8365  11.8634
    11.8780  11.9096  11.9274  11.9521  11.9540  11.9803  12.0796  12.1007
    12.1415  12.1903  12.2583  12.3077  12.5253  12.5738  12.6376  12.6528
    12.6681  12.7070  12.7328  12.7557  12.9137  12.9545  13.2604  13.5261
    14.4985  14.8581  15.7053  15.8892  15.9819  16.0125  16.1257  16.3048
    16.3819  16.5525  16.6710  16.8221  16.9065  16.9189  17.0408  17.0575
    17.0857  17.2497  17.2520  17.2972  17.3198  17.3518  17.4171  17.4238
    17.6050  17.7800  18.0936  18.1368  18.3201  18.3496  18.9373  18.9736
    19.7598  19.8707

          k = 0.0000 0.3750 0.0000 ( 13856 PWs)   bands (ev):

   -66.8495 -66.7883 -66.7312 -66.6887 -62.2203 -62.1836 -62.1276 -62.1005
   -35.6151 -35.5753 -35.5647 -35.5507 -35.5166 -35.5060 -35.4984 -35.4591
   -35.4586 -35.4480 -35.4152 -35.4045 -31.0537 -31.0401 -31.0401 -31.0165
   -31.0058 -31.0028 -30.9603 -30.9534 -30.9466 -30.9329 -30.9277 -30.9192
     7.6666   7.7529   7.7973   7.9896   8.0001   8.1488   8.1673   8.2203
     8.2547   8.3282   8.3476   8.4765   8.5400   8.6922   8.7282   8.9165
     9.0102   9.0600   9.1494   9.1919   9.2027   9.2492   9.2676   9.2759
     9.3098   9.3219   9.3338   9.3530   9.3875   9.5455   9.5470   9.6007
     9.6281   9.6394   9.6848   9.7687   9.7965   9.8631   9.9286   9.9472
    10.0379  10.0626  10.1108  10.1253  10.1508  10.1897  10.2488  10.4113
    10.5242  10.5732  10.5745  10.6683  10.7128  10.7793  10.8150  10.8867
    10.9027  10.9199  11.0452  11.0824  11.2158  11.2448  11.2922  11.3269
    11.3370  11.3603  11.3758  11.4559  11.5156  11.5196  11.5426  11.5545
    11.5723  11.6099  11.6582  11.7177  11.7304  11.7491  11.7541  11.8259
    11.8345  11.8441  11.8531  11.8869  11.9713  12.0289  12.0320  12.0464
    12.0687  12.0797  12.1055  12.1298  12.1587  12.1835  12.2709  12.2932
    12.3289  12.3671  12.4169  12.4620  12.4655  12.6249  12.6926  12.7290
    12.7934  12.8066  12.8396  12.9683  12.9792  12.9936  13.0066  13.9225
    13.9575  13.9994  14.2417  14.2788  14.7474  14.7878  15.0935  15.1135
    15.4541  15.5134  15.8261  15.8348  16.7849  16.8035  16.8389  16.8412
    16.8453  16.8938  16.9693  16.9972  17.0777  17.1478  17.1525  17.3175
    17.4510  17.4988  17.5573  17.5853  17.9114  17.9956  18.0387  18.2017
    19.7308  19.8376

          k = 0.0000 0.3750 0.0242 ( 13870 PWs)   bands (ev):

   -66.8495 -66.7883 -66.7312 -66.6887 -62.2203 -62.1836 -62.1276 -62.1005
   -35.6151 -35.5753 -35.5647 -35.5507 -35.5166 -35.5060 -35.4984 -35.4591
   -35.4586 -35.4480 -35.4152 -35.4045 -31.0537 -31.0401 -31.0401 -31.0165
   -31.0058 -31.0028 -30.9603 -30.9534 -30.9466 -30.9329 -30.9277 -30.9192
     7.6708   7.7324   7.8268   7.9410   8.0456   8.1276   8.1820   8.2141
     8.2608   8.3091   8.3735   8.4526   8.5627   8.6680   8.7456   8.9115
     9.0137   9.0698   9.1285   9.1664   9.2319   9.2676   9.2696   9.2758
     9.3100   9.3203   9.3338   9.3530   9.3872   9.5203   9.5459   9.5735
     9.6280   9.6697   9.6853   9.7938   9.7997   9.8671   9.9295   9.9525
    10.0266  10.0744  10.0949  10.1109  10.1211  10.1521  10.3407  10.4151
    10.5073  10.5716  10.5746  10.6651  10.7090  10.7796  10.7897  10.8896
    10.9025  10.9221  11.0767  11.0958  11.2147  11.2431  11.2830  11.3077
    11.3391  11.3466  11.4135  11.4723  11.4773  11.5057  11.5458  11.5460
    11.5872  11.6166  11.6546  11.7071  11.7266  11.7304  11.7660  11.7917
    11.8327  11.8658  11.8683  11.9202  11.9595  12.0102  12.0222  12.0292
    12.0458  12.0806  12.1177  12.1605  12.1762  12.2424  12.2780  12.2825
    12.3463  12.3533  12.4294  12.4613  12.4613  12.6236  12.6944  12.7187
    12.7281  12.7932  12.8067  12.8396  12.9936  13.0066  13.2338  13.7334
    13.9688  14.1288  14.1827  14.4164  14.5954  14.8249  14.9963  15.2542
    15.4084  15.5983  15.7728  15.8231  16.7849  16.7875  16.8386  16.8389
    16.8453  16.9161  16.9693  16.9964  17.0824  17.1203  17.1848  17.3091
    17.4510  17.4988  17.5573  17.5853  17.9130  17.9827  18.0532  18.2000
    19.7370  19.8646

          k = 0.0000 0.3750-0.0484 ( 13872 PWs)   bands (ev):

   -66.8495 -66.7883 -66.7312 -66.6887 -62.2203 -62.1836 -62.1276 -62.1005
   -35.6151 -35.5753 -35.5647 -35.5507 -35.5166 -35.5060 -35.4984 -35.4591
   -35.4586 -35.4480 -35.4152 -35.4045 -31.0537 -31.0401 -31.0401 -31.0165
   -31.0058 -31.0028 -30.9603 -30.9534 -30.9466 -30.9329 -30.9277 -30.9192
     7.6766   7.7170   7.8619   7.9018   8.0828   8.0985   8.1953   8.2044
     8.2683   8.2962   8.4059   8.4190   8.5857   8.6451   8.7569   8.9065
     9.0175   9.0892   9.1008   9.1552   9.2437   9.2676   9.2757   9.2908
     9.3101   9.3210   9.3339   9.3531   9.3868   9.4874   9.5463   9.5688
     9.6280   9.6789   9.6865   9.7912   9.8375   9.8709   9.9305   9.9747
    10.0149  10.0186  10.0839  10.1112  10.1159  10.1531  10.4005  10.4345
    10.4738  10.5641  10.5747  10.6620  10.7059  10.7563  10.8018  10.8750
    10.9064  10.9259  11.1096  11.1149  11.2086  11.2418  11.2650  11.2898
    11.3387  11.3741  11.4194  11.4587  11.4711  11.4857  11.5476  11.5508
    11.5857  11.6323  11.6554  11.6840  11.7070  11.7500  11.7590  11.7923
    11.8110  11.8848  11.8863  11.9283  11.9777  11.9877  12.0103  12.0112
    12.0401  12.0815  12.1151  12.1620  12.2170  12.2297  12.2871  12.3361
    12.3398  12.4231  12.4449  12.4519  12.4887  12.5052  12.6224  12.6964
    12.7270  12.7930  12.8068  12.8397  12.9936  13.0066  13.4662  13.5139
    14.0126  14.0484  14.3643  14.3965  14.5985  14.6664  15.1173  15.1626
    15.5560  15.5633  15.7609  15.7732  16.7757  16.7849  16.8374  16.8389
    16.8453  16.9330  16.9693  16.9954  17.0938  17.1005  17.2052  17.2984
    17.4510  17.4988  17.5573  17.5853  17.9149  17.9731  18.0643  18.1981
    19.7532  19.8630

          k = 0.0000-0.5000 0.0000 ( 13918 PWs)   bands (ev):

   -66.8499 -66.7887 -66.7317 -66.6892 -62.2197 -62.1830 -62.1270 -62.0999
   -35.6149 -35.5769 -35.5646 -35.5505 -35.5183 -35.5059 -35.4982 -35.4603
   -35.4590 -35.4479 -35.4168 -35.4044 -31.0560 -31.0400 -31.0398 -31.0187
   -31.0056 -31.0027 -30.9626 -30.9532 -30.9465 -30.9352 -30.9275 -30.9191
     8.1445   8.1570   8.1865   8.1922   8.2560   8.2648   8.3379   8.3627
     8.4067   8.4349   8.5149   8.5196   8.5449   8.6105   8.7027   8.7090
     9.0214   9.0305   9.1655   9.1706   9.1786   9.2144   9.2485   9.2535
     9.2639   9.2721   9.2811   9.3772   9.4911   9.5001   9.5764   9.6720
     9.6959   9.7167   9.7236   9.7605   9.7999   9.8509   9.8631   9.9350
     9.9987  10.0259  10.0367  10.0391  10.0604  10.1305  10.2077  10.3003
    10.3520  10.5658  10.6058  10.6191  10.6250  10.6898  10.7172  10.8858
    11.0165  11.2143  11.2425  11.2532  11.3551  11.4044  11.4074  11.4858
    11.5044  11.5069  11.5427  11.5492  11.5533  11.5708  11.5863  11.6028
    11.6212  11.6439  11.6624  11.6850  11.7561  11.7816  11.7950  11.8252
    11.8326  11.9026  12.0848  12.0874  12.2311  12.2352  12.3211  12.3582
    12.4012  12.4116  12.4231  12.4463  12.4599  12.5209  12.5549  12.5629
    12.5910  12.6577  12.6898  12.7225  12.7249  12.7830  12.7999  12.8282
    12.8396  12.8802  12.9583  12.9896  13.0247  13.0290  13.1278  13.1941
    13.2322  13.3768  13.6284  13.7687  13.8707  13.9065  14.3250  14.4235
    14.4478  14.5359  14.8282  14.8830  16.5170  16.7022  16.7287  16.8183
    16.8200  16.8266  16.8594  16.8602  16.8888  16.8933  17.0172  17.0368
    17.5248  17.5727  17.6358  17.6545  17.9215  17.9765  18.0306  18.0537
    19.7550  19.8291

          k = 0.0000-0.5000 0.0242 ( 13918 PWs)   bands (ev):

   -66.8499 -66.7887 -66.7317 -66.6892 -62.2197 -62.1830 -62.1270 -62.0999
   -35.6149 -35.5769 -35.5646 -35.5505 -35.5183 -35.5059 -35.4982 -35.4603
   -35.4590 -35.4479 -35.4168 -35.4044 -31.0560 -31.0400 -31.0398 -31.0187
   -31.0056 -31.0027 -30.9626 -30.9532 -30.9465 -30.9352 -30.9275 -30.9191
     8.1441   8.1566   8.1880   8.1934   8.2538   8.2621   8.3418   8.3661
     8.4008   8.4385   8.5068   8.5193   8.5522   8.6096   8.7028   8.7089
     9.0221   9.0335   9.1548   9.1706   9.1786   9.2144   9.2348   9.2485
     9.2721   9.2811   9.2837   9.4131   9.4911   9.5000   9.5441   9.6092
     9.7232   9.7238   9.7569   9.7609   9.7968   9.8506   9.8631   9.9531
     9.9993  10.0259  10.0367  10.0387  10.0604  10.1482  10.1698  10.3116
    10.3245  10.5858  10.6058  10.6190  10.6233  10.6898  10.7172  10.8938
    11.0166  11.2118  11.2411  11.2529  11.3605  11.3954  11.4074  11.4852
    11.5048  11.5060  11.5389  11.5496  11.5612  11.5672  11.5845  11.5993
    11.6174  11.6373  11.6596  11.6795  11.7717  11.7797  11.7992  11.8224
    11.8320  11.9261  12.0848  12.0885  12.2033  12.2394  12.3191  12.3702
    12.4013  12.4116  12.4248  12.4463  12.4588  12.5232  12.5482  12.5552
    12.5966  12.6710  12.6889  12.7195  12.7249  12.7838  12.7999  12.8191
    12.8282  12.8800  12.9834  13.0040  13.0247  13.0290  13.0942  13.1999
    13.2193  13.4138  13.6110  13.7011  13.9488  13.9519  14.2257  14.3204
    14.5488  14.6388  14.7957  14.8529  16.5270  16.7029  16.7123  16.8200
    16.8261  16.8266  16.8594  16.8602  16.8887  16.8933  17.0172  17.0368
    17.5248  17.5727  17.6358  17.6545  17.9217  17.9762  18.0307  18.0537
    19.7795  19.8486

          k = 0.0000-0.5000-0.0484 ( 13892 PWs)   bands (ev):

   -66.8499 -66.7887 -66.7317 -66.6892 -62.2197 -62.1830 -62.1270 -62.0999
   -35.6149 -35.5769 -35.5646 -35.5505 -35.5183 -35.5059 -35.4982 -35.4603
   -35.4590 -35.4479 -35.4168 -35.4044 -31.0560 -31.0400 -31.0398 -31.0187
   -31.0056 -31.0027 -30.9626 -30.9532 -30.9465 -30.9352 -30.9274 -30.9191
     8.1437   8.1563   8.1896   8.1946   8.2517   8.2595   8.3462   8.3696
     8.3951   8.4414   8.5004   8.5190   8.5578   8.6086   8.7028   8.7088
     9.0227   9.0367   9.1462   9.1706   9.1786   9.2143   9.2201   9.2485
     9.2721   9.2811   9.3033   9.4585   9.4911   9.5000   9.5163   9.5539
     9.7239   9.7448   9.7627   9.7751   9.7915   9.8502   9.8631   9.9771
     9.9998  10.0259  10.0367  10.0384  10.0604  10.1343  10.1774  10.2637
    10.3413  10.6018  10.6058  10.6190  10.6214  10.6898  10.7172  10.9026
    11.0168  11.2092  11.2400  11.2526  11.3655  11.3851  11.4074  11.4846
    11.5037  11.5052  11.5409  11.5505  11.5549  11.5714  11.5828  11.6068
    11.6104  11.6258  11.6608  11.6743  11.7783  11.7813  11.8036  11.8189
    11.8314  11.9544  12.0848  12.0895  12.1741  12.2438  12.3172  12.3797
    12.4014  12.4115  12.4265  12.4463  12.4577  12.5269  12.5411  12.5486
    12.6014  12.6850  12.6880  12.7165  12.7249  12.7845  12.7999  12.8002
    12.8282  12.8798  13.0086  13.0248  13.0291  13.0342  13.0526  13.1701
    13.2372  13.4504  13.5951  13.6515  14.0108  14.0254  14.1374  14.2368
    14.6431  14.7372  14.7432  14.7860  16.5383  16.6960  16.7037  16.8200
    16.8266  16.8325  16.8594  16.8602  16.8886  16.8933  17.0171  17.0368
    17.5248  17.5727  17.6358  17.6545  17.9220  17.9759  18.0308  18.0537
    19.8146  19.8743

          k = 0.1250 0.1250 0.0000 ( 13839 PWs)   bands (ev):

   -66.8488 -66.7875 -66.7305 -66.6880 -62.2217 -62.1851 -62.1290 -62.1019
   -35.6158 -35.5670 -35.5669 -35.5513 -35.5083 -35.5083 -35.4990 -35.4598
   -35.4503 -35.4503 -35.4068 -35.4068 -31.0430 -31.0428 -31.0410 -31.0067
   -31.0057 -31.0055 -30.9544 -30.9496 -30.9494 -30.9286 -30.9221 -30.9219
     6.2530   6.3734   6.4367   6.7892   6.8772   7.4243   7.4577   7.9413
     8.4131   8.6150   8.6848   8.7004   8.7352   8.7594   8.7645   8.7720
     8.8138   8.9583   9.0444   9.0680   9.1775   9.3260   9.3744   9.3835
     9.4063   9.4155   9.4861   9.4989   9.6075   9.6887   9.7253   9.7545
     9.7964   9.8421   9.8461   9.8885   9.8965   9.9055   9.9202   9.9467
    10.1299  10.1313  10.1341  10.1443  10.1733  10.2354  10.2850  10.3418
    10.3634  10.3730  10.3872  10.4068  10.4190  10.4229  10.5396  10.5486
    10.6797  10.7127  10.7141  10.7375  10.7736  10.7805  10.8133  10.9091
    10.9377  10.9587  11.0474  11.1388  11.1504  11.1777  11.1956  11.2664
    11.2775  11.2963  11.3773  11.3820  11.4011  11.4339  11.4499  11.4778
[...]
    11.4532  11.5610  11.6330  11.6381  11.6581  11.6876  11.6964  11.7201
    11.8428  11.8644  11.8970  11.9099  11.9811  12.0077  12.0180  12.0337
    12.0710  12.1157  12.2000  12.2016  12.2421  12.3573  12.3692  12.4333
    12.4370  12.4750  12.4801  12.4846  12.8442  12.9200  12.9241  13.0697
    13.1564  13.3702  13.4013  13.4615  13.7957  13.9458  14.0179  14.3702
    14.4024  14.4481  14.6570  14.7040  15.0572  15.2578  15.2796  15.6729
    16.0138  16.2208  16.4065  16.4116  16.9522  17.0652  17.0780  17.0940
    17.1136  17.1574  17.1647  17.3714  17.5932  17.6579  17.7463  17.7811
    17.9272  18.0138  18.0751  18.1414  18.1742  18.2880  18.3613  18.4081
    19.7415  19.8349

          k = 0.3750 0.3750 0.0000 ( 13948 PWs)   bands (ev):

   -66.8471 -66.7874 -66.7297 -66.6873 -62.2213 -62.1836 -62.1279 -62.1008
   -35.6137 -35.5737 -35.5736 -35.5509 -35.5165 -35.5165 -35.4979 -35.4588
   -35.4579 -35.4579 -35.4145 -35.4145 -31.0531 -31.0529 -31.0398 -31.0148
   -31.0146 -31.0046 -30.9590 -30.9588 -30.9525 -30.9316 -30.9314 -30.9268
     8.0656   8.1539   8.2591   8.4113   8.4745   8.5169   8.6307   8.6721
     8.9192   9.0209   9.0285   9.0421   9.0891   9.1186   9.1456   9.2039
     9.2541   9.2782   9.3196   9.3399   9.3573   9.3745   9.3772   9.4656
     9.4838   9.4957   9.5017   9.5503   9.6434   9.6674   9.6883   9.8231
     9.9382   9.9495   9.9698   9.9924  10.0288  10.0352  10.0419  10.0920
    10.1309  10.1388  10.1479  10.1804  10.2150  10.2601  10.2732  10.3121
    10.3128  10.4250  10.4957  10.5543  10.5820  10.6237  10.7015  10.7256
    10.7458  10.8236  10.8632  10.8839  10.9912  11.0263  11.0854  11.1117
    11.1533  11.2092  11.2332  11.2827  11.2999  11.4501  11.4545  11.4962
    11.5089  11.5708  11.5731  11.6000  11.6356  11.6419  11.6432  11.7166
    11.7925  11.9578  11.9809  11.9851  11.9988  12.0069  12.0140  12.0236
    12.0406  12.0559  12.1190  12.1470  12.1847  12.2439  12.2769  12.3485
    12.3660  12.4299  12.4572  12.5349  12.6716  12.7307  12.7867  13.1673
    13.1942  13.5318  13.6643  14.0220  14.3173  14.6718  14.8272  15.0617
    15.1034  15.2023  15.2190  15.3775  15.8912  16.1711  16.2580  16.3907
    16.4400  16.5405  17.0299  17.0759  17.0923  17.1268  17.1432  17.2550
    17.3625  17.5334  17.7050  17.7880  17.8352  17.8577  17.8634  17.9762
    18.0505  18.0794  18.1396  18.1715  18.2169  18.4760  18.6054  18.7257
    18.7760  18.8569

          k = 0.3750 0.3750 0.0242 ( 13940 PWs)   bands (ev):

   -66.8471 -66.7874 -66.7297 -66.6873 -62.2213 -62.1836 -62.1279 -62.1008
   -35.6137 -35.5737 -35.5736 -35.5509 -35.5165 -35.5165 -35.4979 -35.4588
   -35.4579 -35.4579 -35.4145 -35.4145 -31.0531 -31.0529 -31.0398 -31.0148
   -31.0146 -31.0046 -30.9590 -30.9588 -30.9525 -30.9316 -30.9314 -30.9268
     8.0682   8.1451   8.2706   8.4124   8.4696   8.5160   8.5980   8.7139
     8.9132   9.0201   9.0326   9.0404   9.0837   9.1068   9.1467   9.2153
     9.2317   9.2979   9.3201   9.3451   9.3521   9.3838   9.3928   9.4456
     9.4593   9.4956   9.5230   9.5633   9.6198   9.6421   9.7413   9.8380
     9.8801   9.9661   9.9716   9.9748  10.0007  10.0438  10.0625  10.1082
    10.1388  10.1580  10.1805  10.1878  10.2022  10.2090  10.2552  10.3241
    10.3497  10.4121  10.4542  10.5461  10.5857  10.6564  10.7037  10.7398
    10.7523  10.8251  10.8630  10.8840  10.9472  11.0263  11.0918  11.1122
    11.1548  11.2002  11.2380  11.2876  11.3295  11.4462  11.4510  11.4916
    11.5133  11.5708  11.5716  11.6010  11.6119  11.6350  11.6435  11.7166
    11.8270  11.9537  11.9582  11.9800  11.9977  12.0070  12.0127  12.0292
    12.0568  12.0630  12.1073  12.1397  12.1991  12.2461  12.2765  12.3359
    12.3653  12.4300  12.4648  12.5503  12.6692  12.6703  12.8578  13.0768
    13.2826  13.4875  13.6923  14.0102  14.3291  14.6529  14.8451  15.0562
    15.1108  15.1759  15.2391  15.3764  15.8913  16.1749  16.2557  16.3788
    16.4445  16.5515  17.0260  17.0684  17.0938  17.1268  17.1432  17.2416
    17.3811  17.5413  17.6849  17.7893  17.8351  17.8633  17.8843  17.9585
    18.0485  18.0565  18.1399  18.2542  18.2635  18.3984  18.5322  18.6471
    18.6979  19.0040

          k = 0.3750 0.3750-0.0484 ( 13950 PWs)   bands (ev):

   -66.8471 -66.7874 -66.7297 -66.6873 -62.2213 -62.1836 -62.1279 -62.1008
   -35.6137 -35.5737 -35.5736 -35.5509 -35.5165 -35.5165 -35.4979 -35.4588
   -35.4579 -35.4579 -35.4145 -35.4145 -31.0531 -31.0529 -31.0398 -31.0148
   -31.0146 -31.0046 -30.9590 -30.9588 -30.9525 -30.9316 -30.9314 -30.9268
     8.0711   8.1368   8.2816   8.4135   8.4649   8.5126   8.5826   8.7415
     8.9069   9.0197   9.0359   9.0384   9.0748   9.0934   9.1716   9.1854
     9.2513   9.2888   9.3206   9.3487   9.3567   9.3938   9.4304   9.4309
     9.4475   9.4526   9.5603   9.5758   9.5900   9.6300   9.7980   9.8206
     9.8699   9.9199   9.9671   9.9726  10.0029  10.0427  10.1183  10.1261
    10.1388  10.1422  10.1662  10.1878  10.1966  10.2303  10.2454  10.3294
    10.3648  10.3734  10.4500  10.5370  10.5801  10.6808  10.7058  10.7352
    10.7932  10.8327  10.8628  10.8840  10.8887  11.0263  11.0949  11.1129
    11.1559  11.1958  11.2396  11.2879  11.3740  11.4257  11.4520  11.4882
    11.5165  11.5701  11.5708  11.5861  11.6020  11.6344  11.6438  11.7166
    11.8713  11.9138  11.9586  11.9790  11.9968  12.0070  12.0121  12.0341
    12.0584  12.0814  12.0968  12.1299  12.2128  12.2482  12.2760  12.3228
    12.3646  12.4300  12.4715  12.5814  12.6159  12.6691  12.9300  13.0009
    13.3511  13.4298  13.7144  13.9981  14.3411  14.6357  14.8613  15.0502
    15.1229  15.1546  15.2495  15.3752  15.8913  16.1790  16.2535  16.3677
    16.4489  16.5615  17.0220  17.0610  17.0954  17.1268  17.1432  17.2308
    17.3977  17.5489  17.6673  17.7901  17.8350  17.8633  17.9217  17.9386
    18.0160  18.0468  18.2020  18.3160  18.3499  18.3513  18.3742  18.5433
    18.7195  18.9816

          k = 0.3750-0.5000 0.0000 ( 13934 PWs)   bands (ev):

   -66.8472 -66.7874 -66.7298 -66.6874 -62.2211 -62.1834 -62.1277 -62.1006
   -35.6136 -35.5752 -35.5735 -35.5508 -35.5181 -35.5164 -35.4978 -35.4595
   -35.4586 -35.4578 -35.4161 -35.4143 -31.0552 -31.0528 -31.0397 -31.0169
   -31.0145 -31.0044 -30.9611 -30.9587 -30.9524 -30.9337 -30.9313 -30.9266
     8.1887   8.2006   8.2737   8.2793   8.3388   8.4126   8.6050   8.6848
     8.8199   8.9892   9.1127   9.1223   9.1354   9.1786   9.1851   9.2149
     9.2201   9.2338   9.2494   9.2786   9.2931   9.3242   9.3953   9.3964
     9.4231   9.4840   9.5612   9.5871   9.6306   9.6598   9.8280   9.8644
     9.9065   9.9388   9.9672   9.9739  10.0011  10.0163  10.0911  10.0958
    10.1208  10.1585  10.1916  10.2529  10.2840  10.3242  10.3696  10.3816
    10.4375  10.4380  10.5913  10.6945  10.7164  10.7437  10.7964  10.8593
    10.8835  11.0380  11.0900  11.1086  11.1360  11.1638  11.1866  11.1961
    11.2488  11.2826  11.3929  11.3974  11.4209  11.4419  11.5026  11.5492
    11.5542  11.5819  11.6855  11.6884  11.7579  11.8135  11.8203  11.8376
    11.9162  11.9588  11.9875  11.9903  12.0565  12.0737  12.0835  12.1253
    12.1280  12.1474  12.1981  12.2360  12.2461  12.2506  12.3230  12.3711
    12.3820  12.4061  12.4807  12.5325  12.9762  13.1215  13.1767  13.2868
    13.5975  13.7775  13.8462  13.9597  14.1845  14.3201  14.5253  14.5542
    14.9377  14.9528  15.3533  15.4338  15.5748  15.8642  15.9926  16.0658
    16.7471  16.8851  17.0186  17.0391  17.0528  17.0709  17.1003  17.1335
    17.3585  17.5308  17.5465  17.7888  17.8339  18.0058  18.0403  18.0456
    18.1120  18.1566  18.2806  18.4166  18.4309  18.5235  18.7222  18.8173
    18.8785  18.8845

          k = 0.3750-0.5000 0.0242 ( 13948 PWs)   bands (ev):

   -66.8472 -66.7874 -66.7298 -66.6874 -62.2211 -62.1834 -62.1277 -62.1006
   -35.6136 -35.5752 -35.5735 -35.5508 -35.5181 -35.5164 -35.4978 -35.4595
   -35.4586 -35.4578 -35.4161 -35.4143 -31.0552 -31.0528 -31.0397 -31.0169
   -31.0145 -31.0044 -30.9611 -30.9587 -30.9524 -30.9337 -30.9313 -30.9266
     8.1908   8.2017   8.2696   8.2721   8.3430   8.4250   8.6024   8.6570
     8.8580   9.0005   9.0700   9.1112   9.1335   9.1777   9.1942   9.2060
     9.2293   9.2444   9.2504   9.2893   9.2965   9.3249   9.3884   9.3998
     9.4271   9.4952   9.5225   9.5881   9.6347   9.7107   9.7724   9.8508
     9.9102   9.9578   9.9683   9.9899  10.0021  10.0243  10.0891  10.0911
    10.1318  10.1654  10.1941  10.2349  10.2848  10.2953  10.3412  10.3482
    10.4891  10.5021  10.5902  10.6950  10.7018  10.7365  10.7746  10.8009
    10.9539  11.0421  11.0942  11.1085  11.1342  11.1634  11.1705  11.2114
    11.2385  11.2967  11.3562  11.4153  11.4309  11.4484  11.4928  11.5223
    11.5643  11.6029  11.6798  11.6861  11.7624  11.8112  11.8203  11.8380
    11.9175  11.9565  11.9879  11.9910  12.0574  12.0746  12.0781  12.1219
    12.1321  12.1467  12.1977  12.2293  12.2445  12.2639  12.3264  12.3730
    12.3895  12.4104  12.4721  12.5177  12.9924  13.1262  13.1515  13.3007
    13.5841  13.7981  13.8439  13.9484  14.1908  14.3125  14.5273  14.5583
    14.9353  14.9514  15.3547  15.4329  15.5772  15.8639  15.9926  16.0635
    16.7502  16.8761  17.0230  17.0376  17.0541  17.0684  17.1152  17.1419
    17.3258  17.5274  17.5659  17.7687  17.8674  17.9973  18.0420  18.0563
    18.1075  18.1552  18.2254  18.4006  18.4702  18.5662  18.7468  18.7996
    18.8814  18.8845

          k = 0.3750-0.5000-0.0484 ( 13940 PWs)   bands (ev):

   -66.8472 -66.7874 -66.7298 -66.6874 -62.2211 -62.1834 -62.1277 -62.1006
   -35.6136 -35.5752 -35.5735 -35.5508 -35.5181 -35.5164 -35.4978 -35.4595
   -35.4586 -35.4578 -35.4161 -35.4143 -31.0552 -31.0528 -31.0397 -31.0169
   -31.0145 -31.0044 -30.9611 -30.9587 -30.9524 -30.9337 -30.9313 -30.9266
     8.1931   8.2028   8.2652   8.2658   8.3469   8.4379   8.5997   8.6339
     8.8986   9.0152   9.0280   9.0949   9.1328   9.1783   9.1941   9.1995
     9.2350   9.2452   9.2722   9.2842   9.2969   9.3427   9.3800   9.3864
     9.4489   9.4919   9.5130   9.5570   9.6949   9.7077   9.7718   9.7869
     9.9482   9.9506   9.9581  10.0031  10.0082  10.0371  10.0836  10.0875
    10.1587  10.1701  10.1866  10.2374  10.2433  10.2697  10.3367  10.3448
    10.5298  10.5434  10.6057  10.6778  10.6792  10.7335  10.7335  10.7973
    10.9906  11.0458  11.1060  11.1084  11.1328  11.1420  11.1652  11.2300
    11.2336  11.3063  11.3328  11.4107  11.4526  11.4551  11.4834  11.4985
    11.5731  11.6161  11.6739  11.6833  11.7669  11.8087  11.8203  11.8384
    11.9189  11.9541  11.9882  11.9917  12.0588  12.0729  12.0757  12.1184
    12.1354  12.1461  12.1973  12.2260  12.2433  12.2740  12.3287  12.3757
    12.3952  12.4210  12.4625  12.4990  13.0127  13.1250  13.1309  13.3116
    13.5721  13.8200  13.8416  13.9345  14.1977  14.3042  14.5293  14.5624
    14.9329  14.9500  15.3562  15.4320  15.5797  15.8637  15.9926  16.0612
    16.7537  16.8673  17.0271  17.0366  17.0549  17.0671  17.1288  17.1533
    17.2954  17.5095  17.6006  17.7442  17.9112  17.9782  18.0444  18.0670
    18.0992  18.1535  18.1889  18.3800  18.5043  18.6036  18.7774  18.7947
    18.8802  18.8844

          k =-0.5000-0.5000 0.0000 ( 13964 PWs)   bands (ev):

   -66.8472 -66.7874 -66.7298 -66.6874 -62.2209 -62.1832 -62.1275 -62.1004
   -35.6135 -35.5751 -35.5751 -35.5507 -35.5179 -35.5179 -35.4977 -35.4594
   -35.4594 -35.4586 -35.4159 -35.4159 -31.0550 -31.0550 -31.0396 -31.0167
   -31.0167 -31.0043 -30.9609 -30.9609 -30.9523 -30.9335 -30.9335 -30.9265
     8.1097   8.1150   8.1892   8.2047   8.2603   8.3388   8.5531   8.6331
     8.7671   8.9143   9.1096   9.1577   9.1839   9.2130   9.2540   9.2540
     9.3020   9.3020   9.3171   9.3171   9.4035   9.4390   9.4390   9.4395
     9.4500   9.4500   9.6883   9.6883   9.6947   9.6947   9.8390   9.9316
     9.9316   9.9453   9.9453   9.9657   9.9657   9.9818   9.9843  10.0404
    10.0428  10.0428  10.0631  10.0631  10.1144  10.1144  10.5169  10.5169
    10.5209  10.5966  10.5966  10.6040  10.6503  10.6671  11.0687  11.0687
    11.1507  11.1530  11.1694  11.1897  11.2161  11.3108  11.3108  11.3151
    11.3795  11.4259  11.4407  11.4495  11.4832  11.5196  11.7944  11.7944
    11.9481  11.9588  11.9735  11.9847  11.9852  11.9981  12.0121  12.0241
    12.0375  12.0375  12.0383  12.0493  12.0659  12.0776  12.0786  12.0890
    12.1071  12.1170  12.1709  12.1871  12.2285  12.2387  12.2612  12.3447
    12.3619  12.3858  12.3858  12.3930  13.3922  13.4054  13.4316  13.4342
    13.8630  13.8630  14.0946  14.0946  14.2124  14.2124  14.5980  14.5980
    15.2572  15.2572  15.8705  15.8705  15.9912  15.9912  16.5921  16.6457
    16.6842  16.6842  16.7187  16.7196  16.8401  16.9917  17.0024  17.2017
    17.4507  17.4507  17.7553  17.7823  17.8630  17.8689  18.0285  18.0320
    18.0320  18.0344  18.0683  18.1217  18.1606  18.2331  18.2331  18.2423
    18.2701  18.5307

          k =-0.5000-0.5000 0.0242 ( 13960 PWs)   bands (ev):

   -66.8472 -66.7874 -66.7298 -66.6874 -62.2209 -62.1832 -62.1275 -62.1004
   -35.6135 -35.5751 -35.5751 -35.5507 -35.5179 -35.5179 -35.4977 -35.4594
   -35.4594 -35.4586 -35.4159 -35.4159 -31.0550 -31.0550 -31.0396 -31.0167
   -31.0167 -31.0043 -30.9609 -30.9609 -30.9523 -30.9335 -30.9335 -30.9265
     8.1114   8.1161   8.1851   8.1982   8.2645   8.3499   8.5496   8.6043
     8.8097   8.9306   9.0454   9.1004   9.2442   9.2549   9.2549   9.2765
     9.2923   9.2923   9.3339   9.3339   9.3865   9.4012   9.4012   9.4160
     9.4952   9.4952   9.6184   9.6184   9.7724   9.7724   9.8489   9.9316
     9.9316   9.9453   9.9453   9.9554   9.9554   9.9668   9.9668   9.9724
     9.9827  10.0460  10.0871  10.0871  10.1837  10.1837  10.4222  10.4222
    10.5198  10.6055  10.6503  10.6665  10.6883  10.6883  11.0089  11.0089
    11.1504  11.1528  11.1697  11.1895  11.2169  11.3144  11.3644  11.3644
    11.3795  11.4259  11.4409  11.4495  11.4832  11.5196  11.7478  11.7478
    11.9481  11.9588  11.9735  11.9847  11.9852  11.9981  12.0121  12.0241
    12.0383  12.0493  12.0659  12.0746  12.0746  12.0776  12.0786  12.0890
    12.1071  12.1170  12.1706  12.1876  12.2248  12.2386  12.2674  12.3406
    12.3619  12.3735  12.3735  12.3945  13.3922  13.4054  13.4316  13.4342
    13.8850  13.8850  14.0429  14.0429  14.2470  14.2470  14.5938  14.5938
    15.2573  15.2573  15.8701  15.8701  15.9921  15.9921  16.5921  16.6456
    16.6798  16.6798  16.7187  16.7200  16.8386  16.9949  17.0024  17.1978
    17.4890  17.4890  17.7628  17.8000  17.8300  17.8897  17.8897  17.8951
    17.9987  18.0285  18.0683  18.1217  18.1606  18.2692  18.2694  18.4137
    18.4137  18.5239

          k =-0.5000-0.5000-0.0484 ( 13992 PWs)   bands (ev):

   -66.8472 -66.7874 -66.7298 -66.6874 -62.2209 -62.1832 -62.1275 -62.1004
   -35.6135 -35.5751 -35.5751 -35.5507 -35.5179 -35.5179 -35.4977 -35.4594
   -35.4594 -35.4586 -35.4159 -35.4159 -31.0550 -31.0550 -31.0396 -31.0167
   -31.0167 -31.0043 -30.9609 -30.9609 -30.9523 -30.9335 -30.9335 -30.9265
     8.1134   8.1172   8.1812   8.1921   8.2685   8.3614   8.5461   8.5813
     8.8568   8.9530   8.9909   9.0586   9.2560   9.2560   9.2867   9.2867
     9.2964   9.3484   9.3563   9.3563   9.3568   9.3624   9.3718   9.3718
     9.5495   9.5495   9.5564   9.5564   9.8572   9.8572   9.8599   9.8646
     9.8646   9.9316   9.9316   9.9453   9.9453   9.9602   9.9660   9.9660
     9.9835  10.0503  10.0886  10.0886  10.2849  10.2849  10.3144  10.3144
    10.5188  10.6069  10.6503  10.6658  10.7615  10.7615  10.9432  10.9432
    11.1500  11.1527  11.1700  11.1893  11.2178  11.3137  11.3795  11.4150
    11.4150  11.4259  11.4412  11.4495  11.4832  11.5196  11.7010  11.7010
    11.9481  11.9588  11.9735  11.9847  11.9852  11.9981  12.0121  12.0241
    12.0383  12.0493  12.0659  12.0776  12.0786  12.0890  12.1071  12.1076
    12.1076  12.1170  12.1703  12.1881  12.2219  12.2384  12.2733  12.3362
    12.3595  12.3595  12.3619  12.3959  13.3922  13.4054  13.4316  13.4342
    13.9250  13.9250  13.9837  13.9837  14.2715  14.2715  14.5894  14.5894
    15.2573  15.2573  15.8697  15.8697  15.9931  15.9931  16.5921  16.6456
    16.6756  16.6756  16.7187  16.7204  16.8371  16.9982  17.0024  17.1939
    17.5444  17.5444  17.7755  17.7806  17.7806  17.8069  17.8233  17.9063
    17.9614  18.0285  18.0683  18.1217  18.1606  18.2686  18.2928  18.5163
    18.6543  18.6543

     the Fermi energy is    15.2957 ev

!    total energy              =  -14693.99959431 Ry
     Harris-Foulkes estimate   =  -14693.99959083 Ry
     estimated scf accuracy    <       0.00000089 Ry

     total all-electron energy =   -626921.595316 Ry

     The total energy is the sum of the following terms:

     one-electron contribution =    -714.33916053 Ry
     hartree contribution      =     656.43156535 Ry
     xc contribution           =    -737.89401401 Ry
     ewald contribution        =   -2196.78933708 Ry
     Hubbard energy            =       0.44412872 Ry
     one-center paw contrib.   =  -11701.85277677 Ry

     total magnetization       =    -0.00 Bohr mag/cell
     absolute magnetization    =    37.37 Bohr mag/cell

     convergence has been achieved in  29 iterations

     Writing output data file mnau2.save/
 
     init_run     :     68.76s CPU     70.50s WALL (       1 calls)
     electrons    :   4082.89s CPU   4166.50s WALL (       1 calls)

     Called by init_run:
     wfcinit      :     64.87s CPU     66.37s WALL (       1 calls)
     potinit      :      1.65s CPU      1.72s WALL (       1 calls)
     hinit0       :      1.35s CPU      1.44s WALL (       1 calls)

     Called by electrons:
     c_bands      :   3620.77s CPU   3690.35s WALL (      29 calls)
     sum_band     :    414.89s CPU    427.82s WALL (      29 calls)
     v_of_rho     :      3.13s CPU      3.16s WALL (      30 calls)
     newd         :     11.54s CPU     11.75s WALL (      30 calls)
     PAW_pot      :     32.91s CPU     33.23s WALL (      30 calls)
     mix_rho      :      0.73s CPU      0.75s WALL (      29 calls)

     Called by c_bands:
     init_us_2    :     10.91s CPU     10.97s WALL (    5400 calls)
     cegterg      :   3510.30s CPU   3579.20s WALL (    2611 calls)

     Called by sum_band:
     sum_band:bec :      5.71s CPU      5.75s WALL (    2610 calls)
     addusdens    :     17.13s CPU     17.21s WALL (      29 calls)

     Called by *egterg:
     h_psi        :   1423.56s CPU   1464.56s WALL (    8102 calls)
     s_psi        :    237.67s CPU    237.84s WALL (    8192 calls)
     g_psi        :      2.31s CPU      2.34s WALL (    5401 calls)
     cdiaghg      :   1097.39s CPU   1121.97s WALL (    8012 calls)

     Called by h_psi:
     h_psi:pot    :   1255.15s CPU   1294.59s WALL (    8102 calls)
     h_psi:calbec :    336.79s CPU    350.77s WALL (    8102 calls)
     vloc_psi     :    686.42s CPU    711.68s WALL (    8102 calls)
     add_vuspsi   :    231.75s CPU    231.99s WALL (    8102 calls)
     vhpsi        :    165.29s CPU    166.84s WALL (    8102 calls)

     General routines
     calbec       :    642.28s CPU    664.86s WALL (   21514 calls)
     fft          :      2.21s CPU      2.24s WALL (     746 calls)
     ffts         :      0.10s CPU      0.10s WALL (     118 calls)
     fftw         :    800.60s CPU    829.82s WALL ( 2445500 calls)
     interpolate  :      0.23s CPU      0.23s WALL (      60 calls)
     davcio       :      0.01s CPU      2.61s WALL (      90 calls)
 
     Parallel routines
     fft_scatt_xy :     57.12s CPU     59.17s WALL ( 2446364 calls)
     fft_scatt_yz :    474.78s CPU    491.67s WALL ( 2446364 calls)

     Hubbard U routines
     new_ns       :     23.72s CPU     23.91s WALL (      29 calls)
     vhpsi        :    165.29s CPU    166.84s WALL (    8102 calls)
 
     PWSCF        :     1h 9m CPU        9h 1m WALL

      11h
 
   This run was terminated on:  19:46:36   8Apr2019            

=------------------------------------------------------------------------------=
   JOB DONE.
=------------------------------------------------------------------------------=
