
     Program PWSCF v.6.3MaX starts on  8Apr2019 at 19:46:39 

     This program is part of the open-source Quantum ESPRESSO suite
     for quantum simulation of materials; please cite
         "P. Giannozzi et al., J. Phys.:Condens. Matter 21 395502 (2009);
         "P. Giannozzi et al., J. Phys.:Condens. Matter 29 465901 (2017);
          URL http://www.quantum-espresso.org", 
     in publications or presentations arising from this work. More details at
     http://www.quantum-espresso.org/quote

     Parallel version (MPI), running on    32 processors

     MPI processes distributed on     1 nodes
     R & G space division:  proc/nbgrp/npool/nimage =      32
     Waiting for input...
     Reading input from standard input

     Current dimensions of program PWSCF are:
     Max number of different atomic species (ntypx) = 10
     Max number of k-points (npk) =  40000
     Max angular momentum in pseudopotentials (lmaxx) =  3
               file Mn.pbe-spn-kjpaw_psl.0.3.1.UPF: wavefunction(s)  3P 3D renormalized
               file Mn.pbe-spn-kjpaw_psl.0.3.1.UPF: wavefunction(s)  3P 3D renormalized
               file Au.pbe-dn-kjpaw_psl.0.1.UPF: wavefunction(s)  6S 6P 5D renormalized

     Subspace diagonalization in iterative solution of the eigenvalue problem:
     one sub-group per band group will be used
     scalapack distributed-memory algorithm (size of sub-group:  4*  4 procs)

 
     Parallelization info
     --------------------
     sticks:   dense  smooth     PW     G-vecs:    dense   smooth      PW
     Min          41      18      5                11487     3460     563
     Max          42      19      6                11527     3505     606
     Sum        1313     593    177               368373   111379   18691
 


     bravais-lattice index     =            0
     lattice parameter (alat)  =       6.4153  a.u.
     unit-cell volume          =    2724.7774 (a.u.)^3
     number of atoms/cell      =           24
     number of atomic types    =            3
     number of electrons       =       296.00
     number of Kohn-Sham states=          178
     kinetic-energy cutoff     =      45.0000  Ry
     charge density cutoff     =     400.0000  Ry
     convergence threshold     =      1.0E-06
     mixing beta               =       0.1000
     number of iterations used =            8  plain     mixing
     Exchange-correlation      = SLA PW PBX PBC ( 1  4  3  4 0 0)

     celldm(1)=   6.415315  celldm(2)=   0.000000  celldm(3)=   0.000000
     celldm(4)=   0.000000  celldm(5)=   0.000000  celldm(6)=   0.000000

     crystal axes: (cart. coord. in units of alat)
               a(1) = (   1.000000   0.000000   0.000000 )  
               a(2) = (   0.000000   1.000000   0.000000 )  
               a(3) = (   0.000000   0.000000  10.319937 )  

     reciprocal axes: (cart. coord. in units 2 pi/alat)
               b(1) = (  1.000000  0.000000  0.000000 )  
               b(2) = (  0.000000  1.000000  0.000000 )  
               b(3) = (  0.000000  0.000000  0.096900 )  


     PseudoPot. # 1 for Mn read from file:
     ./pseudo/Mn.pbe-spn-kjpaw_psl.0.3.1.UPF
     MD5 check sum: 7b43a3fb0e93e198b8dd8488d8cf503e
     Pseudo is Projector augmented-wave + core cor, Zval = 15.0
     Generated using "atomic" code by A. Dal Corso v.5.0.99 svn rev. 10869
     Shape of augmentation charge: PSQ
     Using radial grid of 1187 points,  6 beta functions with: 
                l(1) =   0
                l(2) =   0
                l(3) =   1
                l(4) =   1
                l(5) =   2
                l(6) =   2
     Q(r) pseudized with 0 coefficients 


     PseudoPot. # 2 for Mn read from file:
     ./pseudo/Mn.pbe-spn-kjpaw_psl.0.3.1.UPF
     MD5 check sum: 7b43a3fb0e93e198b8dd8488d8cf503e
     Pseudo is Projector augmented-wave + core cor, Zval = 15.0
     Generated using "atomic" code by A. Dal Corso v.5.0.99 svn rev. 10869
     Shape of augmentation charge: PSQ
     Using radial grid of 1187 points,  6 beta functions with: 
                l(1) =   0
                l(2) =   0
                l(3) =   1
                l(4) =   1
                l(5) =   2
                l(6) =   2
     Q(r) pseudized with 0 coefficients 


     PseudoPot. # 3 for Au read from file:
     ./pseudo/Au.pbe-dn-kjpaw_psl.0.1.UPF
     MD5 check sum: be11e2e8e535ebe2b3ccfb4f88f554cb
     Pseudo is Projector augmented-wave + core cor, Zval = 11.0
     Generated using "atomic" code by A. Dal Corso v.5.0.2 svn rev. 9415
     Shape of augmentation charge: PSQ
     Using radial grid of 1279 points,  6 beta functions with: 
                l(1) =   0
                l(2) =   0
                l(3) =   1
                l(4) =   1
                l(5) =   2
                l(6) =   2
     Q(r) pseudized with 0 coefficients 


     atomic species   valence    mass     pseudopotential
        Mn1           15.00    54.93800     Mn( 1.00)
        Mn2           15.00    54.93800     Mn( 1.00)
        Au            11.00   196.96600     Au( 1.00)

     Starting magnetic structure 
     atomic species   magnetization
        Mn1          0.800
        Mn2         -0.800
        Au           0.000


     Full LDA+U calculation (l_max = 2) with parameters (eV):
     U(  1) =   3.1200   J(  1) =   0.7000   B(  1) =   0.0803
     U(  2) =   3.1200   J(  2) =   0.7000   B(  2) =   0.0803



      8 Sym. Ops. (no inversion) found
          (note:  8 additional sym.ops. were found but ignored
           their fractional translations are incommensurate with FFT grid)


   Cartesian axes

     site n.     atom                  positions (alat units)
         1           Mn1 tau(   1) = (   0.0000000   0.0000000   0.0000000  )
         2           Mn1 tau(   2) = (   0.5000000   0.5000000   1.2899921  )
         3           Mn2 tau(   3) = (   0.0000000   0.0000000   2.5799843  )
         4           Mn1 tau(   4) = (   0.5000000   0.5000000   3.8699764  )
         5           Mn2 tau(   5) = (   0.0000000   0.0000000   5.1599686  )
         6           Mn2 tau(   6) = (   0.5000000   0.5000000   6.4499607  )
         7           Mn1 tau(   7) = (   0.0000000   0.0000000   7.7399528  )
         8           Mn2 tau(   8) = (   0.5000000   0.5000000   9.0299450  )
         9           Au  tau(   9) = (   0.5000000   0.5000000   0.4127975  )
        10           Au  tau(  10) = (   0.0000000   0.0000000   0.8771947  )
        11           Au  tau(  11) = (   0.0000000   0.0000000   1.7027896  )
        12           Au  tau(  12) = (   0.5000000   0.5000000   2.1671868  )
        13           Au  tau(  13) = (   0.5000000   0.5000000   2.9927818  )
        14           Au  tau(  14) = (   0.0000000   0.0000000   3.4571789  )
        15           Au  tau(  15) = (   0.0000000   0.0000000   4.2827739  )
        16           Au  tau(  16) = (   0.5000000   0.5000000   4.7471711  )
        17           Au  tau(  17) = (   0.5000000   0.5000000   5.5727660  )
        18           Au  tau(  18) = (   0.0000000   0.0000000   6.0371632  )
        19           Au  tau(  19) = (   0.0000000   0.0000000   6.8627582  )
        20           Au  tau(  20) = (   0.5000000   0.5000000   7.3271553  )
        21           Au  tau(  21) = (   0.5000000   0.5000000   8.1527503  )
        22           Au  tau(  22) = (   0.0000000   0.0000000   8.6171475  )
        23           Au  tau(  23) = (   0.0000000   0.0000000   9.4427424  )
        24           Au  tau(  24) = (   0.5000000   0.5000000   9.9071396  )

     number of k points=    45 (tetrahedron method)
                       cart. coord. in units 2pi/alat
        k(    1) = (   0.0000000   0.0000000   0.0000000), wk =   0.0039062
        k(    2) = (   0.0000000   0.0000000   0.0242250), wk =   0.0078125
        k(    3) = (   0.0000000   0.0000000  -0.0484499), wk =   0.0039062
        k(    4) = (   0.0000000   0.1250000   0.0000000), wk =   0.0156250
        k(    5) = (   0.0000000   0.1250000   0.0242250), wk =   0.0312500
        k(    6) = (   0.0000000   0.1250000  -0.0484499), wk =   0.0156250
        k(    7) = (   0.0000000   0.2500000   0.0000000), wk =   0.0156250
        k(    8) = (   0.0000000   0.2500000   0.0242250), wk =   0.0312500
        k(    9) = (   0.0000000   0.2500000  -0.0484499), wk =   0.0156250
        k(   10) = (   0.0000000   0.3750000   0.0000000), wk =   0.0156250
        k(   11) = (   0.0000000   0.3750000   0.0242250), wk =   0.0312500
        k(   12) = (   0.0000000   0.3750000  -0.0484499), wk =   0.0156250
        k(   13) = (   0.0000000  -0.5000000   0.0000000), wk =   0.0078125
        k(   14) = (   0.0000000  -0.5000000   0.0242250), wk =   0.0156250
        k(   15) = (   0.0000000  -0.5000000  -0.0484499), wk =   0.0078125
        k(   16) = (   0.1250000   0.1250000   0.0000000), wk =   0.0156250
        k(   17) = (   0.1250000   0.1250000   0.0242250), wk =   0.0312500
        k(   18) = (   0.1250000   0.1250000  -0.0484499), wk =   0.0156250
        k(   19) = (   0.1250000   0.2500000   0.0000000), wk =   0.0312500
        k(   20) = (   0.1250000   0.2500000   0.0242250), wk =   0.0625000
        k(   21) = (   0.1250000   0.2500000  -0.0484499), wk =   0.0312500
        k(   22) = (   0.1250000   0.3750000   0.0000000), wk =   0.0312500
        k(   23) = (   0.1250000   0.3750000   0.0242250), wk =   0.0625000
        k(   24) = (   0.1250000   0.3750000  -0.0484499), wk =   0.0312500
        k(   25) = (   0.1250000  -0.5000000   0.0000000), wk =   0.0156250
        k(   26) = (   0.1250000  -0.5000000   0.0242250), wk =   0.0312500
        k(   27) = (   0.1250000  -0.5000000  -0.0484499), wk =   0.0156250
        k(   28) = (   0.2500000   0.2500000   0.0000000), wk =   0.0156250
        k(   29) = (   0.2500000   0.2500000   0.0242250), wk =   0.0312500
        k(   30) = (   0.2500000   0.2500000  -0.0484499), wk =   0.0156250
        k(   31) = (   0.2500000   0.3750000   0.0000000), wk =   0.0312500
        k(   32) = (   0.2500000   0.3750000   0.0242250), wk =   0.0625000
        k(   33) = (   0.2500000   0.3750000  -0.0484499), wk =   0.0312500
        k(   34) = (   0.2500000  -0.5000000   0.0000000), wk =   0.0156250
        k(   35) = (   0.2500000  -0.5000000   0.0242250), wk =   0.0312500
        k(   36) = (   0.2500000  -0.5000000  -0.0484499), wk =   0.0156250
        k(   37) = (   0.3750000   0.3750000   0.0000000), wk =   0.0156250
        k(   38) = (   0.3750000   0.3750000   0.0242250), wk =   0.0312500
        k(   39) = (   0.3750000   0.3750000  -0.0484499), wk =   0.0156250
        k(   40) = (   0.3750000  -0.5000000   0.0000000), wk =   0.0156250
        k(   41) = (   0.3750000  -0.5000000   0.0242250), wk =   0.0312500
        k(   42) = (   0.3750000  -0.5000000  -0.0484499), wk =   0.0156250
        k(   43) = (  -0.5000000  -0.5000000   0.0000000), wk =   0.0039062
        k(   44) = (  -0.5000000  -0.5000000   0.0242250), wk =   0.0078125
        k(   45) = (  -0.5000000  -0.5000000  -0.0484499), wk =   0.0039062

     Dense  grid:   368373 G-vectors     FFT dimensions: (  45,  45, 432)

     Smooth grid:   111379 G-vectors     FFT dimensions: (  27,  27, 288)

     Estimated max dynamical RAM per process >     186.81 MB

     Estimated total dynamical RAM >       5.84 GB
     Generating pointlists ...
     new r_m :   0.3377 (alat units)  2.1668 (a.u.) for type    1
     new r_m :   0.3377 (alat units)  2.1668 (a.u.) for type    2
     new r_m :   0.3377 (alat units)  2.1668 (a.u.) for type    3

     Check: negative/imaginary core charge=   -0.000006    0.000000

     Initial potential from superposition of free atoms

     starting charge  295.99426, renormalised to  296.00000
     Number of +U iterations with fixed ns =  0
     Starting occupations:
 --- enter write_ns ---
 LDA+U parameters:
U(  1) =   3.1200   J(  1) =   0.7000   B(  1) =   0.0803
U(  2) =   3.1200   J(  2) =   0.7000   B(  2) =   0.0803
atom    1   Tr[ns(na)] (up, down, total) =   5.00000  0.00000  5.00000
   spin  1
    eigenvalues: 
  1.000  1.000  1.000  1.000  1.000
    eigenvectors:
  1.000  0.000  0.000  0.000  0.000
  0.000  1.000  0.000  0.000  0.000
  0.000  0.000  1.000  0.000  0.000
  0.000  0.000  0.000  1.000  0.000
  0.000  0.000  0.000  0.000  1.000
    occupations:
  1.000  0.000  0.000  0.000  0.000
  0.000  1.000  0.000  0.000  0.000
  0.000  0.000  1.000  0.000  0.000
  0.000  0.000  0.000  1.000  0.000
  0.000  0.000  0.000  0.000  1.000
   spin  2
    eigenvalues: 
  0.000  0.000  0.000  0.000  0.000
    eigenvectors:
  1.000  0.000  0.000  0.000  0.000
  0.000  1.000  0.000  0.000  0.000
  0.000  0.000  1.000  0.000  0.000
  0.000  0.000  0.000  1.000  0.000
  0.000  0.000  0.000  0.000  1.000
    occupations:
  0.000  0.000  0.000  0.000  0.000
  0.000  0.000  0.000  0.000  0.000
  0.000  0.000  0.000  0.000  0.000
  0.000  0.000  0.000  0.000  0.000
  0.000  0.000  0.000  0.000  0.000
atomic mag. moment =     5.000000
atom    2   Tr[ns(na)] (up, down, total) =   5.00000  0.00000  5.00000
   spin  1
    eigenvalues: 
  1.000  1.000  1.000  1.000  1.000
    eigenvectors:
  1.000  0.000  0.000  0.000  0.000
  0.000  1.000  0.000  0.000  0.000
  0.000  0.000  1.000  0.000  0.000
  0.000  0.000  0.000  1.000  0.000
  0.000  0.000  0.000  0.000  1.000
    occupations:
  1.000  0.000  0.000  0.000  0.000
  0.000  1.000  0.000  0.000  0.000
  0.000  0.000  1.000  0.000  0.000
  0.000  0.000  0.000  1.000  0.000
  0.000  0.000  0.000  0.000  1.000
   spin  2
    eigenvalues: 
  0.000  0.000  0.000  0.000  0.000
    eigenvectors:
  1.000  0.000  0.000  0.000  0.000
  0.000  1.000  0.000  0.000  0.000
  0.000  0.000  1.000  0.000  0.000
  0.000  0.000  0.000  1.000  0.000
  0.000  0.000  0.000  0.000  1.000
    occupations:
  0.000  0.000  0.000  0.000  0.000
  0.000  0.000  0.000  0.000  0.000
  0.000  0.000  0.000  0.000  0.000
  0.000  0.000  0.000  0.000  0.000
  0.000  0.000  0.000  0.000  0.000
atomic mag. moment =     5.000000
atom    3   Tr[ns(na)] (up, down, total) =   0.00000  5.00000  5.00000
   spin  1
    eigenvalues: 
  0.000  0.000  0.000  0.000  0.000
    eigenvectors:
  1.000  0.000  0.000  0.000  0.000
  0.000  1.000  0.000  0.000  0.000
  0.000  0.000  1.000  0.000  0.000
  0.000  0.000  0.000  1.000  0.000
  0.000  0.000  0.000  0.000  1.000
    occupations:
  0.000  0.000  0.000  0.000  0.000
  0.000  0.000  0.000  0.000  0.000
  0.000  0.000  0.000  0.000  0.000
  0.000  0.000  0.000  0.000  0.000
  0.000  0.000  0.000  0.000  0.000
   spin  2
    eigenvalues: 
  1.000  1.000  1.000  1.000  1.000
    eigenvectors:
  1.000  0.000  0.000  0.000  0.000
  0.000  1.000  0.000  0.000  0.000
  0.000  0.000  1.000  0.000  0.000
  0.000  0.000  0.000  1.000  0.000
  0.000  0.000  0.000  0.000  1.000
    occupations:
  1.000  0.000  0.000  0.000  0.000
  0.000  1.000  0.000  0.000  0.000
  0.000  0.000  1.000  0.000  0.000
  0.000  0.000  0.000  1.000  0.000
  0.000  0.000  0.000  0.000  1.000
atomic mag. moment =    -5.000000
atom    4   Tr[ns(na)] (up, down, total) =   5.00000  0.00000  5.00000
   spin  1
    eigenvalues: 
  1.000  1.000  1.000  1.000  1.000
    eigenvectors:
  1.000  0.000  0.000  0.000  0.000
  0.000  1.000  0.000  0.000  0.000
  0.000  0.000  1.000  0.000  0.000
  0.000  0.000  0.000  1.000  0.000
  0.000  0.000  0.000  0.000  1.000
    occupations:
  1.000  0.000  0.000  0.000  0.000
  0.000  1.000  0.000  0.000  0.000
  0.000  0.000  1.000  0.000  0.000
  0.000  0.000  0.000  1.000  0.000
  0.000  0.000  0.000  0.000  1.000
   spin  2
    eigenvalues: 
  0.000  0.000  0.000  0.000  0.000
    eigenvectors:
  1.000  0.000  0.000  0.000  0.000
  0.000  1.000  0.000  0.000  0.000
  0.000  0.000  1.000  0.000  0.000
  0.000  0.000  0.000  1.000  0.000
  0.000  0.000  0.000  0.000  1.000
    occupations:
  0.000  0.000  0.000  0.000  0.000
  0.000  0.000  0.000  0.000  0.000
  0.000  0.000  0.000  0.000  0.000
  0.000  0.000  0.000  0.000  0.000
  0.000  0.000  0.000  0.000  0.000
atomic mag. moment =     5.000000
atom    5   Tr[ns(na)] (up, down, total) =   0.00000  5.00000  5.00000
   spin  1
    eigenvalues: 
  0.000  0.000  0.000  0.000  0.000
    eigenvectors:
  1.000  0.000  0.000  0.000  0.000
  0.000  1.000  0.000  0.000  0.000
  0.000  0.000  1.000  0.000  0.000
  0.000  0.000  0.000  1.000  0.000
  0.000  0.000  0.000  0.000  1.000
    occupations:
  0.000  0.000  0.000  0.000  0.000
  0.000  0.000  0.000  0.000  0.000
  0.000  0.000  0.000  0.000  0.000
  0.000  0.000  0.000  0.000  0.000
  0.000  0.000  0.000  0.000  0.000
   spin  2
    eigenvalues: 
  1.000  1.000  1.000  1.000  1.000
    eigenvectors:
  1.000  0.000  0.000  0.000  0.000
  0.000  1.000  0.000  0.000  0.000
  0.000  0.000  1.000  0.000  0.000
  0.000  0.000  0.000  1.000  0.000
  0.000  0.000  0.000  0.000  1.000
    occupations:
  1.000  0.000  0.000  0.000  0.000
  0.000  1.000  0.000  0.000  0.000
  0.000  0.000  1.000  0.000  0.000
  0.000  0.000  0.000  1.000  0.000
  0.000  0.000  0.000  0.000  1.000
atomic mag. moment =    -5.000000
atom    6   Tr[ns(na)] (up, down, total) =   0.00000  5.00000  5.00000
   spin  1
    eigenvalues: 
  0.000  0.000  0.000  0.000  0.000
    eigenvectors:
  1.000  0.000  0.000  0.000  0.000
  0.000  1.000  0.000  0.000  0.000
  0.000  0.000  1.000  0.000  0.000
  0.000  0.000  0.000  1.000  0.000
  0.000  0.000  0.000  0.000  1.000
    occupations:
  0.000  0.000  0.000  0.000  0.000
  0.000  0.000  0.000  0.000  0.000
  0.000  0.000  0.000  0.000  0.000
  0.000  0.000  0.000  0.000  0.000
  0.000  0.000  0.000  0.000  0.000
   spin  2
    eigenvalues: 
  1.000  1.000  1.000  1.000  1.000
    eigenvectors:
  1.000  0.000  0.000  0.000  0.000
  0.000  1.000  0.000  0.000  0.000
  0.000  0.000  1.000  0.000  0.000
  0.000  0.000  0.000  1.000  0.000
  0.000  0.000  0.000  0.000  1.000
    occupations:
  1.000  0.000  0.000  0.000  0.000
  0.000  1.000  0.000  0.000  0.000
  0.000  0.000  1.000  0.000  0.000
  0.000  0.000  0.000  1.000  0.000
  0.000  0.000  0.000  0.000  1.000
atomic mag. moment =    -5.000000
atom    7   Tr[ns(na)] (up, down, total) =   5.00000  0.00000  5.00000
   spin  1
    eigenvalues: 
  1.000  1.000  1.000  1.000  1.000
    eigenvectors:
  1.000  0.000  0.000  0.000  0.000
  0.000  1.000  0.000  0.000  0.000
  0.000  0.000  1.000  0.000  0.000
  0.000  0.000  0.000  1.000  0.000
  0.000  0.000  0.000  0.000  1.000
    occupations:
  1.000  0.000  0.000  0.000  0.000
  0.000  1.000  0.000  0.000  0.000
  0.000  0.000  1.000  0.000  0.000
  0.000  0.000  0.000  1.000  0.000
  0.000  0.000  0.000  0.000  1.000
   spin  2
    eigenvalues: 
  0.000  0.000  0.000  0.000  0.000
    eigenvectors:
  1.000  0.000  0.000  0.000  0.000
  0.000  1.000  0.000  0.000  0.000
  0.000  0.000  1.000  0.000  0.000
  0.000  0.000  0.000  1.000  0.000
  0.000  0.000  0.000  0.000  1.000
    occupations:
  0.000  0.000  0.000  0.000  0.000
  0.000  0.000  0.000  0.000  0.000
  0.000  0.000  0.000  0.000  0.000
  0.000  0.000  0.000  0.000  0.000
  0.000  0.000  0.000  0.000  0.000
atomic mag. moment =     5.000000
atom    8   Tr[ns(na)] (up, down, total) =   0.00000  5.00000  5.00000
   spin  1
    eigenvalues: 
  0.000  0.000  0.000  0.000  0.000
    eigenvectors:
  1.000  0.000  0.000  0.000  0.000
  0.000  1.000  0.000  0.000  0.000
  0.000  0.000  1.000  0.000  0.000
  0.000  0.000  0.000  1.000  0.000
  0.000  0.000  0.000  0.000  1.000
    occupations:
  0.000  0.000  0.000  0.000  0.000
  0.000  0.000  0.000  0.000  0.000
  0.000  0.000  0.000  0.000  0.000
  0.000  0.000  0.000  0.000  0.000
  0.000  0.000  0.000  0.000  0.000
   spin  2
    eigenvalues: 
  1.000  1.000  1.000  1.000  1.000
    eigenvectors:
  1.000  0.000  0.000  0.000  0.000
  0.000  1.000  0.000  0.000  0.000
  0.000  0.000  1.000  0.000  0.000
  0.000  0.000  0.000  1.000  0.000
  0.000  0.000  0.000  0.000  1.000
    occupations:
  1.000  0.000  0.000  0.000  0.000
  0.000  1.000  0.000  0.000  0.000
  0.000  0.000  1.000  0.000  0.000
  0.000  0.000  0.000  1.000  0.000
  0.000  0.000  0.000  0.000  1.000
atomic mag. moment =    -5.000000
N of occupied +U levels =   40.000000
 --- exit write_ns ---
 Atomic wfc used for LDA+U Projector are NOT orthogonalized
     Starting wfcs are  224 randomized atomic wfcs
     Checking if some PAW data can be deallocated... 

     total cpu time spent up to now is       79.4 secs

     Self-consistent Calculation

     iteration #  1     ecut=    45.00 Ry     beta= 0.10
     Davidson diagonalization with overlap
     ethr =  1.00E-02,  avg # of iterations =  4.1
 --- enter write_ns ---
 LDA+U parameters:
U(  1) =   3.1200   J(  1) =   0.7000   B(  1) =   0.0803
U(  2) =   3.1200   J(  2) =   0.7000   B(  2) =   0.0803
atom    1   Tr[ns(na)] (up, down, total) =   5.01744  0.40799  5.42543
   spin  1
    eigenvalues: 
  1.003  1.003  1.003  1.004  1.004
    eigenvectors:
  0.000  0.000  0.000  1.000  0.000
  0.000  0.377  0.623  0.000  0.000
  0.000  0.623  0.377  0.000  0.000
  0.000  0.000  0.000  0.000  1.000
  1.000  0.000  0.000  0.000  0.000
    occupations:
  1.004 -0.000 -0.000  0.000  0.000
 -0.000  1.003 -0.000  0.000  0.000
 -0.000 -0.000  1.003  0.000  0.000
  0.000  0.000  0.000  1.004 -0.000
  0.000  0.000  0.000 -0.000  1.003
   spin  2
    eigenvalues: 
  0.053  0.073  0.081  0.081  0.119
    eigenvectors:
  0.000  1.000  0.000  0.000  0.000
  0.000  0.000  0.412  0.588  0.000
  0.000  0.000  0.588  0.412  0.000
  1.000  0.000  0.000  0.000  0.000
  0.000  0.000  0.000  0.000  1.000
    occupations:
  0.073 -0.000 -0.000  0.000  0.000
 -0.000  0.081 -0.000  0.000  0.000
 -0.000 -0.000  0.081  0.000  0.000
  0.000  0.000  0.000  0.053 -0.000
  0.000  0.000  0.000 -0.000  0.119
atomic mag. moment =     4.609444
atom    2   Tr[ns(na)] (up, down, total) =   5.01750  0.40834  5.42584
   spin  1
    eigenvalues: 
  1.003  1.003  1.003  1.004  1.004
    eigenvectors:
  0.000  0.000  0.000  1.000  0.000
  0.000  0.376  0.624  0.000  0.000
  0.000  0.624  0.376  0.000  0.000
  0.000  0.000  0.000  0.000  1.000
  1.000  0.000  0.000  0.000  0.000
    occupations:
  1.004 -0.000 -0.000  0.000  0.000
 -0.000  1.003 -0.000  0.000  0.000
 -0.000 -0.000  1.003  0.000  0.000
  0.000  0.000  0.000  1.004 -0.000
  0.000  0.000  0.000 -0.000  1.003
   spin  2
    eigenvalues: 
  0.053  0.073  0.082  0.082  0.119
    eigenvectors:
  0.000  1.000  0.000  0.000  0.000
  0.000  0.000  0.401  0.599  0.000
  0.000  0.000  0.599  0.401  0.000
  1.000  0.000  0.000  0.000  0.000
  0.000  0.000  0.000  0.000  1.000
    occupations:
  0.073 -0.000 -0.000  0.000  0.000
 -0.000  0.082 -0.000  0.000  0.000
 -0.000 -0.000  0.082  0.000  0.000
  0.000  0.000  0.000  0.053 -0.000
  0.000  0.000  0.000 -0.000  0.119
atomic mag. moment =     4.609156
atom    3   Tr[ns(na)] (up, down, total) =   0.41066  5.01735  5.42802
   spin  1
    eigenvalues: 
  0.053  0.073  0.080  0.080  0.124
    eigenvectors:
  0.000  1.000  0.000  0.000  0.000
  0.000  0.000  0.345  0.655  0.000
  0.000  0.000  0.655  0.345  0.000
  1.000  0.000  0.000  0.000  0.000
  0.000  0.000  0.000  0.000  1.000
    occupations:
  0.073 -0.000 -0.000  0.000  0.000
 -0.000  0.080 -0.000  0.000  0.000
 -0.000 -0.000  0.080  0.000  0.000
  0.000  0.000  0.000  0.053 -0.000
  0.000  0.000  0.000 -0.000  0.124
   spin  2
    eigenvalues: 
  1.003  1.003  1.003  1.004  1.004
    eigenvectors:
  0.000  0.000  0.000  1.000  0.000
  0.000  0.267  0.733  0.000  0.000
  0.000  0.733  0.267  0.000  0.000
  0.000  0.000  0.000  0.000  1.000
  1.000  0.000  0.000  0.000  0.000
    occupations:
  1.004 -0.000 -0.000  0.000  0.000
 -0.000  1.003 -0.000  0.000  0.000
 -0.000 -0.000  1.003  0.000  0.000
  0.000  0.000  0.000  1.004 -0.000
  0.000  0.000  0.000 -0.000  1.003
atomic mag. moment =    -4.606691
atom    4   Tr[ns(na)] (up, down, total) =   5.01724  0.41068  5.42791
   spin  1
    eigenvalues: 
  1.003  1.003  1.003  1.004  1.004
    eigenvectors:
  0.000  0.000  0.000  1.000  0.000
  0.000  0.336  0.664  0.000  0.000
  0.000  0.664  0.336  0.000  0.000
  0.000  0.000  0.000  0.000  1.000
  1.000  0.000  0.000  0.000  0.000
    occupations:
  1.004 -0.000 -0.000  0.000  0.000
 -0.000  1.003 -0.000  0.000  0.000
 -0.000 -0.000  1.003  0.000  0.000
  0.000  0.000  0.000  1.004 -0.000
  0.000  0.000  0.000 -0.000  1.003
   spin  2
    eigenvalues: 
  0.053  0.073  0.080  0.080  0.125
    eigenvectors:
  0.000  1.000  0.000  0.000  0.000
  0.000  0.000  0.379  0.621  0.000
  0.000  0.000  0.621  0.379  0.000
  1.000  0.000  0.000  0.000  0.000
  0.000  0.000  0.000  0.000  1.000
    occupations:
  0.073 -0.000 -0.000  0.000  0.000
 -0.000  0.080 -0.000  0.000  0.000
 -0.000 -0.000  0.080  0.000  0.000
  0.000  0.000  0.000  0.053 -0.000
  0.000  0.000  0.000 -0.000  0.125
atomic mag. moment =     4.606562
atom    5   Tr[ns(na)] (up, down, total) =   0.40927  5.01750  5.42677
   spin  1
    eigenvalues: 
  0.053  0.073  0.082  0.082  0.120
    eigenvectors:
  0.000  1.000  0.000  0.000  0.000
  0.000  0.000  0.295  0.705  0.000
  0.000  0.000  0.705  0.295  0.000
  1.000  0.000  0.000  0.000  0.000
  0.000  0.000  0.000  0.000  1.000
    occupations:
  0.073 -0.000 -0.000  0.000  0.000
 -0.000  0.082 -0.000  0.000  0.000
 -0.000 -0.000  0.082  0.000  0.000
  0.000  0.000  0.000  0.053 -0.000
  0.000  0.000  0.000 -0.000  0.120
   spin  2
    eigenvalues: 
  1.003  1.003  1.003  1.004  1.004
    eigenvectors:
  0.000  0.000  0.000  1.000  0.000
  0.000  0.316  0.684  0.000  0.000
  0.000  0.684  0.316  0.000  0.000
  0.000  0.000  0.000  0.000  1.000
  1.000  0.000  0.000  0.000  0.000
    occupations:
  1.004 -0.000 -0.000  0.000  0.000
 -0.000  1.003 -0.000  0.000  0.000
 -0.000 -0.000  1.003  0.000  0.000
  0.000  0.000  0.000  1.004 -0.000
  0.000  0.000  0.000 -0.000  1.003
atomic mag. moment =    -4.608229
atom    6   Tr[ns(na)] (up, down, total) =   0.40829  5.01760  5.42589
   spin  1
    eigenvalues: 
  0.053  0.073  0.082  0.082  0.119
    eigenvectors:
  0.000  1.000  0.000  0.000  0.000
  0.000  0.000  0.405  0.595  0.000
  0.000  0.000  0.595  0.405  0.000
  1.000  0.000  0.000  0.000  0.000
  0.000  0.000  0.000  0.000  1.000
    occupations:
  0.073 -0.000 -0.000  0.000  0.000
 -0.000  0.082 -0.000  0.000  0.000
 -0.000 -0.000  0.082  0.000  0.000
  0.000  0.000  0.000  0.053 -0.000
  0.000  0.000  0.000 -0.000  0.119
   spin  2
    eigenvalues: 
  1.003  1.003  1.003  1.004  1.004
    eigenvectors:
  0.000  0.000  0.000  1.000  0.000
  0.000  0.287  0.713  0.000  0.000
  0.000  0.713  0.287  0.000  0.000
  0.000  0.000  0.000  0.000  1.000
  1.000  0.000  0.000  0.000  0.000
    occupations:
  1.004 -0.000 -0.000  0.000  0.000
 -0.000  1.003 -0.000  0.000  0.000
 -0.000 -0.000  1.003  0.000  0.000
  0.000  0.000  0.000  1.004 -0.000
  0.000  0.000  0.000 -0.000  1.003
atomic mag. moment =    -4.609301
atom    7   Tr[ns(na)] (up, down, total) =   5.01736  0.41027  5.42763
   spin  1
    eigenvalues: 
  1.003  1.003  1.003  1.004  1.004
    eigenvectors:
  0.000  0.000  0.000  1.000  0.000
  0.000  0.378  0.622  0.000  0.000
  0.000  0.622  0.378  0.000  0.000
  0.000  0.000  0.000  0.000  1.000
  1.000  0.000  0.000  0.000  0.000
    occupations:
  1.004 -0.000 -0.000  0.000  0.000
 -0.000  1.003 -0.000  0.000  0.000
 -0.000 -0.000  1.003  0.000  0.000
  0.000  0.000  0.000  1.004 -0.000
  0.000  0.000  0.000 -0.000  1.003
   spin  2
    eigenvalues: 
  0.053  0.073  0.080  0.080  0.124
    eigenvectors:
  0.000  1.000  0.000  0.000  0.000
  0.000  0.000  0.325  0.675  0.000
  0.000  0.000  0.675  0.325  0.000
  1.000  0.000  0.000  0.000  0.000
  0.000  0.000  0.000  0.000  1.000
    occupations:
  0.073 -0.000 -0.000  0.000  0.000
 -0.000  0.080 -0.000  0.000  0.000
 -0.000 -0.000  0.080  0.000  0.000
  0.000  0.000  0.000  0.053 -0.000
  0.000  0.000  0.000 -0.000  0.124
atomic mag. moment =     4.607090
atom    8   Tr[ns(na)] (up, down, total) =   0.41078  5.01731  5.42809
   spin  1
    eigenvalues: 
  0.053  0.073  0.080  0.080  0.124
    eigenvectors:
  0.000  1.000  0.000  0.000  0.000
  0.000  0.000  0.413  0.587  0.000
  0.000  0.000  0.587  0.413  0.000
  1.000  0.000  0.000  0.000  0.000
  0.000  0.000  0.000  0.000  1.000
    occupations:
  0.073 -0.000 -0.000  0.000  0.000
 -0.000  0.080 -0.000  0.000  0.000
 -0.000 -0.000  0.080  0.000  0.000
  0.000  0.000  0.000  0.053 -0.000
  0.000  0.000  0.000 -0.000  0.124
   spin  2
    eigenvalues: 
  1.003  1.003  1.003  1.004  1.004
    eigenvectors:
  0.000  0.000  0.000  1.000  0.000
  0.000  0.257  0.743  0.000  0.000
  0.000  0.743  0.257  0.000  0.000
  0.000  0.000  0.000  0.000  1.000
  1.000  0.000  0.000  0.000  0.000
    occupations:
  1.004 -0.000 -0.000  0.000  0.000
 -0.000  1.003 -0.000  0.000  0.000
 -0.000 -0.000  1.003  0.000  0.000
  0.000  0.000  0.000  1.004 -0.000
  0.000  0.000  0.000 -0.000  1.003
atomic mag. moment =    -4.606529
N of occupied +U levels =   43.415582
 --- exit write_ns ---

     total cpu time spent up to now is      274.8 secs

     total energy              =  -14687.28211861 Ry
     Harris-Foulkes estimate   =  -14685.82235625 Ry
     estimated scf accuracy    <      11.56500767 Ry

     total magnetization       =     0.00 Bohr mag/cell
     absolute magnetization    =    41.59 Bohr mag/cell

     iteration #  2     ecut=    45.00 Ry     beta= 0.10
     Davidson diagonalization with overlap
     ethr =  3.91E-03,  avg # of iterations =  1.0

     total cpu time spent up to now is      391.0 secs

     total energy              =  -14692.57555275 Ry
     Harris-Foulkes estimate   =  -14687.35554475 Ry
     estimated scf accuracy    <       9.31234542 Ry

     total magnetization       =    -0.01 Bohr mag/cell
     absolute magnetization    =    41.28 Bohr mag/cell

     iteration #  3     ecut=    45.00 Ry     beta= 0.10
     Davidson diagonalization with overlap
     ethr =  3.15E-03,  avg # of iterations =  2.6

     total cpu time spent up to now is      547.6 secs

     total energy              =  -14693.63887168 Ry
     Harris-Foulkes estimate   =  -14694.21183653 Ry
     estimated scf accuracy    <      41.67993844 Ry

     total magnetization       =     0.01 Bohr mag/cell
     absolute magnetization    =    38.55 Bohr mag/cell

     iteration #  4     ecut=    45.00 Ry     beta= 0.10
     Davidson diagonalization with overlap
     ethr =  3.15E-03,  avg # of iterations =  1.5

     total cpu time spent up to now is      672.9 secs

     total energy              =  -14695.07367931 Ry
     Harris-Foulkes estimate   =  -14693.99944996 Ry
     estimated scf accuracy    <       3.46200438 Ry

     total magnetization       =     0.03 Bohr mag/cell
     absolute magnetization    =    38.75 Bohr mag/cell

     iteration #  5     ecut=    45.00 Ry     beta= 0.10
     Davidson diagonalization with overlap
     ethr =  1.17E-03,  avg # of iterations =  2.7

     total cpu time spent up to now is      824.6 secs

     total energy              =  -14694.34225054 Ry
     Harris-Foulkes estimate   =  -14695.30340410 Ry
     estimated scf accuracy    <       8.77593741 Ry

     total magnetization       =    -0.02 Bohr mag/cell
     absolute magnetization    =    37.53 Bohr mag/cell

     iteration #  6     ecut=    45.00 Ry     beta= 0.10
     Davidson diagonalization with overlap
     ethr =  1.17E-03,  avg # of iterations =  3.1

     total cpu time spent up to now is      982.6 secs

     total energy              =  -14692.86442283 Ry
     Harris-Foulkes estimate   =  -14694.59614702 Ry
     estimated scf accuracy    <      24.28553213 Ry

     total magnetization       =     0.01 Bohr mag/cell
     absolute magnetization    =    38.16 Bohr mag/cell

     iteration #  7     ecut=    45.00 Ry     beta= 0.10
     Davidson diagonalization with overlap
     ethr =  1.17E-03,  avg # of iterations =  4.0

     total cpu time spent up to now is     1224.9 secs

     total energy              =  -14693.88280587 Ry
     Harris-Foulkes estimate   =  -14693.88892793 Ry
     estimated scf accuracy    <       1.94639788 Ry

     total magnetization       =     0.08 Bohr mag/cell
     absolute magnetization    =    38.06 Bohr mag/cell

     iteration #  8     ecut=    45.00 Ry     beta= 0.10
     Davidson diagonalization with overlap
     ethr =  6.58E-04,  avg # of iterations =  1.1

     total cpu time spent up to now is     1342.8 secs

     total energy              =  -14693.98186117 Ry
     Harris-Foulkes estimate   =  -14693.96809937 Ry
     estimated scf accuracy    <       0.11922501 Ry

     total magnetization       =    -0.02 Bohr mag/cell
     absolute magnetization    =    37.95 Bohr mag/cell

     iteration #  9     ecut=    45.00 Ry     beta= 0.10
     Davidson diagonalization with overlap
     ethr =  4.03E-05,  avg # of iterations =  5.1

     total cpu time spent up to now is     1576.6 secs

     total energy              =  -14694.01051881 Ry
     Harris-Foulkes estimate   =  -14694.01019543 Ry
     estimated scf accuracy    <       0.19658983 Ry

     total magnetization       =     0.00 Bohr mag/cell
     absolute magnetization    =    37.42 Bohr mag/cell

     iteration # 10     ecut=    45.00 Ry     beta= 0.10
     Davidson diagonalization with overlap
     ethr =  4.03E-05,  avg # of iterations =  1.1

     total cpu time spent up to now is     1696.3 secs

     total energy              =  -14693.95957317 Ry
     Harris-Foulkes estimate   =  -14694.01204902 Ry
     estimated scf accuracy    <       0.17946397 Ry

     total magnetization       =     0.01 Bohr mag/cell
     absolute magnetization    =    37.34 Bohr mag/cell

     iteration # 11     ecut=    45.00 Ry     beta= 0.10
     Davidson diagonalization with overlap
     ethr =  4.03E-05,  avg # of iterations =  3.3

     total cpu time spent up to now is     1895.2 secs

     total energy              =  -14693.98972486 Ry
     Harris-Foulkes estimate   =  -14693.99529183 Ry
     estimated scf accuracy    <       0.03570624 Ry

     total magnetization       =     0.01 Bohr mag/cell
     absolute magnetization    =    37.48 Bohr mag/cell

     iteration # 12     ecut=    45.00 Ry     beta= 0.10
     Davidson diagonalization with overlap
     ethr =  1.21E-05,  avg # of iterations =  2.3

     total cpu time spent up to now is     2052.1 secs

     total energy              =  -14693.99667637 Ry
     Harris-Foulkes estimate   =  -14693.99529756 Ry
     estimated scf accuracy    <       0.00998394 Ry

     total magnetization       =    -0.00 Bohr mag/cell
     absolute magnetization    =    37.48 Bohr mag/cell

     iteration # 13     ecut=    45.00 Ry     beta= 0.10
     Davidson diagonalization with overlap
     ethr =  3.37E-06,  avg # of iterations =  1.8

     total cpu time spent up to now is     2183.8 secs

     total energy              =  -14693.99691777 Ry
     Harris-Foulkes estimate   =  -14693.99689207 Ry
     estimated scf accuracy    <       0.01170597 Ry

     total magnetization       =     0.01 Bohr mag/cell
     absolute magnetization    =    37.46 Bohr mag/cell

     iteration # 14     ecut=    45.00 Ry     beta= 0.10
     Davidson diagonalization with overlap
     ethr =  3.37E-06,  avg # of iterations =  1.1

     total cpu time spent up to now is     2300.2 secs

     total energy              =  -14693.99780494 Ry
     Harris-Foulkes estimate   =  -14693.99712452 Ry
     estimated scf accuracy    <       0.01675130 Ry

     total magnetization       =    -0.01 Bohr mag/cell
     absolute magnetization    =    37.46 Bohr mag/cell

     iteration # 15     ecut=    45.00 Ry     beta= 0.10
     Davidson diagonalization with overlap
     ethr =  3.37E-06,  avg # of iterations =  2.2

     total cpu time spent up to now is     2443.2 secs

     total energy              =  -14693.99886627 Ry
     Harris-Foulkes estimate   =  -14693.99854063 Ry
     estimated scf accuracy    <       0.00125438 Ry

     total magnetization       =    -0.00 Bohr mag/cell
     absolute magnetization    =    37.42 Bohr mag/cell

     iteration # 16     ecut=    45.00 Ry     beta= 0.10
     Davidson diagonalization with overlap
     ethr =  4.24E-07,  avg # of iterations =  2.6

     total cpu time spent up to now is     2597.7 secs

     total energy              =  -14693.99894174 Ry
     Harris-Foulkes estimate   =  -14693.99898253 Ry
     estimated scf accuracy    <       0.00349591 Ry

     total magnetization       =     0.01 Bohr mag/cell
     absolute magnetization    =    37.40 Bohr mag/cell

     iteration # 17     ecut=    45.00 Ry     beta= 0.10
     Davidson diagonalization with overlap
     ethr =  4.24E-07,  avg # of iterations =  1.0

     total cpu time spent up to now is     2715.5 secs

     total energy              =  -14693.99913725 Ry
     Harris-Foulkes estimate   =  -14693.99900431 Ry
     estimated scf accuracy    <       0.00135269 Ry

     total magnetization       =    -0.00 Bohr mag/cell
     absolute magnetization    =    37.40 Bohr mag/cell

     iteration # 18     ecut=    45.00 Ry     beta= 0.10
     Davidson diagonalization with overlap
     ethr =  4.24E-07,  avg # of iterations =  1.2

     total cpu time spent up to now is     2837.0 secs

     total energy              =  -14693.99925403 Ry
     Harris-Foulkes estimate   =  -14693.99917757 Ry
     estimated scf accuracy    <       0.00015311 Ry

     total magnetization       =     0.00 Bohr mag/cell
     absolute magnetization    =    37.39 Bohr mag/cell

     iteration # 19     ecut=    45.00 Ry     beta= 0.10
     Davidson diagonalization with overlap
     ethr =  5.17E-08,  avg # of iterations =  3.8

     total cpu time spent up to now is     3011.0 secs

     total energy              =  -14693.99928452 Ry
     Harris-Foulkes estimate   =  -14693.99926876 Ry
     estimated scf accuracy    <       0.00011389 Ry

     total magnetization       =     0.00 Bohr mag/cell
     absolute magnetization    =    37.39 Bohr mag/cell

     iteration # 20     ecut=    45.00 Ry     beta= 0.10
     Davidson diagonalization with overlap
     ethr =  3.85E-08,  avg # of iterations =  1.0

     total cpu time spent up to now is     3127.9 secs

     total energy              =  -14693.99930059 Ry
     Harris-Foulkes estimate   =  -14693.99928345 Ry
     estimated scf accuracy    <       0.00006487 Ry

     total magnetization       =     0.00 Bohr mag/cell
     absolute magnetization    =    37.39 Bohr mag/cell

     iteration # 21     ecut=    45.00 Ry     beta= 0.10
     Davidson diagonalization with overlap
     ethr =  2.19E-08,  avg # of iterations =  1.3

     total cpu time spent up to now is     3249.9 secs

     total energy              =  -14693.99932468 Ry
     Harris-Foulkes estimate   =  -14693.99930502 Ry
     estimated scf accuracy    <       0.00003585 Ry

     total magnetization       =    -0.00 Bohr mag/cell
     absolute magnetization    =    37.39 Bohr mag/cell

     iteration # 22     ecut=    45.00 Ry     beta= 0.10
     Davidson diagonalization with overlap
     ethr =  1.21E-08,  avg # of iterations =  2.3

     total cpu time spent up to now is     3392.2 secs

     total energy              =  -14693.99932888 Ry
     Harris-Foulkes estimate   =  -14693.99932356 Ry
     estimated scf accuracy    <       0.00002443 Ry

     total magnetization       =    -0.00 Bohr mag/cell
     absolute magnetization    =    37.38 Bohr mag/cell

     iteration # 23     ecut=    45.00 Ry     beta= 0.10
     Davidson diagonalization with overlap
     ethr =  8.25E-09,  avg # of iterations =  1.2

     total cpu time spent up to now is     3510.4 secs

     total energy              =  -14693.99933524 Ry
     Harris-Foulkes estimate   =  -14693.99933217 Ry
     estimated scf accuracy    <       0.00001395 Ry

     total magnetization       =     0.00 Bohr mag/cell
     absolute magnetization    =    37.38 Bohr mag/cell

     iteration # 24     ecut=    45.00 Ry     beta= 0.10
     Davidson diagonalization with overlap
     ethr =  4.71E-09,  avg # of iterations =  1.4

     total cpu time spent up to now is     3631.9 secs

     total energy              =  -14693.99933523 Ry
     Harris-Foulkes estimate   =  -14693.99933392 Ry
     estimated scf accuracy    <       0.00002126 Ry

     total magnetization       =    -0.00 Bohr mag/cell
     absolute magnetization    =    37.38 Bohr mag/cell

     iteration # 25     ecut=    45.00 Ry     beta= 0.10
     Davidson diagonalization with overlap
     ethr =  4.71E-09,  avg # of iterations =  1.0

     total cpu time spent up to now is     3746.2 secs

     total energy              =  -14693.99933859 Ry
     Harris-Foulkes estimate   =  -14693.99933613 Ry
     estimated scf accuracy    <       0.00001439 Ry

     total magnetization       =     0.00 Bohr mag/cell
     absolute magnetization    =    37.38 Bohr mag/cell

     iteration # 26     ecut=    45.00 Ry     beta= 0.10
     Davidson diagonalization with overlap
     ethr =  4.71E-09,  avg # of iterations =  1.1

     total cpu time spent up to now is     3863.0 secs

     total energy              =  -14693.99933922 Ry
     Harris-Foulkes estimate   =  -14693.99933772 Ry
     estimated scf accuracy    <       0.00004535 Ry

     total magnetization       =    -0.00 Bohr mag/cell
     absolute magnetization    =    37.38 Bohr mag/cell

     iteration # 27     ecut=    45.00 Ry     beta= 0.10
     Davidson diagonalization with overlap
     ethr =  4.71E-09,  avg # of iterations =  1.3

     total cpu time spent up to now is     3984.0 secs

     total energy              =  -14693.99934120 Ry
     Harris-Foulkes estimate   =  -14693.99934021 Ry
     estimated scf accuracy    <       0.00000256 Ry

     total magnetization       =     0.00 Bohr mag/cell
     absolute magnetization    =    37.38 Bohr mag/cell

     iteration # 28     ecut=    45.00 Ry     beta= 0.10
     Davidson diagonalization with overlap
     ethr =  8.63E-10,  avg # of iterations =  1.9

     total cpu time spent up to now is     4115.4 secs

     total energy              =  -14693.99934189 Ry
     Harris-Foulkes estimate   =  -14693.99934123 Ry
     estimated scf accuracy    <       0.00000160 Ry

     total magnetization       =    -0.00 Bohr mag/cell
     absolute magnetization    =    37.38 Bohr mag/cell

     iteration # 29     ecut=    45.00 Ry     beta= 0.10
     Davidson diagonalization with overlap
     ethr =  5.39E-10,  avg # of iterations =  2.1

     total cpu time spent up to now is     4250.9 secs

     total energy              =  -14693.99934318 Ry
     Harris-Foulkes estimate   =  -14693.99934259 Ry
     estimated scf accuracy    <       0.00000501 Ry

     total magnetization       =     0.00 Bohr mag/cell
     absolute magnetization    =    37.38 Bohr mag/cell

     iteration # 30     ecut=    45.00 Ry     beta= 0.10
     Davidson diagonalization with overlap
     ethr =  5.39E-10,  avg # of iterations =  1.3
 
     Magnetic moment per site:
     atom:    1    charge:   13.5455    magn:    4.2490    constr:    0.0000
     atom:    2    charge:   13.5457    magn:    4.2491    constr:    0.0000
     atom:    3    charge:   13.5443    magn:   -4.2578    constr:    0.0000
     atom:    4    charge:   13.5445    magn:    4.2578    constr:    0.0000
     atom:    5    charge:   13.5455    magn:   -4.2492    constr:    0.0000
     atom:    6    charge:   13.5458    magn:   -4.2489    constr:    0.0000
     atom:    7    charge:   13.5444    magn:    4.2579    constr:    0.0000
     atom:    8    charge:   13.5445    magn:   -4.2578    constr:    0.0000
     atom:    9    charge:    9.1239    magn:    0.0389    constr:    0.0000
     atom:   10    charge:    9.1241    magn:    0.0389    constr:    0.0000
     atom:   11    charge:    9.1246    magn:    0.0429    constr:    0.0000
     atom:   12    charge:    9.1234    magn:   -0.0384    constr:    0.0000
     atom:   13    charge:    9.1243    magn:   -0.0396    constr:    0.0000
     atom:   14    charge:    9.1245    magn:    0.0395    constr:    0.0000
     atom:   15    charge:    9.1235    magn:    0.0384    constr:    0.0000
     atom:   16    charge:    9.1245    magn:   -0.0429    constr:    0.0000
     atom:   17    charge:    9.1240    magn:   -0.0389    constr:    0.0000
     atom:   18    charge:    9.1240    magn:   -0.0389    constr:    0.0000
     atom:   19    charge:    9.1246    magn:   -0.0428    constr:    0.0000
     atom:   20    charge:    9.1235    magn:    0.0387    constr:    0.0000
     atom:   21    charge:    9.1244    magn:    0.0398    constr:    0.0000
     atom:   22    charge:    9.1246    magn:   -0.0397    constr:    0.0000
     atom:   23    charge:    9.1236    magn:   -0.0387    constr:    0.0000
     atom:   24    charge:    9.1245    magn:    0.0428    constr:    0.0000

     total cpu time spent up to now is     4374.4 secs

     End of self-consistent calculation
 --- enter write_ns ---
 LDA+U parameters:
U(  1) =   3.1200   J(  1) =   0.7000   B(  1) =   0.0803
U(  2) =   3.1200   J(  2) =   0.7000   B(  2) =   0.0803
atom    1   Tr[ns(na)] (up, down, total) =   4.97364  0.72584  5.69947
   spin  1
    eigenvalues: 
  0.985  0.994  0.994  0.997  1.002
    eigenvectors:
  0.000  0.000  0.000  1.000  0.000
  0.000  0.307  0.693  0.000  0.000
  0.000  0.693  0.307  0.000  0.000
  0.000  0.000  0.000  0.000  1.000
  1.000  0.000  0.000  0.000  0.000
    occupations:
  0.997 -0.000 -0.000  0.000  0.000
 -0.000  0.994 -0.000  0.000  0.000
 -0.000 -0.000  0.994  0.000  0.000
  0.000  0.000  0.000  1.002 -0.000
  0.000  0.000  0.000 -0.000  0.985
   spin  2
    eigenvalues: 
  0.066  0.124  0.144  0.144  0.249
    eigenvectors:
  0.000  1.000  0.000  0.000  0.000
  0.000  0.000  0.306  0.694  0.000
  0.000  0.000  0.694  0.306  0.000
  1.000  0.000  0.000  0.000  0.000
  0.000  0.000  0.000  0.000  1.000
    occupations:
  0.124 -0.000 -0.000  0.000  0.000
 -0.000  0.144 -0.000  0.000  0.000
 -0.000 -0.000  0.144  0.000  0.000
  0.000  0.000  0.000  0.066 -0.000
  0.000  0.000  0.000 -0.000  0.249
atomic mag. moment =     4.247797
atom    2   Tr[ns(na)] (up, down, total) =   4.97365  0.72578  5.69943
   spin  1
    eigenvalues: 
  0.985  0.994  0.994  0.997  1.002
    eigenvectors:
  0.000  0.000  0.000  1.000  0.000
  0.000  0.326  0.674  0.000  0.000
  0.000  0.674  0.326  0.000  0.000
  0.000  0.000  0.000  0.000  1.000
  1.000  0.000  0.000  0.000  0.000
    occupations:
  0.997 -0.000 -0.000  0.000  0.000
 -0.000  0.994 -0.000  0.000  0.000
 -0.000 -0.000  0.994  0.000  0.000
  0.000  0.000  0.000  1.002 -0.000
  0.000  0.000  0.000 -0.000  0.985
   spin  2
    eigenvalues: 
  0.066  0.124  0.144  0.144  0.249
    eigenvectors:
  0.000  1.000  0.000  0.000  0.000
  0.000  0.000  0.388  0.612  0.000
  0.000  0.000  0.612  0.388  0.000
  1.000  0.000  0.000  0.000  0.000
  0.000  0.000  0.000  0.000  1.000
    occupations:
  0.124 -0.000 -0.000  0.000  0.000
 -0.000  0.144 -0.000  0.000  0.000
 -0.000 -0.000  0.144  0.000  0.000
  0.000  0.000  0.000  0.066 -0.000
  0.000  0.000  0.000 -0.000  0.249
atomic mag. moment =     4.247872
atom    3   Tr[ns(na)] (up, down, total) =   0.71961  4.97224  5.69185
   spin  1
    eigenvalues: 
  0.066  0.119  0.146  0.146  0.243
    eigenvectors:
  0.000  1.000  0.000  0.000  0.000
  0.000  0.000  0.356  0.644  0.000
  0.000  0.000  0.644  0.356  0.000
  1.000  0.000  0.000  0.000  0.000
  0.000  0.000  0.000  0.000  1.000
    occupations:
  0.119 -0.000 -0.000  0.000  0.000
 -0.000  0.146 -0.000  0.000  0.000
 -0.000 -0.000  0.146  0.000  0.000
  0.000  0.000  0.000  0.066 -0.000
  0.000  0.000  0.000 -0.000  0.243
   spin  2
    eigenvalues: 
  0.985  0.994  0.994  0.997  1.003
    eigenvectors:
  0.000  0.000  0.000  1.000  0.000
  0.000  0.289  0.711  0.000  0.000
  0.000  0.711  0.289  0.000  0.000
  0.000  0.000  0.000  0.000  1.000
  1.000  0.000  0.000  0.000  0.000
    occupations:
  0.997 -0.000 -0.000  0.000  0.000
 -0.000  0.994 -0.000  0.000  0.000
 -0.000 -0.000  0.994  0.000  0.000
  0.000  0.000  0.000  1.003 -0.000
  0.000  0.000  0.000 -0.000  0.985
atomic mag. moment =    -4.252625
atom    4   Tr[ns(na)] (up, down, total) =   4.97223  0.71966  5.69190
   spin  1
    eigenvalues: 
  0.985  0.994  0.994  0.997  1.003
    eigenvectors:
  0.000  0.000  0.000  1.000  0.000
  0.000  0.247  0.753  0.000  0.000
  0.000  0.753  0.247  0.000  0.000
  0.000  0.000  0.000  0.000  1.000
  1.000  0.000  0.000  0.000  0.000
    occupations:
  0.997 -0.000 -0.000  0.000  0.000
 -0.000  0.994 -0.000  0.000  0.000
 -0.000 -0.000  0.994  0.000  0.000
  0.000  0.000  0.000  1.003 -0.000
  0.000  0.000  0.000 -0.000  0.985
   spin  2
    eigenvalues: 
  0.066  0.119  0.146  0.146  0.243
    eigenvectors:
  0.000  1.000  0.000  0.000  0.000
  0.000  0.000  0.281  0.719  0.000
  0.000  0.000  0.719  0.281  0.000
  1.000  0.000  0.000  0.000  0.000
  0.000  0.000  0.000  0.000  1.000
    occupations:
  0.119 -0.000 -0.000  0.000  0.000
 -0.000  0.146 -0.000  0.000  0.000
 -0.000 -0.000  0.146  0.000  0.000
  0.000  0.000  0.000  0.066 -0.000
  0.000  0.000  0.000 -0.000  0.243
atomic mag. moment =     4.252567
atom    5   Tr[ns(na)] (up, down, total) =   0.72567  4.97365  5.69932
   spin  1
    eigenvalues: 
  0.066  0.124  0.144  0.144  0.249
    eigenvectors:
  0.000  1.000  0.000  0.000  0.000
  0.000  0.000  0.362  0.638  0.000
  0.000  0.000  0.638  0.362  0.000
  1.000  0.000  0.000  0.000  0.000
  0.000  0.000  0.000  0.000  1.000
    occupations:
  0.124 -0.000 -0.000  0.000  0.000
 -0.000  0.144 -0.000  0.000  0.000
 -0.000 -0.000  0.144  0.000  0.000
  0.000  0.000  0.000  0.066 -0.000
  0.000  0.000  0.000 -0.000  0.249
   spin  2
    eigenvalues: 
  0.985  0.994  0.994  0.997  1.002
    eigenvectors:
  0.000  0.000  0.000  1.000  0.000
  0.000  0.361  0.639  0.000  0.000
  0.000  0.639  0.361  0.000  0.000
  0.000  0.000  0.000  0.000  1.000
  1.000  0.000  0.000  0.000  0.000
    occupations:
  0.997 -0.000 -0.000  0.000  0.000
 -0.000  0.994 -0.000  0.000  0.000
 -0.000 -0.000  0.994  0.000  0.000
  0.000  0.000  0.000  1.002 -0.000
  0.000  0.000  0.000 -0.000  0.985
atomic mag. moment =    -4.247978
atom    6   Tr[ns(na)] (up, down, total) =   0.72603  4.97364  5.69967
   spin  1
    eigenvalues: 
  0.066  0.124  0.144  0.144  0.249
    eigenvectors:
  0.000  1.000  0.000  0.000  0.000
  0.000  0.000  0.423  0.577  0.000
  0.000  0.000  0.577  0.423  0.000
  1.000  0.000  0.000  0.000  0.000
  0.000  0.000  0.000  0.000  1.000
    occupations:
  0.124 -0.000 -0.000  0.000  0.000
 -0.000  0.144 -0.000  0.000  0.000
 -0.000 -0.000  0.144  0.000  0.000
  0.000  0.000  0.000  0.066 -0.000
  0.000  0.000  0.000 -0.000  0.249
   spin  2
    eigenvalues: 
  0.985  0.994  0.994  0.997  1.002
    eigenvectors:
  0.000  0.000  0.000  1.000  0.000
  0.000  0.266  0.734  0.000  0.000
  0.000  0.734  0.266  0.000  0.000
  0.000  0.000  0.000  0.000  1.000
  1.000  0.000  0.000  0.000  0.000
    occupations:
  0.997 -0.000 -0.000  0.000  0.000
 -0.000  0.994 -0.000  0.000  0.000
 -0.000 -0.000  0.994  0.000  0.000
  0.000  0.000  0.000  1.002 -0.000
  0.000  0.000  0.000 -0.000  0.985
atomic mag. moment =    -4.247615
atom    7   Tr[ns(na)] (up, down, total) =   4.97232  0.71973  5.69205
   spin  1
    eigenvalues: 
  0.985  0.994  0.994  0.997  1.003
    eigenvectors:
  0.000  0.000  0.000  1.000  0.000
  0.000  0.280  0.720  0.000  0.000
  0.000  0.720  0.280  0.000  0.000
  0.000  0.000  0.000  0.000  1.000
  1.000  0.000  0.000  0.000  0.000
    occupations:
  0.997 -0.000 -0.000  0.000  0.000
 -0.000  0.994 -0.000  0.000  0.000
 -0.000 -0.000  0.994  0.000  0.000
  0.000  0.000  0.000  1.003 -0.000
  0.000  0.000  0.000 -0.000  0.985
   spin  2
    eigenvalues: 
  0.066  0.119  0.146  0.146  0.243
    eigenvectors:
  0.000  1.000  0.000  0.000  0.000
  0.000  0.000  0.293  0.707  0.000
  0.000  0.000  0.707  0.293  0.000
  1.000  0.000  0.000  0.000  0.000
  0.000  0.000  0.000  0.000  1.000
    occupations:
  0.119 -0.000 -0.000  0.000  0.000
 -0.000  0.146 -0.000  0.000  0.000
 -0.000 -0.000  0.146  0.000  0.000
  0.000  0.000  0.000  0.066 -0.000
  0.000  0.000  0.000 -0.000  0.243
atomic mag. moment =     4.252600
atom    8   Tr[ns(na)] (up, down, total) =   0.71973  4.97232  5.69205
   spin  1
    eigenvalues: 
  0.066  0.119  0.146  0.146  0.243
    eigenvectors:
  0.000  1.000  0.000  0.000  0.000
  0.000  0.000  0.264  0.736  0.000
  0.000  0.000  0.736  0.264  0.000
  1.000  0.000  0.000  0.000  0.000
  0.000  0.000  0.000  0.000  1.000
    occupations:
  0.119 -0.000 -0.000  0.000  0.000
 -0.000  0.146 -0.000  0.000  0.000
 -0.000 -0.000  0.146  0.000  0.000
  0.000  0.000  0.000  0.066 -0.000
  0.000  0.000  0.000 -0.000  0.243
   spin  2
    eigenvalues: 
  0.985  0.994  0.994  0.997  1.003
    eigenvectors:
  0.000  0.000  0.000  1.000  0.000
  0.000  0.314  0.686  0.000  0.000
  0.000  0.686  0.314  0.000  0.000
  0.000  0.000  0.000  0.000  1.000
  1.000  0.000  0.000  0.000  0.000
    occupations:
  0.997 -0.000 -0.000  0.000  0.000
 -0.000  0.994 -0.000  0.000  0.000
 -0.000 -0.000  0.994  0.000  0.000
  0.000  0.000  0.000  1.003 -0.000
  0.000  0.000  0.000 -0.000  0.985
atomic mag. moment =    -4.252582
N of occupied +U levels =   45.565740
 --- exit write_ns ---

 ------ SPIN UP ------------


          k = 0.0000 0.0000 0.0000 ( 13925 PWs)   bands (ev):

   -66.7971 -66.7953 -66.7381 -66.7374 -62.1889 -62.1871 -62.1343 -62.1340
   -35.5624 -35.5604 -35.5146 -35.5146 -35.5129 -35.5129 -35.5084 -35.5079
   -35.4545 -35.4545 -35.4536 -35.4536 -31.0099 -31.0079 -31.0079 -31.0079
   -31.0063 -31.0063 -30.9594 -30.9591 -30.9529 -30.9529 -30.9526 -30.9526
     5.7783   5.9218   5.9454   6.3706   6.4060   7.0541   7.0630   7.6215
     8.3487   8.4236   8.4370   8.5129   8.5141   8.5569   8.5737   8.7365
     8.8213   8.8491   8.9585   9.0868   9.1455   9.2372   9.2648   9.2800
     9.3075   9.3799   9.4636   9.5398   9.8516   9.9101   9.9267   9.9911
     9.9925  10.1289  10.1363  10.1363  10.1479  10.1495  10.1677  10.1766
    10.1768  10.1768  10.2042  10.2042  10.3075  10.3470  10.3470  10.3575
    10.3575  10.5192  10.5715  10.5865  10.5865  10.5927  10.5978  10.5978
    10.6038  10.6038  10.6108  10.6197  10.6197  10.6250  10.6250  10.6756
    10.7090  10.7090  10.9447  10.9447  10.9539  11.0537  11.0537  11.0857
    11.1363  11.1551  11.2602  11.2894  11.3263  11.3276  11.4224  11.4224
    11.4244  11.4244  11.4441  11.4625  11.6697  11.7348  11.7588  11.8121
    11.8121  11.9157  11.9171  11.9607  11.9607  12.0449  12.1137  12.1608
    12.1807  12.2535  12.3353  12.3353  12.3371  12.3371  12.5886  12.5886
    12.6799  12.8189  12.8203  12.8292  12.9996  13.0014  13.0342  13.6522
    13.9201  15.0329  15.0683  15.9291  16.8126  16.8126  16.9117  16.9117
    16.9139  16.9139  16.9622  16.9636  16.9826  17.0371  17.1151  17.1151
    17.1586  17.1597  17.1651  17.2181  17.5556  17.5904  17.6151  17.6309
    18.6011  19.6822  19.7005  20.1032  20.1032  20.4896  20.4896  20.5125
    20.5125  21.4961

          k = 0.0000 0.0000 0.0242 ( 13893 PWs)   bands (ev):

   -66.7971 -66.7953 -66.7381 -66.7374 -62.1889 -62.1871 -62.1343 -62.1340
   -35.5624 -35.5604 -35.5146 -35.5146 -35.5129 -35.5129 -35.5084 -35.5079
   -35.4545 -35.4545 -35.4536 -35.4536 -31.0099 -31.0079 -31.0079 -31.0079
   -31.0063 -31.0063 -30.9594 -30.9591 -30.9529 -30.9529 -30.9526 -30.9526
     5.7855   5.8732   6.0079   6.2642   6.5296   6.8834   7.2400   7.5600
     8.4047   8.4236   8.4381   8.5120   8.5150   8.5427   8.5889   8.7365
     8.7378   8.8252   9.0154   9.1225   9.1481   9.1956   9.2422   9.3085
     9.3485   9.3709   9.4493   9.5247   9.8534   9.9135   9.9267   9.9907
     9.9930  10.1251  10.1327  10.1394  10.1394  10.1641  10.1641  10.1644
    10.1718  10.1766  10.2236  10.2236  10.3020  10.3020  10.3074  10.4094
    10.4094  10.5216  10.5422  10.5422  10.5697  10.5782  10.5870  10.5870
    10.6037  10.6037  10.6055  10.6055  10.6290  10.6694  10.6851  10.6851
    10.7236  10.7236  10.8866  10.8866  10.9602  11.0865  11.1050  11.1157
    11.1157  11.1894  11.2517  11.2894  11.3135  11.3220  11.3220  11.3402
    11.4450  11.4616  11.5134  11.5134  11.6691  11.7348  11.7590  11.7828
    11.7828  11.9128  11.9199  11.9791  11.9791  12.0491  12.1137  12.1404
    12.2034  12.2473  12.3096  12.3096  12.3595  12.3595  12.5883  12.5883
    12.6801  12.8172  12.8219  12.8402  12.9389  13.0014  13.1011  13.5860
    13.9980  14.8361  15.2756  15.8832  16.8128  16.8128  16.9067  16.9067
    16.9188  16.9188  16.9622  16.9636  16.9826  17.0371  17.1149  17.1149
    17.1586  17.1597  17.1651  17.2181  17.5582  17.5898  17.6141  17.6325
    18.6728  19.3044  20.1262  20.1262  20.1274  20.3398  20.3398  20.6997
    20.6997  21.1285

          k = 0.0000 0.0000-0.0484 ( 13878 PWs)   bands (ev):

   -66.7971 -66.7953 -66.7381 -66.7374 -62.1889 -62.1871 -62.1343 -62.1340
   -35.5624 -35.5604 -35.5146 -35.5146 -35.5129 -35.5129 -35.5084 -35.5079
   -35.4545 -35.4545 -35.4536 -35.4536 -31.0099 -31.0079 -31.0079 -31.0079
   -31.0063 -31.0063 -30.9594 -30.9591 -30.9529 -30.9529 -30.9526 -30.9526
     5.7968   5.8445   6.0590   6.1965   6.6390   6.7618   7.4044   7.4265
     8.4236   8.4381   8.4989   8.5115   8.5156   8.5220   8.6000   8.6378
     8.7365   8.8160   9.0549   9.1510   9.1569   9.1592   9.2301   9.3345
     9.3537   9.3993   9.4128   9.5092   9.8554   9.9167   9.9267   9.9904
     9.9933  10.1151  10.1377  10.1469  10.1469  10.1510  10.1510  10.1599
    10.1766  10.1813  10.2542  10.2542  10.2637  10.2637  10.3072  10.4709
    10.4709  10.4749  10.4749  10.5244  10.5679  10.5689  10.5870  10.5870
    10.6036  10.6036  10.6053  10.6053  10.6495  10.6550  10.6963  10.6963
    10.7857  10.7857  10.8116  10.8116  10.9674  11.0869  11.0872  11.1993
    11.1993  11.2205  11.2324  11.2338  11.2338  11.2893  11.3079  11.3456
    11.4461  11.4606  11.5581  11.5581  11.6684  11.7349  11.7523  11.7523
    11.7593  11.9113  11.9213  11.9944  11.9944  12.0540  12.1137  12.1275
    12.2279  12.2310  12.2971  12.2971  12.3685  12.3685  12.5879  12.5879
    12.6802  12.8163  12.8228  12.8625  12.8945  13.0014  13.1439  13.5312
    14.0668  14.7363  15.3929  15.8249  16.8129  16.8129  16.9042  16.9042
    16.9212  16.9212  16.9622  16.9636  16.9826  17.0371  17.1148  17.1148
    17.1586  17.1597  17.1651  17.2181  17.5609  17.5891  17.6134  17.6339
    18.7937  19.0789  20.1701  20.1701  20.2496  20.2496  20.4919  20.7454
    20.8749  20.8749

          k = 0.0000 0.1250 0.0000 ( 13879 PWs)   bands (ev):

   -66.7969 -66.7950 -66.7379 -66.7371 -62.1889 -62.1872 -62.1343 -62.1340
   -35.5622 -35.5602 -35.5163 -35.5146 -35.5145 -35.5128 -35.5083 -35.5078
   -35.4562 -35.4554 -35.4544 -35.4536 -31.0101 -31.0096 -31.0085 -31.0078
   -31.0077 -31.0062 -30.9592 -30.9589 -30.9550 -30.9548 -30.9527 -30.9525
     6.0216   6.1616   6.1853   6.5954   6.6304   7.2432   7.2519   7.7748
     8.3519   8.5251   8.5556   8.6211   8.6278   8.6560   8.6666   8.7774
     8.7878   8.8428   8.9770   9.0413   9.1680   9.2525   9.2653   9.3168
     9.3446   9.4332   9.4537   9.6243   9.6541   9.7998   9.8079   9.8151
     9.8462   9.8481   9.8954   9.9808  10.0325  10.0587  10.0738  10.1098
    10.1674  10.1842  10.1946  10.1967  10.1970  10.2809  10.2882  10.3159
    10.4199  10.4447  10.4507  10.4580  10.5071  10.5196  10.5699  10.6062
    10.6572  10.7158  10.7546  10.7803  10.8088  10.8117  10.8289  10.8362
    10.9450  10.9954  11.0227  11.0261  11.1017  11.1088  11.1263  11.1441
    11.2335  11.2655  11.3292  11.3302  11.3515  11.3737  11.3756  11.4117
    11.4250  11.4704  11.5962  11.6371  11.6926  11.7638  11.7856  11.8134
    11.8145  11.8707  11.9206  11.9483  11.9561  12.0172  12.1004  12.1260
    12.1554  12.2332  12.2466  12.4083  12.4335  12.4539  12.5495  12.5754
    12.7212  12.7306  12.7622  12.8601  12.8797  12.9739  13.0050  13.7299
    13.9610  15.1498  15.1862  16.0587  16.5634  16.6831  16.7439  16.9176
    16.9315  16.9716  16.9786  16.9967  17.0297  17.0350  17.0534  17.0544
    17.0762  17.0818  17.1232  17.2646  17.5295  17.6462  17.6926  17.9798
    18.6999  18.7031  19.0869  19.1000  19.9343  19.9560  20.0226  20.0465
    20.7331  21.0591

          k = 0.0000 0.1250 0.0242 ( 13869 PWs)   bands (ev):

   -66.7969 -66.7950 -66.7379 -66.7371 -62.1889 -62.1872 -62.1343 -62.1340
   -35.5622 -35.5602 -35.5163 -35.5146 -35.5145 -35.5128 -35.5083 -35.5078
   -35.4562 -35.4554 -35.4544 -35.4535 -31.0101 -31.0096 -31.0085 -31.0078
   -31.0077 -31.0062 -30.9592 -30.9589 -30.9550 -30.9548 -30.9527 -30.9525
     6.0286   6.1146   6.2461   6.4927   6.7496   7.0816   7.4179   7.7162
     8.4013   8.5261   8.5557   8.6098   8.6297   8.6439   8.6813   8.6865
     8.8157   8.8726   8.9858   9.0560   9.1509   9.2576   9.2717   9.3113
     9.3436   9.3870   9.5080   9.6101   9.6558   9.8008   9.8120   9.8130
     9.8390   9.8478   9.8948   9.9934  10.0305  10.0495  10.0791  10.1061
    10.1671  10.1842  10.1911  10.1986  10.2026  10.2643  10.3108  10.3149
    10.4105  10.4344  10.4366  10.4666  10.5106  10.5501  10.5720  10.6050
    10.6573  10.7112  10.7205  10.7498  10.8125  10.8278  10.8421  10.8805
    10.9195  11.0191  11.0210  11.0271  11.0673  11.1074  11.1344  11.1492
    11.2327  11.2845  11.2859  11.3307  11.3525  11.3675  11.3851  11.4142
    11.4347  11.4932  11.6012  11.6467  11.6909  11.7256  11.7460  11.7947
    11.8771  11.8811  11.9215  11.9365  11.9835  12.0074  12.0995  12.1289
    12.1504  12.1957  12.2761  12.4095  12.4346  12.4527  12.5524  12.5710
    12.7226  12.7298  12.7760  12.8600  12.8796  12.8933  13.0962  13.6301
    14.0730  14.9334  15.4070  16.0079  16.5703  16.6847  16.7454  16.9176
    16.9297  16.9723  16.9780  16.9968  17.0291  17.0360  17.0516  17.0557
    17.0762  17.0817  17.1232  17.2646  17.5301  17.6291  17.7336  17.9218
    18.7223  18.8185  18.9578  19.2641  19.5661  19.7389  20.2246  20.4755
    20.7483  20.8009

          k = 0.0000 0.1250-0.0484 ( 13868 PWs)   bands (ev):

   -66.7969 -66.7950 -66.7379 -66.7371 -62.1889 -62.1872 -62.1343 -62.1340
   -35.5622 -35.5602 -35.5163 -35.5146 -35.5145 -35.5128 -35.5083 -35.5078
   -35.4562 -35.4554 -35.4544 -35.4535 -31.0101 -31.0096 -31.0085 -31.0078
   -31.0077 -31.0062 -30.9592 -30.9589 -30.9550 -30.9548 -30.9527 -30.9525
     6.0396   6.0867   6.2964   6.4266   6.8584   6.9622   7.5792   7.5832
     8.4775   8.5296   8.5580   8.5592   8.6301   8.6312   8.6451   8.6949
     8.8163   8.8827   9.0083   9.0680   9.1306   9.2644   9.2766   9.3064
     9.3425   9.3616   9.5613   9.5729   9.6590   9.8022   9.8106   9.8194
     9.8267   9.8494   9.8942  10.0121  10.0288  10.0337  10.0862  10.1004
    10.1668  10.1842  10.1898  10.2002  10.2067  10.2561  10.3139  10.3284
    10.3907  10.4290  10.4334  10.4873  10.4922  10.5738  10.5993  10.6037
    10.6542  10.6574  10.7274  10.7430  10.8132  10.8279  10.8507  10.8992
    10.9372  11.0038  11.0190  11.0388  11.0433  11.1066  11.1458  11.1507
    11.2386  11.2433  11.3088  11.3293  11.3547  11.3556  11.3862  11.4177
    11.4361  11.5245  11.6061  11.6689  11.6797  11.7007  11.7018  11.7972
    11.8881  11.9018  11.9316  11.9324  11.9914  12.0061  12.0976  12.1370
    12.1405  12.1725  12.2896  12.4108  12.4357  12.4514  12.5593  12.5627
    12.7247  12.7283  12.8067  12.8350  12.8600  12.8796  13.1549  13.5529
    14.1648  14.8184  15.5319  15.9434  16.5764  16.6863  16.7469  16.9176
    16.9279  16.9732  16.9772  16.9970  17.0286  17.0370  17.0505  17.0563
    17.0762  17.0816  17.1232  17.2646  17.5308  17.6193  17.8042  17.8321
    18.7520  18.8682  19.0498  19.2556  19.4163  19.5759  20.4588  20.5245
    20.7714  20.8805

          k = 0.0000 0.2500 0.0000 ( 13848 PWs)   bands (ev):

   -66.7967 -66.7948 -66.7377 -66.7370 -62.1886 -62.1868 -62.1339 -62.1336
   -35.5618 -35.5598 -35.5205 -35.5188 -35.5142 -35.5125 -35.5079 -35.5074
   -35.4604 -35.4596 -35.4541 -35.4533 -31.0154 -31.0137 -31.0091 -31.0075
   -31.0071 -31.0058 -30.9603 -30.9601 -30.9586 -30.9583 -30.9524 -30.9522
     6.7100   6.8365   6.8608   7.2127   7.2441   7.7173   7.7239   8.1004
     8.2974   8.5318   8.5423   8.7265   8.7575   8.7710   8.8328   8.8608
     8.8851   8.9249   8.9391   8.9474   9.1015   9.1061   9.2430   9.2871
     9.4926   9.4928   9.5406   9.5578   9.5909   9.6328   9.6402   9.6415
     9.6664   9.6755   9.6835   9.7956   9.8132   9.8567   9.8743  10.0058
    10.0208  10.0513  10.1391  10.1683  10.1722  10.2972  10.3208  10.4188
    10.4517  10.5897  10.6014  10.6586  10.6616  10.6963  10.7147  10.7211
    10.8654  10.8766  10.8850  10.8954  10.9230  10.9850  11.0098  11.0709
    11.0722  11.1258  11.1761  11.1980  11.2320  11.2435  11.2866  11.2884
    11.3637  11.4338  11.4611  11.4791  11.4856  11.4884  11.5419  11.6212
    11.6445  11.6618  11.7071  11.7213  11.7553  11.7907  11.8351  11.8828
    11.8878  11.8893  11.9422  11.9560  12.0133  12.0472  12.0656  12.0828
    12.1156  12.1972  12.2033  12.3566  12.5089  12.5362  12.5693  12.7128
    12.7280  12.7296  12.7332  12.9057  12.9136  12.9250  12.9430  13.9296
    14.0688  15.2906  15.3660  15.9728  15.9784  16.0054  16.1767  16.2908
    16.3735  16.5371  16.6816  16.8183  16.9153  16.9164  17.0364  17.0424
    17.0626  17.2827  17.2900  17.2915  17.3287  17.3317  17.3946  17.4321
    17.6236  17.7604  17.9534  18.0993  18.5446  18.6048  18.6798  18.8530
    19.5690  20.5597

          k = 0.0000 0.2500 0.0242 ( 13862 PWs)   bands (ev):

   -66.7967 -66.7948 -66.7377 -66.7370 -62.1886 -62.1868 -62.1339 -62.1336
   -35.5618 -35.5598 -35.5205 -35.5188 -35.5142 -35.5125 -35.5079 -35.5074
   -35.4604 -35.4596 -35.4541 -35.4533 -31.0154 -31.0137 -31.0091 -31.0075
   -31.0071 -31.0058 -30.9603 -30.9601 -30.9586 -30.9583 -30.9524 -30.9522
     6.7162   6.7955   6.9143   7.1253   7.3438   7.5956   7.8419   8.0549
     8.3329   8.4735   8.5964   8.6985   8.7617   8.7844   8.8302   8.8620
     8.8846   8.9162   8.9309   8.9683   9.0844   9.1232   9.2368   9.2798
     9.4928   9.5154   9.5399   9.5595   9.5890   9.6318   9.6378   9.6439
     9.6648   9.6763   9.6828   9.7820   9.7957   9.8132   9.9616  10.0047
    10.0231  10.0498  10.1377  10.1402  10.1679  10.2817  10.3479  10.4328
    10.4389  10.5777  10.6068  10.6442  10.6777  10.7004  10.7173  10.7354
    10.8361  10.8756  10.8846  10.8950  10.9156  10.9937  11.0132  11.0723
    11.1047  11.1124  11.1591  11.2047  11.2280  11.2285  11.2940  11.3124
    11.3577  11.4356  11.4613  11.4669  11.4817  11.5043  11.5417  11.6027
    11.6172  11.6529  11.7137  11.7630  11.7711  11.7917  11.8399  11.8717
    11.8841  11.9087  11.9337  11.9553  11.9852  12.0055  12.0697  12.1209
    12.1240  12.1947  12.2191  12.3346  12.5186  12.5361  12.5900  12.7042
    12.7283  12.7310  12.7376  12.7656  12.9057  12.9429  13.1016  13.7277
    14.2757  15.0760  15.5611  15.9161  16.0116  16.0203  16.1483  16.2797
    16.3735  16.5578  16.6743  16.8183  16.9152  16.9164  17.0364  17.0419
    17.0630  17.2775  17.2900  17.2915  17.3317  17.3345  17.3946  17.4397
    17.5905  17.7935  17.9611  18.1814  18.3437  18.5045  18.8280  18.9455
    19.6065  20.1680

          k = 0.0000 0.2500-0.0484 ( 13842 PWs)   bands (ev):

   -66.7967 -66.7948 -66.7377 -66.7370 -62.1886 -62.1868 -62.1339 -62.1336
   -35.5618 -35.5598 -35.5205 -35.5188 -35.5142 -35.5125 -35.5079 -35.5074
   -35.4604 -35.4596 -35.4541 -35.4533 -31.0154 -31.0137 -31.0091 -31.0075
   -31.0071 -31.0058 -30.9603 -30.9601 -30.9586 -30.9583 -30.9524 -30.9522
     6.7257   6.7708   6.9603   7.0667   7.4454   7.4901   7.9380   7.9766
     8.3844   8.4206   8.6473   8.6540   8.7637   8.7941   8.8272   8.8634
     8.8841   8.9097   8.9296   8.9805   9.0762   9.1314   9.2297   9.2743
     9.4928   9.5393   9.5423   9.5613   9.5870   9.6269   9.6359   9.6466
     9.6629   9.6785   9.6808   9.7444   9.7958   9.8132  10.0037  10.0254
    10.0419  10.0483  10.0728  10.1412  10.1675  10.2734  10.3832  10.3993
    10.4602  10.5651  10.6062  10.6383  10.6925  10.7010  10.7310  10.7434
    10.8065  10.8761  10.8806  10.8989  10.9047  10.9846  11.0444  11.0810
    11.0920  11.1139  11.1807  11.1845  11.2162  11.2188  11.3218  11.3246
    11.3438  11.4396  11.4583  11.4616  11.4779  11.5223  11.5438  11.5574
    11.6136  11.6592  11.7106  11.7706  11.7903  11.8183  11.8490  11.8597
    11.8917  11.9075  11.9352  11.9452  11.9545  11.9852  12.0699  12.1285
    12.1538  12.1774  12.2529  12.3018  12.5276  12.5358  12.6449  12.6648
    12.6977  12.7279  12.7317  12.7413  12.9058  12.9429  13.2229  13.5815
    14.4240  14.9312  15.6838  15.8612  16.0328  16.0344  16.1091  16.2709
    16.3740  16.5788  16.6646  16.8183  16.9152  16.9165  17.0364  17.0413
    17.0633  17.2733  17.2900  17.2915  17.3317  17.3395  17.3946  17.4476
    17.5684  17.7924  18.0835  18.1402  18.3134  18.3577  18.9320  18.9828
    19.7365  19.8932

          k = 0.0000 0.3750 0.0000 ( 13856 PWs)   bands (ev):

   -66.7973 -66.7954 -66.7383 -66.7376 -62.1876 -62.1858 -62.1329 -62.1326
   -35.5614 -35.5594 -35.5246 -35.5229 -35.5140 -35.5123 -35.5075 -35.5069
   -35.4645 -35.4637 -35.4539 -35.4531 -31.0208 -31.0191 -31.0085 -31.0071
   -31.0066 -31.0055 -30.9657 -30.9655 -30.9580 -30.9577 -30.9521 -30.9518
     7.6690   7.7613   7.7886   7.9930   7.9965   8.1573   8.1591   8.2269
     8.2460   8.3293   8.3563   8.4722   8.5414   8.6862   8.7293   8.9494
     8.9647   9.0582   9.1733   9.1950   9.2148   9.2336   9.2578   9.2661
     9.3144   9.3445   9.3518   9.3533   9.3692   9.5409   9.5445   9.6148
     9.6186   9.6371   9.7163   9.7262   9.8130   9.8326   9.9485   9.9505
    10.0407  10.0498  10.1008  10.1391  10.1597  10.2187  10.2231  10.3988
    10.5140  10.5543  10.5854  10.7020  10.7131  10.7910  10.7917  10.8853
    10.9048  10.9167  11.0496  11.1189  11.2258  11.2311  11.2645  11.3213
    11.3342  11.3481  11.3778  11.4994  11.5017  11.5146  11.5277  11.5508
    11.5600  11.6071  11.6975  11.7164  11.7426  11.7587  11.7742  11.7992
    11.8267  11.8361  11.8423  11.8784  11.9770  12.0185  12.0277  12.0570
    12.0689  12.0773  12.1173  12.1182  12.1645  12.1804  12.2696  12.2951
    12.3282  12.3988  12.4017  12.4563  12.4659  12.6038  12.6619  12.7924
    12.8088  12.8121  12.8154  12.9663  12.9808  12.9852  12.9948  13.9471
    13.9581  13.9748  14.2621  14.2665  14.7296  14.7710  15.1221  15.1382
    15.4387  15.4992  15.8294  15.8379  16.7818  16.8235  16.8434  16.8445
    16.8456  16.8748  16.9662  16.9942  17.0714  17.1235  17.1716  17.3307
    17.4916  17.4931  17.5385  17.5597  17.9227  17.9975  18.0218  18.2047
    19.7147  19.8099

          k = 0.0000 0.3750 0.0242 ( 13870 PWs)   bands (ev):

   -66.7973 -66.7954 -66.7383 -66.7376 -62.1876 -62.1858 -62.1329 -62.1326
   -35.5614 -35.5594 -35.5246 -35.5229 -35.5140 -35.5123 -35.5075 -35.5069
   -35.4645 -35.4637 -35.4539 -35.4531 -31.0208 -31.0191 -31.0085 -31.0071
   -31.0066 -31.0055 -30.9657 -30.9655 -30.9580 -30.9577 -30.9521 -30.9518
     7.6734   7.7355   7.8231   7.9416   8.0440   8.1309   8.1800   8.2167
     8.2562   8.3153   8.3764   8.4484   8.5675   8.6601   8.7454   8.9365
     8.9755   9.0688   9.1354   9.1903   9.2454   9.2493   9.2578   9.2660
     9.3116   9.3448   9.3517   9.3540   9.3683   9.5262   9.5449   9.5681
     9.6148   9.6722   9.7109   9.7690   9.8070   9.8392   9.9527   9.9547
    10.0243  10.0649  10.1008  10.1016  10.1368  10.1605  10.3371  10.4041
    10.5002  10.5544  10.5830  10.7005  10.7104  10.7440  10.8016  10.8920
    10.9075  10.9180  11.0913  11.1373  11.2185  11.2339  11.2455  11.2911
    11.3306  11.3532  11.4163  11.4747  11.5021  11.5074  11.5332  11.5450
    11.5733  11.6066  11.6569  11.7150  11.7318  11.7337  11.7822  11.8032
    11.8246  11.8617  11.8705  11.8987  11.9675  12.0072  12.0208  12.0312
    12.0453  12.0748  12.1079  12.1673  12.1772  12.2472  12.2747  12.2802
    12.3472  12.3735  12.4273  12.4554  12.4616  12.6026  12.6629  12.7188
    12.7916  12.8086  12.8125  12.8157  12.9852  12.9948  13.2330  13.7354
    13.9734  14.1311  14.1800  14.4255  14.5755  14.8024  15.0250  15.3131
    15.3562  15.5849  15.7790  15.8269  16.7818  16.8087  16.8229  16.8445
    16.8456  16.9171  16.9662  16.9902  17.0743  17.1139  17.1870  17.3229
    17.4916  17.4931  17.5385  17.5597  17.9289  17.9741  18.0417  18.2035
    19.7149  19.8422

          k = 0.0000 0.3750-0.0484 ( 13872 PWs)   bands (ev):

   -66.7973 -66.7954 -66.7383 -66.7376 -62.1876 -62.1858 -62.1329 -62.1326
   -35.5614 -35.5594 -35.5246 -35.5229 -35.5140 -35.5123 -35.5075 -35.5069
   -35.4645 -35.4637 -35.4539 -35.4531 -31.0208 -31.0191 -31.0085 -31.0071
   -31.0066 -31.0055 -30.9657 -30.9655 -30.9580 -30.9577 -30.9521 -30.9518
     7.6797   7.7185   7.8581   7.9034   8.0752   8.1075   8.1938   8.2050
     8.2652   8.3044   8.4082   8.4130   8.6031   8.6252   8.7561   8.9280
     8.9819   9.0940   9.0982   9.1821   9.2578   9.2587   9.2660   9.2719
     9.3096   9.3450   9.3516   9.3547   9.3672   9.4983   9.5453   9.5580
     9.6147   9.6791   9.7097   9.8028   9.8108   9.8440   9.9554   9.9769
    10.0146  10.0237  10.0731  10.1008  10.1342  10.1611  10.3855  10.4492
    10.4569  10.5545  10.5752  10.6969  10.7080  10.7139  10.8138  10.8772
    10.9139  10.9218  11.1635  11.1688  11.1805  11.2188  11.2387  11.2553
    11.3295  11.3831  11.4338  11.4562  11.4714  11.5122  11.5424  11.5441
    11.5756  11.6140  11.6262  11.7098  11.7134  11.7405  11.7756  11.8108
    11.8154  11.8836  11.8977  11.9089  11.9802  11.9864  11.9941  12.0235
    12.0370  12.0753  12.1043  12.1698  12.2113  12.2385  12.2806  12.3358
    12.3603  12.4210  12.4482  12.4488  12.4836  12.5072  12.6015  12.6639
    12.7909  12.8085  12.8128  12.8160  12.9852  12.9948  13.4576  13.5228
    14.0248  14.0432  14.3722  14.3930  14.5761  14.6626  15.1249  15.1937
    15.5307  15.5555  15.7642  15.7826  16.7818  16.7915  16.8223  16.8445
    16.8456  16.9446  16.9662  16.9833  17.0784  17.1052  17.2020  17.3136
    17.4916  17.4931  17.5385  17.5597  17.9447  17.9492  18.0536  18.2022
    19.7215  19.8634

          k = 0.0000-0.5000 0.0000 ( 13918 PWs)   bands (ev):

   -66.7977 -66.7959 -66.7387 -66.7380 -62.1870 -62.1852 -62.1323 -62.1321
   -35.5612 -35.5592 -35.5262 -35.5245 -35.5139 -35.5122 -35.5073 -35.5068
   -35.4661 -35.4653 -35.4538 -35.4530 -31.0230 -31.0214 -31.0083 -31.0070
   -31.0063 -31.0054 -30.9680 -30.9678 -30.9578 -30.9575 -30.9519 -30.9517
     8.1417   8.1419   8.2231   8.2232   8.2359   8.2359   8.3516   8.3521
     8.4236   8.4244   8.5124   8.5128   8.5824   8.5828   8.7029   8.7034
     9.0106   9.0108   9.1644   9.1644   9.2251   9.2258   9.2547   9.2557
     9.2712   9.2725   9.3171   9.3177   9.4876   9.4877   9.6209   9.6211
     9.7067   9.7068   9.7593   9.7599   9.7808   9.7816   9.9604   9.9604
    10.0178  10.0179  10.0391  10.0403  10.0434  10.0436  10.2892  10.2897
    10.3972  10.3976  10.5919  10.5927  10.7177  10.7190  10.7980  10.7984
    11.1205  11.1214  11.2391  11.2403  11.3614  11.3617  11.4752  11.4757
    11.4992  11.5003  11.5307  11.5310  11.5732  11.5734  11.6032  11.6033
    11.6251  11.6255  11.6791  11.6793  11.7646  11.7648  11.8130  11.8142
    11.9074  11.9081  12.0237  12.0240  12.2514  12.2517  12.3431  12.3439
    12.4116  12.4127  12.4314  12.4317  12.4802  12.4807  12.5761  12.5771
    12.6078  12.6079  12.6905  12.6907  12.7842  12.7844  12.8263  12.8277
    12.8434  12.8444  12.9730  12.9731  13.0172  13.0173  13.1541  13.1546
    13.3076  13.3080  13.7435  13.7440  13.8382  13.8383  14.4144  14.4146
    14.4632  14.4637  14.8566  14.8570  16.5908  16.5915  16.7872  16.7879
    16.8256  16.8267  16.8563  16.8573  16.8972  16.8988  17.0270  17.0270
    17.5654  17.5670  17.6226  17.6231  17.9547  17.9562  18.0346  18.0351
    19.7678  19.7679

          k = 0.0000-0.5000 0.0242 ( 13918 PWs)   bands (ev):

   -66.7977 -66.7959 -66.7387 -66.7380 -62.1870 -62.1852 -62.1323 -62.1321
   -35.5612 -35.5592 -35.5262 -35.5245 -35.5139 -35.5122 -35.5073 -35.5068
   -35.4661 -35.4653 -35.4538 -35.4530 -31.0230 -31.0214 -31.0083 -31.0070
   -31.0063 -31.0054 -30.9680 -30.9678 -30.9578 -30.9575 -30.9519 -30.9517
     8.1419   8.1421   8.2181   8.2183   8.2421   8.2421   8.3480   8.3485
     8.4269   8.4277   8.5109   8.5113   8.5829   8.5833   8.7027   8.7032
     9.0121   9.0123   9.1644   9.1644   9.2093   9.2099   9.2547   9.2557
     9.2712   9.2725   9.3452   9.3456   9.4876   9.4877   9.5791   9.5791
     9.7336   9.7340   9.7593   9.7599   9.7841   9.7848   9.9604   9.9604
    10.0281  10.0283  10.0392  10.0404  10.0433  10.0436  10.2550  10.2552
    10.4211  10.4213  10.5919  10.5927  10.7177  10.7190  10.7949  10.7954
    11.1205  11.1214  11.2417  11.2429  11.3672  11.3675  11.4752  11.4757
    11.4998  11.5009  11.5326  11.5329  11.5706  11.5708  11.5941  11.5942
    11.6240  11.6244  11.6722  11.6725  11.7708  11.7710  11.8101  11.8114
    11.9075  11.9081  12.0348  12.0351  12.2513  12.2517  12.3364  12.3371
    12.4120  12.4131  12.4310  12.4314  12.4836  12.4841  12.5685  12.5694
    12.6163  12.6165  12.6905  12.6907  12.7772  12.7773  12.8263  12.8277
    12.8434  12.8445  12.9892  12.9893  13.0172  13.0173  13.1296  13.1301
    13.3291  13.3294  13.6923  13.6926  13.9066  13.9068  14.2946  14.2947
    14.5880  14.5883  14.8256  14.8260  16.5939  16.5946  16.7849  16.7856
    16.8256  16.8267  16.8563  16.8573  16.8973  16.8989  17.0271  17.0271
    17.5654  17.5670  17.6226  17.6231  17.9547  17.9562  18.0345  18.0351
    19.7849  19.7850

          k = 0.0000-0.5000-0.0484 ( 13892 PWs)   bands (ev):

   -66.7977 -66.7959 -66.7387 -66.7380 -62.1870 -62.1852 -62.1323 -62.1321
   -35.5612 -35.5592 -35.5262 -35.5245 -35.5139 -35.5122 -35.5073 -35.5068
   -35.4661 -35.4653 -35.4538 -35.4530 -31.0230 -31.0214 -31.0083 -31.0070
   -31.0063 -31.0054 -30.9680 -30.9678 -30.9578 -30.9575 -30.9519 -30.9517
     8.1421   8.1423   8.2149   8.2151   8.2466   8.2467   8.3444   8.3449
     8.4301   8.4310   8.5093   8.5098   8.5834   8.5838   8.7026   8.7030
     9.0136   9.0138   9.1644   9.1644   9.1975   9.1979   9.2547   9.2557
     9.2712   9.2725   9.3733   9.3736   9.4876   9.4877   9.5432   9.5432
     9.7483   9.7489   9.7593   9.7599   9.7893   9.7898   9.9604   9.9604
    10.0393  10.0405  10.0412  10.0416  10.0432  10.0435  10.2248  10.2248
    10.4386  10.4387  10.5919  10.5927  10.7177  10.7190  10.7918  10.7922
    11.1205  11.1214  11.2442  11.2454  11.3738  11.3740  11.4752  11.4757
    11.5009  11.5018  11.5347  11.5350  11.5733  11.5738  11.5753  11.5756
    11.6257  11.6260  11.6669  11.6673  11.7763  11.7765  11.8070  11.8083
    11.9075  11.9081  12.0459  12.0462  12.2513  12.2517  12.3295  12.3302
    12.4123  12.4135  12.4306  12.4310  12.4871  12.4876  12.5625  12.5634
    12.6231  12.6234  12.6905  12.6908  12.7703  12.7705  12.8262  12.8276
    12.8435  12.8445  13.0094  13.0098  13.0172  13.0173  13.1031  13.1038
    13.3488  13.3491  13.6588  13.6590  13.9664  13.9666  14.2190  14.2191
    14.6861  14.6862  14.7667  14.7672  16.5970  16.5977  16.7825  16.7832
    16.8256  16.8267  16.8563  16.8572  16.8973  16.8989  17.0272  17.0272
    17.5654  17.5670  17.6226  17.6231  17.9547  17.9562  18.0345  18.0351
    19.8059  19.8060

          k = 0.1250 0.1250 0.0000 ( 13839 PWs)   bands (ev):

   -66.7966 -66.7947 -66.7375 -66.7368 -62.1890 -62.1872 -62.1343 -62.1341
   -35.5620 -35.5601 -35.5163 -35.5162 -35.5145 -35.5145 -35.5081 -35.5076
   -35.4561 -35.4561 -35.4553 -35.4553 -31.0100 -31.0098 -31.0094 -31.0084
   -31.0082 -31.0075 -30.9589 -30.9586 -30.9550 -30.9548 -30.9547 -30.9545
     6.2539   6.3919   6.4157   6.8158   6.8514   7.4382   7.4463   7.9417
     8.4096   8.6063   8.6915   8.7259   8.7392   8.7599   8.7611   8.7849
[...]
    11.5186  11.5196  11.6229  11.6233  11.6851  11.6863  11.6935  11.6942
    11.8608  11.8619  11.8954  11.8959  11.9982  11.9989  12.0203  12.0210
    12.1041  12.1051  12.1911  12.1913  12.2840  12.2847  12.4216  12.4217
    12.4545  12.4545  12.4806  12.4812  12.8638  12.8643  13.0019  13.0020
    13.2599  13.2603  13.4471  13.4473  13.8492  13.8495  14.1593  14.1594
    14.5339  14.5339  14.6217  14.6226  15.1172  15.1173  15.5049  15.5052
    16.1362  16.1373  16.4107  16.4110  16.9951  16.9955  17.0774  17.0790
    17.1173  17.1178  17.3038  17.3043  17.6052  17.6055  17.8155  17.8161
    17.9388  17.9390  18.0942  18.0953  18.2282  18.2290  18.3992  18.3998
    19.7621  19.7622

          k = 0.3750 0.3750 0.0000 ( 13948 PWs)   bands (ev):

   -66.7956 -66.7938 -66.7368 -66.7361 -62.1881 -62.1863 -62.1333 -62.1328
   -35.5607 -35.5589 -35.5237 -35.5237 -35.5220 -35.5220 -35.5069 -35.5066
   -35.4638 -35.4637 -35.4630 -35.4630 -31.0196 -31.0194 -31.0181 -31.0179
   -31.0078 -31.0059 -30.9645 -30.9643 -30.9640 -30.9638 -30.9572 -30.9566
     8.0554   8.2031   8.2173   8.4008   8.4974   8.5244   8.6341   8.6498
     8.9613   8.9884   9.0202   9.0619   9.0666   9.0939   9.1807   9.2166
     9.2379   9.3128   9.3288   9.3311   9.3445   9.3522   9.3736   9.4659
     9.4758   9.4963   9.5301   9.5465   9.6483   9.6736   9.6834   9.8054
     9.9366   9.9576   9.9622  10.0028  10.0316  10.0390  10.0549  10.0919
    10.1240  10.1384  10.1466  10.1705  10.2140  10.2745  10.2816  10.2879
    10.3103  10.4334  10.5032  10.5493  10.5756  10.6488  10.6682  10.6771
    10.7877  10.8081  10.8859  10.8870  11.0156  11.0409  11.0501  11.1001
    11.1583  11.2326  11.2406  11.2834  11.2874  11.4454  11.4628  11.4913
    11.5088  11.5563  11.5692  11.6175  11.6359  11.6370  11.6424  11.6988
    11.7899  11.9670  11.9810  11.9933  11.9972  12.0093  12.0138  12.0226
    12.0309  12.0534  12.1381  12.1512  12.1530  12.2496  12.2775  12.3615
    12.4066  12.4148  12.4260  12.5390  12.6688  12.7505  12.7618  13.1741
    13.1899  13.5713  13.6097  14.0766  14.2495  14.7362  14.8033  15.0503
    15.1079  15.2023  15.2193  15.3750  15.8659  16.1519  16.3552  16.3604
    16.4474  16.5065  17.0373  17.0981  17.1030  17.1375  17.1392  17.2636
    17.3087  17.4795  17.7069  17.8451  17.8756  17.8769  17.9040  17.9352
    18.0076  18.0266  18.1635  18.1828  18.2131  18.5158  18.5456  18.7485
    18.7502  18.8866

          k = 0.3750 0.3750 0.0242 ( 13940 PWs)   bands (ev):

   -66.7956 -66.7938 -66.7368 -66.7361 -62.1881 -62.1863 -62.1333 -62.1328
   -35.5607 -35.5589 -35.5237 -35.5237 -35.5220 -35.5220 -35.5069 -35.5066
   -35.4638 -35.4637 -35.4630 -35.4630 -31.0196 -31.0194 -31.0181 -31.0179
   -31.0078 -31.0059 -30.9645 -30.9643 -30.9640 -30.9638 -30.9572 -30.9566
     8.0570   8.1799   8.2440   8.4014   8.4959   8.5217   8.5857   8.7110
     8.9271   9.0061   9.0249   9.0507   9.0795   9.1005   9.1633   9.1951
     9.2642   9.2837   9.3303   9.3463   9.3486   9.3793   9.3826   9.4461
     9.4626   9.5068   9.5234   9.5611   9.6213   9.6454   9.7411   9.8249
     9.8819   9.9529   9.9777   9.9922  10.0028  10.0472  10.0634  10.1233
    10.1240  10.1532  10.1709  10.1857  10.2025  10.2135  10.2704  10.3185
    10.3421  10.4184  10.4403  10.5662  10.5994  10.6450  10.6720  10.6933
    10.7932  10.8127  10.8854  10.8874  10.9835  11.0156  11.0687  11.0998
    11.1664  11.2171  11.2587  11.2776  11.3191  11.4381  11.4652  11.4852
    11.5134  11.5574  11.5679  11.6111  11.6192  11.6323  11.6394  11.6988
    11.8247  11.9566  11.9684  11.9782  11.9973  12.0094  12.0117  12.0282
    12.0544  12.0591  12.1164  12.1438  12.1758  12.2532  12.2748  12.3606
    12.3776  12.4263  12.4406  12.5548  12.6676  12.6725  12.8482  13.0798
    13.2826  13.5056  13.6586  14.0617  14.2638  14.7073  14.8337  15.0440
    15.1164  15.1742  15.2402  15.3737  15.8660  16.1548  16.3349  16.3829
    16.4280  16.5256  17.0328  17.0896  17.1052  17.1375  17.1393  17.2403
    17.3364  17.4879  17.6951  17.8362  17.8756  17.8765  17.8769  17.9733
    18.0249  18.0648  18.0924  18.2492  18.2510  18.4193  18.5314  18.6391
    18.6899  19.0015

          k = 0.3750 0.3750-0.0484 ( 13950 PWs)   bands (ev):

   -66.7956 -66.7938 -66.7368 -66.7361 -62.1881 -62.1863 -62.1333 -62.1328
   -35.5607 -35.5589 -35.5237 -35.5237 -35.5220 -35.5220 -35.5069 -35.5066
   -35.4638 -35.4637 -35.4630 -35.4630 -31.0196 -31.0194 -31.0181 -31.0179
   -31.0078 -31.0059 -30.9645 -30.9643 -30.9640 -30.9638 -30.9572 -30.9566
     8.0587   8.1681   8.2595   8.4020   8.4984   8.5107   8.5690   8.7486
     8.8994   9.0108   9.0347   9.0424   9.0930   9.0945   9.1644   9.1785
     9.2669   9.2694   9.3329   9.3407   9.3825   9.3922   9.4030   9.4312
     9.4379   9.4850   9.5597   9.5781   9.5793   9.6337   9.7964   9.8238
     9.8645   9.9170   9.9528   9.9974  10.0028  10.0463  10.1222  10.1235
    10.1368  10.1499  10.1550  10.1676  10.2038  10.2412  10.2561  10.3385
    10.3574  10.3664  10.4273  10.5566  10.6219  10.6445  10.6754  10.7033
    10.8139  10.8162  10.8851  10.8877  10.9350  11.0156  11.0722  11.0998
    11.1717  11.2116  11.2655  11.2740  11.3584  11.4222  11.4692  11.4786
    11.5169  11.5612  11.5666  11.5815  11.6214  11.6295  11.6404  11.6988
    11.8680  11.9165  11.9713  11.9741  11.9974  12.0096  12.0105  12.0329
    12.0561  12.0794  12.1035  12.1339  12.1894  12.2580  12.2709  12.3597
    12.3621  12.4265  12.4524  12.5885  12.6163  12.6663  12.9139  13.0109
    13.3479  13.4464  13.6844  14.0477  14.2769  14.6873  14.8558  15.0370
    15.1359  15.1451  15.2510  15.3723  15.8660  16.1579  16.3260  16.3940
    16.4139  16.5394  17.0285  17.0813  17.1075  17.1374  17.1394  17.2261
    17.3554  17.4959  17.6828  17.8293  17.8665  17.8756  17.8769  18.0140
    18.0233  18.0364  18.1610  18.2157  18.3539  18.3671  18.4203  18.5638
    18.6868  19.0162

          k = 0.3750-0.5000 0.0000 ( 13934 PWs)   bands (ev):

   -66.7957 -66.7939 -66.7368 -66.7362 -62.1879 -62.1861 -62.1331 -62.1325
   -35.5606 -35.5588 -35.5253 -35.5236 -35.5235 -35.5218 -35.5068 -35.5065
   -35.4654 -35.4646 -35.4636 -35.4628 -31.0217 -31.0202 -31.0193 -31.0178
   -31.0077 -31.0057 -30.9666 -30.9661 -30.9642 -30.9637 -30.9571 -30.9565
     8.1836   8.1838   8.3132   8.3144   8.3452   8.3457   8.6473   8.6473
     8.8940   8.8941   9.1319   9.1328   9.1576   9.1577   9.2039   9.2048
     9.2360   9.2363   9.2419   9.2423   9.3248   9.3253   9.3890   9.3894
     9.4479   9.4483   9.5961   9.5964   9.6273   9.6275   9.8686   9.8687
     9.8959   9.8960   9.9773   9.9774  10.0196  10.0199  10.0829  10.0830
    10.1332  10.1337  10.2214  10.2224  10.3066  10.3070  10.4019  10.4020
    10.4154  10.4157  10.6181  10.6185  10.7783  10.7788  10.8008  10.8010
    10.9436  10.9439  11.0911  11.0912  11.1597  11.1605  11.2131  11.2142
    11.2789  11.2793  11.3746  11.3748  11.4404  11.4411  11.5282  11.5283
    11.5563  11.5565  11.6834  11.6838  11.7761  11.7768  11.8346  11.8355
    11.9399  11.9408  11.9861  11.9868  12.0643  12.0646  12.1098  12.1107
    12.1441  12.1450  12.2192  12.2203  12.2412  12.2415  12.3406  12.3407
    12.3915  12.3918  12.5140  12.5145  13.0245  13.0249  13.2556  13.2560
    13.6683  13.6690  13.9174  13.9178  14.2486  14.2493  14.5659  14.5661
    14.9001  14.9002  15.4115  15.4127  15.7168  15.7175  16.0333  16.0333
    16.8134  16.8145  17.0455  17.0464  17.0623  17.0632  17.1409  17.1413
    17.3503  17.3504  17.7237  17.7241  17.9286  17.9290  18.0542  18.0554
    18.0952  18.0959  18.3458  18.3462  18.5043  18.5047  18.7496  18.7499
    18.9478  18.9480

          k = 0.3750-0.5000 0.0242 ( 13948 PWs)   bands (ev):

   -66.7957 -66.7939 -66.7368 -66.7362 -62.1879 -62.1861 -62.1331 -62.1325
   -35.5606 -35.5588 -35.5253 -35.5236 -35.5235 -35.5218 -35.5068 -35.5065
   -35.4654 -35.4646 -35.4636 -35.4628 -31.0217 -31.0202 -31.0193 -31.0178
   -31.0077 -31.0057 -30.9666 -30.9661 -30.9642 -30.9637 -30.9571 -30.9565
     8.1844   8.1847   8.3026   8.3035   8.3579   8.3580   8.6395   8.6395
     8.9090   8.9091   9.1116   9.1122   9.1536   9.1540   9.2003   9.2010
     9.2369   9.2372   9.2618   9.2618   9.3270   9.3275   9.3822   9.3826
     9.4582   9.4587   9.5601   9.5601   9.6732   9.6732   9.8099   9.8100
     9.9403   9.9405   9.9803   9.9804  10.0182  10.0186  10.0803  10.0804
    10.1443  10.1448  10.2252  10.2260  10.2757  10.2760  10.3604  10.3606
    10.4866  10.4867  10.6180  10.6184  10.7635  10.7637  10.7799  10.7805
    10.9650  10.9653  11.0922  11.0923  11.1689  11.1696  11.2117  11.2127
    11.2625  11.2629  11.3867  11.3870  11.4372  11.4377  11.5079  11.5082
    11.5770  11.5771  11.6795  11.6799  11.7765  11.7771  11.8346  11.8356
    11.9408  11.9417  11.9855  11.9862  12.0652  12.0655  12.1051  12.1059
    12.1457  12.1466  12.2145  12.2155  12.2471  12.2472  12.3515  12.3516
    12.3887  12.3890  12.5044  12.5050  13.0327  13.0332  13.2474  13.2478
    13.6743  13.6750  13.9121  13.9124  14.2521  14.2529  14.5629  14.5631
    14.9021  14.9022  15.4106  15.4118  15.7170  15.7177  16.0332  16.0333
    16.8168  16.8179  17.0434  17.0443  17.0618  17.0628  17.1284  17.1288
    17.3730  17.3731  17.6986  17.6990  17.9527  17.9532  18.0554  18.0564
    18.0893  18.0900  18.3135  18.3139  18.5488  18.5491  18.7460  18.7463
    18.9284  18.9286

          k = 0.3750-0.5000-0.0484 ( 13940 PWs)   bands (ev):

   -66.7957 -66.7939 -66.7368 -66.7362 -62.1879 -62.1861 -62.1331 -62.1325
   -35.5606 -35.5588 -35.5253 -35.5236 -35.5235 -35.5218 -35.5068 -35.5065
   -35.4654 -35.4646 -35.4636 -35.4628 -31.0217 -31.0202 -31.0193 -31.0178
   -31.0077 -31.0057 -30.9666 -30.9661 -30.9642 -30.9637 -30.9571 -30.9565
     8.1854   8.1856   8.2953   8.2961   8.3671   8.3671   8.6320   8.6320
     8.9257   8.9259   9.0896   9.0903   9.1525   9.1530   9.1982   9.1989
     9.2404   9.2408   9.2709   9.2710   9.3377   9.3381   9.3691   9.3697
     9.4736   9.4741   9.5344   9.5345   9.7350   9.7351   9.7429   9.7430
     9.9596   9.9598   9.9861   9.9864  10.0161  10.0168  10.0775  10.0778
    10.1698  10.1703  10.2089  10.2092  10.2526  10.2534  10.3488  10.3491
    10.5317  10.5318  10.6171  10.6175  10.7287  10.7289  10.7791  10.7797
    10.9812  10.9814  11.0933  11.0935  11.1859  11.1864  11.2055  11.2062
    11.2446  11.2451  11.4005  11.4011  11.4310  11.4312  11.4951  11.4956
    11.5907  11.5907  11.6750  11.6753  11.7768  11.7774  11.8346  11.8356
    11.9418  11.9427  11.9849  11.9856  12.0663  12.0666  12.1006  12.1014
    12.1471  12.1479  12.2112  12.2122  12.2510  12.2512  12.3683  12.3684
    12.3811  12.3813  12.4940  12.4947  13.0414  13.0419  13.2387  13.2392
    13.6805  13.6812  13.9065  13.9068  14.2557  14.2564  14.5599  14.5601
    14.9040  14.9041  15.4097  15.4109  15.7173  15.7180  16.0332  16.0333
    16.8203  16.8214  17.0408  17.0415  17.0612  17.0623  17.1180  17.1184
    17.3958  17.3959  17.6745  17.6748  17.9766  17.9772  18.0586  18.0593
    18.0793  18.0801  18.2885  18.2890  18.5897  18.5900  18.7398  18.7400
    18.9082  18.9085

          k =-0.5000-0.5000 0.0000 ( 13964 PWs)   bands (ev):

   -66.7957 -66.7939 -66.7368 -66.7362 -62.1877 -62.1860 -62.1329 -62.1324
   -35.5605 -35.5587 -35.5251 -35.5251 -35.5234 -35.5234 -35.5067 -35.5064
   -35.4652 -35.4652 -35.4644 -35.4644 -31.0215 -31.0215 -31.0200 -31.0200
   -31.0075 -31.0056 -30.9664 -30.9664 -30.9659 -30.9659 -30.9570 -30.9563
     8.1008   8.1011   8.2317   8.2329   8.2713   8.2718   8.5993   8.5994
     8.8271   8.8271   9.1643   9.1644   9.1820   9.1825   9.2627   9.2627
     9.2937   9.2937   9.3198   9.3198   9.4221   9.4225   9.4385   9.4385
     9.4514   9.4514   9.6895   9.6895   9.6945   9.6945   9.8872   9.8882
     9.9305   9.9305   9.9620   9.9620   9.9633   9.9633  10.0326  10.0338
    10.0402  10.0402  10.0635  10.0635  10.1007  10.1007  10.5485  10.5485
    10.5583  10.5583  10.5589  10.5596  10.6628  10.6632  11.1214  11.1214
    11.1389  11.1390  11.1872  11.1885  11.2407  11.2407  11.2808  11.2821
    11.4208  11.4223  11.4281  11.4282  11.4790  11.4797  11.9227  11.9227
    11.9240  11.9240  11.9583  11.9597  11.9841  11.9854  11.9867  11.9871
    12.0127  12.0131  12.0486  12.0500  12.0768  12.0781  12.0810  12.0813
    12.1083  12.1086  12.1812  12.1825  12.2310  12.2313  12.2952  12.2952
    12.3861  12.3869  12.3954  12.3954  13.4006  13.4014  13.4314  13.4315
    13.8626  13.8626  14.1426  14.1426  14.1570  14.1570  14.6125  14.6125
    15.2318  15.2318  15.9367  15.9367  15.9432  15.9432  16.6210  16.6223
    16.6928  16.6928  16.7177  16.7186  16.8855  16.8864  17.1336  17.1347
    17.4125  17.4125  17.7708  17.7709  17.8768  17.8771  18.0654  18.0668
    18.0869  18.0872  18.1192  18.1201  18.1441  18.1441  18.1446  18.1446
    18.4369  18.4377

          k =-0.5000-0.5000 0.0242 ( 13960 PWs)   bands (ev):

   -66.7957 -66.7939 -66.7368 -66.7362 -62.1877 -62.1860 -62.1329 -62.1324
   -35.5605 -35.5587 -35.5251 -35.5251 -35.5234 -35.5234 -35.5067 -35.5064
   -35.4652 -35.4652 -35.4644 -35.4644 -31.0215 -31.0215 -31.0200 -31.0200
   -31.0075 -31.0056 -30.9664 -30.9664 -30.9659 -30.9659 -30.9570 -30.9563
     8.1016   8.1019   8.2226   8.2235   8.2825   8.2828   8.5896   8.5896
     8.8473   8.8473   9.0920   9.0924   9.2592   9.2594   9.2650   9.2650
     9.2846   9.2846   9.3345   9.3345   9.4015   9.4015   9.4024   9.4029
     9.4958   9.4958   9.6189   9.6189   9.7729   9.7729   9.8905   9.8915
     9.9304   9.9304   9.9554   9.9554   9.9626   9.9626   9.9647   9.9647
    10.0309  10.0321  10.0724  10.0724  10.1815  10.1815  10.4267  10.4267
    10.5590  10.5597  10.6628  10.6631  10.6747  10.6747  11.0433  11.0433
    11.1389  11.1391  11.1870  11.1884  11.2809  11.2822  11.3105  11.3105
    11.4208  11.4223  11.4280  11.4281  11.4790  11.4797  11.8211  11.8211
    11.9583  11.9597  11.9841  11.9854  11.9867  11.9871  12.0127  12.0131
    12.0192  12.0192  12.0486  12.0500  12.0768  12.0781  12.0810  12.0813
    12.1083  12.1086  12.1816  12.1829  12.2302  12.2305  12.2957  12.2957
    12.3846  12.3846  12.3860  12.3868  13.4006  13.4014  13.4314  13.4315
    13.8836  13.8836  14.0607  14.0607  14.2225  14.2225  14.6087  14.6087
    15.2319  15.2319  15.9309  15.9309  15.9495  15.9495  16.6210  16.6223
    16.6881  16.6881  16.7177  16.7186  16.8856  16.8865  17.1334  17.1344
    17.4446  17.4446  17.7835  17.7836  17.8572  17.8575  17.9333  17.9333
    18.0653  18.0668  18.0957  18.0959  18.1192  18.1201  18.4000  18.4000
    18.4352  18.4360

          k =-0.5000-0.5000-0.0484 ( 13992 PWs)   bands (ev):

   -66.7957 -66.7939 -66.7368 -66.7362 -62.1877 -62.1860 -62.1329 -62.1324
   -35.5605 -35.5587 -35.5251 -35.5251 -35.5234 -35.5234 -35.5067 -35.5064
   -35.4652 -35.4652 -35.4644 -35.4644 -31.0215 -31.0215 -31.0200 -31.0200
   -31.0075 -31.0056 -30.9664 -30.9664 -30.9659 -30.9659 -30.9570 -30.9563
     8.1024   8.1028   8.2158   8.2166   8.2913   8.2914   8.5805   8.5805
     8.8704   8.8705   9.0518   9.0523   9.2700   9.2700   9.2755   9.2755
     9.3174   9.3176   9.3562   9.3562   9.3658   9.3666   9.3724   9.3724
     9.5522   9.5522   9.5548   9.5548   9.8570   9.8570   9.8661   9.8661
     9.8938   9.8947   9.9305   9.9305   9.9622   9.9622   9.9635   9.9635
    10.0292  10.0304  10.0728  10.0728  10.2785  10.2785  10.3226  10.3226
    10.5591  10.5598  10.6628  10.6631  10.7424  10.7424  10.9781  10.9781
    11.1390  11.1392  11.1868  11.1882  11.2811  11.2823  11.3601  11.3601
    11.4208  11.4223  11.4280  11.4281  11.4790  11.4797  11.7708  11.7708
    11.9583  11.9597  11.9841  11.9854  11.9867  11.9871  12.0127  12.0131
    12.0486  12.0500  12.0614  12.0614  12.0768  12.0781  12.0810  12.0813
    12.1083  12.1086  12.1820  12.1834  12.2293  12.2297  12.2962  12.2962
    12.3725  12.3725  12.3859  12.3867  13.4006  13.4014  13.4314  13.4315
    13.9180  13.9180  14.0024  14.0024  14.2511  14.2511  14.6047  14.6047
    15.2320  15.2320  15.9277  15.9277  15.9533  15.9533  16.6210  16.6223
    16.6836  16.6836  16.7177  16.7186  16.8857  16.8866  17.1331  17.1342
    17.4852  17.4852  17.8135  17.8141  17.8205  17.8214  17.8342  17.8342
    18.0654  18.0668  18.1038  18.1040  18.1192  18.1201  18.4333  18.4341
    18.6367  18.6367

     the Fermi energy is    15.3022 ev

!    total energy              =  -14693.99934603 Ry
     Harris-Foulkes estimate   =  -14693.99934328 Ry
     estimated scf accuracy    <       0.00000050 Ry

     total all-electron energy =   -626921.595068 Ry

     The total energy is the sum of the following terms:

     one-electron contribution =    -714.32708212 Ry
     hartree contribution      =     656.42461339 Ry
     xc contribution           =    -737.89669674 Ry
     ewald contribution        =   -2196.78933708 Ry
     Hubbard energy            =       0.44337131 Ry
     one-center paw contrib.   =  -11701.85421479 Ry

     total magnetization       =     0.00 Bohr mag/cell
     absolute magnetization    =    37.38 Bohr mag/cell

     convergence has been achieved in  30 iterations

     Writing output data file mnau2.save/
 
     init_run     :     69.75s CPU     71.27s WALL (       1 calls)
     electrons    :   4209.65s CPU   4295.40s WALL (       1 calls)

     Called by init_run:
     wfcinit      :     65.95s CPU     67.28s WALL (       1 calls)
     potinit      :      1.65s CPU      1.70s WALL (       1 calls)
     hinit0       :      1.27s CPU      1.36s WALL (       1 calls)

     Called by electrons:
     c_bands      :   3737.86s CPU   3809.66s WALL (      30 calls)
     sum_band     :    424.12s CPU    437.20s WALL (      30 calls)
     v_of_rho     :      3.46s CPU      3.47s WALL (      31 calls)
     newd         :     12.03s CPU     12.27s WALL (      31 calls)
     PAW_pot      :     32.39s CPU     32.63s WALL (      31 calls)
     mix_rho      :      0.85s CPU      0.88s WALL (      30 calls)

     Called by c_bands:
     init_us_2    :      9.43s CPU      9.52s WALL (    5580 calls)
     cegterg      :   3604.96s CPU   3675.58s WALL (    2700 calls)

     Called by sum_band:
     sum_band:bec :      6.27s CPU      6.31s WALL (    2700 calls)
     addusdens    :     18.50s CPU     18.59s WALL (      30 calls)

     Called by *egterg:
     h_psi        :   1455.70s CPU   1494.83s WALL (    8306 calls)
     s_psi        :    279.89s CPU    280.06s WALL (    8396 calls)
     g_psi        :      2.93s CPU      2.97s WALL (    5516 calls)
     cdiaghg      :   1117.59s CPU   1147.09s WALL (    8216 calls)

     Called by h_psi:
     h_psi:pot    :   1311.69s CPU   1349.97s WALL (    8306 calls)
     h_psi:calbec :    349.46s CPU    363.72s WALL (    8306 calls)
     vloc_psi     :    688.64s CPU    712.44s WALL (    8306 calls)
     add_vuspsi   :    273.39s CPU    273.67s WALL (    8306 calls)
     vhpsi        :    140.92s CPU    141.73s WALL (    8306 calls)

     General routines
     calbec       :    630.60s CPU    652.80s WALL (   22102 calls)
     fft          :      2.44s CPU      2.46s WALL (     771 calls)
     ffts         :      0.10s CPU      0.10s WALL (     122 calls)
     fftw         :    801.99s CPU    829.33s WALL ( 2548458 calls)
     interpolate  :      0.24s CPU      0.24s WALL (      62 calls)
     davcio       :      0.01s CPU      1.88s WALL (      90 calls)
 
     Parallel routines
     fft_scatt_xy :     61.39s CPU     63.37s WALL ( 2549351 calls)
     fft_scatt_yz :    454.10s CPU    469.70s WALL ( 2549351 calls)

     Hubbard U routines
     new_ns       :     24.48s CPU     24.99s WALL (      30 calls)
     vhpsi        :    140.92s CPU    141.73s WALL (    8306 calls)
 
     PWSCF        :     1h11m CPU       11h 1m WALL

      14h
 
   This run was terminated on:  21: 0:44   8Apr2019            

=------------------------------------------------------------------------------=
   JOB DONE.
=------------------------------------------------------------------------------=
