
     Program PWSCF v.6.3MaX starts on  8Apr2019 at 21: 0:47 

     This program is part of the open-source Quantum ESPRESSO suite
     for quantum simulation of materials; please cite
         "P. Giannozzi et al., J. Phys.:Condens. Matter 21 395502 (2009);
         "P. Giannozzi et al., J. Phys.:Condens. Matter 29 465901 (2017);
          URL http://www.quantum-espresso.org", 
     in publications or presentations arising from this work. More details at
     http://www.quantum-espresso.org/quote

     Parallel version (MPI), running on    32 processors

     MPI processes distributed on     1 nodes
     R & G space division:  proc/nbgrp/npool/nimage =      32
     Waiting for input...
     Reading input from standard input

     Current dimensions of program PWSCF are:
     Max number of different atomic species (ntypx) = 10
     Max number of k-points (npk) =  40000
     Max angular momentum in pseudopotentials (lmaxx) =  3
               file Mn.pbe-spn-kjpaw_psl.0.3.1.UPF: wavefunction(s)  3P 3D renormalized
               file Mn.pbe-spn-kjpaw_psl.0.3.1.UPF: wavefunction(s)  3P 3D renormalized
               file Au.pbe-dn-kjpaw_psl.0.1.UPF: wavefunction(s)  6S 6P 5D renormalized

     Subspace diagonalization in iterative solution of the eigenvalue problem:
     one sub-group per band group will be used
     scalapack distributed-memory algorithm (size of sub-group:  4*  4 procs)

     Found symmetry operation: I + (  0.0000  0.0000 -0.5000)
     This is a supercell, fractional translations are disabled
 
     Parallelization info
     --------------------
     sticks:   dense  smooth     PW     G-vecs:    dense   smooth      PW
     Min          41      18      5                11487     3460     563
     Max          42      19      6                11527     3505     606
     Sum        1313     593    177               368373   111379   18691
 


     bravais-lattice index     =            0
     lattice parameter (alat)  =       6.4153  a.u.
     unit-cell volume          =    2724.7774 (a.u.)^3
     number of atoms/cell      =           24
     number of atomic types    =            3
     number of electrons       =       296.00
     number of Kohn-Sham states=          178
     kinetic-energy cutoff     =      45.0000  Ry
     charge density cutoff     =     400.0000  Ry
     convergence threshold     =      1.0E-06
     mixing beta               =       0.1000
     number of iterations used =            8  plain     mixing
     Exchange-correlation      = SLA PW PBX PBC ( 1  4  3  4 0 0)

     celldm(1)=   6.415315  celldm(2)=   0.000000  celldm(3)=   0.000000
     celldm(4)=   0.000000  celldm(5)=   0.000000  celldm(6)=   0.000000

     crystal axes: (cart. coord. in units of alat)
               a(1) = (   1.000000   0.000000   0.000000 )  
               a(2) = (   0.000000   1.000000   0.000000 )  
               a(3) = (   0.000000   0.000000  10.319937 )  

     reciprocal axes: (cart. coord. in units 2 pi/alat)
               b(1) = (  1.000000  0.000000  0.000000 )  
               b(2) = (  0.000000  1.000000  0.000000 )  
               b(3) = (  0.000000  0.000000  0.096900 )  


     PseudoPot. # 1 for Mn read from file:
     ./pseudo/Mn.pbe-spn-kjpaw_psl.0.3.1.UPF
     MD5 check sum: 7b43a3fb0e93e198b8dd8488d8cf503e
     Pseudo is Projector augmented-wave + core cor, Zval = 15.0
     Generated using "atomic" code by A. Dal Corso v.5.0.99 svn rev. 10869
     Shape of augmentation charge: PSQ
     Using radial grid of 1187 points,  6 beta functions with: 
                l(1) =   0
                l(2) =   0
                l(3) =   1
                l(4) =   1
                l(5) =   2
                l(6) =   2
     Q(r) pseudized with 0 coefficients 


     PseudoPot. # 2 for Mn read from file:
     ./pseudo/Mn.pbe-spn-kjpaw_psl.0.3.1.UPF
     MD5 check sum: 7b43a3fb0e93e198b8dd8488d8cf503e
     Pseudo is Projector augmented-wave + core cor, Zval = 15.0
     Generated using "atomic" code by A. Dal Corso v.5.0.99 svn rev. 10869
     Shape of augmentation charge: PSQ
     Using radial grid of 1187 points,  6 beta functions with: 
                l(1) =   0
                l(2) =   0
                l(3) =   1
                l(4) =   1
                l(5) =   2
                l(6) =   2
     Q(r) pseudized with 0 coefficients 


     PseudoPot. # 3 for Au read from file:
     ./pseudo/Au.pbe-dn-kjpaw_psl.0.1.UPF
     MD5 check sum: be11e2e8e535ebe2b3ccfb4f88f554cb
     Pseudo is Projector augmented-wave + core cor, Zval = 11.0
     Generated using "atomic" code by A. Dal Corso v.5.0.2 svn rev. 9415
     Shape of augmentation charge: PSQ
     Using radial grid of 1279 points,  6 beta functions with: 
                l(1) =   0
                l(2) =   0
                l(3) =   1
                l(4) =   1
                l(5) =   2
                l(6) =   2
     Q(r) pseudized with 0 coefficients 


     atomic species   valence    mass     pseudopotential
        Mn1           15.00    54.93800     Mn( 1.00)
        Mn2           15.00    54.93800     Mn( 1.00)
        Au            11.00   196.96600     Au( 1.00)

     Starting magnetic structure 
     atomic species   magnetization
        Mn1          0.800
        Mn2         -0.800
        Au           0.000


     Full LDA+U calculation (l_max = 2) with parameters (eV):
     U(  1) =   3.1200   J(  1) =   0.7000   B(  1) =   0.0803
     U(  2) =   3.1200   J(  2) =   0.7000   B(  2) =   0.0803



      8 Sym. Ops. (no inversion) found



   Cartesian axes

     site n.     atom                  positions (alat units)
         1           Mn1 tau(   1) = (   0.0000000   0.0000000   0.0000000  )
         2           Mn1 tau(   2) = (   0.5000000   0.5000000   1.2899921  )
         3           Mn2 tau(   3) = (   0.0000000   0.0000000   2.5799843  )
         4           Mn2 tau(   4) = (   0.5000000   0.5000000   3.8699764  )
         5           Mn1 tau(   5) = (   0.0000000   0.0000000   5.1599686  )
         6           Mn1 tau(   6) = (   0.5000000   0.5000000   6.4499607  )
         7           Mn2 tau(   7) = (   0.0000000   0.0000000   7.7399528  )
         8           Mn2 tau(   8) = (   0.5000000   0.5000000   9.0299450  )
         9           Au  tau(   9) = (   0.5000000   0.5000000   0.4127975  )
        10           Au  tau(  10) = (   0.0000000   0.0000000   0.8771947  )
        11           Au  tau(  11) = (   0.0000000   0.0000000   1.7027896  )
        12           Au  tau(  12) = (   0.5000000   0.5000000   2.1671868  )
        13           Au  tau(  13) = (   0.5000000   0.5000000   2.9927818  )
        14           Au  tau(  14) = (   0.0000000   0.0000000   3.4571789  )
        15           Au  tau(  15) = (   0.0000000   0.0000000   4.2827739  )
        16           Au  tau(  16) = (   0.5000000   0.5000000   4.7471711  )
        17           Au  tau(  17) = (   0.5000000   0.5000000   5.5727660  )
        18           Au  tau(  18) = (   0.0000000   0.0000000   6.0371632  )
        19           Au  tau(  19) = (   0.0000000   0.0000000   6.8627582  )
        20           Au  tau(  20) = (   0.5000000   0.5000000   7.3271553  )
        21           Au  tau(  21) = (   0.5000000   0.5000000   8.1527503  )
        22           Au  tau(  22) = (   0.0000000   0.0000000   8.6171475  )
        23           Au  tau(  23) = (   0.0000000   0.0000000   9.4427424  )
        24           Au  tau(  24) = (   0.5000000   0.5000000   9.9071396  )

     number of k points=    45 (tetrahedron method)
                       cart. coord. in units 2pi/alat
        k(    1) = (   0.0000000   0.0000000   0.0000000), wk =   0.0039062
        k(    2) = (   0.0000000   0.0000000   0.0242250), wk =   0.0078125
        k(    3) = (   0.0000000   0.0000000  -0.0484499), wk =   0.0039062
        k(    4) = (   0.0000000   0.1250000   0.0000000), wk =   0.0156250
        k(    5) = (   0.0000000   0.1250000   0.0242250), wk =   0.0312500
        k(    6) = (   0.0000000   0.1250000  -0.0484499), wk =   0.0156250
        k(    7) = (   0.0000000   0.2500000   0.0000000), wk =   0.0156250
        k(    8) = (   0.0000000   0.2500000   0.0242250), wk =   0.0312500
        k(    9) = (   0.0000000   0.2500000  -0.0484499), wk =   0.0156250
        k(   10) = (   0.0000000   0.3750000   0.0000000), wk =   0.0156250
        k(   11) = (   0.0000000   0.3750000   0.0242250), wk =   0.0312500
        k(   12) = (   0.0000000   0.3750000  -0.0484499), wk =   0.0156250
        k(   13) = (   0.0000000  -0.5000000   0.0000000), wk =   0.0078125
        k(   14) = (   0.0000000  -0.5000000   0.0242250), wk =   0.0156250
        k(   15) = (   0.0000000  -0.5000000  -0.0484499), wk =   0.0078125
        k(   16) = (   0.1250000   0.1250000   0.0000000), wk =   0.0156250
        k(   17) = (   0.1250000   0.1250000   0.0242250), wk =   0.0312500
        k(   18) = (   0.1250000   0.1250000  -0.0484499), wk =   0.0156250
        k(   19) = (   0.1250000   0.2500000   0.0000000), wk =   0.0312500
        k(   20) = (   0.1250000   0.2500000   0.0242250), wk =   0.0625000
        k(   21) = (   0.1250000   0.2500000  -0.0484499), wk =   0.0312500
        k(   22) = (   0.1250000   0.3750000   0.0000000), wk =   0.0312500
        k(   23) = (   0.1250000   0.3750000   0.0242250), wk =   0.0625000
        k(   24) = (   0.1250000   0.3750000  -0.0484499), wk =   0.0312500
        k(   25) = (   0.1250000  -0.5000000   0.0000000), wk =   0.0156250
        k(   26) = (   0.1250000  -0.5000000   0.0242250), wk =   0.0312500
        k(   27) = (   0.1250000  -0.5000000  -0.0484499), wk =   0.0156250
        k(   28) = (   0.2500000   0.2500000   0.0000000), wk =   0.0156250
        k(   29) = (   0.2500000   0.2500000   0.0242250), wk =   0.0312500
        k(   30) = (   0.2500000   0.2500000  -0.0484499), wk =   0.0156250
        k(   31) = (   0.2500000   0.3750000   0.0000000), wk =   0.0312500
        k(   32) = (   0.2500000   0.3750000   0.0242250), wk =   0.0625000
        k(   33) = (   0.2500000   0.3750000  -0.0484499), wk =   0.0312500
        k(   34) = (   0.2500000  -0.5000000   0.0000000), wk =   0.0156250
        k(   35) = (   0.2500000  -0.5000000   0.0242250), wk =   0.0312500
        k(   36) = (   0.2500000  -0.5000000  -0.0484499), wk =   0.0156250
        k(   37) = (   0.3750000   0.3750000   0.0000000), wk =   0.0156250
        k(   38) = (   0.3750000   0.3750000   0.0242250), wk =   0.0312500
        k(   39) = (   0.3750000   0.3750000  -0.0484499), wk =   0.0156250
        k(   40) = (   0.3750000  -0.5000000   0.0000000), wk =   0.0156250
        k(   41) = (   0.3750000  -0.5000000   0.0242250), wk =   0.0312500
        k(   42) = (   0.3750000  -0.5000000  -0.0484499), wk =   0.0156250
        k(   43) = (  -0.5000000  -0.5000000   0.0000000), wk =   0.0039062
        k(   44) = (  -0.5000000  -0.5000000   0.0242250), wk =   0.0078125
        k(   45) = (  -0.5000000  -0.5000000  -0.0484499), wk =   0.0039062

     Dense  grid:   368373 G-vectors     FFT dimensions: (  45,  45, 432)

     Smooth grid:   111379 G-vectors     FFT dimensions: (  27,  27, 288)

     Estimated max dynamical RAM per process >     186.81 MB

     Estimated total dynamical RAM >       5.84 GB
     Generating pointlists ...
     new r_m :   0.3377 (alat units)  2.1668 (a.u.) for type    1
     new r_m :   0.3377 (alat units)  2.1668 (a.u.) for type    2
     new r_m :   0.3377 (alat units)  2.1668 (a.u.) for type    3

     Check: negative/imaginary core charge=   -0.000006    0.000000

     Initial potential from superposition of free atoms

     starting charge  295.99426, renormalised to  296.00000
     Number of +U iterations with fixed ns =  0
     Starting occupations:
 --- enter write_ns ---
 LDA+U parameters:
U(  1) =   3.1200   J(  1) =   0.7000   B(  1) =   0.0803
U(  2) =   3.1200   J(  2) =   0.7000   B(  2) =   0.0803
atom    1   Tr[ns(na)] (up, down, total) =   5.00000  0.00000  5.00000
   spin  1
    eigenvalues: 
  1.000  1.000  1.000  1.000  1.000
    eigenvectors:
  1.000  0.000  0.000  0.000  0.000
  0.000  1.000  0.000  0.000  0.000
  0.000  0.000  1.000  0.000  0.000
  0.000  0.000  0.000  1.000  0.000
  0.000  0.000  0.000  0.000  1.000
    occupations:
  1.000  0.000  0.000  0.000  0.000
  0.000  1.000  0.000  0.000  0.000
  0.000  0.000  1.000  0.000  0.000
  0.000  0.000  0.000  1.000  0.000
  0.000  0.000  0.000  0.000  1.000
   spin  2
    eigenvalues: 
  0.000  0.000  0.000  0.000  0.000
    eigenvectors:
  1.000  0.000  0.000  0.000  0.000
  0.000  1.000  0.000  0.000  0.000
  0.000  0.000  1.000  0.000  0.000
  0.000  0.000  0.000  1.000  0.000
  0.000  0.000  0.000  0.000  1.000
    occupations:
  0.000  0.000  0.000  0.000  0.000
  0.000  0.000  0.000  0.000  0.000
  0.000  0.000  0.000  0.000  0.000
  0.000  0.000  0.000  0.000  0.000
  0.000  0.000  0.000  0.000  0.000
atomic mag. moment =     5.000000
atom    2   Tr[ns(na)] (up, down, total) =   5.00000  0.00000  5.00000
   spin  1
    eigenvalues: 
  1.000  1.000  1.000  1.000  1.000
    eigenvectors:
  1.000  0.000  0.000  0.000  0.000
  0.000  1.000  0.000  0.000  0.000
  0.000  0.000  1.000  0.000  0.000
  0.000  0.000  0.000  1.000  0.000
  0.000  0.000  0.000  0.000  1.000
    occupations:
  1.000  0.000  0.000  0.000  0.000
  0.000  1.000  0.000  0.000  0.000
  0.000  0.000  1.000  0.000  0.000
  0.000  0.000  0.000  1.000  0.000
  0.000  0.000  0.000  0.000  1.000
   spin  2
    eigenvalues: 
  0.000  0.000  0.000  0.000  0.000
    eigenvectors:
  1.000  0.000  0.000  0.000  0.000
  0.000  1.000  0.000  0.000  0.000
  0.000  0.000  1.000  0.000  0.000
  0.000  0.000  0.000  1.000  0.000
  0.000  0.000  0.000  0.000  1.000
    occupations:
  0.000  0.000  0.000  0.000  0.000
  0.000  0.000  0.000  0.000  0.000
  0.000  0.000  0.000  0.000  0.000
  0.000  0.000  0.000  0.000  0.000
  0.000  0.000  0.000  0.000  0.000
atomic mag. moment =     5.000000
atom    3   Tr[ns(na)] (up, down, total) =   0.00000  5.00000  5.00000
   spin  1
    eigenvalues: 
  0.000  0.000  0.000  0.000  0.000
    eigenvectors:
  1.000  0.000  0.000  0.000  0.000
  0.000  1.000  0.000  0.000  0.000
  0.000  0.000  1.000  0.000  0.000
  0.000  0.000  0.000  1.000  0.000
  0.000  0.000  0.000  0.000  1.000
    occupations:
  0.000  0.000  0.000  0.000  0.000
  0.000  0.000  0.000  0.000  0.000
  0.000  0.000  0.000  0.000  0.000
  0.000  0.000  0.000  0.000  0.000
  0.000  0.000  0.000  0.000  0.000
   spin  2
    eigenvalues: 
  1.000  1.000  1.000  1.000  1.000
    eigenvectors:
  1.000  0.000  0.000  0.000  0.000
  0.000  1.000  0.000  0.000  0.000
  0.000  0.000  1.000  0.000  0.000
  0.000  0.000  0.000  1.000  0.000
  0.000  0.000  0.000  0.000  1.000
    occupations:
  1.000  0.000  0.000  0.000  0.000
  0.000  1.000  0.000  0.000  0.000
  0.000  0.000  1.000  0.000  0.000
  0.000  0.000  0.000  1.000  0.000
  0.000  0.000  0.000  0.000  1.000
atomic mag. moment =    -5.000000
atom    4   Tr[ns(na)] (up, down, total) =   0.00000  5.00000  5.00000
   spin  1
    eigenvalues: 
  0.000  0.000  0.000  0.000  0.000
    eigenvectors:
  1.000  0.000  0.000  0.000  0.000
  0.000  1.000  0.000  0.000  0.000
  0.000  0.000  1.000  0.000  0.000
  0.000  0.000  0.000  1.000  0.000
  0.000  0.000  0.000  0.000  1.000
    occupations:
  0.000  0.000  0.000  0.000  0.000
  0.000  0.000  0.000  0.000  0.000
  0.000  0.000  0.000  0.000  0.000
  0.000  0.000  0.000  0.000  0.000
  0.000  0.000  0.000  0.000  0.000
   spin  2
    eigenvalues: 
  1.000  1.000  1.000  1.000  1.000
    eigenvectors:
  1.000  0.000  0.000  0.000  0.000
  0.000  1.000  0.000  0.000  0.000
  0.000  0.000  1.000  0.000  0.000
  0.000  0.000  0.000  1.000  0.000
  0.000  0.000  0.000  0.000  1.000
    occupations:
  1.000  0.000  0.000  0.000  0.000
  0.000  1.000  0.000  0.000  0.000
  0.000  0.000  1.000  0.000  0.000
  0.000  0.000  0.000  1.000  0.000
  0.000  0.000  0.000  0.000  1.000
atomic mag. moment =    -5.000000
atom    5   Tr[ns(na)] (up, down, total) =   5.00000  0.00000  5.00000
   spin  1
    eigenvalues: 
  1.000  1.000  1.000  1.000  1.000
    eigenvectors:
  1.000  0.000  0.000  0.000  0.000
  0.000  1.000  0.000  0.000  0.000
  0.000  0.000  1.000  0.000  0.000
  0.000  0.000  0.000  1.000  0.000
  0.000  0.000  0.000  0.000  1.000
    occupations:
  1.000  0.000  0.000  0.000  0.000
  0.000  1.000  0.000  0.000  0.000
  0.000  0.000  1.000  0.000  0.000
  0.000  0.000  0.000  1.000  0.000
  0.000  0.000  0.000  0.000  1.000
   spin  2
    eigenvalues: 
  0.000  0.000  0.000  0.000  0.000
    eigenvectors:
  1.000  0.000  0.000  0.000  0.000
  0.000  1.000  0.000  0.000  0.000
  0.000  0.000  1.000  0.000  0.000
  0.000  0.000  0.000  1.000  0.000
  0.000  0.000  0.000  0.000  1.000
    occupations:
  0.000  0.000  0.000  0.000  0.000
  0.000  0.000  0.000  0.000  0.000
  0.000  0.000  0.000  0.000  0.000
  0.000  0.000  0.000  0.000  0.000
  0.000  0.000  0.000  0.000  0.000
atomic mag. moment =     5.000000
atom    6   Tr[ns(na)] (up, down, total) =   5.00000  0.00000  5.00000
   spin  1
    eigenvalues: 
  1.000  1.000  1.000  1.000  1.000
    eigenvectors:
  1.000  0.000  0.000  0.000  0.000
  0.000  1.000  0.000  0.000  0.000
  0.000  0.000  1.000  0.000  0.000
  0.000  0.000  0.000  1.000  0.000
  0.000  0.000  0.000  0.000  1.000
    occupations:
  1.000  0.000  0.000  0.000  0.000
  0.000  1.000  0.000  0.000  0.000
  0.000  0.000  1.000  0.000  0.000
  0.000  0.000  0.000  1.000  0.000
  0.000  0.000  0.000  0.000  1.000
   spin  2
    eigenvalues: 
  0.000  0.000  0.000  0.000  0.000
    eigenvectors:
  1.000  0.000  0.000  0.000  0.000
  0.000  1.000  0.000  0.000  0.000
  0.000  0.000  1.000  0.000  0.000
  0.000  0.000  0.000  1.000  0.000
  0.000  0.000  0.000  0.000  1.000
    occupations:
  0.000  0.000  0.000  0.000  0.000
  0.000  0.000  0.000  0.000  0.000
  0.000  0.000  0.000  0.000  0.000
  0.000  0.000  0.000  0.000  0.000
  0.000  0.000  0.000  0.000  0.000
atomic mag. moment =     5.000000
atom    7   Tr[ns(na)] (up, down, total) =   0.00000  5.00000  5.00000
   spin  1
    eigenvalues: 
  0.000  0.000  0.000  0.000  0.000
    eigenvectors:
  1.000  0.000  0.000  0.000  0.000
  0.000  1.000  0.000  0.000  0.000
  0.000  0.000  1.000  0.000  0.000
  0.000  0.000  0.000  1.000  0.000
  0.000  0.000  0.000  0.000  1.000
    occupations:
  0.000  0.000  0.000  0.000  0.000
  0.000  0.000  0.000  0.000  0.000
  0.000  0.000  0.000  0.000  0.000
  0.000  0.000  0.000  0.000  0.000
  0.000  0.000  0.000  0.000  0.000
   spin  2
    eigenvalues: 
  1.000  1.000  1.000  1.000  1.000
    eigenvectors:
  1.000  0.000  0.000  0.000  0.000
  0.000  1.000  0.000  0.000  0.000
  0.000  0.000  1.000  0.000  0.000
  0.000  0.000  0.000  1.000  0.000
  0.000  0.000  0.000  0.000  1.000
    occupations:
  1.000  0.000  0.000  0.000  0.000
  0.000  1.000  0.000  0.000  0.000
  0.000  0.000  1.000  0.000  0.000
  0.000  0.000  0.000  1.000  0.000
  0.000  0.000  0.000  0.000  1.000
atomic mag. moment =    -5.000000
atom    8   Tr[ns(na)] (up, down, total) =   0.00000  5.00000  5.00000
   spin  1
    eigenvalues: 
  0.000  0.000  0.000  0.000  0.000
    eigenvectors:
  1.000  0.000  0.000  0.000  0.000
  0.000  1.000  0.000  0.000  0.000
  0.000  0.000  1.000  0.000  0.000
  0.000  0.000  0.000  1.000  0.000
  0.000  0.000  0.000  0.000  1.000
    occupations:
  0.000  0.000  0.000  0.000  0.000
  0.000  0.000  0.000  0.000  0.000
  0.000  0.000  0.000  0.000  0.000
  0.000  0.000  0.000  0.000  0.000
  0.000  0.000  0.000  0.000  0.000
   spin  2
    eigenvalues: 
  1.000  1.000  1.000  1.000  1.000
    eigenvectors:
  1.000  0.000  0.000  0.000  0.000
  0.000  1.000  0.000  0.000  0.000
  0.000  0.000  1.000  0.000  0.000
  0.000  0.000  0.000  1.000  0.000
  0.000  0.000  0.000  0.000  1.000
    occupations:
  1.000  0.000  0.000  0.000  0.000
  0.000  1.000  0.000  0.000  0.000
  0.000  0.000  1.000  0.000  0.000
  0.000  0.000  0.000  1.000  0.000
  0.000  0.000  0.000  0.000  1.000
atomic mag. moment =    -5.000000
N of occupied +U levels =   40.000000
 --- exit write_ns ---
 Atomic wfc used for LDA+U Projector are NOT orthogonalized
     Starting wfcs are  224 randomized atomic wfcs
     Checking if some PAW data can be deallocated... 

     total cpu time spent up to now is       78.7 secs

     Self-consistent Calculation

     iteration #  1     ecut=    45.00 Ry     beta= 0.10
     Davidson diagonalization with overlap
     ethr =  1.00E-02,  avg # of iterations =  4.3
 --- enter write_ns ---
 LDA+U parameters:
U(  1) =   3.1200   J(  1) =   0.7000   B(  1) =   0.0803
U(  2) =   3.1200   J(  2) =   0.7000   B(  2) =   0.0803
atom    1   Tr[ns(na)] (up, down, total) =   5.01745  0.40998  5.42743
   spin  1
    eigenvalues: 
  1.003  1.003  1.003  1.004  1.004
    eigenvectors:
  0.000  0.000  0.000  1.000  0.000
  0.000  0.378  0.622  0.000  0.000
  0.000  0.622  0.378  0.000  0.000
  0.000  0.000  0.000  0.000  1.000
  1.000  0.000  0.000  0.000  0.000
    occupations:
  1.004 -0.000 -0.000  0.000  0.000
 -0.000  1.003 -0.000  0.000  0.000
 -0.000 -0.000  1.003  0.000  0.000
  0.000  0.000  0.000  1.004 -0.000
  0.000  0.000  0.000 -0.000  1.003
   spin  2
    eigenvalues: 
  0.053  0.074  0.082  0.082  0.120
    eigenvectors:
  0.000  1.000  0.000  0.000  0.000
  0.000  0.000  0.407  0.593  0.000
  0.000  0.000  0.593  0.407  0.000
  1.000  0.000  0.000  0.000  0.000
  0.000  0.000  0.000  0.000  1.000
    occupations:
  0.074 -0.000 -0.000  0.000  0.000
 -0.000  0.082 -0.000  0.000  0.000
 -0.000 -0.000  0.082  0.000  0.000
  0.000  0.000  0.000  0.053 -0.000
  0.000  0.000  0.000 -0.000  0.120
atomic mag. moment =     4.607472
atom    2   Tr[ns(na)] (up, down, total) =   5.01752  0.41147  5.42899
   spin  1
    eigenvalues: 
  1.003  1.003  1.003  1.004  1.004
    eigenvectors:
  0.000  0.000  0.000  1.000  0.000
  0.000  0.285  0.715  0.000  0.000
  0.000  0.715  0.285  0.000  0.000
  0.000  0.000  0.000  0.000  1.000
  1.000  0.000  0.000  0.000  0.000
    occupations:
  1.004 -0.000 -0.000  0.000  0.000
 -0.000  1.003 -0.000  0.000  0.000
 -0.000 -0.000  1.003  0.000  0.000
  0.000  0.000  0.000  1.004 -0.000
  0.000  0.000  0.000 -0.000  1.003
   spin  2
    eigenvalues: 
  0.053  0.074  0.082  0.082  0.121
    eigenvectors:
  0.000  1.000  0.000  0.000  0.000
  0.000  0.000  0.377  0.623  0.000
  0.000  0.000  0.623  0.377  0.000
  1.000  0.000  0.000  0.000  0.000
  0.000  0.000  0.000  0.000  1.000
    occupations:
  0.074 -0.000 -0.000  0.000  0.000
 -0.000  0.082 -0.000  0.000  0.000
 -0.000 -0.000  0.082  0.000  0.000
  0.000  0.000  0.000  0.053 -0.000
  0.000  0.000  0.000 -0.000  0.121
atomic mag. moment =     4.606049
atom    3   Tr[ns(na)] (up, down, total) =   0.41192  5.01750  5.42941
   spin  1
    eigenvalues: 
  0.053  0.074  0.082  0.082  0.121
    eigenvectors:
  0.000  1.000  0.000  0.000  0.000
  0.000  0.000  0.514  0.486  0.000
  0.000  0.000  0.486  0.514  0.000
  1.000  0.000  0.000  0.000  0.000
  0.000  0.000  0.000  0.000  1.000
    occupations:
  0.074 -0.000 -0.000  0.000  0.000
 -0.000  0.082 -0.000  0.000  0.000
 -0.000 -0.000  0.082  0.000  0.000
  0.000  0.000  0.000  0.053 -0.000
  0.000  0.000  0.000 -0.000  0.121
   spin  2
    eigenvalues: 
  1.003  1.003  1.003  1.004  1.004
    eigenvectors:
  0.000  0.000  0.000  1.000  0.000
  0.000  0.297  0.703  0.000  0.000
  0.000  0.703  0.297  0.000  0.000
  0.000  0.000  0.000  0.000  1.000
  1.000  0.000  0.000  0.000  0.000
    occupations:
  1.004 -0.000 -0.000  0.000  0.000
 -0.000  1.003 -0.000  0.000  0.000
 -0.000 -0.000  1.003  0.000  0.000
  0.000  0.000  0.000  1.004 -0.000
  0.000  0.000  0.000 -0.000  1.003
atomic mag. moment =    -4.605580
atom    4   Tr[ns(na)] (up, down, total) =   0.41164  5.01737  5.42900
   spin  1
    eigenvalues: 
  0.053  0.074  0.082  0.082  0.121
    eigenvectors:
  0.000  1.000  0.000  0.000  0.000
  0.000  0.000  0.410  0.590  0.000
  0.000  0.000  0.590  0.410  0.000
  1.000  0.000  0.000  0.000  0.000
  0.000  0.000  0.000  0.000  1.000
    occupations:
  0.074 -0.000 -0.000  0.000  0.000
 -0.000  0.082 -0.000  0.000  0.000
 -0.000 -0.000  0.082  0.000  0.000
  0.000  0.000  0.000  0.053 -0.000
  0.000  0.000  0.000 -0.000  0.121
   spin  2
    eigenvalues: 
  1.003  1.003  1.003  1.004  1.004
    eigenvectors:
  0.000  0.000  0.000  1.000  0.000
  0.000  0.294  0.706  0.000  0.000
  0.000  0.706  0.294  0.000  0.000
  0.000  0.000  0.000  0.000  1.000
  1.000  0.000  0.000  0.000  0.000
    occupations:
  1.004 -0.000 -0.000  0.000  0.000
 -0.000  1.003 -0.000  0.000  0.000
 -0.000 -0.000  1.003  0.000  0.000
  0.000  0.000  0.000  1.004 -0.000
  0.000  0.000  0.000 -0.000  1.003
atomic mag. moment =    -4.605728
atom    5   Tr[ns(na)] (up, down, total) =   5.01751  0.41178  5.42928
   spin  1
    eigenvalues: 
  1.003  1.003  1.003  1.004  1.004
    eigenvectors:
  0.000  0.000  0.000  1.000  0.000
  0.000  0.300  0.700  0.000  0.000
  0.000  0.700  0.300  0.000  0.000
  0.000  0.000  0.000  0.000  1.000
  1.000  0.000  0.000  0.000  0.000
    occupations:
  1.004 -0.000 -0.000  0.000  0.000
 -0.000  1.003 -0.000  0.000  0.000
 -0.000 -0.000  1.003  0.000  0.000
  0.000  0.000  0.000  1.004 -0.000
  0.000  0.000  0.000 -0.000  1.003
   spin  2
    eigenvalues: 
  0.053  0.075  0.082  0.082  0.121
    eigenvectors:
  0.000  1.000  0.000  0.000  0.000
  0.000  0.000  0.450  0.550  0.000
  0.000  0.000  0.550  0.450  0.000
  1.000  0.000  0.000  0.000  0.000
  0.000  0.000  0.000  0.000  1.000
    occupations:
  0.075 -0.000 -0.000  0.000  0.000
 -0.000  0.082 -0.000  0.000  0.000
 -0.000 -0.000  0.082  0.000  0.000
  0.000  0.000  0.000  0.053 -0.000
  0.000  0.000  0.000 -0.000  0.121
atomic mag. moment =     4.605731
atom    6   Tr[ns(na)] (up, down, total) =   5.01760  0.41154  5.42913
   spin  1
    eigenvalues: 
  1.003  1.003  1.003  1.004  1.004
    eigenvectors:
  0.000  0.000  0.000  1.000  0.000
  0.000  0.335  0.665  0.000  0.000
  0.000  0.665  0.335  0.000  0.000
  0.000  0.000  0.000  0.000  1.000
  1.000  0.000  0.000  0.000  0.000
    occupations:
  1.004 -0.000 -0.000  0.000  0.000
 -0.000  1.003 -0.000  0.000  0.000
 -0.000 -0.000  1.003  0.000  0.000
  0.000  0.000  0.000  1.004 -0.000
  0.000  0.000  0.000 -0.000  1.003
   spin  2
    eigenvalues: 
  0.053  0.074  0.082  0.082  0.122
    eigenvectors:
  0.000  1.000  0.000  0.000  0.000
  0.000  0.000  0.364  0.636  0.000
  0.000  0.000  0.636  0.364  0.000
  1.000  0.000  0.000  0.000  0.000
  0.000  0.000  0.000  0.000  1.000
    occupations:
  0.074 -0.000 -0.000  0.000  0.000
 -0.000  0.082 -0.000  0.000  0.000
 -0.000 -0.000  0.082  0.000  0.000
  0.000  0.000  0.000  0.053 -0.000
  0.000  0.000  0.000 -0.000  0.122
atomic mag. moment =     4.606062
atom    7   Tr[ns(na)] (up, down, total) =   0.41122  5.01753  5.42875
   spin  1
    eigenvalues: 
  0.053  0.074  0.081  0.081  0.121
    eigenvectors:
  0.000  1.000  0.000  0.000  0.000
  0.000  0.000  0.468  0.532  0.000
  0.000  0.000  0.532  0.468  0.000
  1.000  0.000  0.000  0.000  0.000
  0.000  0.000  0.000  0.000  1.000
    occupations:
  0.074 -0.000 -0.000  0.000  0.000
 -0.000  0.081 -0.000  0.000  0.000
 -0.000 -0.000  0.081  0.000  0.000
  0.000  0.000  0.000  0.053 -0.000
  0.000  0.000  0.000 -0.000  0.121
   spin  2
    eigenvalues: 
  1.003  1.003  1.003  1.004  1.004
    eigenvectors:
  0.000  0.000  0.000  1.000  0.000
  0.000  0.304  0.696  0.000  0.000
  0.000  0.696  0.304  0.000  0.000
  0.000  0.000  0.000  0.000  1.000
  1.000  0.000  0.000  0.000  0.000
    occupations:
  1.004 -0.000 -0.000  0.000  0.000
 -0.000  1.003 -0.000  0.000  0.000
 -0.000 -0.000  1.003  0.000  0.000
  0.000  0.000  0.000  1.004 -0.000
  0.000  0.000  0.000 -0.000  1.003
atomic mag. moment =    -4.606309
atom    8   Tr[ns(na)] (up, down, total) =   0.41096  5.01746  5.42842
   spin  1
    eigenvalues: 
  0.053  0.075  0.082  0.082  0.120
    eigenvectors:
  0.000  1.000  0.000  0.000  0.000
  0.000  0.000  0.294  0.706  0.000
  0.000  0.000  0.706  0.294  0.000
  1.000  0.000  0.000  0.000  0.000
  0.000  0.000  0.000  0.000  1.000
    occupations:
  0.075 -0.000 -0.000  0.000  0.000
 -0.000  0.082 -0.000  0.000  0.000
 -0.000 -0.000  0.082  0.000  0.000
  0.000  0.000  0.000  0.053 -0.000
  0.000  0.000  0.000 -0.000  0.120
   spin  2
    eigenvalues: 
  1.003  1.003  1.003  1.004  1.004
    eigenvectors:
  0.000  0.000  0.000  1.000  0.000
  0.000  0.291  0.709  0.000  0.000
  0.000  0.709  0.291  0.000  0.000
  0.000  0.000  0.000  0.000  1.000
  1.000  0.000  0.000  0.000  0.000
    occupations:
  1.004 -0.000 -0.000  0.000  0.000
 -0.000  1.003 -0.000  0.000  0.000
 -0.000 -0.000  1.003  0.000  0.000
  0.000  0.000  0.000  1.004 -0.000
  0.000  0.000  0.000 -0.000  1.003
atomic mag. moment =    -4.606499
N of occupied +U levels =   43.430422
 --- exit write_ns ---

     total cpu time spent up to now is      280.4 secs

     total energy              =  -14687.27551644 Ry
     Harris-Foulkes estimate   =  -14685.81232914 Ry
     estimated scf accuracy    <      11.56337455 Ry

     total magnetization       =    -0.00 Bohr mag/cell
     absolute magnetization    =    41.48 Bohr mag/cell

     iteration #  2     ecut=    45.00 Ry     beta= 0.10
     Davidson diagonalization with overlap
     ethr =  3.91E-03,  avg # of iterations =  1.0

     total cpu time spent up to now is      398.2 secs

     total energy              =  -14692.12392941 Ry
     Harris-Foulkes estimate   =  -14687.34823930 Ry
     estimated scf accuracy    <       9.34503375 Ry

     total magnetization       =    -0.00 Bohr mag/cell
     absolute magnetization    =    41.17 Bohr mag/cell

     iteration #  3     ecut=    45.00 Ry     beta= 0.10
     Davidson diagonalization with overlap
     ethr =  3.16E-03,  avg # of iterations =  5.0

     total cpu time spent up to now is      602.8 secs

     total energy              =  -14692.71700701 Ry
     Harris-Foulkes estimate   =  -14694.25053953 Ry
     estimated scf accuracy    <     129.24175504 Ry

     total magnetization       =    -0.07 Bohr mag/cell
     absolute magnetization    =    38.63 Bohr mag/cell

     iteration #  4     ecut=    45.00 Ry     beta= 0.10
     Davidson diagonalization with overlap
     ethr =  3.16E-03,  avg # of iterations =  3.7

     total cpu time spent up to now is      773.5 secs

     total energy              =  -14694.98834642 Ry
     Harris-Foulkes estimate   =  -14694.02405246 Ry
     estimated scf accuracy    <       3.48071029 Ry

     total magnetization       =     0.01 Bohr mag/cell
     absolute magnetization    =    38.64 Bohr mag/cell

     iteration #  5     ecut=    45.00 Ry     beta= 0.10
     Davidson diagonalization with overlap
     ethr =  1.18E-03,  avg # of iterations =  4.5

     total cpu time spent up to now is      962.0 secs

     total energy              =  -14694.48447386 Ry
     Harris-Foulkes estimate   =  -14695.18630508 Ry
     estimated scf accuracy    <       9.10395951 Ry

     total magnetization       =     0.04 Bohr mag/cell
     absolute magnetization    =    37.55 Bohr mag/cell

     iteration #  6     ecut=    45.00 Ry     beta= 0.10
     Davidson diagonalization with overlap
     ethr =  1.18E-03,  avg # of iterations =  3.2

     total cpu time spent up to now is     1119.4 secs

     total energy              =  -14693.00586258 Ry
     Harris-Foulkes estimate   =  -14694.66382741 Ry
     estimated scf accuracy    <      23.20335930 Ry

     total magnetization       =    -0.01 Bohr mag/cell
     absolute magnetization    =    38.05 Bohr mag/cell

     iteration #  7     ecut=    45.00 Ry     beta= 0.10
     Davidson diagonalization with overlap
     ethr =  1.18E-03,  avg # of iterations =  5.0

     total cpu time spent up to now is     1366.4 secs

     total energy              =  -14693.91116561 Ry
     Harris-Foulkes estimate   =  -14693.86069214 Ry
     estimated scf accuracy    <       1.57836559 Ry

     total magnetization       =     0.06 Bohr mag/cell
     absolute magnetization    =    38.17 Bohr mag/cell

     iteration #  8     ecut=    45.00 Ry     beta= 0.10
     Davidson diagonalization with overlap
     ethr =  5.33E-04,  avg # of iterations =  1.9

     total cpu time spent up to now is     1499.9 secs

     total energy              =  -14693.98599133 Ry
     Harris-Foulkes estimate   =  -14693.97023956 Ry
     estimated scf accuracy    <       0.16966936 Ry

     total magnetization       =    -0.00 Bohr mag/cell
     absolute magnetization    =    37.88 Bohr mag/cell

     iteration #  9     ecut=    45.00 Ry     beta= 0.10
     Davidson diagonalization with overlap
     ethr =  5.73E-05,  avg # of iterations =  4.7

     total cpu time spent up to now is     1703.3 secs

     total energy              =  -14694.01686350 Ry
     Harris-Foulkes estimate   =  -14694.00488667 Ry
     estimated scf accuracy    <       0.13008743 Ry

     total magnetization       =    -0.03 Bohr mag/cell
     absolute magnetization    =    37.40 Bohr mag/cell

     iteration # 10     ecut=    45.00 Ry     beta= 0.10
     Davidson diagonalization with overlap
     ethr =  4.39E-05,  avg # of iterations =  1.2

     total cpu time spent up to now is     1823.8 secs

     total energy              =  -14693.97443409 Ry
     Harris-Foulkes estimate   =  -14694.01993783 Ry
     estimated scf accuracy    <       0.19053087 Ry

     total magnetization       =     0.06 Bohr mag/cell
     absolute magnetization    =    37.24 Bohr mag/cell

     iteration # 11     ecut=    45.00 Ry     beta= 0.10
     Davidson diagonalization with overlap
     ethr =  4.39E-05,  avg # of iterations =  2.4

     total cpu time spent up to now is     1982.6 secs

     total energy              =  -14693.99967568 Ry
     Harris-Foulkes estimate   =  -14694.00152860 Ry
     estimated scf accuracy    <       0.03831974 Ry

     total magnetization       =    -0.03 Bohr mag/cell
     absolute magnetization    =    37.41 Bohr mag/cell

     iteration # 12     ecut=    45.00 Ry     beta= 0.10
     Davidson diagonalization with overlap
     ethr =  1.29E-05,  avg # of iterations =  2.1

     total cpu time spent up to now is     2124.3 secs

     total energy              =  -14694.00515399 Ry
     Harris-Foulkes estimate   =  -14694.00329293 Ry
     estimated scf accuracy    <       0.02736706 Ry

     total magnetization       =    -0.01 Bohr mag/cell
     absolute magnetization    =    37.39 Bohr mag/cell

     iteration # 13     ecut=    45.00 Ry     beta= 0.10
     Davidson diagonalization with overlap
     ethr =  9.25E-06,  avg # of iterations =  1.1

     total cpu time spent up to now is     2244.5 secs

     total energy              =  -14694.00683414 Ry
     Harris-Foulkes estimate   =  -14694.00583519 Ry
     estimated scf accuracy    <       0.01958367 Ry

     total magnetization       =     0.00 Bohr mag/cell
     absolute magnetization    =    37.34 Bohr mag/cell

     iteration # 14     ecut=    45.00 Ry     beta= 0.10
     Davidson diagonalization with overlap
     ethr =  6.62E-06,  avg # of iterations =  1.1

     total cpu time spent up to now is     2365.8 secs

     total energy              =  -14694.00779853 Ry
     Harris-Foulkes estimate   =  -14694.00708228 Ry
     estimated scf accuracy    <       0.00664063 Ry

     total magnetization       =     0.00 Bohr mag/cell
     absolute magnetization    =    37.32 Bohr mag/cell

     iteration # 15     ecut=    45.00 Ry     beta= 0.10
     Davidson diagonalization with overlap
     ethr =  2.24E-06,  avg # of iterations =  4.9

     total cpu time spent up to now is     2568.9 secs

     total energy              =  -14694.00856064 Ry
     Harris-Foulkes estimate   =  -14694.00858542 Ry
     estimated scf accuracy    <       0.00736702 Ry

     total magnetization       =    -0.00 Bohr mag/cell
     absolute magnetization    =    37.30 Bohr mag/cell

     iteration # 16     ecut=    45.00 Ry     beta= 0.10
     Davidson diagonalization with overlap
     ethr =  2.24E-06,  avg # of iterations =  1.1

     total cpu time spent up to now is     2689.0 secs

     total energy              =  -14694.00879754 Ry
     Harris-Foulkes estimate   =  -14694.00863139 Ry
     estimated scf accuracy    <       0.00088713 Ry

     total magnetization       =     0.00 Bohr mag/cell
     absolute magnetization    =    37.27 Bohr mag/cell

     iteration # 17     ecut=    45.00 Ry     beta= 0.10
     Davidson diagonalization with overlap
     ethr =  3.00E-07,  avg # of iterations =  3.8

     total cpu time spent up to now is     2868.3 secs

     total energy              =  -14694.00893910 Ry
     Harris-Foulkes estimate   =  -14694.00880603 Ry
     estimated scf accuracy    <       0.00065522 Ry

     total magnetization       =     0.00 Bohr mag/cell
     absolute magnetization    =    37.26 Bohr mag/cell

     iteration # 18     ecut=    45.00 Ry     beta= 0.10
     Davidson diagonalization with overlap
     ethr =  2.21E-07,  avg # of iterations =  1.0

     total cpu time spent up to now is     2987.2 secs

     total energy              =  -14694.00898592 Ry
     Harris-Foulkes estimate   =  -14694.00895487 Ry
     estimated scf accuracy    <       0.00040741 Ry

     total magnetization       =    -0.00 Bohr mag/cell
     absolute magnetization    =    37.27 Bohr mag/cell

     iteration # 19     ecut=    45.00 Ry     beta= 0.10
     Davidson diagonalization with overlap
     ethr =  1.38E-07,  avg # of iterations =  1.1

     total cpu time spent up to now is     3107.7 secs

     total energy              =  -14694.00900590 Ry
     Harris-Foulkes estimate   =  -14694.00899834 Ry
     estimated scf accuracy    <       0.00023378 Ry

     total magnetization       =     0.00 Bohr mag/cell
     absolute magnetization    =    37.26 Bohr mag/cell

     iteration # 20     ecut=    45.00 Ry     beta= 0.10
     Davidson diagonalization with overlap
     ethr =  7.90E-08,  avg # of iterations =  1.1

     total cpu time spent up to now is     3237.8 secs

     total energy              =  -14694.00902717 Ry
     Harris-Foulkes estimate   =  -14694.00900812 Ry
     estimated scf accuracy    <       0.00015791 Ry

     total magnetization       =    -0.00 Bohr mag/cell
     absolute magnetization    =    37.26 Bohr mag/cell

     iteration # 21     ecut=    45.00 Ry     beta= 0.10
     Davidson diagonalization with overlap
     ethr =  5.33E-08,  avg # of iterations =  1.1

     total cpu time spent up to now is     3357.4 secs

     total energy              =  -14694.00905202 Ry
     Harris-Foulkes estimate   =  -14694.00902639 Ry
     estimated scf accuracy    <       0.00012725 Ry

     total magnetization       =     0.00 Bohr mag/cell
     absolute magnetization    =    37.26 Bohr mag/cell

     iteration # 22     ecut=    45.00 Ry     beta= 0.10
     Davidson diagonalization with overlap
     ethr =  4.30E-08,  avg # of iterations =  1.9

     total cpu time spent up to now is     3494.8 secs

     total energy              =  -14694.00902979 Ry
     Harris-Foulkes estimate   =  -14694.00902895 Ry
     estimated scf accuracy    <       0.00040859 Ry

     total magnetization       =     0.00 Bohr mag/cell
     absolute magnetization    =    37.25 Bohr mag/cell

     iteration # 23     ecut=    45.00 Ry     beta= 0.10
     Davidson diagonalization with overlap
     ethr =  4.30E-08,  avg # of iterations =  1.0

     total cpu time spent up to now is     3612.5 secs

     total energy              =  -14694.00903421 Ry
     Harris-Foulkes estimate   =  -14694.00903276 Ry
     estimated scf accuracy    <       0.00007391 Ry

     total magnetization       =     0.00 Bohr mag/cell
     absolute magnetization    =    37.25 Bohr mag/cell

     iteration # 24     ecut=    45.00 Ry     beta= 0.10
     Davidson diagonalization with overlap
     ethr =  2.50E-08,  avg # of iterations =  1.0

     total cpu time spent up to now is     3737.3 secs

     total energy              =  -14694.00903712 Ry
     Harris-Foulkes estimate   =  -14694.00903579 Ry
     estimated scf accuracy    <       0.00005056 Ry

     total magnetization       =    -0.00 Bohr mag/cell
     absolute magnetization    =    37.25 Bohr mag/cell

     iteration # 25     ecut=    45.00 Ry     beta= 0.10
     Davidson diagonalization with overlap
     ethr =  1.71E-08,  avg # of iterations =  1.0

     total cpu time spent up to now is     3857.1 secs

     total energy              =  -14694.00903933 Ry
     Harris-Foulkes estimate   =  -14694.00903761 Ry
     estimated scf accuracy    <       0.00005442 Ry

     total magnetization       =     0.00 Bohr mag/cell
     absolute magnetization    =    37.26 Bohr mag/cell

     iteration # 26     ecut=    45.00 Ry     beta= 0.10
     Davidson diagonalization with overlap
     ethr =  1.71E-08,  avg # of iterations =  1.0

     total cpu time spent up to now is     3973.6 secs

     total energy              =  -14694.00904019 Ry
     Harris-Foulkes estimate   =  -14694.00903911 Ry
     estimated scf accuracy    <       0.00004439 Ry

     total magnetization       =     0.00 Bohr mag/cell
     absolute magnetization    =    37.25 Bohr mag/cell

     iteration # 27     ecut=    45.00 Ry     beta= 0.10
     Davidson diagonalization with overlap
     ethr =  1.50E-08,  avg # of iterations =  1.1

     total cpu time spent up to now is     4096.3 secs

     total energy              =  -14694.00903952 Ry
     Harris-Foulkes estimate   =  -14694.00903823 Ry
     estimated scf accuracy    <       0.00001779 Ry

     total magnetization       =    -0.00 Bohr mag/cell
     absolute magnetization    =    37.25 Bohr mag/cell

     iteration # 28     ecut=    45.00 Ry     beta= 0.10
     Davidson diagonalization with overlap
     ethr =  6.01E-09,  avg # of iterations =  1.1

     total cpu time spent up to now is     4216.4 secs

     total energy              =  -14694.00903857 Ry
     Harris-Foulkes estimate   =  -14694.00903779 Ry
     estimated scf accuracy    <       0.00002593 Ry

     total magnetization       =     0.00 Bohr mag/cell
     absolute magnetization    =    37.25 Bohr mag/cell

     iteration # 29     ecut=    45.00 Ry     beta= 0.10
     Davidson diagonalization with overlap
     ethr =  6.01E-09,  avg # of iterations =  1.0

     total cpu time spent up to now is     4334.8 secs

     total energy              =  -14694.00903997 Ry
     Harris-Foulkes estimate   =  -14694.00903918 Ry
     estimated scf accuracy    <       0.00002002 Ry

     total magnetization       =    -0.00 Bohr mag/cell
     absolute magnetization    =    37.25 Bohr mag/cell

     iteration # 30     ecut=    45.00 Ry     beta= 0.10
     Davidson diagonalization with overlap
     ethr =  6.01E-09,  avg # of iterations =  1.0

     total cpu time spent up to now is     4453.6 secs

     total energy              =  -14694.00903881 Ry
     Harris-Foulkes estimate   =  -14694.00903821 Ry
     estimated scf accuracy    <       0.00001871 Ry

     total magnetization       =     0.00 Bohr mag/cell
     absolute magnetization    =    37.25 Bohr mag/cell

     iteration # 31     ecut=    45.00 Ry     beta= 0.10
     Davidson diagonalization with overlap
     ethr =  6.01E-09,  avg # of iterations =  1.0

     total cpu time spent up to now is     4570.6 secs

     total energy              =  -14694.00903768 Ry
     Harris-Foulkes estimate   =  -14694.00903724 Ry
     estimated scf accuracy    <       0.00002856 Ry

     total magnetization       =    -0.00 Bohr mag/cell
     absolute magnetization    =    37.25 Bohr mag/cell

     iteration # 32     ecut=    45.00 Ry     beta= 0.10
     Davidson diagonalization with overlap
     ethr =  6.01E-09,  avg # of iterations =  1.0

     total cpu time spent up to now is     4687.4 secs

     total energy              =  -14694.00903797 Ry
     Harris-Foulkes estimate   =  -14694.00903758 Ry
     estimated scf accuracy    <       0.00002614 Ry

     total magnetization       =    -0.00 Bohr mag/cell
     absolute magnetization    =    37.25 Bohr mag/cell

     iteration # 33     ecut=    45.00 Ry     beta= 0.10
     Davidson diagonalization with overlap
     ethr =  6.01E-09,  avg # of iterations =  1.0

     total cpu time spent up to now is     4803.3 secs

     total energy              =  -14694.00903880 Ry
     Harris-Foulkes estimate   =  -14694.00903845 Ry
     estimated scf accuracy    <       0.00000132 Ry

     total magnetization       =     0.00 Bohr mag/cell
     absolute magnetization    =    37.26 Bohr mag/cell

     iteration # 34     ecut=    45.00 Ry     beta= 0.10
     Davidson diagonalization with overlap
     ethr =  4.47E-10,  avg # of iterations =  2.0

     total cpu time spent up to now is     4937.0 secs

     total energy              =  -14694.00903902 Ry
     Harris-Foulkes estimate   =  -14694.00903862 Ry
     estimated scf accuracy    <       0.00003259 Ry

     total magnetization       =     0.00 Bohr mag/cell
     absolute magnetization    =    37.26 Bohr mag/cell

     iteration # 35     ecut=    45.00 Ry     beta= 0.10
     Davidson diagonalization with overlap
     ethr =  4.47E-10,  avg # of iterations =  1.6

     total cpu time spent up to now is     5070.2 secs

     total energy              =  -14694.00903915 Ry
     Harris-Foulkes estimate   =  -14694.00903884 Ry
     estimated scf accuracy    <       0.00000917 Ry

     total magnetization       =     0.00 Bohr mag/cell
     absolute magnetization    =    37.26 Bohr mag/cell

     iteration # 36     ecut=    45.00 Ry     beta= 0.10
     Davidson diagonalization with overlap
     ethr =  4.47E-10,  avg # of iterations =  1.4

     total cpu time spent up to now is     5191.5 secs

     total energy              =  -14694.00903896 Ry
     Harris-Foulkes estimate   =  -14694.00903864 Ry
     estimated scf accuracy    <       0.00002103 Ry

     total magnetization       =     0.00 Bohr mag/cell
     absolute magnetization    =    37.26 Bohr mag/cell

     iteration # 37     ecut=    45.00 Ry     beta= 0.10
     Davidson diagonalization with overlap
     ethr =  4.47E-10,  avg # of iterations =  1.3

     total cpu time spent up to now is     5311.7 secs

     total energy              =  -14694.00903946 Ry
     Harris-Foulkes estimate   =  -14694.00903915 Ry
     estimated scf accuracy    <       0.00000247 Ry

     total magnetization       =    -0.00 Bohr mag/cell
     absolute magnetization    =    37.26 Bohr mag/cell

     iteration # 38     ecut=    45.00 Ry     beta= 0.10
     Davidson diagonalization with overlap
     ethr =  4.47E-10,  avg # of iterations =  1.2

     total cpu time spent up to now is     5430.1 secs

     total energy              =  -14694.00903974 Ry
     Harris-Foulkes estimate   =  -14694.00903941 Ry
     estimated scf accuracy    <       0.00000215 Ry

     total magnetization       =     0.00 Bohr mag/cell
     absolute magnetization    =    37.26 Bohr mag/cell

     iteration # 39     ecut=    45.00 Ry     beta= 0.10
     Davidson diagonalization with overlap
     ethr =  4.47E-10,  avg # of iterations =  1.4

     total cpu time spent up to now is     5552.7 secs

     total energy              =  -14694.00903988 Ry
     Harris-Foulkes estimate   =  -14694.00903969 Ry
     estimated scf accuracy    <       0.00000870 Ry

     total magnetization       =     0.00 Bohr mag/cell
     absolute magnetization    =    37.26 Bohr mag/cell

     iteration # 40     ecut=    45.00 Ry     beta= 0.10
     Davidson diagonalization with overlap
     ethr =  4.47E-10,  avg # of iterations =  1.2

     total cpu time spent up to now is     5670.2 secs

     total energy              =  -14694.00904024 Ry
     Harris-Foulkes estimate   =  -14694.00904008 Ry
     estimated scf accuracy    <       0.00000879 Ry

     total magnetization       =    -0.00 Bohr mag/cell
     absolute magnetization    =    37.26 Bohr mag/cell

     iteration # 41     ecut=    45.00 Ry     beta= 0.10
     Davidson diagonalization with overlap
     ethr =  4.47E-10,  avg # of iterations =  1.0

     total cpu time spent up to now is     5785.4 secs

     total energy              =  -14694.00904034 Ry
     Harris-Foulkes estimate   =  -14694.00904010 Ry
     estimated scf accuracy    <       0.00001238 Ry

     total magnetization       =    -0.00 Bohr mag/cell
     absolute magnetization    =    37.26 Bohr mag/cell

     iteration # 42     ecut=    45.00 Ry     beta= 0.10
     Davidson diagonalization with overlap
     ethr =  4.47E-10,  avg # of iterations =  1.1

     total cpu time spent up to now is     5901.4 secs

     total energy              =  -14694.00904051 Ry
     Harris-Foulkes estimate   =  -14694.00904036 Ry
     estimated scf accuracy    <       0.00000914 Ry

     total magnetization       =    -0.00 Bohr mag/cell
     absolute magnetization    =    37.26 Bohr mag/cell

     iteration # 43     ecut=    45.00 Ry     beta= 0.10
     Davidson diagonalization with overlap
     ethr =  4.47E-10,  avg # of iterations =  1.0

     total cpu time spent up to now is     6018.8 secs

     total energy              =  -14694.00904074 Ry
     Harris-Foulkes estimate   =  -14694.00904056 Ry
     estimated scf accuracy    <       0.00001401 Ry

     total magnetization       =    -0.00 Bohr mag/cell
     absolute magnetization    =    37.26 Bohr mag/cell

     iteration # 44     ecut=    45.00 Ry     beta= 0.10
     Davidson diagonalization with overlap
     ethr =  4.47E-10,  avg # of iterations =  1.0

     total cpu time spent up to now is     6137.8 secs

     total energy              =  -14694.00904101 Ry
     Harris-Foulkes estimate   =  -14694.00904093 Ry
     estimated scf accuracy    <       0.00001587 Ry

     total magnetization       =    -0.00 Bohr mag/cell
     absolute magnetization    =    37.26 Bohr mag/cell

     iteration # 45     ecut=    45.00 Ry     beta= 0.10
     Davidson diagonalization with overlap
     ethr =  4.47E-10,  avg # of iterations =  1.0

     total cpu time spent up to now is     6252.6 secs

     total energy              =  -14694.00904115 Ry
     Harris-Foulkes estimate   =  -14694.00904106 Ry
     estimated scf accuracy    <       0.00000155 Ry

     total magnetization       =     0.00 Bohr mag/cell
     absolute magnetization    =    37.26 Bohr mag/cell

     iteration # 46     ecut=    45.00 Ry     beta= 0.10
     Davidson diagonalization with overlap
     ethr =  4.47E-10,  avg # of iterations =  1.0

     total cpu time spent up to now is     6367.7 secs

     total energy              =  -14694.00904152 Ry
     Harris-Foulkes estimate   =  -14694.00904138 Ry
     estimated scf accuracy    <       0.00001019 Ry

     total magnetization       =     0.00 Bohr mag/cell
     absolute magnetization    =    37.26 Bohr mag/cell

     iteration # 47     ecut=    45.00 Ry     beta= 0.10
     Davidson diagonalization with overlap
     ethr =  4.47E-10,  avg # of iterations =  1.0

     total cpu time spent up to now is     6483.9 secs

     total energy              =  -14694.00904146 Ry
     Harris-Foulkes estimate   =  -14694.00904153 Ry
     estimated scf accuracy    <       0.00000148 Ry

     total magnetization       =     0.00 Bohr mag/cell
     absolute magnetization    =    37.26 Bohr mag/cell

     iteration # 48     ecut=    45.00 Ry     beta= 0.10
     Davidson diagonalization with overlap
     ethr =  4.47E-10,  avg # of iterations =  1.0

     total cpu time spent up to now is     6598.4 secs

     total energy              =  -14694.00904214 Ry
     Harris-Foulkes estimate   =  -14694.00904199 Ry
     estimated scf accuracy    <       0.00000103 Ry

     total magnetization       =    -0.00 Bohr mag/cell
     absolute magnetization    =    37.26 Bohr mag/cell

     iteration # 49     ecut=    45.00 Ry     beta= 0.10
     Davidson diagonalization with overlap
     ethr =  3.47E-10,  avg # of iterations =  1.0
 
     Magnetic moment per site:
     atom:    1    charge:   13.5492    magn:    4.2284    constr:    0.0000
     atom:    2    charge:   13.5493    magn:    4.2286    constr:    0.0000
     atom:    3    charge:   13.5491    magn:   -4.2284    constr:    0.0000
     atom:    4    charge:   13.5493    magn:   -4.2285    constr:    0.0000
     atom:    5    charge:   13.5491    magn:    4.2287    constr:    0.0000
     atom:    6    charge:   13.5493    magn:    4.2284    constr:    0.0000
     atom:    7    charge:   13.5492    magn:   -4.2285    constr:    0.0000
     atom:    8    charge:   13.5493    magn:   -4.2286    constr:    0.0000
     atom:    9    charge:    9.1227    magn:    0.0376    constr:    0.0000
     atom:   10    charge:    9.1228    magn:    0.0376    constr:    0.0000
     atom:   11    charge:    9.1226    magn:    0.0435    constr:    0.0000
     atom:   12    charge:    9.1224    magn:   -0.0436    constr:    0.0000
     atom:   13    charge:    9.1227    magn:   -0.0377    constr:    0.0000
     atom:   14    charge:    9.1228    magn:   -0.0377    constr:    0.0000
     atom:   15    charge:    9.1226    magn:   -0.0435    constr:    0.0000
     atom:   16    charge:    9.1225    magn:    0.0435    constr:    0.0000
     atom:   17    charge:    9.1227    magn:    0.0377    constr:    0.0000
     atom:   18    charge:    9.1228    magn:    0.0377    constr:    0.0000
     atom:   19    charge:    9.1226    magn:    0.0436    constr:    0.0000
     atom:   20    charge:    9.1225    magn:   -0.0435    constr:    0.0000
     atom:   21    charge:    9.1228    magn:   -0.0377    constr:    0.0000
     atom:   22    charge:    9.1229    magn:   -0.0377    constr:    0.0000
     atom:   23    charge:    9.1226    magn:   -0.0435    constr:    0.0000
     atom:   24    charge:    9.1225    magn:    0.0435    constr:    0.0000

     total cpu time spent up to now is     6715.3 secs

     End of self-consistent calculation
 --- enter write_ns ---
 LDA+U parameters:
U(  1) =   3.1200   J(  1) =   0.7000   B(  1) =   0.0803
U(  2) =   3.1200   J(  2) =   0.7000   B(  2) =   0.0803
atom    1   Tr[ns(na)] (up, down, total) =   4.97117  0.74435  5.71552
   spin  1
    eigenvalues: 
  0.985  0.994  0.994  0.996  1.002
    eigenvectors:
  0.000  0.000  0.000  1.000  0.000
  0.000  0.305  0.695  0.000  0.000
  0.000  0.695  0.305  0.000  0.000
  0.000  0.000  0.000  0.000  1.000
  1.000  0.000  0.000  0.000  0.000
    occupations:
  0.996 -0.000 -0.000  0.000  0.000
 -0.000  0.994 -0.000  0.000  0.000
 -0.000 -0.000  0.994  0.000  0.000
  0.000  0.000  0.000  1.002 -0.000
  0.000  0.000  0.000 -0.000  0.985
   spin  2
    eigenvalues: 
  0.064  0.134  0.145  0.145  0.257
    eigenvectors:
  0.000  1.000  0.000  0.000  0.000
  0.000  0.000  0.263  0.737  0.000
  0.000  0.000  0.737  0.263  0.000
  1.000  0.000  0.000  0.000  0.000
  0.000  0.000  0.000  0.000  1.000
    occupations:
  0.134 -0.000 -0.000  0.000  0.000
 -0.000  0.145 -0.000  0.000  0.000
 -0.000 -0.000  0.145  0.000  0.000
  0.000  0.000  0.000  0.064 -0.000
  0.000  0.000  0.000 -0.000  0.257
atomic mag. moment =     4.226825
atom    2   Tr[ns(na)] (up, down, total) =   4.97118  0.74419  5.71536
   spin  1
    eigenvalues: 
  0.984  0.994  0.994  0.996  1.002
    eigenvectors:
  0.000  0.000  0.000  1.000  0.000
  0.000  0.305  0.695  0.000  0.000
  0.000  0.695  0.305  0.000  0.000
  0.000  0.000  0.000  0.000  1.000
  1.000  0.000  0.000  0.000  0.000
    occupations:
  0.996 -0.000 -0.000  0.000  0.000
 -0.000  0.994 -0.000  0.000  0.000
 -0.000 -0.000  0.994  0.000  0.000
  0.000  0.000  0.000  1.002 -0.000
  0.000  0.000  0.000 -0.000  0.984
   spin  2
    eigenvalues: 
  0.064  0.134  0.145  0.145  0.257
    eigenvectors:
  0.000  1.000  0.000  0.000  0.000
  0.000  0.000  0.292  0.708  0.000
  0.000  0.000  0.708  0.292  0.000
  1.000  0.000  0.000  0.000  0.000
  0.000  0.000  0.000  0.000  1.000
    occupations:
  0.134 -0.000 -0.000  0.000  0.000
 -0.000  0.145 -0.000  0.000  0.000
 -0.000 -0.000  0.145  0.000  0.000
  0.000  0.000  0.000  0.064 -0.000
  0.000  0.000  0.000 -0.000  0.257
atomic mag. moment =     4.226986
atom    3   Tr[ns(na)] (up, down, total) =   0.74423  4.97117  5.71540
   spin  1
    eigenvalues: 
  0.064  0.134  0.144  0.144  0.257
    eigenvectors:
  0.000  1.000  0.000  0.000  0.000
  0.000  0.000  0.372  0.628  0.000
  0.000  0.000  0.628  0.372  0.000
  1.000  0.000  0.000  0.000  0.000
  0.000  0.000  0.000  0.000  1.000
    occupations:
  0.134 -0.000 -0.000  0.000  0.000
 -0.000  0.144 -0.000  0.000  0.000
 -0.000 -0.000  0.144  0.000  0.000
  0.000  0.000  0.000  0.064 -0.000
  0.000  0.000  0.000 -0.000  0.257
   spin  2
    eigenvalues: 
  0.984  0.994  0.994  0.996  1.002
    eigenvectors:
  0.000  0.000  0.000  1.000  0.000
  0.000  0.263  0.737  0.000  0.000
  0.000  0.737  0.263  0.000  0.000
  0.000  0.000  0.000  0.000  1.000
  1.000  0.000  0.000  0.000  0.000
    occupations:
  0.996 -0.000 -0.000  0.000  0.000
 -0.000  0.994 -0.000  0.000  0.000
 -0.000 -0.000  0.994  0.000  0.000
  0.000  0.000  0.000  1.002 -0.000
  0.000  0.000  0.000 -0.000  0.984
atomic mag. moment =    -4.226933
atom    4   Tr[ns(na)] (up, down, total) =   0.74421  4.97116  5.71538
   spin  1
    eigenvalues: 
  0.064  0.134  0.145  0.145  0.257
    eigenvectors:
  0.000  1.000  0.000  0.000  0.000
  0.000  0.000  0.362  0.638  0.000
  0.000  0.000  0.638  0.362  0.000
  1.000  0.000  0.000  0.000  0.000
  0.000  0.000  0.000  0.000  1.000
    occupations:
  0.134 -0.000 -0.000  0.000  0.000
 -0.000  0.145 -0.000  0.000  0.000
 -0.000 -0.000  0.145  0.000  0.000
  0.000  0.000  0.000  0.064 -0.000
  0.000  0.000  0.000 -0.000  0.257
   spin  2
    eigenvalues: 
  0.985  0.994  0.994  0.996  1.002
    eigenvectors:
  0.000  0.000  0.000  1.000  0.000
  0.000  0.293  0.707  0.000  0.000
  0.000  0.707  0.293  0.000  0.000
  0.000  0.000  0.000  0.000  1.000
  1.000  0.000  0.000  0.000  0.000
    occupations:
  0.996 -0.000 -0.000  0.000  0.000
 -0.000  0.994 -0.000  0.000  0.000
 -0.000 -0.000  0.994  0.000  0.000
  0.000  0.000  0.000  1.002 -0.000
  0.000  0.000  0.000 -0.000  0.985
atomic mag. moment =    -4.226952
atom    5   Tr[ns(na)] (up, down, total) =   4.97118  0.74407  5.71525
   spin  1
    eigenvalues: 
  0.985  0.994  0.994  0.996  1.002
    eigenvectors:
  0.000  0.000  0.000  1.000  0.000
  0.000  0.285  0.715  0.000  0.000
  0.000  0.715  0.285  0.000  0.000
  0.000  0.000  0.000  0.000  1.000
  1.000  0.000  0.000  0.000  0.000
    occupations:
  0.996 -0.000 -0.000  0.000  0.000
 -0.000  0.994 -0.000  0.000  0.000
 -0.000 -0.000  0.994  0.000  0.000
  0.000  0.000  0.000  1.002 -0.000
  0.000  0.000  0.000 -0.000  0.985
   spin  2
    eigenvalues: 
  0.064  0.134  0.144  0.144  0.257
    eigenvectors:
  0.000  1.000  0.000  0.000  0.000
  0.000  0.000  0.389  0.611  0.000
  0.000  0.000  0.611  0.389  0.000
  1.000  0.000  0.000  0.000  0.000
  0.000  0.000  0.000  0.000  1.000
    occupations:
  0.134 -0.000 -0.000  0.000  0.000
 -0.000  0.144 -0.000  0.000  0.000
 -0.000 -0.000  0.144  0.000  0.000
  0.000  0.000  0.000  0.064 -0.000
  0.000  0.000  0.000 -0.000  0.257
atomic mag. moment =     4.227105
atom    6   Tr[ns(na)] (up, down, total) =   4.97116  0.74431  5.71548
   spin  1
    eigenvalues: 
  0.984  0.994  0.994  0.996  1.002
    eigenvectors:
  0.000  0.000  0.000  1.000  0.000
  0.000  0.299  0.701  0.000  0.000
  0.000  0.701  0.299  0.000  0.000
  0.000  0.000  0.000  0.000  1.000
  1.000  0.000  0.000  0.000  0.000
    occupations:
  0.996 -0.000 -0.000  0.000  0.000
 -0.000  0.994 -0.000  0.000  0.000
 -0.000 -0.000  0.994  0.000  0.000
  0.000  0.000  0.000  1.002 -0.000
  0.000  0.000  0.000 -0.000  0.984
   spin  2
    eigenvalues: 
  0.064  0.134  0.145  0.145  0.257
    eigenvectors:
  0.000  1.000  0.000  0.000  0.000
  0.000  0.000  0.301  0.699  0.000
  0.000  0.000  0.699  0.301  0.000
  1.000  0.000  0.000  0.000  0.000
  0.000  0.000  0.000  0.000  1.000
    occupations:
  0.134 -0.000 -0.000  0.000  0.000
 -0.000  0.145 -0.000  0.000  0.000
 -0.000 -0.000  0.145  0.000  0.000
  0.000  0.000  0.000  0.064 -0.000
  0.000  0.000  0.000 -0.000  0.257
atomic mag. moment =     4.226849
atom    7   Tr[ns(na)] (up, down, total) =   0.74431  4.97119  5.71549
   spin  1
    eigenvalues: 
  0.064  0.134  0.145  0.145  0.257
    eigenvectors:
  0.000  1.000  0.000  0.000  0.000
  0.000  0.000  0.272  0.728  0.000
  0.000  0.000  0.728  0.272  0.000
  1.000  0.000  0.000  0.000  0.000
  0.000  0.000  0.000  0.000  1.000
    occupations:
  0.134 -0.000 -0.000  0.000  0.000
 -0.000  0.145 -0.000  0.000  0.000
 -0.000 -0.000  0.145  0.000  0.000
  0.000  0.000  0.000  0.064 -0.000
  0.000  0.000  0.000 -0.000  0.257
   spin  2
    eigenvalues: 
  0.984  0.994  0.994  0.996  1.002
    eigenvectors:
  0.000  0.000  0.000  1.000  0.000
  0.000  0.361  0.639  0.000  0.000
  0.000  0.639  0.361  0.000  0.000
  0.000  0.000  0.000  0.000  1.000
  1.000  0.000  0.000  0.000  0.000
    occupations:
  0.996 -0.000 -0.000  0.000  0.000
 -0.000  0.994 -0.000  0.000  0.000
 -0.000 -0.000  0.994  0.000  0.000
  0.000  0.000  0.000  1.002 -0.000
  0.000  0.000  0.000 -0.000  0.984
atomic mag. moment =    -4.226878
atom    8   Tr[ns(na)] (up, down, total) =   0.74421  4.97117  5.71538
   spin  1
    eigenvalues: 
  0.064  0.134  0.145  0.145  0.257
    eigenvectors:
  0.000  1.000  0.000  0.000  0.000
  0.000  0.000  0.300  0.700  0.000
  0.000  0.000  0.700  0.300  0.000
  1.000  0.000  0.000  0.000  0.000
  0.000  0.000  0.000  0.000  1.000
    occupations:
  0.134 -0.000 -0.000  0.000  0.000
 -0.000  0.145 -0.000  0.000  0.000
 -0.000 -0.000  0.145  0.000  0.000
  0.000  0.000  0.000  0.064 -0.000
  0.000  0.000  0.000 -0.000  0.257
   spin  2
    eigenvalues: 
  0.985  0.994  0.994  0.996  1.002
    eigenvectors:
  0.000  0.000  0.000  1.000  0.000
  0.000  0.286  0.714  0.000  0.000
  0.000  0.714  0.286  0.000  0.000
  0.000  0.000  0.000  0.000  1.000
  1.000  0.000  0.000  0.000  0.000
    occupations:
  0.996 -0.000 -0.000  0.000  0.000
 -0.000  0.994 -0.000  0.000  0.000
 -0.000 -0.000  0.994  0.000  0.000
  0.000  0.000  0.000  1.002 -0.000
  0.000  0.000  0.000 -0.000  0.985
atomic mag. moment =    -4.226968
N of occupied +U levels =   45.723258
 --- exit write_ns ---

 ------ SPIN UP ------------


          k = 0.0000 0.0000 0.0000 ( 13925 PWs)   bands (ev):

   -66.7154 -66.7149 -66.7147 -66.7146 -62.1328 -62.1327 -62.1324 -62.1321
   -35.4870 -35.4866 -35.4863 -35.4860 -35.4322 -35.4322 -35.4316 -35.4316
   -35.4316 -35.4316 -35.4316 -35.4316 -30.9601 -30.9601 -30.9596 -30.9594
   -30.9510 -30.9510 -30.9510 -30.9510 -30.9508 -30.9508 -30.9505 -30.9505
     5.7776   5.8713   6.0083   6.3683   6.4028   6.9929   7.1063   7.6149
     8.3545   8.4100   8.4111   8.4312   8.4499   8.7000   8.7212   8.7288
     8.8058   8.8495   9.0060   9.0936   9.1258   9.1807   9.2878   9.2966
     9.3535   9.3685   9.4554   9.4895   9.8475   9.8926   9.9045   9.9188
     9.9195   9.9466  10.1296  10.1296  10.1686  10.1738  10.1767  10.1767
    10.1886  10.1886  10.2604  10.2984  10.3357  10.3357  10.3521  10.3521
    10.5000  10.5017  10.5447  10.5652  10.5876  10.5876  10.5899  10.5899
    10.6067  10.6067  10.6082  10.6082  10.6099  10.6636  10.6964  10.6964
    10.7272  10.7272  10.9377  10.9531  10.9531  11.0467  11.0467  11.0507
    11.0854  11.1113  11.1684  11.2488  11.2784  11.2945  11.3598  11.3598
    11.5272  11.5272  11.6322  11.6672  11.7249  11.7454  11.7539  11.7653
    11.7966  11.7966  11.9584  11.9584  12.0273  12.0958  12.0958  12.1003
    12.1025  12.1051  12.1805  12.2416  12.5557  12.5557  12.5750  12.5750
    12.6804  12.6878  12.8203  12.9300  12.9938  12.9952  13.1970  13.6472
    13.9040  14.5310  15.4738  15.9528  16.8153  16.8153  16.8212  16.8212
    16.9865  16.9866  17.0405  17.0406  17.1066  17.1066  17.1174  17.1174
    17.1330  17.1330  17.1861  17.1861  17.5182  17.5425  17.6044  17.6243
    18.6223  19.4610  19.9028  20.1047  20.1047  20.4138  20.4138  20.5933
    20.5933  21.4981

          k = 0.0000 0.0000 0.0242 ( 13893 PWs)   bands (ev):

   -66.7154 -66.7149 -66.7147 -66.7146 -62.1328 -62.1327 -62.1324 -62.1321
   -35.4870 -35.4866 -35.4863 -35.4860 -35.4322 -35.4322 -35.4316 -35.4316
   -35.4316 -35.4316 -35.4316 -35.4316 -30.9601 -30.9601 -30.9596 -30.9594
   -30.9510 -30.9510 -30.9510 -30.9510 -30.9508 -30.9508 -30.9505 -30.9505
     5.7862   5.8471   6.0504   6.2530   6.5334   6.8606   7.2413   7.5543
     8.4101   8.4109   8.4121   8.4337   8.4468   8.6647   8.7223   8.7277
     8.7794   8.8279   9.0343   9.1136   9.1319   9.1696   9.2857   9.3100
     9.3596   9.3903   9.4225   9.4792   9.8542   9.8861   9.9117   9.9189
     9.9194   9.9413  10.1329  10.1329  10.1588  10.1588  10.1693  10.1730
    10.2133  10.2133  10.2664  10.2928  10.2928  10.2933  10.4017  10.4017
    10.5048  10.5104  10.5339  10.5339  10.5349  10.5550  10.5898  10.5898
    10.5902  10.5902  10.6210  10.6574  10.6676  10.6676  10.6955  10.6955
    10.7441  10.7441  10.8918  10.8918  10.9519  11.0288  11.0892  11.1075
    11.1123  11.1123  11.1863  11.2403  11.2807  11.2921  11.3057  11.3057
    11.5797  11.5797  11.6371  11.6618  11.7279  11.7425  11.7535  11.7535
    11.7557  11.7637  11.9908  11.9908  12.0363  12.0818  12.0818  12.0888
    12.1006  12.1022  12.1946  12.2354  12.5588  12.5588  12.5723  12.5723
    12.6815  12.6867  12.8309  12.9043  12.9941  12.9950  13.2512  13.5356
    14.0360  14.4436  15.5575  15.8896  16.8161  16.8161  16.8203  16.8203
    16.9865  16.9866  17.0405  17.0406  17.1082  17.1082  17.1159  17.1159
    17.1330  17.1330  17.1861  17.1861  17.5243  17.5407  17.6076  17.6217
    18.7006  19.2250  20.1296  20.1296  20.1840  20.3165  20.3165  20.7289
    20.7289  21.1221

          k = 0.0000 0.0000-0.0484 ( 13878 PWs)   bands (ev):

   -66.7154 -66.7149 -66.7147 -66.7146 -62.1328 -62.1327 -62.1324 -62.1321
   -35.4870 -35.4866 -35.4863 -35.4860 -35.4322 -35.4322 -35.4316 -35.4316
   -35.4316 -35.4316 -35.4316 -35.4316 -30.9601 -30.9601 -30.9596 -30.9594
   -30.9510 -30.9510 -30.9510 -30.9510 -30.9508 -30.9508 -30.9505 -30.9505
     5.8109   5.8110   6.1400   6.1401   6.6925   6.6926   7.4122   7.4123
     8.4105   8.4106   8.4399   8.4400   8.5411   8.5411   8.7249   8.7250
     8.7919   8.7920   9.0874   9.0874   9.1486   9.1487   9.3366   9.3367
     9.3477   9.3478   9.4430   9.4431   9.8701   9.8703   9.9191   9.9192
     9.9272   9.9274  10.1426  10.1426  10.1427  10.1427  10.1711  10.1713
    10.2496  10.2496  10.2496  10.2496  10.2802  10.2803  10.4649  10.4649
    10.4650  10.4650  10.5178  10.5178  10.5319  10.5321  10.5898  10.5898
    10.5901  10.5901  10.6411  10.6412  10.6904  10.6904  10.6907  10.6907
    10.8074  10.8074  10.8075  10.8075  10.9874  10.9875  11.0983  11.0985
    11.2103  11.2103  11.2104  11.2104  11.2170  11.2171  11.2863  11.2864
    11.6492  11.6493  11.6692  11.6692  11.6693  11.6693  11.7352  11.7353
    11.7596  11.7598  12.0430  12.0430  12.0431  12.0431  12.0598  12.0599
    12.1013  12.1015  12.2179  12.2181  12.5656  12.5656  12.5659  12.5659
    12.6840  12.6842  12.8614  12.8615  12.9945  12.9947  13.3773  13.3774
    14.2496  14.2497  15.7323  15.7324  16.8179  16.8179  16.8185  16.8185
    16.9865  16.9866  17.0405  17.0406  17.1117  17.1117  17.1124  17.1124
    17.1330  17.1330  17.1861  17.1861  17.5343  17.5347  17.6149  17.6150
    18.9176  18.9177  20.2027  20.2027  20.2028  20.2028  20.6360  20.6360
    20.9577  20.9577

          k = 0.0000 0.1250 0.0000 ( 13879 PWs)   bands (ev):

   -66.7151 -66.7146 -66.7144 -66.7143 -62.1328 -62.1327 -62.1324 -62.1321
   -35.4869 -35.4864 -35.4862 -35.4859 -35.4340 -35.4334 -35.4333 -35.4333
   -35.4321 -35.4315 -35.4315 -35.4315 -30.9599 -30.9599 -30.9594 -30.9592
   -30.9532 -30.9532 -30.9529 -30.9527 -30.9509 -30.9509 -30.9506 -30.9504
     6.0211   6.1124   6.2455   6.5931   6.6275   7.1992   7.2815   7.7687
     8.3560   8.5189   8.5351   8.5436   8.5466   8.7252   8.7390   8.8167
     8.8323   8.9494   9.0144   9.0146   9.2114   9.2375   9.2431   9.2716
     9.3295   9.3673   9.4678   9.6046   9.6519   9.6921   9.8123   9.8197
     9.8768   9.8836   9.8975  10.0005  10.0124  10.0316  10.0350  10.0868
    10.1410  10.1414  10.2097  10.2264  10.2714  10.2747  10.2991  10.3912
    10.3966  10.4068  10.4399  10.5240  10.5290  10.5429  10.6015  10.6464
    10.6511  10.6573  10.6871  10.7710  10.8242  10.8257  10.8396  10.8492
    10.8912  10.9638  11.0285  11.0577  11.0881  11.1318  11.1459  11.1493
    11.2188  11.2515  11.2622  11.2779  11.3104  11.3427  11.3994  11.4411
    11.4894  11.4952  11.6766  11.7001  11.7491  11.7874  11.7919  11.7939
    11.8005  11.8637  11.9020  11.9185  12.0596  12.0682  12.0855  12.0863
    12.0908  12.1065  12.4017  12.4041  12.4265  12.4386  12.4468  12.4625
    12.7544  12.8519  12.8534  12.8638  12.8715  12.9002  13.1685  13.7228
    13.9470  14.6739  15.5674  16.0874  16.5236  16.6405  16.9048  16.9052
    16.9157  16.9505  16.9959  17.0006  17.0377  17.0415  17.0830  17.0878
    17.0966  17.1009  17.2551  17.2563  17.4835  17.5395  17.7064  17.9721
    18.7064  18.7284  18.9629  19.2151  19.8477  19.9427  20.0012  20.1658
    20.7341  20.9393

          k = 0.0000 0.1250 0.0242 ( 13869 PWs)   bands (ev):

   -66.7151 -66.7146 -66.7144 -66.7143 -62.1328 -62.1327 -62.1324 -62.1321
   -35.4869 -35.4864 -35.4862 -35.4859 -35.4340 -35.4334 -35.4333 -35.4333
   -35.4321 -35.4315 -35.4315 -35.4315 -30.9599 -30.9599 -30.9594 -30.9592
   -30.9532 -30.9532 -30.9529 -30.9527 -30.9509 -30.9509 -30.9506 -30.9504
     6.0294   6.0889   6.2864   6.4825   6.7524   7.0656   7.4165   7.7110
     8.4064   8.5215   8.5331   8.5442   8.5443   8.6403   8.7831   8.8143
     8.8406   8.9150   9.0408   9.0461   9.1994   9.2228   9.2504   9.2819
     9.3248   9.3365   9.5033   9.5970   9.6513   9.6846   9.8133   9.8185
     9.8780   9.8827   9.9108   9.9777  10.0149  10.0284  10.0517  10.0829
    10.1410  10.1414  10.2109  10.2212  10.2776  10.2879  10.2946  10.3699
    10.3969  10.3996  10.4498  10.5044  10.5607  10.5644  10.5981  10.6443
    10.6445  10.6664  10.6844  10.7130  10.8243  10.8255  10.8449  10.8791
    10.9055  10.9819  11.0169  11.0466  11.0893  11.1139  11.1497  11.1728
    11.2108  11.2153  11.2635  11.2759  11.3334  11.3441  11.3969  11.4115
    11.5248  11.5401  11.6665  11.6939  11.7004  11.7252  11.7908  11.7926
    11.8682  11.8685  11.9242  11.9437  12.0363  12.0624  12.0752  12.0892
    12.0906  12.1026  12.4098  12.4132  12.4294  12.4363  12.4413  12.4558
    12.7680  12.8520  12.8531  12.8640  12.8651  12.8705  13.2371  13.5786
    14.1113  14.5740  15.6582  16.0142  16.5497  16.6286  16.9048  16.9052
    16.9209  16.9455  16.9969  17.0002  17.0382  17.0409  17.0836  17.0870
    17.0973  17.1003  17.2552  17.2561  17.4895  17.5275  17.7375  17.9158
    18.7296  18.8550  18.8939  19.3147  19.5354  19.7271  20.2310  20.5002
    20.7527  20.8853

          k = 0.0000 0.1250-0.0484 ( 13868 PWs)   bands (ev):

   -66.7151 -66.7146 -66.7144 -66.7143 -62.1328 -62.1327 -62.1324 -62.1321
   -35.4869 -35.4864 -35.4862 -35.4859 -35.4340 -35.4334 -35.4333 -35.4333
   -35.4321 -35.4315 -35.4315 -35.4315 -30.9599 -30.9599 -30.9594 -30.9592
   -30.9532 -30.9532 -30.9529 -30.9527 -30.9509 -30.9509 -30.9506 -30.9504
     6.0535   6.0536   6.3732   6.3734   6.9047   6.9047   7.5774   7.5776
     8.5124   8.5125   8.5280   8.5282   8.5502   8.5503   8.8057   8.8058
     8.8692   8.8694   9.0701   9.0701   9.1944   9.1945   9.2769   9.2770
     9.3144   9.3145   9.5585   9.5587   9.6661   9.6662   9.8157   9.8159
     9.8804   9.8806   9.9419   9.9420  10.0212  10.0214  10.0710  10.0711
    10.1411  10.1414  10.2146  10.2147  10.2853  10.2854  10.3252  10.3253
    10.3978  10.3978  10.4742  10.4743  10.5856  10.5857  10.6324  10.6325
    10.6416  10.6418  10.6769  10.6771  10.8248  10.8251  10.8595  10.8596
    10.9751  10.9752  11.0165  11.0165  11.0974  11.0976  11.1674  11.1677
    11.2004  11.2005  11.2687  11.2688  11.3447  11.3449  11.3952  11.3954
    11.5999  11.6000  11.6140  11.6140  11.7037  11.7038  11.7899  11.7901
    11.8789  11.8790  11.9793  11.9793  12.0097  12.0098  12.0899  12.0901
    12.0902  12.0902  12.4267  12.4270  12.4288  12.4289  12.4398  12.4399
    12.8072  12.8073  12.8524  12.8526  12.8678  12.8680  13.3893  13.3894
    14.3551  14.3552  15.8438  15.8439  16.5949  16.5954  16.9048  16.9052
    16.9331  16.9335  16.9987  16.9988  17.0395  17.0396  17.0852  17.0852
    17.0987  17.0989  17.2555  17.2559  17.5058  17.5062  17.8157  17.8160
    18.7963  18.7964  19.1547  19.1548  19.5049  19.5050  20.4941  20.4941
    20.8064  20.8065

          k = 0.0000 0.2500 0.0000 ( 13848 PWs)   bands (ev):

   -66.7150 -66.7144 -66.7143 -66.7142 -62.1324 -62.1323 -62.1320 -62.1318
   -35.4865 -35.4860 -35.4858 -35.4855 -35.4382 -35.4376 -35.4375 -35.4375
   -35.4319 -35.4313 -35.4312 -35.4312 -30.9593 -30.9593 -30.9588 -30.9586
   -30.9585 -30.9584 -30.9582 -30.9580 -30.9506 -30.9505 -30.9503 -30.9500
     6.7097   6.7918   6.9122   7.2107   7.2421   7.7163   7.7221   8.0946
     8.2974   8.5255   8.5439   8.7137   8.7876   8.7974   8.7976   8.8635
     8.8670   8.8711   8.9545   8.9842   9.1198   9.2187   9.2330   9.2848
     9.4837   9.4855   9.4870   9.5638   9.5705   9.6266   9.6535   9.6564
     9.6621   9.7503   9.7533   9.7663   9.7931   9.8022   9.9159   9.9973
     9.9990  10.1186  10.1356  10.1480  10.1540  10.1622  10.3225  10.4033
    10.4066  10.5534  10.6108  10.6118  10.6344  10.6576  10.6934  10.8299
    10.8603  10.8846  10.8946  10.8950  10.9371  10.9569  11.0496  11.0497
    11.0935  11.1528  11.1625  11.1761  11.2748  11.3144  11.3237  11.3939
    11.3984  11.4204  11.4261  11.4419  11.4498  11.5365  11.5414  11.6002
    11.6377  11.7054  11.7122  11.7546  11.7656  11.7807  11.8282  11.8415
    11.8601  11.9057  11.9620  11.9783  12.0488  12.0493  12.0566  12.0666
    12.0704  12.2078  12.2426  12.3185  12.5229  12.5239  12.5582  12.5639
    12.5902  12.8238  12.8853  12.8922  12.9310  12.9370  13.0777  13.9157
    14.0544  14.9651  15.5246  15.9563  16.0376  16.0922  16.2358  16.3039
    16.3941  16.4170  16.7866  16.7868  17.0058  17.0061  17.0444  17.0562
    17.0691  17.0765  17.3038  17.3208  17.3312  17.3319  17.3940  17.3946
    17.7886  17.8047  17.8081  18.0906  18.5442  18.6813  18.6854  18.8168
    19.5844  20.4874

          k = 0.0000 0.2500 0.0242 ( 13862 PWs)   bands (ev):

   -66.7150 -66.7144 -66.7143 -66.7142 -62.1324 -62.1323 -62.1320 -62.1318
   -35.4865 -35.4860 -35.4858 -35.4855 -35.4382 -35.4376 -35.4375 -35.4375
   -35.4319 -35.4313 -35.4312 -35.4312 -30.9593 -30.9593 -30.9588 -30.9586
   -30.9585 -30.9584 -30.9582 -30.9580 -30.9506 -30.9505 -30.9503 -30.9500
     6.7173   6.7708   6.9480   7.1180   7.3442   7.5930   7.8413   8.0493
     8.3330   8.4685   8.5963   8.6956   8.7752   8.7914   8.8234   8.8597
     8.8690   8.8710   8.9576   8.9786   9.1335   9.2045   9.2379   9.2702
     9.4840   9.4853   9.5198   9.5648   9.5695   9.6209   9.6526   9.6596
     9.6606   9.7117   9.7523   9.7634   9.7950   9.8013   9.9649   9.9974
     9.9986  10.1221  10.1269  10.1353  10.1473  10.1502  10.3340  10.3926
    10.4298  10.5294  10.6101  10.6286  10.6298  10.6571  10.7142  10.8245
    10.8284  10.8595  10.8933  10.9150  10.9574  10.9841  11.0427  11.0542
    11.0612  11.1161  11.1966  11.2110  11.2722  11.3007  11.3327  11.3832
    11.3993  11.4116  11.4281  11.4434  11.4588  11.5303  11.5429  11.5683
    11.6463  11.6902  11.7582  11.7611  11.7784  11.7881  11.8308  11.8391
    11.8525  11.9100  11.9107  11.9864  12.0162  12.0555  12.0565  12.0614
    12.1207  12.1979  12.2541  12.3077  12.5223  12.5225  12.5648  12.5851
    12.5867  12.7475  12.8861  12.8910  12.9321  12.9363  13.1973  13.6868
    14.2933  14.8400  15.6163  15.9045  16.0379  16.0794  16.2675  16.3173
    16.3837  16.4059  16.7866  16.7867  17.0058  17.0060  17.0467  17.0552
    17.0698  17.0751  17.3090  17.3209  17.3313  17.3319  17.3940  17.3946
    17.7271  17.7526  17.9436  18.1535  18.3880  18.5036  18.8502  18.9319
    19.6255  20.1598

          k = 0.0000 0.2500-0.0484 ( 13842 PWs)   bands (ev):

   -66.7150 -66.7144 -66.7143 -66.7142 -62.1324 -62.1323 -62.1320 -62.1318
   -35.4865 -35.4860 -35.4858 -35.4855 -35.4382 -35.4376 -35.4375 -35.4375
   -35.4319 -35.4313 -35.4312 -35.4312 -30.9593 -30.9593 -30.9588 -30.9586
   -30.9585 -30.9584 -30.9582 -30.9580 -30.9506 -30.9505 -30.9503 -30.9500
     6.7390   6.7391   7.0239   7.0240   7.4667   7.4668   7.9544   7.9545
     8.3998   8.3998   8.6512   8.6512   8.7797   8.7798   8.8474   8.8475
     8.8706   8.8707   8.9668   8.9670   9.1681   9.1682   9.2508   9.2508
     9.4845   9.4847   9.5670   9.5673   9.5838   9.5839   9.6555   9.6556
     9.6691   9.6691   9.7573   9.7576   9.7985   9.7987   9.9977   9.9979
    10.0498  10.0499  10.1302  10.1303  10.1465  10.1465  10.3621  10.3623
    10.4814  10.4815  10.6180  10.6182  10.6488  10.6489  10.7647  10.7648
    10.8355  10.8356  10.9078  10.9079  11.0056  11.0057  11.0203  11.0206
    11.0793  11.0794  11.2320  11.2321  11.2728  11.2729  11.3568  11.3569
    11.4029  11.4030  11.4339  11.4341  11.4951  11.4952  11.5473  11.5476
    11.6671  11.6672  11.7712  11.7715  11.8199  11.8200  11.8306  11.8307
    11.8483  11.8484  11.9329  11.9331  12.0453  12.0453  12.0560  12.0561
    12.1683  12.1684  12.2812  12.2814  12.5215  12.5216  12.5770  12.5771
    12.6484  12.6485  12.8883  12.8885  12.9342  12.9344  13.4232  13.4233
    14.5837  14.5838  15.7743  15.7746  16.0547  16.0548  16.3151  16.3153
    16.3815  16.3817  16.7867  16.7867  17.0059  17.0059  17.0514  17.0517
    17.0721  17.0722  17.3174  17.3178  17.3313  17.3319  17.3940  17.3946
    17.7124  17.7125  18.1240  18.1240  18.3388  18.3388  18.9618  18.9619
    19.8217  19.8219

          k = 0.0000 0.3750 0.0000 ( 13856 PWs)   bands (ev):

   -66.7155 -66.7150 -66.7149 -66.7148 -62.1314 -62.1313 -62.1310 -62.1308
   -35.4861 -35.4856 -35.4854 -35.4851 -35.4422 -35.4417 -35.4416 -35.4416
   -35.4316 -35.4311 -35.4310 -35.4310 -30.9639 -30.9639 -30.9637 -30.9634
   -30.9587 -30.9587 -30.9582 -30.9581 -30.9502 -30.9502 -30.9500 -30.9497
     7.6699   7.7309   7.8162   7.9967   7.9989   8.1283   8.1550   8.2024
     8.2385   8.3442   8.3824   8.4818   8.6064   8.6750   8.8098   8.9512
     8.9515   9.0192   9.0584   9.1784   9.1794   9.2462   9.2464   9.2629
     9.2651   9.2975   9.3734   9.5064   9.5176   9.5215   9.5469   9.6054
     9.6062   9.6582   9.6736   9.8212   9.8367   9.8774   9.9419   9.9440
     9.9920  10.0375  10.0852  10.0861  10.1022  10.1634  10.2680  10.3764
    10.4469  10.5603  10.5777  10.6298  10.6471  10.6563  10.8116  10.8789
    10.9005  11.0679  11.1996  11.2015  11.2308  11.2388  11.3197  11.3366
    11.3780  11.4367  11.4640  11.4910  11.4925  11.4989  11.5174  11.5588
    11.5785  11.5840  11.6153  11.6343  11.7298  11.7321  11.7615  11.8100
    11.8188  11.8255  11.8589  11.8763  11.9491  12.0591  12.0652  12.0671
    12.0809  12.0849  12.0897  12.0928  12.1314  12.2110  12.2761  12.2822
    12.3302  12.4078  12.4109  12.4367  12.4515  12.6164  12.6550  12.6733
    12.7030  12.9636  12.9670  12.9713  12.9843  12.9886  12.9921  13.8833
    13.9503  14.0189  14.2161  14.2880  14.7161  14.7980  15.0307  15.0664
    15.5213  15.5643  15.8406  15.8490  16.7489  16.7490  16.8166  16.8242
    16.9264  16.9337  16.9337  17.0357  17.0609  17.1432  17.1902  17.2811
    17.5398  17.5404  17.5606  17.5612  17.9514  17.9778  18.1255  18.1938
    19.6921  19.8958

          k = 0.0000 0.3750 0.0242 ( 13870 PWs)   bands (ev):

[...]
    11.6158  11.6158  11.6159  11.6159  11.6899  11.6899  11.6902  11.6904
    11.8767  11.8769  11.8771  11.8771  11.9952  11.9952  11.9953  11.9953
    12.1724  12.1726  12.1726  12.1726  12.3653  12.3654  12.3655  12.3655
    12.4671  12.4671  12.4671  12.4671  12.9011  12.9012  12.9012  12.9012
    13.3759  13.3759  13.3761  13.3761  13.9809  13.9809  13.9809  13.9810
    14.5724  14.5725  14.5726  14.5727  15.2658  15.2659  15.2661  15.2662
    16.3753  16.3754  16.3757  16.3758  17.0725  17.0729  17.0731  17.0734
    17.1336  17.1336  17.1338  17.1339  17.6443  17.6444  17.6444  17.6446
    18.1126  18.1129  18.1129  18.1130  18.3334  18.3335  18.3336  18.3337
    19.8408  19.8408

          k = 0.3750 0.3750 0.0000 ( 13948 PWs)   bands (ev):

   -66.7138 -66.7137 -66.7133 -66.7131 -62.1319 -62.1315 -62.1314 -62.1314
   -35.4852 -35.4851 -35.4849 -35.4848 -35.4414 -35.4413 -35.4413 -35.4413
   -35.4408 -35.4407 -35.4405 -35.4405 -30.9628 -30.9625 -30.9625 -30.9625
   -30.9624 -30.9623 -30.9623 -30.9622 -30.9581 -30.9575 -30.9575 -30.9574
     8.0523   8.0835   8.3878   8.3929   8.4189   8.5733   8.6279   8.7040
     8.9856   8.9965   9.0125   9.0357   9.0366   9.1163   9.1527   9.2265
     9.2769   9.3061   9.3151   9.3212   9.3390   9.3784   9.4228   9.4561
     9.4601   9.4926   9.5032   9.5063   9.6403   9.6583   9.6994   9.8005
     9.9358   9.9525   9.9583   9.9963  10.0350  10.0641  10.1069  10.1188
    10.1191  10.1273  10.1534  10.1536  10.1571  10.2313  10.2570  10.3653
    10.4078  10.4489  10.5082  10.5716  10.5781  10.6223  10.6609  10.7195
    10.7202  10.7211  10.7338  10.9541  10.9988  11.0020  11.0925  11.0981
    11.1112  11.1426  11.2450  11.3862  11.4640  11.4780  11.4995  11.5346
    11.5355  11.5511  11.5669  11.6259  11.6316  11.6577  11.6957  11.6969
    11.7782  11.9210  11.9582  11.9732  11.9826  11.9834  12.0229  12.0288
    12.0294  12.0462  12.1057  12.1251  12.1394  12.2514  12.3282  12.3494
    12.3879  12.4124  12.5372  12.6171  12.6590  12.7046  12.8112  13.1312
    13.1467  13.4251  13.8081  14.0458  14.2510  14.4666  14.9708  15.0830
    15.1082  15.1866  15.3003  15.3713  15.8710  15.8895  16.1221  16.2312
    16.9387  16.9443  17.0107  17.0507  17.0726  17.1129  17.1625  17.2836
    17.3604  17.4797  17.4825  17.6282  17.7797  17.8897  18.0216  18.0380
    18.0409  18.0606  18.0619  18.2393  18.2977  18.3928  18.7156  18.7621
    18.8128  18.8882

          k = 0.3750 0.3750 0.0242 ( 13940 PWs)   bands (ev):

   -66.7138 -66.7137 -66.7133 -66.7131 -62.1319 -62.1315 -62.1314 -62.1314
   -35.4852 -35.4851 -35.4849 -35.4848 -35.4414 -35.4413 -35.4413 -35.4413
   -35.4408 -35.4407 -35.4405 -35.4405 -30.9628 -30.9625 -30.9625 -30.9625
   -30.9624 -30.9623 -30.9623 -30.9622 -30.9581 -30.9575 -30.9575 -30.9574
     8.0562   8.0782   8.3949   8.3971   8.4241   8.5236   8.6683   8.7055
     8.9864   8.9966   9.0018   9.0298   9.0530   9.1052   9.1338   9.2316
     9.2875   9.3109   9.3229   9.3347   9.3409   9.3873   9.4183   9.4349
     9.4371   9.4725   9.5198   9.5439   9.6164   9.6338   9.7468   9.8213
     9.8858   9.9525   9.9531   9.9674  10.0533  10.0697  10.1160  10.1188
    10.1191  10.1503  10.1520  10.1736  10.1854  10.1978  10.2456  10.3605
    10.4374  10.4421  10.4466  10.5458  10.6224  10.6272  10.6761  10.7143
    10.7205  10.7214  10.7602  10.9197  10.9992  11.0015  11.0927  11.0969
    11.1112  11.1238  11.2890  11.3787  11.4658  11.4756  11.5038  11.5310
    11.5381  11.5490  11.5698  11.6242  11.6268  11.6308  11.6959  11.6967
    11.8119  11.9045  11.9598  11.9700  11.9829  11.9834  12.0230  12.0246
    12.0418  12.0570  12.0949  12.0981  12.1728  12.2401  12.3305  12.3450
    12.3922  12.4093  12.5542  12.6239  12.6534  12.6610  12.8629  13.0435
    13.2333  13.3942  13.8404  13.9995  14.2957  14.4402  14.9893  15.0680
    15.1168  15.1702  15.3155  15.3636  15.8737  15.8868  16.1374  16.2143
    16.9555  16.9587  17.0015  17.0550  17.0697  17.0787  17.1742  17.2526
    17.3900  17.4669  17.5139  17.6135  17.7940  17.8723  17.9927  18.0229
    18.0400  18.0552  18.1317  18.2765  18.3387  18.3539  18.5454  18.6811
    18.8137  19.0184

          k = 0.3750 0.3750-0.0484 ( 13950 PWs)   bands (ev):

   -66.7138 -66.7137 -66.7133 -66.7131 -62.1319 -62.1315 -62.1314 -62.1314
   -35.4852 -35.4851 -35.4849 -35.4848 -35.4414 -35.4413 -35.4413 -35.4413
   -35.4408 -35.4407 -35.4405 -35.4405 -30.9628 -30.9625 -30.9625 -30.9625
   -30.9624 -30.9623 -30.9623 -30.9622 -30.9581 -30.9575 -30.9575 -30.9574
     8.0665   8.0665   8.3992   8.3993   8.4619   8.4619   8.7000   8.7000
     8.9971   8.9971   9.0046   9.0046   9.0686   9.0687   9.1802   9.1802
     9.3165   9.3166   9.3278   9.3278   9.3914   9.3914   9.4080   9.4080
     9.4294   9.4294   9.5650   9.5650   9.5976   9.5976   9.8145   9.8145
     9.8830   9.8830   9.9526   9.9527  10.0914  10.0915  10.1180  10.1181
    10.1302  10.1302  10.1516  10.1516  10.2072  10.2072  10.2929  10.2929
    10.4280  10.4280  10.4933  10.4934  10.6352  10.6352  10.6989  10.6990
    10.7215  10.7216  10.8384  10.8385  11.0003  11.0004  11.0941  11.0941
    11.1127  11.1128  11.3482  11.3482  11.4703  11.4704  11.5179  11.5179
    11.5438  11.5438  11.5842  11.5842  11.6288  11.6289  11.6963  11.6964
    11.8639  11.8640  11.9641  11.9642  11.9832  11.9833  12.0234  12.0234
    12.0644  12.0644  12.0789  12.0789  12.2108  12.2109  12.3368  12.3368
    12.4012  12.4013  12.5995  12.5996  12.6391  12.6392  12.9501  12.9501
    13.3218  13.3219  13.9153  13.9154  14.3743  14.3744  15.0302  15.0303
    15.1404  15.1404  15.3426  15.3428  15.8802  15.8802  16.1751  16.1751
    16.9797  16.9798  17.0124  17.0125  17.0626  17.0631  17.2067  17.2071
    17.4336  17.4336  17.5712  17.5712  17.8307  17.8307  17.9963  17.9964
    18.0462  18.0462  18.2365  18.2365  18.3820  18.3821  18.4884  18.4884
    18.9112  18.9114

          k = 0.3750-0.5000 0.0000 ( 13934 PWs)   bands (ev):

   -66.7138 -66.7138 -66.7133 -66.7131 -62.1316 -62.1313 -62.1312 -62.1312
   -35.4851 -35.4850 -35.4848 -35.4847 -35.4429 -35.4429 -35.4424 -35.4421
   -35.4412 -35.4411 -35.4406 -35.4403 -30.9649 -30.9646 -30.9646 -30.9645
   -30.9624 -30.9622 -30.9622 -30.9621 -30.9579 -30.9574 -30.9573 -30.9573
     8.1792   8.1797   8.2019   8.2025   8.5221   8.5223   8.6200   8.6202
     8.9183   8.9185   9.0894   9.0895   9.1638   9.1638   9.2011   9.2013
     9.2202   9.2203   9.2698   9.2698   9.2900   9.2901   9.4006   9.4007
     9.4499   9.4501   9.5676   9.5678   9.6233   9.6234   9.8686   9.8686
     9.8988   9.8988   9.9812   9.9812  10.0613  10.0614  10.0793  10.0793
    10.1070  10.1073  10.2675  10.2677  10.2733  10.2737  10.3591  10.3594
    10.4995  10.4995  10.6899  10.6901  10.7004  10.7005  10.7883  10.7883
    10.9607  10.9608  11.0533  11.0534  11.1114  11.1115  11.2068  11.2069
    11.3434  11.3437  11.3966  11.3968  11.4590  11.4593  11.5326  11.5327
    11.6200  11.6200  11.6791  11.6792  11.7852  11.7855  11.7925  11.7928
    11.9490  11.9492  11.9698  11.9700  12.0433  12.0433  12.0549  12.0549
    12.1998  12.1999  12.2127  12.2127  12.3181  12.3181  12.3263  12.3264
    12.3843  12.3843  12.5021  12.5021  13.0452  13.0453  13.1537  13.1538
    13.7801  13.7802  13.8616  13.8619  14.4308  14.4309  14.5441  14.5442
    14.9033  14.9034  14.9899  14.9901  15.9739  15.9741  15.9836  15.9838
    16.9522  16.9524  17.0044  17.0046  17.0699  17.0699  17.1440  17.1441
    17.4382  17.4383  17.6051  17.6052  17.9383  17.9384  18.0777  18.0779
    18.1485  18.1487  18.2410  18.2410  18.5921  18.5923  18.8500  18.8502
    18.8584  18.8586

          k = 0.3750-0.5000 0.0242 ( 13948 PWs)   bands (ev):

   -66.7138 -66.7138 -66.7133 -66.7131 -62.1316 -62.1313 -62.1312 -62.1312
   -35.4851 -35.4850 -35.4848 -35.4847 -35.4429 -35.4429 -35.4424 -35.4421
   -35.4412 -35.4411 -35.4406 -35.4403 -30.9649 -30.9646 -30.9646 -30.9645
   -30.9624 -30.9622 -30.9622 -30.9621 -30.9579 -30.9574 -30.9573 -30.9573
     8.1822   8.1827   8.1982   8.1987   8.5344   8.5345   8.6024   8.6026
     8.9434   8.9436   9.0618   9.0620   9.1656   9.1656   9.1839   9.1839
     9.2343   9.2343   9.2636   9.2636   9.3167   9.3168   9.3926   9.3927
     9.4582   9.4583   9.5317   9.5318   9.6670   9.6671   9.8087   9.8087
     9.9456   9.9456   9.9813   9.9813  10.0617  10.0618  10.0720  10.0721
    10.1253  10.1255  10.2367  10.2369  10.2840  10.2845  10.3383  10.3387
    10.5491  10.5491  10.6926  10.6927  10.6956  10.6957  10.7417  10.7417
    10.9944  10.9945  11.0500  11.0501  11.1190  11.1191  11.1876  11.1877
    11.3526  11.3529  11.3883  11.3885  11.4696  11.4698  11.5190  11.5191
    11.6323  11.6324  11.6724  11.6725  11.7865  11.7869  11.7917  11.7919
    11.9520  11.9522  11.9668  11.9670  12.0445  12.0445  12.0526  12.0526
    12.2003  12.2003  12.2084  12.2085  12.3229  12.3230  12.3267  12.3269
    12.3995  12.3996  12.4835  12.4835  13.0622  13.0623  13.1385  13.1386
    13.7921  13.7922  13.8495  13.8497  14.4463  14.4464  14.5257  14.5258
    14.9185  14.9186  14.9791  14.9793  15.9753  15.9755  15.9821  15.9823
    16.9622  16.9625  16.9995  16.9997  17.0751  17.0752  17.1255  17.1256
    17.4646  17.4647  17.5795  17.5796  17.9656  17.9657  18.0649  18.0651
    18.1531  18.1533  18.2116  18.2117  18.6459  18.6461  18.8480  18.8481
    18.8527  18.8534

          k = 0.3750-0.5000-0.0484 ( 13940 PWs)   bands (ev):

   -66.7138 -66.7138 -66.7133 -66.7131 -62.1316 -62.1313 -62.1312 -62.1312
   -35.4851 -35.4850 -35.4848 -35.4847 -35.4429 -35.4429 -35.4424 -35.4421
   -35.4412 -35.4411 -35.4406 -35.4403 -30.9649 -30.9646 -30.9646 -30.9645
   -30.9624 -30.9622 -30.9622 -30.9621 -30.9579 -30.9574 -30.9573 -30.9573
     8.1898   8.1898   8.1903   8.1904   8.5659   8.5660   8.5661   8.5661
     9.0013   9.0014   9.0015   9.0015   9.1714   9.1714   9.1715   9.1715
     9.2496   9.2496   9.2497   9.2497   9.3618   9.3619   9.3619   9.3620
     9.4875   9.4875   9.4876   9.4876   9.7354   9.7354   9.7355   9.7355
     9.9752   9.9753   9.9753   9.9754  10.0643  10.0643  10.0643  10.0644
    10.1744  10.1745  10.1745  10.1746  10.3092  10.3092  10.3096  10.3097
    10.6394  10.6394  10.6395  10.6395  10.7002  10.7003  10.7003  10.7004
    11.0346  11.0346  11.0346  11.0346  11.1476  11.1476  11.1477  11.1477
    11.3710  11.3710  11.3712  11.3712  11.4930  11.4930  11.4931  11.4932
    11.6546  11.6547  11.6547  11.6547  11.7893  11.7894  11.7896  11.7897
    11.9593  11.9595  11.9596  11.9596  12.0480  12.0480  12.0481  12.0481
    12.2026  12.2027  12.2027  12.2027  12.3268  12.3269  12.3269  12.3269
    12.4403  12.4404  12.4404  12.4404  13.1012  13.1012  13.1012  13.1014
    13.8207  13.8207  13.8209  13.8209  14.4846  14.4846  14.4848  14.4848
    14.9508  14.9509  14.9509  14.9510  15.9786  15.9786  15.9788  15.9788
    16.9835  16.9838  16.9838  16.9839  17.0936  17.0938  17.0940  17.0942
    17.5223  17.5224  17.5224  17.5225  18.0220  18.0222  18.0222  18.0223
    18.1713  18.1715  18.1715  18.1717  18.7584  18.7585  18.7585  18.7586
    18.8597  18.8599

          k =-0.5000-0.5000 0.0000 ( 13964 PWs)   bands (ev):

   -66.7138 -66.7138 -66.7133 -66.7131 -62.1315 -62.1311 -62.1311 -62.1310
   -35.4850 -35.4849 -35.4847 -35.4846 -35.4428 -35.4428 -35.4427 -35.4427
   -35.4422 -35.4422 -35.4419 -35.4419 -30.9646 -30.9646 -30.9644 -30.9644
   -30.9643 -30.9643 -30.9642 -30.9642 -30.9578 -30.9573 -30.9572 -30.9571
     8.0951   8.0957   8.1168   8.1173   8.4634   8.4636   8.5740   8.5742
     8.8402   8.8404   9.0858   9.0858   9.2092   9.2096   9.2566   9.2566
     9.2903   9.2903   9.3093   9.3093   9.4103   9.4105   9.4284   9.4284
     9.4471   9.4471   9.6814   9.6814   9.6935   9.6935   9.9279   9.9287
     9.9306   9.9306   9.9307   9.9307   9.9792   9.9799  10.0175  10.0175
    10.0593  10.0593  10.0711  10.0711  10.1246  10.1246  10.4807  10.4807
    10.6127  10.6128  10.6189  10.6190  10.6730  10.6730  11.1094  11.1094
    11.1338  11.1340  11.1391  11.1394  11.2423  11.2423  11.4236  11.4237
    11.4314  11.4314  11.4910  11.4912  11.4915  11.4919  11.5984  11.5984
    11.9616  11.9618  11.9619  11.9619  11.9870  11.9873  11.9873  11.9873
    12.0533  12.0535  12.0535  12.0535  12.0804  12.0806  12.0806  12.0806
    12.2002  12.2003  12.2164  12.2164  12.2241  12.2241  12.3237  12.3237
    12.3372  12.3372  12.3853  12.3853  13.3966  13.3968  13.3968  13.3971
    13.8625  13.8625  14.0388  14.0388  14.4457  14.4457  14.6046  14.6046
    15.2309  15.2309  15.2598  15.2598  16.5860  16.5860  16.6828  16.6832
    16.6843  16.6847  16.7018  16.7018  16.9609  16.9611  16.9753  16.9754
    17.4182  17.4182  17.7661  17.7662  17.8596  17.8597  17.8979  17.8979
    18.1294  18.1296  18.1296  18.1966  18.1967  18.2834  18.2834  18.3089
    18.3090  18.8820

          k =-0.5000-0.5000 0.0242 ( 13960 PWs)   bands (ev):

   -66.7138 -66.7138 -66.7133 -66.7131 -62.1315 -62.1311 -62.1311 -62.1310
   -35.4850 -35.4849 -35.4847 -35.4846 -35.4428 -35.4428 -35.4427 -35.4427
   -35.4422 -35.4422 -35.4419 -35.4419 -30.9646 -30.9646 -30.9644 -30.9644
   -30.9643 -30.9643 -30.9642 -30.9642 -30.9578 -30.9573 -30.9572 -30.9571
     8.0980   8.0985   8.1133   8.1138   8.4765   8.4767   8.5526   8.5528
     8.8722   8.8723   9.0312   9.0313   9.2591   9.2591   9.2601   9.2604
     9.2790   9.2790   9.3264   9.3264   9.3895   9.3897   9.3928   9.3928
     9.4898   9.4898   9.6137   9.6137   9.7686   9.7686   9.9306   9.9306
     9.9307   9.9307   9.9363   9.9370   9.9487   9.9487   9.9724   9.9731
    10.0690  10.0690  10.0710  10.0710  10.1904  10.1904  10.4125  10.4125
    10.6136  10.6137  10.6180  10.6181  10.7471  10.7471  11.0142  11.0142
    11.1345  11.1348  11.1383  11.1386  11.3344  11.3344  11.4248  11.4248
    11.4302  11.4303  11.4910  11.4912  11.4915  11.4919  11.5586  11.5586
    11.9616  11.9618  11.9619  11.9619  11.9870  11.9873  11.9873  11.9873
    12.0533  12.0535  12.0535  12.0535  12.0804  12.0806  12.0806  12.0806
    12.2024  12.2024  12.2138  12.2138  12.2515  12.2515  12.3259  12.3259
    12.3354  12.3354  12.3644  12.3644  13.3966  13.3968  13.3968  13.3971
    13.8845  13.8845  14.0071  14.0071  14.4750  14.4750  14.5852  14.5852
    15.2355  15.2355  15.2559  15.2559  16.5999  16.5999  16.6807  16.6807
    16.6830  16.6834  16.6841  16.6844  16.9629  16.9631  16.9731  16.9733
    17.4716  17.4716  17.7778  17.7779  17.7857  17.7857  17.8432  17.8434
    18.1293  18.1296  18.1296  18.1298  18.2121  18.2121  18.2728  18.2728
    18.4470  18.4470

          k =-0.5000-0.5000-0.0484 ( 13992 PWs)   bands (ev):

   -66.7138 -66.7138 -66.7133 -66.7131 -62.1315 -62.1311 -62.1311 -62.1310
   -35.4850 -35.4849 -35.4847 -35.4846 -35.4428 -35.4428 -35.4427 -35.4427
   -35.4422 -35.4422 -35.4419 -35.4419 -30.9646 -30.9646 -30.9644 -30.9644
   -30.9643 -30.9643 -30.9642 -30.9642 -30.9578 -30.9573 -30.9572 -30.9571
     8.1053   8.1053   8.1058   8.1059   8.5109   8.5110   8.5111   8.5112
     8.9456   8.9456   8.9458   8.9458   9.2667   9.2667   9.2667   9.2667
     9.3339   9.3340   9.3342   9.3343   9.3562   9.3562   9.3562   9.3562
     9.5479   9.5479   9.5479   9.5479   9.8564   9.8564   9.8564   9.8564
     9.9306   9.9306   9.9307   9.9307   9.9550   9.9551   9.9557   9.9559
    10.0706  10.0706  10.0707  10.0707  10.3000  10.3000  10.3000  10.3000
    10.6158  10.6159  10.6159  10.6160  10.8769  10.8769  10.8769  10.8769
    11.1364  11.1364  11.1366  11.1367  11.4275  11.4275  11.4276  11.4276
    11.4594  11.4594  11.4595  11.4595  11.4910  11.4912  11.4915  11.4919
    11.9616  11.9618  11.9619  11.9619  11.9870  11.9873  11.9873  11.9873
    12.0533  12.0535  12.0535  12.0535  12.0804  12.0806  12.0806  12.0806
    12.2078  12.2079  12.2079  12.2080  12.3110  12.3110  12.3110  12.3110
    12.3308  12.3309  12.3309  12.3309  13.3966  13.3968  13.3968  13.3971
    13.9414  13.9414  13.9415  13.9415  14.5344  14.5344  14.5347  14.5347
    15.2460  15.2460  15.2461  15.2461  16.6368  16.6368  16.6369  16.6369
    16.6833  16.6837  16.6839  16.6840  16.9677  16.9680  16.9682  16.9683
    17.6092  17.6092  17.6093  17.6093  17.8083  17.8084  17.8085  17.8085
    18.1294  18.1296  18.1298  18.2445  18.2446  18.2448  18.2449  18.7029
    18.7039  18.7039

     the Fermi energy is    15.2347 ev

!    total energy              =  -14694.00904252 Ry
     Harris-Foulkes estimate   =  -14694.00904218 Ry
     estimated scf accuracy    <       0.00000040 Ry

     total all-electron energy =   -626921.604764 Ry

     The total energy is the sum of the following terms:

     one-electron contribution =    -714.57374735 Ry
     hartree contribution      =     656.61147935 Ry
     xc contribution           =    -737.87583243 Ry
     ewald contribution        =   -2196.78933708 Ry
     Hubbard energy            =       0.45354953 Ry
     one-center paw contrib.   =  -11701.83515455 Ry

     total magnetization       =     0.00 Bohr mag/cell
     absolute magnetization    =    37.26 Bohr mag/cell

     convergence has been achieved in  49 iterations

     Writing output data file mnau2.save/
 
     init_run     :     68.40s CPU     70.17s WALL (       1 calls)
     electrons    :   6501.76s CPU   6637.18s WALL (       1 calls)

     Called by init_run:
     wfcinit      :     64.69s CPU     66.21s WALL (       1 calls)
     potinit      :      1.66s CPU      1.72s WALL (       1 calls)
     hinit0       :      1.19s CPU      1.29s WALL (       1 calls)

     Called by electrons:
     c_bands      :   5729.66s CPU   5839.11s WALL (      49 calls)
     sum_band     :    694.80s CPU    719.51s WALL (      49 calls)
     v_of_rho     :      5.45s CPU      5.49s WALL (      50 calls)
     newd         :     19.56s CPU     19.86s WALL (      50 calls)
     PAW_pot      :     51.73s CPU     52.11s WALL (      50 calls)
     mix_rho      :      1.34s CPU      1.38s WALL (      49 calls)

     Called by c_bands:
     init_us_2    :     31.15s CPU     31.30s WALL (    9000 calls)
     cegterg      :   5510.61s CPU   5618.54s WALL (    4410 calls)

     Called by sum_band:
     sum_band:bec :     10.59s CPU     10.69s WALL (    4410 calls)
     addusdens    :     39.96s CPU     40.22s WALL (      49 calls)

     Called by *egterg:
     h_psi        :   2294.10s CPU   2362.49s WALL (   12383 calls)
     s_psi        :    458.00s CPU    458.28s WALL (   12473 calls)
     g_psi        :      5.24s CPU      5.29s WALL (    7883 calls)
     cdiaghg      :   1622.49s CPU   1659.51s WALL (   12293 calls)

     Called by h_psi:
     h_psi:pot    :   2098.48s CPU   2165.90s WALL (   12383 calls)
     h_psi:calbec :    538.88s CPU    568.81s WALL (   12383 calls)
     vloc_psi     :   1100.14s CPU   1137.26s WALL (   12383 calls)
     add_vuspsi   :    459.19s CPU    459.63s WALL (   12383 calls)
     vhpsi        :    187.70s CPU    188.58s WALL (   12383 calls)

     General routines
     calbec       :    938.43s CPU    984.16s WALL (   33676 calls)
     fft          :      3.33s CPU      3.36s WALL (    1246 calls)
     ffts         :      0.17s CPU      0.17s WALL (     198 calls)
     fftw         :   1279.04s CPU   1321.96s WALL ( 4042530 calls)
     interpolate  :      0.34s CPU      0.34s WALL (     100 calls)
     davcio       :      0.01s CPU      1.99s WALL (      90 calls)
 
     Parallel routines
     fft_scatt_xy :     98.52s CPU    101.66s WALL ( 4043974 calls)
     fft_scatt_yz :    713.31s CPU    736.52s WALL ( 4043974 calls)

     Hubbard U routines
     new_ns       :     39.02s CPU     39.76s WALL (      49 calls)
     vhpsi        :    187.70s CPU    188.58s WALL (   12383 calls)
 
     PWSCF        :     1h50m CPU       50h 1m WALL

      53h
 
   This run was terminated on:  22:53:58   8Apr2019            

=------------------------------------------------------------------------------=
   JOB DONE.
=------------------------------------------------------------------------------=
