
     Program PWSCF v.6.3MaX starts on  8Apr2019 at 22:54: 1 

     This program is part of the open-source Quantum ESPRESSO suite
     for quantum simulation of materials; please cite
         "P. Giannozzi et al., J. Phys.:Condens. Matter 21 395502 (2009);
         "P. Giannozzi et al., J. Phys.:Condens. Matter 29 465901 (2017);
          URL http://www.quantum-espresso.org", 
     in publications or presentations arising from this work. More details at
     http://www.quantum-espresso.org/quote

     Parallel version (MPI), running on    32 processors

     MPI processes distributed on     1 nodes
     R & G space division:  proc/nbgrp/npool/nimage =      32
     Waiting for input...
     Reading input from standard input

     Current dimensions of program PWSCF are:
     Max number of different atomic species (ntypx) = 10
     Max number of k-points (npk) =  40000
     Max angular momentum in pseudopotentials (lmaxx) =  3
               file Mn.pbe-spn-kjpaw_psl.0.3.1.UPF: wavefunction(s)  3P 3D renormalized
               file Mn.pbe-spn-kjpaw_psl.0.3.1.UPF: wavefunction(s)  3P 3D renormalized
               file Au.pbe-dn-kjpaw_psl.0.1.UPF: wavefunction(s)  6S 6P 5D renormalized

     Subspace diagonalization in iterative solution of the eigenvalue problem:
     one sub-group per band group will be used
     scalapack distributed-memory algorithm (size of sub-group:  4*  4 procs)

     Found symmetry operation: I + (  0.0000  0.0000  0.2500)
     This is a supercell, fractional translations are disabled
 
     Parallelization info
     --------------------
     sticks:   dense  smooth     PW     G-vecs:    dense   smooth      PW
     Min          41      18      5                11487     3460     563
     Max          42      19      6                11527     3505     606
     Sum        1313     593    177               368373   111379   18691
 


     bravais-lattice index     =            0
     lattice parameter (alat)  =       6.4153  a.u.
     unit-cell volume          =    2724.7774 (a.u.)^3
     number of atoms/cell      =           24
     number of atomic types    =            3
     number of electrons       =       296.00
     number of Kohn-Sham states=          178
     kinetic-energy cutoff     =      45.0000  Ry
     charge density cutoff     =     400.0000  Ry
     convergence threshold     =      1.0E-06
     mixing beta               =       0.0600
     number of iterations used =            8  plain     mixing
     Exchange-correlation      = SLA PW PBX PBC ( 1  4  3  4 0 0)

     celldm(1)=   6.415315  celldm(2)=   0.000000  celldm(3)=   0.000000
     celldm(4)=   0.000000  celldm(5)=   0.000000  celldm(6)=   0.000000

     crystal axes: (cart. coord. in units of alat)
               a(1) = (   1.000000   0.000000   0.000000 )  
               a(2) = (   0.000000   1.000000   0.000000 )  
               a(3) = (   0.000000   0.000000  10.319937 )  

     reciprocal axes: (cart. coord. in units 2 pi/alat)
               b(1) = (  1.000000  0.000000  0.000000 )  
               b(2) = (  0.000000  1.000000  0.000000 )  
               b(3) = (  0.000000  0.000000  0.096900 )  


     PseudoPot. # 1 for Mn read from file:
     ./pseudo/Mn.pbe-spn-kjpaw_psl.0.3.1.UPF
     MD5 check sum: 7b43a3fb0e93e198b8dd8488d8cf503e
     Pseudo is Projector augmented-wave + core cor, Zval = 15.0
     Generated using "atomic" code by A. Dal Corso v.5.0.99 svn rev. 10869
     Shape of augmentation charge: PSQ
     Using radial grid of 1187 points,  6 beta functions with: 
                l(1) =   0
                l(2) =   0
                l(3) =   1
                l(4) =   1
                l(5) =   2
                l(6) =   2
     Q(r) pseudized with 0 coefficients 


     PseudoPot. # 2 for Mn read from file:
     ./pseudo/Mn.pbe-spn-kjpaw_psl.0.3.1.UPF
     MD5 check sum: 7b43a3fb0e93e198b8dd8488d8cf503e
     Pseudo is Projector augmented-wave + core cor, Zval = 15.0
     Generated using "atomic" code by A. Dal Corso v.5.0.99 svn rev. 10869
     Shape of augmentation charge: PSQ
     Using radial grid of 1187 points,  6 beta functions with: 
                l(1) =   0
                l(2) =   0
                l(3) =   1
                l(4) =   1
                l(5) =   2
                l(6) =   2
     Q(r) pseudized with 0 coefficients 


     PseudoPot. # 3 for Au read from file:
     ./pseudo/Au.pbe-dn-kjpaw_psl.0.1.UPF
     MD5 check sum: be11e2e8e535ebe2b3ccfb4f88f554cb
     Pseudo is Projector augmented-wave + core cor, Zval = 11.0
     Generated using "atomic" code by A. Dal Corso v.5.0.2 svn rev. 9415
     Shape of augmentation charge: PSQ
     Using radial grid of 1279 points,  6 beta functions with: 
                l(1) =   0
                l(2) =   0
                l(3) =   1
                l(4) =   1
                l(5) =   2
                l(6) =   2
     Q(r) pseudized with 0 coefficients 


     atomic species   valence    mass     pseudopotential
        Mn1           15.00    54.93800     Mn( 1.00)
        Mn2           15.00    54.93800     Mn( 1.00)
        Au            11.00   196.96600     Au( 1.00)

     Starting magnetic structure 
     atomic species   magnetization
        Mn1          0.800
        Mn2         -0.800
        Au           0.000


     Full LDA+U calculation (l_max = 2) with parameters (eV):
     U(  1) =   3.1200   J(  1) =   0.7000   B(  1) =   0.0803
     U(  2) =   3.1200   J(  2) =   0.7000   B(  2) =   0.0803



     16 Sym. Ops., with inversion, found



   Cartesian axes

     site n.     atom                  positions (alat units)
         1           Mn1 tau(   1) = (   0.0000000   0.0000000   0.0000000  )
         2           Mn2 tau(   2) = (   0.5000000   0.5000000   1.2899921  )
         3           Mn1 tau(   3) = (   0.0000000   0.0000000   2.5799843  )
         4           Mn2 tau(   4) = (   0.5000000   0.5000000   3.8699764  )
         5           Mn1 tau(   5) = (   0.0000000   0.0000000   5.1599686  )
         6           Mn2 tau(   6) = (   0.5000000   0.5000000   6.4499607  )
         7           Mn1 tau(   7) = (   0.0000000   0.0000000   7.7399528  )
         8           Mn2 tau(   8) = (   0.5000000   0.5000000   9.0299450  )
         9           Au  tau(   9) = (   0.5000000   0.5000000   0.4127975  )
        10           Au  tau(  10) = (   0.0000000   0.0000000   0.8771947  )
        11           Au  tau(  11) = (   0.0000000   0.0000000   1.7027896  )
        12           Au  tau(  12) = (   0.5000000   0.5000000   2.1671868  )
        13           Au  tau(  13) = (   0.5000000   0.5000000   2.9927818  )
        14           Au  tau(  14) = (   0.0000000   0.0000000   3.4571789  )
        15           Au  tau(  15) = (   0.0000000   0.0000000   4.2827739  )
        16           Au  tau(  16) = (   0.5000000   0.5000000   4.7471711  )
        17           Au  tau(  17) = (   0.5000000   0.5000000   5.5727660  )
        18           Au  tau(  18) = (   0.0000000   0.0000000   6.0371632  )
        19           Au  tau(  19) = (   0.0000000   0.0000000   6.8627582  )
        20           Au  tau(  20) = (   0.5000000   0.5000000   7.3271553  )
        21           Au  tau(  21) = (   0.5000000   0.5000000   8.1527503  )
        22           Au  tau(  22) = (   0.0000000   0.0000000   8.6171475  )
        23           Au  tau(  23) = (   0.0000000   0.0000000   9.4427424  )
        24           Au  tau(  24) = (   0.5000000   0.5000000   9.9071396  )

     number of k points=    45 (tetrahedron method)
                       cart. coord. in units 2pi/alat
        k(    1) = (   0.0000000   0.0000000   0.0000000), wk =   0.0039062
        k(    2) = (   0.0000000   0.0000000   0.0242250), wk =   0.0078125
        k(    3) = (   0.0000000   0.0000000  -0.0484499), wk =   0.0039062
        k(    4) = (   0.0000000   0.1250000   0.0000000), wk =   0.0156250
        k(    5) = (   0.0000000   0.1250000   0.0242250), wk =   0.0312500
        k(    6) = (   0.0000000   0.1250000  -0.0484499), wk =   0.0156250
        k(    7) = (   0.0000000   0.2500000   0.0000000), wk =   0.0156250
        k(    8) = (   0.0000000   0.2500000   0.0242250), wk =   0.0312500
        k(    9) = (   0.0000000   0.2500000  -0.0484499), wk =   0.0156250
        k(   10) = (   0.0000000   0.3750000   0.0000000), wk =   0.0156250
        k(   11) = (   0.0000000   0.3750000   0.0242250), wk =   0.0312500
        k(   12) = (   0.0000000   0.3750000  -0.0484499), wk =   0.0156250
        k(   13) = (   0.0000000  -0.5000000   0.0000000), wk =   0.0078125
        k(   14) = (   0.0000000  -0.5000000   0.0242250), wk =   0.0156250
        k(   15) = (   0.0000000  -0.5000000  -0.0484499), wk =   0.0078125
        k(   16) = (   0.1250000   0.1250000   0.0000000), wk =   0.0156250
        k(   17) = (   0.1250000   0.1250000   0.0242250), wk =   0.0312500
        k(   18) = (   0.1250000   0.1250000  -0.0484499), wk =   0.0156250
        k(   19) = (   0.1250000   0.2500000   0.0000000), wk =   0.0312500
        k(   20) = (   0.1250000   0.2500000   0.0242250), wk =   0.0625000
        k(   21) = (   0.1250000   0.2500000  -0.0484499), wk =   0.0312500
        k(   22) = (   0.1250000   0.3750000   0.0000000), wk =   0.0312500
        k(   23) = (   0.1250000   0.3750000   0.0242250), wk =   0.0625000
        k(   24) = (   0.1250000   0.3750000  -0.0484499), wk =   0.0312500
        k(   25) = (   0.1250000  -0.5000000   0.0000000), wk =   0.0156250
        k(   26) = (   0.1250000  -0.5000000   0.0242250), wk =   0.0312500
        k(   27) = (   0.1250000  -0.5000000  -0.0484499), wk =   0.0156250
        k(   28) = (   0.2500000   0.2500000   0.0000000), wk =   0.0156250
        k(   29) = (   0.2500000   0.2500000   0.0242250), wk =   0.0312500
        k(   30) = (   0.2500000   0.2500000  -0.0484499), wk =   0.0156250
        k(   31) = (   0.2500000   0.3750000   0.0000000), wk =   0.0312500
        k(   32) = (   0.2500000   0.3750000   0.0242250), wk =   0.0625000
        k(   33) = (   0.2500000   0.3750000  -0.0484499), wk =   0.0312500
        k(   34) = (   0.2500000  -0.5000000   0.0000000), wk =   0.0156250
        k(   35) = (   0.2500000  -0.5000000   0.0242250), wk =   0.0312500
        k(   36) = (   0.2500000  -0.5000000  -0.0484499), wk =   0.0156250
        k(   37) = (   0.3750000   0.3750000   0.0000000), wk =   0.0156250
        k(   38) = (   0.3750000   0.3750000   0.0242250), wk =   0.0312500
        k(   39) = (   0.3750000   0.3750000  -0.0484499), wk =   0.0156250
        k(   40) = (   0.3750000  -0.5000000   0.0000000), wk =   0.0156250
        k(   41) = (   0.3750000  -0.5000000   0.0242250), wk =   0.0312500
        k(   42) = (   0.3750000  -0.5000000  -0.0484499), wk =   0.0156250
        k(   43) = (  -0.5000000  -0.5000000   0.0000000), wk =   0.0039062
        k(   44) = (  -0.5000000  -0.5000000   0.0242250), wk =   0.0078125
        k(   45) = (  -0.5000000  -0.5000000  -0.0484499), wk =   0.0039062

     Dense  grid:   368373 G-vectors     FFT dimensions: (  45,  45, 432)

     Smooth grid:   111379 G-vectors     FFT dimensions: (  27,  27, 288)

     Estimated max dynamical RAM per process >     186.81 MB

     Estimated total dynamical RAM >       5.84 GB
     Generating pointlists ...
     new r_m :   0.3377 (alat units)  2.1668 (a.u.) for type    1
     new r_m :   0.3377 (alat units)  2.1668 (a.u.) for type    2
     new r_m :   0.3377 (alat units)  2.1668 (a.u.) for type    3

     Check: negative/imaginary core charge=   -0.000006    0.000000

     Initial potential from superposition of free atoms

     starting charge  295.99426, renormalised to  296.00000
     Number of +U iterations with fixed ns =  0
     Starting occupations:
 --- enter write_ns ---
 LDA+U parameters:
U(  1) =   3.1200   J(  1) =   0.7000   B(  1) =   0.0803
U(  2) =   3.1200   J(  2) =   0.7000   B(  2) =   0.0803
atom    1   Tr[ns(na)] (up, down, total) =   5.00000  0.00000  5.00000
   spin  1
    eigenvalues: 
  1.000  1.000  1.000  1.000  1.000
    eigenvectors:
  1.000  0.000  0.000  0.000  0.000
  0.000  1.000  0.000  0.000  0.000
  0.000  0.000  1.000  0.000  0.000
  0.000  0.000  0.000  1.000  0.000
  0.000  0.000  0.000  0.000  1.000
    occupations:
  1.000  0.000  0.000  0.000  0.000
  0.000  1.000  0.000  0.000  0.000
  0.000  0.000  1.000  0.000  0.000
  0.000  0.000  0.000  1.000  0.000
  0.000  0.000  0.000  0.000  1.000
   spin  2
    eigenvalues: 
  0.000  0.000  0.000  0.000  0.000
    eigenvectors:
  1.000  0.000  0.000  0.000  0.000
  0.000  1.000  0.000  0.000  0.000
  0.000  0.000  1.000  0.000  0.000
  0.000  0.000  0.000  1.000  0.000
  0.000  0.000  0.000  0.000  1.000
    occupations:
  0.000  0.000  0.000  0.000  0.000
  0.000  0.000  0.000  0.000  0.000
  0.000  0.000  0.000  0.000  0.000
  0.000  0.000  0.000  0.000  0.000
  0.000  0.000  0.000  0.000  0.000
atomic mag. moment =     5.000000
atom    2   Tr[ns(na)] (up, down, total) =   0.00000  5.00000  5.00000
   spin  1
    eigenvalues: 
  0.000  0.000  0.000  0.000  0.000
    eigenvectors:
  1.000  0.000  0.000  0.000  0.000
  0.000  1.000  0.000  0.000  0.000
  0.000  0.000  1.000  0.000  0.000
  0.000  0.000  0.000  1.000  0.000
  0.000  0.000  0.000  0.000  1.000
    occupations:
  0.000  0.000  0.000  0.000  0.000
  0.000  0.000  0.000  0.000  0.000
  0.000  0.000  0.000  0.000  0.000
  0.000  0.000  0.000  0.000  0.000
  0.000  0.000  0.000  0.000  0.000
   spin  2
    eigenvalues: 
  1.000  1.000  1.000  1.000  1.000
    eigenvectors:
  1.000  0.000  0.000  0.000  0.000
  0.000  1.000  0.000  0.000  0.000
  0.000  0.000  1.000  0.000  0.000
  0.000  0.000  0.000  1.000  0.000
  0.000  0.000  0.000  0.000  1.000
    occupations:
  1.000  0.000  0.000  0.000  0.000
  0.000  1.000  0.000  0.000  0.000
  0.000  0.000  1.000  0.000  0.000
  0.000  0.000  0.000  1.000  0.000
  0.000  0.000  0.000  0.000  1.000
atomic mag. moment =    -5.000000
atom    3   Tr[ns(na)] (up, down, total) =   5.00000  0.00000  5.00000
   spin  1
    eigenvalues: 
  1.000  1.000  1.000  1.000  1.000
    eigenvectors:
  1.000  0.000  0.000  0.000  0.000
  0.000  1.000  0.000  0.000  0.000
  0.000  0.000  1.000  0.000  0.000
  0.000  0.000  0.000  1.000  0.000
  0.000  0.000  0.000  0.000  1.000
    occupations:
  1.000  0.000  0.000  0.000  0.000
  0.000  1.000  0.000  0.000  0.000
  0.000  0.000  1.000  0.000  0.000
  0.000  0.000  0.000  1.000  0.000
  0.000  0.000  0.000  0.000  1.000
   spin  2
    eigenvalues: 
  0.000  0.000  0.000  0.000  0.000
    eigenvectors:
  1.000  0.000  0.000  0.000  0.000
  0.000  1.000  0.000  0.000  0.000
  0.000  0.000  1.000  0.000  0.000
  0.000  0.000  0.000  1.000  0.000
  0.000  0.000  0.000  0.000  1.000
    occupations:
  0.000  0.000  0.000  0.000  0.000
  0.000  0.000  0.000  0.000  0.000
  0.000  0.000  0.000  0.000  0.000
  0.000  0.000  0.000  0.000  0.000
  0.000  0.000  0.000  0.000  0.000
atomic mag. moment =     5.000000
atom    4   Tr[ns(na)] (up, down, total) =   0.00000  5.00000  5.00000
   spin  1
    eigenvalues: 
  0.000  0.000  0.000  0.000  0.000
    eigenvectors:
  1.000  0.000  0.000  0.000  0.000
  0.000  1.000  0.000  0.000  0.000
  0.000  0.000  1.000  0.000  0.000
  0.000  0.000  0.000  1.000  0.000
  0.000  0.000  0.000  0.000  1.000
    occupations:
  0.000  0.000  0.000  0.000  0.000
  0.000  0.000  0.000  0.000  0.000
  0.000  0.000  0.000  0.000  0.000
  0.000  0.000  0.000  0.000  0.000
  0.000  0.000  0.000  0.000  0.000
   spin  2
    eigenvalues: 
  1.000  1.000  1.000  1.000  1.000
    eigenvectors:
  1.000  0.000  0.000  0.000  0.000
  0.000  1.000  0.000  0.000  0.000
  0.000  0.000  1.000  0.000  0.000
  0.000  0.000  0.000  1.000  0.000
  0.000  0.000  0.000  0.000  1.000
    occupations:
  1.000  0.000  0.000  0.000  0.000
  0.000  1.000  0.000  0.000  0.000
  0.000  0.000  1.000  0.000  0.000
  0.000  0.000  0.000  1.000  0.000
  0.000  0.000  0.000  0.000  1.000
atomic mag. moment =    -5.000000
atom    5   Tr[ns(na)] (up, down, total) =   5.00000  0.00000  5.00000
   spin  1
    eigenvalues: 
  1.000  1.000  1.000  1.000  1.000
    eigenvectors:
  1.000  0.000  0.000  0.000  0.000
  0.000  1.000  0.000  0.000  0.000
  0.000  0.000  1.000  0.000  0.000
  0.000  0.000  0.000  1.000  0.000
  0.000  0.000  0.000  0.000  1.000
    occupations:
  1.000  0.000  0.000  0.000  0.000
  0.000  1.000  0.000  0.000  0.000
  0.000  0.000  1.000  0.000  0.000
  0.000  0.000  0.000  1.000  0.000
  0.000  0.000  0.000  0.000  1.000
   spin  2
    eigenvalues: 
  0.000  0.000  0.000  0.000  0.000
    eigenvectors:
  1.000  0.000  0.000  0.000  0.000
  0.000  1.000  0.000  0.000  0.000
  0.000  0.000  1.000  0.000  0.000
  0.000  0.000  0.000  1.000  0.000
  0.000  0.000  0.000  0.000  1.000
    occupations:
  0.000  0.000  0.000  0.000  0.000
  0.000  0.000  0.000  0.000  0.000
  0.000  0.000  0.000  0.000  0.000
  0.000  0.000  0.000  0.000  0.000
  0.000  0.000  0.000  0.000  0.000
atomic mag. moment =     5.000000
atom    6   Tr[ns(na)] (up, down, total) =   0.00000  5.00000  5.00000
   spin  1
    eigenvalues: 
  0.000  0.000  0.000  0.000  0.000
    eigenvectors:
  1.000  0.000  0.000  0.000  0.000
  0.000  1.000  0.000  0.000  0.000
  0.000  0.000  1.000  0.000  0.000
  0.000  0.000  0.000  1.000  0.000
  0.000  0.000  0.000  0.000  1.000
    occupations:
  0.000  0.000  0.000  0.000  0.000
  0.000  0.000  0.000  0.000  0.000
  0.000  0.000  0.000  0.000  0.000
  0.000  0.000  0.000  0.000  0.000
  0.000  0.000  0.000  0.000  0.000
   spin  2
    eigenvalues: 
  1.000  1.000  1.000  1.000  1.000
    eigenvectors:
  1.000  0.000  0.000  0.000  0.000
  0.000  1.000  0.000  0.000  0.000
  0.000  0.000  1.000  0.000  0.000
  0.000  0.000  0.000  1.000  0.000
  0.000  0.000  0.000  0.000  1.000
    occupations:
  1.000  0.000  0.000  0.000  0.000
  0.000  1.000  0.000  0.000  0.000
  0.000  0.000  1.000  0.000  0.000
  0.000  0.000  0.000  1.000  0.000
  0.000  0.000  0.000  0.000  1.000
atomic mag. moment =    -5.000000
atom    7   Tr[ns(na)] (up, down, total) =   5.00000  0.00000  5.00000
   spin  1
    eigenvalues: 
  1.000  1.000  1.000  1.000  1.000
    eigenvectors:
  1.000  0.000  0.000  0.000  0.000
  0.000  1.000  0.000  0.000  0.000
  0.000  0.000  1.000  0.000  0.000
  0.000  0.000  0.000  1.000  0.000
  0.000  0.000  0.000  0.000  1.000
    occupations:
  1.000  0.000  0.000  0.000  0.000
  0.000  1.000  0.000  0.000  0.000
  0.000  0.000  1.000  0.000  0.000
  0.000  0.000  0.000  1.000  0.000
  0.000  0.000  0.000  0.000  1.000
   spin  2
    eigenvalues: 
  0.000  0.000  0.000  0.000  0.000
    eigenvectors:
  1.000  0.000  0.000  0.000  0.000
  0.000  1.000  0.000  0.000  0.000
  0.000  0.000  1.000  0.000  0.000
  0.000  0.000  0.000  1.000  0.000
  0.000  0.000  0.000  0.000  1.000
    occupations:
  0.000  0.000  0.000  0.000  0.000
  0.000  0.000  0.000  0.000  0.000
  0.000  0.000  0.000  0.000  0.000
  0.000  0.000  0.000  0.000  0.000
  0.000  0.000  0.000  0.000  0.000
atomic mag. moment =     5.000000
atom    8   Tr[ns(na)] (up, down, total) =   0.00000  5.00000  5.00000
   spin  1
    eigenvalues: 
  0.000  0.000  0.000  0.000  0.000
    eigenvectors:
  1.000  0.000  0.000  0.000  0.000
  0.000  1.000  0.000  0.000  0.000
  0.000  0.000  1.000  0.000  0.000
  0.000  0.000  0.000  1.000  0.000
  0.000  0.000  0.000  0.000  1.000
    occupations:
  0.000  0.000  0.000  0.000  0.000
  0.000  0.000  0.000  0.000  0.000
  0.000  0.000  0.000  0.000  0.000
  0.000  0.000  0.000  0.000  0.000
  0.000  0.000  0.000  0.000  0.000
   spin  2
    eigenvalues: 
  1.000  1.000  1.000  1.000  1.000
    eigenvectors:
  1.000  0.000  0.000  0.000  0.000
  0.000  1.000  0.000  0.000  0.000
  0.000  0.000  1.000  0.000  0.000
  0.000  0.000  0.000  1.000  0.000
  0.000  0.000  0.000  0.000  1.000
    occupations:
  1.000  0.000  0.000  0.000  0.000
  0.000  1.000  0.000  0.000  0.000
  0.000  0.000  1.000  0.000  0.000
  0.000  0.000  0.000  1.000  0.000
  0.000  0.000  0.000  0.000  1.000
atomic mag. moment =    -5.000000
N of occupied +U levels =   40.000000
 --- exit write_ns ---
 Atomic wfc used for LDA+U Projector are NOT orthogonalized
     Starting wfcs are  224 randomized atomic wfcs
     Checking if some PAW data can be deallocated... 

     total cpu time spent up to now is       79.2 secs

     Self-consistent Calculation

     iteration #  1     ecut=    45.00 Ry     beta= 0.06
     Davidson diagonalization with overlap
     ethr =  1.00E-02,  avg # of iterations =  3.9
 --- enter write_ns ---
 LDA+U parameters:
U(  1) =   3.1200   J(  1) =   0.7000   B(  1) =   0.0803
U(  2) =   3.1200   J(  2) =   0.7000   B(  2) =   0.0803
atom    1   Tr[ns(na)] (up, down, total) =   5.01729  0.40826  5.42555
   spin  1
    eigenvalues: 
  1.003  1.003  1.003  1.004  1.004
    eigenvectors:
  0.000  0.000  0.000  1.000  0.000
  0.000  0.236  0.764  0.000  0.000
  0.000  0.764  0.236  0.000  0.000
  0.000  0.000  0.000  0.000  1.000
  1.000  0.000  0.000  0.000  0.000
    occupations:
  1.004 -0.000 -0.000  0.000  0.000
 -0.000  1.003 -0.000  0.000  0.000
 -0.000 -0.000  1.003  0.000  0.000
  0.000  0.000  0.000  1.004 -0.000
  0.000  0.000  0.000 -0.000  1.003
   spin  2
    eigenvalues: 
  0.053  0.073  0.079  0.079  0.124
    eigenvectors:
  0.000  1.000  0.000  0.000  0.000
  0.000  0.000  0.300  0.700  0.000
  0.000  0.000  0.700  0.300  0.000
  1.000  0.000  0.000  0.000  0.000
  0.000  0.000  0.000  0.000  1.000
    occupations:
  0.073 -0.000 -0.000  0.000  0.000
 -0.000  0.079 -0.000  0.000  0.000
 -0.000 -0.000  0.079  0.000  0.000
  0.000  0.000  0.000  0.053 -0.000
  0.000  0.000  0.000 -0.000  0.124
atomic mag. moment =     4.609021
atom    2   Tr[ns(na)] (up, down, total) =   0.40871  5.01733  5.42604
   spin  1
    eigenvalues: 
  0.053  0.073  0.079  0.079  0.124
    eigenvectors:
  0.000  1.000  0.000  0.000  0.000
  0.000  0.000  0.320  0.680  0.000
  0.000  0.000  0.680  0.320  0.000
  1.000  0.000  0.000  0.000  0.000
  0.000  0.000  0.000  0.000  1.000
    occupations:
  0.073 -0.000 -0.000  0.000  0.000
 -0.000  0.079 -0.000  0.000  0.000
 -0.000 -0.000  0.079  0.000  0.000
  0.000  0.000  0.000  0.053 -0.000
  0.000  0.000  0.000 -0.000  0.124
   spin  2
    eigenvalues: 
  1.003  1.003  1.003  1.004  1.004
    eigenvectors:
  0.000  0.000  0.000  1.000  0.000
  0.000  0.218  0.782  0.000  0.000
  0.000  0.782  0.218  0.000  0.000
  0.000  0.000  0.000  0.000  1.000
  1.000  0.000  0.000  0.000  0.000
    occupations:
  1.004 -0.000 -0.000  0.000  0.000
 -0.000  1.003 -0.000  0.000  0.000
 -0.000 -0.000  1.003  0.000  0.000
  0.000  0.000  0.000  1.004 -0.000
  0.000  0.000  0.000 -0.000  1.003
atomic mag. moment =    -4.608622
atom    3   Tr[ns(na)] (up, down, total) =   5.01733  0.40863  5.42597
   spin  1
    eigenvalues: 
  1.003  1.003  1.003  1.004  1.004
    eigenvectors:
  0.000  0.000  0.000  1.000  0.000
  0.000  0.262  0.738  0.000  0.000
  0.000  0.738  0.262  0.000  0.000
  0.000  0.000  0.000  0.000  1.000
  1.000  0.000  0.000  0.000  0.000
    occupations:
  1.004 -0.000 -0.000  0.000  0.000
 -0.000  1.003 -0.000  0.000  0.000
 -0.000 -0.000  1.003  0.000  0.000
  0.000  0.000  0.000  1.004 -0.000
  0.000  0.000  0.000 -0.000  1.003
   spin  2
    eigenvalues: 
  0.053  0.072  0.079  0.079  0.124
    eigenvectors:
  0.000  1.000  0.000  0.000  0.000
  0.000  0.000  0.308  0.692  0.000
  0.000  0.000  0.692  0.308  0.000
  1.000  0.000  0.000  0.000  0.000
  0.000  0.000  0.000  0.000  1.000
    occupations:
  0.072 -0.000 -0.000  0.000  0.000
 -0.000  0.079 -0.000  0.000  0.000
 -0.000 -0.000  0.079  0.000  0.000
  0.000  0.000  0.000  0.053 -0.000
  0.000  0.000  0.000 -0.000  0.124
atomic mag. moment =     4.608698
atom    4   Tr[ns(na)] (up, down, total) =   0.40869  5.01734  5.42602
   spin  1
    eigenvalues: 
  0.053  0.072  0.079  0.079  0.124
    eigenvectors:
  0.000  1.000  0.000  0.000  0.000
  0.000  0.000  0.403  0.597  0.000
  0.000  0.000  0.597  0.403  0.000
  1.000  0.000  0.000  0.000  0.000
  0.000  0.000  0.000  0.000  1.000
    occupations:
  0.072 -0.000 -0.000  0.000  0.000
 -0.000  0.079 -0.000  0.000  0.000
 -0.000 -0.000  0.079  0.000  0.000
  0.000  0.000  0.000  0.053 -0.000
  0.000  0.000  0.000 -0.000  0.124
   spin  2
    eigenvalues: 
  1.003  1.003  1.003  1.004  1.004
    eigenvectors:
  0.000  0.000  0.000  1.000  0.000
  0.000  0.237  0.763  0.000  0.000
  0.000  0.763  0.237  0.000  0.000
  0.000  0.000  0.000  0.000  1.000
  1.000  0.000  0.000  0.000  0.000
    occupations:
  1.004 -0.000 -0.000  0.000  0.000
 -0.000  1.003 -0.000  0.000  0.000
 -0.000 -0.000  1.003  0.000  0.000
  0.000  0.000  0.000  1.004 -0.000
  0.000  0.000  0.000 -0.000  1.003
atomic mag. moment =    -4.608651
atom    5   Tr[ns(na)] (up, down, total) =   5.01735  0.40889  5.42624
   spin  1
    eigenvalues: 
  1.003  1.003  1.003  1.004  1.004
    eigenvectors:
  0.000  0.000  0.000  1.000  0.000
  0.000  0.406  0.594  0.000  0.000
  0.000  0.594  0.406  0.000  0.000
  0.000  0.000  0.000  0.000  1.000
  1.000  0.000  0.000  0.000  0.000
    occupations:
  1.004 -0.000 -0.000  0.000  0.000
 -0.000  1.003 -0.000  0.000  0.000
 -0.000 -0.000  1.003  0.000  0.000
  0.000  0.000  0.000  1.004 -0.000
  0.000  0.000  0.000 -0.000  1.003
   spin  2
    eigenvalues: 
  0.053  0.073  0.080  0.080  0.124
    eigenvectors:
  0.000  1.000  0.000  0.000  0.000
  0.000  0.000  0.260  0.740  0.000
  0.000  0.000  0.740  0.260  0.000
  1.000  0.000  0.000  0.000  0.000
  0.000  0.000  0.000  0.000  1.000
    occupations:
  0.073 -0.000 -0.000  0.000  0.000
 -0.000  0.080 -0.000  0.000  0.000
 -0.000 -0.000  0.080  0.000  0.000
  0.000  0.000  0.000  0.053 -0.000
  0.000  0.000  0.000 -0.000  0.124
atomic mag. moment =     4.608465
atom    6   Tr[ns(na)] (up, down, total) =   0.40869  5.01734  5.42602
   spin  1
    eigenvalues: 
  0.053  0.072  0.079  0.079  0.124
    eigenvectors:
  0.000  1.000  0.000  0.000  0.000
  0.000  0.000  0.351  0.649  0.000
  0.000  0.000  0.649  0.351  0.000
  1.000  0.000  0.000  0.000  0.000
  0.000  0.000  0.000  0.000  1.000
    occupations:
  0.072 -0.000 -0.000  0.000  0.000
 -0.000  0.079 -0.000  0.000  0.000
 -0.000 -0.000  0.079  0.000  0.000
  0.000  0.000  0.000  0.053 -0.000
  0.000  0.000  0.000 -0.000  0.124
   spin  2
    eigenvalues: 
  1.003  1.003  1.003  1.004  1.004
    eigenvectors:
  0.000  0.000  0.000  1.000  0.000
  0.000  0.327  0.673  0.000  0.000
  0.000  0.673  0.327  0.000  0.000
  0.000  0.000  0.000  0.000  1.000
  1.000  0.000  0.000  0.000  0.000
    occupations:
  1.004 -0.000 -0.000  0.000  0.000
 -0.000  1.003 -0.000  0.000  0.000
 -0.000 -0.000  1.003  0.000  0.000
  0.000  0.000  0.000  1.004 -0.000
  0.000  0.000  0.000 -0.000  1.003
atomic mag. moment =    -4.608651
atom    7   Tr[ns(na)] (up, down, total) =   5.01733  0.40863  5.42597
   spin  1
    eigenvalues: 
  1.003  1.003  1.003  1.004  1.004
    eigenvectors:
  0.000  0.000  0.000  1.000  0.000
  0.000  0.332  0.668  0.000  0.000
  0.000  0.668  0.332  0.000  0.000
  0.000  0.000  0.000  0.000  1.000
  1.000  0.000  0.000  0.000  0.000
    occupations:
  1.004 -0.000 -0.000  0.000  0.000
 -0.000  1.003 -0.000  0.000  0.000
 -0.000 -0.000  1.003  0.000  0.000
  0.000  0.000  0.000  1.004 -0.000
  0.000  0.000  0.000 -0.000  1.003
   spin  2
    eigenvalues: 
  0.053  0.072  0.079  0.079  0.124
    eigenvectors:
  0.000  1.000  0.000  0.000  0.000
  0.000  0.000  0.385  0.615  0.000
  0.000  0.000  0.615  0.385  0.000
  1.000  0.000  0.000  0.000  0.000
  0.000  0.000  0.000  0.000  1.000
    occupations:
  0.072 -0.000 -0.000  0.000  0.000
 -0.000  0.079 -0.000  0.000  0.000
 -0.000 -0.000  0.079  0.000  0.000
  0.000  0.000  0.000  0.053 -0.000
  0.000  0.000  0.000 -0.000  0.124
atomic mag. moment =     4.608698
atom    8   Tr[ns(na)] (up, down, total) =   0.40871  5.01733  5.42604
   spin  1
    eigenvalues: 
  0.053  0.073  0.079  0.079  0.124
    eigenvectors:
  0.000  1.000  0.000  0.000  0.000
  0.000  0.000  0.278  0.722  0.000
  0.000  0.000  0.722  0.278  0.000
  1.000  0.000  0.000  0.000  0.000
  0.000  0.000  0.000  0.000  1.000
    occupations:
  0.073 -0.000 -0.000  0.000  0.000
 -0.000  0.079 -0.000  0.000  0.000
 -0.000 -0.000  0.079  0.000  0.000
  0.000  0.000  0.000  0.053 -0.000
  0.000  0.000  0.000 -0.000  0.124
   spin  2
    eigenvalues: 
  1.003  1.003  1.003  1.004  1.004
    eigenvectors:
  0.000  0.000  0.000  1.000  0.000
  0.000  0.261  0.739  0.000  0.000
  0.000  0.739  0.261  0.000  0.000
  0.000  0.000  0.000  0.000  1.000
  1.000  0.000  0.000  0.000  0.000
    occupations:
  1.004 -0.000 -0.000  0.000  0.000
 -0.000  1.003 -0.000  0.000  0.000
 -0.000 -0.000  1.003  0.000  0.000
  0.000  0.000  0.000  1.004 -0.000
  0.000  0.000  0.000 -0.000  1.003
atomic mag. moment =    -4.608622
N of occupied +U levels =   43.407856
 --- exit write_ns ---

     total cpu time spent up to now is      278.7 secs

     total energy              =  -14686.74590899 Ry
     Harris-Foulkes estimate   =  -14685.83322267 Ry
     estimated scf accuracy    <      11.56343140 Ry

     total magnetization       =    -0.00 Bohr mag/cell
     absolute magnetization    =    41.67 Bohr mag/cell

     iteration #  2     ecut=    45.00 Ry     beta= 0.06
     Davidson diagonalization with overlap
     ethr =  3.91E-03,  avg # of iterations =  1.0

     total cpu time spent up to now is      400.5 secs

     total energy              =  -14692.39007608 Ry
     Harris-Foulkes estimate   =  -14686.80537160 Ry
     estimated scf accuracy    <      10.28216527 Ry

     total magnetization       =    -0.00 Bohr mag/cell
     absolute magnetization    =    41.43 Bohr mag/cell

     iteration #  3     ecut=    45.00 Ry     beta= 0.06
     Davidson diagonalization with overlap
     ethr =  3.47E-03,  avg # of iterations =  2.5

     total cpu time spent up to now is      567.5 secs

     total energy              =  -14694.28560693 Ry
     Harris-Foulkes estimate   =  -14694.31138006 Ry
     estimated scf accuracy    <      33.89812037 Ry

     total magnetization       =    -0.03 Bohr mag/cell
     absolute magnetization    =    38.51 Bohr mag/cell

     iteration #  4     ecut=    45.00 Ry     beta= 0.06
     Davidson diagonalization with overlap
     ethr =  3.47E-03,  avg # of iterations =  1.4

     total cpu time spent up to now is      695.6 secs

     total energy              =  -14695.61659859 Ry
     Harris-Foulkes estimate   =  -14694.56003283 Ry
     estimated scf accuracy    <       5.06537042 Ry

     total magnetization       =    -0.01 Bohr mag/cell
     absolute magnetization    =    38.40 Bohr mag/cell

     iteration #  5     ecut=    45.00 Ry     beta= 0.06
     Davidson diagonalization with overlap
     ethr =  1.71E-03,  avg # of iterations =  1.5

     total cpu time spent up to now is      824.0 secs

     total energy              =  -14694.07891380 Ry
     Harris-Foulkes estimate   =  -14695.77080908 Ry
     estimated scf accuracy    <       8.85786252 Ry

     total magnetization       =    -0.06 Bohr mag/cell
     absolute magnetization    =    37.10 Bohr mag/cell

     iteration #  6     ecut=    45.00 Ry     beta= 0.06
     Davidson diagonalization with overlap
     ethr =  1.71E-03,  avg # of iterations =  1.5

     total cpu time spent up to now is      952.8 secs

     total energy              =  -14693.85379853 Ry
     Harris-Foulkes estimate   =  -14694.36010683 Ry
     estimated scf accuracy    <       3.41139098 Ry

     total magnetization       =    -0.06 Bohr mag/cell
     absolute magnetization    =    38.37 Bohr mag/cell

     iteration #  7     ecut=    45.00 Ry     beta= 0.06
     Davidson diagonalization with overlap
     ethr =  1.15E-03,  avg # of iterations =  3.8

     total cpu time spent up to now is     1132.3 secs

     total energy              =  -14693.85095870 Ry
     Harris-Foulkes estimate   =  -14694.05511764 Ry
     estimated scf accuracy    <       0.51976250 Ry

     total magnetization       =     0.00 Bohr mag/cell
     absolute magnetization    =    38.18 Bohr mag/cell

     iteration #  8     ecut=    45.00 Ry     beta= 0.06
     Davidson diagonalization with overlap
     ethr =  1.76E-04,  avg # of iterations =  3.9

     total cpu time spent up to now is     1370.9 secs

     total energy              =  -14693.99461279 Ry
     Harris-Foulkes estimate   =  -14693.99097807 Ry
     estimated scf accuracy    <       0.14167749 Ry

     total magnetization       =     0.02 Bohr mag/cell
     absolute magnetization    =    37.62 Bohr mag/cell

     iteration #  9     ecut=    45.00 Ry     beta= 0.06
     Davidson diagonalization with overlap
     ethr =  4.79E-05,  avg # of iterations =  1.0

     total cpu time spent up to now is     1501.6 secs

     total energy              =  -14693.99905899 Ry
     Harris-Foulkes estimate   =  -14694.00010063 Ry
     estimated scf accuracy    <       0.29645329 Ry

     total magnetization       =     0.04 Bohr mag/cell
     absolute magnetization    =    37.67 Bohr mag/cell

     iteration # 10     ecut=    45.00 Ry     beta= 0.06
     Davidson diagonalization with overlap
     ethr =  4.79E-05,  avg # of iterations =  1.0

     total cpu time spent up to now is     1620.7 secs

     total energy              =  -14693.97734541 Ry
     Harris-Foulkes estimate   =  -14694.00413793 Ry
     estimated scf accuracy    <       0.19756295 Ry

     total magnetization       =     0.01 Bohr mag/cell
     absolute magnetization    =    37.56 Bohr mag/cell

     iteration # 11     ecut=    45.00 Ry     beta= 0.06
     Davidson diagonalization with overlap
     ethr =  4.79E-05,  avg # of iterations =  1.9

     total cpu time spent up to now is     1760.1 secs

     total energy              =  -14693.98568723 Ry
     Harris-Foulkes estimate   =  -14693.98554133 Ry
     estimated scf accuracy    <       0.05204552 Ry

     total magnetization       =     0.01 Bohr mag/cell
     absolute magnetization    =    37.63 Bohr mag/cell

     iteration # 12     ecut=    45.00 Ry     beta= 0.06
     Davidson diagonalization with overlap
     ethr =  1.76E-05,  avg # of iterations =  1.1

     total cpu time spent up to now is     1886.8 secs

     total energy              =  -14693.98466635 Ry
     Harris-Foulkes estimate   =  -14693.98630413 Ry
     estimated scf accuracy    <       0.03729032 Ry

     total magnetization       =     0.02 Bohr mag/cell
     absolute magnetization    =    37.61 Bohr mag/cell

     iteration # 13     ecut=    45.00 Ry     beta= 0.06
     Davidson diagonalization with overlap
     ethr =  1.26E-05,  avg # of iterations =  1.6

     total cpu time spent up to now is     2016.3 secs

     total energy              =  -14693.98642378 Ry
     Harris-Foulkes estimate   =  -14693.98588347 Ry
     estimated scf accuracy    <       0.01559498 Ry

     total magnetization       =     0.01 Bohr mag/cell
     absolute magnetization    =    37.60 Bohr mag/cell

     iteration # 14     ecut=    45.00 Ry     beta= 0.06
     Davidson diagonalization with overlap
     ethr =  5.27E-06,  avg # of iterations =  2.6

     total cpu time spent up to now is     2168.6 secs

     total energy              =  -14693.98744597 Ry
     Harris-Foulkes estimate   =  -14693.98686931 Ry
     estimated scf accuracy    <       0.00698209 Ry

     total magnetization       =     0.00 Bohr mag/cell
     absolute magnetization    =    37.58 Bohr mag/cell

     iteration # 15     ecut=    45.00 Ry     beta= 0.06
     Davidson diagonalization with overlap
     ethr =  2.36E-06,  avg # of iterations =  4.2

     total cpu time spent up to now is     2373.5 secs

     total energy              =  -14693.98885504 Ry
     Harris-Foulkes estimate   =  -14693.98876563 Ry
     estimated scf accuracy    <       0.00663480 Ry

     total magnetization       =    -0.00 Bohr mag/cell
     absolute magnetization    =    37.47 Bohr mag/cell

     iteration # 16     ecut=    45.00 Ry     beta= 0.06
     Davidson diagonalization with overlap
     ethr =  2.24E-06,  avg # of iterations =  1.0

     total cpu time spent up to now is     2491.7 secs

     total energy              =  -14693.98897008 Ry
     Harris-Foulkes estimate   =  -14693.98900990 Ry
     estimated scf accuracy    <       0.00148412 Ry

     total magnetization       =    -0.00 Bohr mag/cell
     absolute magnetization    =    37.48 Bohr mag/cell

     iteration # 17     ecut=    45.00 Ry     beta= 0.06
     Davidson diagonalization with overlap
     ethr =  5.01E-07,  avg # of iterations =  1.3

     total cpu time spent up to now is     2615.2 secs

     total energy              =  -14693.98913976 Ry
     Harris-Foulkes estimate   =  -14693.98904480 Ry
     estimated scf accuracy    <       0.00068927 Ry

     total magnetization       =    -0.00 Bohr mag/cell
     absolute magnetization    =    37.48 Bohr mag/cell

     iteration # 18     ecut=    45.00 Ry     beta= 0.06
     Davidson diagonalization with overlap
     c_bands:  1 eigenvalues not converged
     ethr =  2.33E-07,  avg # of iterations =  1.6

     total cpu time spent up to now is     2747.6 secs

     total energy              =  -14693.98919294 Ry
     Harris-Foulkes estimate   =  -14693.98919007 Ry
     estimated scf accuracy    <       0.00061165 Ry

     total magnetization       =    -0.00 Bohr mag/cell
     absolute magnetization    =    37.47 Bohr mag/cell

     iteration # 19     ecut=    45.00 Ry     beta= 0.06
     Davidson diagonalization with overlap
     ethr =  2.07E-07,  avg # of iterations =  1.0

     total cpu time spent up to now is     2867.6 secs

     total energy              =  -14693.98919414 Ry
     Harris-Foulkes estimate   =  -14693.98919815 Ry
     estimated scf accuracy    <       0.00046652 Ry

     total magnetization       =    -0.00 Bohr mag/cell
     absolute magnetization    =    37.47 Bohr mag/cell

     iteration # 20     ecut=    45.00 Ry     beta= 0.06
     Davidson diagonalization with overlap
     ethr =  1.58E-07,  avg # of iterations =  1.1

     total cpu time spent up to now is     2989.4 secs

     total energy              =  -14693.98922396 Ry
     Harris-Foulkes estimate   =  -14693.98921370 Ry
     estimated scf accuracy    <       0.00023393 Ry

     total magnetization       =    -0.00 Bohr mag/cell
     absolute magnetization    =    37.46 Bohr mag/cell

     iteration # 21     ecut=    45.00 Ry     beta= 0.06
     Davidson diagonalization with overlap
     ethr =  7.90E-08,  avg # of iterations =  1.1

     total cpu time spent up to now is     3108.6 secs

     total energy              =  -14693.98923261 Ry
     Harris-Foulkes estimate   =  -14693.98923159 Ry
     estimated scf accuracy    <       0.00049651 Ry

     total magnetization       =    -0.00 Bohr mag/cell
     absolute magnetization    =    37.46 Bohr mag/cell

     iteration # 22     ecut=    45.00 Ry     beta= 0.06
     Davidson diagonalization with overlap
     ethr =  7.90E-08,  avg # of iterations =  1.0

     total cpu time spent up to now is     3227.7 secs

     total energy              =  -14693.98924061 Ry
     Harris-Foulkes estimate   =  -14693.98923774 Ry
     estimated scf accuracy    <       0.00050678 Ry

     total magnetization       =    -0.00 Bohr mag/cell
     absolute magnetization    =    37.46 Bohr mag/cell

     iteration # 23     ecut=    45.00 Ry     beta= 0.06
     Davidson diagonalization with overlap
     ethr =  7.90E-08,  avg # of iterations =  1.0

     total cpu time spent up to now is     3349.5 secs

     total energy              =  -14693.98924976 Ry
     Harris-Foulkes estimate   =  -14693.98924609 Ry
     estimated scf accuracy    <       0.00018060 Ry

     total magnetization       =    -0.00 Bohr mag/cell
     absolute magnetization    =    37.46 Bohr mag/cell

     iteration # 24     ecut=    45.00 Ry     beta= 0.06
     Davidson diagonalization with overlap
     ethr =  6.10E-08,  avg # of iterations =  1.0

     total cpu time spent up to now is     3468.7 secs

     total energy              =  -14693.98925731 Ry
     Harris-Foulkes estimate   =  -14693.98925458 Ry
     estimated scf accuracy    <       0.00008692 Ry

     total magnetization       =    -0.00 Bohr mag/cell
     absolute magnetization    =    37.46 Bohr mag/cell

     iteration # 25     ecut=    45.00 Ry     beta= 0.06
     Davidson diagonalization with overlap
     ethr =  2.94E-08,  avg # of iterations =  1.0

     total cpu time spent up to now is     3587.8 secs

     total energy              =  -14693.98926265 Ry
     Harris-Foulkes estimate   =  -14693.98925987 Ry
     estimated scf accuracy    <       0.00015263 Ry

     total magnetization       =    -0.00 Bohr mag/cell
     absolute magnetization    =    37.46 Bohr mag/cell

     iteration # 26     ecut=    45.00 Ry     beta= 0.06
     Davidson diagonalization with overlap
     ethr =  2.94E-08,  avg # of iterations =  1.0

     total cpu time spent up to now is     3706.9 secs

     total energy              =  -14693.98926690 Ry
     Harris-Foulkes estimate   =  -14693.98926483 Ry
     estimated scf accuracy    <       0.00010213 Ry

     total magnetization       =    -0.00 Bohr mag/cell
     absolute magnetization    =    37.46 Bohr mag/cell

     iteration # 27     ecut=    45.00 Ry     beta= 0.06
     Davidson diagonalization with overlap
     ethr =  2.94E-08,  avg # of iterations =  1.1

     total cpu time spent up to now is     3829.5 secs

     total energy              =  -14693.98926968 Ry
     Harris-Foulkes estimate   =  -14693.98926747 Ry
     estimated scf accuracy    <       0.00010537 Ry

     total magnetization       =    -0.00 Bohr mag/cell
     absolute magnetization    =    37.46 Bohr mag/cell

     iteration # 28     ecut=    45.00 Ry     beta= 0.06
     Davidson diagonalization with overlap
     ethr =  2.94E-08,  avg # of iterations =  1.0

     total cpu time spent up to now is     3949.1 secs

     total energy              =  -14693.98927205 Ry
     Harris-Foulkes estimate   =  -14693.98927049 Ry
     estimated scf accuracy    <       0.00014524 Ry

     total magnetization       =    -0.00 Bohr mag/cell
     absolute magnetization    =    37.46 Bohr mag/cell

     iteration # 29     ecut=    45.00 Ry     beta= 0.06
     Davidson diagonalization with overlap
     ethr =  2.94E-08,  avg # of iterations =  1.0

     total cpu time spent up to now is     4067.8 secs

     total energy              =  -14693.98927476 Ry
     Harris-Foulkes estimate   =  -14693.98927262 Ry
     estimated scf accuracy    <       0.00000528 Ry

     total magnetization       =    -0.00 Bohr mag/cell
     absolute magnetization    =    37.46 Bohr mag/cell

     iteration # 30     ecut=    45.00 Ry     beta= 0.06
     Davidson diagonalization with overlap
     ethr =  1.78E-09,  avg # of iterations =  1.5

     total cpu time spent up to now is     4195.1 secs

     total energy              =  -14693.98927672 Ry
     Harris-Foulkes estimate   =  -14693.98927482 Ry
     estimated scf accuracy    <       0.00003216 Ry

     total magnetization       =    -0.00 Bohr mag/cell
     absolute magnetization    =    37.46 Bohr mag/cell

     iteration # 31     ecut=    45.00 Ry     beta= 0.06
     Davidson diagonalization with overlap
     ethr =  1.78E-09,  avg # of iterations =  1.0

     total cpu time spent up to now is     4313.2 secs

     total energy              =  -14693.98927851 Ry
     Harris-Foulkes estimate   =  -14693.98927678 Ry
     estimated scf accuracy    <       0.00003242 Ry

     total magnetization       =    -0.00 Bohr mag/cell
     absolute magnetization    =    37.46 Bohr mag/cell

     iteration # 32     ecut=    45.00 Ry     beta= 0.06
     Davidson diagonalization with overlap
     ethr =  1.78E-09,  avg # of iterations =  1.0

     total cpu time spent up to now is     4431.0 secs

     total energy              =  -14693.98927997 Ry
     Harris-Foulkes estimate   =  -14693.98927843 Ry
     estimated scf accuracy    <       0.00001864 Ry

     total magnetization       =    -0.00 Bohr mag/cell
     absolute magnetization    =    37.46 Bohr mag/cell

     iteration # 33     ecut=    45.00 Ry     beta= 0.06
     Davidson diagonalization with overlap
     ethr =  1.78E-09,  avg # of iterations =  1.0

     total cpu time spent up to now is     4549.5 secs

     total energy              =  -14693.98928148 Ry
     Harris-Foulkes estimate   =  -14693.98927995 Ry
     estimated scf accuracy    <       0.00000315 Ry

     total magnetization       =    -0.00 Bohr mag/cell
     absolute magnetization    =    37.46 Bohr mag/cell

     iteration # 34     ecut=    45.00 Ry     beta= 0.06
     Davidson diagonalization with overlap
     ethr =  1.06E-09,  avg # of iterations =  1.0

     total cpu time spent up to now is     4667.4 secs

     total energy              =  -14693.98928289 Ry
     Harris-Foulkes estimate   =  -14693.98928149 Ry
     estimated scf accuracy    <       0.00000675 Ry

     total magnetization       =    -0.00 Bohr mag/cell
     absolute magnetization    =    37.46 Bohr mag/cell

     iteration # 35     ecut=    45.00 Ry     beta= 0.06
     Davidson diagonalization with overlap
     ethr =  1.06E-09,  avg # of iterations =  1.0

     total cpu time spent up to now is     4785.0 secs

     total energy              =  -14693.98928432 Ry
     Harris-Foulkes estimate   =  -14693.98928293 Ry
     estimated scf accuracy    <       0.00000723 Ry

     total magnetization       =    -0.00 Bohr mag/cell
     absolute magnetization    =    37.46 Bohr mag/cell

     iteration # 36     ecut=    45.00 Ry     beta= 0.06
     Davidson diagonalization with overlap
     ethr =  1.06E-09,  avg # of iterations =  1.0

     total cpu time spent up to now is     4903.6 secs

     total energy              =  -14693.98928541 Ry
     Harris-Foulkes estimate   =  -14693.98928430 Ry
     estimated scf accuracy    <       0.00004495 Ry

     total magnetization       =    -0.00 Bohr mag/cell
     absolute magnetization    =    37.46 Bohr mag/cell

     iteration # 37     ecut=    45.00 Ry     beta= 0.06
     Davidson diagonalization with overlap
     ethr =  1.06E-09,  avg # of iterations =  1.0

     total cpu time spent up to now is     5023.9 secs

     total energy              =  -14693.98928619 Ry
     Harris-Foulkes estimate   =  -14693.98928547 Ry
     estimated scf accuracy    <       0.00002416 Ry

     total magnetization       =    -0.00 Bohr mag/cell
     absolute magnetization    =    37.46 Bohr mag/cell

     iteration # 38     ecut=    45.00 Ry     beta= 0.06
     Davidson diagonalization with overlap
     ethr =  1.06E-09,  avg # of iterations =  1.0

     total cpu time spent up to now is     5144.0 secs

     total energy              =  -14693.98928691 Ry
     Harris-Foulkes estimate   =  -14693.98928617 Ry
     estimated scf accuracy    <       0.00002025 Ry

     total magnetization       =    -0.00 Bohr mag/cell
     absolute magnetization    =    37.46 Bohr mag/cell

     iteration # 39     ecut=    45.00 Ry     beta= 0.06
     Davidson diagonalization with overlap
     ethr =  1.06E-09,  avg # of iterations =  1.0

     total cpu time spent up to now is     5265.3 secs

     total energy              =  -14693.98928791 Ry
     Harris-Foulkes estimate   =  -14693.98928701 Ry
     estimated scf accuracy    <       0.00000343 Ry

     total magnetization       =    -0.00 Bohr mag/cell
     absolute magnetization    =    37.46 Bohr mag/cell

     iteration # 40     ecut=    45.00 Ry     beta= 0.06
     Davidson diagonalization with overlap
     ethr =  1.06E-09,  avg # of iterations =  1.0

     total cpu time spent up to now is     5391.8 secs

     total energy              =  -14693.98928874 Ry
     Harris-Foulkes estimate   =  -14693.98928787 Ry
     estimated scf accuracy    <       0.00000221 Ry

     total magnetization       =    -0.00 Bohr mag/cell
     absolute magnetization    =    37.46 Bohr mag/cell

     iteration # 41     ecut=    45.00 Ry     beta= 0.06
     Davidson diagonalization with overlap
     ethr =  7.46E-10,  avg # of iterations =  1.0

     total cpu time spent up to now is     5510.9 secs

     total energy              =  -14693.98928953 Ry
     Harris-Foulkes estimate   =  -14693.98928877 Ry
     estimated scf accuracy    <       0.00000160 Ry

     total magnetization       =    -0.00 Bohr mag/cell
     absolute magnetization    =    37.46 Bohr mag/cell

     iteration # 42     ecut=    45.00 Ry     beta= 0.06
     Davidson diagonalization with overlap
     ethr =  5.41E-10,  avg # of iterations =  1.3

     total cpu time spent up to now is     5635.2 secs

     total energy              =  -14693.98929026 Ry
     Harris-Foulkes estimate   =  -14693.98928950 Ry
     estimated scf accuracy    <       0.00001397 Ry

     total magnetization       =    -0.00 Bohr mag/cell
     absolute magnetization    =    37.46 Bohr mag/cell

     iteration # 43     ecut=    45.00 Ry     beta= 0.06
     Davidson diagonalization with overlap
     ethr =  5.41E-10,  avg # of iterations =  1.4

     total cpu time spent up to now is     5762.2 secs

     total energy              =  -14693.98929115 Ry
     Harris-Foulkes estimate   =  -14693.98929035 Ry
     estimated scf accuracy    <       0.00000345 Ry

     total magnetization       =    -0.00 Bohr mag/cell
     absolute magnetization    =    37.46 Bohr mag/cell

     iteration # 44     ecut=    45.00 Ry     beta= 0.06
     Davidson diagonalization with overlap
     ethr =  5.41E-10,  avg # of iterations =  1.4

     total cpu time spent up to now is     5889.4 secs

     total energy              =  -14693.98929127 Ry
     Harris-Foulkes estimate   =  -14693.98929100 Ry
     estimated scf accuracy    <       0.00000266 Ry

     total magnetization       =    -0.00 Bohr mag/cell
     absolute magnetization    =    37.46 Bohr mag/cell

     iteration # 45     ecut=    45.00 Ry     beta= 0.06
     Davidson diagonalization with overlap
     ethr =  5.41E-10,  avg # of iterations =  1.1

     total cpu time spent up to now is     6009.0 secs

     total energy              =  -14693.98929188 Ry
     Harris-Foulkes estimate   =  -14693.98929167 Ry
     estimated scf accuracy    <       0.00000572 Ry

     total magnetization       =    -0.00 Bohr mag/cell
     absolute magnetization    =    37.46 Bohr mag/cell

     iteration # 46     ecut=    45.00 Ry     beta= 0.06
     Davidson diagonalization with overlap
     ethr =  5.41E-10,  avg # of iterations =  1.1

     total cpu time spent up to now is     6129.1 secs

     total energy              =  -14693.98929256 Ry
     Harris-Foulkes estimate   =  -14693.98929207 Ry
     estimated scf accuracy    <       0.00000805 Ry

     total magnetization       =    -0.00 Bohr mag/cell
     absolute magnetization    =    37.46 Bohr mag/cell

     iteration # 47     ecut=    45.00 Ry     beta= 0.06
     Davidson diagonalization with overlap
     ethr =  5.41E-10,  avg # of iterations =  1.1

     total cpu time spent up to now is     6251.9 secs

     total energy              =  -14693.98929276 Ry
     Harris-Foulkes estimate   =  -14693.98929240 Ry
     estimated scf accuracy    <       0.00000420 Ry

     total magnetization       =    -0.00 Bohr mag/cell
     absolute magnetization    =    37.46 Bohr mag/cell

     iteration # 48     ecut=    45.00 Ry     beta= 0.06
     Davidson diagonalization with overlap
     ethr =  5.41E-10,  avg # of iterations =  1.0

     total cpu time spent up to now is     6369.4 secs

     total energy              =  -14693.98929321 Ry
     Harris-Foulkes estimate   =  -14693.98929285 Ry
     estimated scf accuracy    <       0.00000444 Ry

     total magnetization       =    -0.00 Bohr mag/cell
     absolute magnetization    =    37.46 Bohr mag/cell

     iteration # 49     ecut=    45.00 Ry     beta= 0.06
     Davidson diagonalization with overlap
     ethr =  5.41E-10,  avg # of iterations =  1.0

     total cpu time spent up to now is     6487.1 secs

     total energy              =  -14693.98929376 Ry
     Harris-Foulkes estimate   =  -14693.98929337 Ry
     estimated scf accuracy    <       0.00000599 Ry

     total magnetization       =    -0.00 Bohr mag/cell
     absolute magnetization    =    37.46 Bohr mag/cell

     iteration # 50     ecut=    45.00 Ry     beta= 0.06
     Davidson diagonalization with overlap
     ethr =  5.41E-10,  avg # of iterations =  1.0

     total cpu time spent up to now is     6605.6 secs

     total energy              =  -14693.98929377 Ry
     Harris-Foulkes estimate   =  -14693.98929350 Ry
     estimated scf accuracy    <       0.00000963 Ry

     total magnetization       =    -0.00 Bohr mag/cell
     absolute magnetization    =    37.46 Bohr mag/cell

     iteration # 51     ecut=    45.00 Ry     beta= 0.06
     Davidson diagonalization with overlap
     ethr =  5.41E-10,  avg # of iterations =  1.0

     total cpu time spent up to now is     6724.5 secs

     total energy              =  -14693.98929464 Ry
     Harris-Foulkes estimate   =  -14693.98929426 Ry
     estimated scf accuracy    <       0.00000439 Ry

     total magnetization       =    -0.00 Bohr mag/cell
     absolute magnetization    =    37.46 Bohr mag/cell

     iteration # 52     ecut=    45.00 Ry     beta= 0.06
     Davidson diagonalization with overlap
     ethr =  5.41E-10,  avg # of iterations =  1.0

     total cpu time spent up to now is     6844.4 secs

     total energy              =  -14693.98929498 Ry
     Harris-Foulkes estimate   =  -14693.98929470 Ry
     estimated scf accuracy    <       0.00000456 Ry

     total magnetization       =    -0.00 Bohr mag/cell
     absolute magnetization    =    37.46 Bohr mag/cell

     iteration # 53     ecut=    45.00 Ry     beta= 0.06
     Davidson diagonalization with overlap
     ethr =  5.41E-10,  avg # of iterations =  1.0

     total cpu time spent up to now is     6963.3 secs

     total energy              =  -14693.98929511 Ry
     Harris-Foulkes estimate   =  -14693.98929483 Ry
     estimated scf accuracy    <       0.00000576 Ry

     total magnetization       =    -0.00 Bohr mag/cell
     absolute magnetization    =    37.46 Bohr mag/cell

     iteration # 54     ecut=    45.00 Ry     beta= 0.06
     Davidson diagonalization with overlap
     ethr =  5.41E-10,  avg # of iterations =  1.0

     total cpu time spent up to now is     7089.3 secs

     total energy              =  -14693.98929562 Ry
     Harris-Foulkes estimate   =  -14693.98929509 Ry
     estimated scf accuracy    <       0.00000675 Ry

     total magnetization       =    -0.00 Bohr mag/cell
     absolute magnetization    =    37.46 Bohr mag/cell

     iteration # 55     ecut=    45.00 Ry     beta= 0.06
     Davidson diagonalization with overlap
     ethr =  5.41E-10,  avg # of iterations =  1.4

     total cpu time spent up to now is     7217.5 secs

     total energy              =  -14693.98929572 Ry
     Harris-Foulkes estimate   =  -14693.98929571 Ry
     estimated scf accuracy    <       0.00001147 Ry

     total magnetization       =    -0.00 Bohr mag/cell
     absolute magnetization    =    37.46 Bohr mag/cell

     iteration # 56     ecut=    45.00 Ry     beta= 0.06
     Davidson diagonalization with overlap
     ethr =  5.41E-10,  avg # of iterations =  1.0

     total cpu time spent up to now is     7336.0 secs

     total energy              =  -14693.98929583 Ry
     Harris-Foulkes estimate   =  -14693.98929555 Ry
     estimated scf accuracy    <       0.00000314 Ry

     total magnetization       =    -0.00 Bohr mag/cell
     absolute magnetization    =    37.46 Bohr mag/cell

     iteration # 57     ecut=    45.00 Ry     beta= 0.06
     Davidson diagonalization with overlap
     ethr =  5.41E-10,  avg # of iterations =  1.0

     total cpu time spent up to now is     7455.0 secs

     total energy              =  -14693.98929606 Ry
     Harris-Foulkes estimate   =  -14693.98929580 Ry
     estimated scf accuracy    <       0.00000385 Ry

     total magnetization       =    -0.00 Bohr mag/cell
     absolute magnetization    =    37.46 Bohr mag/cell

     iteration # 58     ecut=    45.00 Ry     beta= 0.06
     Davidson diagonalization with overlap
     ethr =  5.41E-10,  avg # of iterations =  1.2

     total cpu time spent up to now is     7577.0 secs

     total energy              =  -14693.98929641 Ry
     Harris-Foulkes estimate   =  -14693.98929616 Ry
     estimated scf accuracy    <       0.00001276 Ry

     total magnetization       =    -0.00 Bohr mag/cell
     absolute magnetization    =    37.46 Bohr mag/cell

     iteration # 59     ecut=    45.00 Ry     beta= 0.06
     Davidson diagonalization with overlap
     ethr =  5.41E-10,  avg # of iterations =  1.0

     total cpu time spent up to now is     7695.7 secs

     total energy              =  -14693.98929650 Ry
     Harris-Foulkes estimate   =  -14693.98929634 Ry
     estimated scf accuracy    <       0.00001329 Ry

     total magnetization       =    -0.00 Bohr mag/cell
     absolute magnetization    =    37.46 Bohr mag/cell

     iteration # 60     ecut=    45.00 Ry     beta= 0.06
     Davidson diagonalization with overlap
     ethr =  5.41E-10,  avg # of iterations =  1.1

     total cpu time spent up to now is     7819.9 secs

     total energy              =  -14693.98929661 Ry
     Harris-Foulkes estimate   =  -14693.98929643 Ry
     estimated scf accuracy    <       0.00000297 Ry

     total magnetization       =    -0.00 Bohr mag/cell
     absolute magnetization    =    37.46 Bohr mag/cell

     iteration # 61     ecut=    45.00 Ry     beta= 0.06
     Davidson diagonalization with overlap
     ethr =  5.41E-10,  avg # of iterations =  1.0

     total cpu time spent up to now is     7939.4 secs

     total energy              =  -14693.98929712 Ry
     Harris-Foulkes estimate   =  -14693.98929693 Ry
     estimated scf accuracy    <       0.00001700 Ry

     total magnetization       =    -0.00 Bohr mag/cell
     absolute magnetization    =    37.46 Bohr mag/cell

     iteration # 62     ecut=    45.00 Ry     beta= 0.06
     Davidson diagonalization with overlap
     ethr =  5.41E-10,  avg # of iterations =  1.0

     total cpu time spent up to now is     8058.8 secs

     total energy              =  -14693.98929709 Ry
     Harris-Foulkes estimate   =  -14693.98929707 Ry
     estimated scf accuracy    <       0.00000765 Ry

     total magnetization       =    -0.00 Bohr mag/cell
     absolute magnetization    =    37.46 Bohr mag/cell

     iteration # 63     ecut=    45.00 Ry     beta= 0.06
     Davidson diagonalization with overlap
     ethr =  5.41E-10,  avg # of iterations =  1.1

     total cpu time spent up to now is     8181.4 secs

     total energy              =  -14693.98929721 Ry
     Harris-Foulkes estimate   =  -14693.98929733 Ry
     estimated scf accuracy    <       0.00001665 Ry

     total magnetization       =    -0.00 Bohr mag/cell
     absolute magnetization    =    37.46 Bohr mag/cell

     iteration # 64     ecut=    45.00 Ry     beta= 0.06
     Davidson diagonalization with overlap
     ethr =  5.41E-10,  avg # of iterations =  1.5

     total cpu time spent up to now is     8308.7 secs

     total energy              =  -14693.98929716 Ry
     Harris-Foulkes estimate   =  -14693.98929711 Ry
     estimated scf accuracy    <       0.00000682 Ry

     total magnetization       =    -0.00 Bohr mag/cell
     absolute magnetization    =    37.46 Bohr mag/cell

     iteration # 65     ecut=    45.00 Ry     beta= 0.06
     Davidson diagonalization with overlap
     ethr =  5.41E-10,  avg # of iterations =  1.0

     total cpu time spent up to now is     8428.1 secs

     total energy              =  -14693.98929757 Ry
     Harris-Foulkes estimate   =  -14693.98929714 Ry
     estimated scf accuracy    <       0.00001126 Ry

     total magnetization       =    -0.00 Bohr mag/cell
     absolute magnetization    =    37.46 Bohr mag/cell

     iteration # 66     ecut=    45.00 Ry     beta= 0.06
     Davidson diagonalization with overlap
     ethr =  5.41E-10,  avg # of iterations =  1.0

     total cpu time spent up to now is     8547.0 secs

     total energy              =  -14693.98929731 Ry
     Harris-Foulkes estimate   =  -14693.98929728 Ry
     estimated scf accuracy    <       0.00005520 Ry

     total magnetization       =    -0.00 Bohr mag/cell
     absolute magnetization    =    37.46 Bohr mag/cell

     iteration # 67     ecut=    45.00 Ry     beta= 0.06
     Davidson diagonalization with overlap
     ethr =  5.41E-10,  avg # of iterations =  1.1

     total cpu time spent up to now is     8668.5 secs

     total energy              =  -14693.98929739 Ry
     Harris-Foulkes estimate   =  -14693.98929735 Ry
     estimated scf accuracy    <       0.00004368 Ry

     total magnetization       =    -0.00 Bohr mag/cell
     absolute magnetization    =    37.47 Bohr mag/cell

     iteration # 68     ecut=    45.00 Ry     beta= 0.06
     Davidson diagonalization with overlap
     ethr =  5.41E-10,  avg # of iterations =  1.0

     total cpu time spent up to now is     8788.2 secs

     total energy              =  -14693.98929816 Ry
     Harris-Foulkes estimate   =  -14693.98929799 Ry
     estimated scf accuracy    <       0.00003006 Ry

     total magnetization       =    -0.00 Bohr mag/cell
     absolute magnetization    =    37.46 Bohr mag/cell

     iteration # 69     ecut=    45.00 Ry     beta= 0.06
     Davidson diagonalization with overlap
     ethr =  5.41E-10,  avg # of iterations =  1.0

     total cpu time spent up to now is     8908.2 secs

     total energy              =  -14693.98929802 Ry
     Harris-Foulkes estimate   =  -14693.98929795 Ry
     estimated scf accuracy    <       0.00004248 Ry

     total magnetization       =    -0.00 Bohr mag/cell
     absolute magnetization    =    37.46 Bohr mag/cell

     iteration # 70     ecut=    45.00 Ry     beta= 0.06
     Davidson diagonalization with overlap
     ethr =  5.41E-10,  avg # of iterations =  1.0

     total cpu time spent up to now is     9028.3 secs

     total energy              =  -14693.98929796 Ry
     Harris-Foulkes estimate   =  -14693.98929812 Ry
     estimated scf accuracy    <       0.00003306 Ry

     total magnetization       =    -0.00 Bohr mag/cell
     absolute magnetization    =    37.46 Bohr mag/cell

     iteration # 71     ecut=    45.00 Ry     beta= 0.06
     Davidson diagonalization with overlap
     ethr =  5.41E-10,  avg # of iterations =  1.4

     total cpu time spent up to now is     9154.2 secs

     total energy              =  -14693.98929827 Ry
     Harris-Foulkes estimate   =  -14693.98929816 Ry
     estimated scf accuracy    <       0.00000329 Ry

     total magnetization       =    -0.00 Bohr mag/cell
     absolute magnetization    =    37.47 Bohr mag/cell

     iteration # 72     ecut=    45.00 Ry     beta= 0.06
     Davidson diagonalization with overlap
     ethr =  5.41E-10,  avg # of iterations =  1.0

     total cpu time spent up to now is     9272.8 secs

     total energy              =  -14693.98929872 Ry
     Harris-Foulkes estimate   =  -14693.98929859 Ry
     estimated scf accuracy    <       0.00000430 Ry

     total magnetization       =    -0.00 Bohr mag/cell
     absolute magnetization    =    37.46 Bohr mag/cell

     iteration # 73     ecut=    45.00 Ry     beta= 0.06
     Davidson diagonalization with overlap
     ethr =  5.41E-10,  avg # of iterations =  1.0

     total cpu time spent up to now is     9391.7 secs

     total energy              =  -14693.98929890 Ry
     Harris-Foulkes estimate   =  -14693.98929890 Ry
     estimated scf accuracy    <       0.00001010 Ry

     total magnetization       =    -0.00 Bohr mag/cell
     absolute magnetization    =    37.46 Bohr mag/cell

     iteration # 74     ecut=    45.00 Ry     beta= 0.06
     Davidson diagonalization with overlap
     ethr =  5.41E-10,  avg # of iterations =  1.0

     total cpu time spent up to now is     9510.5 secs

     total energy              =  -14693.98929914 Ry
     Harris-Foulkes estimate   =  -14693.98929903 Ry
     estimated scf accuracy    <       0.00002379 Ry

     total magnetization       =    -0.00 Bohr mag/cell
     absolute magnetization    =    37.46 Bohr mag/cell

     iteration # 75     ecut=    45.00 Ry     beta= 0.06
     Davidson diagonalization with overlap
     ethr =  5.41E-10,  avg # of iterations =  1.0

     total cpu time spent up to now is     9629.5 secs

     total energy              =  -14693.98929920 Ry
     Harris-Foulkes estimate   =  -14693.98929903 Ry
     estimated scf accuracy    <       0.00002095 Ry

     total magnetization       =    -0.00 Bohr mag/cell
     absolute magnetization    =    37.46 Bohr mag/cell

     iteration # 76     ecut=    45.00 Ry     beta= 0.06
     Davidson diagonalization with overlap
     ethr =  5.41E-10,  avg # of iterations =  1.0

     total cpu time spent up to now is     9748.9 secs

     total energy              =  -14693.98929901 Ry
     Harris-Foulkes estimate   =  -14693.98929909 Ry
     estimated scf accuracy    <       0.00003417 Ry

     total magnetization       =    -0.00 Bohr mag/cell
     absolute magnetization    =    37.47 Bohr mag/cell

     iteration # 77     ecut=    45.00 Ry     beta= 0.06
     Davidson diagonalization with overlap
     ethr =  5.41E-10,  avg # of iterations =  1.0

     total cpu time spent up to now is     9868.4 secs

     total energy              =  -14693.98929873 Ry
     Harris-Foulkes estimate   =  -14693.98929908 Ry
     estimated scf accuracy    <       0.00001370 Ry

     total magnetization       =     0.00 Bohr mag/cell
     absolute magnetization    =    37.47 Bohr mag/cell

     iteration # 78     ecut=    45.00 Ry     beta= 0.06
     Davidson diagonalization with overlap
     ethr =  5.41E-10,  avg # of iterations =  1.1

     total cpu time spent up to now is     9990.0 secs

     total energy              =  -14693.98929874 Ry
     Harris-Foulkes estimate   =  -14693.98929855 Ry
     estimated scf accuracy    <       0.00001322 Ry

     total magnetization       =     0.00 Bohr mag/cell
     absolute magnetization    =    37.47 Bohr mag/cell

     iteration # 79     ecut=    45.00 Ry     beta= 0.06
     Davidson diagonalization with overlap
     ethr =  5.41E-10,  avg # of iterations =  1.0

     total cpu time spent up to now is    10108.3 secs

     total energy              =  -14693.98929879 Ry
     Harris-Foulkes estimate   =  -14693.98929877 Ry
     estimated scf accuracy    <       0.00000875 Ry

     total magnetization       =     0.00 Bohr mag/cell
     absolute magnetization    =    37.47 Bohr mag/cell

     iteration # 80     ecut=    45.00 Ry     beta= 0.06
     Davidson diagonalization with overlap
     ethr =  5.41E-10,  avg # of iterations =  1.0

     total cpu time spent up to now is    10227.0 secs

     total energy              =  -14693.98929869 Ry
     Harris-Foulkes estimate   =  -14693.98929873 Ry
     estimated scf accuracy    <       0.00000414 Ry

     total magnetization       =     0.00 Bohr mag/cell
     absolute magnetization    =    37.47 Bohr mag/cell

     iteration # 81     ecut=    45.00 Ry     beta= 0.06
     Davidson diagonalization with overlap
     ethr =  5.41E-10,  avg # of iterations =  1.0

     total cpu time spent up to now is    10347.6 secs

     total energy              =  -14693.98929871 Ry
     Harris-Foulkes estimate   =  -14693.98929867 Ry
     estimated scf accuracy    <       0.00000728 Ry

     total magnetization       =     0.00 Bohr mag/cell
     absolute magnetization    =    37.47 Bohr mag/cell

     iteration # 82     ecut=    45.00 Ry     beta= 0.06
     Davidson diagonalization with overlap
     ethr =  5.41E-10,  avg # of iterations =  1.0

     total cpu time spent up to now is    10469.4 secs

     total energy              =  -14693.98929866 Ry
     Harris-Foulkes estimate   =  -14693.98929870 Ry
     estimated scf accuracy    <       0.00000232 Ry

     total magnetization       =     0.00 Bohr mag/cell
     absolute magnetization    =    37.47 Bohr mag/cell

     iteration # 83     ecut=    45.00 Ry     beta= 0.06
     Davidson diagonalization with overlap
     ethr =  5.41E-10,  avg # of iterations =  1.0

     total cpu time spent up to now is    10589.2 secs

     total energy              =  -14693.98929865 Ry
     Harris-Foulkes estimate   =  -14693.98929860 Ry
     estimated scf accuracy    <       0.00000419 Ry

     total magnetization       =     0.00 Bohr mag/cell
     absolute magnetization    =    37.47 Bohr mag/cell

     iteration # 84     ecut=    45.00 Ry     beta= 0.06
     Davidson diagonalization with overlap
     ethr =  5.41E-10,  avg # of iterations =  1.0

     total cpu time spent up to now is    10709.6 secs

     total energy              =  -14693.98929874 Ry
     Harris-Foulkes estimate   =  -14693.98929874 Ry
     estimated scf accuracy    <       0.00000319 Ry

     total magnetization       =     0.00 Bohr mag/cell
     absolute magnetization    =    37.47 Bohr mag/cell

     iteration # 85     ecut=    45.00 Ry     beta= 0.06
     Davidson diagonalization with overlap
     ethr =  5.41E-10,  avg # of iterations =  1.0
 
     Magnetic moment per site:
     atom:    1    charge:   13.5421    magn:    4.2706    constr:    0.0000
     atom:    2    charge:   13.5421    magn:   -4.2718    constr:    0.0000
     atom:    3    charge:   13.5417    magn:    4.2735    constr:    0.0000
     atom:    4    charge:   13.5420    magn:   -4.2718    constr:    0.0000
     atom:    5    charge:   13.5421    magn:    4.2699    constr:    0.0000
     atom:    6    charge:   13.5420    magn:   -4.2718    constr:    0.0000
     atom:    7    charge:   13.5417    magn:    4.2735    constr:    0.0000
     atom:    8    charge:   13.5421    magn:   -4.2718    constr:    0.0000
     atom:    9    charge:    9.1253    magn:    0.0394    constr:    0.0000
     atom:   10    charge:    9.1254    magn:   -0.0391    constr:    0.0000
     atom:   11    charge:    9.1256    magn:   -0.0385    constr:    0.0000
     atom:   12    charge:    9.1255    magn:    0.0387    constr:    0.0000
     atom:   13    charge:    9.1255    magn:    0.0385    constr:    0.0000
     atom:   14    charge:    9.1256    magn:   -0.0386    constr:    0.0000
     atom:   15    charge:    9.1254    magn:   -0.0394    constr:    0.0000
     atom:   16    charge:    9.1253    magn:    0.0392    constr:    0.0000
     atom:   17    charge:    9.1253    magn:    0.0392    constr:    0.0000
     atom:   18    charge:    9.1254    magn:   -0.0394    constr:    0.0000
     atom:   19    charge:    9.1256    magn:   -0.0386    constr:    0.0000
     atom:   20    charge:    9.1255    magn:    0.0385    constr:    0.0000
     atom:   21    charge:    9.1255    magn:    0.0387    constr:    0.0000
     atom:   22    charge:    9.1256    magn:   -0.0385    constr:    0.0000
     atom:   23    charge:    9.1254    magn:   -0.0391    constr:    0.0000
     atom:   24    charge:    9.1253    magn:    0.0394    constr:    0.0000

     total cpu time spent up to now is    10830.5 secs

     End of self-consistent calculation
 --- enter write_ns ---
 LDA+U parameters:
U(  1) =   3.1200   J(  1) =   0.7000   B(  1) =   0.0803
U(  2) =   3.1200   J(  2) =   0.7000   B(  2) =   0.0803
atom    1   Tr[ns(na)] (up, down, total) =   4.97412  0.70829  5.68241
   spin  1
    eigenvalues: 
  0.985  0.994  0.994  0.998  1.003
    eigenvectors:
  0.000  0.000  0.000  1.000  0.000
  0.000  0.348  0.652  0.000  0.000
  0.000  0.652  0.348  0.000  0.000
  0.000  0.000  0.000  0.000  1.000
  1.000  0.000  0.000  0.000  0.000
    occupations:
  0.998 -0.000 -0.000  0.000  0.000
 -0.000  0.994 -0.000  0.000  0.000
 -0.000 -0.000  0.994  0.000  0.000
  0.000  0.000  0.000  1.003 -0.000
  0.000  0.000  0.000 -0.000  0.985
   spin  2
    eigenvalues: 
  0.067  0.116  0.143  0.143  0.239
    eigenvectors:
  0.000  1.000  0.000  0.000  0.000
  0.000  0.000  0.307  0.693  0.000
  0.000  0.000  0.693  0.307  0.000
  1.000  0.000  0.000  0.000  0.000
  0.000  0.000  0.000  0.000  1.000
    occupations:
  0.116 -0.000 -0.000  0.000  0.000
 -0.000  0.143 -0.000  0.000  0.000
 -0.000 -0.000  0.143  0.000  0.000
  0.000  0.000  0.000  0.067 -0.000
  0.000  0.000  0.000 -0.000  0.239
atomic mag. moment =     4.265835
atom    2   Tr[ns(na)] (up, down, total) =   0.70748  4.97430  5.68178
   spin  1
    eigenvalues: 
  0.067  0.114  0.144  0.144  0.238
    eigenvectors:
  0.000  1.000  0.000  0.000  0.000
  0.000  0.000  0.282  0.718  0.000
  0.000  0.000  0.718  0.282  0.000
  1.000  0.000  0.000  0.000  0.000
  0.000  0.000  0.000  0.000  1.000
    occupations:
  0.114 -0.000 -0.000  0.000  0.000
 -0.000  0.144 -0.000  0.000  0.000
 -0.000 -0.000  0.144  0.000  0.000
  0.000  0.000  0.000  0.067 -0.000
  0.000  0.000  0.000 -0.000  0.238
   spin  2
    eigenvalues: 
  0.985  0.994  0.994  0.998  1.003
    eigenvectors:
  0.000  0.000  0.000  1.000  0.000
  0.000  0.358  0.642  0.000  0.000
  0.000  0.642  0.358  0.000  0.000
  0.000  0.000  0.000  0.000  1.000
  1.000  0.000  0.000  0.000  0.000
    occupations:
  0.998 -0.000 -0.000  0.000  0.000
 -0.000  0.994 -0.000  0.000  0.000
 -0.000 -0.000  0.994  0.000  0.000
  0.000  0.000  0.000  1.003 -0.000
  0.000  0.000  0.000 -0.000  0.985
atomic mag. moment =    -4.266820
atom    3   Tr[ns(na)] (up, down, total) =   4.97452  0.70608  5.68060
   spin  1
    eigenvalues: 
  0.985  0.994  0.994  0.998  1.003
    eigenvectors:
  0.000  0.000  0.000  1.000  0.000
  0.000  0.271  0.729  0.000  0.000
  0.000  0.729  0.271  0.000  0.000
  0.000  0.000  0.000  0.000  1.000
  1.000  0.000  0.000  0.000  0.000
    occupations:
  0.998 -0.000 -0.000  0.000  0.000
 -0.000  0.994 -0.000  0.000  0.000
 -0.000 -0.000  0.994  0.000  0.000
  0.000  0.000  0.000  1.003 -0.000
  0.000  0.000  0.000 -0.000  0.985
   spin  2
    eigenvalues: 
  0.067  0.113  0.145  0.145  0.237
    eigenvectors:
  0.000  1.000  0.000  0.000  0.000
  0.000  0.000  0.259  0.741  0.000
  0.000  0.000  0.741  0.259  0.000
  1.000  0.000  0.000  0.000  0.000
  0.000  0.000  0.000  0.000  1.000
    occupations:
  0.113 -0.000 -0.000  0.000  0.000
 -0.000  0.145 -0.000  0.000  0.000
 -0.000 -0.000  0.145  0.000  0.000
  0.000  0.000  0.000  0.067 -0.000
  0.000  0.000  0.000 -0.000  0.237
atomic mag. moment =     4.268440
atom    4   Tr[ns(na)] (up, down, total) =   0.70741  4.97426  5.68167
   spin  1
    eigenvalues: 
  0.067  0.115  0.144  0.144  0.238
    eigenvectors:
  0.000  1.000  0.000  0.000  0.000
  0.000  0.000  0.396  0.604  0.000
  0.000  0.000  0.604  0.396  0.000
  1.000  0.000  0.000  0.000  0.000
  0.000  0.000  0.000  0.000  1.000
    occupations:
  0.115 -0.000 -0.000  0.000  0.000
 -0.000  0.144 -0.000  0.000  0.000
 -0.000 -0.000  0.144  0.000  0.000
  0.000  0.000  0.000  0.067 -0.000
  0.000  0.000  0.000 -0.000  0.238
   spin  2
    eigenvalues: 
  0.985  0.994  0.994  0.998  1.003
    eigenvectors:
  0.000  0.000  0.000  1.000  0.000
  0.000  0.362  0.638  0.000  0.000
  0.000  0.638  0.362  0.000  0.000
  0.000  0.000  0.000  0.000  1.000
  1.000  0.000  0.000  0.000  0.000
    occupations:
  0.998 -0.000 -0.000  0.000  0.000
 -0.000  0.994 -0.000  0.000  0.000
 -0.000 -0.000  0.994  0.000  0.000
  0.000  0.000  0.000  1.003 -0.000
  0.000  0.000  0.000 -0.000  0.985
atomic mag. moment =    -4.266850
atom    5   Tr[ns(na)] (up, down, total) =   4.97403  0.70876  5.68279
   spin  1
    eigenvalues: 
  0.985  0.994  0.994  0.998  1.003
    eigenvectors:
  0.000  0.000  0.000  1.000  0.000
  0.000  0.288  0.712  0.000  0.000
  0.000  0.712  0.288  0.000  0.000
  0.000  0.000  0.000  0.000  1.000
  1.000  0.000  0.000  0.000  0.000
    occupations:
  0.998 -0.000 -0.000  0.000  0.000
 -0.000  0.994 -0.000  0.000  0.000
 -0.000 -0.000  0.994  0.000  0.000
  0.000  0.000  0.000  1.003 -0.000
  0.000  0.000  0.000 -0.000  0.985
   spin  2
    eigenvalues: 
  0.067  0.116  0.143  0.143  0.239
    eigenvectors:
  0.000  1.000  0.000  0.000  0.000
  0.000  0.000  0.305  0.695  0.000
  0.000  0.000  0.695  0.305  0.000
  1.000  0.000  0.000  0.000  0.000
  0.000  0.000  0.000  0.000  1.000
    occupations:
  0.116 -0.000 -0.000  0.000  0.000
 -0.000  0.143 -0.000  0.000  0.000
 -0.000 -0.000  0.143  0.000  0.000
  0.000  0.000  0.000  0.067 -0.000
  0.000  0.000  0.000 -0.000  0.239
atomic mag. moment =     4.265274
atom    6   Tr[ns(na)] (up, down, total) =   0.70741  4.97426  5.68167
   spin  1
    eigenvalues: 
  0.067  0.115  0.144  0.144  0.238
    eigenvectors:
  0.000  1.000  0.000  0.000  0.000
  0.000  0.000  0.307  0.693  0.000
  0.000  0.000  0.693  0.307  0.000
  1.000  0.000  0.000  0.000  0.000
  0.000  0.000  0.000  0.000  1.000
    occupations:
  0.115 -0.000 -0.000  0.000  0.000
 -0.000  0.144 -0.000  0.000  0.000
 -0.000 -0.000  0.144  0.000  0.000
  0.000  0.000  0.000  0.067 -0.000
  0.000  0.000  0.000 -0.000  0.238
   spin  2
    eigenvalues: 
  0.985  0.994  0.994  0.998  1.003
    eigenvectors:
  0.000  0.000  0.000  1.000  0.000
  0.000  0.352  0.648  0.000  0.000
  0.000  0.648  0.352  0.000  0.000
  0.000  0.000  0.000  0.000  1.000
  1.000  0.000  0.000  0.000  0.000
    occupations:
  0.998 -0.000 -0.000  0.000  0.000
 -0.000  0.994 -0.000  0.000  0.000
 -0.000 -0.000  0.994  0.000  0.000
  0.000  0.000  0.000  1.003 -0.000
  0.000  0.000  0.000 -0.000  0.985
atomic mag. moment =    -4.266850
atom    7   Tr[ns(na)] (up, down, total) =   4.97452  0.70608  5.68060
   spin  1
    eigenvalues: 
  0.985  0.994  0.994  0.998  1.003
    eigenvectors:
  0.000  0.000  0.000  1.000  0.000
  0.000  0.307  0.693  0.000  0.000
  0.000  0.693  0.307  0.000  0.000
  0.000  0.000  0.000  0.000  1.000
  1.000  0.000  0.000  0.000  0.000
    occupations:
  0.998 -0.000 -0.000  0.000  0.000
 -0.000  0.994 -0.000  0.000  0.000
 -0.000 -0.000  0.994  0.000  0.000
  0.000  0.000  0.000  1.003 -0.000
  0.000  0.000  0.000 -0.000  0.985
   spin  2
    eigenvalues: 
  0.067  0.113  0.145  0.145  0.237
    eigenvectors:
  0.000  1.000  0.000  0.000  0.000
  0.000  0.000  0.344  0.656  0.000
  0.000  0.000  0.656  0.344  0.000
  1.000  0.000  0.000  0.000  0.000
  0.000  0.000  0.000  0.000  1.000
    occupations:
  0.113 -0.000 -0.000  0.000  0.000
 -0.000  0.145 -0.000  0.000  0.000
 -0.000 -0.000  0.145  0.000  0.000
  0.000  0.000  0.000  0.067 -0.000
  0.000  0.000  0.000 -0.000  0.237
atomic mag. moment =     4.268440
atom    8   Tr[ns(na)] (up, down, total) =   0.70748  4.97430  5.68178
   spin  1
    eigenvalues: 
  0.067  0.114  0.144  0.144  0.238
    eigenvectors:
  0.000  1.000  0.000  0.000  0.000
  0.000  0.000  0.333  0.667  0.000
  0.000  0.000  0.667  0.333  0.000
  1.000  0.000  0.000  0.000  0.000
  0.000  0.000  0.000  0.000  1.000
    occupations:
  0.114 -0.000 -0.000  0.000  0.000
 -0.000  0.144 -0.000  0.000  0.000
 -0.000 -0.000  0.144  0.000  0.000
  0.000  0.000  0.000  0.067 -0.000
  0.000  0.000  0.000 -0.000  0.238
   spin  2
    eigenvalues: 
  0.985  0.994  0.994  0.998  1.003
    eigenvectors:
  0.000  0.000  0.000  1.000  0.000
  0.000  0.333  0.667  0.000  0.000
  0.000  0.667  0.333  0.000  0.000
  0.000  0.000  0.000  0.000  1.000
  1.000  0.000  0.000  0.000  0.000
    occupations:
  0.998 -0.000 -0.000  0.000  0.000
 -0.000  0.994 -0.000  0.000  0.000
 -0.000 -0.000  0.994  0.000  0.000
  0.000  0.000  0.000  1.003 -0.000
  0.000  0.000  0.000 -0.000  0.985
atomic mag. moment =    -4.266820
N of occupied +U levels =   45.453325
 --- exit write_ns ---

 ------ SPIN UP ------------


          k = 0.0000 0.0000 0.0000 ( 13925 PWs)   bands (ev):

[...]
    11.4576  11.4579  11.5978  11.5980  11.6934  11.6935  11.6983  11.6983
    11.8686  11.8689  11.8919  11.8922  12.0052  12.0055  12.0505  12.0507
    12.0864  12.0867  12.1517  12.1520  12.2663  12.2666  12.4201  12.4203
    12.4448  12.4450  12.4903  12.4906  12.8680  12.8683  13.0783  13.0783
    13.1809  13.1812  13.4684  13.4684  13.8008  13.8009  14.2778  14.2779
    14.4297  14.4299  14.7596  14.7599  15.0069  15.0070  15.7057  15.7062
    16.0094  16.0095  16.2831  16.2832  17.0017  17.0018  17.0908  17.0913
    17.1052  17.1053  17.3809  17.3810  17.7312  17.7315  17.7382  17.7383
    17.9615  17.9615  18.0901  18.0906  18.1350  18.1350  18.3620  18.3622
    19.7589  19.7590

          k = 0.3750 0.3750 0.0000 ( 13948 PWs)   bands (ev):

   -66.8015 -66.8015 -66.8011 -66.8011 -62.1790 -62.1790 -62.1788 -62.1788
   -35.5663 -35.5663 -35.5662 -35.5662 -35.5293 -35.5293 -35.5293 -35.5293
   -35.5287 -35.5287 -35.5286 -35.5286 -31.0108 -31.0108 -31.0107 -31.0106
   -31.0106 -31.0105 -31.0105 -31.0103 -30.9987 -30.9983 -30.9976 -30.9976
     8.1036   8.2179   8.2186   8.3922   8.4585   8.5411   8.5419   8.7223
     8.8107   9.0537   9.0616   9.0620   9.1306   9.1310   9.1457   9.1634
     9.2615   9.2845   9.3167   9.3168   9.3393   9.3721   9.3729   9.4594
     9.5025   9.5027   9.5053   9.5565   9.6389   9.6776   9.6777   9.8786
     9.9406   9.9407  10.0094  10.0094  10.0111  10.0376  10.0377  10.0556
    10.0652  10.1475  10.1631  10.1633  10.2837  10.2867  10.2870  10.3080
    10.3081  10.3411  10.4604  10.4965  10.5506  10.6764  10.7520  10.7533
    10.8711  10.8917  10.8977  10.8984  10.9126  11.0370  11.0372  11.1486
    11.1925  11.2718  11.2719  11.2781  11.3226  11.3227  11.3297  11.4629
    11.5068  11.5070  11.5538  11.5941  11.6205  11.6425  11.6426  11.6555
    11.8143  11.9792  12.0028  12.0037  12.0176  12.0340  12.0404  12.0411
    12.0450  12.0453  12.0921  12.1773  12.2525  12.2588  12.3017  12.3019
    12.3139  12.4215  12.4216  12.5366  12.5555  12.7595  12.7599  13.1891
    13.2559  13.6370  13.6392  13.8467  14.5446  14.7572  14.7590  14.9491
    15.1090  15.2130  15.2145  15.3002  16.2132  16.3213  16.3576  16.3604
    16.4694  16.4722  16.5887  16.6772  17.1530  17.1556  17.1661  17.1689
    17.5183  17.8109  17.8234  17.8425  17.8453  17.8609  17.8611  17.8691
    18.0056  18.0059  18.1127  18.1647  18.1953  18.5672  18.5691  18.7342
    18.7399  18.7409

          k = 0.3750 0.3750 0.0242 ( 13940 PWs)   bands (ev):

   -66.8015 -66.8015 -66.8011 -66.8011 -62.1790 -62.1790 -62.1788 -62.1788
   -35.5663 -35.5663 -35.5662 -35.5662 -35.5293 -35.5293 -35.5293 -35.5293
   -35.5287 -35.5287 -35.5286 -35.5286 -31.0108 -31.0108 -31.0107 -31.0106
   -31.0106 -31.0105 -31.0105 -31.0103 -30.9987 -30.9983 -30.9976 -30.9976
     8.1113   8.1702   8.2739   8.3746   8.4639   8.5064   8.5839   8.6849
     8.8605   9.0227   9.0548   9.0621   9.1075   9.1341   9.1765   9.1807
     9.2514   9.2531   9.3058   9.3413   9.3579   9.3916   9.3918   9.4282
     9.4412   9.5286   9.5289   9.5709   9.6216   9.6402   9.7392   9.8741
     9.8867   9.9744   9.9874  10.0077  10.0103  10.0110  10.0670  10.0710
    10.0783  10.1620  10.1784  10.1948  10.2132  10.2599  10.2654  10.3218
    10.3543  10.3550  10.4471  10.4564  10.5745  10.6918  10.7322  10.8062
    10.8740  10.8815  10.8899  10.9045  10.9117  10.9449  11.0999  11.1451
    11.1998  11.2456  11.2789  11.2930  11.2938  11.3251  11.3832  11.4663
    11.4903  11.5236  11.5496  11.5515  11.6230  11.6359  11.6480  11.6546
    11.8501  11.9809  11.9850  11.9939  12.0111  12.0171  12.0342  12.0365
    12.0505  12.0838  12.0961  12.1657  12.2591  12.2747  12.2883  12.3114
    12.3151  12.3662  12.4739  12.5456  12.5508  12.6659  12.8679  13.1001
    13.3410  13.5466  13.7189  13.8303  14.5627  14.6811  14.8322  14.9348
    15.1176  15.1758  15.2490  15.2943  16.2225  16.2963  16.3319  16.4101
    16.4332  16.5387  16.5663  16.6570  17.1533  17.1552  17.1666  17.1686
    17.5509  17.7584  17.8150  17.8301  17.8428  17.8541  17.8651  17.8687
    17.9688  18.0615  18.1625  18.2305  18.2331  18.4456  18.5189  18.5853
    18.6873  18.8571

          k = 0.3750 0.3750-0.0484 ( 13950 PWs)   bands (ev):

   -66.8015 -66.8015 -66.8011 -66.8011 -62.1790 -62.1790 -62.1788 -62.1788
   -35.5663 -35.5663 -35.5662 -35.5662 -35.5293 -35.5293 -35.5293 -35.5293
   -35.5287 -35.5287 -35.5286 -35.5286 -31.0108 -31.0108 -31.0107 -31.0106
   -31.0106 -31.0105 -31.0105 -31.0103 -30.9987 -30.9983 -30.9976 -30.9976
     8.1337   8.1339   8.3300   8.3302   8.4801   8.4802   8.6320   8.6325
     8.9434   8.9437   9.0578   9.0579   9.1170   9.1171   9.2063   9.2066
     9.2230   9.2232   9.3474   9.3476   9.3587   9.3589   9.4147   9.4149
     9.4667   9.4670   9.5714   9.5715   9.6205   9.6207   9.8052   9.8053
     9.9182   9.9185  10.0031  10.0034  10.0106  10.0109  10.0713  10.0715
    10.1394  10.1396  10.1917  10.1917  10.2345  10.2348  10.2646  10.2647
    10.4013  10.4013  10.4097  10.4098  10.6287  10.6291  10.8293  10.8295
    10.8580  10.8584  10.8810  10.8814  10.9090  10.9091  11.1319  11.1319
    11.2191  11.2192  11.2823  11.2824  11.3122  11.3124  11.4670  11.4672
    11.4760  11.4762  11.5384  11.5388  11.6288  11.6291  11.6521  11.6522
    11.9174  11.9175  11.9858  11.9861  12.0152  12.0155  12.0347  12.0349
    12.0664  12.0666  12.1367  12.1369  12.2731  12.2733  12.3145  12.3146
    12.3155  12.3158  12.5169  12.5172  12.5942  12.5945  12.9834  12.9835
    13.4466  13.4469  13.7849  13.7853  14.6119  14.6121  14.8936  14.8941
    15.1415  15.1417  15.2767  15.2769  16.2501  16.2503  16.3624  16.3625
    16.5079  16.5081  16.6051  16.6053  17.1538  17.1546  17.1676  17.1677
    17.6390  17.6391  17.8266  17.8267  17.8432  17.8433  17.8674  17.8675
    18.0050  18.0054  18.3307  18.3310  18.3444  18.3445  18.3646  18.3647
    18.7877  18.7880

          k = 0.3750-0.5000 0.0000 ( 13934 PWs)   bands (ev):

   -66.8016 -66.8016 -66.8011 -66.8011 -62.1788 -62.1787 -62.1786 -62.1786
   -35.5662 -35.5662 -35.5661 -35.5661 -35.5309 -35.5309 -35.5302 -35.5302
   -35.5292 -35.5292 -35.5285 -35.5285 -31.0129 -31.0129 -31.0128 -31.0126
   -31.0105 -31.0105 -31.0104 -31.0102 -30.9985 -30.9982 -30.9974 -30.9974
     8.2218   8.2588   8.3251   8.3255   8.3543   8.3555   8.4120   8.6647
     8.7675   9.0776   9.1376   9.1382   9.1550   9.1579   9.1588   9.2031
     9.2349   9.2353   9.2880   9.3071   9.3163   9.3165   9.3331   9.3694
     9.4552   9.5291   9.5403   9.5408   9.6906   9.6910   9.8066   9.8327
     9.9336   9.9736   9.9895   9.9896  10.0131  10.0142  10.0237  10.0239
    10.1432  10.1989  10.2315  10.2329  10.2336  10.3217  10.4050  10.4052
    10.4160  10.4161  10.5345  10.6431  10.7211  10.7224  10.7985  10.8452
    10.9542  11.1427  11.1590  11.1592  11.1629  11.1816  11.1819  11.2309
    11.2583  11.2596  11.2729  11.2729  11.3762  11.4659  11.5253  11.5254
    11.5588  11.5596  11.6152  11.6753  11.7711  11.8355  11.8355  11.8764
    11.9283  11.9698  11.9708  12.0014  12.0725  12.1120  12.1150  12.1155
    12.1713  12.1781  12.1781  12.1873  12.2155  12.2516  12.2516  12.3610
    12.4109  12.4115  12.4226  12.5430  12.9576  13.1971  13.1992  13.3949
    13.4950  13.7748  13.7755  14.0256  14.1603  14.2889  14.2908  14.4170
    15.3225  15.4148  15.4166  15.4601  15.4894  15.7543  15.7564  16.1056
    16.7344  16.8360  16.8383  16.9897  17.0778  17.0878  17.0934  17.1071
    17.2906  17.6096  17.6124  17.7525  17.8624  18.0167  18.0174  18.0594
    18.0780  18.3219  18.3332  18.3350  18.4866  18.4872  18.5489  18.6951
    18.9127  18.9128

          k = 0.3750-0.5000 0.0242 ( 13948 PWs)   bands (ev):

   -66.8016 -66.8016 -66.8011 -66.8011 -62.1788 -62.1787 -62.1786 -62.1786
   -35.5662 -35.5662 -35.5661 -35.5661 -35.5309 -35.5309 -35.5302 -35.5302
   -35.5292 -35.5292 -35.5285 -35.5285 -31.0129 -31.0129 -31.0128 -31.0126
   -31.0105 -31.0105 -31.0104 -31.0102 -30.9985 -30.9982 -30.9974 -30.9974
     8.2303   8.2634   8.2976   8.2982   8.3553   8.4043   8.4263   8.6002
     8.8366   9.0433   9.0880   9.1429   9.1560   9.1607   9.2052   9.2163
     9.2238   9.2512   9.2822   9.2881   9.2968   9.3198   9.3619   9.3885
     9.4425   9.4808   9.5421   9.6069   9.6291   9.7491   9.7577   9.8828
     9.8917   9.9675   9.9764  10.0009  10.0023  10.0131  10.0476  10.0518
    10.1490  10.1969  10.2155  10.2273  10.2686  10.3154  10.3198  10.3270
    10.4875  10.5221  10.5551  10.6214  10.6632  10.7347  10.7745  10.8439
    11.0011  11.1413  11.1437  11.1517  11.1699  11.1709  11.2058  11.2140
    11.2283  11.2285  11.3154  11.3245  11.3692  11.4696  11.4868  11.4998
    11.5546  11.6061  11.6140  11.6692  11.7785  11.8163  11.8520  11.8734
    11.9313  11.9539  11.9847  11.9998  12.0744  12.0938  12.1182  12.1431
    12.1582  12.1745  12.1826  12.1857  12.2176  12.2347  12.2775  12.3468
    12.4062  12.4196  12.4369  12.5238  12.9817  13.1180  13.2736  13.3796
    13.5188  13.6744  13.8720  14.0066  14.1711  14.2423  14.3371  14.4067
    15.3305  15.3829  15.4457  15.4822  15.4843  15.6401  15.8777  16.0742
    16.7410  16.7932  16.8891  16.9775  17.0781  17.0899  17.0902  17.1010
    17.3201  17.5014  17.7114  17.7908  17.8441  17.9740  18.0367  18.0566
    18.0838  18.1854  18.3340  18.4210  18.4915  18.5571  18.5592  18.6767
    18.8710  18.9972

          k = 0.3750-0.5000-0.0484 ( 13940 PWs)   bands (ev):

   -66.8016 -66.8016 -66.8011 -66.8011 -62.1788 -62.1787 -62.1786 -62.1786
   -35.5662 -35.5662 -35.5661 -35.5661 -35.5309 -35.5309 -35.5302 -35.5302
   -35.5292 -35.5292 -35.5285 -35.5285 -31.0129 -31.0129 -31.0128 -31.0126
   -31.0105 -31.0105 -31.0104 -31.0102 -30.9985 -30.9982 -30.9974 -30.9974
     8.2556   8.2559   8.2769   8.2769   8.3835   8.3836   8.5095   8.5099
     8.9402   8.9404   9.1142   9.1146   9.1583   9.1585   9.2111   9.2113
     9.2682   9.2682   9.2806   9.2809   9.2845   9.2848   9.4081   9.4083
     9.4292   9.4293   9.5774   9.5777   9.6776   9.6777   9.8257   9.8259
     9.9322   9.9324   9.9851   9.9854  10.0093  10.0096  10.0702  10.0703
    10.1670  10.1673  10.2481  10.2484  10.2610  10.2611  10.2971  10.2972
    10.5641  10.5642  10.6040  10.6044  10.6309  10.6310  10.8170  10.8174
    11.0778  11.0782  11.1466  11.1467  11.1865  11.1866  11.1931  11.1933
    11.2203  11.2205  11.3482  11.3486  11.4043  11.4046  11.4808  11.4810
    11.5832  11.5836  11.6497  11.6498  11.7960  11.7960  11.8648  11.8650
    11.9398  11.9401  11.9944  11.9947  12.0808  12.0810  12.1351  12.1353
    12.1677  12.1679  12.1814  12.1818  12.2237  12.2239  12.3127  12.3130
    12.4122  12.4125  12.4801  12.4804  13.0415  13.0419  13.3364  13.3370
    13.5836  13.5837  13.9527  13.9528  14.2004  14.2006  14.3780  14.3783
    15.3524  15.3526  15.4692  15.4695  15.5452  15.5453  15.9907  15.9910
    16.7607  16.7607  16.9407  16.9408  17.0817  17.0823  17.0943  17.0944
    17.3976  17.3978  17.7917  17.7919  17.8841  17.8842  18.0488  18.0489
    18.1084  18.1085  18.3682  18.3685  18.5625  18.5625  18.6269  18.6272
    18.9450  18.9451

          k =-0.5000-0.5000 0.0000 ( 13964 PWs)   bands (ev):

   -66.8016 -66.8016 -66.8011 -66.8011 -62.1786 -62.1786 -62.1784 -62.1784
   -35.5661 -35.5661 -35.5660 -35.5660 -35.5307 -35.5307 -35.5307 -35.5307
   -35.5301 -35.5301 -35.5301 -35.5301 -31.0127 -31.0127 -31.0127 -31.0127
   -31.0125 -31.0125 -31.0124 -31.0124 -30.9984 -30.9981 -30.9973 -30.9973
     8.1536   8.1712   8.2423   8.2427   8.2832   8.2842   8.3387   8.5553
     8.7697   9.0083   9.1374   9.1380   9.2129   9.2130   9.2720   9.2720
     9.3139   9.3139   9.3149   9.3149   9.3836   9.4439   9.4439   9.4553
     9.4553   9.4673   9.6949   9.6949   9.6953   9.6953   9.8139   9.9692
     9.9692   9.9698   9.9698   9.9700   9.9700   9.9706   9.9706   9.9934
     9.9936  10.0636  10.0636  10.0673  10.0673  10.0982  10.5078  10.5539
    10.5539  10.5540  10.5540  10.6060  10.6076  10.6952  10.9710  10.9710
    11.1938  11.2059  11.2060  11.2075  11.2188  11.2827  11.2827  11.3612
    11.4214  11.4215  11.4221  11.4223  11.4805  11.4805  11.9331  11.9331
    11.9332  11.9332  11.9828  11.9828  11.9828  11.9829  12.0082  12.0090
    12.0095  12.0101  12.0729  12.0729  12.0729  12.0730  12.1007  12.1014
    12.1019  12.1024  12.1943  12.2108  12.2108  12.2270  12.2446  12.2889
    12.2889  12.3486  12.3495  12.4405  13.4186  13.4286  13.4322  13.4427
    13.8677  13.8677  14.1541  14.1541  14.1553  14.1553  14.3947  14.3947
    15.8596  15.8596  15.9429  15.9429  15.9455  15.9455  16.0916  16.0916
    16.6051  16.6397  16.6428  16.7521  16.7823  17.0288  17.0349  17.3497
    17.5557  17.5557  17.7634  17.7975  17.8504  17.8515  17.9467  18.0686
    18.0686  18.0690  18.0692  18.1398  18.1398  18.1418  18.1418  18.2921
    18.2954  18.6862

          k =-0.5000-0.5000 0.0242 ( 13960 PWs)   bands (ev):

   -66.8016 -66.8016 -66.8011 -66.8011 -62.1786 -62.1786 -62.1784 -62.1784
   -35.5661 -35.5661 -35.5660 -35.5660 -35.5307 -35.5307 -35.5307 -35.5307
   -35.5301 -35.5301 -35.5301 -35.5301 -31.0127 -31.0127 -31.0127 -31.0127
   -31.0125 -31.0125 -31.0124 -31.0124 -30.9984 -30.9981 -30.9973 -30.9973
     8.1620   8.1761   8.2132   8.2278   8.2752   8.3299   8.3528   8.5115
     8.8203   9.0243   9.0299   9.1345   9.2350   9.2746   9.2746   9.2957
     9.2957   9.2966   9.3389   9.3389   9.3654   9.4059   9.4059   9.4409
     9.5002   9.5002   9.6224   9.6224   9.7757   9.7757   9.8351   9.9405
     9.9608   9.9608   9.9693   9.9693   9.9697   9.9697   9.9701   9.9701
     9.9706   9.9706  10.0379  10.0913  10.1778  10.1778  10.4231  10.4231
    10.5161  10.5710  10.6411  10.6869  10.6869  10.6885  10.9236  10.9236
    11.1947  11.2012  11.2107  11.2133  11.2178  11.2540  11.3118  11.3549
    11.4214  11.4215  11.4222  11.4223  11.5310  11.5310  11.7885  11.7885
    11.9828  11.9828  11.9828  11.9829  12.0082  12.0089  12.0096  12.0100
    12.0688  12.0688  12.0729  12.0729  12.0729  12.0730  12.1007  12.1014
    12.1020  12.1023  12.1956  12.2046  12.2171  12.2258  12.2532  12.2609
    12.2609  12.3109  12.3854  12.4339  13.4194  13.4256  13.4353  13.4417
    13.8922  13.8922  14.0524  14.0524  14.2505  14.2505  14.3775  14.3775
    15.8647  15.8647  15.9070  15.9070  15.9899  15.9899  16.0764  16.0764
    16.6073  16.6251  16.6626  16.7228  16.8203  16.9502  17.1233  17.3084
    17.5997  17.5997  17.7698  17.8166  17.8519  17.8866  17.9097  17.9097
    17.9391  18.0686  18.0686  18.0690  18.0692  18.1324  18.4035  18.4035
    18.4457  18.6564

          k =-0.5000-0.5000-0.0484 ( 13992 PWs)   bands (ev):

   -66.8016 -66.8016 -66.8011 -66.8011 -62.1786 -62.1786 -62.1784 -62.1784
   -35.5661 -35.5661 -35.5660 -35.5660 -35.5307 -35.5307 -35.5307 -35.5307
   -35.5301 -35.5301 -35.5301 -35.5301 -31.0127 -31.0127 -31.0127 -31.0127
   -31.0125 -31.0125 -31.0124 -31.0124 -30.9984 -30.9981 -30.9973 -30.9973
     8.1868   8.1870   8.1904   8.1905   8.3065   8.3066   8.4316   8.4320
     8.9198   8.9200   9.0687   9.0690   9.2823   9.2823   9.2826   9.2826
     9.3135   9.3138   9.3691   9.3691   9.3694   9.3694   9.3768   9.3770
     9.5575   9.5575   9.5575   9.5575   9.8643   9.8643   9.8643   9.8643
     9.8839   9.8842   9.9693   9.9693   9.9696   9.9696   9.9702   9.9702
     9.9705   9.9705  10.0709  10.0710  10.2972  10.2972  10.2973  10.2973
    10.5386  10.5391  10.6694  10.6698  10.8154  10.8154  10.8157  10.8157
    11.1972  11.1973  11.2149  11.2150  11.2296  11.2298  11.3371  11.3374
    11.4214  11.4215  11.4222  11.4223  11.6476  11.6476  11.6477  11.6477
    11.9828  11.9828  11.9828  11.9829  12.0083  12.0089  12.0097  12.0099
    12.0729  12.0729  12.0730  12.0730  12.1007  12.1013  12.1021  12.1023
    12.1828  12.1828  12.1831  12.1831  12.1991  12.1993  12.2222  12.2224
    12.2767  12.2771  12.4147  12.4150  13.4215  13.4223  13.4388  13.4394
    13.9590  13.9590  13.9592  13.9592  14.3276  14.3276  14.3278  14.3278
    15.8803  15.8803  15.8805  15.8805  16.0377  16.0377  16.0379  16.0379
    16.6139  16.6140  16.6895  16.6899  16.8796  16.8797  17.2201  17.2201
    17.7235  17.7235  17.7236  17.7236  17.7881  17.7885  17.9175  17.9179
    17.9778  17.9779  18.0686  18.0686  18.0690  18.0692  18.5719  18.5721
    18.6870  18.6870

     the Fermi energy is    15.3196 ev

!    total energy              =  -14693.98929962 Ry
     Harris-Foulkes estimate   =  -14693.98929878 Ry
     estimated scf accuracy    <       0.00000018 Ry

     total all-electron energy =   -626921.585022 Ry

     The total energy is the sum of the following terms:

     one-electron contribution =    -714.16654041 Ry
     hartree contribution      =     656.31743159 Ry
     xc contribution           =    -737.91874853 Ry
     ewald contribution        =   -2196.78933708 Ry
     Hubbard energy            =       0.43587995 Ry
     one-center paw contrib.   =  -11701.86798514 Ry

     total magnetization       =    -0.00 Bohr mag/cell
     absolute magnetization    =    37.47 Bohr mag/cell

     convergence has been achieved in  85 iterations

     Writing output data file mnau2.save/
 
     init_run     :     69.72s CPU     71.18s WALL (       1 calls)
     electrons    :  10551.14s CPU  10751.78s WALL (       1 calls)

     Called by init_run:
     wfcinit      :     66.02s CPU     67.32s WALL (       1 calls)
     potinit      :      1.69s CPU      1.75s WALL (       1 calls)
     hinit0       :      1.24s CPU      1.31s WALL (       1 calls)

     Called by electrons:
     c_bands      :   9184.11s CPU   9341.23s WALL (      85 calls)
     sum_band     :   1228.17s CPU   1269.32s WALL (      85 calls)
     v_of_rho     :      9.27s CPU      9.32s WALL (      86 calls)
     newd         :     33.32s CPU     33.76s WALL (      86 calls)
     PAW_pot      :     94.19s CPU     94.99s WALL (      86 calls)
     mix_rho      :      2.35s CPU      2.98s WALL (      85 calls)

     Called by c_bands:
     init_us_2    :     36.93s CPU     37.30s WALL (   15480 calls)
     cegterg      :   8840.23s CPU   8990.99s WALL (    7650 calls)

     Called by sum_band:
     sum_band:bec :     17.28s CPU     17.39s WALL (    7650 calls)
     addusdens    :     55.62s CPU     56.02s WALL (      85 calls)

     Called by *egterg:
     h_psi        :   4020.28s CPU   4126.49s WALL (   17464 calls)
     s_psi        :    748.75s CPU    749.14s WALL (   17554 calls)
     g_psi        :      7.70s CPU      7.77s WALL (    9724 calls)
     cdiaghg      :   2038.89s CPU   2077.57s WALL (   17374 calls)

     Called by h_psi:
     h_psi:pot    :   3619.72s CPU   3723.65s WALL (   17464 calls)
     h_psi:calbec :    942.73s CPU    986.53s WALL (   17464 calls)
     vloc_psi     :   1931.52s CPU   1991.16s WALL (   17464 calls)
     add_vuspsi   :    745.08s CPU    745.66s WALL (   17464 calls)
     vhpsi        :    391.54s CPU    393.64s WALL (   17464 calls)

     General routines
     calbec       :   1716.63s CPU   1784.40s WALL (   50318 calls)
     fft          :      6.33s CPU      6.36s WALL (    2146 calls)
     ffts         :      0.27s CPU      0.28s WALL (     342 calls)
     fftw         :   2264.44s CPU   2333.75s WALL ( 6922230 calls)
     interpolate  :      0.65s CPU      0.66s WALL (     172 calls)
     davcio       :      0.01s CPU      3.26s WALL (      90 calls)
 
     Parallel routines
     fft_scatt_xy :    163.95s CPU    169.03s WALL ( 6924718 calls)
     fft_scatt_yz :   1317.11s CPU   1357.18s WALL ( 6924718 calls)

     Hubbard U routines
     new_ns       :     69.34s CPU     73.30s WALL (      85 calls)
     vhpsi        :    391.54s CPU    393.64s WALL (   17464 calls)
 
     PWSCF        :     2h57m CPU       57h 3m WALL

       1h
 
   This run was terminated on:   1:55:47   9Apr2019            

=------------------------------------------------------------------------------=
   JOB DONE.
=------------------------------------------------------------------------------=
