
     Program PWSCF v.6.3MaX starts on  7Apr2019 at 22:51:18 

     This program is part of the open-source Quantum ESPRESSO suite
     for quantum simulation of materials; please cite
         "P. Giannozzi et al., J. Phys.:Condens. Matter 21 395502 (2009);
         "P. Giannozzi et al., J. Phys.:Condens. Matter 29 465901 (2017);
          URL http://www.quantum-espresso.org", 
     in publications or presentations arising from this work. More details at
     http://www.quantum-espresso.org/quote

     Parallel version (MPI), running on    32 processors

     MPI processes distributed on     2 nodes
     R & G space division:  proc/nbgrp/npool/nimage =      32
     Waiting for input...
     Reading input from standard input

     Current dimensions of program PWSCF are:
     Max number of different atomic species (ntypx) = 10
     Max number of k-points (npk) =  40000
     Max angular momentum in pseudopotentials (lmaxx) =  3
               file Mn.pbe-spn-kjpaw_psl.0.3.1.UPF: wavefunction(s)  3P 3D renormalized
               file Au.pbe-dn-kjpaw_psl.0.1.UPF: wavefunction(s)  6S 6P 5D renormalized

     Subspace diagonalization in iterative solution of the eigenvalue problem:
     one sub-group per band group will be used
     scalapack distributed-memory algorithm (size of sub-group:  4*  4 procs)

     Found symmetry operation: I + ( -0.5000 -0.5000  0.1250)
     This is a supercell, fractional translations are disabled
 
     Parallelization info
     --------------------
     sticks:   dense  smooth     PW     G-vecs:    dense   smooth      PW
     Min          41      18      5                11487     3460     563
     Max          42      19      6                11527     3505     606
     Sum        1313     593    177               368373   111379   18691
 


     bravais-lattice index     =            0
     lattice parameter (alat)  =       6.4153  a.u.
     unit-cell volume          =    2724.7774 (a.u.)^3
     number of atoms/cell      =           24
     number of atomic types    =            2
     number of electrons       =       296.00
     number of Kohn-Sham states=          178
     kinetic-energy cutoff     =      45.0000  Ry
     charge density cutoff     =     400.0000  Ry
     convergence threshold     =      1.0E-06
     mixing beta               =       0.1000
     number of iterations used =            8  plain     mixing
     Exchange-correlation      = SLA PW PBX PBC ( 1  4  3  4 0 0)

     celldm(1)=   6.415315  celldm(2)=   0.000000  celldm(3)=   0.000000
     celldm(4)=   0.000000  celldm(5)=   0.000000  celldm(6)=   0.000000

     crystal axes: (cart. coord. in units of alat)
               a(1) = (   1.000000   0.000000   0.000000 )  
               a(2) = (   0.000000   1.000000   0.000000 )  
               a(3) = (   0.000000   0.000000  10.319937 )  

     reciprocal axes: (cart. coord. in units 2 pi/alat)
               b(1) = (  1.000000  0.000000  0.000000 )  
               b(2) = (  0.000000  1.000000  0.000000 )  
               b(3) = (  0.000000  0.000000  0.096900 )  


     PseudoPot. # 1 for Mn read from file:
     ./pseudo/Mn.pbe-spn-kjpaw_psl.0.3.1.UPF
     MD5 check sum: 7b43a3fb0e93e198b8dd8488d8cf503e
     Pseudo is Projector augmented-wave + core cor, Zval = 15.0
     Generated using "atomic" code by A. Dal Corso v.5.0.99 svn rev. 10869
     Shape of augmentation charge: PSQ
     Using radial grid of 1187 points,  6 beta functions with: 
                l(1) =   0
                l(2) =   0
                l(3) =   1
                l(4) =   1
                l(5) =   2
                l(6) =   2
     Q(r) pseudized with 0 coefficients 


     PseudoPot. # 2 for Au read from file:
     ./pseudo/Au.pbe-dn-kjpaw_psl.0.1.UPF
     MD5 check sum: be11e2e8e535ebe2b3ccfb4f88f554cb
     Pseudo is Projector augmented-wave + core cor, Zval = 11.0
     Generated using "atomic" code by A. Dal Corso v.5.0.2 svn rev. 9415
     Shape of augmentation charge: PSQ
     Using radial grid of 1279 points,  6 beta functions with: 
                l(1) =   0
                l(2) =   0
                l(3) =   1
                l(4) =   1
                l(5) =   2
                l(6) =   2
     Q(r) pseudized with 0 coefficients 


     atomic species   valence    mass     pseudopotential
        Mn            15.00    54.93800     Mn( 1.00)
        Au            11.00   196.96600     Au( 1.00)

     Starting magnetic structure 
     atomic species   magnetization
        Mn           0.800
        Au           0.000


     Full LDA+U calculation (l_max = 2) with parameters (eV):
     U(  1) =   3.1200   J(  1) =   0.7000   B(  1) =   0.0803



     16 Sym. Ops., with inversion, found



   Cartesian axes

     site n.     atom                  positions (alat units)
         1           Mn  tau(   1) = (   0.0000000   0.0000000   0.0000000  )
         2           Mn  tau(   2) = (   0.5000000   0.5000000   1.2899921  )
         3           Mn  tau(   3) = (   0.0000000   0.0000000   2.5799843  )
         4           Mn  tau(   4) = (   0.5000000   0.5000000   3.8699764  )
         5           Mn  tau(   5) = (   0.0000000   0.0000000   5.1599686  )
         6           Mn  tau(   6) = (   0.5000000   0.5000000   6.4499607  )
         7           Mn  tau(   7) = (   0.0000000   0.0000000   7.7399528  )
         8           Mn  tau(   8) = (   0.5000000   0.5000000   9.0299450  )
         9           Au  tau(   9) = (   0.5000000   0.5000000   0.4127975  )
        10           Au  tau(  10) = (   0.0000000   0.0000000   0.8771947  )
        11           Au  tau(  11) = (   0.0000000   0.0000000   1.7027896  )
        12           Au  tau(  12) = (   0.5000000   0.5000000   2.1671868  )
        13           Au  tau(  13) = (   0.5000000   0.5000000   2.9927818  )
        14           Au  tau(  14) = (   0.0000000   0.0000000   3.4571789  )
        15           Au  tau(  15) = (   0.0000000   0.0000000   4.2827739  )
        16           Au  tau(  16) = (   0.5000000   0.5000000   4.7471711  )
        17           Au  tau(  17) = (   0.5000000   0.5000000   5.5727660  )
        18           Au  tau(  18) = (   0.0000000   0.0000000   6.0371632  )
        19           Au  tau(  19) = (   0.0000000   0.0000000   6.8627582  )
        20           Au  tau(  20) = (   0.5000000   0.5000000   7.3271553  )
        21           Au  tau(  21) = (   0.5000000   0.5000000   8.1527503  )
        22           Au  tau(  22) = (   0.0000000   0.0000000   8.6171475  )
        23           Au  tau(  23) = (   0.0000000   0.0000000   9.4427424  )
        24           Au  tau(  24) = (   0.5000000   0.5000000   9.9071396  )

     number of k points=    45 (tetrahedron method)
                       cart. coord. in units 2pi/alat
        k(    1) = (   0.0000000   0.0000000   0.0000000), wk =   0.0039062
        k(    2) = (   0.0000000   0.0000000   0.0242250), wk =   0.0078125
        k(    3) = (   0.0000000   0.0000000  -0.0484499), wk =   0.0039062
        k(    4) = (   0.0000000   0.1250000   0.0000000), wk =   0.0156250
        k(    5) = (   0.0000000   0.1250000   0.0242250), wk =   0.0312500
        k(    6) = (   0.0000000   0.1250000  -0.0484499), wk =   0.0156250
        k(    7) = (   0.0000000   0.2500000   0.0000000), wk =   0.0156250
        k(    8) = (   0.0000000   0.2500000   0.0242250), wk =   0.0312500
        k(    9) = (   0.0000000   0.2500000  -0.0484499), wk =   0.0156250
        k(   10) = (   0.0000000   0.3750000   0.0000000), wk =   0.0156250
        k(   11) = (   0.0000000   0.3750000   0.0242250), wk =   0.0312500
        k(   12) = (   0.0000000   0.3750000  -0.0484499), wk =   0.0156250
        k(   13) = (   0.0000000  -0.5000000   0.0000000), wk =   0.0078125
        k(   14) = (   0.0000000  -0.5000000   0.0242250), wk =   0.0156250
        k(   15) = (   0.0000000  -0.5000000  -0.0484499), wk =   0.0078125
        k(   16) = (   0.1250000   0.1250000   0.0000000), wk =   0.0156250
        k(   17) = (   0.1250000   0.1250000   0.0242250), wk =   0.0312500
        k(   18) = (   0.1250000   0.1250000  -0.0484499), wk =   0.0156250
        k(   19) = (   0.1250000   0.2500000   0.0000000), wk =   0.0312500
        k(   20) = (   0.1250000   0.2500000   0.0242250), wk =   0.0625000
        k(   21) = (   0.1250000   0.2500000  -0.0484499), wk =   0.0312500
        k(   22) = (   0.1250000   0.3750000   0.0000000), wk =   0.0312500
        k(   23) = (   0.1250000   0.3750000   0.0242250), wk =   0.0625000
        k(   24) = (   0.1250000   0.3750000  -0.0484499), wk =   0.0312500
        k(   25) = (   0.1250000  -0.5000000   0.0000000), wk =   0.0156250
        k(   26) = (   0.1250000  -0.5000000   0.0242250), wk =   0.0312500
        k(   27) = (   0.1250000  -0.5000000  -0.0484499), wk =   0.0156250
        k(   28) = (   0.2500000   0.2500000   0.0000000), wk =   0.0156250
        k(   29) = (   0.2500000   0.2500000   0.0242250), wk =   0.0312500
        k(   30) = (   0.2500000   0.2500000  -0.0484499), wk =   0.0156250
        k(   31) = (   0.2500000   0.3750000   0.0000000), wk =   0.0312500
        k(   32) = (   0.2500000   0.3750000   0.0242250), wk =   0.0625000
        k(   33) = (   0.2500000   0.3750000  -0.0484499), wk =   0.0312500
        k(   34) = (   0.2500000  -0.5000000   0.0000000), wk =   0.0156250
        k(   35) = (   0.2500000  -0.5000000   0.0242250), wk =   0.0312500
        k(   36) = (   0.2500000  -0.5000000  -0.0484499), wk =   0.0156250
        k(   37) = (   0.3750000   0.3750000   0.0000000), wk =   0.0156250
        k(   38) = (   0.3750000   0.3750000   0.0242250), wk =   0.0312500
        k(   39) = (   0.3750000   0.3750000  -0.0484499), wk =   0.0156250
        k(   40) = (   0.3750000  -0.5000000   0.0000000), wk =   0.0156250
        k(   41) = (   0.3750000  -0.5000000   0.0242250), wk =   0.0312500
        k(   42) = (   0.3750000  -0.5000000  -0.0484499), wk =   0.0156250
        k(   43) = (  -0.5000000  -0.5000000   0.0000000), wk =   0.0039062
        k(   44) = (  -0.5000000  -0.5000000   0.0242250), wk =   0.0078125
        k(   45) = (  -0.5000000  -0.5000000  -0.0484499), wk =   0.0039062

     Dense  grid:   368373 G-vectors     FFT dimensions: (  45,  45, 432)

     Smooth grid:   111379 G-vectors     FFT dimensions: (  27,  27, 288)

     Estimated max dynamical RAM per process >     184.82 MB

     Estimated total dynamical RAM >       5.78 GB
     Generating pointlists ...
     new r_m :   0.3377 (alat units)  2.1668 (a.u.) for type    1
     new r_m :   0.3377 (alat units)  2.1668 (a.u.) for type    2

     Check: negative/imaginary core charge=   -0.000006    0.000000

     Initial potential from superposition of free atoms

     starting charge  295.99426, renormalised to  296.00000
     Number of +U iterations with fixed ns =  0
     Starting occupations:
 --- enter write_ns ---
 LDA+U parameters:
U(  1) =   3.1200   J(  1) =   0.7000   B(  1) =   0.0803
atom    1   Tr[ns(na)] (up, down, total) =   5.00000  0.00000  5.00000
   spin  1
    eigenvalues: 
  1.000  1.000  1.000  1.000  1.000
    eigenvectors:
  1.000  0.000  0.000  0.000  0.000
  0.000  1.000  0.000  0.000  0.000
  0.000  0.000  1.000  0.000  0.000
  0.000  0.000  0.000  1.000  0.000
  0.000  0.000  0.000  0.000  1.000
    occupations:
  1.000  0.000  0.000  0.000  0.000
  0.000  1.000  0.000  0.000  0.000
  0.000  0.000  1.000  0.000  0.000
  0.000  0.000  0.000  1.000  0.000
  0.000  0.000  0.000  0.000  1.000
   spin  2
    eigenvalues: 
  0.000  0.000  0.000  0.000  0.000
    eigenvectors:
  1.000  0.000  0.000  0.000  0.000
  0.000  1.000  0.000  0.000  0.000
  0.000  0.000  1.000  0.000  0.000
  0.000  0.000  0.000  1.000  0.000
  0.000  0.000  0.000  0.000  1.000
    occupations:
  0.000  0.000  0.000  0.000  0.000
  0.000  0.000  0.000  0.000  0.000
  0.000  0.000  0.000  0.000  0.000
  0.000  0.000  0.000  0.000  0.000
  0.000  0.000  0.000  0.000  0.000
atomic mag. moment =     5.000000
atom    2   Tr[ns(na)] (up, down, total) =   5.00000  0.00000  5.00000
   spin  1
    eigenvalues: 
  1.000  1.000  1.000  1.000  1.000
    eigenvectors:
  1.000  0.000  0.000  0.000  0.000
  0.000  1.000  0.000  0.000  0.000
  0.000  0.000  1.000  0.000  0.000
  0.000  0.000  0.000  1.000  0.000
  0.000  0.000  0.000  0.000  1.000
    occupations:
  1.000  0.000  0.000  0.000  0.000
  0.000  1.000  0.000  0.000  0.000
  0.000  0.000  1.000  0.000  0.000
  0.000  0.000  0.000  1.000  0.000
  0.000  0.000  0.000  0.000  1.000
   spin  2
    eigenvalues: 
  0.000  0.000  0.000  0.000  0.000
    eigenvectors:
  1.000  0.000  0.000  0.000  0.000
  0.000  1.000  0.000  0.000  0.000
  0.000  0.000  1.000  0.000  0.000
  0.000  0.000  0.000  1.000  0.000
  0.000  0.000  0.000  0.000  1.000
    occupations:
  0.000  0.000  0.000  0.000  0.000
  0.000  0.000  0.000  0.000  0.000
  0.000  0.000  0.000  0.000  0.000
  0.000  0.000  0.000  0.000  0.000
  0.000  0.000  0.000  0.000  0.000
atomic mag. moment =     5.000000
atom    3   Tr[ns(na)] (up, down, total) =   5.00000  0.00000  5.00000
   spin  1
    eigenvalues: 
  1.000  1.000  1.000  1.000  1.000
    eigenvectors:
  1.000  0.000  0.000  0.000  0.000
  0.000  1.000  0.000  0.000  0.000
  0.000  0.000  1.000  0.000  0.000
  0.000  0.000  0.000  1.000  0.000
  0.000  0.000  0.000  0.000  1.000
    occupations:
  1.000  0.000  0.000  0.000  0.000
  0.000  1.000  0.000  0.000  0.000
  0.000  0.000  1.000  0.000  0.000
  0.000  0.000  0.000  1.000  0.000
  0.000  0.000  0.000  0.000  1.000
   spin  2
    eigenvalues: 
  0.000  0.000  0.000  0.000  0.000
    eigenvectors:
  1.000  0.000  0.000  0.000  0.000
  0.000  1.000  0.000  0.000  0.000
  0.000  0.000  1.000  0.000  0.000
  0.000  0.000  0.000  1.000  0.000
  0.000  0.000  0.000  0.000  1.000
    occupations:
  0.000  0.000  0.000  0.000  0.000
  0.000  0.000  0.000  0.000  0.000
  0.000  0.000  0.000  0.000  0.000
  0.000  0.000  0.000  0.000  0.000
  0.000  0.000  0.000  0.000  0.000
atomic mag. moment =     5.000000
atom    4   Tr[ns(na)] (up, down, total) =   5.00000  0.00000  5.00000
   spin  1
    eigenvalues: 
  1.000  1.000  1.000  1.000  1.000
    eigenvectors:
  1.000  0.000  0.000  0.000  0.000
  0.000  1.000  0.000  0.000  0.000
  0.000  0.000  1.000  0.000  0.000
  0.000  0.000  0.000  1.000  0.000
  0.000  0.000  0.000  0.000  1.000
    occupations:
  1.000  0.000  0.000  0.000  0.000
  0.000  1.000  0.000  0.000  0.000
  0.000  0.000  1.000  0.000  0.000
  0.000  0.000  0.000  1.000  0.000
  0.000  0.000  0.000  0.000  1.000
   spin  2
    eigenvalues: 
  0.000  0.000  0.000  0.000  0.000
    eigenvectors:
  1.000  0.000  0.000  0.000  0.000
  0.000  1.000  0.000  0.000  0.000
  0.000  0.000  1.000  0.000  0.000
  0.000  0.000  0.000  1.000  0.000
  0.000  0.000  0.000  0.000  1.000
    occupations:
  0.000  0.000  0.000  0.000  0.000
  0.000  0.000  0.000  0.000  0.000
  0.000  0.000  0.000  0.000  0.000
  0.000  0.000  0.000  0.000  0.000
  0.000  0.000  0.000  0.000  0.000
atomic mag. moment =     5.000000
atom    5   Tr[ns(na)] (up, down, total) =   5.00000  0.00000  5.00000
   spin  1
    eigenvalues: 
  1.000  1.000  1.000  1.000  1.000
    eigenvectors:
  1.000  0.000  0.000  0.000  0.000
  0.000  1.000  0.000  0.000  0.000
  0.000  0.000  1.000  0.000  0.000
  0.000  0.000  0.000  1.000  0.000
  0.000  0.000  0.000  0.000  1.000
    occupations:
  1.000  0.000  0.000  0.000  0.000
  0.000  1.000  0.000  0.000  0.000
  0.000  0.000  1.000  0.000  0.000
  0.000  0.000  0.000  1.000  0.000
  0.000  0.000  0.000  0.000  1.000
   spin  2
    eigenvalues: 
  0.000  0.000  0.000  0.000  0.000
    eigenvectors:
  1.000  0.000  0.000  0.000  0.000
  0.000  1.000  0.000  0.000  0.000
  0.000  0.000  1.000  0.000  0.000
  0.000  0.000  0.000  1.000  0.000
  0.000  0.000  0.000  0.000  1.000
    occupations:
  0.000  0.000  0.000  0.000  0.000
  0.000  0.000  0.000  0.000  0.000
  0.000  0.000  0.000  0.000  0.000
  0.000  0.000  0.000  0.000  0.000
  0.000  0.000  0.000  0.000  0.000
atomic mag. moment =     5.000000
atom    6   Tr[ns(na)] (up, down, total) =   5.00000  0.00000  5.00000
   spin  1
    eigenvalues: 
  1.000  1.000  1.000  1.000  1.000
    eigenvectors:
  1.000  0.000  0.000  0.000  0.000
  0.000  1.000  0.000  0.000  0.000
  0.000  0.000  1.000  0.000  0.000
  0.000  0.000  0.000  1.000  0.000
  0.000  0.000  0.000  0.000  1.000
    occupations:
  1.000  0.000  0.000  0.000  0.000
  0.000  1.000  0.000  0.000  0.000
  0.000  0.000  1.000  0.000  0.000
  0.000  0.000  0.000  1.000  0.000
  0.000  0.000  0.000  0.000  1.000
   spin  2
    eigenvalues: 
  0.000  0.000  0.000  0.000  0.000
    eigenvectors:
  1.000  0.000  0.000  0.000  0.000
  0.000  1.000  0.000  0.000  0.000
  0.000  0.000  1.000  0.000  0.000
  0.000  0.000  0.000  1.000  0.000
  0.000  0.000  0.000  0.000  1.000
    occupations:
  0.000  0.000  0.000  0.000  0.000
  0.000  0.000  0.000  0.000  0.000
  0.000  0.000  0.000  0.000  0.000
  0.000  0.000  0.000  0.000  0.000
  0.000  0.000  0.000  0.000  0.000
atomic mag. moment =     5.000000
atom    7   Tr[ns(na)] (up, down, total) =   5.00000  0.00000  5.00000
   spin  1
    eigenvalues: 
  1.000  1.000  1.000  1.000  1.000
    eigenvectors:
  1.000  0.000  0.000  0.000  0.000
  0.000  1.000  0.000  0.000  0.000
  0.000  0.000  1.000  0.000  0.000
  0.000  0.000  0.000  1.000  0.000
  0.000  0.000  0.000  0.000  1.000
    occupations:
  1.000  0.000  0.000  0.000  0.000
  0.000  1.000  0.000  0.000  0.000
  0.000  0.000  1.000  0.000  0.000
  0.000  0.000  0.000  1.000  0.000
  0.000  0.000  0.000  0.000  1.000
   spin  2
    eigenvalues: 
  0.000  0.000  0.000  0.000  0.000
    eigenvectors:
  1.000  0.000  0.000  0.000  0.000
  0.000  1.000  0.000  0.000  0.000
  0.000  0.000  1.000  0.000  0.000
  0.000  0.000  0.000  1.000  0.000
  0.000  0.000  0.000  0.000  1.000
    occupations:
  0.000  0.000  0.000  0.000  0.000
  0.000  0.000  0.000  0.000  0.000
  0.000  0.000  0.000  0.000  0.000
  0.000  0.000  0.000  0.000  0.000
  0.000  0.000  0.000  0.000  0.000
atomic mag. moment =     5.000000
atom    8   Tr[ns(na)] (up, down, total) =   5.00000  0.00000  5.00000
   spin  1
    eigenvalues: 
  1.000  1.000  1.000  1.000  1.000
    eigenvectors:
  1.000  0.000  0.000  0.000  0.000
  0.000  1.000  0.000  0.000  0.000
  0.000  0.000  1.000  0.000  0.000
  0.000  0.000  0.000  1.000  0.000
  0.000  0.000  0.000  0.000  1.000
    occupations:
  1.000  0.000  0.000  0.000  0.000
  0.000  1.000  0.000  0.000  0.000
  0.000  0.000  1.000  0.000  0.000
  0.000  0.000  0.000  1.000  0.000
  0.000  0.000  0.000  0.000  1.000
   spin  2
    eigenvalues: 
  0.000  0.000  0.000  0.000  0.000
    eigenvectors:
  1.000  0.000  0.000  0.000  0.000
  0.000  1.000  0.000  0.000  0.000
  0.000  0.000  1.000  0.000  0.000
  0.000  0.000  0.000  1.000  0.000
  0.000  0.000  0.000  0.000  1.000
    occupations:
  0.000  0.000  0.000  0.000  0.000
  0.000  0.000  0.000  0.000  0.000
  0.000  0.000  0.000  0.000  0.000
  0.000  0.000  0.000  0.000  0.000
  0.000  0.000  0.000  0.000  0.000
atomic mag. moment =     5.000000
N of occupied +U levels =   40.000000
 --- exit write_ns ---
 Atomic wfc used for LDA+U Projector are NOT orthogonalized
     Starting wfcs are  224 randomized atomic wfcs
     Checking if some PAW data can be deallocated... 

     total cpu time spent up to now is       90.5 secs

     Self-consistent Calculation

     iteration #  1     ecut=    45.00 Ry     beta= 0.10
     Davidson diagonalization with overlap
     ethr =  1.00E-02,  avg # of iterations =  3.0
 --- enter write_ns ---
 LDA+U parameters:
U(  1) =   3.1200   J(  1) =   0.7000   B(  1) =   0.0803
atom    1   Tr[ns(na)] (up, down, total) =   5.01747  0.40244  5.41991
   spin  1
    eigenvalues: 
  1.003  1.003  1.003  1.004  1.004
    eigenvectors:
  0.000  0.000  0.000  1.000  0.000
  0.000  0.396  0.604  0.000  0.000
  0.000  0.604  0.396  0.000  0.000
  0.000  0.000  0.000  0.000  1.000
  1.000  0.000  0.000  0.000  0.000
    occupations:
  1.004 -0.000 -0.000  0.000  0.000
 -0.000  1.003 -0.000  0.000  0.000
 -0.000 -0.000  1.003  0.000  0.000
  0.000  0.000  0.000  1.004 -0.000
  0.000  0.000  0.000 -0.000  1.003
   spin  2
    eigenvalues: 
  0.053  0.073  0.081  0.081  0.115
    eigenvectors:
  0.000  1.000  0.000  0.000  0.000
  0.000  0.000  0.378  0.622  0.000
  0.000  0.000  0.622  0.378  0.000
  1.000  0.000  0.000  0.000  0.000
  0.000  0.000  0.000  0.000  1.000
    occupations:
  0.073 -0.000 -0.000  0.000  0.000
 -0.000  0.081 -0.000  0.000  0.000
 -0.000 -0.000  0.081  0.000  0.000
  0.000  0.000  0.000  0.053 -0.000
  0.000  0.000  0.000 -0.000  0.115
atomic mag. moment =     4.615026
atom    2   Tr[ns(na)] (up, down, total) =   5.01750  0.40315  5.42065
   spin  1
    eigenvalues: 
  1.003  1.003  1.003  1.004  1.004
    eigenvectors:
  0.000  0.000  0.000  1.000  0.000
  0.000  0.319  0.681  0.000  0.000
  0.000  0.681  0.319  0.000  0.000
  0.000  0.000  0.000  0.000  1.000
  1.000  0.000  0.000  0.000  0.000
    occupations:
  1.004 -0.000 -0.000  0.000  0.000
 -0.000  1.003 -0.000  0.000  0.000
 -0.000 -0.000  1.003  0.000  0.000
  0.000  0.000  0.000  1.004 -0.000
  0.000  0.000  0.000 -0.000  1.003
   spin  2
    eigenvalues: 
  0.053  0.073  0.081  0.081  0.116
    eigenvectors:
  0.000  1.000  0.000  0.000  0.000
  0.000  0.000  0.493  0.507  0.000
  0.000  0.000  0.507  0.493  0.000
  1.000  0.000  0.000  0.000  0.000
  0.000  0.000  0.000  0.000  1.000
    occupations:
  0.073 -0.000 -0.000  0.000  0.000
 -0.000  0.081 -0.000  0.000  0.000
 -0.000 -0.000  0.081  0.000  0.000
  0.000  0.000  0.000  0.053 -0.000
  0.000  0.000  0.000 -0.000  0.116
atomic mag. moment =     4.614354
atom    3   Tr[ns(na)] (up, down, total) =   5.01752  0.40357  5.42109
   spin  1
    eigenvalues: 
  1.003  1.003  1.003  1.004  1.004
    eigenvectors:
  0.000  0.000  0.000  1.000  0.000
  0.000  0.348  0.652  0.000  0.000
  0.000  0.652  0.348  0.000  0.000
  0.000  0.000  0.000  0.000  1.000
  1.000  0.000  0.000  0.000  0.000
    occupations:
  1.004 -0.000 -0.000  0.000  0.000
 -0.000  1.003 -0.000  0.000  0.000
 -0.000 -0.000  1.003  0.000  0.000
  0.000  0.000  0.000  1.004 -0.000
  0.000  0.000  0.000 -0.000  1.003
   spin  2
    eigenvalues: 
  0.053  0.073  0.081  0.081  0.116
    eigenvectors:
  0.000  1.000  0.000  0.000  0.000
  0.000  0.000  0.373  0.627  0.000
  0.000  0.000  0.627  0.373  0.000
  1.000  0.000  0.000  0.000  0.000
  0.000  0.000  0.000  0.000  1.000
    occupations:
  0.073 -0.000 -0.000  0.000  0.000
 -0.000  0.081 -0.000  0.000  0.000
 -0.000 -0.000  0.081  0.000  0.000
  0.000  0.000  0.000  0.053 -0.000
  0.000  0.000  0.000 -0.000  0.116
atomic mag. moment =     4.613948
atom    4   Tr[ns(na)] (up, down, total) =   5.01751  0.40301  5.42052
   spin  1
    eigenvalues: 
  1.003  1.003  1.003  1.004  1.004
    eigenvectors:
  0.000  0.000  0.000  1.000  0.000
  0.000  0.244  0.756  0.000  0.000
  0.000  0.756  0.244  0.000  0.000
  0.000  0.000  0.000  0.000  1.000
  1.000  0.000  0.000  0.000  0.000
    occupations:
  1.004 -0.000 -0.000  0.000  0.000
 -0.000  1.003 -0.000  0.000  0.000
 -0.000 -0.000  1.003  0.000  0.000
  0.000  0.000  0.000  1.004 -0.000
  0.000  0.000  0.000 -0.000  1.003
   spin  2
    eigenvalues: 
  0.053  0.073  0.081  0.081  0.116
    eigenvectors:
  0.000  1.000  0.000  0.000  0.000
  0.000  0.000  0.298  0.702  0.000
  0.000  0.000  0.702  0.298  0.000
  1.000  0.000  0.000  0.000  0.000
  0.000  0.000  0.000  0.000  1.000
    occupations:
  0.073 -0.000 -0.000  0.000  0.000
 -0.000  0.081 -0.000  0.000  0.000
 -0.000 -0.000  0.081  0.000  0.000
  0.000  0.000  0.000  0.053 -0.000
  0.000  0.000  0.000 -0.000  0.116
atomic mag. moment =     4.614501
atom    5   Tr[ns(na)] (up, down, total) =   5.01752  0.40309  5.42061
   spin  1
    eigenvalues: 
  1.003  1.003  1.003  1.004  1.004
    eigenvectors:
  0.000  0.000  0.000  1.000  0.000
  0.000  0.339  0.661  0.000  0.000
  0.000  0.661  0.339  0.000  0.000
  0.000  0.000  0.000  0.000  1.000
  1.000  0.000  0.000  0.000  0.000
    occupations:
  1.004 -0.000 -0.000  0.000  0.000
 -0.000  1.003 -0.000  0.000  0.000
 -0.000 -0.000  1.003  0.000  0.000
  0.000  0.000  0.000  1.004 -0.000
  0.000  0.000  0.000 -0.000  1.003
   spin  2
    eigenvalues: 
  0.053  0.073  0.081  0.081  0.116
    eigenvectors:
  0.000  1.000  0.000  0.000  0.000
  0.000  0.000  0.390  0.610  0.000
  0.000  0.000  0.610  0.390  0.000
  1.000  0.000  0.000  0.000  0.000
  0.000  0.000  0.000  0.000  1.000
    occupations:
  0.073 -0.000 -0.000  0.000  0.000
 -0.000  0.081 -0.000  0.000  0.000
 -0.000 -0.000  0.081  0.000  0.000
  0.000  0.000  0.000  0.053 -0.000
  0.000  0.000  0.000 -0.000  0.116
atomic mag. moment =     4.614439
atom    6   Tr[ns(na)] (up, down, total) =   5.01751  0.40301  5.42052
   spin  1
    eigenvalues: 
  1.003  1.003  1.003  1.004  1.004
    eigenvectors:
  0.000  0.000  0.000  1.000  0.000
  0.000  0.230  0.770  0.000  0.000
  0.000  0.770  0.230  0.000  0.000
  0.000  0.000  0.000  0.000  1.000
  1.000  0.000  0.000  0.000  0.000
    occupations:
  1.004 -0.000 -0.000  0.000  0.000
 -0.000  1.003 -0.000  0.000  0.000
 -0.000 -0.000  1.003  0.000  0.000
  0.000  0.000  0.000  1.004 -0.000
  0.000  0.000  0.000 -0.000  1.003
   spin  2
    eigenvalues: 
  0.053  0.073  0.081  0.081  0.116
    eigenvectors:
  0.000  1.000  0.000  0.000  0.000
  0.000  0.000  0.383  0.617  0.000
  0.000  0.000  0.617  0.383  0.000
  1.000  0.000  0.000  0.000  0.000
  0.000  0.000  0.000  0.000  1.000
    occupations:
  0.073 -0.000 -0.000  0.000  0.000
 -0.000  0.081 -0.000  0.000  0.000
 -0.000 -0.000  0.081  0.000  0.000
  0.000  0.000  0.000  0.053 -0.000
  0.000  0.000  0.000 -0.000  0.116
atomic mag. moment =     4.614501
atom    7   Tr[ns(na)] (up, down, total) =   5.01752  0.40357  5.42109
   spin  1
    eigenvalues: 
  1.003  1.003  1.003  1.004  1.004
    eigenvectors:
  0.000  0.000  0.000  1.000  0.000
  0.000  0.345  0.655  0.000  0.000
  0.000  0.655  0.345  0.000  0.000
  0.000  0.000  0.000  0.000  1.000
  1.000  0.000  0.000  0.000  0.000
    occupations:
  1.004 -0.000 -0.000  0.000  0.000
 -0.000  1.003 -0.000  0.000  0.000
 -0.000 -0.000  1.003  0.000  0.000
  0.000  0.000  0.000  1.004 -0.000
  0.000  0.000  0.000 -0.000  1.003
   spin  2
    eigenvalues: 
  0.053  0.073  0.081  0.081  0.116
    eigenvectors:
  0.000  1.000  0.000  0.000  0.000
  0.000  0.000  0.325  0.675  0.000
  0.000  0.000  0.675  0.325  0.000
  1.000  0.000  0.000  0.000  0.000
  0.000  0.000  0.000  0.000  1.000
    occupations:
  0.073 -0.000 -0.000  0.000  0.000
 -0.000  0.081 -0.000  0.000  0.000
 -0.000 -0.000  0.081  0.000  0.000
  0.000  0.000  0.000  0.053 -0.000
  0.000  0.000  0.000 -0.000  0.116
atomic mag. moment =     4.613948
atom    8   Tr[ns(na)] (up, down, total) =   5.01750  0.40315  5.42065
   spin  1
    eigenvalues: 
  1.003  1.003  1.003  1.004  1.004
    eigenvectors:
  0.000  0.000  0.000  1.000  0.000
  0.000  0.279  0.721  0.000  0.000
  0.000  0.721  0.279  0.000  0.000
  0.000  0.000  0.000  0.000  1.000
  1.000  0.000  0.000  0.000  0.000
    occupations:
  1.004 -0.000 -0.000  0.000  0.000
 -0.000  1.003 -0.000  0.000  0.000
 -0.000 -0.000  1.003  0.000  0.000
  0.000  0.000  0.000  1.004 -0.000
  0.000  0.000  0.000 -0.000  1.003
   spin  2
    eigenvalues: 
  0.053  0.073  0.081  0.081  0.116
    eigenvectors:
  0.000  1.000  0.000  0.000  0.000
  0.000  0.000  0.280  0.720  0.000
  0.000  0.000  0.720  0.280  0.000
  1.000  0.000  0.000  0.000  0.000
  0.000  0.000  0.000  0.000  1.000
    occupations:
  0.073 -0.000 -0.000  0.000  0.000
 -0.000  0.081 -0.000  0.000  0.000
 -0.000 -0.000  0.081  0.000  0.000
  0.000  0.000  0.000  0.053 -0.000
  0.000  0.000  0.000 -0.000  0.116
atomic mag. moment =     4.614354
N of occupied +U levels =   43.365050
 --- exit write_ns ---

     total cpu time spent up to now is      298.7 secs

     total energy              =  -14687.26434646 Ry
     Harris-Foulkes estimate   =  -14685.79828799 Ry
     estimated scf accuracy    <      11.51198497 Ry

     total magnetization       =    40.41 Bohr mag/cell
     absolute magnetization    =    41.47 Bohr mag/cell

     iteration #  2     ecut=    45.00 Ry     beta= 0.10
     Davidson diagonalization with overlap
     ethr =  3.89E-03,  avg # of iterations =  1.0

     total cpu time spent up to now is      443.6 secs

     total energy              =  -14692.51376519 Ry
     Harris-Foulkes estimate   =  -14687.33531164 Ry
     estimated scf accuracy    <       9.29391660 Ry

     total magnetization       =    39.98 Bohr mag/cell
     absolute magnetization    =    41.20 Bohr mag/cell

     iteration #  3     ecut=    45.00 Ry     beta= 0.10
     Davidson diagonalization with overlap
     ethr =  3.14E-03,  avg # of iterations =  3.1

     total cpu time spent up to now is      661.3 secs

     total energy              =  -14693.51911869 Ry
     Harris-Foulkes estimate   =  -14694.41365035 Ry
     estimated scf accuracy    <      67.36657233 Ry

     total magnetization       =    37.45 Bohr mag/cell
     absolute magnetization    =    38.38 Bohr mag/cell

     iteration #  4     ecut=    45.00 Ry     beta= 0.10
     Davidson diagonalization with overlap
     ethr =  3.14E-03,  avg # of iterations =  2.1

     total cpu time spent up to now is      828.9 secs

     total energy              =  -14695.69811814 Ry
     Harris-Foulkes estimate   =  -14694.09619446 Ry
     estimated scf accuracy    <       3.92799407 Ry

     total magnetization       =    37.10 Bohr mag/cell
     absolute magnetization    =    38.42 Bohr mag/cell

     iteration #  5     ecut=    45.00 Ry     beta= 0.10
     Davidson diagonalization with overlap
     ethr =  1.33E-03,  avg # of iterations =  2.2

     total cpu time spent up to now is     1006.5 secs

     total energy              =  -14692.99826788 Ry
     Harris-Foulkes estimate   =  -14696.17958801 Ry
     estimated scf accuracy    <      13.08797915 Ry

     total magnetization       =    34.85 Bohr mag/cell
     absolute magnetization    =    36.06 Bohr mag/cell

     iteration #  6     ecut=    45.00 Ry     beta= 0.10
     Davidson diagonalization with overlap
     ethr =  1.33E-03,  avg # of iterations =  3.2

     total cpu time spent up to now is     1230.4 secs

     total energy              =  -14693.89215487 Ry
     Harris-Foulkes estimate   =  -14693.99480712 Ry
     estimated scf accuracy    <       2.57267994 Ry

     total magnetization       =    36.69 Bohr mag/cell
     absolute magnetization    =    38.18 Bohr mag/cell

     iteration #  7     ecut=    45.00 Ry     beta= 0.10
     Davidson diagonalization with overlap
     ethr =  8.69E-04,  avg # of iterations =  2.3

     total cpu time spent up to now is     1407.7 secs

     total energy              =  -14693.87922456 Ry
     Harris-Foulkes estimate   =  -14693.98552083 Ry
     estimated scf accuracy    <       0.39790421 Ry

     total magnetization       =    35.93 Bohr mag/cell
     absolute magnetization    =    37.77 Bohr mag/cell

     iteration #  8     ecut=    45.00 Ry     beta= 0.10
     Davidson diagonalization with overlap
     ethr =  1.34E-04,  avg # of iterations =  3.9

     total cpu time spent up to now is     1693.1 secs

     total energy              =  -14694.02402622 Ry
     Harris-Foulkes estimate   =  -14694.02283101 Ry
     estimated scf accuracy    <       0.28586625 Ry

     total magnetization       =    34.64 Bohr mag/cell
     absolute magnetization    =    36.92 Bohr mag/cell

     iteration #  9     ecut=    45.00 Ry     beta= 0.10
     Davidson diagonalization with overlap
     ethr =  9.66E-05,  avg # of iterations =  1.0

     total cpu time spent up to now is     1839.3 secs

     total energy              =  -14694.01644206 Ry
     Harris-Foulkes estimate   =  -14694.02531813 Ry
     estimated scf accuracy    <       0.35036218 Ry

     total magnetization       =    34.71 Bohr mag/cell
     absolute magnetization    =    36.95 Bohr mag/cell

     iteration # 10     ecut=    45.00 Ry     beta= 0.10
     Davidson diagonalization with overlap
     ethr =  9.66E-05,  avg # of iterations =  1.0

     total cpu time spent up to now is     1985.3 secs

     total energy              =  -14693.99967108 Ry
     Harris-Foulkes estimate   =  -14694.02150349 Ry
     estimated scf accuracy    <       0.30549845 Ry

     total magnetization       =    34.54 Bohr mag/cell
     absolute magnetization    =    36.89 Bohr mag/cell

     iteration # 11     ecut=    45.00 Ry     beta= 0.10
     Davidson diagonalization with overlap
     ethr =  9.66E-05,  avg # of iterations =  1.1

     total cpu time spent up to now is     2132.5 secs

     total energy              =  -14694.00710753 Ry
     Harris-Foulkes estimate   =  -14694.00852682 Ry
     estimated scf accuracy    <       0.10954218 Ry

     total magnetization       =    34.58 Bohr mag/cell
     absolute magnetization    =    36.96 Bohr mag/cell

     iteration # 12     ecut=    45.00 Ry     beta= 0.10
     Davidson diagonalization with overlap
     ethr =  3.70E-05,  avg # of iterations =  1.1

     total cpu time spent up to now is     2279.9 secs

     total energy              =  -14694.00772690 Ry
     Harris-Foulkes estimate   =  -14694.00843996 Ry
     estimated scf accuracy    <       0.03928822 Ry

     total magnetization       =    34.51 Bohr mag/cell
     absolute magnetization    =    36.94 Bohr mag/cell

     iteration # 13     ecut=    45.00 Ry     beta= 0.10
     Davidson diagonalization with overlap
     c_bands:  1 eigenvalues not converged
     ethr =  1.33E-05,  avg # of iterations =  3.0

     total cpu time spent up to now is     2467.9 secs

     total energy              =  -14694.01051241 Ry
     Harris-Foulkes estimate   =  -14694.00943328 Ry
     estimated scf accuracy    <       0.00582339 Ry

     total magnetization       =    34.43 Bohr mag/cell
     absolute magnetization    =    36.92 Bohr mag/cell

     iteration # 14     ecut=    45.00 Ry     beta= 0.10
     Davidson diagonalization with overlap
     c_bands:  1 eigenvalues not converged
     ethr =  1.97E-06,  avg # of iterations =  4.3

     total cpu time spent up to now is     2689.0 secs

     total energy              =  -14694.01129197 Ry
     Harris-Foulkes estimate   =  -14694.01071998 Ry
     estimated scf accuracy    <       0.00317207 Ry

     total magnetization       =    34.36 Bohr mag/cell
     absolute magnetization    =    36.89 Bohr mag/cell

     iteration # 15     ecut=    45.00 Ry     beta= 0.10
     Davidson diagonalization with overlap
     ethr =  1.07E-06,  avg # of iterations =  1.9

     total cpu time spent up to now is     2857.6 secs

     total energy              =  -14694.01148016 Ry
     Harris-Foulkes estimate   =  -14694.01135246 Ry
     estimated scf accuracy    <       0.00059578 Ry

     total magnetization       =    34.28 Bohr mag/cell
     absolute magnetization    =    36.86 Bohr mag/cell

     iteration # 16     ecut=    45.00 Ry     beta= 0.10
     Davidson diagonalization with overlap
     ethr =  2.01E-07,  avg # of iterations =  2.8

     total cpu time spent up to now is     3046.3 secs

     total energy              =  -14694.01154781 Ry
     Harris-Foulkes estimate   =  -14694.01148486 Ry
     estimated scf accuracy    <       0.00015493 Ry

     total magnetization       =    34.26 Bohr mag/cell
     absolute magnetization    =    36.86 Bohr mag/cell

     iteration # 17     ecut=    45.00 Ry     beta= 0.10
     Davidson diagonalization with overlap
     ethr =  5.23E-08,  avg # of iterations =  2.4

     total cpu time spent up to now is     3221.9 secs

     total energy              =  -14694.01151994 Ry
     Harris-Foulkes estimate   =  -14694.01152083 Ry
     estimated scf accuracy    <       0.00017053 Ry

     total magnetization       =    34.25 Bohr mag/cell
     absolute magnetization    =    36.86 Bohr mag/cell

     iteration # 18     ecut=    45.00 Ry     beta= 0.10
     Davidson diagonalization with overlap
     ethr =  5.23E-08,  avg # of iterations =  1.0

     total cpu time spent up to now is     3367.0 secs

     total energy              =  -14694.01156874 Ry
     Harris-Foulkes estimate   =  -14694.01151510 Ry
     estimated scf accuracy    <       0.00012978 Ry

     total magnetization       =    34.24 Bohr mag/cell
     absolute magnetization    =    36.86 Bohr mag/cell

     iteration # 19     ecut=    45.00 Ry     beta= 0.10
     Davidson diagonalization with overlap
     ethr =  4.38E-08,  avg # of iterations =  1.9

     total cpu time spent up to now is     3530.0 secs

     total energy              =  -14694.01151655 Ry
     Harris-Foulkes estimate   =  -14694.01151027 Ry
     estimated scf accuracy    <       0.00009804 Ry

     total magnetization       =    34.22 Bohr mag/cell
     absolute magnetization    =    36.85 Bohr mag/cell

     iteration # 20     ecut=    45.00 Ry     beta= 0.10
     Davidson diagonalization with overlap
     ethr =  3.31E-08,  avg # of iterations =  1.1

     total cpu time spent up to now is     3678.1 secs

     total energy              =  -14694.01150217 Ry
     Harris-Foulkes estimate   =  -14694.01150075 Ry
     estimated scf accuracy    <       0.00016191 Ry

     total magnetization       =    34.21 Bohr mag/cell
     absolute magnetization    =    36.85 Bohr mag/cell

     iteration # 21     ecut=    45.00 Ry     beta= 0.10
     Davidson diagonalization with overlap
     ethr =  3.31E-08,  avg # of iterations =  1.0

     total cpu time spent up to now is     3823.5 secs

     total energy              =  -14694.01149863 Ry
     Harris-Foulkes estimate   =  -14694.01149712 Ry
     estimated scf accuracy    <       0.00012698 Ry

     total magnetization       =    34.21 Bohr mag/cell
     absolute magnetization    =    36.85 Bohr mag/cell

     iteration # 22     ecut=    45.00 Ry     beta= 0.10
     Davidson diagonalization with overlap
     ethr =  3.31E-08,  avg # of iterations =  1.0

     total cpu time spent up to now is     3970.1 secs

     total energy              =  -14694.01149687 Ry
     Harris-Foulkes estimate   =  -14694.01149516 Ry
     estimated scf accuracy    <       0.00002433 Ry

     total magnetization       =    34.20 Bohr mag/cell
     absolute magnetization    =    36.85 Bohr mag/cell

     iteration # 23     ecut=    45.00 Ry     beta= 0.10
     Davidson diagonalization with overlap
     ethr =  8.22E-09,  avg # of iterations =  1.1

     total cpu time spent up to now is     4117.4 secs

     total energy              =  -14694.01150021 Ry
     Harris-Foulkes estimate   =  -14694.01149882 Ry
     estimated scf accuracy    <       0.00000844 Ry

     total magnetization       =    34.20 Bohr mag/cell
     absolute magnetization    =    36.85 Bohr mag/cell

     iteration # 24     ecut=    45.00 Ry     beta= 0.10
     Davidson diagonalization with overlap
     ethr =  2.85E-09,  avg # of iterations =  1.2

     total cpu time spent up to now is     4269.1 secs

     total energy              =  -14694.01149939 Ry
     Harris-Foulkes estimate   =  -14694.01149845 Ry
     estimated scf accuracy    <       0.00000948 Ry

     total magnetization       =    34.20 Bohr mag/cell
     absolute magnetization    =    36.85 Bohr mag/cell

     iteration # 25     ecut=    45.00 Ry     beta= 0.10
     Davidson diagonalization with overlap
     ethr =  2.85E-09,  avg # of iterations =  1.0

     total cpu time spent up to now is     4415.9 secs

     total energy              =  -14694.01150008 Ry
     Harris-Foulkes estimate   =  -14694.01149908 Ry
     estimated scf accuracy    <       0.00000945 Ry

     total magnetization       =    34.20 Bohr mag/cell
     absolute magnetization    =    36.85 Bohr mag/cell

     iteration # 26     ecut=    45.00 Ry     beta= 0.10
     Davidson diagonalization with overlap
     ethr =  2.85E-09,  avg # of iterations =  1.0

     total cpu time spent up to now is     4562.0 secs

     total energy              =  -14694.01149957 Ry
     Harris-Foulkes estimate   =  -14694.01149871 Ry
     estimated scf accuracy    <       0.00001077 Ry

     total magnetization       =    34.20 Bohr mag/cell
     absolute magnetization    =    36.86 Bohr mag/cell

     iteration # 27     ecut=    45.00 Ry     beta= 0.10
     Davidson diagonalization with overlap
     ethr =  2.85E-09,  avg # of iterations =  1.0

     total cpu time spent up to now is     4707.8 secs

     total energy              =  -14694.01149937 Ry
     Harris-Foulkes estimate   =  -14694.01149909 Ry
     estimated scf accuracy    <       0.00000998 Ry

     total magnetization       =    34.20 Bohr mag/cell
     absolute magnetization    =    36.86 Bohr mag/cell

     iteration # 28     ecut=    45.00 Ry     beta= 0.10
     Davidson diagonalization with overlap
     ethr =  2.85E-09,  avg # of iterations =  1.0

     total cpu time spent up to now is     4853.6 secs

     total energy              =  -14694.01150202 Ry
     Harris-Foulkes estimate   =  -14694.01150147 Ry
     estimated scf accuracy    <       0.00000300 Ry

     total magnetization       =    34.20 Bohr mag/cell
     absolute magnetization    =    36.86 Bohr mag/cell

     iteration # 29     ecut=    45.00 Ry     beta= 0.10
     Davidson diagonalization with overlap
     ethr =  1.01E-09,  avg # of iterations =  1.0

     total cpu time spent up to now is     4999.9 secs

     total energy              =  -14694.01150138 Ry
     Harris-Foulkes estimate   =  -14694.01150100 Ry
     estimated scf accuracy    <       0.00000782 Ry

     total magnetization       =    34.20 Bohr mag/cell
     absolute magnetization    =    36.86 Bohr mag/cell

     iteration # 30     ecut=    45.00 Ry     beta= 0.10
     Davidson diagonalization with overlap
     ethr =  1.01E-09,  avg # of iterations =  1.0

     total cpu time spent up to now is     5145.9 secs

     total energy              =  -14694.01150153 Ry
     Harris-Foulkes estimate   =  -14694.01150122 Ry
     estimated scf accuracy    <       0.00000177 Ry

     total magnetization       =    34.20 Bohr mag/cell
     absolute magnetization    =    36.86 Bohr mag/cell

     iteration # 31     ecut=    45.00 Ry     beta= 0.10
     Davidson diagonalization with overlap
     ethr =  5.97E-10,  avg # of iterations =  1.0

     total cpu time spent up to now is     5291.8 secs

     total energy              =  -14694.01150211 Ry
     Harris-Foulkes estimate   =  -14694.01150180 Ry
     estimated scf accuracy    <       0.00000225 Ry

     total magnetization       =    34.20 Bohr mag/cell
     absolute magnetization    =    36.86 Bohr mag/cell

     iteration # 32     ecut=    45.00 Ry     beta= 0.10
     Davidson diagonalization with overlap
     ethr =  5.97E-10,  avg # of iterations =  1.0

     total cpu time spent up to now is     5436.7 secs

     total energy              =  -14694.01150047 Ry
     Harris-Foulkes estimate   =  -14694.01150024 Ry
     estimated scf accuracy    <       0.00000295 Ry

     total magnetization       =    34.20 Bohr mag/cell
     absolute magnetization    =    36.86 Bohr mag/cell

     iteration # 33     ecut=    45.00 Ry     beta= 0.10
     Davidson diagonalization with overlap
     ethr =  5.97E-10,  avg # of iterations =  1.0

     total cpu time spent up to now is     5582.3 secs

     total energy              =  -14694.01150095 Ry
     Harris-Foulkes estimate   =  -14694.01150071 Ry
     estimated scf accuracy    <       0.00000269 Ry

     total magnetization       =    34.20 Bohr mag/cell
     absolute magnetization    =    36.86 Bohr mag/cell

     iteration # 34     ecut=    45.00 Ry     beta= 0.10
     Davidson diagonalization with overlap
     ethr =  5.97E-10,  avg # of iterations =  1.0

     total cpu time spent up to now is     5726.7 secs

     total energy              =  -14694.01150096 Ry
     Harris-Foulkes estimate   =  -14694.01150080 Ry
     estimated scf accuracy    <       0.00000956 Ry

     total magnetization       =    34.20 Bohr mag/cell
     absolute magnetization    =    36.86 Bohr mag/cell

     iteration # 35     ecut=    45.00 Ry     beta= 0.10
     Davidson diagonalization with overlap
     ethr =  5.97E-10,  avg # of iterations =  1.0

     total cpu time spent up to now is     5871.5 secs

     total energy              =  -14694.01150129 Ry
     Harris-Foulkes estimate   =  -14694.01150119 Ry
     estimated scf accuracy    <       0.00000232 Ry

     total magnetization       =    34.20 Bohr mag/cell
     absolute magnetization    =    36.86 Bohr mag/cell

     iteration # 36     ecut=    45.00 Ry     beta= 0.10
     Davidson diagonalization with overlap
     ethr =  5.97E-10,  avg # of iterations =  1.0
 
     Magnetic moment per site:
     atom:    1    charge:   13.5543    magn:    4.1901    constr:    0.0000
     atom:    2    charge:   13.5546    magn:    4.1904    constr:    0.0000
     atom:    3    charge:   13.5542    magn:    4.1909    constr:    0.0000
     atom:    4    charge:   13.5541    magn:    4.1912    constr:    0.0000
     atom:    5    charge:   13.5542    magn:    4.1914    constr:    0.0000
     atom:    6    charge:   13.5541    magn:    4.1912    constr:    0.0000
     atom:    7    charge:   13.5542    magn:    4.1909    constr:    0.0000
     atom:    8    charge:   13.5546    magn:    4.1904    constr:    0.0000
     atom:    9    charge:    9.1208    magn:    0.0245    constr:    0.0000
     atom:   10    charge:    9.1207    magn:    0.0243    constr:    0.0000
     atom:   11    charge:    9.1208    magn:    0.0246    constr:    0.0000
     atom:   12    charge:    9.1208    magn:    0.0247    constr:    0.0000
     atom:   13    charge:    9.1206    magn:    0.0247    constr:    0.0000
     atom:   14    charge:    9.1209    magn:    0.0249    constr:    0.0000
     atom:   15    charge:    9.1210    magn:    0.0246    constr:    0.0000
     atom:   16    charge:    9.1206    magn:    0.0245    constr:    0.0000
     atom:   17    charge:    9.1206    magn:    0.0245    constr:    0.0000
     atom:   18    charge:    9.1210    magn:    0.0246    constr:    0.0000
     atom:   19    charge:    9.1209    magn:    0.0249    constr:    0.0000
     atom:   20    charge:    9.1206    magn:    0.0247    constr:    0.0000
     atom:   21    charge:    9.1208    magn:    0.0247    constr:    0.0000
     atom:   22    charge:    9.1208    magn:    0.0246    constr:    0.0000
     atom:   23    charge:    9.1207    magn:    0.0243    constr:    0.0000
     atom:   24    charge:    9.1208    magn:    0.0245    constr:    0.0000

     total cpu time spent up to now is     6016.5 secs

     End of self-consistent calculation
 --- enter write_ns ---
 LDA+U parameters:
U(  1) =   3.1200   J(  1) =   0.7000   B(  1) =   0.0803
atom    1   Tr[ns(na)] (up, down, total) =   4.96828  0.77146  5.73974
   spin  1
    eigenvalues: 
  0.984  0.993  0.993  0.996  1.002
    eigenvectors:
  0.000  0.000  0.000  1.000  0.000
  0.000  0.280  0.720  0.000  0.000
  0.000  0.720  0.280  0.000  0.000
  0.000  0.000  0.000  0.000  1.000
  1.000  0.000  0.000  0.000  0.000
    occupations:
  0.996 -0.000 -0.000  0.000  0.000
 -0.000  0.993 -0.000  0.000  0.000
 -0.000 -0.000  0.993  0.000  0.000
  0.000  0.000  0.000  1.002 -0.000
  0.000  0.000  0.000 -0.000  0.984
   spin  2
    eigenvalues: 
  0.065  0.145  0.145  0.148  0.268
    eigenvectors:
  0.000  0.000  0.000  1.000  0.000
  0.000  0.345  0.655  0.000  0.000
  0.000  0.655  0.345  0.000  0.000
  1.000  0.000  0.000  0.000  0.000
  0.000  0.000  0.000  0.000  1.000
    occupations:
  0.148 -0.000 -0.000  0.000  0.000
 -0.000  0.145 -0.000  0.000  0.000
 -0.000 -0.000  0.145  0.000  0.000
  0.000  0.000  0.000  0.065 -0.000
  0.000  0.000  0.000 -0.000  0.268
atomic mag. moment =     4.196825
atom    2   Tr[ns(na)] (up, down, total) =   4.96852  0.77135  5.73987
   spin  1
    eigenvalues: 
  0.984  0.993  0.993  0.996  1.002
    eigenvectors:
  0.000  0.000  0.000  1.000  0.000
  0.000  0.291  0.709  0.000  0.000
  0.000  0.709  0.291  0.000  0.000
  0.000  0.000  0.000  0.000  1.000
  1.000  0.000  0.000  0.000  0.000
    occupations:
  0.996 -0.000 -0.000  0.000  0.000
 -0.000  0.993 -0.000  0.000  0.000
 -0.000 -0.000  0.993  0.000  0.000
  0.000  0.000  0.000  1.002 -0.000
  0.000  0.000  0.000 -0.000  0.984
   spin  2
    eigenvalues: 
  0.065  0.145  0.145  0.148  0.268
    eigenvectors:
  0.000  0.000  0.000  1.000  0.000
  0.000  0.340  0.660  0.000  0.000
  0.000  0.660  0.340  0.000  0.000
  1.000  0.000  0.000  0.000  0.000
  0.000  0.000  0.000  0.000  1.000
    occupations:
  0.148 -0.000 -0.000  0.000  0.000
 -0.000  0.145 -0.000  0.000  0.000
 -0.000 -0.000  0.145  0.000  0.000
  0.000  0.000  0.000  0.065 -0.000
  0.000  0.000  0.000 -0.000  0.268
atomic mag. moment =     4.197165
atom    3   Tr[ns(na)] (up, down, total) =   4.96834  0.77082  5.73917
   spin  1
    eigenvalues: 
  0.984  0.993  0.993  0.996  1.002
    eigenvectors:
  0.000  0.000  0.000  1.000  0.000
  0.000  0.336  0.664  0.000  0.000
  0.000  0.664  0.336  0.000  0.000
  0.000  0.000  0.000  0.000  1.000
  1.000  0.000  0.000  0.000  0.000
    occupations:
  0.996 -0.000 -0.000  0.000  0.000
 -0.000  0.993 -0.000  0.000  0.000
 -0.000 -0.000  0.993  0.000  0.000
  0.000  0.000  0.000  1.002 -0.000
  0.000  0.000  0.000 -0.000  0.984
   spin  2
    eigenvalues: 
  0.065  0.145  0.145  0.148  0.268
    eigenvectors:
  0.000  0.000  0.000  1.000  0.000
  0.000  0.321  0.679  0.000  0.000
  0.000  0.679  0.321  0.000  0.000
  1.000  0.000  0.000  0.000  0.000
  0.000  0.000  0.000  0.000  1.000
    occupations:
  0.148 -0.000 -0.000  0.000  0.000
 -0.000  0.145 -0.000  0.000  0.000
 -0.000 -0.000  0.145  0.000  0.000
  0.000  0.000  0.000  0.065 -0.000
  0.000  0.000  0.000 -0.000  0.268
atomic mag. moment =     4.197523
atom    4   Tr[ns(na)] (up, down, total) =   4.96850  0.77059  5.73909
   spin  1
    eigenvalues: 
  0.984  0.993  0.993  0.996  1.002
    eigenvectors:
  0.000  0.000  0.000  1.000  0.000
  0.000  0.289  0.711  0.000  0.000
  0.000  0.711  0.289  0.000  0.000
  0.000  0.000  0.000  0.000  1.000
  1.000  0.000  0.000  0.000  0.000
    occupations:
  0.996 -0.000 -0.000  0.000  0.000
 -0.000  0.993 -0.000  0.000  0.000
 -0.000 -0.000  0.993  0.000  0.000
  0.000  0.000  0.000  1.002 -0.000
  0.000  0.000  0.000 -0.000  0.984
   spin  2
    eigenvalues: 
  0.065  0.145  0.145  0.148  0.267
    eigenvectors:
  0.000  0.000  0.000  1.000  0.000
  0.000  0.309  0.691  0.000  0.000
  0.000  0.691  0.309  0.000  0.000
  1.000  0.000  0.000  0.000  0.000
  0.000  0.000  0.000  0.000  1.000
    occupations:
  0.148 -0.000 -0.000  0.000  0.000
 -0.000  0.145 -0.000  0.000  0.000
 -0.000 -0.000  0.145  0.000  0.000
  0.000  0.000  0.000  0.065 -0.000
  0.000  0.000  0.000 -0.000  0.267
atomic mag. moment =     4.197908
atom    5   Tr[ns(na)] (up, down, total) =   4.96847  0.77046  5.73893
   spin  1
    eigenvalues: 
  0.984  0.993  0.993  0.996  1.002
    eigenvectors:
  0.000  0.000  0.000  1.000  0.000
  0.000  0.391  0.609  0.000  0.000
  0.000  0.609  0.391  0.000  0.000
  0.000  0.000  0.000  0.000  1.000
  1.000  0.000  0.000  0.000  0.000
    occupations:
  0.996 -0.000 -0.000  0.000  0.000
 -0.000  0.993 -0.000  0.000  0.000
 -0.000 -0.000  0.993  0.000  0.000
  0.000  0.000  0.000  1.002 -0.000
  0.000  0.000  0.000 -0.000  0.984
   spin  2
    eigenvalues: 
  0.065  0.145  0.145  0.148  0.268
    eigenvectors:
  0.000  0.000  0.000  1.000  0.000
  0.000  0.325  0.675  0.000  0.000
  0.000  0.675  0.325  0.000  0.000
  1.000  0.000  0.000  0.000  0.000
  0.000  0.000  0.000  0.000  1.000
    occupations:
  0.148 -0.000 -0.000  0.000  0.000
 -0.000  0.145 -0.000  0.000  0.000
 -0.000 -0.000  0.145  0.000  0.000
  0.000  0.000  0.000  0.065 -0.000
  0.000  0.000  0.000 -0.000  0.268
atomic mag. moment =     4.198015
atom    6   Tr[ns(na)] (up, down, total) =   4.96850  0.77059  5.73909
   spin  1
    eigenvalues: 
  0.984  0.993  0.993  0.996  1.002
    eigenvectors:
  0.000  0.000  0.000  1.000  0.000
  0.000  0.298  0.702  0.000  0.000
  0.000  0.702  0.298  0.000  0.000
  0.000  0.000  0.000  0.000  1.000
  1.000  0.000  0.000  0.000  0.000
    occupations:
  0.996 -0.000 -0.000  0.000  0.000
 -0.000  0.993 -0.000  0.000  0.000
 -0.000 -0.000  0.993  0.000  0.000
  0.000  0.000  0.000  1.002 -0.000
  0.000  0.000  0.000 -0.000  0.984
   spin  2
    eigenvalues: 
  0.065  0.145  0.145  0.148  0.267
    eigenvectors:
  0.000  0.000  0.000  1.000  0.000
  0.000  0.323  0.677  0.000  0.000
  0.000  0.677  0.323  0.000  0.000
  1.000  0.000  0.000  0.000  0.000
  0.000  0.000  0.000  0.000  1.000
    occupations:
  0.148 -0.000 -0.000  0.000  0.000
 -0.000  0.145 -0.000  0.000  0.000
 -0.000 -0.000  0.145  0.000  0.000
  0.000  0.000  0.000  0.065 -0.000
  0.000  0.000  0.000 -0.000  0.267
atomic mag. moment =     4.197908
atom    7   Tr[ns(na)] (up, down, total) =   4.96834  0.77082  5.73917
   spin  1
    eigenvalues: 
  0.984  0.993  0.993  0.996  1.002
    eigenvectors:
  0.000  0.000  0.000  1.000  0.000
  0.000  0.268  0.732  0.000  0.000
  0.000  0.732  0.268  0.000  0.000
  0.000  0.000  0.000  0.000  1.000
  1.000  0.000  0.000  0.000  0.000
    occupations:
  0.996 -0.000 -0.000  0.000  0.000
 -0.000  0.993 -0.000  0.000  0.000
 -0.000 -0.000  0.993  0.000  0.000
  0.000  0.000  0.000  1.002 -0.000
  0.000  0.000  0.000 -0.000  0.984
   spin  2
    eigenvalues: 
  0.065  0.145  0.145  0.148  0.268
    eigenvectors:
  0.000  0.000  0.000  1.000  0.000
  0.000  0.281  0.719  0.000  0.000
  0.000  0.719  0.281  0.000  0.000
  1.000  0.000  0.000  0.000  0.000
  0.000  0.000  0.000  0.000  1.000
    occupations:
  0.148 -0.000 -0.000  0.000  0.000
 -0.000  0.145 -0.000  0.000  0.000
 -0.000 -0.000  0.145  0.000  0.000
  0.000  0.000  0.000  0.065 -0.000
  0.000  0.000  0.000 -0.000  0.268
atomic mag. moment =     4.197523
atom    8   Tr[ns(na)] (up, down, total) =   4.96852  0.77135  5.73987
   spin  1
    eigenvalues: 
  0.984  0.993  0.993  0.996  1.002
    eigenvectors:
  0.000  0.000  0.000  1.000  0.000
  0.000  0.332  0.668  0.000  0.000
  0.000  0.668  0.332  0.000  0.000
  0.000  0.000  0.000  0.000  1.000
  1.000  0.000  0.000  0.000  0.000
    occupations:
  0.996 -0.000 -0.000  0.000  0.000
 -0.000  0.993 -0.000  0.000  0.000
 -0.000 -0.000  0.993  0.000  0.000
  0.000  0.000  0.000  1.002 -0.000
  0.000  0.000  0.000 -0.000  0.984
   spin  2
    eigenvalues: 
  0.065  0.145  0.145  0.148  0.268
    eigenvectors:
  0.000  0.000  0.000  1.000  0.000
  0.000  0.287  0.713  0.000  0.000
  0.000  0.713  0.287  0.000  0.000
  1.000  0.000  0.000  0.000  0.000
  0.000  0.000  0.000  0.000  1.000
    occupations:
  0.148 -0.000 -0.000  0.000  0.000
 -0.000  0.145 -0.000  0.000  0.000
 -0.000 -0.000  0.145  0.000  0.000
  0.000  0.000  0.000  0.065 -0.000
  0.000  0.000  0.000 -0.000  0.268
atomic mag. moment =     4.197165
N of occupied +U levels =   45.914937
 --- exit write_ns ---

 ------ SPIN UP ------------


          k = 0.0000 0.0000 0.0000 ( 13925 PWs)   bands (ev):

   -66.6545 -66.6528 -66.6528 -66.6525 -66.6525 -66.6513 -66.6507 -66.6507
   -35.4272 -35.4252 -35.4252 -35.4251 -35.4251 -35.4239 -35.4232 -35.4232
   -35.3726 -35.3726 -35.3713 -35.3713 -35.3713 -35.3713 -35.3708 -35.3708
   -35.3708 -35.3708 -35.3695 -35.3695 -35.3693 -35.3693 -35.3692 -35.3692
     5.7056   5.8578   5.8578   6.2978   6.2979   6.9707   6.9708   7.6041
     8.0981   8.3087   8.3101   8.3766   8.3766   8.4122   8.4123   8.5757
     8.5759   8.7203   8.7206   8.7559   8.7560   8.8930   8.8931   9.1304
     9.1304   9.2623   9.3623   9.4047   9.4049   9.4195   9.6365   9.6829
     9.6829   9.8004   9.8005   9.8402   9.8937   9.8938  10.0513  10.0516
    10.1143  10.1143  10.1641  10.1641  10.1642  10.1642  10.3039  10.3039
    10.3177  10.3179  10.3222  10.3222  10.3222  10.3222  10.5650  10.5650
    10.5859  10.5859  10.5859  10.5859  10.6003  10.6003  10.6005  10.6005
    10.6293  10.6426  10.6850  10.6850  10.6859  10.6859  10.7335  10.7335
    10.7877  10.7877  10.7879  10.7879  10.8286  10.8286  11.0248  11.0248
    11.0263  11.0265  11.1282  11.1471  11.1471  11.2214  11.2215  11.2328
    11.3750  11.4492  11.4493  11.4875  11.4880  11.6060  11.6060  11.6061
    11.6061  11.7021  11.7023  11.8741  11.8742  11.8877  11.8878  11.9915
    11.9916  12.1696  12.1696  12.1703  12.1703  12.1707  12.1707  12.2172
    12.2294  12.2346  12.3434  12.6311  12.6312  12.6450  12.6450  12.6451
    12.6451  12.8024  12.8389  12.8389  12.8940  12.8943  13.0602  13.0603
    13.1170  13.3181  13.3181  14.2839  14.2842  15.6182  15.6183  17.1248
    17.5271  19.2964  19.2966  19.9750  19.9750  20.3258  20.3258  20.3258
    20.3258  21.2694

          k = 0.0000 0.0000 0.0242 ( 13893 PWs)   bands (ev):

   -66.6545 -66.6528 -66.6528 -66.6525 -66.6525 -66.6513 -66.6507 -66.6507
   -35.4272 -35.4252 -35.4252 -35.4251 -35.4251 -35.4239 -35.4232 -35.4232
   -35.3726 -35.3726 -35.3713 -35.3713 -35.3713 -35.3713 -35.3708 -35.3708
   -35.3708 -35.3708 -35.3695 -35.3695 -35.3692 -35.3692 -35.3692 -35.3692
     5.7152   5.7915   5.9422   6.1630   6.4476   6.7860   7.1616   7.5211
     8.1794   8.3130   8.3202   8.3470   8.3615   8.4144   8.4739   8.5142
     8.5627   8.6292   8.6448   8.8038   8.8185   8.9427   8.9881   9.0261
     9.1900   9.2302   9.2713   9.3902   9.4389   9.5138   9.6504   9.6529
     9.6754   9.6887   9.8435   9.8704   9.9237   9.9280  10.0027  10.1062
    10.1173  10.1173  10.1421  10.1421  10.1874  10.1930  10.1930  10.2327
    10.2718  10.2718  10.3798  10.3798  10.3802  10.4478  10.5139  10.5139
    10.5463  10.5673  10.5673  10.5855  10.5855  10.6186  10.6186  10.6524
    10.6524  10.6618  10.6618  10.7040  10.7096  10.7096  10.7261  10.7261
    10.7292  10.7594  10.7594  10.8260  10.8260  10.9247  10.9497  10.9646
    10.9646  11.1302  11.1341  11.1715  11.1809  11.2194  11.2194  11.2730
    11.3421  11.4067  11.4315  11.4692  11.4692  11.5565  11.5772  11.6147
    11.7467  11.7467  11.7696  11.7785  11.7842  11.9292  11.9763  11.9996
    12.0311  12.0311  12.0469  12.1360  12.1651  12.1958  12.1967  12.2257
    12.3046  12.3046  12.3921  12.5451  12.5451  12.5531  12.7048  12.7272
    12.7272  12.8261  12.8261  12.8367  12.8505  12.9454  13.0287  13.0850
    13.1134  13.1310  13.5272  14.0095  14.5821  15.2497  16.0082  16.8308
    17.8377  18.7922  19.8106  19.9976  19.9976  20.1751  20.1751  20.5139
    20.5139  20.8556

          k = 0.0000 0.0000-0.0484 ( 13878 PWs)   bands (ev):

   -66.6545 -66.6528 -66.6528 -66.6525 -66.6525 -66.6512 -66.6507 -66.6507
   -35.4272 -35.4252 -35.4252 -35.4251 -35.4251 -35.4239 -35.4232 -35.4232
   -35.3726 -35.3726 -35.3713 -35.3713 -35.3713 -35.3713 -35.3708 -35.3708
   -35.3708 -35.3708 -35.3695 -35.3695 -35.3692 -35.3692 -35.3692 -35.3692
     5.7438   5.7441   6.0442   6.0442   6.6108   6.6109   7.3514   7.3515
     8.3099   8.3105   8.3256   8.3259   8.3839   8.3841   8.4604   8.4604
     8.5465   8.5466   8.7209   8.7209   8.9212   8.9212   9.0878   9.0883
     9.1160   9.1161   9.3201   9.3202   9.5538   9.5540   9.5967   9.5967
     9.6745   9.6751   9.8534   9.8538   9.9600   9.9600  10.0572  10.0572
    10.1266  10.1266  10.1266  10.1266  10.1667  10.1667  10.2287  10.2287
    10.2288  10.2288  10.4441  10.4441  10.4441  10.4441  10.4608  10.4614
    10.5739  10.5739  10.5747  10.5747  10.5768  10.5768  10.6393  10.6393
    10.6394  10.6394  10.7008  10.7008  10.7009  10.7009  10.7341  10.7341
    10.7341  10.7341  10.8253  10.8257  10.8845  10.8845  10.8851  10.8851
    11.0655  11.0658  11.1513  11.1521  11.2355  11.2356  11.3349  11.3349
    11.3384  11.3384  11.3389  11.3389  11.5225  11.5232  11.6635  11.6635
    11.6744  11.6745  11.8600  11.8600  11.8890  11.8890  11.8891  11.8891
    12.0746  12.0750  12.0951  12.0951  12.1071  12.1082  12.2143  12.2147
    12.4305  12.4305  12.4305  12.4305  12.4715  12.4723  12.7735  12.7735
    12.7882  12.7882  12.7885  12.7885  12.9704  12.9706  12.9903  12.9903
    13.1025  13.1030  13.7575  13.7575  14.9040  14.9040  16.4159  16.4162
    18.3020  18.3020  20.0647  20.0647  20.0650  20.0650  20.3314  20.3314
    20.7362  20.7362

          k = 0.0000 0.1250 0.0000 ( 13879 PWs)   bands (ev):

   -66.6542 -66.6525 -66.6525 -66.6522 -66.6522 -66.6510 -66.6505 -66.6504
   -35.4270 -35.4251 -35.4251 -35.4249 -35.4249 -35.4237 -35.4230 -35.4230
   -35.3744 -35.3730 -35.3730 -35.3726 -35.3726 -35.3726 -35.3713 -35.3712
   -35.3712 -35.3710 -35.3710 -35.3707 -35.3707 -35.3694 -35.3692 -35.3692
     5.9495   6.0968   6.0968   6.5183   6.5185   7.1470   7.1471   7.7117
     8.1256   8.4027   8.4495   8.5031   8.5032   8.5095   8.5096   8.6387
     8.6388   8.6850   8.6851   8.8212   8.8216   8.9526   8.9527   9.1025
     9.1026   9.2159   9.2179   9.2180   9.2624   9.3704   9.3704   9.5920
     9.6907   9.7738   9.8179   9.8179   9.8775   9.8944   9.8944   9.9061
     9.9065   9.9521   9.9522  10.0102  10.0103  10.0118  10.0496  10.0499
    10.2537  10.2747  10.2748  10.3005  10.3005  10.3121  10.3122  10.5421
    10.5424  10.5618  10.5619  10.5743  10.6602  10.6603  10.6795  10.7347
    10.7596  10.8124  10.8125  10.8174  10.8296  10.8303  10.9294  10.9294
    10.9558  11.0550  11.0553  11.0566  11.0566  11.0740  11.1632  11.1633
    11.1647  11.1648  11.1752  11.2169  11.2256  11.2256  11.2716  11.4332
    11.4544  11.4548  11.4853  11.5086  11.5087  11.5213  11.5214  11.7632
    11.7633  11.7921  11.7922  11.8468  11.8469  11.8795  11.8799  11.9780
    11.9780  12.0387  12.0389  12.1444  12.1445  12.1816  12.1923  12.2430
    12.2431  12.3539  12.3539  12.4793  12.4794  12.5483  12.6274  12.6395
    12.7557  12.7805  12.7993  12.8601  12.8601  12.9988  12.9988  13.0117
    13.0120  13.2786  13.2787  14.3204  14.3207  15.7683  15.7683  17.3787
    17.7739  18.4948  18.8077  18.8077  19.6153  19.6154  19.6242  19.6244
    20.5604  20.7101

          k = 0.0000 0.1250 0.0242 ( 13869 PWs)   bands (ev):

   -66.6542 -66.6525 -66.6525 -66.6522 -66.6522 -66.6510 -66.6505 -66.6504
   -35.4270 -35.4251 -35.4251 -35.4249 -35.4249 -35.4237 -35.4230 -35.4230
   -35.3744 -35.3730 -35.3730 -35.3726 -35.3726 -35.3726 -35.3713 -35.3712
   -35.3712 -35.3710 -35.3710 -35.3707 -35.3707 -35.3694 -35.3692 -35.3692
     5.9588   6.0327   6.1781   6.3900   6.6602   6.9768   7.3204   7.6396
     8.1924   8.4108   8.4392   8.4536   8.4784   8.5129   8.5420   8.5702
     8.6310   8.7290   8.7450   8.7706   8.8797   8.9199   9.0039   9.0274
     9.1235   9.1712   9.1889   9.2886   9.2917   9.3225   9.4163   9.5497
     9.7300   9.7766   9.7988   9.8414   9.8714   9.8787   9.8876   9.8910
     9.9017   9.9108  10.0104  10.0108  10.0117  10.0243  10.0370  10.0928
    10.2040  10.2206  10.2580  10.2895  10.3242  10.3331  10.3894  10.5282
    10.5476  10.5674  10.5701  10.5742  10.5907  10.6284  10.6921  10.7486
    10.8125  10.8131  10.8136  10.8202  10.8343  10.8451  10.8946  10.9700
    10.9703  11.0401  11.0543  11.0548  11.0582  11.0627  11.0887  11.1151
    11.1298  11.1517  11.2220  11.2277  11.2571  11.2966  11.3664  11.3704
    11.3752  11.4179  11.4278  11.5430  11.5447  11.5943  11.6359  11.6541
    11.6928  11.7415  11.7722  11.8292  11.8833  11.9441  11.9505  11.9543
    11.9662  12.0490  12.1177  12.1446  12.1494  12.1517  12.1653  12.1893
    12.2245  12.3323  12.3810  12.4752  12.4980  12.5597  12.6408  12.6732
    12.6861  12.8026  12.8152  12.8559  12.9106  12.9644  12.9873  13.0202
    13.0260  13.0846  13.5001  14.0210  14.6459  15.3711  16.1859  17.0611
    18.1068  18.5152  18.6742  18.9726  19.1031  19.3804  19.8653  20.1322
    20.4525  20.5796

          k = 0.0000 0.1250-0.0484 ( 13868 PWs)   bands (ev):

   -66.6542 -66.6525 -66.6525 -66.6522 -66.6522 -66.6510 -66.6505 -66.6504
   -35.4270 -35.4251 -35.4251 -35.4249 -35.4249 -35.4237 -35.4230 -35.4230
   -35.3744 -35.3730 -35.3730 -35.3726 -35.3726 -35.3726 -35.3713 -35.3712
   -35.3712 -35.3710 -35.3710 -35.3707 -35.3707 -35.3694 -35.3692 -35.3692
     5.9865   5.9868   6.2761   6.2762   6.8137   6.8137   7.4903   7.4904
     8.3233   8.3238   8.4363   8.4366   8.4664   8.4667   8.5832   8.5833
     8.6448   8.6448   8.8101   8.8101   8.8931   8.8931   9.0219   9.0219
     9.1015   9.1019   9.2623   9.2624   9.3111   9.3111   9.4789   9.4793
     9.7848   9.7851   9.7966   9.7971   9.8672   9.8673   9.8820   9.8823
     9.9079   9.9080  10.0112  10.0115  10.0135  10.0136  10.1225  10.1225
    10.1508  10.1508  10.2704  10.2705  10.3420  10.3421  10.4866  10.4866
    10.5320  10.5321  10.5731  10.5737  10.5971  10.5971  10.7229  10.7231
    10.8142  10.8146  10.8150  10.8151  10.8665  10.8665  10.9569  10.9570
    11.0045  11.0046  11.0140  11.0143  11.0562  11.0562  11.0814  11.0814
    11.1302  11.1306  11.2924  11.2925  11.2994  11.2996  11.3286  11.3290
    11.3547  11.3549  11.5098  11.5098  11.6185  11.6190  11.6405  11.6405
    11.6830  11.6830  11.7581  11.7581  11.8899  11.8899  12.0578  12.0589
    12.0590  12.0590  12.0854  12.0854  12.0889  12.0889  12.1801  12.1805
    12.2693  12.2693  12.4181  12.4183  12.5866  12.5867  12.6162  12.6164
    12.7391  12.7396  12.9164  12.9166  12.9239  12.9241  12.9533  12.9533
    13.0291  13.0291  13.7476  13.7476  14.9965  14.9965  16.6201  16.6205
    18.5755  18.5758  18.5931  18.5932  19.1648  19.1649  20.1211  20.1212
    20.6367  20.7278

          k = 0.0000 0.2500 0.0000 ( 13848 PWs)   bands (ev):

   -66.6541 -66.6524 -66.6524 -66.6521 -66.6521 -66.6508 -66.6503 -66.6503
   -35.4266 -35.4247 -35.4247 -35.4246 -35.4246 -35.4233 -35.4226 -35.4226
   -35.3786 -35.3772 -35.3772 -35.3768 -35.3768 -35.3755 -35.3752 -35.3752
   -35.3723 -35.3709 -35.3709 -35.3705 -35.3705 -35.3692 -35.3689 -35.3689
     6.6395   6.7703   6.7703   7.1268   7.1269   7.5943   7.5944   7.9349
     8.1377   8.3566   8.3566   8.5802   8.5804   8.6403   8.7634   8.7634
     8.7837   8.7838   8.8182   8.8497   8.8497   8.9186   8.9190   8.9191
     8.9624   8.9805   8.9806   9.1246   9.1250   9.4157   9.4303   9.4303
     9.5281   9.5284   9.5737   9.6198   9.6199   9.6466   9.6467   9.7467
     9.7468   9.7980   9.7984   9.9483   9.9483   9.9596  10.0774  10.1250
    10.1283  10.1504  10.4823  10.4825  10.4895  10.4896  10.5733  10.5733
    10.5761  10.5761  10.5833  10.5833  10.7306  10.8113  10.8114  10.8482
    10.8551  10.9137  11.0192  11.0238  11.0239  11.0798  11.0803  11.0957
    11.0957  11.1023  11.1024  11.3018  11.3428  11.3432  11.3588  11.3588
    11.4022  11.4213  11.4216  11.4626  11.4626  11.5771  11.5772  11.6486
    11.6486  11.6689  11.6708  11.6708  11.7085  11.7563  11.7751  11.7757
    11.7774  11.7774  11.8156  11.8156  11.8687  11.8687  11.9172  12.0097
    12.0098  12.0381  12.0909  12.0910  12.0940  12.0940  12.1191  12.1240
    12.1675  12.1676  12.2622  12.4860  12.4862  12.5339  12.6037  12.7674
    12.7675  12.7779  12.7780  12.9515  12.9972  13.0017  13.0021  13.0647
    13.0648  13.1477  13.1477  14.4041  14.4044  16.0492  16.0492  16.0701
    16.3741  16.3741  17.1205  17.1206  17.5201  18.0507  18.0508  18.3872
    18.9092  20.1275

          k = 0.0000 0.2500 0.0242 ( 13862 PWs)   bands (ev):

   -66.6541 -66.6524 -66.6524 -66.6521 -66.6521 -66.6508 -66.6503 -66.6503
   -35.4266 -35.4247 -35.4247 -35.4246 -35.4246 -35.4233 -35.4226 -35.4226
   -35.3786 -35.3772 -35.3772 -35.3768 -35.3768 -35.3755 -35.3752 -35.3752
   -35.3723 -35.3709 -35.3709 -35.3705 -35.3705 -35.3692 -35.3689 -35.3689
     6.6479   6.7138   6.8413   7.0213   7.2398   7.4766   7.7070   7.8954
     8.1688   8.2942   8.4158   8.5270   8.6328   8.6480   8.7098   8.7351
     8.8202   8.8289   8.8292   8.8360   8.8695   8.8981   8.9028   8.9389
     8.9703   8.9711   8.9838   9.0181   9.2409   9.4160   9.4218   9.4445
     9.4911   9.4929   9.5713   9.5789   9.6172   9.6808   9.6810   9.7474
     9.7577   9.8178   9.8385   9.9144   9.9422   9.9793   9.9881  10.0584
    10.2107  10.2369  10.4006  10.4618  10.4849  10.4914  10.5307  10.5382
    10.5751  10.6146  10.6365  10.7057  10.7084  10.7366  10.7901  10.8805
    10.8852  10.9601  10.9619  10.9913  11.0183  11.0246  11.0325  11.0666
    11.1473  11.1763  11.1906  11.2661  11.3006  11.3232  11.3405  11.3793
    11.4114  11.4194  11.4344  11.5004  11.5171  11.5417  11.5608  11.6363
    11.6376  11.6568  11.6674  11.6733  11.6791  11.7277  11.7368  11.7667
    11.7887  11.8147  11.8180  11.8853  11.8942  11.8955  11.9467  11.9855
    12.0139  12.0158  12.0341  12.0752  12.0884  12.0897  12.1033  12.1174
    12.1672  12.2482  12.2538  12.4082  12.5616  12.5618  12.6436  12.7025
    12.7029  12.8270  12.8475  12.9261  12.9275  12.9604  13.0152  13.0329
    13.0561  13.0641  13.4105  14.0435  14.7888  15.6151  16.0903  16.2458
    16.4900  16.5302  16.9074  17.3191  17.3453  17.8154  18.2728  18.4841
    18.9559  19.6663

          k = 0.0000 0.2500-0.0484 ( 13842 PWs)   bands (ev):

   -66.6541 -66.6524 -66.6524 -66.6521 -66.6521 -66.6508 -66.6503 -66.6503
   -35.4266 -35.4247 -35.4247 -35.4246 -35.4246 -35.4233 -35.4226 -35.4226
   -35.3786 -35.3772 -35.3772 -35.3768 -35.3768 -35.3755 -35.3752 -35.3752
   -35.3723 -35.3709 -35.3709 -35.3705 -35.3705 -35.3692 -35.3689 -35.3689
     6.6726   6.6729   6.9255   6.9255   7.3573   7.3573   7.8103   7.8103
     8.2295   8.2297   8.4723   8.4724   8.6710   8.6714   8.6846   8.6846
     8.8260   8.8263   8.8698   8.8700   8.8753   8.8754   8.9248   8.9249
     8.9567   8.9567   8.9800   8.9802   9.3639   9.3639   9.4174   9.4177
     9.4651   9.4651   9.5939   9.5941   9.6223   9.6224   9.7182   9.7182
     9.8708   9.8713   9.8775   9.8776   9.8887   9.8889  10.0108  10.0113
    10.3076  10.3079  10.3455  10.3456  10.5006  10.5006  10.5105  10.5105
    10.6575  10.6576  10.6602  10.6604  10.7098  10.7099  10.8349  10.8350
    10.9417  10.9417  10.9465  10.9465  11.0113  11.0114  11.0404  11.0407
    11.2015  11.2016  11.2584  11.2584  11.2897  11.2898  11.3046  11.3050
    11.4617  11.4620  11.4798  11.4798  11.5404  11.5404  11.5751  11.5751
    11.6159  11.6160  11.6679  11.6682  11.6904  11.6905  11.7699  11.7700
    11.7910  11.7911  11.8687  11.8687  11.9569  11.9578  11.9730  11.9730
    11.9963  11.9964  12.0200  12.0202  12.0562  12.0562  12.1119  12.1123
    12.2226  12.2227  12.3287  12.3287  12.6264  12.6264  12.6341  12.6341
    12.7561  12.7563  12.8805  12.8806  12.9087  12.9087  13.0388  13.0392
    13.0536  13.0536  13.7107  13.7108  15.1937  15.1937  16.1497  16.1500
    16.7093  16.7093  16.9252  16.9257  17.5783  17.5783  18.4513  18.4513
    19.2383  19.2385

          k = 0.0000 0.3750 0.0000 ( 13856 PWs)   bands (ev):

   -66.6546 -66.6529 -66.6529 -66.6527 -66.6527 -66.6514 -66.6509 -66.6509
   -35.4262 -35.4242 -35.4242 -35.4242 -35.4242 -35.4229 -35.4222 -35.4222
   -35.3827 -35.3813 -35.3813 -35.3809 -35.3809 -35.3796 -35.3793 -35.3793
   -35.3721 -35.3707 -35.3707 -35.3703 -35.3703 -35.3689 -35.3687 -35.3687
     7.6032   7.7019   7.7019   7.9216   7.9217   8.0874   8.0874   8.1306
     8.1352   8.1489   8.1489   8.2205   8.2206   8.3743   8.3743   8.5918
     8.6232   8.8610   8.8737   8.8738   9.0079   9.0080   9.0910   9.0911
     9.1647   9.1647   9.1744   9.1747   9.2470   9.2620   9.2620   9.2899
     9.3240   9.3240   9.3458   9.4800   9.4804   9.5355   9.5355   9.5880
     9.6338   9.8301   9.8304   9.9899   9.9899  10.0591  10.0591  10.1783
    10.1783  10.2915  10.2917  10.3002  10.3003  10.3019  10.3065  10.5268
    10.5272  10.6835  10.7261  10.7262  10.8096  11.0302  11.0302  11.0888
    11.1417  11.1418  11.2692  11.2693  11.3296  11.3395  11.3963  11.3963
    11.4037  11.4039  11.4841  11.4843  11.4913  11.4914  11.4961  11.5617
    11.5760  11.5760  11.5872  11.6320  11.6321  11.6465  11.6662  11.6663
    11.7627  11.8016  11.8021  11.8169  11.8280  11.8280  11.9861  11.9862
    12.0209  12.0873  12.0874  12.0909  12.0910  12.0995  12.1144  12.1144
    12.1197  12.1246  12.1247  12.2008  12.3707  12.3710  12.3799  12.3799
    12.3957  12.5354  12.5355  12.5596  12.5752  12.7265  12.7269  12.7678
    12.7679  12.9663  12.9665  12.9823  12.9824  13.0056  13.0056  13.0847
    13.0847  13.0976  13.0998  13.9456  14.2570  14.2570  14.2864  14.2865
    15.0748  15.0752  15.2817  15.2818  15.9257  16.0658  16.0658  16.1569
    19.1993  19.1993

          k = 0.0000 0.3750 0.0242 ( 13870 PWs)   bands (ev):

   -66.6546 -66.6529 -66.6529 -66.6527 -66.6527 -66.6514 -66.6509 -66.6509
   -35.4262 -35.4242 -35.4242 -35.4242 -35.4242 -35.4229 -35.4222 -35.4222
   -35.3827 -35.3813 -35.3813 -35.3809 -35.3809 -35.3796 -35.3793 -35.3793
   -35.3721 -35.3707 -35.3707 -35.3703 -35.3703 -35.3689 -35.3687 -35.3687
     7.6097   7.6603   7.7517   7.8649   7.9742   8.0579   8.1091   8.1315
     8.1325   8.1406   8.1605   8.1957   8.2507   8.3277   8.4261   8.5419
     8.6754   8.8083   8.8707   8.9363   8.9462   9.0469   9.0769   9.1224
     9.1546   9.1593   9.1823   9.1986   9.2324   9.2552   9.2731   9.2735
     9.2880   9.3621   9.3673   9.3831   9.4713   9.5246   9.6048   9.6158
     9.7041   9.7535   9.8977   9.9059   9.9126  10.0238  10.1812  10.1916
    10.2203  10.2587  10.2645  10.2916  10.2944  10.3529  10.3676  10.4026
    10.5697  10.6021  10.6543  10.8775  10.9087  10.9124  11.0586  11.1044
    11.1423  11.2050  11.2202  11.3048  11.3337  11.3502  11.3504  11.3527
    11.4025  11.4085  11.4301  11.4367  11.4580  11.4726  11.5004  11.5325
    11.5618  11.5751  11.6238  11.6525  11.6782  11.6873  11.7039  11.7086
    11.7190  11.7638  11.7843  11.8291  11.8509  11.8777  11.8854  12.0494
    12.0709  12.0795  12.0823  12.0828  12.0923  12.1052  12.1160  12.1186
    12.1192  12.1254  12.1786  12.2260  12.2942  12.3143  12.3706  12.4334
    12.4669  12.5149  12.5407  12.5602  12.5999  12.6443  12.6942  12.7098
    12.8026  12.8234  12.9233  12.9310  13.0045  13.0247  13.0639  13.0827
    13.0990  13.1065  13.3342  13.9664  13.9844  14.1256  14.4186  14.5653
    14.8284  15.0591  15.3420  15.4906  15.8447  15.8646  16.1907  16.1964
    19.2112  19.2915

          k = 0.0000 0.3750-0.0484 ( 13872 PWs)   bands (ev):

   -66.6546 -66.6529 -66.6529 -66.6527 -66.6527 -66.6514 -66.6509 -66.6509
   -35.4262 -35.4242 -35.4242 -35.4242 -35.4242 -35.4229 -35.4222 -35.4222
   -35.3827 -35.3813 -35.3813 -35.3809 -35.3809 -35.3796 -35.3793 -35.3793
   -35.3721 -35.3707 -35.3707 -35.3703 -35.3703 -35.3689 -35.3687 -35.3687
     7.6289   7.6292   7.8071   7.8072   8.0201   8.0201   8.1237   8.1239
     8.1348   8.1351   8.1758   8.1759   8.2864   8.2864   8.4822   8.4823
     8.7415   8.7416   8.8993   8.8997   8.9946   8.9946   9.1251   9.1251
     9.1527   9.1527   9.2061   9.2062   9.2316   9.2317   9.2790   9.2791
     9.2821   9.2825   9.4138   9.4139   9.4503   9.4503   9.6779   9.6779
     9.7618   9.7618   9.7988   9.7988   9.9761   9.9762  10.2506  10.2506
    10.2565  10.2567  10.2624  10.2629  10.2854  10.2854  10.4451  10.4451
    10.4763  10.4771  10.7823  10.7824  10.9709  10.9710  11.1240  11.1243
    11.1468  11.1468  11.2376  11.2379  11.2904  11.2905  11.3815  11.3819
    11.3905  11.3905  11.4355  11.4359  11.4361  11.4362  11.5155  11.5155
    11.5794  11.5794  11.6384  11.6384  11.7072  11.7078  11.7239  11.7239
    11.7462  11.7464  11.7740  11.7740  11.8517  11.8519  11.9685  11.9685
    12.0803  12.0803  12.0957  12.0957  12.1131  12.1138  12.1178  12.1181
    12.1629  12.1634  12.2057  12.2057  12.3229  12.3232  12.3923  12.3923
    12.4812  12.4812  12.5568  12.5568  12.5635  12.5636  12.6515  12.6517
    12.8709  12.8709  12.8755  12.8755  13.0371  13.0371  13.0581  13.0582
    13.1063  13.1065  13.6640  13.6640  14.0274  14.0276  14.6091  14.6092
    14.8215  14.8215  15.6135  15.6135  15.6821  15.6825  16.2288  16.2289
    19.3223  19.3225

          k = 0.0000-0.5000 0.0000 ( 13918 PWs)   bands (ev):

   -66.6551 -66.6534 -66.6534 -66.6532 -66.6532 -66.6518 -66.6513 -66.6513
   -35.4260 -35.4240 -35.4240 -35.4240 -35.4240 -35.4227 -35.4220 -35.4220
   -35.3844 -35.3830 -35.3830 -35.3826 -35.3826 -35.3812 -35.3810 -35.3810
   -35.3720 -35.3706 -35.3706 -35.3702 -35.3702 -35.3688 -35.3686 -35.3686
     8.0552   8.0554   8.0993   8.0993   8.0995   8.0995   8.1586   8.1586
     8.3422   8.3428   8.4092   8.4092   8.4094   8.4095   8.4835   8.4836
     8.6792   8.6794   8.8307   8.8308   8.8308   8.8309   9.0009   9.0009
     9.0492   9.0495   9.1212   9.1213   9.1216   9.1216   9.3042   9.3044
     9.3635   9.3640   9.6622   9.6623   9.6624   9.6626   9.6986   9.6989
     9.7351   9.7353   9.7353   9.7353   9.8029   9.8029  10.0046  10.0047
    10.1207  10.1212  10.1504  10.1511  10.5029  10.5030  10.5032  10.5033
    10.5707  10.5707  10.5710  10.5711  10.7276  10.7278  11.2294  11.2299
    11.2610  11.2613  11.4059  11.4059  11.4060  11.4061  11.4448  11.4449
    11.5408  11.5410  11.5467  11.5469  11.5472  11.5472  11.6212  11.6213
    11.6965  11.6970  11.7252  11.7256  11.7395  11.7396  11.7449  11.7449
    11.7449  11.7451  11.8521  11.8522  11.9307  11.9308  11.9311  11.9312
    12.2297  12.2304  12.3172  12.3173  12.3173  12.3174  12.3853  12.3854
    12.5244  12.5247  12.5907  12.5909  12.6542  12.6542  12.6544  12.6544
    12.6665  12.6666  12.6667  12.6667  12.8750  12.8752  12.9260  12.9262
    12.9490  12.9493  13.0730  13.0731  13.0733  13.0733  13.0795  13.0795
    13.1249  13.1251  13.4376  13.4377  13.4378  13.4378  13.9098  13.9102
    13.9468  13.9471  14.4446  14.4447  14.4452  14.4453  14.7440  14.7448
    19.1834  19.1836

          k = 0.0000-0.5000 0.0242 ( 13918 PWs)   bands (ev):

   -66.6551 -66.6534 -66.6534 -66.6532 -66.6532 -66.6518 -66.6513 -66.6513
   -35.4260 -35.4240 -35.4240 -35.4240 -35.4240 -35.4227 -35.4220 -35.4220
   -35.3844 -35.3830 -35.3830 -35.3826 -35.3826 -35.3812 -35.3810 -35.3810
   -35.3720 -35.3706 -35.3706 -35.3702 -35.3702 -35.3688 -35.3686 -35.3686
     8.0582   8.0585   8.0812   8.0814   8.1195   8.1197   8.1532   8.1532
     8.3472   8.3477   8.3830   8.3833   8.4366   8.4367   8.4775   8.4776
     8.6908   8.6910   8.7721   8.7723   8.8920   8.8921   8.9866   8.9866
     9.0537   9.0540   9.0899   9.0902   9.1612   9.1615   9.2630   9.2633
     9.4121   9.4125   9.5722   9.5725   9.6978   9.6980   9.7138   9.7139
     9.7568   9.7571   9.7599   9.7599   9.7974   9.7974   9.9483   9.9484
    10.1577  10.1582  10.2080  10.2084  10.4006  10.4010  10.4060  10.4063
    10.5905  10.5908  10.7104  10.7107  10.7558  10.7561  11.1142  11.1145
    11.3218  11.3219  11.3863  11.3865  11.4219  11.4220  11.4421  11.4422
    11.5412  11.5414  11.5439  11.5443  11.5525  11.5529  11.5910  11.5912
    11.7266  11.7269  11.7399  11.7400  11.7411  11.7415  11.7430  11.7431
    11.7459  11.7460  11.8515  11.8519  11.9031  11.9032  12.0171  12.0175
    12.1809  12.1810  12.1861  12.1866  12.4267  12.4267  12.4300  12.4302
    12.5335  12.5338  12.5712  12.5714  12.5789  12.5791  12.6056  12.6058
    12.7249  12.7250  12.7388  12.7389  12.8451  12.8453  12.8864  12.8865
    12.9728  12.9731  13.0443  13.0445  13.0957  13.0959  13.1217  13.1219
    13.1267  13.1268  13.3243  13.3245  13.5556  13.5558  13.8004  13.8007
    14.0584  14.0588  14.3181  14.3187  14.5609  14.5616  14.7213  14.7220
    19.2315  19.2317

          k = 0.0000-0.5000-0.0484 ( 13892 PWs)   bands (ev):

   -66.6551 -66.6534 -66.6534 -66.6532 -66.6532 -66.6518 -66.6513 -66.6513
   -35.4260 -35.4240 -35.4240 -35.4240 -35.4240 -35.4227 -35.4220 -35.4220
   -35.3844 -35.3830 -35.3830 -35.3826 -35.3826 -35.3812 -35.3810 -35.3810
   -35.3720 -35.3706 -35.3706 -35.3702 -35.3702 -35.3688 -35.3686 -35.3686
[...]
    12.2174  12.2176  12.2176  12.2177  12.4033  12.4034  12.4035  12.4035
    12.7695  12.7696  12.7697  12.7697  12.9539  12.9540  12.9541  12.9542
    13.5915  13.5916  13.5918  13.5918  13.8959  13.8960  13.8964  13.8964
    14.5516  14.5518  14.5532  14.5534  14.9816  14.9816  14.9836  14.9836
    16.9081  16.9086  16.9087  16.9091  16.9549  16.9550  16.9556  16.9557
    17.0415  17.0417  17.0421  17.0426  17.1183  17.1184  17.1191  17.1194
    17.4216  17.4220  17.4231  17.4234  17.4677  17.4679  17.4689  17.4691
    18.1537  18.1544  18.1545  18.1551  18.1748  18.1748  18.1750  18.1751
    18.3338  18.3339  18.3340  18.3341  18.6333  18.6334  18.6344  18.6346
    20.2272  20.2273

          k = 0.3750 0.3750 0.0000 ( 13948 PWs)   bands (ev):

   -62.1021 -62.1003 -62.1003 -62.1001 -62.1001 -62.1000 -62.0989 -62.0989
   -30.9335 -30.9333 -30.9318 -30.9318 -30.9316 -30.9316 -30.9315 -30.9314
   -30.9313 -30.9313 -30.9311 -30.9311 -30.9309 -30.9302 -30.9302 -30.9300
   -30.9300 -30.9295 -30.9295 -30.9292 -30.9292 -30.9287 -30.9284 -30.9284
     8.3753   8.4825   8.4827   8.7526   8.7534   8.7536   8.8221   8.8222
     9.1939   9.1945   9.2820   9.2820   9.2837   9.3151   9.3153   9.3574
     9.4025   9.4027   9.4582   9.4586   9.4903   9.4904   9.5272   9.5368
     9.5372   9.6242   9.6243   9.6337   9.7094   9.7556   9.7556   9.9430
    10.0075  10.0965  10.1262  10.1263  10.3950  10.3950  10.4152  10.4155
    10.5399  10.5825  10.5825  10.5844  10.6564  10.6565  10.7305  10.7308
    10.8222  10.8230  10.9713  10.9713  10.9950  10.9951  11.0808  11.1066
    11.4160  11.4538  11.4540  11.5087  11.5089  11.5461  11.5462  11.5595
    11.7048  11.7660  11.7660  11.8866  11.8868  11.9492  11.9796  11.9797
    12.0293  12.0294  12.0670  12.0671  12.1039  12.1832  12.1833  12.2436
    12.5000  12.5901  12.5902  12.7951  12.7951  12.9901  12.9902  13.0769
    13.5918  13.7900  13.7901  14.2070  14.2084  14.6138  14.6142  14.7966
    15.0825  15.1546  15.1548  15.3015  15.3023  15.4234  15.4237  15.4689
    16.8181  16.9154  16.9154  16.9689  17.0313  17.0316  17.0496  17.0850
    17.0851  17.0885  17.0895  17.1044  17.1917  17.1927  17.2514  17.2516
    17.4889  17.4892  17.5556  17.5561  17.6435  17.7273  17.7276  17.7661
    18.1081  18.1786  18.1984  18.2550  18.2553  18.3771  18.3772  18.4571
    18.4573  18.5390  18.5393  18.8629  18.8639  19.1478  19.1480  19.2243
    19.2634  19.2635

          k = 0.3750 0.3750 0.0242 ( 13940 PWs)   bands (ev):

   -62.1021 -62.1003 -62.1003 -62.1001 -62.1001 -62.1000 -62.0989 -62.0989
   -30.9335 -30.9333 -30.9318 -30.9318 -30.9316 -30.9316 -30.9315 -30.9314
   -30.9313 -30.9313 -30.9311 -30.9311 -30.9309 -30.9302 -30.9302 -30.9300
   -30.9300 -30.9295 -30.9295 -30.9292 -30.9292 -30.9287 -30.9284 -30.9284
     8.3822   8.4365   8.5400   8.6795   8.7584   8.7952   8.8160   8.8457
     9.1578   9.2074   9.2486   9.2859   9.3028   9.3226   9.3602   9.3642
     9.3828   9.4279   9.4282   9.4365   9.4952   9.4955   9.5025   9.5463
     9.5806   9.5841   9.6231   9.6638   9.6937   9.7075   9.8218   9.9575
     9.9614  10.0575  10.1455  10.1994  10.3089  10.3466  10.4767  10.4814
    10.5493  10.5624  10.5860  10.5898  10.6129  10.6505  10.7014  10.7854
    10.8063  10.8577  10.9307  10.9397  11.0120  11.0411  11.0720  11.0988
    11.4191  11.4399  11.4685  11.4963  11.5201  11.5389  11.5519  11.5587
    11.7096  11.7424  11.7925  11.8530  11.9223  11.9511  11.9664  11.9951
    11.9966  12.0406  12.0595  12.0957  12.0986  12.1552  12.2078  12.2393
    12.5060  12.5523  12.6356  12.7402  12.8491  12.9481  13.0257  13.0707
    13.6058  13.7092  13.8842  14.0965  14.3181  14.5244  14.6897  14.7841
    15.0875  15.1250  15.1891  15.2644  15.3375  15.3990  15.4431  15.4660
    16.8242  16.8732  16.9677  16.9739  17.0083  17.0528  17.0537  17.0728
    17.0760  17.0846  17.0965  17.1142  17.1317  17.1896  17.2671  17.3248
    17.4193  17.4834  17.5503  17.6170  17.6320  17.7013  17.7455  17.7639
    18.1267  18.1966  18.2015  18.2283  18.2669  18.2949  18.3365  18.4317
    18.5021  18.6127  18.6772  18.7542  18.9449  19.0428  19.0526  19.1019
    19.1821  19.2196

          k = 0.3750 0.3750-0.0484 ( 13950 PWs)   bands (ev):

   -62.1021 -62.1003 -62.1003 -62.1001 -62.1001 -62.1000 -62.0989 -62.0989
   -30.9335 -30.9333 -30.9318 -30.9318 -30.9316 -30.9316 -30.9315 -30.9314
   -30.9313 -30.9313 -30.9311 -30.9311 -30.9309 -30.9302 -30.9302 -30.9300
   -30.9300 -30.9295 -30.9295 -30.9292 -30.9292 -30.9287 -30.9284 -30.9284
     8.4027   8.4028   8.6066   8.6066   8.7727   8.7729   8.8493   8.8494
     9.1598   9.1599   9.2924   9.2926   9.3013   9.3013   9.3686   9.3688
     9.4132   9.4133   9.4418   9.4420   9.4588   9.4589   9.5369   9.5369
     9.5926   9.5928   9.6364   9.6364   9.6934   9.6935   9.8913   9.8914
     9.9983   9.9984  10.2246  10.2246  10.2737  10.2737  10.5268  10.5268
    10.5670  10.5670  10.5753  10.5754  10.5891  10.5892  10.7450  10.7450
    10.8764  10.8764  10.8929  10.8929  11.0475  11.0475  11.0763  11.0764
    11.4277  11.4277  11.4828  11.4828  11.5302  11.5302  11.5560  11.5562
    11.7228  11.7229  11.8215  11.8216  11.9568  11.9570  11.9588  11.9589
    12.0170  12.0170  12.0832  12.0833  12.1254  12.1255  12.2270  12.2272
    12.5237  12.5238  12.6863  12.6863  12.9006  12.9006  13.0530  13.0532
    13.6462  13.6463  13.9876  13.9876  14.4247  14.4247  14.7475  14.7477
    15.1020  15.1021  15.2263  15.2263  15.3701  15.3701  15.4571  15.4576
    16.8423  16.8429  16.9877  16.9881  17.0265  17.0266  17.0610  17.0614
    17.0720  17.0722  17.1077  17.1078  17.1426  17.1434  17.3443  17.3443
    17.4043  17.4043  17.5993  17.5994  17.6652  17.6652  17.7569  17.7577
    18.1810  18.1811  18.2106  18.2115  18.2493  18.2500  18.3520  18.3520
    18.6311  18.6311  18.8019  18.8019  18.8460  18.8460  19.0441  19.0442
    19.2057  19.2057

          k = 0.3750-0.5000 0.0000 ( 13934 PWs)   bands (ev):

   -62.1019 -62.1001 -62.1001 -62.0998 -62.0998 -62.0998 -62.0987 -62.0987
   -30.9356 -30.9339 -30.9339 -30.9336 -30.9335 -30.9335 -30.9332 -30.9323
   -30.9323 -30.9315 -30.9315 -30.9312 -30.9310 -30.9310 -30.9307 -30.9299
   -30.9299 -30.9293 -30.9293 -30.9291 -30.9291 -30.9286 -30.9283 -30.9283
     8.5363   8.5376   8.6320   8.6322   8.6334   8.6335   8.8130   8.8143
     9.0443   9.0453   9.2700   9.2700   9.2705   9.2705   9.2788   9.2789
     9.3680   9.3681   9.3685   9.3685   9.4284   9.4288   9.5017   9.5028
     9.5410   9.5414   9.7128   9.7129   9.7130   9.7130   9.9966   9.9968
    10.0020  10.0021  10.3382  10.3382  10.3383  10.3383  10.5308  10.5309
    10.5679  10.5688  10.6642  10.6644  10.6651  10.6652  10.8550  10.8555
    10.9572  10.9575  11.2247  11.2249  11.2249  11.2249  11.3895  11.3895
    11.6119  11.6121  11.6839  11.6839  11.6842  11.6842  11.7450  11.7454
    11.9082  11.9084  11.9562  11.9562  11.9564  11.9565  11.9864  11.9866
    12.1641  12.1642  12.2300  12.2302  12.2302  12.2302  12.3263  12.3265
    12.8984  12.8988  13.0231  13.0236  13.0239  13.0239  13.1309  13.1317
    14.1391  14.1393  14.2464  14.2465  14.2465  14.2466  14.4385  14.4396
    14.5360  14.5362  14.7370  14.7373  14.7382  14.7385  14.8468  14.8484
    16.9755  16.9763  16.9992  16.9993  17.0060  17.0067  17.0072  17.0072
    17.0461  17.0469  17.1264  17.1264  17.1267  17.1267  17.3893  17.3898
    17.6191  17.6199  17.8807  17.8808  17.8809  17.8811  17.9850  17.9853
    18.0960  18.0964  18.2146  18.2152  18.2304  18.2308  18.2308  18.2309
    18.7100  18.7108  18.7536  18.7536  18.7540  18.7542  19.1624  19.1625
    19.4498  19.4509

          k = 0.3750-0.5000 0.0242 ( 13948 PWs)   bands (ev):

   -62.1019 -62.1001 -62.1001 -62.0998 -62.0998 -62.0998 -62.0987 -62.0987
   -30.9356 -30.9339 -30.9339 -30.9336 -30.9335 -30.9335 -30.9332 -30.9323
   -30.9323 -30.9315 -30.9315 -30.9312 -30.9310 -30.9310 -30.9307 -30.9299
   -30.9299 -30.9293 -30.9293 -30.9291 -30.9291 -30.9286 -30.9283 -30.9283
     8.5425   8.5438   8.5912   8.5925   8.6820   8.6833   8.7885   8.7898
     9.0734   9.0744   9.2104   9.2113   9.2807   9.2809   9.2892   9.2893
     9.3716   9.3717   9.4030   9.4039   9.4160   9.4163   9.4886   9.4897
     9.5592   9.5596   9.6535   9.6537   9.7774   9.7776   9.9207   9.9207
    10.0822  10.0822  10.2543  10.2543  10.4148  10.4148  10.5170  10.5172
    10.5752  10.5761  10.6264  10.6273  10.7082  10.7090  10.8164  10.8170
    11.0019  11.0021  11.1531  11.1532  11.2883  11.2884  11.3762  11.3762
    11.6191  11.6194  11.6601  11.6604  11.7064  11.7067  11.7398  11.7402
    11.9130  11.9132  11.9409  11.9411  11.9692  11.9694  11.9845  11.9847
    12.1683  12.1684  12.2020  12.2021  12.2623  12.2625  12.3174  12.3176
    12.9092  12.9096  12.9788  12.9793  13.0656  13.0662  13.1230  13.1237
    14.1466  14.1469  14.2027  14.2027  14.2972  14.2975  14.4067  14.4075
    14.5687  14.5692  14.6836  14.6846  14.7828  14.7841  14.8394  14.8409
    16.9777  16.9785  16.9939  16.9947  17.0069  17.0070  17.0196  17.0204
    17.0431  17.0439  17.0723  17.0724  17.1945  17.1946  17.3492  17.3494
    17.6609  17.6615  17.8182  17.8184  17.9260  17.9260  17.9769  17.9771
    18.1135  18.1138  18.2020  18.2021  18.2178  18.2184  18.2345  18.2350
    18.7056  18.7059  18.7063  18.7065  18.8506  18.8510  19.1025  19.1025
    19.4815  19.4825

          k = 0.3750-0.5000-0.0484 ( 13940 PWs)   bands (ev):

   -62.1019 -62.1001 -62.1001 -62.0998 -62.0998 -62.0998 -62.0987 -62.0987
   -30.9356 -30.9339 -30.9339 -30.9336 -30.9335 -30.9335 -30.9332 -30.9323
   -30.9323 -30.9315 -30.9315 -30.9312 -30.9310 -30.9310 -30.9307 -30.9299
   -30.9299 -30.9293 -30.9293 -30.9291 -30.9291 -30.9286 -30.9283 -30.9283
     8.5609   8.5611   8.5622   8.5624   8.7370   8.7371   8.7383   8.7384
     9.1376   9.1377   9.1385   9.1387   9.2857   9.2858   9.2858   9.2859
     9.3922   9.3924   9.3924   9.3924   9.4522   9.4524   9.4533   9.4535
     9.6009   9.6010   9.6012   9.6012   9.8467   9.8468   9.8468   9.8469
    10.1678  10.1678  10.1678  10.1679  10.4768  10.4769  10.4769  10.4770
    10.5956  10.5958  10.5966  10.5966  10.7591  10.7592  10.7598  10.7599
    11.0766  11.0767  11.0768  11.0769  11.3403  11.3404  11.3404  11.3404
    11.6372  11.6373  11.6374  11.6376  11.7259  11.7260  11.7261  11.7263
    11.9252  11.9254  11.9254  11.9256  11.9786  11.9788  11.9788  11.9790
    12.1809  12.1812  12.1812  12.1812  12.2937  12.2938  12.2939  12.2939
    12.9382  12.9384  12.9386  12.9388  13.1001  13.1003  13.1008  13.1010
    14.1685  14.1686  14.1686  14.1687  14.3521  14.3523  14.3526  14.3528
    14.6253  14.6256  14.6261  14.6265  14.8175  14.8176  14.8190  14.8190
    16.9839  16.9840  16.9846  16.9850  17.0260  17.0261  17.0265  17.0268
    17.0385  17.0389  17.0390  17.0396  17.2722  17.2723  17.2724  17.2725
    17.7404  17.7405  17.7408  17.7409  17.9564  17.9566  17.9570  17.9571
    18.1556  18.1557  18.1558  18.1558  18.2257  18.2264  18.2266  18.2270
    18.6981  18.6983  18.6988  18.6990  18.9784  18.9784  18.9786  18.9787
    19.5358  19.5358

          k =-0.5000-0.5000 0.0000 ( 13964 PWs)   bands (ev):

   -62.1017 -62.1000 -62.1000 -62.0997 -62.0997 -62.0996 -62.0985 -62.0985
   -30.9354 -30.9354 -30.9337 -30.9337 -30.9337 -30.9337 -30.9334 -30.9334
   -30.9332 -30.9332 -30.9332 -30.9332 -30.9321 -30.9321 -30.9321 -30.9321
   -30.9306 -30.9292 -30.9292 -30.9289 -30.9289 -30.9285 -30.9282 -30.9282
     8.4841   8.4855   8.5835   8.5836   8.5848   8.5850   8.7866   8.7881
     8.9649   8.9660   9.2402   9.2403   9.2414   9.2415   9.2646   9.2646
     9.3140   9.3140   9.3141   9.3141   9.4256   9.4267   9.4628   9.4628
     9.4632   9.4632   9.7117   9.7117   9.7117   9.7117  10.0235  10.0235
    10.0995  10.0995  10.4993  10.4993  10.4993  10.4993  10.5319  10.5329
    10.6187  10.6190  10.6198  10.6198  10.6925  10.6934  10.9904  10.9904
    10.9906  10.9906  11.4495  11.4495  11.4496  11.4496  11.6632  11.6632
    11.9661  11.9661  11.9662  11.9663  11.9663  11.9666  11.9667  11.9667
    12.0583  12.0583  12.0584  12.0585  12.0585  12.0588  12.0588  12.0589
    12.1816  12.1818  12.1985  12.1987  12.1988  12.1988  12.2154  12.2156
    13.3579  13.3592  13.3735  13.3742  13.3752  13.3752  13.3897  13.3910
    13.9674  13.9674  14.1523  14.1523  14.1525  14.1525  14.4974  14.4974
    14.4982  14.4982  14.7564  14.7564  14.7567  14.7567  14.8468  14.8468
    16.7148  16.7151  16.8310  16.8316  16.8317  16.8318  17.0160  17.0166
    17.0268  17.0268  17.2011  17.2011  17.2014  17.2014  17.7317  17.7317
    17.7319  17.7319  17.7437  17.7442  18.1386  18.1388  18.1389  18.1391
    18.1551  18.1566  18.1566  18.1569  18.1569  18.1572  18.1578  18.1578
    18.5857  18.5857  18.5858  18.5858  18.6407  18.6412  18.7556  18.7574
    18.9735  18.9746

          k =-0.5000-0.5000 0.0242 ( 13960 PWs)   bands (ev):

   -62.1017 -62.1000 -62.1000 -62.0997 -62.0997 -62.0996 -62.0985 -62.0985
   -30.9354 -30.9354 -30.9337 -30.9337 -30.9337 -30.9337 -30.9334 -30.9334
   -30.9332 -30.9332 -30.9332 -30.9332 -30.9321 -30.9321 -30.9321 -30.9321
   -30.9306 -30.9292 -30.9292 -30.9289 -30.9289 -30.9285 -30.9282 -30.9282
     8.4905   8.4919   8.5409   8.5422   8.6362   8.6375   8.7551   8.7565
     9.0015   9.0027   9.1587   9.1599   9.2677   9.2677   9.2924   9.2924
     9.3138   9.3150   9.3419   9.3419   9.4120   9.4131   9.4164   9.4164
     9.5159   9.5159   9.6403   9.6403   9.7891   9.7891   9.9586   9.9586
    10.1701  10.1701  10.3839  10.3839  10.5392  10.5402  10.5875  10.5885
    10.6188  10.6188  10.6483  10.6492  10.6872  10.6882  10.8657  10.8657
    11.1140  11.1140  11.3469  11.3469  11.5373  11.5373  11.6483  11.6483
    11.9661  11.9661  11.9662  11.9663  11.9663  11.9666  11.9667  11.9667
    12.0583  12.0583  12.0584  12.0585  12.0585  12.0588  12.0588  12.0589
    12.1829  12.1831  12.1921  12.1923  12.2050  12.2052  12.2141  12.2143
    13.3591  13.3604  13.3677  13.3691  13.3799  13.3812  13.3885  13.3898
    13.9806  13.9806  14.0779  14.0779  14.2365  14.2365  14.4132  14.4132
    14.5760  14.5760  14.7065  14.7065  14.7959  14.7959  14.8411  14.8411
    16.7224  16.7228  16.7821  16.7825  16.8891  16.8895  16.9966  16.9972
    17.0376  17.0376  17.1246  17.1246  17.3003  17.3003  17.5659  17.5659
    17.7773  17.7778  17.9186  17.9186  17.9935  17.9938  18.1551  18.1566
    18.1566  18.1569  18.1569  18.1572  18.1578  18.1578  18.2900  18.2902
    18.3483  18.3483  18.5659  18.5660  18.8096  18.8109  18.8317  18.8317
    18.9332  18.9345

          k =-0.5000-0.5000-0.0484 ( 13992 PWs)   bands (ev):

   -62.1017 -62.1000 -62.1000 -62.0997 -62.0997 -62.0996 -62.0985 -62.0985
   -30.9354 -30.9354 -30.9337 -30.9337 -30.9337 -30.9337 -30.9334 -30.9334
   -30.9332 -30.9332 -30.9332 -30.9332 -30.9321 -30.9321 -30.9321 -30.9321
   -30.9306 -30.9292 -30.9292 -30.9289 -30.9289 -30.9285 -30.9282 -30.9282
     8.5095   8.5097   8.5109   8.5110   8.6958   8.6960   8.6972   8.6973
     9.0756   9.0758   9.0768   9.0770   9.2769   9.2769   9.2770   9.2770
     9.3730   9.3732   9.3741   9.3744   9.3760   9.3760   9.3761   9.3761
     9.5749   9.5749   9.5750   9.5750   9.8719   9.8719   9.8720   9.8720
    10.2734  10.2734  10.2734  10.2734  10.5591  10.5593  10.5602  10.5602
    10.6719  10.6721  10.6729  10.6729  10.7412  10.7412  10.7413  10.7413
    11.2338  11.2338  11.2338  11.2338  11.6052  11.6052  11.6052  11.6052
    11.9661  11.9661  11.9662  11.9663  11.9663  11.9666  11.9667  11.9667
    12.0583  12.0583  12.0584  12.0585  12.0585  12.0588  12.0588  12.0589
    12.1865  12.1867  12.1868  12.1869  12.2104  12.2106  12.2106  12.2107
    13.3624  13.3627  13.3638  13.3640  13.3849  13.3852  13.3862  13.3865
    14.0188  14.0188  14.0189  14.0189  14.3250  14.3250  14.3250  14.3250
    14.6460  14.6460  14.6460  14.6460  14.8239  14.8239  14.8243  14.8243
    16.7451  16.7453  16.7453  16.7458  16.9484  16.9485  16.9487  16.9492
    17.0697  17.0697  17.0705  17.0705  17.4219  17.4219  17.4219  17.4219
    17.8672  17.8674  17.8677  17.8678  18.1248  18.1248  18.1248  18.1248
    18.1551  18.1566  18.1566  18.1569  18.1569  18.1572  18.1578  18.1578
    18.4362  18.4363  18.4364  18.4365  18.8786  18.8787  18.8799  18.8799
    19.0192  19.0207

     the Fermi energy is    15.1935 ev

!    total energy              =  -14694.01150220 Ry
     Harris-Foulkes estimate   =  -14694.01150188 Ry
     estimated scf accuracy    <       0.00000084 Ry

     total all-electron energy =   -626921.607224 Ry

     The total energy is the sum of the following terms:

     one-electron contribution =    -714.86043945 Ry
     hartree contribution      =     656.82431265 Ry
     xc contribution           =    -737.83986049 Ry
     ewald contribution        =   -2196.78933708 Ry
     Hubbard energy            =       0.46691241 Ry
     one-center paw contrib.   =  -11701.81309023 Ry

     total magnetization       =    34.20 Bohr mag/cell
     absolute magnetization    =    36.86 Bohr mag/cell

     convergence has been achieved in  36 iterations

     Writing output data file mnau2.save/
 
     init_run     :     83.13s CPU     84.92s WALL (       1 calls)
     electrons    :   5809.73s CPU   5926.28s WALL (       1 calls)

     Called by init_run:
     wfcinit      :     79.80s CPU     81.42s WALL (       1 calls)
     potinit      :      1.58s CPU      1.63s WALL (       1 calls)
     hinit0       :      1.05s CPU      1.12s WALL (       1 calls)

     Called by electrons:
     c_bands      :   5060.71s CPU   5152.47s WALL (      36 calls)
     sum_band     :    697.53s CPU    718.18s WALL (      36 calls)
     v_of_rho     :      4.53s CPU      4.58s WALL (      37 calls)
     newd         :     10.78s CPU     11.03s WALL (      37 calls)
     PAW_pot      :     35.70s CPU     36.02s WALL (      37 calls)
     mix_rho      :      1.14s CPU      4.40s WALL (      36 calls)

     Called by c_bands:
     init_us_2    :     12.06s CPU     12.19s WALL (    6660 calls)
     cegterg      :   4896.54s CPU   4985.46s WALL (    3240 calls)

     Called by sum_band:
     sum_band:bec :      7.67s CPU      7.72s WALL (    3240 calls)
     addusdens    :     16.30s CPU     16.46s WALL (      36 calls)

     Called by *egterg:
     h_psi        :   2506.54s CPU   2566.18s WALL (    8715 calls)
     s_psi        :    339.87s CPU    340.08s WALL (    8805 calls)
     g_psi        :      3.55s CPU      3.59s WALL (    5385 calls)
     cdiaghg      :   1136.79s CPU   1161.74s WALL (    8625 calls)

     Called by h_psi:
     h_psi:pot    :   2332.86s CPU   2391.50s WALL (    8715 calls)
     h_psi:calbec :    426.55s CPU    444.52s WALL (    8715 calls)
     vloc_psi     :   1572.30s CPU   1612.75s WALL (    8715 calls)
     add_vuspsi   :    333.80s CPU    334.09s WALL (    8715 calls)
     vhpsi        :    169.38s CPU    170.30s WALL (    8715 calls)

     General routines
     calbec       :    762.70s CPU    790.47s WALL (   24000 calls)
     fft          :      3.82s CPU      3.88s WALL (     921 calls)
     ffts         :      0.20s CPU      0.21s WALL (     146 calls)
     fftw         :   1890.22s CPU   1939.06s WALL ( 3011984 calls)
     interpolate  :      0.41s CPU      0.42s WALL (      74 calls)
     davcio       :      0.01s CPU      2.19s WALL (      90 calls)
 
     Parallel routines
     fft_scatt_xy :     75.52s CPU     77.04s WALL ( 3013051 calls)
     fft_scatt_yz :   1462.97s CPU   1503.00s WALL ( 3013051 calls)

     Hubbard U routines
     new_ns       :     30.93s CPU     32.67s WALL (      36 calls)
     vhpsi        :    169.38s CPU    170.30s WALL (    8715 calls)
 
     PWSCF        :     1h38m CPU       38h 1m WALL

      41h
 
   This run was terminated on:   0:32:30   8Apr2019            

=------------------------------------------------------------------------------=
   JOB DONE.
=------------------------------------------------------------------------------=
