
     Program PWSCF v.6.3MaX starts on  8Apr2019 at  0:32:32 

     This program is part of the open-source Quantum ESPRESSO suite
     for quantum simulation of materials; please cite
         "P. Giannozzi et al., J. Phys.:Condens. Matter 21 395502 (2009);
         "P. Giannozzi et al., J. Phys.:Condens. Matter 29 465901 (2017);
          URL http://www.quantum-espresso.org", 
     in publications or presentations arising from this work. More details at
     http://www.quantum-espresso.org/quote

     Parallel version (MPI), running on    32 processors

     MPI processes distributed on     2 nodes
     R & G space division:  proc/nbgrp/npool/nimage =      32
     Waiting for input...
     Reading input from standard input

     Current dimensions of program PWSCF are:
     Max number of different atomic species (ntypx) = 10
     Max number of k-points (npk) =  40000
     Max angular momentum in pseudopotentials (lmaxx) =  3
               file Mn.pbe-spn-kjpaw_psl.0.3.1.UPF: wavefunction(s)  3P 3D renormalized
               file Mn.pbe-spn-kjpaw_psl.0.3.1.UPF: wavefunction(s)  3P 3D renormalized
               file Au.pbe-dn-kjpaw_psl.0.1.UPF: wavefunction(s)  6S 6P 5D renormalized

     Subspace diagonalization in iterative solution of the eigenvalue problem:
     one sub-group per band group will be used
     scalapack distributed-memory algorithm (size of sub-group:  4*  4 procs)

 
     Parallelization info
     --------------------
     sticks:   dense  smooth     PW     G-vecs:    dense   smooth      PW
     Min          41      18      5                11487     3460     563
     Max          42      19      6                11527     3505     606
     Sum        1313     593    177               368373   111379   18691
 


     bravais-lattice index     =            0
     lattice parameter (alat)  =       6.4153  a.u.
     unit-cell volume          =    2724.7774 (a.u.)^3
     number of atoms/cell      =           24
     number of atomic types    =            3
     number of electrons       =       296.00
     number of Kohn-Sham states=          178
     kinetic-energy cutoff     =      45.0000  Ry
     charge density cutoff     =     400.0000  Ry
     convergence threshold     =      1.0E-06
     mixing beta               =       0.1000
     number of iterations used =            8  plain     mixing
     Exchange-correlation      = SLA PW PBX PBC ( 1  4  3  4 0 0)

     celldm(1)=   6.415315  celldm(2)=   0.000000  celldm(3)=   0.000000
     celldm(4)=   0.000000  celldm(5)=   0.000000  celldm(6)=   0.000000

     crystal axes: (cart. coord. in units of alat)
               a(1) = (   1.000000   0.000000   0.000000 )  
               a(2) = (   0.000000   1.000000   0.000000 )  
               a(3) = (   0.000000   0.000000  10.319937 )  

     reciprocal axes: (cart. coord. in units 2 pi/alat)
               b(1) = (  1.000000  0.000000  0.000000 )  
               b(2) = (  0.000000  1.000000  0.000000 )  
               b(3) = (  0.000000  0.000000  0.096900 )  


     PseudoPot. # 1 for Mn read from file:
     ./pseudo/Mn.pbe-spn-kjpaw_psl.0.3.1.UPF
     MD5 check sum: 7b43a3fb0e93e198b8dd8488d8cf503e
     Pseudo is Projector augmented-wave + core cor, Zval = 15.0
     Generated using "atomic" code by A. Dal Corso v.5.0.99 svn rev. 10869
     Shape of augmentation charge: PSQ
     Using radial grid of 1187 points,  6 beta functions with: 
                l(1) =   0
                l(2) =   0
                l(3) =   1
                l(4) =   1
                l(5) =   2
                l(6) =   2
     Q(r) pseudized with 0 coefficients 


     PseudoPot. # 2 for Mn read from file:
     ./pseudo/Mn.pbe-spn-kjpaw_psl.0.3.1.UPF
     MD5 check sum: 7b43a3fb0e93e198b8dd8488d8cf503e
     Pseudo is Projector augmented-wave + core cor, Zval = 15.0
     Generated using "atomic" code by A. Dal Corso v.5.0.99 svn rev. 10869
     Shape of augmentation charge: PSQ
     Using radial grid of 1187 points,  6 beta functions with: 
                l(1) =   0
                l(2) =   0
                l(3) =   1
                l(4) =   1
                l(5) =   2
                l(6) =   2
     Q(r) pseudized with 0 coefficients 


     PseudoPot. # 3 for Au read from file:
     ./pseudo/Au.pbe-dn-kjpaw_psl.0.1.UPF
     MD5 check sum: be11e2e8e535ebe2b3ccfb4f88f554cb
     Pseudo is Projector augmented-wave + core cor, Zval = 11.0
     Generated using "atomic" code by A. Dal Corso v.5.0.2 svn rev. 9415
     Shape of augmentation charge: PSQ
     Using radial grid of 1279 points,  6 beta functions with: 
                l(1) =   0
                l(2) =   0
                l(3) =   1
                l(4) =   1
                l(5) =   2
                l(6) =   2
     Q(r) pseudized with 0 coefficients 


     atomic species   valence    mass     pseudopotential
        Mn1           15.00    54.93800     Mn( 1.00)
        Mn2           15.00    54.93800     Mn( 1.00)
        Au            11.00   196.96600     Au( 1.00)

     Starting magnetic structure 
     atomic species   magnetization
        Mn1          0.800
        Mn2         -0.800
        Au           0.000


     Full LDA+U calculation (l_max = 2) with parameters (eV):
     U(  1) =   3.1200   J(  1) =   0.7000   B(  1) =   0.0803
     U(  2) =   3.1200   J(  2) =   0.7000   B(  2) =   0.0803



     16 Sym. Ops., with inversion, found ( 8 have fractional translation)



   Cartesian axes

     site n.     atom                  positions (alat units)
         1           Mn1 tau(   1) = (   0.0000000   0.0000000   0.0000000  )
         2           Mn1 tau(   2) = (   0.5000000   0.5000000   1.2899921  )
         3           Mn1 tau(   3) = (   0.0000000   0.0000000   2.5799843  )
         4           Mn1 tau(   4) = (   0.5000000   0.5000000   3.8699764  )
         5           Mn1 tau(   5) = (   0.0000000   0.0000000   5.1599686  )
         6           Mn1 tau(   6) = (   0.5000000   0.5000000   6.4499607  )
         7           Mn1 tau(   7) = (   0.0000000   0.0000000   7.7399528  )
         8           Mn2 tau(   8) = (   0.5000000   0.5000000   9.0299450  )
         9           Au  tau(   9) = (   0.5000000   0.5000000   0.4127975  )
        10           Au  tau(  10) = (   0.0000000   0.0000000   0.8771947  )
        11           Au  tau(  11) = (   0.0000000   0.0000000   1.7027896  )
        12           Au  tau(  12) = (   0.5000000   0.5000000   2.1671868  )
        13           Au  tau(  13) = (   0.5000000   0.5000000   2.9927818  )
        14           Au  tau(  14) = (   0.0000000   0.0000000   3.4571789  )
        15           Au  tau(  15) = (   0.0000000   0.0000000   4.2827739  )
        16           Au  tau(  16) = (   0.5000000   0.5000000   4.7471711  )
        17           Au  tau(  17) = (   0.5000000   0.5000000   5.5727660  )
        18           Au  tau(  18) = (   0.0000000   0.0000000   6.0371632  )
        19           Au  tau(  19) = (   0.0000000   0.0000000   6.8627582  )
        20           Au  tau(  20) = (   0.5000000   0.5000000   7.3271553  )
        21           Au  tau(  21) = (   0.5000000   0.5000000   8.1527503  )
        22           Au  tau(  22) = (   0.0000000   0.0000000   8.6171475  )
        23           Au  tau(  23) = (   0.0000000   0.0000000   9.4427424  )
        24           Au  tau(  24) = (   0.5000000   0.5000000   9.9071396  )

     number of k points=    45 (tetrahedron method)
                       cart. coord. in units 2pi/alat
        k(    1) = (   0.0000000   0.0000000   0.0000000), wk =   0.0039062
        k(    2) = (   0.0000000   0.0000000   0.0242250), wk =   0.0078125
        k(    3) = (   0.0000000   0.0000000  -0.0484499), wk =   0.0039062
        k(    4) = (   0.0000000   0.1250000   0.0000000), wk =   0.0156250
        k(    5) = (   0.0000000   0.1250000   0.0242250), wk =   0.0312500
        k(    6) = (   0.0000000   0.1250000  -0.0484499), wk =   0.0156250
        k(    7) = (   0.0000000   0.2500000   0.0000000), wk =   0.0156250
        k(    8) = (   0.0000000   0.2500000   0.0242250), wk =   0.0312500
        k(    9) = (   0.0000000   0.2500000  -0.0484499), wk =   0.0156250
        k(   10) = (   0.0000000   0.3750000   0.0000000), wk =   0.0156250
        k(   11) = (   0.0000000   0.3750000   0.0242250), wk =   0.0312500
        k(   12) = (   0.0000000   0.3750000  -0.0484499), wk =   0.0156250
        k(   13) = (   0.0000000  -0.5000000   0.0000000), wk =   0.0078125
        k(   14) = (   0.0000000  -0.5000000   0.0242250), wk =   0.0156250
        k(   15) = (   0.0000000  -0.5000000  -0.0484499), wk =   0.0078125
        k(   16) = (   0.1250000   0.1250000   0.0000000), wk =   0.0156250
        k(   17) = (   0.1250000   0.1250000   0.0242250), wk =   0.0312500
        k(   18) = (   0.1250000   0.1250000  -0.0484499), wk =   0.0156250
        k(   19) = (   0.1250000   0.2500000   0.0000000), wk =   0.0312500
        k(   20) = (   0.1250000   0.2500000   0.0242250), wk =   0.0625000
        k(   21) = (   0.1250000   0.2500000  -0.0484499), wk =   0.0312500
        k(   22) = (   0.1250000   0.3750000   0.0000000), wk =   0.0312500
        k(   23) = (   0.1250000   0.3750000   0.0242250), wk =   0.0625000
        k(   24) = (   0.1250000   0.3750000  -0.0484499), wk =   0.0312500
        k(   25) = (   0.1250000  -0.5000000   0.0000000), wk =   0.0156250
        k(   26) = (   0.1250000  -0.5000000   0.0242250), wk =   0.0312500
        k(   27) = (   0.1250000  -0.5000000  -0.0484499), wk =   0.0156250
        k(   28) = (   0.2500000   0.2500000   0.0000000), wk =   0.0156250
        k(   29) = (   0.2500000   0.2500000   0.0242250), wk =   0.0312500
        k(   30) = (   0.2500000   0.2500000  -0.0484499), wk =   0.0156250
        k(   31) = (   0.2500000   0.3750000   0.0000000), wk =   0.0312500
        k(   32) = (   0.2500000   0.3750000   0.0242250), wk =   0.0625000
        k(   33) = (   0.2500000   0.3750000  -0.0484499), wk =   0.0312500
        k(   34) = (   0.2500000  -0.5000000   0.0000000), wk =   0.0156250
        k(   35) = (   0.2500000  -0.5000000   0.0242250), wk =   0.0312500
        k(   36) = (   0.2500000  -0.5000000  -0.0484499), wk =   0.0156250
        k(   37) = (   0.3750000   0.3750000   0.0000000), wk =   0.0156250
        k(   38) = (   0.3750000   0.3750000   0.0242250), wk =   0.0312500
        k(   39) = (   0.3750000   0.3750000  -0.0484499), wk =   0.0156250
        k(   40) = (   0.3750000  -0.5000000   0.0000000), wk =   0.0156250
        k(   41) = (   0.3750000  -0.5000000   0.0242250), wk =   0.0312500
        k(   42) = (   0.3750000  -0.5000000  -0.0484499), wk =   0.0156250
        k(   43) = (  -0.5000000  -0.5000000   0.0000000), wk =   0.0039062
        k(   44) = (  -0.5000000  -0.5000000   0.0242250), wk =   0.0078125
        k(   45) = (  -0.5000000  -0.5000000  -0.0484499), wk =   0.0039062

     Dense  grid:   368373 G-vectors     FFT dimensions: (  45,  45, 432)

     Smooth grid:   111379 G-vectors     FFT dimensions: (  27,  27, 288)

     Estimated max dynamical RAM per process >     186.81 MB

     Estimated total dynamical RAM >       5.84 GB
     Generating pointlists ...
     new r_m :   0.3377 (alat units)  2.1668 (a.u.) for type    1
     new r_m :   0.3377 (alat units)  2.1668 (a.u.) for type    2
     new r_m :   0.3377 (alat units)  2.1668 (a.u.) for type    3

     Check: negative/imaginary core charge=   -0.000006    0.000000

     Initial potential from superposition of free atoms

     starting charge  295.99426, renormalised to  296.00000
     Number of +U iterations with fixed ns =  0
     Starting occupations:
 --- enter write_ns ---
 LDA+U parameters:
U(  1) =   3.1200   J(  1) =   0.7000   B(  1) =   0.0803
U(  2) =   3.1200   J(  2) =   0.7000   B(  2) =   0.0803
atom    1   Tr[ns(na)] (up, down, total) =   5.00000  0.00000  5.00000
   spin  1
    eigenvalues: 
  1.000  1.000  1.000  1.000  1.000
    eigenvectors:
  1.000  0.000  0.000  0.000  0.000
  0.000  1.000  0.000  0.000  0.000
  0.000  0.000  1.000  0.000  0.000
  0.000  0.000  0.000  1.000  0.000
  0.000  0.000  0.000  0.000  1.000
    occupations:
  1.000  0.000  0.000  0.000  0.000
  0.000  1.000  0.000  0.000  0.000
  0.000  0.000  1.000  0.000  0.000
  0.000  0.000  0.000  1.000  0.000
  0.000  0.000  0.000  0.000  1.000
   spin  2
    eigenvalues: 
  0.000  0.000  0.000  0.000  0.000
    eigenvectors:
  1.000  0.000  0.000  0.000  0.000
  0.000  1.000  0.000  0.000  0.000
  0.000  0.000  1.000  0.000  0.000
  0.000  0.000  0.000  1.000  0.000
  0.000  0.000  0.000  0.000  1.000
    occupations:
  0.000  0.000  0.000  0.000  0.000
  0.000  0.000  0.000  0.000  0.000
  0.000  0.000  0.000  0.000  0.000
  0.000  0.000  0.000  0.000  0.000
  0.000  0.000  0.000  0.000  0.000
atomic mag. moment =     5.000000
atom    2   Tr[ns(na)] (up, down, total) =   5.00000  0.00000  5.00000
   spin  1
    eigenvalues: 
  1.000  1.000  1.000  1.000  1.000
    eigenvectors:
  1.000  0.000  0.000  0.000  0.000
  0.000  1.000  0.000  0.000  0.000
  0.000  0.000  1.000  0.000  0.000
  0.000  0.000  0.000  1.000  0.000
  0.000  0.000  0.000  0.000  1.000
    occupations:
  1.000  0.000  0.000  0.000  0.000
  0.000  1.000  0.000  0.000  0.000
  0.000  0.000  1.000  0.000  0.000
  0.000  0.000  0.000  1.000  0.000
  0.000  0.000  0.000  0.000  1.000
   spin  2
    eigenvalues: 
  0.000  0.000  0.000  0.000  0.000
    eigenvectors:
  1.000  0.000  0.000  0.000  0.000
  0.000  1.000  0.000  0.000  0.000
  0.000  0.000  1.000  0.000  0.000
  0.000  0.000  0.000  1.000  0.000
  0.000  0.000  0.000  0.000  1.000
    occupations:
  0.000  0.000  0.000  0.000  0.000
  0.000  0.000  0.000  0.000  0.000
  0.000  0.000  0.000  0.000  0.000
  0.000  0.000  0.000  0.000  0.000
  0.000  0.000  0.000  0.000  0.000
atomic mag. moment =     5.000000
atom    3   Tr[ns(na)] (up, down, total) =   5.00000  0.00000  5.00000
   spin  1
    eigenvalues: 
  1.000  1.000  1.000  1.000  1.000
    eigenvectors:
  1.000  0.000  0.000  0.000  0.000
  0.000  1.000  0.000  0.000  0.000
  0.000  0.000  1.000  0.000  0.000
  0.000  0.000  0.000  1.000  0.000
  0.000  0.000  0.000  0.000  1.000
    occupations:
  1.000  0.000  0.000  0.000  0.000
  0.000  1.000  0.000  0.000  0.000
  0.000  0.000  1.000  0.000  0.000
  0.000  0.000  0.000  1.000  0.000
  0.000  0.000  0.000  0.000  1.000
   spin  2
    eigenvalues: 
  0.000  0.000  0.000  0.000  0.000
    eigenvectors:
  1.000  0.000  0.000  0.000  0.000
  0.000  1.000  0.000  0.000  0.000
  0.000  0.000  1.000  0.000  0.000
  0.000  0.000  0.000  1.000  0.000
  0.000  0.000  0.000  0.000  1.000
    occupations:
  0.000  0.000  0.000  0.000  0.000
  0.000  0.000  0.000  0.000  0.000
  0.000  0.000  0.000  0.000  0.000
  0.000  0.000  0.000  0.000  0.000
  0.000  0.000  0.000  0.000  0.000
atomic mag. moment =     5.000000
atom    4   Tr[ns(na)] (up, down, total) =   5.00000  0.00000  5.00000
   spin  1
    eigenvalues: 
  1.000  1.000  1.000  1.000  1.000
    eigenvectors:
  1.000  0.000  0.000  0.000  0.000
  0.000  1.000  0.000  0.000  0.000
  0.000  0.000  1.000  0.000  0.000
  0.000  0.000  0.000  1.000  0.000
  0.000  0.000  0.000  0.000  1.000
    occupations:
  1.000  0.000  0.000  0.000  0.000
  0.000  1.000  0.000  0.000  0.000
  0.000  0.000  1.000  0.000  0.000
  0.000  0.000  0.000  1.000  0.000
  0.000  0.000  0.000  0.000  1.000
   spin  2
    eigenvalues: 
  0.000  0.000  0.000  0.000  0.000
    eigenvectors:
  1.000  0.000  0.000  0.000  0.000
  0.000  1.000  0.000  0.000  0.000
  0.000  0.000  1.000  0.000  0.000
  0.000  0.000  0.000  1.000  0.000
  0.000  0.000  0.000  0.000  1.000
    occupations:
  0.000  0.000  0.000  0.000  0.000
  0.000  0.000  0.000  0.000  0.000
  0.000  0.000  0.000  0.000  0.000
  0.000  0.000  0.000  0.000  0.000
  0.000  0.000  0.000  0.000  0.000
atomic mag. moment =     5.000000
atom    5   Tr[ns(na)] (up, down, total) =   5.00000  0.00000  5.00000
   spin  1
    eigenvalues: 
  1.000  1.000  1.000  1.000  1.000
    eigenvectors:
  1.000  0.000  0.000  0.000  0.000
  0.000  1.000  0.000  0.000  0.000
  0.000  0.000  1.000  0.000  0.000
  0.000  0.000  0.000  1.000  0.000
  0.000  0.000  0.000  0.000  1.000
    occupations:
  1.000  0.000  0.000  0.000  0.000
  0.000  1.000  0.000  0.000  0.000
  0.000  0.000  1.000  0.000  0.000
  0.000  0.000  0.000  1.000  0.000
  0.000  0.000  0.000  0.000  1.000
   spin  2
    eigenvalues: 
  0.000  0.000  0.000  0.000  0.000
    eigenvectors:
  1.000  0.000  0.000  0.000  0.000
  0.000  1.000  0.000  0.000  0.000
  0.000  0.000  1.000  0.000  0.000
  0.000  0.000  0.000  1.000  0.000
  0.000  0.000  0.000  0.000  1.000
    occupations:
  0.000  0.000  0.000  0.000  0.000
  0.000  0.000  0.000  0.000  0.000
  0.000  0.000  0.000  0.000  0.000
  0.000  0.000  0.000  0.000  0.000
  0.000  0.000  0.000  0.000  0.000
atomic mag. moment =     5.000000
atom    6   Tr[ns(na)] (up, down, total) =   5.00000  0.00000  5.00000
   spin  1
    eigenvalues: 
  1.000  1.000  1.000  1.000  1.000
    eigenvectors:
  1.000  0.000  0.000  0.000  0.000
  0.000  1.000  0.000  0.000  0.000
  0.000  0.000  1.000  0.000  0.000
  0.000  0.000  0.000  1.000  0.000
  0.000  0.000  0.000  0.000  1.000
    occupations:
  1.000  0.000  0.000  0.000  0.000
  0.000  1.000  0.000  0.000  0.000
  0.000  0.000  1.000  0.000  0.000
  0.000  0.000  0.000  1.000  0.000
  0.000  0.000  0.000  0.000  1.000
   spin  2
    eigenvalues: 
  0.000  0.000  0.000  0.000  0.000
    eigenvectors:
  1.000  0.000  0.000  0.000  0.000
  0.000  1.000  0.000  0.000  0.000
  0.000  0.000  1.000  0.000  0.000
  0.000  0.000  0.000  1.000  0.000
  0.000  0.000  0.000  0.000  1.000
    occupations:
  0.000  0.000  0.000  0.000  0.000
  0.000  0.000  0.000  0.000  0.000
  0.000  0.000  0.000  0.000  0.000
  0.000  0.000  0.000  0.000  0.000
  0.000  0.000  0.000  0.000  0.000
atomic mag. moment =     5.000000
atom    7   Tr[ns(na)] (up, down, total) =   5.00000  0.00000  5.00000
   spin  1
    eigenvalues: 
  1.000  1.000  1.000  1.000  1.000
    eigenvectors:
  1.000  0.000  0.000  0.000  0.000
  0.000  1.000  0.000  0.000  0.000
  0.000  0.000  1.000  0.000  0.000
  0.000  0.000  0.000  1.000  0.000
  0.000  0.000  0.000  0.000  1.000
    occupations:
  1.000  0.000  0.000  0.000  0.000
  0.000  1.000  0.000  0.000  0.000
  0.000  0.000  1.000  0.000  0.000
  0.000  0.000  0.000  1.000  0.000
  0.000  0.000  0.000  0.000  1.000
   spin  2
    eigenvalues: 
  0.000  0.000  0.000  0.000  0.000
    eigenvectors:
  1.000  0.000  0.000  0.000  0.000
  0.000  1.000  0.000  0.000  0.000
  0.000  0.000  1.000  0.000  0.000
  0.000  0.000  0.000  1.000  0.000
  0.000  0.000  0.000  0.000  1.000
    occupations:
  0.000  0.000  0.000  0.000  0.000
  0.000  0.000  0.000  0.000  0.000
  0.000  0.000  0.000  0.000  0.000
  0.000  0.000  0.000  0.000  0.000
  0.000  0.000  0.000  0.000  0.000
atomic mag. moment =     5.000000
atom    8   Tr[ns(na)] (up, down, total) =   0.00000  5.00000  5.00000
   spin  1
    eigenvalues: 
  0.000  0.000  0.000  0.000  0.000
    eigenvectors:
  1.000  0.000  0.000  0.000  0.000
  0.000  1.000  0.000  0.000  0.000
  0.000  0.000  1.000  0.000  0.000
  0.000  0.000  0.000  1.000  0.000
  0.000  0.000  0.000  0.000  1.000
    occupations:
  0.000  0.000  0.000  0.000  0.000
  0.000  0.000  0.000  0.000  0.000
  0.000  0.000  0.000  0.000  0.000
  0.000  0.000  0.000  0.000  0.000
  0.000  0.000  0.000  0.000  0.000
   spin  2
    eigenvalues: 
  1.000  1.000  1.000  1.000  1.000
    eigenvectors:
  1.000  0.000  0.000  0.000  0.000
  0.000  1.000  0.000  0.000  0.000
  0.000  0.000  1.000  0.000  0.000
  0.000  0.000  0.000  1.000  0.000
  0.000  0.000  0.000  0.000  1.000
    occupations:
  1.000  0.000  0.000  0.000  0.000
  0.000  1.000  0.000  0.000  0.000
  0.000  0.000  1.000  0.000  0.000
  0.000  0.000  0.000  1.000  0.000
  0.000  0.000  0.000  0.000  1.000
atomic mag. moment =    -5.000000
N of occupied +U levels =   40.000000
 --- exit write_ns ---
 Atomic wfc used for LDA+U Projector are NOT orthogonalized
     Starting wfcs are  224 randomized atomic wfcs
     Checking if some PAW data can be deallocated... 

     total cpu time spent up to now is       93.7 secs

     Self-consistent Calculation

     iteration #  1     ecut=    45.00 Ry     beta= 0.10
     Davidson diagonalization with overlap
     ethr =  1.00E-02,  avg # of iterations =  3.5
 --- enter write_ns ---
 LDA+U parameters:
U(  1) =   3.1200   J(  1) =   0.7000   B(  1) =   0.0803
U(  2) =   3.1200   J(  2) =   0.7000   B(  2) =   0.0803
atom    1   Tr[ns(na)] (up, down, total) =   5.01736  0.40939  5.42675
   spin  1
    eigenvalues: 
  1.003  1.003  1.003  1.004  1.004
    eigenvectors:
  0.000  0.000  0.000  1.000  0.000
  0.000  0.313  0.687  0.000  0.000
  0.000  0.687  0.313  0.000  0.000
  0.000  0.000  0.000  0.000  1.000
  1.000  0.000  0.000  0.000  0.000
    occupations:
  1.004 -0.000 -0.000  0.000  0.000
 -0.000  1.003 -0.000  0.000  0.000
 -0.000 -0.000  1.003  0.000  0.000
  0.000  0.000  0.000  1.004 -0.000
  0.000  0.000  0.000 -0.000  1.003
   spin  2
    eigenvalues: 
  0.053  0.073  0.081  0.081  0.122
    eigenvectors:
  0.000  1.000  0.000  0.000  0.000
  0.000  0.000  0.316  0.684  0.000
  0.000  0.000  0.684  0.316  0.000
  1.000  0.000  0.000  0.000  0.000
  0.000  0.000  0.000  0.000  1.000
    occupations:
  0.073 -0.000 -0.000  0.000  0.000
 -0.000  0.081 -0.000  0.000  0.000
 -0.000 -0.000  0.081  0.000  0.000
  0.000  0.000  0.000  0.053 -0.000
  0.000  0.000  0.000 -0.000  0.122
atomic mag. moment =     4.607978
atom    2   Tr[ns(na)] (up, down, total) =   5.01759  0.40273  5.42032
   spin  1
    eigenvalues: 
  1.003  1.003  1.003  1.004  1.004
    eigenvectors:
  0.000  0.000  0.000  1.000  0.000
  0.000  0.251  0.749  0.000  0.000
  0.000  0.749  0.251  0.000  0.000
  0.000  0.000  0.000  0.000  1.000
  1.000  0.000  0.000  0.000  0.000
    occupations:
  1.004 -0.000 -0.000  0.000  0.000
 -0.000  1.003 -0.000  0.000  0.000
 -0.000 -0.000  1.003  0.000  0.000
  0.000  0.000  0.000  1.004 -0.000
  0.000  0.000  0.000 -0.000  1.003
   spin  2
    eigenvalues: 
  0.053  0.074  0.081  0.081  0.114
    eigenvectors:
  0.000  1.000  0.000  0.000  0.000
  0.000  0.000  0.351  0.649  0.000
  0.000  0.000  0.649  0.351  0.000
  1.000  0.000  0.000  0.000  0.000
  0.000  0.000  0.000  0.000  1.000
    occupations:
  0.074 -0.000 -0.000  0.000  0.000
 -0.000  0.081 -0.000  0.000  0.000
 -0.000 -0.000  0.081  0.000  0.000
  0.000  0.000  0.000  0.053 -0.000
  0.000  0.000  0.000 -0.000  0.114
atomic mag. moment =     4.614860
atom    3   Tr[ns(na)] (up, down, total) =   5.01753  0.40128  5.41880
   spin  1
    eigenvalues: 
  1.003  1.003  1.003  1.004  1.004
    eigenvectors:
  0.000  0.000  0.000  1.000  0.000
  0.000  0.227  0.773  0.000  0.000
  0.000  0.773  0.227  0.000  0.000
  0.000  0.000  0.000  0.000  1.000
  1.000  0.000  0.000  0.000  0.000
    occupations:
  1.004 -0.000 -0.000  0.000  0.000
 -0.000  1.003 -0.000  0.000  0.000
 -0.000 -0.000  1.003  0.000  0.000
  0.000  0.000  0.000  1.004 -0.000
  0.000  0.000  0.000 -0.000  1.003
   spin  2
    eigenvalues: 
  0.052  0.073  0.081  0.081  0.115
    eigenvectors:
  0.000  1.000  0.000  0.000  0.000
  0.000  0.000  0.348  0.652  0.000
  0.000  0.000  0.652  0.348  0.000
  1.000  0.000  0.000  0.000  0.000
  0.000  0.000  0.000  0.000  1.000
    occupations:
  0.073 -0.000 -0.000  0.000  0.000
 -0.000  0.081 -0.000  0.000  0.000
 -0.000 -0.000  0.081  0.000  0.000
  0.000  0.000  0.000  0.052 -0.000
  0.000  0.000  0.000 -0.000  0.115
atomic mag. moment =     4.616250
atom    4   Tr[ns(na)] (up, down, total) =   5.01738  0.40255  5.41993
   spin  1
    eigenvalues: 
  1.003  1.003  1.003  1.004  1.004
    eigenvectors:
  0.000  0.000  0.000  1.000  0.000
  0.000  0.235  0.765  0.000  0.000
  0.000  0.765  0.235  0.000  0.000
  0.000  0.000  0.000  0.000  1.000
  1.000  0.000  0.000  0.000  0.000
    occupations:
  1.004 -0.000 -0.000  0.000  0.000
 -0.000  1.003 -0.000  0.000  0.000
 -0.000 -0.000  1.003  0.000  0.000
  0.000  0.000  0.000  1.004 -0.000
  0.000  0.000  0.000 -0.000  1.003
   spin  2
    eigenvalues: 
  0.053  0.072  0.081  0.081  0.116
    eigenvectors:
  0.000  1.000  0.000  0.000  0.000
  0.000  0.000  0.347  0.653  0.000
  0.000  0.000  0.653  0.347  0.000
  1.000  0.000  0.000  0.000  0.000
  0.000  0.000  0.000  0.000  1.000
    occupations:
  0.072 -0.000 -0.000  0.000  0.000
 -0.000  0.081 -0.000  0.000  0.000
 -0.000 -0.000  0.081  0.000  0.000
  0.000  0.000  0.000  0.053 -0.000
  0.000  0.000  0.000 -0.000  0.116
atomic mag. moment =     4.614826
atom    5   Tr[ns(na)] (up, down, total) =   5.01753  0.40128  5.41880
   spin  1
    eigenvalues: 
  1.003  1.003  1.003  1.004  1.004
    eigenvectors:
  0.000  0.000  0.000  1.000  0.000
  0.000  0.263  0.737  0.000  0.000
  0.000  0.737  0.263  0.000  0.000
  0.000  0.000  0.000  0.000  1.000
  1.000  0.000  0.000  0.000  0.000
    occupations:
  1.004 -0.000 -0.000  0.000  0.000
 -0.000  1.003 -0.000  0.000  0.000
 -0.000 -0.000  1.003  0.000  0.000
  0.000  0.000  0.000  1.004 -0.000
  0.000  0.000  0.000 -0.000  1.003
   spin  2
    eigenvalues: 
  0.052  0.073  0.081  0.081  0.115
    eigenvectors:
  0.000  1.000  0.000  0.000  0.000
  0.000  0.000  0.384  0.616  0.000
  0.000  0.000  0.616  0.384  0.000
  1.000  0.000  0.000  0.000  0.000
  0.000  0.000  0.000  0.000  1.000
    occupations:
  0.073 -0.000 -0.000  0.000  0.000
 -0.000  0.081 -0.000  0.000  0.000
 -0.000 -0.000  0.081  0.000  0.000
  0.000  0.000  0.000  0.052 -0.000
  0.000  0.000  0.000 -0.000  0.115
atomic mag. moment =     4.616250
atom    6   Tr[ns(na)] (up, down, total) =   5.01759  0.40273  5.42032
   spin  1
    eigenvalues: 
  1.003  1.003  1.003  1.004  1.004
    eigenvectors:
  0.000  0.000  0.000  1.000  0.000
  0.000  0.262  0.738  0.000  0.000
  0.000  0.738  0.262  0.000  0.000
  0.000  0.000  0.000  0.000  1.000
  1.000  0.000  0.000  0.000  0.000
    occupations:
  1.004 -0.000 -0.000  0.000  0.000
 -0.000  1.003 -0.000  0.000  0.000
 -0.000 -0.000  1.003  0.000  0.000
  0.000  0.000  0.000  1.004 -0.000
  0.000  0.000  0.000 -0.000  1.003
   spin  2
    eigenvalues: 
  0.053  0.074  0.081  0.081  0.114
    eigenvectors:
  0.000  1.000  0.000  0.000  0.000
  0.000  0.000  0.387  0.613  0.000
  0.000  0.000  0.613  0.387  0.000
  1.000  0.000  0.000  0.000  0.000
  0.000  0.000  0.000  0.000  1.000
    occupations:
  0.074 -0.000 -0.000  0.000  0.000
 -0.000  0.081 -0.000  0.000  0.000
 -0.000 -0.000  0.081  0.000  0.000
  0.000  0.000  0.000  0.053 -0.000
  0.000  0.000  0.000 -0.000  0.114
atomic mag. moment =     4.614860
atom    7   Tr[ns(na)] (up, down, total) =   5.01736  0.40939  5.42675
   spin  1
    eigenvalues: 
  1.003  1.003  1.003  1.004  1.004
    eigenvectors:
  0.000  0.000  0.000  1.000  0.000
  0.000  0.251  0.749  0.000  0.000
  0.000  0.749  0.251  0.000  0.000
  0.000  0.000  0.000  0.000  1.000
  1.000  0.000  0.000  0.000  0.000
    occupations:
  1.004 -0.000 -0.000  0.000  0.000
 -0.000  1.003 -0.000  0.000  0.000
 -0.000 -0.000  1.003  0.000  0.000
  0.000  0.000  0.000  1.004 -0.000
  0.000  0.000  0.000 -0.000  1.003
   spin  2
    eigenvalues: 
  0.053  0.073  0.081  0.081  0.122
    eigenvectors:
  0.000  1.000  0.000  0.000  0.000
  0.000  0.000  0.333  0.667  0.000
  0.000  0.000  0.667  0.333  0.000
  1.000  0.000  0.000  0.000  0.000
  0.000  0.000  0.000  0.000  1.000
    occupations:
  0.073 -0.000 -0.000  0.000  0.000
 -0.000  0.081 -0.000  0.000  0.000
 -0.000 -0.000  0.081  0.000  0.000
  0.000  0.000  0.000  0.053 -0.000
  0.000  0.000  0.000 -0.000  0.122
atomic mag. moment =     4.607978
atom    8   Tr[ns(na)] (up, down, total) =   0.41455  5.01742  5.43197
   spin  1
    eigenvalues: 
  0.054  0.075  0.080  0.080  0.125
    eigenvectors:
  0.000  1.000  0.000  0.000  0.000
  0.000  0.000  0.250  0.750  0.000
  0.000  0.000  0.750  0.250  0.000
  1.000  0.000  0.000  0.000  0.000
  0.000  0.000  0.000  0.000  1.000
    occupations:
  0.075 -0.000 -0.000  0.000  0.000
 -0.000  0.080 -0.000  0.000  0.000
 -0.000 -0.000  0.080  0.000  0.000
  0.000  0.000  0.000  0.054 -0.000
  0.000  0.000  0.000 -0.000  0.125
   spin  2
    eigenvalues: 
  1.003  1.003  1.003  1.004  1.004
    eigenvectors:
  0.000  0.000  0.000  1.000  0.000
  0.000  0.303  0.697  0.000  0.000
  0.000  0.697  0.303  0.000  0.000
  0.000  0.000  0.000  0.000  1.000
  1.000  0.000  0.000  0.000  0.000
    occupations:
  1.004 -0.000 -0.000  0.000  0.000
 -0.000  1.003 -0.000  0.000  0.000
 -0.000 -0.000  1.003  0.000  0.000
  0.000  0.000  0.000  1.004 -0.000
  0.000  0.000  0.000 -0.000  1.003
atomic mag. moment =    -4.602877
N of occupied +U levels =   43.383637
 --- exit write_ns ---

     total cpu time spent up to now is      311.4 secs

     total energy              =  -14687.26990710 Ry
     Harris-Foulkes estimate   =  -14685.80775219 Ry
     estimated scf accuracy    <      11.54102959 Ry

     total magnetization       =    30.31 Bohr mag/cell
     absolute magnetization    =    41.53 Bohr mag/cell

     iteration #  2     ecut=    45.00 Ry     beta= 0.10
     Davidson diagonalization with overlap
     ethr =  3.90E-03,  avg # of iterations =  1.0

     total cpu time spent up to now is      457.7 secs

     total energy              =  -14688.81398083 Ry
     Harris-Foulkes estimate   =  -14687.34702697 Ry
     estimated scf accuracy    <       9.89652069 Ry

     total magnetization       =    29.93 Bohr mag/cell
     absolute magnetization    =    41.19 Bohr mag/cell

     iteration #  3     ecut=    45.00 Ry     beta= 0.10
     Davidson diagonalization with overlap
     ethr =  3.34E-03,  avg # of iterations =  3.8

     total cpu time spent up to now is      666.6 secs

     total energy              =  -14692.01692148 Ry
     Harris-Foulkes estimate   =  -14690.07448037 Ry
     estimated scf accuracy    <     112.30842773 Ry

     total magnetization       =    29.98 Bohr mag/cell
     absolute magnetization    =    40.72 Bohr mag/cell

     iteration #  4     ecut=    45.00 Ry     beta= 0.10
     Davidson diagonalization with overlap
     ethr =  3.34E-03,  avg # of iterations =  3.0

     total cpu time spent up to now is      865.6 secs

     total energy              =  -14693.97486339 Ry
     Harris-Foulkes estimate   =  -14694.10953885 Ry
     estimated scf accuracy    <       4.54672772 Ry

     total magnetization       =    27.97 Bohr mag/cell
     absolute magnetization    =    38.49 Bohr mag/cell

     iteration #  5     ecut=    45.00 Ry     beta= 0.10
     Davidson diagonalization with overlap
     ethr =  1.54E-03,  avg # of iterations =  2.7

     total cpu time spent up to now is     1046.7 secs

     total energy              =  -14694.18281706 Ry
     Harris-Foulkes estimate   =  -14694.00045142 Ry
     estimated scf accuracy    <       3.54357931 Ry

     total magnetization       =    27.99 Bohr mag/cell
     absolute magnetization    =    38.56 Bohr mag/cell

     iteration #  6     ecut=    45.00 Ry     beta= 0.10
     Davidson diagonalization with overlap
     ethr =  1.20E-03,  avg # of iterations =  1.6

     total cpu time spent up to now is     1206.3 secs

     total energy              =  -14693.48472882 Ry
     Harris-Foulkes estimate   =  -14694.19445986 Ry
     estimated scf accuracy    <       4.27410231 Ry

     total magnetization       =    27.90 Bohr mag/cell
     absolute magnetization    =    38.41 Bohr mag/cell

     iteration #  7     ecut=    45.00 Ry     beta= 0.10
     Davidson diagonalization with overlap
     ethr =  1.20E-03,  avg # of iterations =  4.1

     total cpu time spent up to now is     1442.6 secs

     total energy              =  -14693.97910211 Ry
     Harris-Foulkes estimate   =  -14693.96092939 Ry
     estimated scf accuracy    <       0.23772328 Ry

     total magnetization       =    26.52 Bohr mag/cell
     absolute magnetization    =    37.55 Bohr mag/cell

     iteration #  8     ecut=    45.00 Ry     beta= 0.10
     Davidson diagonalization with overlap
     ethr =  8.03E-05,  avg # of iterations =  4.3

     total cpu time spent up to now is     1674.0 secs

     total energy              =  -14694.00027943 Ry
     Harris-Foulkes estimate   =  -14694.00033072 Ry
     estimated scf accuracy    <       0.15430290 Ry

     total magnetization       =    26.24 Bohr mag/cell
     absolute magnetization    =    37.29 Bohr mag/cell

     iteration #  9     ecut=    45.00 Ry     beta= 0.10
     Davidson diagonalization with overlap
     ethr =  5.21E-05,  avg # of iterations =  1.0

     total cpu time spent up to now is     1819.2 secs

     total energy              =  -14694.00221604 Ry
     Harris-Foulkes estimate   =  -14694.00103426 Ry
     estimated scf accuracy    <       0.15608554 Ry

     total magnetization       =    26.25 Bohr mag/cell
     absolute magnetization    =    37.28 Bohr mag/cell

     iteration # 10     ecut=    45.00 Ry     beta= 0.10
     Davidson diagonalization with overlap
     ethr =  5.21E-05,  avg # of iterations =  1.0

     total cpu time spent up to now is     1965.8 secs

     total energy              =  -14693.99322384 Ry
     Harris-Foulkes estimate   =  -14694.00245737 Ry
     estimated scf accuracy    <       0.15852252 Ry

     total magnetization       =    26.23 Bohr mag/cell
     absolute magnetization    =    37.26 Bohr mag/cell

     iteration # 11     ecut=    45.00 Ry     beta= 0.10
     Davidson diagonalization with overlap
     ethr =  5.21E-05,  avg # of iterations =  1.8

     total cpu time spent up to now is     2136.9 secs

     total energy              =  -14694.03795002 Ry
     Harris-Foulkes estimate   =  -14694.00983486 Ry
     estimated scf accuracy    <       0.07410638 Ry

     total magnetization       =    25.97 Bohr mag/cell
     absolute magnetization    =    37.09 Bohr mag/cell

     iteration # 12     ecut=    45.00 Ry     beta= 0.10
     Davidson diagonalization with overlap
     ethr =  2.50E-05,  avg # of iterations =  3.8

     total cpu time spent up to now is     2404.6 secs

     total energy              =  -14694.05003189 Ry
     Harris-Foulkes estimate   =  -14694.06740299 Ry
     estimated scf accuracy    <       0.33755845 Ry

     total magnetization       =    25.72 Bohr mag/cell
     absolute magnetization    =    36.74 Bohr mag/cell

     iteration # 13     ecut=    45.00 Ry     beta= 0.10
     Davidson diagonalization with overlap
     ethr =  2.50E-05,  avg # of iterations =  1.0

     total cpu time spent up to now is     2550.4 secs

     total energy              =  -14694.00950565 Ry
     Harris-Foulkes estimate   =  -14694.05129083 Ry
     estimated scf accuracy    <       0.25251725 Ry

     total magnetization       =    25.70 Bohr mag/cell
     absolute magnetization    =    36.77 Bohr mag/cell

     iteration # 14     ecut=    45.00 Ry     beta= 0.10
     Davidson diagonalization with overlap
     ethr =  2.50E-05,  avg # of iterations =  2.3

     total cpu time spent up to now is     2727.7 secs

     total energy              =  -14694.00383891 Ry
     Harris-Foulkes estimate   =  -14694.01887227 Ry
     estimated scf accuracy    <       0.06921560 Ry

     total magnetization       =    25.85 Bohr mag/cell
     absolute magnetization    =    36.99 Bohr mag/cell

     iteration # 15     ecut=    45.00 Ry     beta= 0.10
     Davidson diagonalization with overlap
     ethr =  2.34E-05,  avg # of iterations =  1.5

     total cpu time spent up to now is     2882.9 secs

     total energy              =  -14694.00637639 Ry
     Harris-Foulkes estimate   =  -14694.00819954 Ry
     estimated scf accuracy    <       0.01424310 Ry

     total magnetization       =    25.88 Bohr mag/cell
     absolute magnetization    =    37.03 Bohr mag/cell

     iteration # 16     ecut=    45.00 Ry     beta= 0.10
     Davidson diagonalization with overlap
     ethr =  4.81E-06,  avg # of iterations =  3.7

     total cpu time spent up to now is     3090.1 secs

     total energy              =  -14694.00710102 Ry
     Harris-Foulkes estimate   =  -14694.00747684 Ry
     estimated scf accuracy    <       0.00954303 Ry

     total magnetization       =    25.88 Bohr mag/cell
     absolute magnetization    =    37.07 Bohr mag/cell

     iteration # 17     ecut=    45.00 Ry     beta= 0.10
     Davidson diagonalization with overlap
     ethr =  3.22E-06,  avg # of iterations =  1.4

     total cpu time spent up to now is     3244.4 secs

     total energy              =  -14694.00772033 Ry
     Harris-Foulkes estimate   =  -14694.00741883 Ry
     estimated scf accuracy    <       0.00140910 Ry

     total magnetization       =    25.88 Bohr mag/cell
     absolute magnetization    =    37.06 Bohr mag/cell

     iteration # 18     ecut=    45.00 Ry     beta= 0.10
     Davidson diagonalization with overlap
     ethr =  4.76E-07,  avg # of iterations =  3.4

     total cpu time spent up to now is     3461.0 secs

     total energy              =  -14694.00799489 Ry
     Harris-Foulkes estimate   =  -14694.00789870 Ry
     estimated scf accuracy    <       0.00029544 Ry

     total magnetization       =    25.86 Bohr mag/cell
     absolute magnetization    =    37.07 Bohr mag/cell

     iteration # 19     ecut=    45.00 Ry     beta= 0.10
     Davidson diagonalization with overlap
     ethr =  9.98E-08,  avg # of iterations =  1.5

     total cpu time spent up to now is     3617.8 secs

     total energy              =  -14694.00805847 Ry
     Harris-Foulkes estimate   =  -14694.00798109 Ry
     estimated scf accuracy    <       0.00021469 Ry

     total magnetization       =    25.85 Bohr mag/cell
     absolute magnetization    =    37.06 Bohr mag/cell

     iteration # 20     ecut=    45.00 Ry     beta= 0.10
     Davidson diagonalization with overlap
     ethr =  7.25E-08,  avg # of iterations =  2.1

     total cpu time spent up to now is     3788.5 secs

     total energy              =  -14694.00806179 Ry
     Harris-Foulkes estimate   =  -14694.00803703 Ry
     estimated scf accuracy    <       0.00007669 Ry

     total magnetization       =    25.82 Bohr mag/cell
     absolute magnetization    =    37.05 Bohr mag/cell

     iteration # 21     ecut=    45.00 Ry     beta= 0.10
     Davidson diagonalization with overlap
     ethr =  2.59E-08,  avg # of iterations =  2.1

     total cpu time spent up to now is     3953.7 secs

     total energy              =  -14694.00807190 Ry
     Harris-Foulkes estimate   =  -14694.00805589 Ry
     estimated scf accuracy    <       0.00003791 Ry

     total magnetization       =    25.81 Bohr mag/cell
     absolute magnetization    =    37.04 Bohr mag/cell

     iteration # 22     ecut=    45.00 Ry     beta= 0.10
     Davidson diagonalization with overlap
     ethr =  1.28E-08,  avg # of iterations =  2.8

     total cpu time spent up to now is     4145.1 secs

     total energy              =  -14694.00807564 Ry
     Harris-Foulkes estimate   =  -14694.00807036 Ry
     estimated scf accuracy    <       0.00001012 Ry

     total magnetization       =    25.81 Bohr mag/cell
     absolute magnetization    =    37.04 Bohr mag/cell

     iteration # 23     ecut=    45.00 Ry     beta= 0.10
     Davidson diagonalization with overlap
     ethr =  3.42E-09,  avg # of iterations =  2.8

     total cpu time spent up to now is     4337.0 secs

     total energy              =  -14694.00807906 Ry
     Harris-Foulkes estimate   =  -14694.00807604 Ry
     estimated scf accuracy    <       0.00000453 Ry

     total magnetization       =    25.81 Bohr mag/cell
     absolute magnetization    =    37.04 Bohr mag/cell

     iteration # 24     ecut=    45.00 Ry     beta= 0.10
     Davidson diagonalization with overlap
     ethr =  1.53E-09,  avg # of iterations =  2.4

     total cpu time spent up to now is     4515.7 secs

     total energy              =  -14694.00808068 Ry
     Harris-Foulkes estimate   =  -14694.00807852 Ry
     estimated scf accuracy    <       0.00000555 Ry

     total magnetization       =    25.80 Bohr mag/cell
     absolute magnetization    =    37.04 Bohr mag/cell

     iteration # 25     ecut=    45.00 Ry     beta= 0.10
     Davidson diagonalization with overlap
     ethr =  1.53E-09,  avg # of iterations =  1.1

     total cpu time spent up to now is     4662.9 secs

     total energy              =  -14694.00808089 Ry
     Harris-Foulkes estimate   =  -14694.00807936 Ry
     estimated scf accuracy    <       0.00000239 Ry

     total magnetization       =    25.80 Bohr mag/cell
     absolute magnetization    =    37.04 Bohr mag/cell

     iteration # 26     ecut=    45.00 Ry     beta= 0.10
     Davidson diagonalization with overlap
     ethr =  8.08E-10,  avg # of iterations =  1.7

     total cpu time spent up to now is     4826.0 secs

     total energy              =  -14694.00808168 Ry
     Harris-Foulkes estimate   =  -14694.00808086 Ry
     estimated scf accuracy    <       0.00000100 Ry

     total magnetization       =    25.80 Bohr mag/cell
     absolute magnetization    =    37.04 Bohr mag/cell

     iteration # 27     ecut=    45.00 Ry     beta= 0.10
     Davidson diagonalization with overlap
     ethr =  3.39E-10,  avg # of iterations =  2.2
 
     Magnetic moment per site:
     atom:    1    charge:   13.5460    magn:    4.2449    constr:    0.0000
     atom:    2    charge:   13.5535    magn:    4.1955    constr:    0.0000
     atom:    3    charge:   13.5546    magn:    4.1900    constr:    0.0000
     atom:    4    charge:   13.5550    magn:    4.1858    constr:    0.0000
     atom:    5    charge:   13.5546    magn:    4.1900    constr:    0.0000
     atom:    6    charge:   13.5535    magn:    4.1955    constr:    0.0000
     atom:    7    charge:   13.5460    magn:    4.2449    constr:    0.0000
     atom:    8    charge:   13.5466    magn:   -4.2403    constr:    0.0000
     atom:    9    charge:    9.1228    magn:    0.0314    constr:    0.0000
     atom:   10    charge:    9.1219    magn:    0.0298    constr:    0.0000
     atom:   11    charge:    9.1208    magn:    0.0282    constr:    0.0000
     atom:   12    charge:    9.1197    magn:    0.0236    constr:    0.0000
     atom:   13    charge:    9.1201    magn:    0.0229    constr:    0.0000
     atom:   14    charge:    9.1210    magn:    0.0247    constr:    0.0000
     atom:   15    charge:    9.1210    magn:    0.0247    constr:    0.0000
     atom:   16    charge:    9.1201    magn:    0.0229    constr:    0.0000
     atom:   17    charge:    9.1197    magn:    0.0236    constr:    0.0000
     atom:   18    charge:    9.1208    magn:    0.0282    constr:    0.0000
     atom:   19    charge:    9.1219    magn:    0.0298    constr:    0.0000
     atom:   20    charge:    9.1228    magn:    0.0314    constr:    0.0000
     atom:   21    charge:    9.1237    magn:    0.0438    constr:    0.0000
     atom:   22    charge:    9.1242    magn:   -0.0395    constr:    0.0000
     atom:   23    charge:    9.1242    magn:   -0.0395    constr:    0.0000
     atom:   24    charge:    9.1237    magn:    0.0438    constr:    0.0000

     total cpu time spent up to now is     5005.9 secs

     End of self-consistent calculation
 --- enter write_ns ---
 LDA+U parameters:
U(  1) =   3.1200   J(  1) =   0.7000   B(  1) =   0.0803
U(  2) =   3.1200   J(  2) =   0.7000   B(  2) =   0.0803
atom    1   Tr[ns(na)] (up, down, total) =   4.97294  0.72833  5.70128
   spin  1
    eigenvalues: 
  0.985  0.994  0.994  0.997  1.002
    eigenvectors:
  0.000  0.000  0.000  1.000  0.000
  0.000  0.322  0.678  0.000  0.000
  0.000  0.678  0.322  0.000  0.000
  0.000  0.000  0.000  0.000  1.000
  1.000  0.000  0.000  0.000  0.000
    occupations:
  0.997 -0.000 -0.000  0.000  0.000
 -0.000  0.994 -0.000  0.000  0.000
 -0.000 -0.000  0.994  0.000  0.000
  0.000  0.000  0.000  1.002 -0.000
  0.000  0.000  0.000 -0.000  0.985
   spin  2
    eigenvalues: 
  0.066  0.119  0.147  0.147  0.248
    eigenvectors:
  0.000  1.000  0.000  0.000  0.000
  0.000  0.000  0.216  0.784  0.000
  0.000  0.000  0.784  0.216  0.000
  1.000  0.000  0.000  0.000  0.000
  0.000  0.000  0.000  0.000  1.000
    occupations:
  0.119 -0.000 -0.000  0.000  0.000
 -0.000  0.147 -0.000  0.000  0.000
 -0.000 -0.000  0.147  0.000  0.000
  0.000  0.000  0.000  0.066 -0.000
  0.000  0.000  0.000 -0.000  0.248
atomic mag. moment =     4.244612
atom    2   Tr[ns(na)] (up, down, total) =   4.96890  0.76804  5.73694
   spin  1
    eigenvalues: 
  0.984  0.993  0.993  0.996  1.002
    eigenvectors:
  0.000  0.000  0.000  1.000  0.000
  0.000  0.309  0.691  0.000  0.000
  0.000  0.691  0.309  0.000  0.000
  0.000  0.000  0.000  0.000  1.000
  1.000  0.000  0.000  0.000  0.000
    occupations:
  0.996 -0.000 -0.000  0.000  0.000
 -0.000  0.993 -0.000  0.000  0.000
 -0.000 -0.000  0.993  0.000  0.000
  0.000  0.000  0.000  1.002 -0.000
  0.000  0.000  0.000 -0.000  0.984
   spin  2
    eigenvalues: 
  0.065  0.143  0.146  0.146  0.269
    eigenvectors:
  0.000  1.000  0.000  0.000  0.000
  0.000  0.000  0.298  0.702  0.000
  0.000  0.000  0.702  0.298  0.000
  1.000  0.000  0.000  0.000  0.000
  0.000  0.000  0.000  0.000  1.000
    occupations:
  0.143 -0.000 -0.000  0.000  0.000
 -0.000  0.146 -0.000  0.000  0.000
 -0.000 -0.000  0.146  0.000  0.000
  0.000  0.000  0.000  0.065 -0.000
  0.000  0.000  0.000 -0.000  0.269
atomic mag. moment =     4.200859
atom    3   Tr[ns(na)] (up, down, total) =   4.96823  0.77182  5.74004
   spin  1
    eigenvalues: 
  0.984  0.993  0.993  0.997  1.002
    eigenvectors:
  0.000  0.000  0.000  1.000  0.000
  0.000  0.334  0.666  0.000  0.000
  0.000  0.666  0.334  0.000  0.000
  0.000  0.000  0.000  0.000  1.000
  1.000  0.000  0.000  0.000  0.000
    occupations:
  0.997 -0.000 -0.000  0.000  0.000
 -0.000  0.993 -0.000  0.000  0.000
 -0.000 -0.000  0.993  0.000  0.000
  0.000  0.000  0.000  1.002 -0.000
  0.000  0.000  0.000 -0.000  0.984
   spin  2
    eigenvalues: 
  0.065  0.144  0.144  0.150  0.269
    eigenvectors:
  0.000  0.000  0.000  1.000  0.000
  0.000  0.243  0.757  0.000  0.000
  0.000  0.757  0.243  0.000  0.000
  1.000  0.000  0.000  0.000  0.000
  0.000  0.000  0.000  0.000  1.000
    occupations:
  0.150 -0.000 -0.000  0.000  0.000
 -0.000  0.144 -0.000  0.000  0.000
 -0.000 -0.000  0.144  0.000  0.000
  0.000  0.000  0.000  0.065 -0.000
  0.000  0.000  0.000 -0.000  0.269
atomic mag. moment =     4.196413
atom    4   Tr[ns(na)] (up, down, total) =   4.96782  0.77456  5.74237
   spin  1
    eigenvalues: 
  0.984  0.993  0.993  0.996  1.002
    eigenvectors:
  0.000  0.000  0.000  1.000  0.000
  0.000  0.275  0.725  0.000  0.000
  0.000  0.725  0.275  0.000  0.000
  0.000  0.000  0.000  0.000  1.000
  1.000  0.000  0.000  0.000  0.000
    occupations:
  0.996 -0.000 -0.000  0.000  0.000
 -0.000  0.993 -0.000  0.000  0.000
 -0.000 -0.000  0.993  0.000  0.000
  0.000  0.000  0.000  1.002 -0.000
  0.000  0.000  0.000 -0.000  0.984
   spin  2
    eigenvalues: 
  0.065  0.143  0.143  0.153  0.270
    eigenvectors:
  0.000  0.000  0.000  1.000  0.000
  0.000  0.389  0.611  0.000  0.000
  0.000  0.611  0.389  0.000  0.000
  1.000  0.000  0.000  0.000  0.000
  0.000  0.000  0.000  0.000  1.000
    occupations:
  0.153 -0.000 -0.000  0.000  0.000
 -0.000  0.143 -0.000  0.000  0.000
 -0.000 -0.000  0.143  0.000  0.000
  0.000  0.000  0.000  0.065 -0.000
  0.000  0.000  0.000 -0.000  0.270
atomic mag. moment =     4.193260
atom    5   Tr[ns(na)] (up, down, total) =   4.96823  0.77182  5.74004
   spin  1
    eigenvalues: 
  0.984  0.993  0.993  0.997  1.002
    eigenvectors:
  0.000  0.000  0.000  1.000  0.000
  0.000  0.325  0.675  0.000  0.000
  0.000  0.675  0.325  0.000  0.000
  0.000  0.000  0.000  0.000  1.000
  1.000  0.000  0.000  0.000  0.000
    occupations:
  0.997 -0.000 -0.000  0.000  0.000
 -0.000  0.993 -0.000  0.000  0.000
 -0.000 -0.000  0.993  0.000  0.000
  0.000  0.000  0.000  1.002 -0.000
  0.000  0.000  0.000 -0.000  0.984
   spin  2
    eigenvalues: 
  0.065  0.144  0.144  0.150  0.269
    eigenvectors:
  0.000  0.000  0.000  1.000  0.000
  0.000  0.335  0.665  0.000  0.000
  0.000  0.665  0.335  0.000  0.000
  1.000  0.000  0.000  0.000  0.000
  0.000  0.000  0.000  0.000  1.000
    occupations:
  0.150 -0.000 -0.000  0.000  0.000
 -0.000  0.144 -0.000  0.000  0.000
 -0.000 -0.000  0.144  0.000  0.000
  0.000  0.000  0.000  0.065 -0.000
  0.000  0.000  0.000 -0.000  0.269
atomic mag. moment =     4.196413
atom    6   Tr[ns(na)] (up, down, total) =   4.96890  0.76804  5.73694
   spin  1
    eigenvalues: 
  0.984  0.993  0.993  0.996  1.002
    eigenvectors:
  0.000  0.000  0.000  1.000  0.000
  0.000  0.339  0.661  0.000  0.000
  0.000  0.661  0.339  0.000  0.000
  0.000  0.000  0.000  0.000  1.000
  1.000  0.000  0.000  0.000  0.000
    occupations:
  0.996 -0.000 -0.000  0.000  0.000
 -0.000  0.993 -0.000  0.000  0.000
 -0.000 -0.000  0.993  0.000  0.000
  0.000  0.000  0.000  1.002 -0.000
  0.000  0.000  0.000 -0.000  0.984
   spin  2
    eigenvalues: 
  0.065  0.143  0.146  0.146  0.269
    eigenvectors:
  0.000  1.000  0.000  0.000  0.000
  0.000  0.000  0.291  0.709  0.000
  0.000  0.000  0.709  0.291  0.000
  1.000  0.000  0.000  0.000  0.000
  0.000  0.000  0.000  0.000  1.000
    occupations:
  0.143 -0.000 -0.000  0.000  0.000
 -0.000  0.146 -0.000  0.000  0.000
 -0.000 -0.000  0.146  0.000  0.000
  0.000  0.000  0.000  0.065 -0.000
  0.000  0.000  0.000 -0.000  0.269
atomic mag. moment =     4.200859
atom    7   Tr[ns(na)] (up, down, total) =   4.97294  0.72833  5.70128
   spin  1
    eigenvalues: 
  0.985  0.994  0.994  0.997  1.002
    eigenvectors:
  0.000  0.000  0.000  1.000  0.000
  0.000  0.283  0.717  0.000  0.000
  0.000  0.717  0.283  0.000  0.000
  0.000  0.000  0.000  0.000  1.000
  1.000  0.000  0.000  0.000  0.000
    occupations:
  0.997 -0.000 -0.000  0.000  0.000
 -0.000  0.994 -0.000  0.000  0.000
 -0.000 -0.000  0.994  0.000  0.000
  0.000  0.000  0.000  1.002 -0.000
  0.000  0.000  0.000 -0.000  0.985
   spin  2
    eigenvalues: 
  0.066  0.119  0.147  0.147  0.248
    eigenvectors:
  0.000  1.000  0.000  0.000  0.000
  0.000  0.000  0.324  0.676  0.000
  0.000  0.000  0.676  0.324  0.000
  1.000  0.000  0.000  0.000  0.000
  0.000  0.000  0.000  0.000  1.000
    occupations:
  0.119 -0.000 -0.000  0.000  0.000
 -0.000  0.147 -0.000  0.000  0.000
 -0.000 -0.000  0.147  0.000  0.000
  0.000  0.000  0.000  0.066 -0.000
  0.000  0.000  0.000 -0.000  0.248
atomic mag. moment =     4.244612
atom    8   Tr[ns(na)] (up, down, total) =   0.73432  4.97001  5.70433
   spin  1
    eigenvalues: 
  0.064  0.125  0.147  0.147  0.253
    eigenvectors:
  0.000  1.000  0.000  0.000  0.000
  0.000  0.000  0.267  0.733  0.000
  0.000  0.000  0.733  0.267  0.000
  1.000  0.000  0.000  0.000  0.000
  0.000  0.000  0.000  0.000  1.000
    occupations:
  0.125 -0.000 -0.000  0.000  0.000
 -0.000  0.147 -0.000  0.000  0.000
 -0.000 -0.000  0.147  0.000  0.000
  0.000  0.000  0.000  0.064 -0.000
  0.000  0.000  0.000 -0.000  0.253
   spin  2
    eigenvalues: 
  0.985  0.994  0.994  0.996  1.003
    eigenvectors:
  0.000  0.000  0.000  1.000  0.000
  0.000  0.376  0.624  0.000  0.000
  0.000  0.624  0.376  0.000  0.000
  0.000  0.000  0.000  0.000  1.000
  1.000  0.000  0.000  0.000  0.000
    occupations:
  0.996 -0.000 -0.000  0.000  0.000
 -0.000  0.994 -0.000  0.000  0.000
 -0.000 -0.000  0.994  0.000  0.000
  0.000  0.000  0.000  1.003 -0.000
  0.000  0.000  0.000 -0.000  0.985
atomic mag. moment =    -4.235688
N of occupied +U levels =   45.803224
 --- exit write_ns ---

 ------ SPIN UP ------------


          k = 0.0000 0.0000 0.0000 ( 13925 PWs)   bands (ev):

   -66.8052 -66.8052 -66.6264 -66.6264 -66.6030 -66.6004 -66.6004 -62.2687
   -35.5747 -35.5747 -35.5219 -35.5219 -35.5219 -35.5219 -35.4034 -35.4034
   -35.3757 -35.3736 -35.3736 -35.3423 -35.3423 -35.3423 -35.3423 -35.3216
   -35.3216 -35.3186 -35.3186 -35.3186 -35.3186 -31.0951 -31.0849 -31.0849
     5.7202   5.8667   5.8840   6.2890   6.3447   6.9627   7.0182   7.6090
     8.1574   8.3450   8.3490   8.3801   8.4153   8.4420   8.4767   8.5691
     8.6963   8.7096   8.7624   8.7736   8.8646   8.8949   9.0661   9.1269
     9.2007   9.3673   9.3967   9.4331   9.4718   9.4945   9.6922   9.6964
     9.7987   9.8711   9.8906   9.9439   9.9786  10.0450  10.0682  10.0886
    10.0886  10.1492  10.1784  10.1784  10.1819  10.1819  10.3075  10.3146
    10.3273  10.3273  10.3355  10.3355  10.4444  10.5003  10.5522  10.5522
    10.5568  10.5568  10.5933  10.5933  10.6011  10.6011  10.6359  10.6359
    10.6520  10.6826  10.6826  10.7322  10.7322  10.7819  10.7857  10.7857
    10.8027  10.8027  10.8287  10.9957  11.0248  11.0329  11.0329  11.0715
    11.0715  11.1782  11.1819  11.2140  11.2420  11.3304  11.4440  11.4686
    11.5015  11.5016  11.5016  11.6045  11.6045  11.6104  11.6753  11.6943
    11.8236  11.8754  11.8833  11.9806  12.0115  12.0115  12.0277  12.0906
    12.1440  12.1638  12.1638  12.1901  12.2282  12.2518  12.4576  12.4806
    12.4806  12.6192  12.6603  12.6603  12.7381  12.8066  12.8278  12.8278
    12.8798  12.9861  13.0807  13.1403  13.1409  13.3147  14.0394  14.2840
    15.3002  15.6287  16.7064  16.8336  16.8336  16.9001  17.0491  17.5431
    17.9051  19.3140  19.4767  20.0062  20.0062  20.3534  20.3534  20.3789
    20.3789  21.3013

          k = 0.0000 0.0000 0.0242 ( 13893 PWs)   bands (ev):

   -66.8052 -66.8052 -66.6264 -66.6264 -66.6030 -66.6004 -66.6004 -62.2687
   -35.5747 -35.5747 -35.5219 -35.5219 -35.5219 -35.5219 -35.4034 -35.4034
   -35.3757 -35.3736 -35.3736 -35.3423 -35.3423 -35.3423 -35.3423 -35.3216
   -35.3216 -35.3186 -35.3186 -35.3186 -35.3186 -31.0951 -31.0849 -31.0849
     5.7288   5.8106   5.9582   6.1812   6.4673   6.8061   7.1803   7.5332
     8.2314   8.3509   8.3536   8.3755   8.3932   8.4476   8.5046   8.5615
     8.5997   8.6694   8.7064   8.8590   8.8811   8.9721   9.0758   9.0833
     9.2460   9.3252   9.3323   9.4149   9.5134   9.5486   9.6782   9.7026
     9.7618   9.8730   9.8869   9.9477  10.0162  10.0397  10.0679  10.0889
    10.0889  10.1565  10.1636  10.1636  10.2058  10.2058  10.2770  10.2820
    10.2820  10.2971  10.3883  10.3883  10.4585  10.5208  10.5208  10.5375
    10.5563  10.5563  10.5568  10.5568  10.6311  10.6335  10.6335  10.6628
    10.6628  10.6898  10.6898  10.7322  10.7322  10.7688  10.7688  10.7924
    10.8062  10.8223  10.8223  10.9541  10.9541  10.9990  11.0305  11.1584
    11.1584  11.1787  11.2043  11.2203  11.2205  11.3236  11.4186  11.4230
    11.4230  11.4760  11.5174  11.6355  11.6671  11.6780  11.6840  11.6840
    11.8350  11.8504  11.8921  11.9511  11.9511  11.9749  12.0525  12.0932
    12.1372  12.1893  12.2121  12.2124  12.2124  12.2519  12.4568  12.4568
    12.4699  12.6065  12.6715  12.6715  12.7466  12.8254  12.8254  12.8366
    12.8757  12.9879  13.0501  13.0802  13.1410  13.4233  13.8921  14.4526
    15.1030  15.8299  16.5892  16.8336  16.8336  16.9001  17.0491  17.5287
    18.0662  18.9226  19.8953  20.0294  20.0294  20.2116  20.2116  20.5580
    20.5580  20.9203

          k = 0.0000 0.0000-0.0484 ( 13878 PWs)   bands (ev):

   -66.8052 -66.8052 -66.6264 -66.6264 -66.6030 -66.6004 -66.6004 -62.2687
   -35.5747 -35.5747 -35.5219 -35.5219 -35.5219 -35.5219 -35.4034 -35.4034
   -35.3757 -35.3736 -35.3736 -35.3423 -35.3423 -35.3423 -35.3423 -35.3216
   -35.3216 -35.3186 -35.3186 -35.3186 -35.3186 -31.0951 -31.0849 -31.0849
     5.7452   5.7757   6.0376   6.0857   6.6030   6.6585   7.3401   7.3960
     8.3325   8.3535   8.3682   8.3706   8.4091   8.4330   8.4532   8.5385
     8.5540   8.6319   8.7168   8.8677   8.9155   8.9919   9.1010   9.1137
     9.2053   9.3048   9.3150   9.3875   9.5512   9.5898   9.6604   9.7062
     9.7249   9.8766   9.8818   9.9515  10.0345  10.0538  10.0675  10.0892
    10.0892  10.1578  10.1578  10.1640  10.2352  10.2352  10.2393  10.2448
    10.2448  10.2870  10.4486  10.4486  10.4554  10.4554  10.4733  10.5558
    10.5558  10.5564  10.5564  10.5747  10.6117  10.6340  10.6340  10.6746
    10.6746  10.7290  10.7290  10.7318  10.7318  10.7407  10.7407  10.7561
    10.8307  10.8524  10.8524  10.8943  10.8943  10.9732  11.0657  11.1761
    11.1942  11.2265  11.2298  11.2298  11.2301  11.3167  11.3494  11.3494
    11.3930  11.4833  11.5347  11.6589  11.6605  11.6608  11.7585  11.7585
    11.8256  11.8457  11.8828  11.8828  11.9009  11.9688  12.0777  12.0957
    12.1302  12.1885  12.1930  12.2521  12.2543  12.2543  12.4294  12.4294
    12.4833  12.5930  12.6816  12.6816  12.7546  12.8229  12.8229  12.8714
    12.8962  12.9566  12.9896  13.0797  13.1411  13.5397  13.7553  14.6307
    14.9076  16.0162  16.4369  16.8336  16.8336  16.9001  17.0491  17.5207
    18.3132  18.6033  20.0945  20.0945  20.1028  20.1028  20.3535  20.4525
    20.7605  20.7605

          k = 0.0000 0.1250 0.0000 ( 13879 PWs)   bands (ev):

   -66.8049 -66.8049 -66.6261 -66.6261 -66.6027 -66.6001 -66.6001 -62.2687
   -35.5745 -35.5745 -35.5236 -35.5236 -35.5218 -35.5218 -35.4032 -35.4032
   -35.3755 -35.3734 -35.3734 -35.3440 -35.3440 -35.3422 -35.3422 -35.3233
   -35.3215 -35.3204 -35.3204 -35.3185 -35.3185 -31.0948 -31.0871 -31.0848
     5.9638   6.1066   6.1226   6.5132   6.5637   7.1477   7.1921   7.7273
     8.1793   8.4360   8.4873   8.5036   8.5130   8.5578   8.5779   8.6574
     8.6856   8.6902   8.7903   8.8153   8.9071   8.9582   9.0829   9.1247
     9.1722   9.2286   9.2803   9.2842   9.3901   9.4085   9.6014   9.6812
     9.7529   9.8013   9.8337   9.8394   9.8908   9.9134   9.9356   9.9392
     9.9509  10.0015  10.0320  10.0549  10.0591  10.0771  10.1276  10.1555
    10.2599  10.2660  10.3318  10.3399  10.3420  10.3552  10.4378  10.5381
    10.5690  10.6081  10.6108  10.6163  10.6833  10.6973  10.7405  10.7415
    10.8128  10.8146  10.8152  10.8594  10.8697  10.9206  10.9796  11.0050
    11.0688  11.0779  11.0940  11.1315  11.1466  11.1544  11.1593  11.1799
    11.1964  11.2439  11.2482  11.3061  11.3091  11.3934  11.4400  11.4522
    11.4762  11.5181  11.5934  11.6052  11.6472  11.7164  11.7407  11.8033
    11.8303  11.8371  11.8589  11.8993  12.0032  12.0081  12.0200  12.0878
    12.0961  12.1551  12.1663  12.2182  12.2928  12.2976  12.3380  12.4345
    12.4935  12.5039  12.6411  12.6668  12.6821  12.7708  12.8167  12.8274
    12.9530  12.9577  13.0417  13.0436  13.1140  13.2750  14.0808  14.3203
    15.4315  15.7606  16.6537  16.8621  16.9108  16.9473  16.9606  17.8241
    18.0110  18.5476  18.8485  18.8980  19.6411  19.6962  19.7265  19.7784
    20.6040  20.8140

          k = 0.0000 0.1250 0.0242 ( 13869 PWs)   bands (ev):

   -66.8049 -66.8049 -66.6261 -66.6261 -66.6027 -66.6001 -66.6001 -62.2687
   -35.5745 -35.5745 -35.5236 -35.5236 -35.5218 -35.5218 -35.4032 -35.4032
   -35.3755 -35.3734 -35.3734 -35.3440 -35.3440 -35.3422 -35.3422 -35.3233
   -35.3215 -35.3204 -35.3204 -35.3185 -35.3185 -31.0948 -31.0871 -31.0848
     5.9721   6.0521   6.1946   6.4090   6.6814   6.9994   7.3435   7.6595
     8.2415   8.4422   8.4756   8.4893   8.5050   8.5401   8.5750   8.6052
     8.6716   8.7568   8.7995   8.8202   8.9392   8.9592   9.0509   9.1104
     9.1530   9.2393   9.2772   9.3117   9.3713   9.4390   9.5631   9.7128
     9.7532   9.7988   9.8237   9.8448   9.8874   9.9137   9.9355   9.9373
     9.9397  10.0006  10.0332  10.0539  10.0668  10.0973  10.1128  10.1777
    10.2317  10.2794  10.2861  10.3258  10.3450  10.4289  10.4326  10.5434
    10.5728  10.6061  10.6088  10.6140  10.6169  10.6799  10.7489  10.8038
    10.8060  10.8150  10.8350  10.8600  10.8720  10.9169  10.9912  11.0118
    11.0523  11.0559  11.0865  11.0950  11.1387  11.1471  11.1810  11.1930
    11.2082  11.2204  11.2682  11.2942  11.3787  11.3809  11.4235  11.4378
    11.4482  11.5727  11.6219  11.6232  11.6354  11.6383  11.7298  11.8091
    11.8331  11.8501  11.8691  11.8726  11.9845  12.0442  12.0732  12.0876
    12.0948  12.1259  12.1659  12.2182  12.2529  12.3067  12.3228  12.4675
    12.4931  12.5096  12.6429  12.6480  12.6902  12.7977  12.8126  12.8353
    12.9536  12.9558  13.0101  13.0422  13.0433  13.4024  13.9076  14.5157
    15.2146  15.9748  16.6041  16.8258  16.9104  16.9473  16.9606  17.6733
    18.2892  18.5692  18.7333  19.0438  19.2219  19.4627  19.9529  20.2211
    20.5358  20.6232

          k = 0.0000 0.1250-0.0484 ( 13868 PWs)   bands (ev):

   -66.8049 -66.8049 -66.6261 -66.6261 -66.6027 -66.6001 -66.6001 -62.2687
   -35.5745 -35.5745 -35.5236 -35.5236 -35.5218 -35.5218 -35.4032 -35.4032
   -35.3755 -35.3734 -35.3734 -35.3440 -35.3440 -35.3422 -35.3422 -35.3233
   -35.3215 -35.3204 -35.3204 -35.3185 -35.3185 -31.0948 -31.0871 -31.0848
     5.9876   6.0187   6.2717   6.3167   6.8116   6.8592   7.4922   7.5330
     8.3489   8.3910   8.4642   8.4690   8.4928   8.5071   8.5774   8.6361
     8.6636   8.7255   8.8074   8.9148   8.9168   8.9635   9.0248   9.1048
     9.1212   9.2500   9.2860   9.3312   9.3515   9.4863   9.5105   9.7422
     9.7536   9.7967   9.8077   9.8507   9.8831   9.9141   9.9310   9.9343
     9.9365   9.9998  10.0341  10.0536  10.0774  10.0992  10.1192  10.2109
    10.2116  10.2316  10.3005  10.3132  10.3518  10.4272  10.5141  10.5217
    10.5482  10.5787  10.6000  10.6095  10.6172  10.6768  10.7582  10.7956
    10.8074  10.8157  10.8582  10.8705  10.9058  10.9311  10.9713  11.0089
    11.0189  11.0336  11.0935  11.0953  11.1316  11.1334  11.1734  11.2021
    11.2201  11.2272  11.2890  11.3023  11.3381  11.3983  11.4199  11.4619
    11.4635  11.5552  11.5906  11.6265  11.6426  11.6856  11.7165  11.7632
    11.7897  11.8616  11.8747  11.9210  11.9796  12.0782  12.0804  12.0846
    12.0873  12.1348  12.1654  12.2184  12.2188  12.2689  12.3420  12.4802
    12.4997  12.5234  12.6266  12.6435  12.6974  12.8082  12.8428  12.8632
    12.9024  12.9515  12.9563  13.0428  13.0429  13.5398  13.7463  14.7197
    14.9957  16.1714  16.4987  16.7988  16.9102  16.9473  16.9606  17.6054
    18.6089  18.6399  18.6411  18.8420  19.2110  19.2723  20.1926  20.2302
    20.6730  20.6895

          k = 0.0000 0.2500 0.0000 ( 13848 PWs)   bands (ev):

   -66.8048 -66.8048 -66.6260 -66.6260 -66.6026 -66.6000 -66.6000 -62.2683
   -35.5741 -35.5741 -35.5278 -35.5278 -35.5215 -35.5215 -35.4028 -35.4028
   -35.3751 -35.3730 -35.3730 -35.3482 -35.3482 -35.3419 -35.3419 -35.3276
   -35.3246 -35.3246 -35.3212 -35.3183 -35.3183 -31.0943 -31.0923 -31.0844
     6.6527   6.7828   6.7948   7.1320   7.1659   7.6170   7.6302   7.9724
     8.1760   8.3982   8.3993   8.6116   8.6249   8.6801   8.7655   8.7695
     8.8068   8.8390   8.8553   8.8718   8.8867   8.9420   8.9441   9.0014
     9.0093   9.0520   9.1138   9.2360   9.4394   9.4510   9.4678   9.5374
     9.5477   9.5554   9.6158   9.6192   9.6766   9.6877   9.7395   9.7549
     9.7844   9.8620   9.9144   9.9676   9.9812  10.0601  10.1384  10.1740
    10.2326  10.3389  10.4865  10.5003  10.5436  10.5715  10.5746  10.5960
    10.6330  10.6685  10.6716  10.7028  10.7631  10.8069  10.8620  10.8703
    10.9409  10.9928  11.0379  11.0401  11.0664  11.0917  11.1093  11.1190
    11.1555  11.2266  11.2790  11.3258  11.3712  11.3845  11.3873  11.4129
    11.4316  11.4628  11.4947  11.5259  11.5965  11.6127  11.6449  11.6590
    11.6900  11.7149  11.7295  11.7351  11.7690  11.7738  11.7858  11.8109
    11.8231  11.8606  11.9097  11.9412  11.9806  11.9964  12.0476  12.0570
    12.0635  12.1120  12.1170  12.1513  12.1596  12.2685  12.3110  12.3435
    12.5078  12.5657  12.5938  12.6500  12.7599  12.7664  12.8764  12.9008
    12.9937  13.0184  13.0213  13.0835  13.0846  13.1463  14.1896  14.3948
    15.6550  15.8392  16.0551  16.2192  16.3341  16.5681  16.8067  16.9275
    17.0048  17.2117  17.2915  17.4025  18.0109  18.1879  18.3447  18.4296
    19.0881  20.2135

          k = 0.0000 0.2500 0.0242 ( 13862 PWs)   bands (ev):

   -66.8048 -66.8048 -66.6260 -66.6260 -66.6026 -66.6000 -66.6000 -62.2683
   -35.5741 -35.5741 -35.5278 -35.5278 -35.5215 -35.5215 -35.4028 -35.4028
   -35.3751 -35.3730 -35.3730 -35.3482 -35.3482 -35.3419 -35.3419 -35.3276
   -35.3246 -35.3246 -35.3212 -35.3183 -35.3183 -31.0943 -31.0923 -31.0844
     6.6598   6.7338   6.8589   7.0422   7.2638   7.5040   7.7386   7.9317
     8.2082   8.3359   8.4580   8.5674   8.6623   8.6896   8.7376   8.7615
     8.8087   8.8465   8.8647   8.8852   8.8935   8.9341   8.9511   8.9969
     9.0095   9.0534   9.0646   9.2939   9.4391   9.4494   9.4744   9.5148
     9.5366   9.5693   9.5735   9.6142   9.6683   9.6810   9.7634   9.7864
     9.8094   9.8693   9.9039   9.9598   9.9892  10.0536  10.0671  10.2069
    10.2521  10.3817  10.4390  10.5120  10.5400  10.5535  10.5678  10.6005
    10.6159  10.6471  10.7068  10.7482  10.7755  10.7837  10.8344  10.9117
    10.9359  10.9785  11.0124  11.0320  11.0558  11.0822  11.1070  11.1491
    11.1949  11.2342  11.2699  11.3193  11.3372  11.3593  11.3802  11.4391
    11.4700  11.4857  11.5055  11.5230  11.5619  11.5836  11.6510  11.6514
    11.6973  11.7180  11.7347  11.7490  11.7573  11.7662  11.7990  11.8021
    11.8331  11.8602  11.9064  11.9685  11.9762  11.9880  12.0205  12.0459
    12.0645  12.1169  12.1467  12.1515  12.1713  12.2571  12.2618  12.3904
    12.4867  12.5877  12.6271  12.6427  12.7454  12.7737  12.8733  12.8839
    12.8989  12.9908  13.0192  13.0833  13.0850  13.3336  13.9442  14.6561
    15.4140  15.9582  16.0724  16.2203  16.3869  16.5803  16.8067  16.9037
    17.0216  17.1916  17.2117  17.5274  17.8520  18.1105  18.4053  18.5820
    19.1357  19.8015

          k = 0.0000 0.2500-0.0484 ( 13842 PWs)   bands (ev):

   -66.8048 -66.8048 -66.6260 -66.6260 -66.6026 -66.6000 -66.6000 -62.2683
   -35.5741 -35.5741 -35.5278 -35.5278 -35.5215 -35.5215 -35.4028 -35.4028
   -35.3751 -35.3730 -35.3730 -35.3482 -35.3482 -35.3419 -35.3419 -35.3276
   -35.3246 -35.3246 -35.3212 -35.3183 -35.3183 -31.0943 -31.0923 -31.0844
     6.6724   6.7054   6.9271   6.9625   7.3710   7.3943   7.8418   7.8466
     8.2694   8.2713   8.5123   8.5160   8.6855   8.7021   8.7257   8.7355
     8.8099   8.8430   8.8809   8.8926   8.9130   8.9317   8.9550   8.9922
     9.0095   9.0195   9.0548   9.3562   9.4387   9.4483   9.4761   9.4857
     9.4975   9.5626   9.5953   9.6084   9.6532   9.6814   9.7658   9.7930
     9.8826   9.8834   9.8867   9.9537   9.9813   9.9944  10.0753  10.1864
    10.3118  10.3891  10.4456  10.4906  10.5191  10.5315  10.5494  10.5982
    10.6545  10.6807  10.6841  10.7274  10.7801  10.8065  10.8655  10.8972
    10.9340  10.9684  10.9779  11.0209  11.0663  11.0820  11.1120  11.1548
    11.2423  11.2521  11.2582  11.2934  11.3051  11.3502  11.3798  11.4692
    11.4802  11.5054  11.5158  11.5321  11.5411  11.5688  11.6036  11.6677
    11.6967  11.7143  11.7287  11.7412  11.7767  11.7787  11.7878  11.8240
    11.8482  11.8506  11.8962  11.9523  11.9771  12.0112  12.0204  12.0228
    12.0650  12.1167  12.1512  12.1736  12.1943  12.2098  12.2523  12.4223
    12.4651  12.6073  12.6340  12.7166  12.7306  12.7325  12.7785  12.8916
    12.8965  12.9877  13.0199  13.0832  13.0854  13.5393  13.7099  14.9161
    15.1575  16.0083  16.0579  16.2619  16.4038  16.6491  16.8067  16.8345
    17.0478  17.1411  17.2117  17.6238  17.7441  18.0038  18.5451  18.5910
    19.3423  19.4509

          k = 0.0000 0.3750 0.0000 ( 13856 PWs)   bands (ev):

   -66.8053 -66.8053 -66.6265 -66.6265 -66.6031 -66.6006 -66.6006 -62.2673
   -35.5737 -35.5737 -35.5319 -35.5319 -35.5213 -35.5213 -35.4024 -35.4024
   -35.3747 -35.3726 -35.3726 -35.3523 -35.3523 -35.3417 -35.3417 -35.3316
   -35.3287 -35.3287 -35.3210 -35.3180 -35.3180 -31.0977 -31.0937 -31.0841
     7.6120   7.7178   7.7214   7.9355   7.9408   8.1031   8.1063   8.1479
     8.1621   8.1889   8.1898   8.2779   8.2843   8.4391   8.4648   8.6510
     8.7262   8.8878   8.9377   8.9707   9.0383   9.0706   9.1723   9.1914
     9.1927   9.1992   9.2059   9.2150   9.2712   9.2860   9.3208   9.3245
     9.3701   9.4326   9.4728   9.5345   9.5620   9.5724   9.6395   9.6493
     9.7475   9.8916   9.9020  10.0015  10.0626  10.0681  10.1221  10.2885
    10.2887  10.3154  10.3302  10.3359  10.3515  10.4082  10.4998  10.6384
    10.6988  10.6988  10.7417  10.8376  10.9554  11.0685  11.1139  11.1510
    11.1531  11.2229  11.2901  11.3129  11.3902  11.4011  11.4051  11.4230
    11.4311  11.4592  11.4986  11.5187  11.5304  11.5688  11.5705  11.6024
    11.6072  11.6133  11.6415  11.6543  11.6751  11.7282  11.7809  11.7954
    11.8411  11.8457  11.8846  11.8940  11.9259  11.9480  12.0258  12.0370
    12.0406  12.1190  12.1274  12.1336  12.1448  12.1592  12.2056  12.2470
    12.2500  12.2936  12.3253  12.3812  12.4671  12.4959  12.4967  12.5425
    12.5895  12.6214  12.7274  12.7421  12.8316  12.8748  12.9620  12.9765
    12.9847  13.0024  13.0537  13.0751  13.1256  13.1336  13.9336  14.1493
    14.1614  14.2770  14.2962  14.9966  15.0806  15.1438  15.1907  15.8262
    15.8462  16.0532  16.1412  16.7361  16.9486  16.9494  17.4132  17.9105
    19.3178  19.3474

          k = 0.0000 0.3750 0.0242 ( 13870 PWs)   bands (ev):

   -66.8053 -66.8053 -66.6265 -66.6265 -66.6031 -66.6006 -66.6006 -62.2673
   -35.5737 -35.5737 -35.5319 -35.5319 -35.5213 -35.5213 -35.4024 -35.4024
   -35.3747 -35.3726 -35.3726 -35.3523 -35.3523 -35.3417 -35.3417 -35.3316
   -35.3287 -35.3287 -35.3210 -35.3180 -35.3180 -31.0977 -31.0937 -31.0841
     7.6167   7.6807   7.7684   7.8816   7.9903   8.0761   8.1251   8.1471
     8.1610   8.1796   8.2046   8.2505   8.3163   8.4019   8.5051   8.6179
     8.7585   8.8795   8.9199   8.9698   9.0349   9.0969   9.1631   9.1914
     9.1929   9.2121   9.2134   9.2215   9.2721   9.2828   9.3023   9.3216
     9.3927   9.3970   9.4324   9.5395   9.5631   9.5943   9.6746   9.6838
     9.7444   9.8589   9.9200   9.9531  10.0120  10.0545  10.2220  10.2858
    10.2957  10.2996  10.3216  10.3485  10.3843  10.4209  10.4899  10.5745
    10.5984  10.7518  10.7740  10.9143  10.9890  10.9973  11.1132  11.1460
    11.2140  11.2322  11.2500  11.3420  11.3630  11.3775  11.3954  11.4260
    11.4308  11.4594  11.4733  11.4990  11.5187  11.5235  11.5408  11.5934
    11.6377  11.6549  11.6589  11.6850  11.6932  11.7347  11.7798  11.7922
    11.8109  11.8284  11.8526  11.8857  11.9682  11.9901  12.0323  12.0485
    12.0951  12.1114  12.1191  12.1290  12.1440  12.1595  12.2051  12.2328
    12.2463  12.3197  12.3461  12.3878  12.4501  12.4609  12.5410  12.5425
    12.5875  12.6132  12.6945  12.7182  12.7428  12.8436  12.8727  12.9559
    12.9855  13.0559  13.0750  13.1252  13.1336  13.2974  13.8845  13.9699
    14.1350  14.3678  14.4898  14.8061  14.9324  15.3099  15.3597  15.7143
    15.8203  16.0410  16.1852  16.7361  16.9478  16.9537  17.4132  17.9119
    19.3297  19.4050

          k = 0.0000 0.3750-0.0484 ( 13872 PWs)   bands (ev):

   -66.8053 -66.8053 -66.6265 -66.6265 -66.6031 -66.6006 -66.6006 -62.2673
   -35.5737 -35.5737 -35.5319 -35.5319 -35.5213 -35.5213 -35.4024 -35.4024
   -35.3747 -35.3726 -35.3726 -35.3523 -35.3523 -35.3417 -35.3417 -35.3316
   -35.3287 -35.3287 -35.3210 -35.3180 -35.3180 -31.0977 -31.0937 -31.0841
     7.6236   7.6621   7.8178   7.8297   8.0274   8.0472   8.1346   8.1452
     8.1597   8.1762   8.2246   8.2254   8.3487   8.3655   8.5466   8.5764
     8.7923   8.8529   8.9355   8.9386   9.0617   9.0862   9.1772   9.1878
     9.1928   9.2126   9.2313   9.2375   9.2770   9.2776   9.2804   9.3232
     9.3338   9.4221   9.4321   9.5106   9.5634   9.6073   9.7213   9.7334
     9.7584   9.8344   9.8499   9.9275  10.0248  10.0432  10.2836  10.2885
    10.2952  10.3012  10.3019  10.3511  10.4413  10.4522  10.4755  10.5036
    10.5283  10.7395  10.8510  10.9203  10.9903  11.0199  11.1143  11.1873
    11.1901  11.2243  11.2694  11.2775  11.3304  11.3685  11.4256  11.4274
    11.4460  11.4553  11.4679  11.4747  11.4825  11.5207  11.5289  11.5894
    11.6365  11.6620  11.7187  11.7190  11.7351  11.7472  11.7481  11.7499
    11.7697  11.8111  11.8425  11.8964  11.9912  12.0252  12.0325  12.0707
    12.0950  12.1161  12.1298  12.1342  12.1423  12.1612  12.1712  12.2234
    12.3421  12.3507  12.3960  12.4120  12.4227  12.4227  12.4538  12.5534
    12.5659  12.5937  12.6013  12.7077  12.7455  12.8563  12.8692  12.9495
    12.9862  13.0580  13.0748  13.1247  13.1337  13.5799  13.6257  14.0039
    14.0524  14.5333  14.6198  14.6943  14.7389  15.4666  15.4983  15.6329
    15.6730  16.0620  16.2065  16.7361  16.9476  16.9573  17.4132  17.9132
    19.3887  19.4165

          k = 0.0000-0.5000 0.0000 ( 13918 PWs)   bands (ev):

   -66.8058 -66.8058 -66.6270 -66.6270 -66.6036 -66.6010 -66.6010 -62.2667
   -35.5735 -35.5735 -35.5335 -35.5335 -35.5212 -35.5212 -35.4022 -35.4022
   -35.3745 -35.3724 -35.3724 -35.3540 -35.3540 -35.3416 -35.3416 -35.3333
   -35.3303 -35.3303 -35.3209 -35.3179 -35.3179 -31.1000 -31.0935 -31.0840
     8.0833   8.0837   8.1020   8.1108   8.1493   8.1707   8.1765   8.2270
     8.3072   8.3998   8.4034   8.4186   8.4358   8.4998   8.5065   8.6027
     8.6511   8.7423   8.8350   8.8496   8.9480   8.9611   9.0842   9.0931
     9.1203   9.1298   9.1786   9.1943   9.2256   9.3007   9.3289   9.3560
     9.4025   9.4923   9.6436   9.6608   9.6661   9.6855   9.7382   9.7613
     9.7639   9.7897   9.8131   9.8234   9.8598  10.0126  10.0192  10.0511
    10.1175  10.2678  10.3095  10.3187  10.4874  10.5179  10.5498  10.5659
    10.5766  10.6318  10.6681  10.7330  10.9133  11.1738  11.1958  11.2423
    11.3096  11.4079  11.4084  11.4266  11.4405  11.4963  11.4974  11.5340
    11.5344  11.5548  11.5646  11.5791  11.5819  11.6249  11.6342  11.6799
    11.6902  11.7063  11.7348  11.7720  11.7786  11.7853  11.8135  11.8451
    11.8614  11.9323  11.9416  11.9501  12.0197  12.1237  12.2317  12.3164
    12.3308  12.3359  12.3913  12.3943  12.4710  12.4984  12.5224  12.5394
    12.5668  12.5936  12.6382  12.6508  12.6535  12.6754  12.6779  12.7514
    12.7597  12.8615  12.8928  12.9310  12.9403  12.9493  12.9819  13.0180
    13.0504  13.0914  13.0952  13.1490  13.1498  13.3233  13.3916  13.4392
    13.4552  13.8421  13.8659  13.9220  13.9658  14.4055  14.4399  14.4477
    14.4872  14.7556  14.7836  16.6216  16.7174  16.8067  17.4871  17.8828
    19.3102  19.3308

          k = 0.0000-0.5000 0.0242 ( 13918 PWs)   bands (ev):

   -66.8058 -66.8058 -66.6270 -66.6270 -66.6036 -66.6010 -66.6010 -62.2667
   -35.5735 -35.5735 -35.5335 -35.5335 -35.5212 -35.5212 -35.4022 -35.4022
   -35.3745 -35.3724 -35.3724 -35.3540 -35.3540 -35.3416 -35.3416 -35.3333
   -35.3303 -35.3303 -35.3209 -35.3179 -35.3179 -31.1000 -31.0935 -31.0840
     8.0803   8.0863   8.1044   8.1104   8.1504   8.1557   8.1931   8.2228
     8.3098   8.3856   8.3954   8.4403   8.4413   8.4985   8.4986   8.5999
     8.6602   8.7473   8.8194   8.8375   8.9636   8.9704   9.0882   9.0932
     9.1176   9.1200   9.1946   9.1946   9.2188   9.3004   9.3224   9.3259
     9.4424   9.4926   9.6207   9.6423   9.6657   9.6843   9.7439   9.7591
     9.7819   9.8079   9.8157   9.8269   9.8603   9.9832  10.0189  10.0624
    10.1509  10.2932  10.2964  10.3186  10.3912  10.4878  10.4918  10.5709
    10.6311  10.6821  10.7334  10.7404  10.9328  11.1043  11.1705  11.2518
    11.3453  11.3648  11.4001  11.4429  11.4508  11.4902  11.4931  11.5349
    11.5353  11.5536  11.5655  11.5785  11.5841  11.6027  11.6126  11.6977
    11.7207  11.7311  11.7362  11.7712  11.7790  11.7854  11.8133  11.8490
    11.8771  11.8863  11.9423  11.9917  12.0727  12.1230  12.1364  12.2756
    12.3028  12.3867  12.3930  12.4507  12.4780  12.4959  12.5256  12.5430
    12.5612  12.5742  12.6115  12.6210  12.6401  12.6909  12.7354  12.7585
    12.7748  12.8560  12.8620  12.8857  12.9230  12.9917  12.9938  13.0179
    13.0914  13.0932  13.0997  13.1490  13.1502  13.2806  13.3046  13.5101
    13.5317  13.7583  13.7795  14.0120  14.0563  14.2953  14.3289  14.5521
    14.5889  14.7305  14.7594  16.6220  16.7174  16.8068  17.4871  17.8831
    19.3477  19.3605

          k = 0.0000-0.5000-0.0484 ( 13892 PWs)   bands (ev):

   -66.8058 -66.8058 -66.6270 -66.6270 -66.6036 -66.6010 -66.6010 -62.2667
   -35.5735 -35.5735 -35.5335 -35.5335 -35.5212 -35.5212 -35.4022 -35.4022
   -35.3745 -35.3724 -35.3724 -35.3540 -35.3540 -35.3416 -35.3416 -35.3333
   -35.3303 -35.3303 -35.3209 -35.3179 -35.3179 -31.1000 -31.0935 -31.0840
     8.0782   8.0929   8.0949   8.1253   8.1314   8.1617   8.2011   8.2182
     8.3124   8.3761   8.3914   8.4443   8.4607   8.4858   8.4972   8.5979
     8.6693   8.7534   8.8051   8.8254   8.9774   8.9786   9.0933   9.0977
     9.1024   9.1198   9.1949   9.2108   9.2117   9.2980   9.3001   9.3229
     9.4773   9.4930   9.5831   9.6410   9.6652   9.6832   9.7528   9.7572
     9.7714   9.8180   9.8298   9.8537   9.8607   9.9441  10.0186  10.0749
    10.2229  10.2751  10.2820  10.3186  10.3216  10.4633  10.4883  10.5659
    10.6305  10.6939  10.7337  10.8944  10.9524  10.9680  11.1671  11.2718
    11.3225  11.3755  11.3831  11.4446  11.4665  11.4804  11.4902  11.5347
    11.5363  11.5522  11.5674  11.5773  11.5914  11.5928  11.5937  11.7115
    11.7247  11.7401  11.7617  11.7687  11.7795  11.7856  11.8130  11.8418
    11.8491  11.9429  11.9598  12.0269  12.0322  12.1222  12.1262  12.2212
    12.2712  12.3949  12.4347  12.4844  12.4934  12.4977  12.5290  12.5464
    12.5519  12.5542  12.5830  12.5923  12.6420  12.7061  12.7573  12.7950
    12.8090  12.8132  12.8308  12.8625  12.9074  13.0023  13.0178  13.0236
    13.0910  13.0915  13.1490  13.1506  13.1636  13.2296  13.2456  13.5725
    13.6229  13.6864  13.6867  14.1003  14.1619  14.2028  14.2197  14.6429
    14.6725  14.6837  14.6976  16.6224  16.7174  16.8068  17.4871  17.8833
    19.4035  19.4113

          k = 0.1250 0.1250 0.0000 ( 13839 PWs)   bands (ev):

   -66.8046 -66.8046 -66.6258 -66.6258 -66.6024 -66.5998 -66.5998 -62.2687
   -35.5744 -35.5744 -35.5235 -35.5235 -35.5235 -35.5235 -35.4031 -35.4031
   -35.3754 -35.3732 -35.3732 -35.3440 -35.3440 -35.3439 -35.3439 -35.3233
   -35.3232 -35.3203 -35.3203 -35.3203 -35.3203 -31.0946 -31.0870 -31.0868
     6.1948   6.3347   6.3507   6.7316   6.7794   7.3390   7.3757   7.8689
     8.2457   8.5195   8.5672   8.6299   8.6472   8.6522   8.6623   8.6639
     8.7052   8.8087   8.8983   8.9130   8.9578   9.0244   9.0664   9.0834
     9.2012   9.2939   9.3035   9.3627   9.4431   9.4726   9.4875   9.4908
     9.6623   9.6823   9.7283   9.8212   9.8236   9.8471   9.8490   9.8711
     9.8865   9.8931   9.9008   9.9061   9.9252   9.9499   9.9874  10.0695
    10.1486  10.1958  10.2867  10.3147  10.3195  10.3836  10.4466  10.4648
    10.4970  10.5157  10.5560  10.5636  10.5813  10.5911  10.6433  10.6474
    10.7562  10.7606  10.8106  11.0167  11.0185  11.0358  11.0517  11.0620
    11.0703  11.1183  11.1373  11.1444  11.2036  11.2039  11.2414  11.2720
    11.2842  11.3328  11.3427  11.3725  11.4411  11.4741  11.5074  11.5801
    11.6019  11.6193  11.6378  11.6760  11.7037  11.7876  11.8038  11.8662
    11.8851  11.9559  11.9565  11.9737  12.0372  12.0650  12.0924  12.0953
    12.1420  12.1830  12.1893  12.2175  12.3025  12.3212  12.4312  12.4514
    12.5225  12.5849  12.6039  12.6970  12.7094  12.7190  12.7254  12.8320
    12.8367  12.8644  12.9190  12.9200  13.1257  13.2857  14.1840  14.4286
    15.5966  15.9434  16.7736  16.8003  16.8582  16.9397  17.0601  18.1076
    18.1783  19.0367  19.1463  19.2003  19.3015  19.4596  19.5172  19.7605
    19.8712  19.9854

          k = 0.1250 0.1250 0.0242 ( 13842 PWs)   bands (ev):

   -66.8046 -66.8046 -66.6258 -66.6258 -66.6024 -66.5998 -66.5998 -62.2687
   -35.5744 -35.5744 -35.5235 -35.5235 -35.5235 -35.5235 -35.4031 -35.4031
   -35.3754 -35.3732 -35.3732 -35.3440 -35.3440 -35.3439 -35.3439 -35.3233
   -35.3232 -35.3203 -35.3203 -35.3203 -35.3203 -31.0946 -31.0870 -31.0868
[...]
    11.8890  11.8891  11.8939  11.9421  12.0217  12.1971  12.2421  12.2524
    12.2982  12.3956  12.4037  12.4381  12.4484  12.7712  12.8063  12.8145
    12.8470  12.9893  12.9936  13.0322  13.1977  13.6271  13.6494  13.6527
    13.7416  13.9396  13.9754  14.0745  14.3730  14.5520  14.6704  14.6864
    14.7809  15.0146  15.0356  15.4179  16.0805  16.8686  16.9269  16.9382
    16.9584  16.9914  16.9977  17.0464  17.0645  17.0714  17.1085  17.1189
    17.1314  17.1545  17.1581  17.4422  17.4513  17.4560  17.4874  17.4992
    17.5034  17.7921  17.8226  18.1047  18.1343  18.1963  18.2100  18.2106
    18.2442  18.2871  18.3148  18.3350  18.5121  18.5546  18.6405  18.6426
    19.9806  20.0768

          k = 0.3750 0.3750 0.0000 ( 13948 PWs)   bands (ev):

   -66.8563 -62.2042 -62.2042 -62.0709 -62.0709 -62.0561 -62.0501 -62.0501
   -35.6265 -35.5822 -35.5822 -31.0360 -31.0360 -31.0358 -31.0358 -31.0267
   -31.0267 -30.9028 -30.9028 -30.9005 -30.9005 -30.9003 -30.9003 -30.8876
   -30.8873 -30.8854 -30.8815 -30.8815 -30.8813 -30.8813 -30.8792 -30.8792
     8.1251   8.4416   8.4754   8.4970   8.7311   8.7335   8.8242   8.8396
     8.9995   9.1286   9.1344   9.2098   9.2802   9.2832   9.2934   9.3342
     9.3478   9.4047   9.4161   9.4180   9.4810   9.5000   9.5284   9.5296
     9.5345   9.5954   9.6072   9.6395   9.7149   9.7384   9.7414   9.9175
     9.9256  10.0171  10.0390  10.0815  10.1208  10.1335  10.2045  10.3307
    10.4196  10.4216  10.4791  10.5326  10.6206  10.6341  10.6460  10.6592
    10.6969  10.7662  10.7933  10.8236  10.9087  10.9586  11.0314  11.0344
    11.1108  11.1435  11.2094  11.2444  11.4239  11.4483  11.4929  11.5162
    11.5545  11.5599  11.5820  11.5955  11.7306  11.8153  11.8291  11.9116
    11.9237  11.9685  11.9743  12.0027  12.0135  12.0819  12.0974  12.1096
    12.1150  12.1886  12.2109  12.2504  12.3599  12.5083  12.6262  12.6279
    12.8500  12.8811  13.0699  13.0984  13.3983  13.6989  13.9228  14.0638
    14.3896  14.5071  14.7739  14.8118  15.0704  15.1629  15.1967  15.2972
    15.3609  15.4431  15.4964  16.2831  16.3901  16.8819  16.9876  16.9920
    17.0233  17.0679  17.0852  17.0987  17.1257  17.1261  17.1559  17.1979
    17.2592  17.3296  17.4620  17.4875  17.6006  17.6233  17.7397  17.7943
    17.8245  17.8732  17.8896  18.1035  18.1991  18.2597  18.3539  18.3831
    18.4234  18.4520  18.4634  18.4874  18.8655  18.9836  19.1473  19.1564
    19.1684  19.2375

          k = 0.3750 0.3750 0.0242 ( 13940 PWs)   bands (ev):

   -66.8563 -62.2042 -62.2042 -62.0709 -62.0709 -62.0561 -62.0501 -62.0501
   -35.6265 -35.5822 -35.5822 -31.0360 -31.0360 -31.0358 -31.0358 -31.0267
   -31.0267 -30.9028 -30.9028 -30.9005 -30.9005 -30.9003 -30.9003 -30.8876
   -30.8873 -30.8854 -30.8815 -30.8815 -30.8813 -30.8813 -30.8792 -30.8792
     8.1252   8.4395   8.4579   8.5333   8.6624   8.7852   8.8267   8.8459
     9.0010   9.1040   9.1513   9.1894   9.2654   9.2803   9.3342   9.3377
     9.3643   9.3972   9.3995   9.4309   9.4850   9.4903   9.5032   9.5231
     9.5652   9.5736   9.6251   9.6512   9.6794   9.7134   9.8048   9.9208
     9.9300   9.9580  10.0541  10.0845  10.1012  10.1889  10.2203  10.2885
    10.3716  10.4590  10.5058  10.5488  10.6133  10.6186  10.6238  10.6739
    10.7005  10.7701  10.7764  10.8473  10.9103  10.9366  11.0265  11.0499
    11.1133  11.1448  11.2100  11.2395  11.4217  11.4525  11.4880  11.5206
    11.5493  11.5641  11.5812  11.5957  11.7370  11.7902  11.8577  11.9117
    11.9236  11.9326  11.9979  12.0095  12.0233  12.0660  12.0778  12.1267
    12.1268  12.1878  12.1976  12.2582  12.3590  12.5139  12.5840  12.6798
    12.8014  12.9273  13.0390  13.1176  13.3945  13.7128  13.8876  14.1069
    14.3379  14.5579  14.7332  14.8341  15.0722  15.1513  15.2128  15.2867
    15.3664  15.4415  15.4967  16.2831  16.3900  16.8896  16.9546  17.0162
    17.0244  17.0638  17.0915  17.0987  17.1230  17.1256  17.1631  17.1835
    17.2886  17.3148  17.4565  17.4767  17.6155  17.6200  17.7355  17.7949
    17.8245  17.8705  17.8956  18.1214  18.1978  18.2716  18.2867  18.3182
    18.3688  18.5324  18.5687  18.5811  18.8127  18.9321  18.9428  19.0323
    19.1632  19.2402

          k = 0.3750 0.3750-0.0484 ( 13950 PWs)   bands (ev):

   -66.8563 -62.2042 -62.2042 -62.0709 -62.0709 -62.0561 -62.0501 -62.0501
   -35.6265 -35.5822 -35.5822 -31.0360 -31.0360 -31.0358 -31.0358 -31.0267
   -31.0267 -30.9028 -30.9028 -30.9005 -30.9005 -30.9003 -30.9003 -30.8876
   -30.8873 -30.8854 -30.8815 -30.8815 -30.8813 -30.8813 -30.8792 -30.8792
     8.1253   8.4359   8.4519   8.5833   8.6029   8.7959   8.8442   8.8456
     9.0023   9.0933   9.1561   9.1634   9.2803   9.3013   9.3047   9.3401
     9.3817   9.3934   9.4267   9.4524   9.4558   9.4620   9.5062   9.5144
     9.5570   9.6215   9.6220   9.6257   9.6719   9.7075   9.8720   9.8723
     9.9362   9.9509  10.0142  10.0835  10.1454  10.1972  10.2470  10.2800
    10.3071  10.4942  10.5169  10.5740  10.5972  10.5979  10.6120  10.6759
    10.7143  10.7490  10.7848  10.8703  10.9116  10.9121  11.0215  11.0618
    11.1155  11.1466  11.2110  11.2338  11.4199  11.4569  11.4832  11.5249
    11.5452  11.5668  11.5803  11.5958  11.7477  11.7717  11.8917  11.8970
    11.9117  11.9236  11.9953  12.0362  12.0410  12.0495  12.0506  12.1332
    12.1428  12.1829  12.1868  12.2640  12.3582  12.5224  12.5627  12.7303
    12.7486  12.9696  13.0024  13.1284  13.3908  13.7304  13.8558  14.1529
    14.2882  14.6104  14.6890  14.8460  15.0741  15.1431  15.2282  15.2741
    15.3713  15.4399  15.4970  16.2831  16.3898  16.9031  16.9310  17.0227
    17.0278  17.0613  17.0966  17.0985  17.1204  17.1252  17.1709  17.1739
    17.3006  17.3201  17.4226  17.4910  17.6068  17.6359  17.7306  17.7955
    17.8245  17.8682  17.9016  18.1481  18.1967  18.2424  18.2769  18.2985
    18.3176  18.6289  18.7055  18.7321  18.7347  18.7481  18.7667  19.0494
    19.1533  19.2419

          k = 0.3750-0.5000 0.0000 ( 13934 PWs)   bands (ev):

   -66.8564 -62.2039 -62.2039 -62.0707 -62.0707 -62.0559 -62.0499 -62.0499
   -35.6264 -35.5838 -35.5821 -31.0381 -31.0381 -31.0357 -31.0357 -31.0266
   -31.0266 -30.9027 -30.9027 -30.9026 -30.9026 -30.9002 -30.9002 -30.8897
   -30.8872 -30.8853 -30.8836 -30.8836 -30.8812 -30.8812 -30.8791 -30.8791
     8.2353   8.2667   8.6089   8.6205   8.6289   8.6585   8.7908   8.8046
     8.9914   9.0481   9.1215   9.1383   9.2271   9.2646   9.2739   9.2884
     9.3069   9.3460   9.3462   9.3758   9.4338   9.4400   9.4895   9.4941
     9.5111   9.5371   9.6713   9.6846   9.7071   9.7151   9.9125   9.9527
     9.9668   9.9804  10.0373  10.0431  10.1763  10.3322  10.3479  10.3563
    10.4065  10.5344  10.5506  10.6276  10.6425  10.6697  10.6975  10.6990
    10.8348  10.8684  10.8964  11.0182  11.0885  11.1550  11.1812  11.2714
    11.2899  11.3313  11.3918  11.4523  11.5627  11.6176  11.6499  11.7042
    11.7154  11.7287  11.7613  11.7816  11.9079  11.9243  11.9477  11.9849
    11.9863  12.0108  12.0110  12.0495  12.0664  12.1384  12.2207  12.2355
    12.2620  12.2642  12.3016  12.3519  12.3701  12.9066  12.9615  13.0425
    13.0646  13.0925  13.1272  13.2101  13.6519  14.1246  14.2140  14.2482
    14.2855  14.3270  14.4401  14.4457  14.5811  14.6085  14.7311  14.7531
    14.8454  14.8512  15.3442  15.6974  16.7446  16.9897  17.0168  17.0237
    17.0373  17.0411  17.0656  17.0779  17.0799  17.0917  17.1036  17.1971
    17.3198  17.3725  17.4352  17.7281  17.8095  17.8312  17.8980  17.9527
    17.9844  18.0384  18.0526  18.1076  18.1484  18.2350  18.2563  18.2606
    18.3724  18.5039  18.7367  18.7569  18.7591  18.7690  18.8900  19.0488
    19.1718  19.4403

          k = 0.3750-0.5000 0.0242 ( 13948 PWs)   bands (ev):

   -66.8564 -62.2039 -62.2039 -62.0707 -62.0707 -62.0559 -62.0499 -62.0499
   -35.6264 -35.5838 -35.5821 -31.0381 -31.0381 -31.0357 -31.0357 -31.0266
   -31.0266 -30.9027 -30.9027 -30.9026 -30.9026 -30.9002 -30.9002 -30.8897
   -30.8872 -30.8853 -30.8836 -30.8836 -30.8812 -30.8812 -30.8791 -30.8791
     8.2353   8.2668   8.5975   8.6026   8.6664   8.6727   8.7767   8.7777
     9.0238   9.0655   9.1224   9.1380   9.1804   9.2319   9.2644   9.3127
     9.3256   9.3424   9.3617   9.3935   9.4290   9.4325   9.4882   9.4996
     9.5078   9.5542   9.6244   9.6528   9.7389   9.7748   9.8731   9.9116
     9.9706   9.9739  10.0724  10.0940  10.1771  10.2739  10.2741  10.4281
    10.4574  10.5375  10.5379  10.6101  10.6372  10.6646  10.7103  10.7154
    10.8106  10.8178  10.9554  11.0257  11.1087  11.1477  11.1645  11.2285
    11.3008  11.3604  11.3997  11.4430  11.5525  11.6244  11.6570  11.6975
    11.7036  11.7450  11.7604  11.7771  11.9111  11.9229  11.9509  11.9795
    11.9814  12.0133  12.0146  12.0489  12.0664  12.1387  12.2186  12.2257
    12.2609  12.2811  12.3132  12.3440  12.3612  12.9163  12.9689  13.0150
    13.0504  13.1171  13.1347  13.2041  13.6516  14.1286  14.2184  14.2250
    14.3146  14.3164  14.4216  14.4647  14.5650  14.6228  14.7385  14.7416
    14.8490  14.8494  15.3443  15.6974  16.7445  16.9911  17.0169  17.0191
    17.0387  17.0439  17.0652  17.0693  17.0720  17.0873  17.1488  17.1828
    17.3032  17.3338  17.5012  17.7028  17.7881  17.8416  17.9304  17.9389
    17.9908  18.0172  18.0751  18.0992  18.1672  18.2177  18.2493  18.2594
    18.3547  18.5064  18.7302  18.7323  18.7911  18.8472  18.8908  19.0215
    19.1129  19.4304

          k = 0.3750-0.5000-0.0484 ( 13940 PWs)   bands (ev):

   -66.8564 -62.2039 -62.2039 -62.0707 -62.0707 -62.0559 -62.0499 -62.0499
   -35.6264 -35.5838 -35.5821 -31.0381 -31.0381 -31.0357 -31.0357 -31.0266
   -31.0266 -30.9027 -30.9027 -30.9026 -30.9026 -30.9002 -30.9002 -30.8897
   -30.8872 -30.8853 -30.8836 -30.8836 -30.8812 -30.8812 -30.8791 -30.8791
     8.2353   8.2668   8.5882   8.5979   8.6881   8.7073   8.7345   8.7622
     9.0712   9.0861   9.1247   9.1251   9.1408   9.1978   9.2641   9.3195
     9.3327   9.3495   9.3728   9.4016   9.4270   9.4406   9.4804   9.4828
     9.5276   9.5830   9.5955   9.6128   9.7927   9.8192   9.8337   9.8521
     9.9717   9.9727  10.1105  10.1524  10.1794  10.2125  10.2264  10.4788
    10.4966  10.5093  10.5422  10.5900  10.6330  10.6574  10.7231  10.7497
    10.7604  10.7995  10.9938  11.0305  11.1253  11.1601  11.1627  11.1637
    11.3091  11.3797  11.4187  11.4230  11.5430  11.6300  11.6727  11.6773
    11.7030  11.7594  11.7598  11.7677  11.9165  11.9194  11.9556  11.9732
    11.9773  12.0151  12.0178  12.0483  12.0663  12.1391  12.2166  12.2196
    12.2602  12.2985  12.3320  12.3331  12.3434  12.9300  12.9788  12.9909
    13.0354  13.1363  13.1406  13.1959  13.6512  14.1333  14.2098  14.2235
    14.3029  14.3472  14.3954  14.4887  14.5431  14.6383  14.7286  14.7455
    14.8465  14.8529  15.3443  15.6974  16.7444  16.9927  17.0159  17.0172
    17.0355  17.0486  17.0613  17.0658  17.0700  17.0919  17.1693  17.2112
    17.2266  17.3463  17.5479  17.6845  17.7506  17.8736  17.9196  17.9565
    17.9957  17.9997  18.0913  18.0929  18.1949  18.2004  18.2257  18.2606
    18.3393  18.5088  18.7277  18.7288  18.8266  18.8807  18.9684  18.9868
    19.0021  19.4231

          k =-0.5000-0.5000 0.0000 ( 13964 PWs)   bands (ev):

   -66.8564 -62.2038 -62.2038 -62.0705 -62.0705 -62.0557 -62.0498 -62.0498
   -35.6263 -35.5836 -35.5836 -31.0378 -31.0378 -31.0378 -31.0378 -31.0265
   -31.0264 -30.9026 -30.9026 -30.9024 -30.9024 -30.9024 -30.9024 -30.8894
   -30.8894 -30.8852 -30.8834 -30.8834 -30.8834 -30.8834 -30.8790 -30.8790
     8.1530   8.1934   8.5591   8.5682   8.5912   8.6091   8.7598   8.7844
     8.9132   8.9737   9.2106   9.2184   9.2184   9.2330   9.2371   9.2383
     9.3237   9.3237   9.3288   9.3288   9.4329   9.4412   9.4614   9.4614
     9.4675   9.4675   9.7110   9.7110   9.7129   9.7129   9.8890   9.8890
     9.9011  10.0401  10.0401  10.0909  10.0909  10.4903  10.4903  10.5047
    10.5454  10.5454  10.5971  10.5971  10.6348  10.6514  10.7103  10.7124
    10.9871  10.9871  11.0819  11.0819  11.1134  11.2281  11.3552  11.4669
    11.4669  11.5893  11.5893  11.8779  11.9328  11.9339  11.9403  11.9403
    11.9678  12.0044  12.0044  12.0067  12.0082  12.0083  12.0410  12.0413
    12.0975  12.0975  12.0989  12.1007  12.1007  12.1017  12.1737  12.2270
    12.2293  12.2360  12.2484  12.2513  12.2821  13.3528  13.3653  13.3999
    13.4104  13.4109  13.4224  13.4268  13.9046  13.9046  14.1224  14.1224
    14.2201  14.2201  14.4776  14.4776  14.6000  14.6000  14.7698  14.7698
    14.8584  14.8584  15.8688  15.8688  16.5735  16.7368  16.7816  16.8557
    16.8688  16.9139  16.9830  17.1269  17.1287  17.1287  17.1811  17.1811
    17.5779  17.5779  17.6807  17.6807  17.7453  17.7575  17.9263  18.0470
    18.0470  18.1395  18.1474  18.1938  18.1938  18.2003  18.2085  18.2085
    18.2179  18.4593  18.4593  18.4698  18.5133  18.5133  18.6580  18.7547
    18.8513  18.8756

          k =-0.5000-0.5000 0.0242 ( 13960 PWs)   bands (ev):

   -66.8564 -62.2038 -62.2038 -62.0705 -62.0705 -62.0557 -62.0498 -62.0498
   -35.6263 -35.5836 -35.5836 -31.0378 -31.0378 -31.0378 -31.0378 -31.0265
   -31.0264 -30.9026 -30.9026 -30.9024 -30.9024 -30.9024 -30.9024 -30.8894
   -30.8894 -30.8852 -30.8834 -30.8834 -30.8834 -30.8834 -30.8790 -30.8790
     8.1531   8.1935   8.5497   8.5517   8.6259   8.6262   8.7406   8.7453
     8.9574   9.0037   9.1396   9.1523   9.2185   9.2185   9.2998   9.3113
     9.3113   9.3119   9.3496   9.3496   9.4195   9.4195   9.4209   9.4259
     9.5164   9.5164   9.6401   9.6401   9.7902   9.7902   9.8889   9.8889
     9.9017   9.9650   9.9650  10.1711  10.1711  10.3971  10.3971  10.5088
    10.5837  10.5964  10.6418  10.6418  10.6470  10.6523  10.7096  10.7100
    10.9001  10.9001  11.1134  11.1642  11.1642  11.2281  11.3552  11.4152
    11.4152  11.6185  11.6185  11.8779  11.9328  11.9339  11.9372  11.9372
    11.9678  12.0044  12.0044  12.0067  12.0082  12.0083  12.0410  12.0413
    12.0975  12.0975  12.0989  12.1007  12.1007  12.1017  12.1736  12.2267
    12.2304  12.2364  12.2471  12.2512  12.2824  13.3529  13.3652  13.3999
    13.4104  13.4111  13.4224  13.4267  13.9110  13.9110  14.0917  14.0917
    14.2607  14.2607  14.4467  14.4467  14.6199  14.6199  14.7631  14.7631
    14.8600  14.8600  15.8688  15.8688  16.5733  16.7443  16.7810  16.8254
    16.8709  16.9508  16.9811  17.1058  17.1058  17.1082  17.2298  17.2298
    17.4700  17.4700  17.7629  17.7935  17.8147  17.8147  17.8912  18.0309
    18.0470  18.0470  18.1659  18.1938  18.1938  18.2076  18.2463  18.2463
    18.3368  18.4589  18.6052  18.7400  18.7400  18.7589  18.8728  18.8779
    18.9921  18.9930

          k =-0.5000-0.5000-0.0484 ( 13992 PWs)   bands (ev):

   -66.8564 -62.2038 -62.2038 -62.0705 -62.0705 -62.0557 -62.0498 -62.0498
   -35.6264 -35.5836 -35.5836 -31.0378 -31.0378 -31.0378 -31.0378 -31.0265
   -31.0265 -30.9026 -30.9026 -30.9024 -30.9024 -30.9024 -30.9024 -30.8894
   -30.8894 -30.8852 -30.8834 -30.8834 -30.8834 -30.8834 -30.8790 -30.8790
     8.1531   8.1935   8.5406   8.5464   8.6457   8.6801   8.6846   8.7184
     9.0153   9.0692   9.0736   9.0762   9.2187   9.2187   9.3063   9.3063
     9.3400   9.3640   9.3756   9.3756   9.3862   9.3862   9.3946   9.4015
     9.5740   9.5740   9.5758   9.5758   9.8736   9.8736   9.8747   9.8747
     9.8905   9.8905   9.9023  10.2566  10.2566  10.3065  10.3065  10.5138
    10.5726  10.5957  10.6533  10.6567  10.7062  10.7097  10.7359  10.7359
    10.8061  10.8061  11.1134  11.2281  11.2379  11.2379  11.3531  11.3531
    11.3552  11.6393  11.6393  11.8779  11.9328  11.9339  11.9339  11.9339
    11.9678  12.0044  12.0044  12.0067  12.0082  12.0083  12.0410  12.0413
    12.0975  12.0975  12.0989  12.1007  12.1007  12.1017  12.1734  12.2264
    12.2318  12.2369  12.2457  12.2510  12.2827  13.3530  13.3650  13.3999
    13.4104  13.4113  13.4224  13.4266  13.9183  13.9183  14.0685  14.0685
    14.3011  14.3011  14.4113  14.4113  14.6370  14.6370  14.7556  14.7556
    14.8615  14.8615  15.8688  15.8688  16.5731  16.7558  16.7803  16.8008
    16.8731  16.9790  16.9841  17.0835  17.0932  17.0932  17.2922  17.2922
    17.3809  17.3809  17.7945  17.8458  17.8638  17.9269  17.9741  17.9741
    18.0470  18.0470  18.0643  18.0643  18.1898  18.1938  18.1938  18.2003
    18.2085  18.2085  18.4460  18.4472  18.5202  18.7632  18.8705  18.9037
    18.9796  18.9933

     the Fermi energy is    15.2373 ev

!    total energy              =  -14694.00808512 Ry
     Harris-Foulkes estimate   =  -14694.00808170 Ry
     estimated scf accuracy    <       0.00000023 Ry

     total all-electron energy =   -626921.603807 Ry

     The total energy is the sum of the following terms:

     one-electron contribution =    -714.67614839 Ry
     hartree contribution      =     656.67844337 Ry
     xc contribution           =    -737.85417634 Ry
     ewald contribution        =   -2196.78933708 Ry
     Hubbard energy            =       0.45932660 Ry
     one-center paw contrib.   =  -11701.82619328 Ry

     total magnetization       =    25.80 Bohr mag/cell
     absolute magnetization    =    37.04 Bohr mag/cell

     convergence has been achieved in  27 iterations

     Writing output data file mnau2.save/
 
     init_run     :     83.93s CPU     85.43s WALL (       1 calls)
     electrons    :   4822.20s CPU   4914.70s WALL (       1 calls)

     Called by init_run:
     wfcinit      :     79.99s CPU     81.33s WALL (       1 calls)
     potinit      :      1.70s CPU      1.76s WALL (       1 calls)
     hinit0       :      1.17s CPU      1.24s WALL (       1 calls)

     Called by electrons:
     c_bands      :   4235.19s CPU   4309.79s WALL (      27 calls)
     sum_band     :    540.26s CPU    554.95s WALL (      27 calls)
     v_of_rho     :      3.46s CPU      3.52s WALL (      28 calls)
     newd         :     14.66s CPU     14.86s WALL (      28 calls)
     PAW_pot      :     28.40s CPU     28.66s WALL (      28 calls)
     mix_rho      :      0.86s CPU      0.95s WALL (      27 calls)

     Called by c_bands:
     init_us_2    :     13.53s CPU     13.66s WALL (    5040 calls)
     cegterg      :   4117.46s CPU   4189.48s WALL (    2430 calls)

     Called by sum_band:
     sum_band:bec :      5.85s CPU      5.89s WALL (    2430 calls)
     addusdens    :     18.20s CPU     18.39s WALL (      27 calls)

     Called by *egterg:
     h_psi        :   1935.53s CPU   1977.87s WALL (    8261 calls)
     s_psi        :    272.40s CPU    272.65s WALL (    8351 calls)
     g_psi        :      2.77s CPU      2.80s WALL (    5741 calls)
     cdiaghg      :   1178.58s CPU   1204.41s WALL (    8171 calls)

     Called by h_psi:
     h_psi:pot    :   1801.22s CPU   1842.70s WALL (    8261 calls)
     h_psi:calbec :    341.19s CPU    352.60s WALL (    8261 calls)
     vloc_psi     :   1192.83s CPU   1222.62s WALL (    8261 calls)
     add_vuspsi   :    267.02s CPU    267.35s WALL (    8261 calls)
     vhpsi        :    130.65s CPU    131.44s WALL (    8261 calls)

     General routines
     calbec       :    604.69s CPU    622.56s WALL (   21472 calls)
     fft          :      2.76s CPU      2.85s WALL (     696 calls)
     ffts         :      0.15s CPU      0.16s WALL (     110 calls)
     fftw         :   1438.88s CPU   1474.59s WALL ( 2303296 calls)
     interpolate  :      0.30s CPU      0.31s WALL (      56 calls)
     davcio       :      0.01s CPU      2.52s WALL (      90 calls)
 
     Parallel routines
     fft_scatt_xy :     53.12s CPU     54.10s WALL ( 2304102 calls)
     fft_scatt_yz :   1134.84s CPU   1164.47s WALL ( 2304102 calls)

     Hubbard U routines
     new_ns       :     22.75s CPU     24.55s WALL (      27 calls)
     vhpsi        :    130.65s CPU    131.44s WALL (    8261 calls)
 
     PWSCF        :     1h22m CPU       22h 1m WALL

      25h
 
   This run was terminated on:   1:57:55   8Apr2019            

=------------------------------------------------------------------------------=
   JOB DONE.
=------------------------------------------------------------------------------=
