
     Program PWSCF v.6.3MaX starts on  8Apr2019 at  1:57:57 

     This program is part of the open-source Quantum ESPRESSO suite
     for quantum simulation of materials; please cite
         "P. Giannozzi et al., J. Phys.:Condens. Matter 21 395502 (2009);
         "P. Giannozzi et al., J. Phys.:Condens. Matter 29 465901 (2017);
          URL http://www.quantum-espresso.org", 
     in publications or presentations arising from this work. More details at
     http://www.quantum-espresso.org/quote

     Parallel version (MPI), running on    32 processors

     MPI processes distributed on     2 nodes
     R & G space division:  proc/nbgrp/npool/nimage =      32
     Waiting for input...
     Reading input from standard input

     Current dimensions of program PWSCF are:
     Max number of different atomic species (ntypx) = 10
     Max number of k-points (npk) =  40000
     Max angular momentum in pseudopotentials (lmaxx) =  3
               file Mn.pbe-spn-kjpaw_psl.0.3.1.UPF: wavefunction(s)  3P 3D renormalized
               file Mn.pbe-spn-kjpaw_psl.0.3.1.UPF: wavefunction(s)  3P 3D renormalized
               file Au.pbe-dn-kjpaw_psl.0.1.UPF: wavefunction(s)  6S 6P 5D renormalized

     Subspace diagonalization in iterative solution of the eigenvalue problem:
     one sub-group per band group will be used
     scalapack distributed-memory algorithm (size of sub-group:  4*  4 procs)

 
     Parallelization info
     --------------------
     sticks:   dense  smooth     PW     G-vecs:    dense   smooth      PW
     Min          41      18      5                11487     3460     563
     Max          42      19      6                11527     3505     606
     Sum        1313     593    177               368373   111379   18691
 


     bravais-lattice index     =            0
     lattice parameter (alat)  =       6.4153  a.u.
     unit-cell volume          =    2724.7774 (a.u.)^3
     number of atoms/cell      =           24
     number of atomic types    =            3
     number of electrons       =       296.00
     number of Kohn-Sham states=          178
     kinetic-energy cutoff     =      45.0000  Ry
     charge density cutoff     =     400.0000  Ry
     convergence threshold     =      1.0E-06
     mixing beta               =       0.1000
     number of iterations used =            8  plain     mixing
     Exchange-correlation      = SLA PW PBX PBC ( 1  4  3  4 0 0)

     celldm(1)=   6.415315  celldm(2)=   0.000000  celldm(3)=   0.000000
     celldm(4)=   0.000000  celldm(5)=   0.000000  celldm(6)=   0.000000

     crystal axes: (cart. coord. in units of alat)
               a(1) = (   1.000000   0.000000   0.000000 )  
               a(2) = (   0.000000   1.000000   0.000000 )  
               a(3) = (   0.000000   0.000000  10.319937 )  

     reciprocal axes: (cart. coord. in units 2 pi/alat)
               b(1) = (  1.000000  0.000000  0.000000 )  
               b(2) = (  0.000000  1.000000  0.000000 )  
               b(3) = (  0.000000  0.000000  0.096900 )  


     PseudoPot. # 1 for Mn read from file:
     ./pseudo/Mn.pbe-spn-kjpaw_psl.0.3.1.UPF
     MD5 check sum: 7b43a3fb0e93e198b8dd8488d8cf503e
     Pseudo is Projector augmented-wave + core cor, Zval = 15.0
     Generated using "atomic" code by A. Dal Corso v.5.0.99 svn rev. 10869
     Shape of augmentation charge: PSQ
     Using radial grid of 1187 points,  6 beta functions with: 
                l(1) =   0
                l(2) =   0
                l(3) =   1
                l(4) =   1
                l(5) =   2
                l(6) =   2
     Q(r) pseudized with 0 coefficients 


     PseudoPot. # 2 for Mn read from file:
     ./pseudo/Mn.pbe-spn-kjpaw_psl.0.3.1.UPF
     MD5 check sum: 7b43a3fb0e93e198b8dd8488d8cf503e
     Pseudo is Projector augmented-wave + core cor, Zval = 15.0
     Generated using "atomic" code by A. Dal Corso v.5.0.99 svn rev. 10869
     Shape of augmentation charge: PSQ
     Using radial grid of 1187 points,  6 beta functions with: 
                l(1) =   0
                l(2) =   0
                l(3) =   1
                l(4) =   1
                l(5) =   2
                l(6) =   2
     Q(r) pseudized with 0 coefficients 


     PseudoPot. # 3 for Au read from file:
     ./pseudo/Au.pbe-dn-kjpaw_psl.0.1.UPF
     MD5 check sum: be11e2e8e535ebe2b3ccfb4f88f554cb
     Pseudo is Projector augmented-wave + core cor, Zval = 11.0
     Generated using "atomic" code by A. Dal Corso v.5.0.2 svn rev. 9415
     Shape of augmentation charge: PSQ
     Using radial grid of 1279 points,  6 beta functions with: 
                l(1) =   0
                l(2) =   0
                l(3) =   1
                l(4) =   1
                l(5) =   2
                l(6) =   2
     Q(r) pseudized with 0 coefficients 


     atomic species   valence    mass     pseudopotential
        Mn1           15.00    54.93800     Mn( 1.00)
        Mn2           15.00    54.93800     Mn( 1.00)
        Au            11.00   196.96600     Au( 1.00)

     Starting magnetic structure 
     atomic species   magnetization
        Mn1          0.800
        Mn2         -0.800
        Au           0.000


     Full LDA+U calculation (l_max = 2) with parameters (eV):
     U(  1) =   3.1200   J(  1) =   0.7000   B(  1) =   0.0803
     U(  2) =   3.1200   J(  2) =   0.7000   B(  2) =   0.0803



      8 Sym. Ops. (no inversion) found



   Cartesian axes

     site n.     atom                  positions (alat units)
         1           Mn1 tau(   1) = (   0.0000000   0.0000000   0.0000000  )
         2           Mn1 tau(   2) = (   0.5000000   0.5000000   1.2899921  )
         3           Mn1 tau(   3) = (   0.0000000   0.0000000   2.5799843  )
         4           Mn1 tau(   4) = (   0.5000000   0.5000000   3.8699764  )
         5           Mn1 tau(   5) = (   0.0000000   0.0000000   5.1599686  )
         6           Mn1 tau(   6) = (   0.5000000   0.5000000   6.4499607  )
         7           Mn2 tau(   7) = (   0.0000000   0.0000000   7.7399528  )
         8           Mn2 tau(   8) = (   0.5000000   0.5000000   9.0299450  )
         9           Au  tau(   9) = (   0.5000000   0.5000000   0.4127975  )
        10           Au  tau(  10) = (   0.0000000   0.0000000   0.8771947  )
        11           Au  tau(  11) = (   0.0000000   0.0000000   1.7027896  )
        12           Au  tau(  12) = (   0.5000000   0.5000000   2.1671868  )
        13           Au  tau(  13) = (   0.5000000   0.5000000   2.9927818  )
        14           Au  tau(  14) = (   0.0000000   0.0000000   3.4571789  )
        15           Au  tau(  15) = (   0.0000000   0.0000000   4.2827739  )
        16           Au  tau(  16) = (   0.5000000   0.5000000   4.7471711  )
        17           Au  tau(  17) = (   0.5000000   0.5000000   5.5727660  )
        18           Au  tau(  18) = (   0.0000000   0.0000000   6.0371632  )
        19           Au  tau(  19) = (   0.0000000   0.0000000   6.8627582  )
        20           Au  tau(  20) = (   0.5000000   0.5000000   7.3271553  )
        21           Au  tau(  21) = (   0.5000000   0.5000000   8.1527503  )
        22           Au  tau(  22) = (   0.0000000   0.0000000   8.6171475  )
        23           Au  tau(  23) = (   0.0000000   0.0000000   9.4427424  )
        24           Au  tau(  24) = (   0.5000000   0.5000000   9.9071396  )

     number of k points=    45 (tetrahedron method)
                       cart. coord. in units 2pi/alat
        k(    1) = (   0.0000000   0.0000000   0.0000000), wk =   0.0039062
        k(    2) = (   0.0000000   0.0000000   0.0242250), wk =   0.0078125
        k(    3) = (   0.0000000   0.0000000  -0.0484499), wk =   0.0039062
        k(    4) = (   0.0000000   0.1250000   0.0000000), wk =   0.0156250
        k(    5) = (   0.0000000   0.1250000   0.0242250), wk =   0.0312500
        k(    6) = (   0.0000000   0.1250000  -0.0484499), wk =   0.0156250
        k(    7) = (   0.0000000   0.2500000   0.0000000), wk =   0.0156250
        k(    8) = (   0.0000000   0.2500000   0.0242250), wk =   0.0312500
        k(    9) = (   0.0000000   0.2500000  -0.0484499), wk =   0.0156250
        k(   10) = (   0.0000000   0.3750000   0.0000000), wk =   0.0156250
        k(   11) = (   0.0000000   0.3750000   0.0242250), wk =   0.0312500
        k(   12) = (   0.0000000   0.3750000  -0.0484499), wk =   0.0156250
        k(   13) = (   0.0000000  -0.5000000   0.0000000), wk =   0.0078125
        k(   14) = (   0.0000000  -0.5000000   0.0242250), wk =   0.0156250
        k(   15) = (   0.0000000  -0.5000000  -0.0484499), wk =   0.0078125
        k(   16) = (   0.1250000   0.1250000   0.0000000), wk =   0.0156250
        k(   17) = (   0.1250000   0.1250000   0.0242250), wk =   0.0312500
        k(   18) = (   0.1250000   0.1250000  -0.0484499), wk =   0.0156250
        k(   19) = (   0.1250000   0.2500000   0.0000000), wk =   0.0312500
        k(   20) = (   0.1250000   0.2500000   0.0242250), wk =   0.0625000
        k(   21) = (   0.1250000   0.2500000  -0.0484499), wk =   0.0312500
        k(   22) = (   0.1250000   0.3750000   0.0000000), wk =   0.0312500
        k(   23) = (   0.1250000   0.3750000   0.0242250), wk =   0.0625000
        k(   24) = (   0.1250000   0.3750000  -0.0484499), wk =   0.0312500
        k(   25) = (   0.1250000  -0.5000000   0.0000000), wk =   0.0156250
        k(   26) = (   0.1250000  -0.5000000   0.0242250), wk =   0.0312500
        k(   27) = (   0.1250000  -0.5000000  -0.0484499), wk =   0.0156250
        k(   28) = (   0.2500000   0.2500000   0.0000000), wk =   0.0156250
        k(   29) = (   0.2500000   0.2500000   0.0242250), wk =   0.0312500
        k(   30) = (   0.2500000   0.2500000  -0.0484499), wk =   0.0156250
        k(   31) = (   0.2500000   0.3750000   0.0000000), wk =   0.0312500
        k(   32) = (   0.2500000   0.3750000   0.0242250), wk =   0.0625000
        k(   33) = (   0.2500000   0.3750000  -0.0484499), wk =   0.0312500
        k(   34) = (   0.2500000  -0.5000000   0.0000000), wk =   0.0156250
        k(   35) = (   0.2500000  -0.5000000   0.0242250), wk =   0.0312500
        k(   36) = (   0.2500000  -0.5000000  -0.0484499), wk =   0.0156250
        k(   37) = (   0.3750000   0.3750000   0.0000000), wk =   0.0156250
        k(   38) = (   0.3750000   0.3750000   0.0242250), wk =   0.0312500
        k(   39) = (   0.3750000   0.3750000  -0.0484499), wk =   0.0156250
        k(   40) = (   0.3750000  -0.5000000   0.0000000), wk =   0.0156250
        k(   41) = (   0.3750000  -0.5000000   0.0242250), wk =   0.0312500
        k(   42) = (   0.3750000  -0.5000000  -0.0484499), wk =   0.0156250
        k(   43) = (  -0.5000000  -0.5000000   0.0000000), wk =   0.0039062
        k(   44) = (  -0.5000000  -0.5000000   0.0242250), wk =   0.0078125
        k(   45) = (  -0.5000000  -0.5000000  -0.0484499), wk =   0.0039062

     Dense  grid:   368373 G-vectors     FFT dimensions: (  45,  45, 432)

     Smooth grid:   111379 G-vectors     FFT dimensions: (  27,  27, 288)

     Estimated max dynamical RAM per process >     186.81 MB

     Estimated total dynamical RAM >       5.84 GB
     Generating pointlists ...
     new r_m :   0.3377 (alat units)  2.1668 (a.u.) for type    1
     new r_m :   0.3377 (alat units)  2.1668 (a.u.) for type    2
     new r_m :   0.3377 (alat units)  2.1668 (a.u.) for type    3

     Check: negative/imaginary core charge=   -0.000006    0.000000

     Initial potential from superposition of free atoms

     starting charge  295.99426, renormalised to  296.00000
     Number of +U iterations with fixed ns =  0
     Starting occupations:
 --- enter write_ns ---
 LDA+U parameters:
U(  1) =   3.1200   J(  1) =   0.7000   B(  1) =   0.0803
U(  2) =   3.1200   J(  2) =   0.7000   B(  2) =   0.0803
atom    1   Tr[ns(na)] (up, down, total) =   5.00000  0.00000  5.00000
   spin  1
    eigenvalues: 
  1.000  1.000  1.000  1.000  1.000
    eigenvectors:
  1.000  0.000  0.000  0.000  0.000
  0.000  1.000  0.000  0.000  0.000
  0.000  0.000  1.000  0.000  0.000
  0.000  0.000  0.000  1.000  0.000
  0.000  0.000  0.000  0.000  1.000
    occupations:
  1.000  0.000  0.000  0.000  0.000
  0.000  1.000  0.000  0.000  0.000
  0.000  0.000  1.000  0.000  0.000
  0.000  0.000  0.000  1.000  0.000
  0.000  0.000  0.000  0.000  1.000
   spin  2
    eigenvalues: 
  0.000  0.000  0.000  0.000  0.000
    eigenvectors:
  1.000  0.000  0.000  0.000  0.000
  0.000  1.000  0.000  0.000  0.000
  0.000  0.000  1.000  0.000  0.000
  0.000  0.000  0.000  1.000  0.000
  0.000  0.000  0.000  0.000  1.000
    occupations:
  0.000  0.000  0.000  0.000  0.000
  0.000  0.000  0.000  0.000  0.000
  0.000  0.000  0.000  0.000  0.000
  0.000  0.000  0.000  0.000  0.000
  0.000  0.000  0.000  0.000  0.000
atomic mag. moment =     5.000000
atom    2   Tr[ns(na)] (up, down, total) =   5.00000  0.00000  5.00000
   spin  1
    eigenvalues: 
  1.000  1.000  1.000  1.000  1.000
    eigenvectors:
  1.000  0.000  0.000  0.000  0.000
  0.000  1.000  0.000  0.000  0.000
  0.000  0.000  1.000  0.000  0.000
  0.000  0.000  0.000  1.000  0.000
  0.000  0.000  0.000  0.000  1.000
    occupations:
  1.000  0.000  0.000  0.000  0.000
  0.000  1.000  0.000  0.000  0.000
  0.000  0.000  1.000  0.000  0.000
  0.000  0.000  0.000  1.000  0.000
  0.000  0.000  0.000  0.000  1.000
   spin  2
    eigenvalues: 
  0.000  0.000  0.000  0.000  0.000
    eigenvectors:
  1.000  0.000  0.000  0.000  0.000
  0.000  1.000  0.000  0.000  0.000
  0.000  0.000  1.000  0.000  0.000
  0.000  0.000  0.000  1.000  0.000
  0.000  0.000  0.000  0.000  1.000
    occupations:
  0.000  0.000  0.000  0.000  0.000
  0.000  0.000  0.000  0.000  0.000
  0.000  0.000  0.000  0.000  0.000
  0.000  0.000  0.000  0.000  0.000
  0.000  0.000  0.000  0.000  0.000
atomic mag. moment =     5.000000
atom    3   Tr[ns(na)] (up, down, total) =   5.00000  0.00000  5.00000
   spin  1
    eigenvalues: 
  1.000  1.000  1.000  1.000  1.000
    eigenvectors:
  1.000  0.000  0.000  0.000  0.000
  0.000  1.000  0.000  0.000  0.000
  0.000  0.000  1.000  0.000  0.000
  0.000  0.000  0.000  1.000  0.000
  0.000  0.000  0.000  0.000  1.000
    occupations:
  1.000  0.000  0.000  0.000  0.000
  0.000  1.000  0.000  0.000  0.000
  0.000  0.000  1.000  0.000  0.000
  0.000  0.000  0.000  1.000  0.000
  0.000  0.000  0.000  0.000  1.000
   spin  2
    eigenvalues: 
  0.000  0.000  0.000  0.000  0.000
    eigenvectors:
  1.000  0.000  0.000  0.000  0.000
  0.000  1.000  0.000  0.000  0.000
  0.000  0.000  1.000  0.000  0.000
  0.000  0.000  0.000  1.000  0.000
  0.000  0.000  0.000  0.000  1.000
    occupations:
  0.000  0.000  0.000  0.000  0.000
  0.000  0.000  0.000  0.000  0.000
  0.000  0.000  0.000  0.000  0.000
  0.000  0.000  0.000  0.000  0.000
  0.000  0.000  0.000  0.000  0.000
atomic mag. moment =     5.000000
atom    4   Tr[ns(na)] (up, down, total) =   5.00000  0.00000  5.00000
   spin  1
    eigenvalues: 
  1.000  1.000  1.000  1.000  1.000
    eigenvectors:
  1.000  0.000  0.000  0.000  0.000
  0.000  1.000  0.000  0.000  0.000
  0.000  0.000  1.000  0.000  0.000
  0.000  0.000  0.000  1.000  0.000
  0.000  0.000  0.000  0.000  1.000
    occupations:
  1.000  0.000  0.000  0.000  0.000
  0.000  1.000  0.000  0.000  0.000
  0.000  0.000  1.000  0.000  0.000
  0.000  0.000  0.000  1.000  0.000
  0.000  0.000  0.000  0.000  1.000
   spin  2
    eigenvalues: 
  0.000  0.000  0.000  0.000  0.000
    eigenvectors:
  1.000  0.000  0.000  0.000  0.000
  0.000  1.000  0.000  0.000  0.000
  0.000  0.000  1.000  0.000  0.000
  0.000  0.000  0.000  1.000  0.000
  0.000  0.000  0.000  0.000  1.000
    occupations:
  0.000  0.000  0.000  0.000  0.000
  0.000  0.000  0.000  0.000  0.000
  0.000  0.000  0.000  0.000  0.000
  0.000  0.000  0.000  0.000  0.000
  0.000  0.000  0.000  0.000  0.000
atomic mag. moment =     5.000000
atom    5   Tr[ns(na)] (up, down, total) =   5.00000  0.00000  5.00000
   spin  1
    eigenvalues: 
  1.000  1.000  1.000  1.000  1.000
    eigenvectors:
  1.000  0.000  0.000  0.000  0.000
  0.000  1.000  0.000  0.000  0.000
  0.000  0.000  1.000  0.000  0.000
  0.000  0.000  0.000  1.000  0.000
  0.000  0.000  0.000  0.000  1.000
    occupations:
  1.000  0.000  0.000  0.000  0.000
  0.000  1.000  0.000  0.000  0.000
  0.000  0.000  1.000  0.000  0.000
  0.000  0.000  0.000  1.000  0.000
  0.000  0.000  0.000  0.000  1.000
   spin  2
    eigenvalues: 
  0.000  0.000  0.000  0.000  0.000
    eigenvectors:
  1.000  0.000  0.000  0.000  0.000
  0.000  1.000  0.000  0.000  0.000
  0.000  0.000  1.000  0.000  0.000
  0.000  0.000  0.000  1.000  0.000
  0.000  0.000  0.000  0.000  1.000
    occupations:
  0.000  0.000  0.000  0.000  0.000
  0.000  0.000  0.000  0.000  0.000
  0.000  0.000  0.000  0.000  0.000
  0.000  0.000  0.000  0.000  0.000
  0.000  0.000  0.000  0.000  0.000
atomic mag. moment =     5.000000
atom    6   Tr[ns(na)] (up, down, total) =   5.00000  0.00000  5.00000
   spin  1
    eigenvalues: 
  1.000  1.000  1.000  1.000  1.000
    eigenvectors:
  1.000  0.000  0.000  0.000  0.000
  0.000  1.000  0.000  0.000  0.000
  0.000  0.000  1.000  0.000  0.000
  0.000  0.000  0.000  1.000  0.000
  0.000  0.000  0.000  0.000  1.000
    occupations:
  1.000  0.000  0.000  0.000  0.000
  0.000  1.000  0.000  0.000  0.000
  0.000  0.000  1.000  0.000  0.000
  0.000  0.000  0.000  1.000  0.000
  0.000  0.000  0.000  0.000  1.000
   spin  2
    eigenvalues: 
  0.000  0.000  0.000  0.000  0.000
    eigenvectors:
  1.000  0.000  0.000  0.000  0.000
  0.000  1.000  0.000  0.000  0.000
  0.000  0.000  1.000  0.000  0.000
  0.000  0.000  0.000  1.000  0.000
  0.000  0.000  0.000  0.000  1.000
    occupations:
  0.000  0.000  0.000  0.000  0.000
  0.000  0.000  0.000  0.000  0.000
  0.000  0.000  0.000  0.000  0.000
  0.000  0.000  0.000  0.000  0.000
  0.000  0.000  0.000  0.000  0.000
atomic mag. moment =     5.000000
atom    7   Tr[ns(na)] (up, down, total) =   0.00000  5.00000  5.00000
   spin  1
    eigenvalues: 
  0.000  0.000  0.000  0.000  0.000
    eigenvectors:
  1.000  0.000  0.000  0.000  0.000
  0.000  1.000  0.000  0.000  0.000
  0.000  0.000  1.000  0.000  0.000
  0.000  0.000  0.000  1.000  0.000
  0.000  0.000  0.000  0.000  1.000
    occupations:
  0.000  0.000  0.000  0.000  0.000
  0.000  0.000  0.000  0.000  0.000
  0.000  0.000  0.000  0.000  0.000
  0.000  0.000  0.000  0.000  0.000
  0.000  0.000  0.000  0.000  0.000
   spin  2
    eigenvalues: 
  1.000  1.000  1.000  1.000  1.000
    eigenvectors:
  1.000  0.000  0.000  0.000  0.000
  0.000  1.000  0.000  0.000  0.000
  0.000  0.000  1.000  0.000  0.000
  0.000  0.000  0.000  1.000  0.000
  0.000  0.000  0.000  0.000  1.000
    occupations:
  1.000  0.000  0.000  0.000  0.000
  0.000  1.000  0.000  0.000  0.000
  0.000  0.000  1.000  0.000  0.000
  0.000  0.000  0.000  1.000  0.000
  0.000  0.000  0.000  0.000  1.000
atomic mag. moment =    -5.000000
atom    8   Tr[ns(na)] (up, down, total) =   0.00000  5.00000  5.00000
   spin  1
    eigenvalues: 
  0.000  0.000  0.000  0.000  0.000
    eigenvectors:
  1.000  0.000  0.000  0.000  0.000
  0.000  1.000  0.000  0.000  0.000
  0.000  0.000  1.000  0.000  0.000
  0.000  0.000  0.000  1.000  0.000
  0.000  0.000  0.000  0.000  1.000
    occupations:
  0.000  0.000  0.000  0.000  0.000
  0.000  0.000  0.000  0.000  0.000
  0.000  0.000  0.000  0.000  0.000
  0.000  0.000  0.000  0.000  0.000
  0.000  0.000  0.000  0.000  0.000
   spin  2
    eigenvalues: 
  1.000  1.000  1.000  1.000  1.000
    eigenvectors:
  1.000  0.000  0.000  0.000  0.000
  0.000  1.000  0.000  0.000  0.000
  0.000  0.000  1.000  0.000  0.000
  0.000  0.000  0.000  1.000  0.000
  0.000  0.000  0.000  0.000  1.000
    occupations:
  1.000  0.000  0.000  0.000  0.000
  0.000  1.000  0.000  0.000  0.000
  0.000  0.000  1.000  0.000  0.000
  0.000  0.000  0.000  1.000  0.000
  0.000  0.000  0.000  0.000  1.000
atomic mag. moment =    -5.000000
N of occupied +U levels =   40.000000
 --- exit write_ns ---
 Atomic wfc used for LDA+U Projector are NOT orthogonalized
     Starting wfcs are  224 randomized atomic wfcs
     Checking if some PAW data can be deallocated... 

     total cpu time spent up to now is       94.3 secs

     Self-consistent Calculation

     iteration #  1     ecut=    45.00 Ry     beta= 0.10
     Davidson diagonalization with overlap
     ethr =  1.00E-02,  avg # of iterations =  3.7
 --- enter write_ns ---
 LDA+U parameters:
U(  1) =   3.1200   J(  1) =   0.7000   B(  1) =   0.0803
U(  2) =   3.1200   J(  2) =   0.7000   B(  2) =   0.0803
atom    1   Tr[ns(na)] (up, down, total) =   5.01738  0.40955  5.42693
   spin  1
    eigenvalues: 
  1.003  1.003  1.003  1.004  1.004
    eigenvectors:
  0.000  0.000  0.000  1.000  0.000
  0.000  0.359  0.641  0.000  0.000
  0.000  0.641  0.359  0.000  0.000
  0.000  0.000  0.000  0.000  1.000
  1.000  0.000  0.000  0.000  0.000
    occupations:
  1.004 -0.000 -0.000  0.000  0.000
 -0.000  1.003 -0.000  0.000  0.000
 -0.000 -0.000  1.003  0.000  0.000
  0.000  0.000  0.000  1.004 -0.000
  0.000  0.000  0.000 -0.000  1.003
   spin  2
    eigenvalues: 
  0.052  0.074  0.081  0.081  0.121
    eigenvectors:
  0.000  1.000  0.000  0.000  0.000
  0.000  0.000  0.425  0.575  0.000
  0.000  0.000  0.575  0.425  0.000
  1.000  0.000  0.000  0.000  0.000
  0.000  0.000  0.000  0.000  1.000
    occupations:
  0.074 -0.000 -0.000  0.000  0.000
 -0.000  0.081 -0.000  0.000  0.000
 -0.000 -0.000  0.081  0.000  0.000
  0.000  0.000  0.000  0.052 -0.000
  0.000  0.000  0.000 -0.000  0.121
atomic mag. moment =     4.607833
atom    2   Tr[ns(na)] (up, down, total) =   5.01758  0.40181  5.41939
   spin  1
    eigenvalues: 
  1.003  1.003  1.003  1.004  1.004
    eigenvectors:
  0.000  0.000  0.000  1.000  0.000
  0.000  0.334  0.666  0.000  0.000
  0.000  0.666  0.334  0.000  0.000
  0.000  0.000  0.000  0.000  1.000
  1.000  0.000  0.000  0.000  0.000
    occupations:
  1.004 -0.000 -0.000  0.000  0.000
 -0.000  1.003 -0.000  0.000  0.000
 -0.000 -0.000  1.003  0.000  0.000
  0.000  0.000  0.000  1.004 -0.000
  0.000  0.000  0.000 -0.000  1.003
   spin  2
    eigenvalues: 
  0.053  0.074  0.081  0.081  0.113
    eigenvectors:
  0.000  1.000  0.000  0.000  0.000
  0.000  0.000  0.421  0.579  0.000
  0.000  0.000  0.579  0.421  0.000
  1.000  0.000  0.000  0.000  0.000
  0.000  0.000  0.000  0.000  1.000
    occupations:
  0.074 -0.000 -0.000  0.000  0.000
 -0.000  0.081 -0.000  0.000  0.000
 -0.000 -0.000  0.081  0.000  0.000
  0.000  0.000  0.000  0.053 -0.000
  0.000  0.000  0.000 -0.000  0.113
atomic mag. moment =     4.615768
atom    3   Tr[ns(na)] (up, down, total) =   5.01752  0.40143  5.41894
   spin  1
    eigenvalues: 
  1.003  1.003  1.003  1.004  1.004
    eigenvectors:
  0.000  0.000  0.000  1.000  0.000
  0.000  0.298  0.702  0.000  0.000
  0.000  0.702  0.298  0.000  0.000
  0.000  0.000  0.000  0.000  1.000
  1.000  0.000  0.000  0.000  0.000
    occupations:
  1.004 -0.000 -0.000  0.000  0.000
 -0.000  1.003 -0.000  0.000  0.000
 -0.000 -0.000  1.003  0.000  0.000
  0.000  0.000  0.000  1.004 -0.000
  0.000  0.000  0.000 -0.000  1.003
   spin  2
    eigenvalues: 
  0.053  0.072  0.081  0.081  0.115
    eigenvectors:
  0.000  1.000  0.000  0.000  0.000
  0.000  0.000  0.375  0.625  0.000
  0.000  0.000  0.625  0.375  0.000
  1.000  0.000  0.000  0.000  0.000
  0.000  0.000  0.000  0.000  1.000
    occupations:
  0.072 -0.000 -0.000  0.000  0.000
 -0.000  0.081 -0.000  0.000  0.000
 -0.000 -0.000  0.081  0.000  0.000
  0.000  0.000  0.000  0.053 -0.000
  0.000  0.000  0.000 -0.000  0.115
atomic mag. moment =     4.616090
atom    4   Tr[ns(na)] (up, down, total) =   5.01740  0.40080  5.41820
   spin  1
    eigenvalues: 
  1.003  1.003  1.003  1.004  1.004
    eigenvectors:
  0.000  0.000  0.000  1.000  0.000
  0.000  0.303  0.697  0.000  0.000
  0.000  0.697  0.303  0.000  0.000
  0.000  0.000  0.000  0.000  1.000
  1.000  0.000  0.000  0.000  0.000
    occupations:
  1.004 -0.000 -0.000  0.000  0.000
 -0.000  1.003 -0.000  0.000  0.000
 -0.000 -0.000  1.003  0.000  0.000
  0.000  0.000  0.000  1.004 -0.000
  0.000  0.000  0.000 -0.000  1.003
   spin  2
    eigenvalues: 
  0.053  0.072  0.081  0.081  0.115
    eigenvectors:
  0.000  1.000  0.000  0.000  0.000
  0.000  0.000  0.379  0.621  0.000
  0.000  0.000  0.621  0.379  0.000
  1.000  0.000  0.000  0.000  0.000
  0.000  0.000  0.000  0.000  1.000
    occupations:
  0.072 -0.000 -0.000  0.000  0.000
 -0.000  0.081 -0.000  0.000  0.000
 -0.000 -0.000  0.081  0.000  0.000
  0.000  0.000  0.000  0.053 -0.000
  0.000  0.000  0.000 -0.000  0.115
atomic mag. moment =     4.616597
atom    5   Tr[ns(na)] (up, down, total) =   5.01756  0.40209  5.41966
   spin  1
    eigenvalues: 
  1.003  1.003  1.003  1.004  1.004
    eigenvectors:
  0.000  0.000  0.000  1.000  0.000
  0.000  0.321  0.679  0.000  0.000
  0.000  0.679  0.321  0.000  0.000
  0.000  0.000  0.000  0.000  1.000
  1.000  0.000  0.000  0.000  0.000
    occupations:
  1.004 -0.000 -0.000  0.000  0.000
 -0.000  1.003 -0.000  0.000  0.000
 -0.000 -0.000  1.003  0.000  0.000
  0.000  0.000  0.000  1.004 -0.000
  0.000  0.000  0.000 -0.000  1.003
   spin  2
    eigenvalues: 
  0.053  0.074  0.081  0.081  0.113
    eigenvectors:
  0.000  1.000  0.000  0.000  0.000
  0.000  0.000  0.328  0.672  0.000
  0.000  0.000  0.672  0.328  0.000
  1.000  0.000  0.000  0.000  0.000
  0.000  0.000  0.000  0.000  1.000
    occupations:
  0.074 -0.000 -0.000  0.000  0.000
 -0.000  0.081 -0.000  0.000  0.000
 -0.000 -0.000  0.081  0.000  0.000
  0.000  0.000  0.000  0.053 -0.000
  0.000  0.000  0.000 -0.000  0.113
atomic mag. moment =     4.615474
atom    6   Tr[ns(na)] (up, down, total) =   5.01753  0.40936  5.42689
   spin  1
    eigenvalues: 
  1.003  1.003  1.003  1.004  1.004
    eigenvectors:
  0.000  0.000  0.000  1.000  0.000
  0.000  0.347  0.653  0.000  0.000
  0.000  0.653  0.347  0.000  0.000
  0.000  0.000  0.000  0.000  1.000
  1.000  0.000  0.000  0.000  0.000
    occupations:
  1.004 -0.000 -0.000  0.000  0.000
 -0.000  1.003 -0.000  0.000  0.000
 -0.000 -0.000  1.003  0.000  0.000
  0.000  0.000  0.000  1.004 -0.000
  0.000  0.000  0.000 -0.000  1.003
   spin  2
    eigenvalues: 
  0.053  0.073  0.081  0.081  0.121
    eigenvectors:
  0.000  1.000  0.000  0.000  0.000
  0.000  0.000  0.371  0.629  0.000
  0.000  0.000  0.629  0.371  0.000
  1.000  0.000  0.000  0.000  0.000
  0.000  0.000  0.000  0.000  1.000
    occupations:
  0.073 -0.000 -0.000  0.000  0.000
 -0.000  0.081 -0.000  0.000  0.000
 -0.000 -0.000  0.081  0.000  0.000
  0.000  0.000  0.000  0.053 -0.000
  0.000  0.000  0.000 -0.000  0.121
atomic mag. moment =     4.608171
atom    7   Tr[ns(na)] (up, down, total) =   0.41455  5.01760  5.43215
   spin  1
    eigenvalues: 
  0.054  0.075  0.082  0.082  0.121
    eigenvectors:
  0.000  1.000  0.000  0.000  0.000
  0.000  0.000  0.320  0.680  0.000
  0.000  0.000  0.680  0.320  0.000
  1.000  0.000  0.000  0.000  0.000
  0.000  0.000  0.000  0.000  1.000
    occupations:
  0.075 -0.000 -0.000  0.000  0.000
 -0.000  0.082 -0.000  0.000  0.000
 -0.000 -0.000  0.082  0.000  0.000
  0.000  0.000  0.000  0.054 -0.000
  0.000  0.000  0.000 -0.000  0.121
   spin  2
    eigenvalues: 
  1.003  1.003  1.003  1.004  1.004
    eigenvectors:
  0.000  0.000  0.000  1.000  0.000
  0.000  0.270  0.730  0.000  0.000
  0.000  0.730  0.270  0.000  0.000
  0.000  0.000  0.000  0.000  1.000
  1.000  0.000  0.000  0.000  0.000
    occupations:
  1.004 -0.000 -0.000  0.000  0.000
 -0.000  1.003 -0.000  0.000  0.000
 -0.000 -0.000  1.003  0.000  0.000
  0.000  0.000  0.000  1.004 -0.000
  0.000  0.000  0.000 -0.000  1.003
atomic mag. moment =    -4.603051
atom    8   Tr[ns(na)] (up, down, total) =   0.41484  5.01753  5.43237
   spin  1
    eigenvalues: 
  0.054  0.075  0.083  0.083  0.121
    eigenvectors:
  0.000  1.000  0.000  0.000  0.000
  0.000  0.000  0.322  0.678  0.000
  0.000  0.000  0.678  0.322  0.000
  1.000  0.000  0.000  0.000  0.000
  0.000  0.000  0.000  0.000  1.000
    occupations:
  0.075 -0.000 -0.000  0.000  0.000
 -0.000  0.083 -0.000  0.000  0.000
 -0.000 -0.000  0.083  0.000  0.000
  0.000  0.000  0.000  0.054 -0.000
  0.000  0.000  0.000 -0.000  0.121
   spin  2
    eigenvalues: 
  1.003  1.003  1.003  1.004  1.004
    eigenvectors:
  0.000  0.000  0.000  1.000  0.000
  0.000  0.314  0.686  0.000  0.000
  0.000  0.686  0.314  0.000  0.000
  0.000  0.000  0.000  0.000  1.000
  1.000  0.000  0.000  0.000  0.000
    occupations:
  1.004 -0.000 -0.000  0.000  0.000
 -0.000  1.003 -0.000  0.000  0.000
 -0.000 -0.000  1.003  0.000  0.000
  0.000  0.000  0.000  1.004 -0.000
  0.000  0.000  0.000 -0.000  1.003
atomic mag. moment =    -4.602696
N of occupied +U levels =   43.394526
 --- exit write_ns ---

     total cpu time spent up to now is      328.8 secs

     total energy              =  -14687.26951988 Ry
     Harris-Foulkes estimate   =  -14685.80870233 Ry
     estimated scf accuracy    <      11.55116412 Ry

     total magnetization       =    20.25 Bohr mag/cell
     absolute magnetization    =    41.52 Bohr mag/cell

     iteration #  2     ecut=    45.00 Ry     beta= 0.10
     Davidson diagonalization with overlap
     ethr =  3.90E-03,  avg # of iterations =  1.0

     total cpu time spent up to now is      478.2 secs

     total energy              =  -14688.18236899 Ry
     Harris-Foulkes estimate   =  -14687.35321742 Ry
     estimated scf accuracy    <      10.45017370 Ry

     total magnetization       =    19.85 Bohr mag/cell
     absolute magnetization    =    41.18 Bohr mag/cell

     iteration #  3     ecut=    45.00 Ry     beta= 0.10
     Davidson diagonalization with overlap
     ethr =  3.53E-03,  avg # of iterations =  3.0

     total cpu time spent up to now is      667.7 secs

     total energy              =  -14692.36099080 Ry
     Harris-Foulkes estimate   =  -14689.05491575 Ry
     estimated scf accuracy    <      72.99364102 Ry

     total magnetization       =    19.69 Bohr mag/cell
     absolute magnetization    =    40.94 Bohr mag/cell

     iteration #  4     ecut=    45.00 Ry     beta= 0.10
     Davidson diagonalization with overlap
     ethr =  3.53E-03,  avg # of iterations =  2.2

     total cpu time spent up to now is      850.0 secs

     total energy              =  -14694.01209853 Ry
     Harris-Foulkes estimate   =  -14694.13410230 Ry
     estimated scf accuracy    <       5.51632849 Ry

     total magnetization       =    18.69 Bohr mag/cell
     absolute magnetization    =    38.49 Bohr mag/cell

     iteration #  5     ecut=    45.00 Ry     beta= 0.10
     Davidson diagonalization with overlap
     ethr =  1.86E-03,  avg # of iterations =  1.4

     total cpu time spent up to now is     1004.7 secs

     total energy              =  -14694.03777868 Ry
     Harris-Foulkes estimate   =  -14694.04518184 Ry
     estimated scf accuracy    <       4.25352673 Ry

     total magnetization       =    18.73 Bohr mag/cell
     absolute magnetization    =    38.54 Bohr mag/cell

     iteration #  6     ecut=    45.00 Ry     beta= 0.10
     Davidson diagonalization with overlap
     ethr =  1.44E-03,  avg # of iterations =  1.1

     total cpu time spent up to now is     1153.3 secs

     total energy              =  -14695.94694362 Ry
     Harris-Foulkes estimate   =  -14694.04182924 Ry
     estimated scf accuracy    <       4.23625517 Ry

     total magnetization       =    18.74 Bohr mag/cell
     absolute magnetization    =    38.53 Bohr mag/cell

     iteration #  7     ecut=    45.00 Ry     beta= 0.10
     Davidson diagonalization with overlap
     ethr =  1.43E-03,  avg # of iterations =  3.3

     total cpu time spent up to now is     1358.1 secs

     total energy              =  -14692.95070256 Ry
     Harris-Foulkes estimate   =  -14696.66940159 Ry
     estimated scf accuracy    <      21.27462617 Ry

     total magnetization       =    16.78 Bohr mag/cell
     absolute magnetization    =    35.60 Bohr mag/cell

     iteration #  8     ecut=    45.00 Ry     beta= 0.10
     Davidson diagonalization with overlap
     ethr =  1.43E-03,  avg # of iterations =  4.6

     total cpu time spent up to now is     1626.7 secs

     total energy              =  -14693.63657246 Ry
     Harris-Foulkes estimate   =  -14694.14178886 Ry
     estimated scf accuracy    <       2.77948417 Ry

     total magnetization       =    18.30 Bohr mag/cell
     absolute magnetization    =    38.00 Bohr mag/cell

     iteration #  9     ecut=    45.00 Ry     beta= 0.10
     Davidson diagonalization with overlap
     ethr =  9.39E-04,  avg # of iterations =  4.0

     total cpu time spent up to now is     1847.5 secs

     total energy              =  -14694.01295117 Ry
     Harris-Foulkes estimate   =  -14693.99455178 Ry
     estimated scf accuracy    <       0.58399251 Ry

     total magnetization       =    17.58 Bohr mag/cell
     absolute magnetization    =    37.23 Bohr mag/cell

     iteration # 10     ecut=    45.00 Ry     beta= 0.10
     Davidson diagonalization with overlap
     ethr =  1.97E-04,  avg # of iterations =  3.3

     total cpu time spent up to now is     2044.7 secs

     total energy              =  -14693.95256683 Ry
     Harris-Foulkes estimate   =  -14694.03037693 Ry
     estimated scf accuracy    <       0.50687212 Ry

     total magnetization       =    17.44 Bohr mag/cell
     absolute magnetization    =    37.06 Bohr mag/cell

     iteration # 11     ecut=    45.00 Ry     beta= 0.10
     Davidson diagonalization with overlap
     ethr =  1.71E-04,  avg # of iterations =  1.8

     total cpu time spent up to now is     2207.2 secs

     total energy              =  -14693.99289128 Ry
     Harris-Foulkes estimate   =  -14693.99299175 Ry
     estimated scf accuracy    <       0.05062260 Ry

     total magnetization       =    17.53 Bohr mag/cell
     absolute magnetization    =    37.25 Bohr mag/cell

     iteration # 12     ecut=    45.00 Ry     beta= 0.10
     Davidson diagonalization with overlap
     ethr =  1.71E-05,  avg # of iterations =  4.1

     total cpu time spent up to now is     2424.1 secs

     total energy              =  -14693.99682846 Ry
     Harris-Foulkes estimate   =  -14693.99637431 Ry
     estimated scf accuracy    <       0.04317557 Ry

     total magnetization       =    17.36 Bohr mag/cell
     absolute magnetization    =    37.18 Bohr mag/cell

     iteration # 13     ecut=    45.00 Ry     beta= 0.10
     Davidson diagonalization with overlap
     ethr =  1.46E-05,  avg # of iterations =  3.3

     total cpu time spent up to now is     2620.4 secs

     total energy              =  -14694.00057532 Ry
     Harris-Foulkes estimate   =  -14694.00029476 Ry
     estimated scf accuracy    <       0.04732523 Ry

     total magnetization       =    17.46 Bohr mag/cell
     absolute magnetization    =    37.26 Bohr mag/cell

     iteration # 14     ecut=    45.00 Ry     beta= 0.10
     Davidson diagonalization with overlap
     ethr =  1.46E-05,  avg # of iterations =  1.3

     total cpu time spent up to now is     2772.7 secs

     total energy              =  -14694.00482993 Ry
     Harris-Foulkes estimate   =  -14694.00312161 Ry
     estimated scf accuracy    <       0.03024000 Ry

     total magnetization       =    17.25 Bohr mag/cell
     absolute magnetization    =    37.15 Bohr mag/cell

     iteration # 15     ecut=    45.00 Ry     beta= 0.10
     Davidson diagonalization with overlap
     ethr =  1.02E-05,  avg # of iterations =  1.2

     total cpu time spent up to now is     2923.8 secs

     total energy              =  -14694.00721500 Ry
     Harris-Foulkes estimate   =  -14694.00547047 Ry
     estimated scf accuracy    <       0.04084018 Ry

     total magnetization       =    17.22 Bohr mag/cell
     absolute magnetization    =    37.13 Bohr mag/cell

     iteration # 16     ecut=    45.00 Ry     beta= 0.10
     Davidson diagonalization with overlap
     ethr =  1.02E-05,  avg # of iterations =  1.1

     total cpu time spent up to now is     3073.6 secs

     total energy              =  -14694.00851069 Ry
     Harris-Foulkes estimate   =  -14694.00802536 Ry
     estimated scf accuracy    <       0.00253947 Ry

     total magnetization       =    17.20 Bohr mag/cell
     absolute magnetization    =    37.11 Bohr mag/cell

     iteration # 17     ecut=    45.00 Ry     beta= 0.10
     Davidson diagonalization with overlap
     ethr =  8.58E-07,  avg # of iterations =  3.7

     total cpu time spent up to now is     3280.8 secs

     total energy              =  -14694.00893345 Ry
     Harris-Foulkes estimate   =  -14694.00855841 Ry
     estimated scf accuracy    <       0.00132374 Ry

     total magnetization       =    17.15 Bohr mag/cell
     absolute magnetization    =    37.07 Bohr mag/cell

     iteration # 18     ecut=    45.00 Ry     beta= 0.10
     Davidson diagonalization with overlap
     ethr =  4.47E-07,  avg # of iterations =  1.9

     total cpu time spent up to now is     3446.0 secs

     total energy              =  -14694.00917300 Ry
     Harris-Foulkes estimate   =  -14694.00889331 Ry
     estimated scf accuracy    <       0.00148627 Ry

     total magnetization       =    17.12 Bohr mag/cell
     absolute magnetization    =    37.05 Bohr mag/cell

     iteration # 19     ecut=    45.00 Ry     beta= 0.10
     Davidson diagonalization with overlap
     ethr =  4.47E-07,  avg # of iterations =  1.6

     total cpu time spent up to now is     3605.5 secs

     total energy              =  -14694.00923994 Ry
     Harris-Foulkes estimate   =  -14694.00916849 Ry
     estimated scf accuracy    <       0.00131300 Ry

     total magnetization       =    17.09 Bohr mag/cell
     absolute magnetization    =    37.04 Bohr mag/cell

     iteration # 20     ecut=    45.00 Ry     beta= 0.10
     Davidson diagonalization with overlap
     ethr =  4.44E-07,  avg # of iterations =  1.2

     total cpu time spent up to now is     3757.1 secs

     total energy              =  -14694.00951231 Ry
     Harris-Foulkes estimate   =  -14694.00929468 Ry
     estimated scf accuracy    <       0.00059284 Ry

     total magnetization       =    17.09 Bohr mag/cell
     absolute magnetization    =    37.04 Bohr mag/cell

     iteration # 21     ecut=    45.00 Ry     beta= 0.10
     Davidson diagonalization with overlap
     ethr =  2.00E-07,  avg # of iterations =  1.2

     total cpu time spent up to now is     3908.7 secs

     total energy              =  -14694.00952103 Ry
     Harris-Foulkes estimate   =  -14694.00948396 Ry
     estimated scf accuracy    <       0.00039614 Ry

     total magnetization       =    17.07 Bohr mag/cell
     absolute magnetization    =    37.05 Bohr mag/cell

     iteration # 22     ecut=    45.00 Ry     beta= 0.10
     Davidson diagonalization with overlap
     ethr =  1.34E-07,  avg # of iterations =  1.1

     total cpu time spent up to now is     4058.4 secs

     total energy              =  -14694.00954557 Ry
     Harris-Foulkes estimate   =  -14694.00953027 Ry
     estimated scf accuracy    <       0.00006313 Ry

     total magnetization       =    17.07 Bohr mag/cell
     absolute magnetization    =    37.05 Bohr mag/cell

     iteration # 23     ecut=    45.00 Ry     beta= 0.10
     Davidson diagonalization with overlap
     ethr =  2.13E-08,  avg # of iterations =  3.0

     total cpu time spent up to now is     4251.0 secs

     total energy              =  -14694.00955922 Ry
     Harris-Foulkes estimate   =  -14694.00953828 Ry
     estimated scf accuracy    <       0.00003536 Ry

     total magnetization       =    17.07 Bohr mag/cell
     absolute magnetization    =    37.06 Bohr mag/cell

     iteration # 24     ecut=    45.00 Ry     beta= 0.10
     Davidson diagonalization with overlap
     ethr =  1.19E-08,  avg # of iterations =  2.1

     total cpu time spent up to now is     4422.9 secs

     total energy              =  -14694.00954723 Ry
     Harris-Foulkes estimate   =  -14694.00953786 Ry
     estimated scf accuracy    <       0.00004899 Ry

     total magnetization       =    17.06 Bohr mag/cell
     absolute magnetization    =    37.05 Bohr mag/cell

     iteration # 25     ecut=    45.00 Ry     beta= 0.10
     Davidson diagonalization with overlap
     ethr =  1.19E-08,  avg # of iterations =  1.4

     total cpu time spent up to now is     4578.0 secs

     total energy              =  -14694.00954140 Ry
     Harris-Foulkes estimate   =  -14694.00953941 Ry
     estimated scf accuracy    <       0.00009046 Ry

     total magnetization       =    17.06 Bohr mag/cell
     absolute magnetization    =    37.05 Bohr mag/cell

     iteration # 26     ecut=    45.00 Ry     beta= 0.10
     Davidson diagonalization with overlap
     ethr =  1.19E-08,  avg # of iterations =  1.1

     total cpu time spent up to now is     4726.0 secs

     total energy              =  -14694.00953159 Ry
     Harris-Foulkes estimate   =  -14694.00952845 Ry
     estimated scf accuracy    <       0.00001239 Ry

     total magnetization       =    17.05 Bohr mag/cell
     absolute magnetization    =    37.05 Bohr mag/cell

     iteration # 27     ecut=    45.00 Ry     beta= 0.10
     Davidson diagonalization with overlap
     ethr =  4.19E-09,  avg # of iterations =  1.7

     total cpu time spent up to now is     4887.3 secs

     total energy              =  -14694.00952728 Ry
     Harris-Foulkes estimate   =  -14694.00952581 Ry
     estimated scf accuracy    <       0.00000788 Ry

     total magnetization       =    17.05 Bohr mag/cell
     absolute magnetization    =    37.05 Bohr mag/cell

     iteration # 28     ecut=    45.00 Ry     beta= 0.10
     Davidson diagonalization with overlap
     ethr =  2.66E-09,  avg # of iterations =  1.1

     total cpu time spent up to now is     5037.4 secs

     total energy              =  -14694.00952240 Ry
     Harris-Foulkes estimate   =  -14694.00952138 Ry
     estimated scf accuracy    <       0.00000437 Ry

     total magnetization       =    17.05 Bohr mag/cell
     absolute magnetization    =    37.05 Bohr mag/cell

     iteration # 29     ecut=    45.00 Ry     beta= 0.10
     Davidson diagonalization with overlap
     ethr =  1.48E-09,  avg # of iterations =  1.5

     total cpu time spent up to now is     5194.1 secs

     total energy              =  -14694.00952063 Ry
     Harris-Foulkes estimate   =  -14694.00952005 Ry
     estimated scf accuracy    <       0.00000238 Ry

     total magnetization       =    17.05 Bohr mag/cell
     absolute magnetization    =    37.05 Bohr mag/cell

     iteration # 30     ecut=    45.00 Ry     beta= 0.10
     Davidson diagonalization with overlap
     ethr =  8.04E-10,  avg # of iterations =  1.5

     total cpu time spent up to now is     5351.5 secs

     total energy              =  -14694.00952095 Ry
     Harris-Foulkes estimate   =  -14694.00952043 Ry
     estimated scf accuracy    <       0.00000173 Ry

     total magnetization       =    17.05 Bohr mag/cell
     absolute magnetization    =    37.05 Bohr mag/cell

     iteration # 31     ecut=    45.00 Ry     beta= 0.10
     Davidson diagonalization with overlap
     ethr =  5.84E-10,  avg # of iterations =  1.8

     total cpu time spent up to now is     5515.7 secs

     total energy              =  -14694.00951923 Ry
     Harris-Foulkes estimate   =  -14694.00951873 Ry
     estimated scf accuracy    <       0.00000140 Ry

     total magnetization       =    17.05 Bohr mag/cell
     absolute magnetization    =    37.05 Bohr mag/cell

     iteration # 32     ecut=    45.00 Ry     beta= 0.10
     Davidson diagonalization with overlap
     ethr =  4.72E-10,  avg # of iterations =  1.5
 
     Magnetic moment per site:
     atom:    1    charge:   13.5494    magn:    4.2246    constr:    0.0000
     atom:    2    charge:   13.5539    magn:    4.1939    constr:    0.0000
     atom:    3    charge:   13.5545    magn:    4.1918    constr:    0.0000
     atom:    4    charge:   13.5546    magn:    4.1917    constr:    0.0000
     atom:    5    charge:   13.5537    magn:    4.1939    constr:    0.0000
     atom:    6    charge:   13.5495    magn:    4.2246    constr:    0.0000
     atom:    7    charge:   13.5481    magn:   -4.2361    constr:    0.0000
     atom:    8    charge:   13.5482    magn:   -4.2360    constr:    0.0000
     atom:    9    charge:    9.1220    magn:    0.0296    constr:    0.0000
     atom:   10    charge:    9.1216    magn:    0.0282    constr:    0.0000
     atom:   11    charge:    9.1210    magn:    0.0289    constr:    0.0000
     atom:   12    charge:    9.1202    magn:    0.0253    constr:    0.0000
     atom:   13    charge:    9.1204    magn:    0.0249    constr:    0.0000
     atom:   14    charge:    9.1205    magn:    0.0249    constr:    0.0000
     atom:   15    charge:    9.1203    magn:    0.0252    constr:    0.0000
     atom:   16    charge:    9.1209    magn:    0.0289    constr:    0.0000
     atom:   17    charge:    9.1214    magn:    0.0283    constr:    0.0000
     atom:   18    charge:    9.1221    magn:    0.0297    constr:    0.0000
     atom:   19    charge:    9.1230    magn:    0.0359    constr:    0.0000
     atom:   20    charge:    9.1235    magn:   -0.0462    constr:    0.0000
     atom:   21    charge:    9.1228    magn:   -0.0380    constr:    0.0000
     atom:   22    charge:    9.1230    magn:   -0.0380    constr:    0.0000
     atom:   23    charge:    9.1238    magn:   -0.0462    constr:    0.0000
     atom:   24    charge:    9.1229    magn:    0.0359    constr:    0.0000

     total cpu time spent up to now is     5673.6 secs

     End of self-consistent calculation
 --- enter write_ns ---
 LDA+U parameters:
U(  1) =   3.1200   J(  1) =   0.7000   B(  1) =   0.0803
U(  2) =   3.1200   J(  2) =   0.7000   B(  2) =   0.0803
atom    1   Tr[ns(na)] (up, down, total) =   4.97060  0.74548  5.71608
   spin  1
    eigenvalues: 
  0.984  0.994  0.994  0.997  1.002
    eigenvectors:
  0.000  0.000  0.000  1.000  0.000
  0.000  0.296  0.704  0.000  0.000
  0.000  0.704  0.296  0.000  0.000
  0.000  0.000  0.000  0.000  1.000
  1.000  0.000  0.000  0.000  0.000
    occupations:
  0.997 -0.000 -0.000  0.000  0.000
 -0.000  0.994 -0.000  0.000  0.000
 -0.000 -0.000  0.994  0.000  0.000
  0.000  0.000  0.000  1.002 -0.000
  0.000  0.000  0.000 -0.000  0.984
   spin  2
    eigenvalues: 
  0.065  0.135  0.146  0.146  0.253
    eigenvectors:
  0.000  1.000  0.000  0.000  0.000
  0.000  0.000  0.383  0.617  0.000
  0.000  0.000  0.617  0.383  0.000
  1.000  0.000  0.000  0.000  0.000
  0.000  0.000  0.000  0.000  1.000
    occupations:
  0.135 -0.000 -0.000  0.000  0.000
 -0.000  0.146 -0.000  0.000  0.000
 -0.000 -0.000  0.146  0.000  0.000
  0.000  0.000  0.000  0.065 -0.000
  0.000  0.000  0.000 -0.000  0.253
atomic mag. moment =     4.225116
atom    2   Tr[ns(na)] (up, down, total) =   4.96882  0.76952  5.73834
   spin  1
    eigenvalues: 
  0.984  0.993  0.993  0.996  1.002
    eigenvectors:
  0.000  0.000  0.000  1.000  0.000
  0.000  0.209  0.791  0.000  0.000
  0.000  0.791  0.209  0.000  0.000
  0.000  0.000  0.000  0.000  1.000
  1.000  0.000  0.000  0.000  0.000
    occupations:
  0.996 -0.000 -0.000  0.000  0.000
 -0.000  0.993 -0.000  0.000  0.000
 -0.000 -0.000  0.993  0.000  0.000
  0.000  0.000  0.000  1.002 -0.000
  0.000  0.000  0.000 -0.000  0.984
   spin  2
    eigenvalues: 
  0.065  0.143  0.143  0.150  0.268
    eigenvectors:
  0.000  0.000  0.000  1.000  0.000
  0.000  0.295  0.705  0.000  0.000
  0.000  0.705  0.295  0.000  0.000
  1.000  0.000  0.000  0.000  0.000
  0.000  0.000  0.000  0.000  1.000
    occupations:
  0.150 -0.000 -0.000  0.000  0.000
 -0.000  0.143 -0.000  0.000  0.000
 -0.000 -0.000  0.143  0.000  0.000
  0.000  0.000  0.000  0.065 -0.000
  0.000  0.000  0.000 -0.000  0.268
atomic mag. moment =     4.199303
atom    3   Tr[ns(na)] (up, down, total) =   4.96832  0.77116  5.73948
   spin  1
    eigenvalues: 
  0.984  0.993  0.993  0.997  1.002
    eigenvectors:
  0.000  0.000  0.000  1.000  0.000
  0.000  0.294  0.706  0.000  0.000
  0.000  0.706  0.294  0.000  0.000
  0.000  0.000  0.000  0.000  1.000
  1.000  0.000  0.000  0.000  0.000
    occupations:
  0.997 -0.000 -0.000  0.000  0.000
 -0.000  0.993 -0.000  0.000  0.000
 -0.000 -0.000  0.993  0.000  0.000
  0.000  0.000  0.000  1.002 -0.000
  0.000  0.000  0.000 -0.000  0.984
   spin  2
    eigenvalues: 
  0.065  0.143  0.143  0.152  0.267
    eigenvectors:
  0.000  0.000  0.000  1.000  0.000
  0.000  0.290  0.710  0.000  0.000
  0.000  0.710  0.290  0.000  0.000
  1.000  0.000  0.000  0.000  0.000
  0.000  0.000  0.000  0.000  1.000
    occupations:
  0.152 -0.000 -0.000  0.000  0.000
 -0.000  0.143 -0.000  0.000  0.000
 -0.000 -0.000  0.143  0.000  0.000
  0.000  0.000  0.000  0.065 -0.000
  0.000  0.000  0.000 -0.000  0.267
atomic mag. moment =     4.197159
atom    4   Tr[ns(na)] (up, down, total) =   4.96826  0.77129  5.73956
   spin  1
    eigenvalues: 
  0.984  0.993  0.993  0.997  1.002
    eigenvectors:
  0.000  0.000  0.000  1.000  0.000
  0.000  0.304  0.696  0.000  0.000
  0.000  0.696  0.304  0.000  0.000
  0.000  0.000  0.000  0.000  1.000
  1.000  0.000  0.000  0.000  0.000
    occupations:
  0.997 -0.000 -0.000  0.000  0.000
 -0.000  0.993 -0.000  0.000  0.000
 -0.000 -0.000  0.993  0.000  0.000
  0.000  0.000  0.000  1.002 -0.000
  0.000  0.000  0.000 -0.000  0.984
   spin  2
    eigenvalues: 
  0.065  0.143  0.143  0.152  0.268
    eigenvectors:
  0.000  0.000  0.000  1.000  0.000
  0.000  0.295  0.705  0.000  0.000
  0.000  0.705  0.295  0.000  0.000
  1.000  0.000  0.000  0.000  0.000
  0.000  0.000  0.000  0.000  1.000
    occupations:
  0.152 -0.000 -0.000  0.000  0.000
 -0.000  0.143 -0.000  0.000  0.000
 -0.000 -0.000  0.143  0.000  0.000
  0.000  0.000  0.000  0.065 -0.000
  0.000  0.000  0.000 -0.000  0.268
atomic mag. moment =     4.196969
atom    5   Tr[ns(na)] (up, down, total) =   4.96884  0.76942  5.73825
   spin  1
    eigenvalues: 
  0.984  0.993  0.993  0.996  1.002
    eigenvectors:
  0.000  0.000  0.000  1.000  0.000
  0.000  0.278  0.722  0.000  0.000
  0.000  0.722  0.278  0.000  0.000
  0.000  0.000  0.000  0.000  1.000
  1.000  0.000  0.000  0.000  0.000
    occupations:
  0.996 -0.000 -0.000  0.000  0.000
 -0.000  0.993 -0.000  0.000  0.000
 -0.000 -0.000  0.993  0.000  0.000
  0.000  0.000  0.000  1.002 -0.000
  0.000  0.000  0.000 -0.000  0.984
   spin  2
    eigenvalues: 
  0.065  0.144  0.144  0.150  0.267
    eigenvectors:
  0.000  0.000  0.000  1.000  0.000
  0.000  0.236  0.764  0.000  0.000
  0.000  0.764  0.236  0.000  0.000
  1.000  0.000  0.000  0.000  0.000
  0.000  0.000  0.000  0.000  1.000
    occupations:
  0.150 -0.000 -0.000  0.000  0.000
 -0.000  0.144 -0.000  0.000  0.000
 -0.000 -0.000  0.144  0.000  0.000
  0.000  0.000  0.000  0.065 -0.000
  0.000  0.000  0.000 -0.000  0.267
atomic mag. moment =     4.199417
atom    6   Tr[ns(na)] (up, down, total) =   4.97059  0.74548  5.71607
   spin  1
    eigenvalues: 
  0.984  0.994  0.994  0.997  1.002
    eigenvectors:
  0.000  0.000  0.000  1.000  0.000
  0.000  0.347  0.653  0.000  0.000
  0.000  0.653  0.347  0.000  0.000
  0.000  0.000  0.000  0.000  1.000
  1.000  0.000  0.000  0.000  0.000
    occupations:
  0.997 -0.000 -0.000  0.000  0.000
 -0.000  0.994 -0.000  0.000  0.000
 -0.000 -0.000  0.994  0.000  0.000
  0.000  0.000  0.000  1.002 -0.000
  0.000  0.000  0.000 -0.000  0.984
   spin  2
    eigenvalues: 
  0.065  0.135  0.146  0.146  0.253
    eigenvectors:
  0.000  1.000  0.000  0.000  0.000
  0.000  0.000  0.332  0.668  0.000
  0.000  0.000  0.668  0.332  0.000
  1.000  0.000  0.000  0.000  0.000
  0.000  0.000  0.000  0.000  1.000
    occupations:
  0.135 -0.000 -0.000  0.000  0.000
 -0.000  0.146 -0.000  0.000  0.000
 -0.000 -0.000  0.146  0.000  0.000
  0.000  0.000  0.000  0.065 -0.000
  0.000  0.000  0.000 -0.000  0.253
atomic mag. moment =     4.225112
atom    7   Tr[ns(na)] (up, down, total) =   0.73867  4.97170  5.71036
   spin  1
    eigenvalues: 
  0.064  0.133  0.143  0.143  0.256
    eigenvectors:
  0.000  1.000  0.000  0.000  0.000
  0.000  0.000  0.306  0.694  0.000
  0.000  0.000  0.694  0.306  0.000
  1.000  0.000  0.000  0.000  0.000
  0.000  0.000  0.000  0.000  1.000
    occupations:
  0.133 -0.000 -0.000  0.000  0.000
 -0.000  0.143 -0.000  0.000  0.000
 -0.000 -0.000  0.143  0.000  0.000
  0.000  0.000  0.000  0.064 -0.000
  0.000  0.000  0.000 -0.000  0.256
   spin  2
    eigenvalues: 
  0.985  0.994  0.994  0.997  1.002
    eigenvectors:
  0.000  0.000  0.000  1.000  0.000
  0.000  0.383  0.617  0.000  0.000
  0.000  0.617  0.383  0.000  0.000
  0.000  0.000  0.000  0.000  1.000
  1.000  0.000  0.000  0.000  0.000
    occupations:
  0.997 -0.000 -0.000  0.000  0.000
 -0.000  0.994 -0.000  0.000  0.000
 -0.000 -0.000  0.994  0.000  0.000
  0.000  0.000  0.000  1.002 -0.000
  0.000  0.000  0.000 -0.000  0.985
atomic mag. moment =    -4.233029
atom    8   Tr[ns(na)] (up, down, total) =   0.73862  4.97170  5.71032
   spin  1
    eigenvalues: 
  0.064  0.133  0.143  0.143  0.256
    eigenvectors:
  0.000  1.000  0.000  0.000  0.000
  0.000  0.000  0.251  0.749  0.000
  0.000  0.000  0.749  0.251  0.000
  1.000  0.000  0.000  0.000  0.000
  0.000  0.000  0.000  0.000  1.000
    occupations:
  0.133 -0.000 -0.000  0.000  0.000
 -0.000  0.143 -0.000  0.000  0.000
 -0.000 -0.000  0.143  0.000  0.000
  0.000  0.000  0.000  0.064 -0.000
  0.000  0.000  0.000 -0.000  0.256
   spin  2
    eigenvalues: 
  0.985  0.994  0.994  0.997  1.002
    eigenvectors:
  0.000  0.000  0.000  1.000  0.000
  0.000  0.350  0.650  0.000  0.000
  0.000  0.650  0.350  0.000  0.000
  0.000  0.000  0.000  0.000  1.000
  1.000  0.000  0.000  0.000  0.000
    occupations:
  0.997 -0.000 -0.000  0.000  0.000
 -0.000  0.994 -0.000  0.000  0.000
 -0.000 -0.000  0.994  0.000  0.000
  0.000  0.000  0.000  1.002 -0.000
  0.000  0.000  0.000 -0.000  0.985
atomic mag. moment =    -4.233085
N of occupied +U levels =   45.808460
 --- exit write_ns ---

 ------ SPIN UP ------------


          k = 0.0000 0.0000 0.0000 ( 13925 PWs)   bands (ev):

   -66.7431 -66.7427 -66.6266 -66.6261 -66.6146 -66.6138 -62.1801 -62.1795
   -35.5088 -35.5084 -35.4626 -35.4626 -35.4622 -35.4622 -35.3995 -35.3994
   -35.3850 -35.3848 -35.3448 -35.3448 -35.3440 -35.3440 -35.3342 -35.3342
   -35.3330 -35.3330 -31.0067 -31.0063 -30.9982 -30.9982 -30.9976 -30.9976
     5.7424   5.8667   5.9321   6.3327   6.3553   6.9826   7.0392   7.6110
     8.2157   8.3511   8.3595   8.3962   8.4346   8.4926   8.5563   8.6414
     8.7777   8.7876   8.8151   8.8221   9.0161   9.0500   9.1361   9.2024
     9.2083   9.3660   9.4387   9.4612   9.5419   9.6037   9.6879   9.8439
     9.8763   9.9000   9.9069   9.9834  10.1035  10.1130  10.1164  10.1164
    10.1692  10.1692  10.1836  10.1836  10.2499  10.2500  10.3311  10.3311
    10.3393  10.3393  10.4285  10.4324  10.5040  10.5815  10.5815  10.5862
    10.5862  10.6003  10.6003  10.6031  10.6031  10.6493  10.6493  10.6534
    10.6798  10.7057  10.7057  10.7751  10.7751  10.7830  10.7830  10.8312
    10.9949  10.9967  11.0373  11.0373  11.0394  11.0394  11.0654  11.1863
    11.2416  11.2535  11.2896  11.3998  11.4910  11.4910  11.5396  11.5452
    11.5503  11.5503  11.5875  11.7326  11.7691  11.8373  11.8990  11.9041
    11.9041  12.0237  12.0446  12.0571  12.0716  12.0716  12.1026  12.1590
    12.2298  12.2358  12.3770  12.3770  12.4903  12.6150  12.6150  12.6568
    12.8036  12.8036  12.8072  12.8132  12.9414  13.0503  13.1103  13.1242
    13.2334  13.8892  14.1195  15.0504  15.5550  16.5620  16.7789  16.7789
    16.9416  16.9959  17.0720  17.0720  17.0917  17.1450  17.4890  17.5673
    18.1429  19.3788  19.6435  20.0346  20.0346  20.3708  20.3708  20.4597
    20.4597  21.3796

          k = 0.0000 0.0000 0.0242 ( 13893 PWs)   bands (ev):

   -66.7431 -66.7427 -66.6266 -66.6261 -66.6146 -66.6138 -62.1801 -62.1795
   -35.5088 -35.5084 -35.4626 -35.4626 -35.4622 -35.4622 -35.3995 -35.3994
   -35.3850 -35.3848 -35.3448 -35.3448 -35.3440 -35.3440 -35.3342 -35.3342
   -35.3330 -35.3330 -31.0067 -31.0063 -30.9982 -30.9982 -30.9976 -30.9976
     5.7507   5.8284   5.9877   6.2122   6.4922   6.8268   7.1986   7.5418
     8.2768   8.3512   8.3655   8.3960   8.4292   8.4932   8.5653   8.6403
     8.6461   8.7627   8.8249   8.9138   9.0372   9.0623   9.1295   9.1542
     9.2881   9.3504   9.4040   9.4289   9.5551   9.6273   9.6903   9.8340
     9.8764   9.8984   9.9066   9.9838  10.1028  10.1181  10.1181  10.1232
    10.1552  10.1552  10.2054  10.2054  10.2499  10.2519  10.2854  10.2854
    10.3924  10.3924  10.4158  10.4232  10.5182  10.5253  10.5253  10.5828
    10.5828  10.5921  10.5921  10.6424  10.6424  10.6428  10.6751  10.6751
    10.6988  10.7058  10.7058  10.7579  10.7579  10.8030  10.8030  10.8383
    10.9291  10.9463  10.9463  11.0597  11.0618  11.1368  11.1368  11.1849
    11.2287  11.2570  11.2953  11.3953  11.4059  11.4059  11.5384  11.5435
    11.5920  11.6395  11.6395  11.7300  11.7791  11.8339  11.8547  11.8547
    11.9003  11.9902  12.0440  12.0928  12.1003  12.1003  12.1039  12.1592
    12.2200  12.2357  12.3680  12.3680  12.4929  12.6179  12.6179  12.6551
    12.8030  12.8030  12.8080  12.8311  12.9410  13.0265  13.0504  13.1242
    13.3497  13.7424  14.2701  14.9227  15.6742  16.4888  16.7789  16.7789
    16.9415  16.9959  17.0719  17.0719  17.0917  17.1450  17.4962  17.5717
    18.2323  19.0751  19.9985  20.0565  20.0565  20.2546  20.2546  20.6150
    20.6150  20.9935

          k = 0.0000 0.0000-0.0484 ( 13878 PWs)   bands (ev):

   -66.7431 -66.7427 -66.6266 -66.6261 -66.6146 -66.6138 -62.1801 -62.1795
   -35.5088 -35.5084 -35.4626 -35.4626 -35.4622 -35.4622 -35.3995 -35.3994
   -35.3850 -35.3848 -35.3448 -35.3448 -35.3440 -35.3440 -35.3342 -35.3342
   -35.3329 -35.3329 -31.0067 -31.0063 -30.9982 -30.9982 -30.9976 -30.9976
     5.7664   5.7965   6.0582   6.1229   6.6424   6.6655   7.3508   7.4156
     8.3363   8.3513   8.3957   8.4079   8.4238   8.4938   8.5208   8.5827
     8.6391   8.7422   8.8278   8.9996   9.0170   9.0269   9.1573   9.1710
     9.3293   9.3346   9.3765   9.3810   9.5676   9.6450   9.6926   9.8240
     9.8765   9.8968   9.9064   9.9842  10.1020  10.1203  10.1203  10.1334
    10.1472  10.1472  10.2326  10.2326  10.2498  10.2507  10.2507  10.2539
    10.4034  10.4157  10.4547  10.4547  10.4573  10.4573  10.5322  10.5828
    10.5828  10.5921  10.5921  10.6311  10.6441  10.6441  10.7052  10.7052
    10.7199  10.7235  10.7235  10.7314  10.7314  10.8272  10.8272  10.8452
    10.8925  10.8925  10.8953  11.0538  11.0954  11.1836  11.2004  11.2004
    11.2124  11.2605  11.3011  11.3395  11.3395  11.3907  11.5317  11.5475
    11.5965  11.7273  11.7297  11.7297  11.7768  11.7768  11.7898  11.8304
    11.9017  11.9693  12.0435  12.1053  12.1176  12.1239  12.1239  12.1593
    12.2075  12.2357  12.3583  12.3583  12.4956  12.6206  12.6206  12.6533
    12.8025  12.8025  12.8089  12.8599  12.9407  12.9629  13.0505  13.1242
    13.5153  13.5577  14.4069  14.7872  15.7852  16.4053  16.7789  16.7789
    16.9415  16.9959  17.0719  17.0719  17.0917  17.1450  17.5014  17.5758
    18.3591  18.8546  20.0988  20.0988  20.1693  20.1693  20.4323  20.5405
    20.8095  20.8095

          k = 0.0000 0.1250 0.0000 ( 13879 PWs)   bands (ev):

   -66.7428 -66.7424 -66.6264 -66.6258 -66.6143 -66.6136 -62.1801 -62.1795
   -35.5087 -35.5082 -35.4644 -35.4640 -35.4625 -35.4621 -35.3993 -35.3993
   -35.3848 -35.3846 -35.3466 -35.3458 -35.3447 -35.3439 -35.3360 -35.3347
   -35.3341 -35.3329 -31.0065 -31.0061 -31.0004 -30.9998 -30.9981 -30.9975
     5.9861   6.1068   6.1701   6.5553   6.5779   7.1746   7.2151   7.7415
     8.2317   8.4510   8.4900   8.5225   8.5308   8.6067   8.6475   8.6891
     8.7435   8.7588   8.8822   8.8982   8.9951   9.0773   9.1693   9.1786
     9.2692   9.2923   9.3088   9.3179   9.4297   9.5988   9.6457   9.7679
     9.7928   9.8084   9.8537   9.8982   9.9218   9.9242   9.9868   9.9929
    10.0189  10.0296  10.0483  10.0952  10.1668  10.1713  10.1845  10.2666
    10.3243  10.3267  10.3573  10.3607  10.4231  10.4543  10.5254  10.5804
    10.5896  10.6308  10.6388  10.6638  10.7350  10.7517  10.7712  10.8279
    10.8284  10.8475  10.8514  10.8958  10.9605  10.9825  11.0524  11.0780
    11.0874  11.1317  11.1420  11.1505  11.1770  11.1990  11.2060  11.2539
    11.2972  11.3174  11.3402  11.4231  11.4464  11.4958  11.5236  11.5501
    11.6279  11.6454  11.7521  11.7842  11.7988  11.7995  11.8815  11.8873
    11.8978  11.9672  12.0246  12.0484  12.0533  12.1390  12.1512  12.1699
    12.2029  12.2522  12.3440  12.3609  12.4534  12.5343  12.6061  12.6248
    12.7533  12.7671  12.7768  12.9165  12.9189  13.0237  13.0252  13.0788
    13.2072  13.9519  14.1551  15.1747  15.6719  16.5491  16.7148  16.8652
    16.9089  16.9537  16.9989  17.0442  17.0583  17.2151  17.4664  17.8777
    18.2819  18.5781  18.8832  19.0153  19.7252  19.7709  19.8308  19.9267
    20.6327  20.9015

          k = 0.0000 0.1250 0.0242 ( 13869 PWs)   bands (ev):

   -66.7428 -66.7424 -66.6264 -66.6258 -66.6143 -66.6136 -62.1801 -62.1795
   -35.5087 -35.5082 -35.4644 -35.4640 -35.4625 -35.4621 -35.3993 -35.3993
   -35.3848 -35.3846 -35.3466 -35.3458 -35.3447 -35.3439 -35.3360 -35.3347
   -35.3341 -35.3329 -31.0065 -31.0061 -31.0004 -30.9998 -30.9981 -30.9975
     5.9942   6.0697   6.2240   6.4403   6.7080   7.0239   7.3680   7.6776
     8.2859   8.4536   8.4901   8.5179   8.5269   8.5794   8.6149   8.6690
     8.7393   8.8163   8.8872   8.9020   9.0168   9.0727   9.1229   9.2043
     9.2301   9.2800   9.3251   9.3457   9.4501   9.5802   9.6291   9.7944
     9.7984   9.8057   9.8558   9.8979   9.9218   9.9238   9.9422  10.0189
    10.0228  10.0277  10.0471  10.0963  10.1686  10.1695  10.2007  10.2723
    10.3087  10.3168  10.3252  10.3699  10.4566  10.4716  10.5212  10.5853
    10.5915  10.6262  10.6406  10.6617  10.6644  10.7399  10.8246  10.8289
    10.8397  10.8506  10.8613  10.8994  10.9705  10.9830  11.0509  11.0741
    11.0942  11.0982  11.1190  11.1414  11.1729  11.1979  11.2295  11.2613
    11.2737  11.3400  11.3816  11.3969  11.4219  11.5029  11.5380  11.5928
    11.6322  11.6328  11.7078  11.7455  11.7969  11.8187  11.8524  11.9076
    11.9120  12.0122  12.0385  12.0467  12.0584  12.1335  12.1392  12.1492
    12.2029  12.2333  12.3451  12.3758  12.4608  12.5350  12.6014  12.6241
    12.7529  12.7777  12.7877  12.9161  12.9196  12.9828  13.0237  13.0251
    13.3380  13.7740  14.3390  15.0287  15.8058  16.4755  16.7391  16.8652
    16.9005  16.9543  16.9989  17.0427  17.0583  17.2151  17.4802  17.7879
    18.4621  18.5947  18.8014  19.1316  19.3589  19.5574  20.0506  20.3227
    20.6271  20.6472

          k = 0.0000 0.1250-0.0484 ( 13868 PWs)   bands (ev):

   -66.7428 -66.7424 -66.6264 -66.6258 -66.6143 -66.6136 -62.1801 -62.1795
   -35.5087 -35.5082 -35.4644 -35.4640 -35.4625 -35.4621 -35.3993 -35.3993
   -35.3848 -35.3846 -35.3466 -35.3458 -35.3447 -35.3439 -35.3360 -35.3347
   -35.3341 -35.3329 -31.0065 -31.0061 -31.0004 -30.9998 -30.9981 -30.9975
     6.0095   6.0386   6.2921   6.3543   6.8526   6.8697   7.5176   7.5527
     8.3606   8.4662   8.4770   8.4916   8.5128   8.5338   8.6130   8.6811
     8.7369   8.8121   8.9015   8.9558   8.9931   9.0909   9.0936   9.1773
     9.2471   9.2542   9.3403   9.3562   9.4862   9.5431   9.6218   9.7972
     9.8019   9.8328   9.8579   9.8976   9.9076   9.9220   9.9233  10.0189
    10.0258  10.0340  10.0463  10.0972  10.1675  10.1723  10.2248  10.2706
    10.2817  10.3056  10.3237  10.3706  10.4593  10.5168  10.5282  10.5917
    10.5926  10.5984  10.6210  10.6420  10.6597  10.7451  10.8252  10.8292
    10.8321  10.8512  10.8870  10.9415  10.9796  10.9812  11.0417  11.0484
    11.0696  11.1040  11.1107  11.1286  11.1692  11.1984  11.2554  11.2651
    11.2718  11.3489  11.3538  11.4155  11.4179  11.5408  11.5517  11.5628
    11.6274  11.6708  11.6904  11.7084  11.7810  11.7953  11.8500  11.9092
    11.9594  12.0382  12.0429  12.0497  12.0749  12.1123  12.1262  12.1394
    12.2028  12.2103  12.3487  12.3868  12.4678  12.5365  12.5959  12.6232
    12.7526  12.7784  12.8258  12.9053  12.9160  12.9202  13.0237  13.0249
    13.5363  13.5515  14.5018  14.8704  15.9328  16.3904  16.7567  16.8652
    16.8919  16.9547  16.9989  17.0413  17.0583  17.2151  17.4976  17.7216
    18.6198  18.6900  18.7465  19.0623  19.2817  19.3816  20.3075  20.3131
    20.6690  20.7746

          k = 0.0000 0.2500 0.0000 ( 13848 PWs)   bands (ev):

   -66.7426 -66.7423 -66.6262 -66.6257 -66.6142 -66.6134 -62.1797 -62.1792
   -35.5083 -35.5078 -35.4686 -35.4682 -35.4622 -35.4619 -35.3989 -35.3989
   -35.3844 -35.3842 -35.3508 -35.3500 -35.3444 -35.3437 -35.3402 -35.3389
   -35.3338 -35.3326 -31.0059 -31.0057 -31.0055 -31.0051 -30.9977 -30.9972
     6.6757   6.7836   6.8402   7.1681   7.1889   7.6568   7.6571   8.0177
     8.2119   8.4372   8.4525   8.6584   8.6809   8.6977   8.7833   8.8136
     8.8535   8.8606   8.8878   8.9212   8.9340   8.9392   8.9952   8.9953
     9.1786   9.2003   9.3548   9.4465   9.4596   9.4978   9.5567   9.6003
     9.6178   9.6258   9.6307   9.7024   9.7169   9.7343   9.7582   9.8281
     9.8761   9.9172   9.9791  10.0537  10.1093  10.1159  10.1467  10.2380
    10.2643  10.4382  10.5227  10.5324  10.5386  10.5898  10.5946  10.6700
    10.7281  10.7395  10.7466  10.8032  10.8235  10.8561  10.9166  10.9835
    10.9954  11.0473  11.0478  11.1187  11.1352  11.1423  11.1717  11.2072
    11.2337  11.3094  11.3479  11.3880  11.3895  11.4253  11.4543  11.4722
    11.5197  11.5273  11.5703  11.6426  11.6563  11.6946  11.6986  11.7054
    11.7364  11.7368  11.7657  11.8160  11.8255  11.8577  11.8904  11.9268
    11.9383  11.9623  12.0344  12.0397  12.0505  12.0864  12.0891  12.0959
    12.1375  12.2492  12.2572  12.3962  12.4478  12.5354  12.5874  12.6653
    12.7014  12.8295  12.8466  12.9563  12.9828  12.9847  13.0647  13.0694
    13.1081  14.1046  14.2361  15.4090  15.6815  16.0353  16.1514  16.2526
    16.3604  16.7129  16.7465  16.8977  16.9655  17.0376  17.0795  17.2807
    17.2913  17.3537  17.5017  17.8450  18.1317  18.3756  18.4698  18.6464
    19.2616  20.2996

          k = 0.0000 0.2500 0.0242 ( 13862 PWs)   bands (ev):

   -66.7426 -66.7423 -66.6262 -66.6257 -66.6142 -66.6134 -62.1797 -62.1792
   -35.5083 -35.5078 -35.4686 -35.4682 -35.4622 -35.4619 -35.3989 -35.3989
   -35.3844 -35.3842 -35.3508 -35.3500 -35.3444 -35.3437 -35.3402 -35.3389
   -35.3338 -35.3326 -31.0059 -31.0057 -31.0055 -31.0051 -30.9977 -30.9972
     6.6829   6.7507   6.8873   7.0731   7.2933   7.5355   7.7733   7.9754
     8.2452   8.3810   8.5059   8.6175   8.6944   8.7213   8.7753   8.8100
     8.8512   8.8559   8.8855   8.9194   8.9424   8.9582   8.9902   8.9953
     9.1482   9.2015   9.3999   9.4466   9.4592   9.4991   9.5542   9.5812
     9.6201   9.6255   9.6305   9.6388   9.7188   9.7330   9.8236   9.8377
     9.8769   9.9212   9.9785  10.0513  10.0886  10.1156  10.1178  10.2469
    10.2886  10.4643  10.4882  10.5304  10.5393  10.5992  10.6084  10.6766
    10.6785  10.7334  10.7411  10.8066  10.8660  10.8766  10.9033  10.9690
    11.0064  11.0345  11.0563  11.1012  11.1076  11.1733  11.1759  11.2064
    11.2513  11.3099  11.3504  11.3660  11.3723  11.4381  11.4522  11.4763
    11.5097  11.5615  11.5657  11.6084  11.6790  11.6917  11.6938  11.7257
    11.7289  11.7429  11.7739  11.8092  11.8337  11.8508  11.8561  11.9311
    11.9599  11.9610  12.0080  12.0368  12.0381  12.0937  12.0956  12.1318
    12.1375  12.2488  12.2521  12.3645  12.4773  12.5301  12.6164  12.6677
    12.6977  12.8274  12.8470  12.8484  12.9572  12.9842  13.0647  13.0693
    13.2872  13.8464  14.4991  15.2172  15.8320  16.0467  16.1253  16.2164
    16.3763  16.7063  16.7465  16.9191  16.9655  17.0312  17.0854  17.2815
    17.2913  17.3537  17.5119  17.8529  18.0328  18.3028  18.5465  18.7459
    19.3023  19.9500

          k = 0.0000 0.2500-0.0484 ( 13842 PWs)   bands (ev):

   -66.7426 -66.7423 -66.6262 -66.6257 -66.6142 -66.6134 -62.1797 -62.1792
   -35.5083 -35.5078 -35.4686 -35.4682 -35.4622 -35.4619 -35.3989 -35.3989
   -35.3844 -35.3842 -35.3508 -35.3500 -35.3444 -35.3437 -35.3402 -35.3389
   -35.3338 -35.3326 -31.0059 -31.0057 -31.0055 -31.0051 -30.9977 -30.9972
     6.6967   6.7229   6.9463   7.0003   7.4122   7.4139   7.8643   7.9022
     8.2947   8.3289   8.5623   8.5640   8.6988   8.7377   8.7866   8.7874
     8.8455   8.8545   8.8876   8.9182   8.9526   8.9790   8.9803   8.9954
     9.1211   9.2019   9.4466   9.4588   9.4729   9.5004   9.5122   9.5518
     9.6213   9.6223   9.6267   9.6302   9.7215   9.7308   9.8195   9.8772
     9.9002   9.9254   9.9776  10.0324  10.0494  10.1154  10.1271  10.2299
    10.3306  10.4543  10.4944  10.5283  10.5398  10.6064  10.6146  10.6371
    10.7051  10.7062  10.7322  10.8299  10.8578  10.8896  10.9281  10.9743
    11.0024  11.0060  11.0540  11.0901  11.1120  11.1736  11.1775  11.2165
    11.2720  11.3106  11.3408  11.3559  11.3565  11.4460  11.4524  11.4852
    11.4983  11.5512  11.5958  11.6041  11.6755  11.6928  11.7002  11.7016
    11.7326  11.7671  11.7833  11.8017  11.8313  11.8458  11.8483  11.9217
    11.9540  11.9749  11.9877  12.0363  12.0410  12.0956  12.0996  12.1375
    12.1611  12.2368  12.2571  12.3400  12.5077  12.5145  12.6713  12.6813
    12.6927  12.7316  12.8258  12.8498  12.9581  12.9837  13.0647  13.0691
    13.5364  13.5677  14.7205  15.0106  15.9569  16.0726  16.0850  16.1560
    16.3937  16.6988  16.7465  16.9433  16.9655  17.0222  17.0921  17.2764
    17.2913  17.3537  17.5496  17.7780  18.0977  18.1475  18.6859  18.7448
    19.4403  19.6723

          k = 0.0000 0.3750 0.0000 ( 13856 PWs)   bands (ev):

   -66.7432 -66.7428 -66.6268 -66.6263 -66.6148 -66.6140 -62.1787 -62.1782
   -35.5079 -35.5074 -35.4726 -35.4723 -35.4620 -35.4617 -35.3985 -35.3984
   -35.3840 -35.3838 -35.3548 -35.3540 -35.3442 -35.3442 -35.3434 -35.3430
   -35.3336 -35.3324 -31.0111 -31.0105 -31.0053 -31.0050 -30.9974 -30.9968
     7.6380   7.7193   7.7592   7.9600   7.9634   8.1104   8.1345   8.1608
     8.1642   8.2178   8.2329   8.3508   8.3810   8.5311   8.5981   8.7853
     8.8300   8.9167   9.0050   9.0450   9.0535   9.1272   9.1933   9.1966
     9.2323   9.2441   9.2479   9.2760   9.3100   9.3181   9.3610   9.4872
     9.4873   9.4929   9.5725   9.6000   9.6446   9.6547   9.8224   9.8415
     9.8683   9.9487   9.9488  10.0446  10.0752  10.1197  10.1619  10.2860
    10.3237  10.3299  10.3429  10.3620  10.4931  10.5202  10.5766  10.7378
    10.7819  10.8421  10.9188  10.9952  11.0478  11.1449  11.1865  11.2026
    11.2959  11.3297  11.3335  11.3759  11.4023  11.4377  11.4482  11.4617
    11.4937  11.5248  11.5581  11.5682  11.5962  11.6068  11.6105  11.6220
    11.6556  11.7026  11.7046  11.7934  11.7997  11.8085  11.8318  11.8434
    11.8911  11.9201  11.9485  12.0393  12.0588  12.0599  12.0977  12.1143
    12.1304  12.1466  12.1605  12.1889  12.1981  12.2662  12.3153  12.3202
    12.4222  12.4388  12.5154  12.5301  12.5756  12.5925  12.6576  12.7757
    12.8107  12.9012  12.9430  12.9777  12.9983  13.0241  13.0477  13.1086
    13.1174  13.9454  14.0505  14.0728  14.2776  14.3014  14.8922  15.0170
    15.0768  15.1391  15.7132  15.7288  16.0200  16.1214  16.7089  16.7829
    16.8936  16.9744  17.0512  17.1866  17.4993  17.5203  17.9190  18.1130
    19.3956  19.4018

          k = 0.0000 0.3750 0.0242 ( 13870 PWs)   bands (ev):

   -66.7432 -66.7428 -66.6268 -66.6263 -66.6148 -66.6140 -62.1787 -62.1782
   -35.5079 -35.5074 -35.4726 -35.4723 -35.4620 -35.4617 -35.3985 -35.3984
   -35.3840 -35.3838 -35.3548 -35.3541 -35.3442 -35.3442 -35.3434 -35.3430
   -35.3336 -35.3324 -31.0111 -31.0105 -31.0053 -31.0050 -30.9974 -30.9968
     7.6436   7.6950   7.7920   7.9060   8.0135   8.0929   8.1429   8.1575
     8.1698   8.2016   8.2541   8.3238   8.4085   8.5099   8.6175   8.7565
     8.8648   8.9228   8.9729   9.0220   9.0801   9.1392   9.1932   9.1967
     9.2324   9.2439   9.2563   9.2819   9.3099   9.3190   9.3599   9.4593
     9.4860   9.4892   9.5183   9.6418   9.6581   9.6993   9.8189   9.8410
     9.8679   9.9341   9.9764  10.0146  10.0442  10.0633  10.2480  10.2878
    10.3177  10.3399  10.3425  10.3758  10.4854  10.5273  10.5607  10.7213
    10.7389  10.8557  10.9380  11.0140  11.0929  11.1480  11.1691  11.2036
    11.2634  11.3198  11.3826  11.3889  11.4084  11.4333  11.4448  11.4588
    11.4717  11.5013  11.5116  11.5420  11.5906  11.6135  11.6168  11.6426
    11.6601  11.7038  11.7161  11.7829  11.7845  11.7961  11.8280  11.8472
    11.8815  11.9596  11.9713  12.0389  12.0607  12.0983  12.1065  12.1142
    12.1291  12.1428  12.1525  12.1560  12.2466  12.2907  12.3082  12.3367
    12.4157  12.4383  12.5109  12.5158  12.5745  12.6115  12.6565  12.7081
    12.7697  12.8107  12.9039  12.9431  13.0233  13.0477  13.1088  13.1174
    13.2748  13.8151  13.9752  14.1428  14.2849  14.4660  14.7285  14.8704
    15.1843  15.3198  15.6076  15.7567  15.9904  16.1394  16.7089  16.7847
    16.8936  16.9767  17.0499  17.1900  17.4993  17.5203  17.9181  18.1154
    19.3873  19.4428

          k = 0.0000 0.3750-0.0484 ( 13872 PWs)   bands (ev):

   -66.7432 -66.7428 -66.6268 -66.6263 -66.6148 -66.6140 -62.1787 -62.1782
   -35.5079 -35.5074 -35.4726 -35.4723 -35.4620 -35.4617 -35.3985 -35.3984
   -35.3840 -35.3838 -35.3548 -35.3541 -35.3442 -35.3442 -35.3434 -35.3430
   -35.3336 -35.3324 -31.0111 -31.0105 -31.0053 -31.0050 -30.9974 -30.9968
     7.6543   7.6741   7.8325   7.8615   8.0544   8.0621   8.1493   8.1543
     8.1778   8.1886   8.2788   8.2956   8.4323   8.4873   8.6354   8.7352
     8.9067   8.9237   8.9394   9.0021   9.1012   9.1404   9.1931   9.1968
     9.2326   9.2436   9.2787   9.2793   9.3155   9.3198   9.3588   9.4110
     9.4856   9.4902   9.5124   9.6399   9.6607   9.7760   9.8154   9.8406
     9.8654   9.9304   9.9361   9.9984  10.0418  10.0480  10.2896  10.2908
    10.3072  10.3421  10.3508  10.3978  10.4922  10.5229  10.5352  10.7056
    10.7114  10.8605  10.9571  11.0278  11.1315  11.1513  11.1858  11.1980
    11.2394  11.3147  11.3882  11.3945  11.4219  11.4282  11.4418  11.4444
    11.4622  11.4747  11.4805  11.5207  11.6006  11.6019  11.6349  11.6530
    11.6738  11.7041  11.7514  11.7519  11.7686  11.7889  11.8000  11.8510
    11.8923  11.9700  12.0171  12.0303  12.0831  12.0857  12.0993  12.1180
    12.1320  12.1353  12.1441  12.1492  12.3048  12.3064  12.3484  12.4051
    12.4274  12.4378  12.4438  12.4954  12.5302  12.5802  12.6277  12.6542
    12.7634  12.8107  12.9065  12.9431  13.0225  13.0477  13.1089  13.1174
    13.5439  13.5644  14.0346  14.0417  14.4849  14.5241  14.6445  14.6837
    15.3166  15.3834  15.6156  15.6480  15.9931  16.1450  16.7089  16.7866
    16.8936  16.9791  17.0485  17.1934  17.4993  17.5203  17.9171  18.1178
    19.4024  19.4594

          k = 0.0000-0.5000 0.0000 ( 13918 PWs)   bands (ev):

   -66.7437 -66.7433 -66.6272 -66.6267 -66.6152 -66.6144 -62.1781 -62.1776
   -35.5077 -35.5073 -35.4743 -35.4739 -35.4619 -35.4616 -35.3983 -35.3983
   -35.3838 -35.3836 -35.3565 -35.3557 -35.3459 -35.3447 -35.3441 -35.3433
   -35.3335 -35.3323 -31.0134 -31.0128 -31.0051 -31.0047 -30.9973 -30.9967
     8.0937   8.0939   8.1215   8.1216   8.1745   8.1746   8.2834   8.2835
     8.4065   8.4065   8.4401   8.4401   8.4975   8.4976   8.6525   8.6526
     8.7740   8.7740   8.9413   8.9415   9.0076   9.0077   9.0933   9.0936
     9.1415   9.1416   9.2427   9.2429   9.3922   9.3924   9.4814   9.4815
     9.5783   9.5784   9.6925   9.6927   9.7611   9.7611   9.7629   9.7631
     9.8126   9.8127   9.8932   9.8933  10.0194  10.0194  10.0817  10.0818
    10.3368  10.3372  10.3498  10.3500  10.5480  10.5483  10.5759  10.5761
    10.7076  10.7081  10.9351  10.9352  11.3196  11.3196  11.3402  11.3404
    11.4056  11.4057  11.4640  11.4643  11.5213  11.5216  11.5518  11.5519
    11.5647  11.5650  11.5821  11.5824  11.6411  11.6412  11.7221  11.7222
    11.7694  11.7696  11.8271  11.8271  11.8365  11.8366  11.9279  11.9281
    11.9960  11.9961  12.1532  12.1534  12.2943  12.2944  12.3998  12.3999
    12.4790  12.4791  12.5176  12.5178  12.5264  12.5264  12.5692  12.5694
    12.6734  12.6735  12.6799  12.6801  12.8229  12.8233  12.8806  12.8806
    12.9483  12.9484  12.9626  12.9627  13.0644  13.0647  13.1336  13.1341
    13.3088  13.3089  13.4366  13.4366  13.8470  13.8471  13.8845  13.8845
    14.3900  14.3903  14.4906  14.4909  14.8016  14.8019  16.6397  16.6400
    16.7834  16.7845  16.9559  16.9559  17.5832  17.5841  17.9740  17.9748
    19.3862  19.3862

          k = 0.0000-0.5000 0.0242 ( 13918 PWs)   bands (ev):

   -66.7437 -66.7433 -66.6272 -66.6267 -66.6152 -66.6144 -62.1781 -62.1776
   -35.5077 -35.5073 -35.4743 -35.4739 -35.4619 -35.4616 -35.3983 -35.3983
   -35.3838 -35.3836 -35.3565 -35.3557 -35.3459 -35.3447 -35.3441 -35.3433
   -35.3335 -35.3323 -31.0134 -31.0128 -31.0051 -31.0047 -30.9973 -30.9967
     8.0932   8.0934   8.1228   8.1230   8.1730   8.1732   8.2853   8.2854
     8.3992   8.3993   8.4500   8.4501   8.4935   8.4935   8.6506   8.6507
     8.7821   8.7821   8.9209   8.9210   9.0242   9.0243   9.0933   9.0936
     9.1414   9.1416   9.2427   9.2430   9.3920   9.3922   9.4767   9.4767
     9.5785   9.5786   9.6921   9.6923   9.7604   9.7604   9.7625   9.7626
     9.8133   9.8134   9.8937   9.8938  10.0192  10.0192  10.1030  10.1031
    10.3161  10.3163  10.3367  10.3371  10.5481  10.5484  10.5876  10.5877
    10.7075  10.7079  10.9502  10.9503  11.3035  11.3035  11.3403  11.3405
    11.4102  11.4103  11.4642  11.4645  11.5216  11.5219  11.5522  11.5524
    11.5667  11.5669  11.5816  11.5819  11.6210  11.6210  11.7282  11.7284
    11.7695  11.7697  11.8204  11.8204  11.8360  11.8361  11.9602  11.9603
    11.9972  11.9973  12.1518  12.1520  12.2755  12.2755  12.4015  12.4016
    12.4819  12.4820  12.5159  12.5161  12.5295  12.5295  12.5630  12.5631
    12.6807  12.6809  12.6847  12.6848  12.8225  12.8229  12.8533  12.8533
    12.9627  12.9628  12.9795  12.9795  13.0644  13.0646  13.1336  13.1341
    13.2679  13.2679  13.4952  13.4953  13.7387  13.7388  13.9982  13.9984
    14.2928  14.2930  14.5790  14.5794  14.7769  14.7772  16.6402  16.6404
    16.7834  16.7845  16.9559  16.9560  17.5832  17.5841  17.9741  17.9748
    19.4028  19.4028

          k = 0.0000-0.5000-0.0484 ( 13892 PWs)   bands (ev):

   -66.7437 -66.7433 -66.6272 -66.6267 -66.6152 -66.6144 -62.1781 -62.1776
   -35.5077 -35.5073 -35.4743 -35.4739 -35.4619 -35.4616 -35.3983 -35.3983
   -35.3838 -35.3836 -35.3565 -35.3557 -35.3459 -35.3447 -35.3441 -35.3433
   -35.3335 -35.3323 -31.0134 -31.0128 -31.0051 -31.0047 -30.9973 -30.9967
     8.0928   8.0930   8.1241   8.1243   8.1715   8.1716   8.2872   8.2873
     8.3936   8.3937   8.4599   8.4599   8.4878   8.4879   8.6488   8.6488
     8.7913   8.7913   8.9036   8.9038   9.0364   9.0365   9.0933   9.0936
     9.1414   9.1416   9.2428   9.2431   9.3919   9.3921   9.4719   9.4719
     9.5788   9.5789   9.6917   9.6918   9.7597   9.7598   9.7620   9.7621
     9.8139   9.8140   9.8942   9.8944  10.0190  10.0190  10.1310  10.1311
    10.2778  10.2781  10.3366  10.3371  10.5483  10.5486  10.5970  10.5971
    10.7074  10.7078  10.9665  10.9666  11.2868  11.2869  11.3403  11.3405
    11.4139  11.4141  11.4644  11.4647  11.5222  11.5224  11.5525  11.5527
    11.5706  11.5708  11.5801  11.5805  11.6030  11.6031  11.7322  11.7323
    11.7696  11.7698  11.8162  11.8162  11.8356  11.8357  11.9915  11.9916
    11.9984  11.9985  12.1505  12.1507  12.2545  12.2546  12.4032  12.4033
    12.4846  12.4847  12.5141  12.5144  12.5326  12.5326  12.5571  12.5573
    12.6816  12.6818  12.6966  12.6966  12.8221  12.8225  12.8328  12.8328
[...]
    11.8405  11.8408  11.8788  11.8789  11.8806  11.8806  11.9652  11.9652
    12.1360  12.1362  12.2382  12.2383  12.3533  12.3533  12.4053  12.4054
    12.4531  12.4532  12.8161  12.8161  12.8469  12.8470  12.9995  12.9996
    13.3277  13.3278  13.6805  13.6805  13.7869  13.7869  14.0759  14.0760
    14.4077  14.4080  14.7539  14.7542  14.9149  14.9155  15.2645  15.2645
    16.3392  16.3393  16.9382  16.9382  16.9783  16.9783  17.0471  17.0471
    17.0755  17.0756  17.1211  17.1212  17.1385  17.1390  17.4520  17.4525
    17.4878  17.4885  17.6278  17.6278  18.0810  18.0812  18.1657  18.1661
    18.1974  18.1979  18.2910  18.2916  18.4548  18.4551  18.6077  18.6081
    19.8636  19.8638

          k = 0.3750 0.3750 0.0000 ( 13948 PWs)   bands (ev):

   -66.7689 -66.7681 -62.1612 -62.1607 -62.0715 -62.0711 -62.0618 -62.0613
   -35.5399 -35.5398 -35.4959 -35.4959 -35.4949 -35.4949 -30.9933 -30.9931
   -30.9929 -30.9927 -30.9846 -30.9841 -30.9024 -30.9023 -30.9019 -30.9017
   -30.9014 -30.9012 -30.8937 -30.8934 -30.8929 -30.8927 -30.8901 -30.8901
     8.0295   8.3619   8.4071   8.4510   8.6547   8.6816   8.7872   8.8165
     8.9628   9.0066   9.0865   9.1284   9.2278   9.2328   9.2949   9.3135
     9.3158   9.3479   9.3671   9.3933   9.4068   9.4712   9.5043   9.5132
     9.5191   9.5547   9.5746   9.6010   9.6976   9.7078   9.7296   9.8661
     9.9049  10.0043  10.0065  10.0521  10.0749  10.1103  10.1125  10.1256
    10.1693  10.3280  10.3585  10.3963  10.4522  10.4884  10.5954  10.6140
    10.6147  10.6452  10.6679  10.7012  10.7683  10.7940  10.8648  10.9728
    11.0004  11.0246  11.0561  11.0919  11.0998  11.3196  11.4397  11.4626
    11.4923  11.5069  11.5077  11.5341  11.5608  11.5856  11.5857  11.6521
    11.7391  11.8279  11.8734  11.9337  11.9392  11.9915  11.9918  12.0015
    12.0047  12.0401  12.0964  12.1028  12.1191  12.2174  12.2453  12.3048
    12.3664  12.5237  12.6017  12.6451  12.6682  12.9016  12.9502  13.1097
    13.2650  13.7395  13.7909  14.1103  14.2339  14.5641  14.7229  15.0091
    15.0886  15.1731  15.2161  15.3368  15.4131  15.4864  15.8392  16.1381
    16.9019  16.9263  16.9715  17.0014  17.0492  17.0663  17.0777  17.1019
    17.1089  17.1982  17.2346  17.2858  17.4209  17.4923  17.5417  17.5858
    17.7107  17.7784  17.8210  17.9696  18.0089  18.0772  18.2232  18.3430
    18.3476  18.3637  18.3822  18.3888  18.5448  18.9348  19.0137  19.0539
    19.0580  19.1099

          k = 0.3750 0.3750 0.0242 ( 13940 PWs)   bands (ev):

   -66.7689 -66.7681 -62.1612 -62.1607 -62.0715 -62.0711 -62.0618 -62.0613
   -35.5399 -35.5398 -35.4959 -35.4959 -35.4949 -35.4949 -30.9933 -30.9931
   -30.9929 -30.9927 -30.9846 -30.9841 -30.9024 -30.9023 -30.9019 -30.9017
   -30.9014 -30.9012 -30.8937 -30.8934 -30.8929 -30.8927 -30.8901 -30.8901
     8.0295   8.3615   8.3941   8.4806   8.6058   8.7035   8.8034   8.8213
     8.9633   9.0032   9.0762   9.1280   9.1938   9.2609   9.2950   9.3060
     9.3328   9.3567   9.3647   9.4092   9.4157   9.4715   9.4742   9.4875
     9.5221   9.5524   9.6006   9.6155   9.6576   9.6933   9.7843   9.8787
     9.9041   9.9319  10.0296  10.0627  10.0749  10.0772  10.1180  10.1699
    10.1998  10.2809  10.3486  10.3991  10.4456  10.5377  10.5699  10.5958
    10.6309  10.6499  10.6681  10.7099  10.7345  10.8306  10.8650  10.9381
    10.9999  11.0403  11.0560  11.0996  11.0998  11.3174  11.4421  11.4580
    11.4959  11.5043  11.5080  11.5314  11.5631  11.5818  11.5885  11.6521
    11.7487  11.8094  11.8911  11.9339  11.9391  11.9750  11.9897  11.9947
    12.0197  12.0543  12.0687  12.1144  12.1330  12.1997  12.2543  12.3047
    12.3666  12.5331  12.6016  12.6021  12.7179  12.8567  12.9919  13.0923
    13.2720  13.7003  13.8531  14.0492  14.2865  14.5330  14.7401  15.0062
    15.0927  15.1566  15.2350  15.3265  15.4179  15.4854  15.8393  16.1384
    16.8856  16.9525  16.9685  16.9997  17.0380  17.0692  17.0780  17.1052
    17.1091  17.2041  17.2168  17.3291  17.3832  17.4618  17.5688  17.6022
    17.7049  17.7790  17.8168  17.9694  18.0089  18.0987  18.2301  18.2630
    18.3006  18.3281  18.4747  18.4810  18.6135  18.8153  18.8537  18.8991
    19.1000  19.2175

          k = 0.3750 0.3750-0.0484 ( 13950 PWs)   bands (ev):

   -66.7689 -66.7681 -62.1612 -62.1607 -62.0715 -62.0711 -62.0618 -62.0613
   -35.5399 -35.5398 -35.4959 -35.4959 -35.4949 -35.4949 -30.9933 -30.9931
   -30.9929 -30.9927 -30.9846 -30.9841 -30.9024 -30.9023 -30.9019 -30.9017
   -30.9014 -30.9012 -30.8937 -30.8934 -30.8929 -30.8927 -30.8901 -30.8901
     8.0296   8.3610   8.3864   8.5244   8.5535   8.7094   8.8221   8.8239
     8.9639   8.9996   9.0865   9.0897   9.2284   9.2314   9.2951   9.3052
     9.3301   9.3626   9.4115   9.4255   9.4315   9.4363   9.4476   9.4844
     9.4902   9.5946   9.6025   9.6099   9.6460   9.6803   9.8403   9.8695
     9.8976   9.9067   9.9934  10.0587  10.0749  10.1180  10.1188  10.1723
    10.2410  10.2755  10.2942  10.3795  10.5089  10.5175  10.5649  10.5905
    10.6326  10.6550  10.6775  10.7052  10.7170  10.8652  10.8748  10.8909
    10.9993  11.0477  11.0558  11.0998  11.1081  11.3151  11.4472  11.4512
    11.4994  11.5019  11.5080  11.5287  11.5655  11.5794  11.5895  11.6521
    11.7647  11.7882  11.9082  11.9342  11.9389  11.9581  11.9870  11.9938
    12.0401  12.0435  12.0671  12.1081  12.1616  12.1738  12.2600  12.3045
    12.3668  12.5575  12.5631  12.6015  12.7645  12.8097  13.0338  13.0612
    13.2786  13.6790  13.9311  13.9680  14.3317  14.4985  14.7544  15.0031
    15.0983  15.1432  15.2517  15.3144  15.4221  15.4843  15.8393  16.1387
    16.8768  16.9657  16.9826  16.9891  17.0255  17.0708  17.0782  17.1078
    17.1106  17.1848  17.2425  17.3446  17.3775  17.4181  17.5907  17.6149
    17.6980  17.7796  17.8125  17.9698  18.0089  18.1262  18.2364  18.2458
    18.2643  18.2745  18.6119  18.6363  18.6465  18.6565  18.6822  18.8369
    19.1242  19.2075

          k = 0.3750-0.5000 0.0000 ( 13934 PWs)   bands (ev):

   -66.7689 -66.7682 -62.1609 -62.1605 -62.0713 -62.0709 -62.0616 -62.0611
   -35.5398 -35.5397 -35.4975 -35.4965 -35.4958 -35.4948 -30.9954 -30.9950
   -30.9930 -30.9926 -30.9845 -30.9839 -30.9040 -30.9035 -30.9022 -30.9022
   -30.9016 -30.9011 -30.8958 -30.8950 -30.8933 -30.8926 -30.8900 -30.8900
     8.1528   8.1531   8.5188   8.5190   8.6111   8.6113   8.7606   8.7608
     8.9682   8.9682   9.1195   9.1196   9.2070   9.2071   9.2300   9.2300
     9.2785   9.2787   9.3400   9.3401   9.4186   9.4186   9.4602   9.4602
     9.4815   9.4817   9.6598   9.6599   9.6637   9.6637   9.9049   9.9049
     9.9429   9.9429  10.0301  10.0302  10.0576  10.0576  10.2538  10.2540
    10.3337  10.3337  10.4053  10.4054  10.6182  10.6182  10.6409  10.6409
    10.6761  10.6762  10.8359  10.8359  10.9528  10.9528  11.0531  11.0532
    11.2025  11.2026  11.2822  11.2822  11.3748  11.3748  11.4713  11.4715
    11.6148  11.6149  11.6712  11.6714  11.7350  11.7351  11.7687  11.7688
    11.9252  11.9254  11.9673  11.9673  12.0032  12.0033  12.0201  12.0201
    12.1679  12.1681  12.2273  12.2274  12.2710  12.2710  12.3204  12.3204
    12.4223  12.4225  12.9599  12.9601  13.0926  13.0927  13.1223  13.1225
    13.7835  13.7835  14.2132  14.2134  14.3471  14.3471  14.4828  14.4830
    14.6938  14.6940  14.8015  14.8020  14.9343  14.9344  15.9432  15.9433
    16.9441  16.9441  17.0113  17.0117  17.0325  17.0325  17.0565  17.0568
    17.1442  17.1443  17.2360  17.2360  17.5414  17.5415  17.7544  17.7547
    17.9554  17.9559  18.0166  18.0170  18.1188  18.1189  18.2366  18.2371
    18.2550  18.2553  18.6527  18.6529  18.7397  18.7400  18.8320  18.8321
    19.0585  19.0586

          k = 0.3750-0.5000 0.0242 ( 13948 PWs)   bands (ev):

   -66.7689 -66.7682 -62.1609 -62.1605 -62.0713 -62.0709 -62.0616 -62.0611
   -35.5398 -35.5397 -35.4975 -35.4965 -35.4958 -35.4948 -30.9954 -30.9950
   -30.9930 -30.9926 -30.9845 -30.9839 -30.9040 -30.9035 -30.9022 -30.9022
   -30.9016 -30.9011 -30.8958 -30.8950 -30.8933 -30.8926 -30.8900 -30.8900
     8.1529   8.1531   8.5150   8.5152   8.6240   8.6242   8.7422   8.7424
     8.9929   8.9930   9.1148   9.1149   9.1779   9.1780   9.2219   9.2219
     9.3029   9.3030   9.3497   9.3498   9.4083   9.4083   9.4707   9.4709
     9.4825   9.4826   9.6083   9.6083   9.7239   9.7239   9.8588   9.8588
     9.9624   9.9624  10.0253  10.0254  10.0907  10.0907  10.2401  10.2402
    10.2928  10.2929  10.4536  10.4536  10.6034  10.6034  10.6455  10.6456
    10.6845  10.6846  10.8017  10.8018  10.9839  10.9839  11.0619  11.0620
    11.1718  11.1718  11.3021  11.3021  11.3646  11.3647  11.4785  11.4787
    11.6076  11.6077  11.6778  11.6779  11.7320  11.7321  11.7692  11.7693
    11.9274  11.9276  11.9650  11.9651  12.0018  12.0019  12.0216  12.0216
    12.1687  12.1689  12.2196  12.2196  12.2779  12.2779  12.3280  12.3280
    12.4137  12.4139  12.9722  12.9724  13.0633  13.0633  13.1409  13.1411
    13.7828  13.7829  14.2191  14.2192  14.3324  14.3324  14.5012  14.5015
    14.6734  14.6736  14.8167  14.8173  14.9303  14.9304  15.9432  15.9433
    16.9462  16.9462  17.0115  17.0118  17.0343  17.0344  17.0578  17.0580
    17.1181  17.1181  17.2711  17.2712  17.5112  17.5112  17.7833  17.7836
    17.9370  17.9376  18.0277  18.0282  18.1240  18.1241  18.2057  18.2059
    18.2644  18.2651  18.6642  18.6644  18.7682  18.7683  18.8311  18.8312
    19.0168  19.0168

          k = 0.3750-0.5000-0.0484 ( 13940 PWs)   bands (ev):

   -66.7689 -66.7682 -62.1609 -62.1605 -62.0713 -62.0709 -62.0616 -62.0611
   -35.5398 -35.5397 -35.4975 -35.4965 -35.4958 -35.4948 -30.9954 -30.9950
   -30.9930 -30.9926 -30.9845 -30.9839 -30.9040 -30.9035 -30.9022 -30.9022
   -30.9016 -30.9011 -30.8958 -30.8950 -30.8933 -30.8926 -30.8900 -30.8900
     8.1529   8.1531   8.5117   8.5119   8.6398   8.6399   8.7217   8.7220
     9.0246   9.0248   9.1003   9.1005   9.1541   9.1541   9.2207   9.2208
     9.3146   9.3146   9.3609   9.3610   9.4041   9.4041   9.4624   9.4627
     9.5003   9.5004   9.5806   9.5806   9.7852   9.7852   9.7969   9.7969
     9.9694   9.9694  10.0234  10.0234  10.1370  10.1370  10.1989  10.1990
    10.2787  10.2789  10.4903  10.4903  10.5880  10.5880  10.6458  10.6460
    10.6977  10.6978  10.7705  10.7706  11.0053  11.0053  11.0874  11.0875
    11.1312  11.1312  11.3230  11.3231  11.3495  11.3496  11.4856  11.4857
    11.6008  11.6009  11.6841  11.6842  11.7286  11.7287  11.7696  11.7697
    11.9299  11.9301  11.9623  11.9625  12.0006  12.0007  12.0229  12.0229
    12.1696  12.1698  12.2135  12.2135  12.2823  12.2823  12.3385  12.3385
    12.4030  12.4032  12.9919  12.9921  13.0348  13.0348  13.1511  13.1513
    13.7822  13.7823  14.2261  14.2262  14.3181  14.3181  14.5204  14.5207
    14.6531  14.6533  14.8301  14.8307  14.9256  14.9256  15.9432  15.9433
    16.9484  16.9485  17.0116  17.0119  17.0367  17.0368  17.0607  17.0609
    17.0966  17.0967  17.3036  17.3038  17.4796  17.4797  17.8141  17.8144
    17.9159  17.9164  18.0370  18.0375  18.1349  18.1351  18.1759  18.1759
    18.2675  18.2682  18.6720  18.6722  18.8179  18.8179  18.8263  18.8263
    18.9616  18.9616

          k =-0.5000-0.5000 0.0000 ( 13964 PWs)   bands (ev):

   -66.7689 -66.7682 -62.1608 -62.1603 -62.0711 -62.0708 -62.0615 -62.0610
   -35.5397 -35.5396 -35.4973 -35.4973 -35.4963 -35.4963 -30.9952 -30.9952
   -30.9948 -30.9948 -30.9844 -30.9838 -30.9038 -30.9038 -30.9033 -30.9033
   -30.9021 -30.9021 -30.8955 -30.8955 -30.8948 -30.8948 -30.8899 -30.8899
     8.0682   8.0685   8.4630   8.4633   8.5595   8.5597   8.7251   8.7253
     8.8947   8.8947   9.1877   9.1878   9.2215   9.2217   9.2362   9.2362
     9.3007   9.3007   9.3229   9.3229   9.4248   9.4249   9.4505   9.4505
     9.4552   9.4552   9.6985   9.6985   9.7047   9.7047   9.8841   9.8841
     9.9160   9.9166  10.0032  10.0032  10.0702  10.0702  10.0782  10.0782
    10.4934  10.4934  10.5619  10.5621  10.5792  10.5792  10.6246  10.6246
    10.6963  10.6964  11.0453  11.0453  11.0974  11.0976  11.1141  11.1141
    11.3809  11.3809  11.4394  11.4404  11.5307  11.5307  11.5857  11.5857
    11.9246  11.9247  11.9538  11.9542  11.9979  11.9980  11.9991  11.9992
    12.0222  12.0222  12.0506  12.0511  12.0905  12.0906  12.0915  12.0915
    12.1762  12.1764  12.2220  12.2221  12.2408  12.2408  12.2756  12.2756
    12.2986  12.2988  13.3703  13.3705  13.3999  13.4005  13.4164  13.4170
    13.8754  13.8754  14.1309  14.1309  14.2672  14.2672  14.5478  14.5478
    14.6969  14.6969  14.8457  14.8457  15.2054  15.2054  16.6006  16.6006
    16.6412  16.6414  16.7895  16.7898  16.8936  16.8937  17.0051  17.0052
    17.1225  17.1225  17.4147  17.4147  17.5891  17.5891  17.7536  17.7537
    17.9415  17.9416  18.0892  18.0894  18.1664  18.1665  18.1861  18.1872
    18.1924  18.1939  18.3051  18.3051  18.4471  18.4471  18.5022  18.5024
    18.8095  18.8095

          k =-0.5000-0.5000 0.0242 ( 13960 PWs)   bands (ev):

   -66.7689 -66.7682 -62.1608 -62.1603 -62.0711 -62.0708 -62.0615 -62.0610
   -35.5397 -35.5396 -35.4973 -35.4973 -35.4963 -35.4963 -30.9952 -30.9952
   -30.9948 -30.9948 -30.9844 -30.9838 -30.9038 -30.9038 -30.9033 -30.9033
   -30.9021 -30.9021 -30.8955 -30.8955 -30.8948 -30.8948 -30.8899 -30.8899
     8.0683   8.0685   8.4590   8.4592   8.5740   8.5742   8.6997   8.6999
     8.9290   8.9290   9.1177   9.1178   9.2366   9.2366   9.2878   9.2879
     9.2931   9.2931   9.3384   9.3384   9.4083   9.4083   9.4085   9.4086
     9.5046   9.5046   9.6290   9.6290   9.7808   9.7808   9.8841   9.8841
     9.9167   9.9173   9.9541   9.9541  10.0316  10.0316  10.1703  10.1703
    10.4090  10.4090  10.5612  10.5613  10.6255  10.6255  10.6681  10.6681
    10.6960  10.6961  10.9433  10.9433  11.0973  11.0976  11.2166  11.2166
    11.3809  11.3809  11.4394  11.4404  11.4563  11.4563  11.6297  11.6297
    11.9246  11.9247  11.9538  11.9542  11.9979  11.9980  11.9991  11.9992
    12.0222  12.0222  12.0506  12.0511  12.0905  12.0906  12.0915  12.0915
    12.1760  12.1762  12.2231  12.2231  12.2398  12.2399  12.2744  12.2744
    12.2987  12.2989  13.3703  13.3705  13.3999  13.4005  13.4164  13.4170
    13.8823  13.8823  14.1022  14.1022  14.3039  14.3039  14.5215  14.5215
    14.7122  14.7122  14.8418  14.8418  15.2054  15.2054  16.6003  16.6003
    16.6413  16.6414  16.7885  16.7888  16.8967  16.8969  17.0022  17.0023
    17.1385  17.1385  17.3470  17.3470  17.6874  17.6874  17.7713  17.7714
    17.9081  17.9083  18.0892  18.0894  18.1320  18.1320  18.1861  18.1872
    18.1892  18.1892  18.1924  18.1939  18.4953  18.4954  18.6421  18.6421
    18.8101  18.8101

          k =-0.5000-0.5000-0.0484 ( 13992 PWs)   bands (ev):

   -66.7689 -66.7682 -62.1608 -62.1603 -62.0711 -62.0708 -62.0615 -62.0610
   -35.5397 -35.5396 -35.4973 -35.4973 -35.4963 -35.4963 -30.9952 -30.9952
   -30.9948 -30.9948 -30.9844 -30.9838 -30.9038 -30.9038 -30.9033 -30.9033
   -30.9021 -30.9021 -30.8955 -30.8955 -30.8948 -30.8948 -30.8899 -30.8899
     8.0683   8.0686   8.4556   8.4557   8.5929   8.5930   8.6728   8.6731
     8.9739   8.9740   9.0623   9.0625   9.2371   9.2371   9.2883   9.2883
     9.3426   9.3426   9.3614   9.3614   9.3751   9.3753   9.3776   9.3776
     9.5613   9.5613   9.5655   9.5655   9.8614   9.8614   9.8703   9.8703
     9.8845   9.8845   9.9174   9.9180  10.0286  10.0286  10.2478  10.2478
    10.3271  10.3271  10.5605  10.5606  10.6264  10.6264  10.6958  10.6959
    10.7596  10.7596  10.8483  10.8483  11.0973  11.0976  11.3359  11.3359
    11.3478  11.3478  11.3809  11.3809  11.4394  11.4404  11.6524  11.6524
    11.9246  11.9247  11.9538  11.9542  11.9979  11.9980  11.9991  11.9992
    12.0222  12.0222  12.0506  12.0511  12.0905  12.0906  12.0915  12.0915
    12.1758  12.1760  12.2242  12.2242  12.2388  12.2388  12.2731  12.2731
    12.2988  12.2990  13.3703  13.3705  13.3999  13.4005  13.4164  13.4170
    13.8902  13.8902  14.0787  14.0787  14.3396  14.3396  14.4922  14.4922
    14.7258  14.7258  14.8375  14.8375  15.2055  15.2055  16.6000  16.6000
    16.6413  16.6415  16.7876  16.7879  16.9000  16.9002  16.9991  16.9992
    17.1616  17.1616  17.2926  17.2926  17.8002  17.8003  17.8037  17.8037
    17.8664  17.8665  17.9876  17.9876  18.0892  18.0894  18.1861  18.1872
    18.1924  18.1939  18.2096  18.2097  18.4879  18.4880  18.8107  18.8107
    18.8925  18.8925

     the Fermi energy is    15.2187 ev

!    total energy              =  -14694.00952169 Ry
     Harris-Foulkes estimate   =  -14694.00951944 Ry
     estimated scf accuracy    <       0.00000084 Ry

     total all-electron energy =   -626921.605244 Ry

     The total energy is the sum of the following terms:

     one-electron contribution =    -714.69313660 Ry
     hartree contribution      =     656.69696168 Ry
     xc contribution           =    -737.85790394 Ry
     ewald contribution        =   -2196.78933708 Ry
     Hubbard energy            =       0.45976998 Ry
     one-center paw contrib.   =  -11701.82587572 Ry

     total magnetization       =    17.05 Bohr mag/cell
     absolute magnetization    =    37.05 Bohr mag/cell

     convergence has been achieved in  32 iterations

     Writing output data file mnau2.save/
 
     init_run     :     84.12s CPU     86.34s WALL (       1 calls)
     electrons    :   5464.94s CPU   5579.66s WALL (       1 calls)

     Called by init_run:
     wfcinit      :     80.37s CPU     82.37s WALL (       1 calls)
     potinit      :      1.66s CPU      1.73s WALL (       1 calls)
     hinit0       :      1.19s CPU      1.26s WALL (       1 calls)

     Called by electrons:
     c_bands      :   4781.18s CPU   4873.17s WALL (      32 calls)
     sum_band     :    631.10s CPU    652.72s WALL (      32 calls)
     v_of_rho     :      3.94s CPU      3.98s WALL (      33 calls)
     newd         :     16.98s CPU     17.20s WALL (      33 calls)
     PAW_pot      :     31.35s CPU     31.66s WALL (      33 calls)
     mix_rho      :      1.30s CPU      1.48s WALL (      32 calls)

     Called by c_bands:
     init_us_2    :     24.42s CPU     24.58s WALL (    5940 calls)
     cegterg      :   4635.26s CPU   4723.61s WALL (    2880 calls)

     Called by sum_band:
     sum_band:bec :      7.15s CPU      7.20s WALL (    2880 calls)
     addusdens    :     29.48s CPU     29.78s WALL (      32 calls)

     Called by *egterg:
     h_psi        :   2250.12s CPU   2306.38s WALL (    9074 calls)
     s_psi        :    336.32s CPU    336.58s WALL (    9164 calls)
     g_psi        :      3.32s CPU      3.35s WALL (    6104 calls)
     cdiaghg      :   1243.90s CPU   1272.23s WALL (    8984 calls)

     Called by h_psi:
     h_psi:pot    :   2114.10s CPU   2169.65s WALL (    9074 calls)
     h_psi:calbec :    384.79s CPU    407.10s WALL (    9074 calls)
     vloc_psi     :   1396.72s CPU   1429.66s WALL (    9074 calls)
     add_vuspsi   :    332.38s CPU    332.72s WALL (    9074 calls)
     vhpsi        :    128.66s CPU    129.27s WALL (    9074 calls)

     General routines
     calbec       :    655.87s CPU    689.82s WALL (   23998 calls)
     fft          :      2.68s CPU      2.74s WALL (     821 calls)
     ffts         :      0.17s CPU      0.18s WALL (     130 calls)
     fftw         :   1675.04s CPU   1714.63s WALL ( 2670308 calls)
     interpolate  :      0.36s CPU      0.36s WALL (      66 calls)
     davcio       :      0.02s CPU      3.44s WALL (      90 calls)
 
     Parallel routines
     fft_scatt_xy :     62.75s CPU     63.83s WALL ( 2671259 calls)
     fft_scatt_yz :   1313.52s CPU   1346.47s WALL ( 2671259 calls)

     Hubbard U routines
     new_ns       :     27.28s CPU     29.79s WALL (      32 calls)
     vhpsi        :    128.66s CPU    129.27s WALL (    9074 calls)
 
     PWSCF        :     1h32m CPU       32h 1m WALL

      35h
 
   This run was terminated on:   3:33:54   8Apr2019            

=------------------------------------------------------------------------------=
   JOB DONE.
=------------------------------------------------------------------------------=
