
     Program PWSCF v.6.3MaX starts on  8Apr2019 at  3:33:57 

     This program is part of the open-source Quantum ESPRESSO suite
     for quantum simulation of materials; please cite
         "P. Giannozzi et al., J. Phys.:Condens. Matter 21 395502 (2009);
         "P. Giannozzi et al., J. Phys.:Condens. Matter 29 465901 (2017);
          URL http://www.quantum-espresso.org", 
     in publications or presentations arising from this work. More details at
     http://www.quantum-espresso.org/quote

     Parallel version (MPI), running on    32 processors

     MPI processes distributed on     2 nodes
     R & G space division:  proc/nbgrp/npool/nimage =      32
     Waiting for input...
     Reading input from standard input

     Current dimensions of program PWSCF are:
     Max number of different atomic species (ntypx) = 10
     Max number of k-points (npk) =  40000
     Max angular momentum in pseudopotentials (lmaxx) =  3
               file Mn.pbe-spn-kjpaw_psl.0.3.1.UPF: wavefunction(s)  3P 3D renormalized
               file Mn.pbe-spn-kjpaw_psl.0.3.1.UPF: wavefunction(s)  3P 3D renormalized
               file Au.pbe-dn-kjpaw_psl.0.1.UPF: wavefunction(s)  6S 6P 5D renormalized

     Subspace diagonalization in iterative solution of the eigenvalue problem:
     one sub-group per band group will be used
     scalapack distributed-memory algorithm (size of sub-group:  4*  4 procs)

 
     Parallelization info
     --------------------
     sticks:   dense  smooth     PW     G-vecs:    dense   smooth      PW
     Min          41      18      5                11487     3460     563
     Max          42      19      6                11527     3505     606
     Sum        1313     593    177               368373   111379   18691
 


     bravais-lattice index     =            0
     lattice parameter (alat)  =       6.4153  a.u.
     unit-cell volume          =    2724.7774 (a.u.)^3
     number of atoms/cell      =           24
     number of atomic types    =            3
     number of electrons       =       296.00
     number of Kohn-Sham states=          178
     kinetic-energy cutoff     =      45.0000  Ry
     charge density cutoff     =     400.0000  Ry
     convergence threshold     =      1.0E-06
     mixing beta               =       0.1000
     number of iterations used =            8  plain     mixing
     Exchange-correlation      = SLA PW PBX PBC ( 1  4  3  4 0 0)

     celldm(1)=   6.415315  celldm(2)=   0.000000  celldm(3)=   0.000000
     celldm(4)=   0.000000  celldm(5)=   0.000000  celldm(6)=   0.000000

     crystal axes: (cart. coord. in units of alat)
               a(1) = (   1.000000   0.000000   0.000000 )  
               a(2) = (   0.000000   1.000000   0.000000 )  
               a(3) = (   0.000000   0.000000  10.319937 )  

     reciprocal axes: (cart. coord. in units 2 pi/alat)
               b(1) = (  1.000000  0.000000  0.000000 )  
               b(2) = (  0.000000  1.000000  0.000000 )  
               b(3) = (  0.000000  0.000000  0.096900 )  


     PseudoPot. # 1 for Mn read from file:
     ./pseudo/Mn.pbe-spn-kjpaw_psl.0.3.1.UPF
     MD5 check sum: 7b43a3fb0e93e198b8dd8488d8cf503e
     Pseudo is Projector augmented-wave + core cor, Zval = 15.0
     Generated using "atomic" code by A. Dal Corso v.5.0.99 svn rev. 10869
     Shape of augmentation charge: PSQ
     Using radial grid of 1187 points,  6 beta functions with: 
                l(1) =   0
                l(2) =   0
                l(3) =   1
                l(4) =   1
                l(5) =   2
                l(6) =   2
     Q(r) pseudized with 0 coefficients 


     PseudoPot. # 2 for Mn read from file:
     ./pseudo/Mn.pbe-spn-kjpaw_psl.0.3.1.UPF
     MD5 check sum: 7b43a3fb0e93e198b8dd8488d8cf503e
     Pseudo is Projector augmented-wave + core cor, Zval = 15.0
     Generated using "atomic" code by A. Dal Corso v.5.0.99 svn rev. 10869
     Shape of augmentation charge: PSQ
     Using radial grid of 1187 points,  6 beta functions with: 
                l(1) =   0
                l(2) =   0
                l(3) =   1
                l(4) =   1
                l(5) =   2
                l(6) =   2
     Q(r) pseudized with 0 coefficients 


     PseudoPot. # 3 for Au read from file:
     ./pseudo/Au.pbe-dn-kjpaw_psl.0.1.UPF
     MD5 check sum: be11e2e8e535ebe2b3ccfb4f88f554cb
     Pseudo is Projector augmented-wave + core cor, Zval = 11.0
     Generated using "atomic" code by A. Dal Corso v.5.0.2 svn rev. 9415
     Shape of augmentation charge: PSQ
     Using radial grid of 1279 points,  6 beta functions with: 
                l(1) =   0
                l(2) =   0
                l(3) =   1
                l(4) =   1
                l(5) =   2
                l(6) =   2
     Q(r) pseudized with 0 coefficients 


     atomic species   valence    mass     pseudopotential
        Mn1           15.00    54.93800     Mn( 1.00)
        Mn2           15.00    54.93800     Mn( 1.00)
        Au            11.00   196.96600     Au( 1.00)

     Starting magnetic structure 
     atomic species   magnetization
        Mn1          0.800
        Mn2         -0.800
        Au           0.000


     Full LDA+U calculation (l_max = 2) with parameters (eV):
     U(  1) =   3.1200   J(  1) =   0.7000   B(  1) =   0.0803
     U(  2) =   3.1200   J(  2) =   0.7000   B(  2) =   0.0803



     16 Sym. Ops., with inversion, found ( 8 have fractional translation)



   Cartesian axes

     site n.     atom                  positions (alat units)
         1           Mn1 tau(   1) = (   0.0000000   0.0000000   0.0000000  )
         2           Mn1 tau(   2) = (   0.5000000   0.5000000   1.2899921  )
         3           Mn1 tau(   3) = (   0.0000000   0.0000000   2.5799843  )
         4           Mn1 tau(   4) = (   0.5000000   0.5000000   3.8699764  )
         5           Mn1 tau(   5) = (   0.0000000   0.0000000   5.1599686  )
         6           Mn2 tau(   6) = (   0.5000000   0.5000000   6.4499607  )
         7           Mn1 tau(   7) = (   0.0000000   0.0000000   7.7399528  )
         8           Mn2 tau(   8) = (   0.5000000   0.5000000   9.0299450  )
         9           Au  tau(   9) = (   0.5000000   0.5000000   0.4127975  )
        10           Au  tau(  10) = (   0.0000000   0.0000000   0.8771947  )
        11           Au  tau(  11) = (   0.0000000   0.0000000   1.7027896  )
        12           Au  tau(  12) = (   0.5000000   0.5000000   2.1671868  )
        13           Au  tau(  13) = (   0.5000000   0.5000000   2.9927818  )
        14           Au  tau(  14) = (   0.0000000   0.0000000   3.4571789  )
        15           Au  tau(  15) = (   0.0000000   0.0000000   4.2827739  )
        16           Au  tau(  16) = (   0.5000000   0.5000000   4.7471711  )
        17           Au  tau(  17) = (   0.5000000   0.5000000   5.5727660  )
        18           Au  tau(  18) = (   0.0000000   0.0000000   6.0371632  )
        19           Au  tau(  19) = (   0.0000000   0.0000000   6.8627582  )
        20           Au  tau(  20) = (   0.5000000   0.5000000   7.3271553  )
        21           Au  tau(  21) = (   0.5000000   0.5000000   8.1527503  )
        22           Au  tau(  22) = (   0.0000000   0.0000000   8.6171475  )
        23           Au  tau(  23) = (   0.0000000   0.0000000   9.4427424  )
        24           Au  tau(  24) = (   0.5000000   0.5000000   9.9071396  )

     number of k points=    45 (tetrahedron method)
                       cart. coord. in units 2pi/alat
        k(    1) = (   0.0000000   0.0000000   0.0000000), wk =   0.0039062
        k(    2) = (   0.0000000   0.0000000   0.0242250), wk =   0.0078125
        k(    3) = (   0.0000000   0.0000000  -0.0484499), wk =   0.0039062
        k(    4) = (   0.0000000   0.1250000   0.0000000), wk =   0.0156250
        k(    5) = (   0.0000000   0.1250000   0.0242250), wk =   0.0312500
        k(    6) = (   0.0000000   0.1250000  -0.0484499), wk =   0.0156250
        k(    7) = (   0.0000000   0.2500000   0.0000000), wk =   0.0156250
        k(    8) = (   0.0000000   0.2500000   0.0242250), wk =   0.0312500
        k(    9) = (   0.0000000   0.2500000  -0.0484499), wk =   0.0156250
        k(   10) = (   0.0000000   0.3750000   0.0000000), wk =   0.0156250
        k(   11) = (   0.0000000   0.3750000   0.0242250), wk =   0.0312500
        k(   12) = (   0.0000000   0.3750000  -0.0484499), wk =   0.0156250
        k(   13) = (   0.0000000  -0.5000000   0.0000000), wk =   0.0078125
        k(   14) = (   0.0000000  -0.5000000   0.0242250), wk =   0.0156250
        k(   15) = (   0.0000000  -0.5000000  -0.0484499), wk =   0.0078125
        k(   16) = (   0.1250000   0.1250000   0.0000000), wk =   0.0156250
        k(   17) = (   0.1250000   0.1250000   0.0242250), wk =   0.0312500
        k(   18) = (   0.1250000   0.1250000  -0.0484499), wk =   0.0156250
        k(   19) = (   0.1250000   0.2500000   0.0000000), wk =   0.0312500
        k(   20) = (   0.1250000   0.2500000   0.0242250), wk =   0.0625000
        k(   21) = (   0.1250000   0.2500000  -0.0484499), wk =   0.0312500
        k(   22) = (   0.1250000   0.3750000   0.0000000), wk =   0.0312500
        k(   23) = (   0.1250000   0.3750000   0.0242250), wk =   0.0625000
        k(   24) = (   0.1250000   0.3750000  -0.0484499), wk =   0.0312500
        k(   25) = (   0.1250000  -0.5000000   0.0000000), wk =   0.0156250
        k(   26) = (   0.1250000  -0.5000000   0.0242250), wk =   0.0312500
        k(   27) = (   0.1250000  -0.5000000  -0.0484499), wk =   0.0156250
        k(   28) = (   0.2500000   0.2500000   0.0000000), wk =   0.0156250
        k(   29) = (   0.2500000   0.2500000   0.0242250), wk =   0.0312500
        k(   30) = (   0.2500000   0.2500000  -0.0484499), wk =   0.0156250
        k(   31) = (   0.2500000   0.3750000   0.0000000), wk =   0.0312500
        k(   32) = (   0.2500000   0.3750000   0.0242250), wk =   0.0625000
        k(   33) = (   0.2500000   0.3750000  -0.0484499), wk =   0.0312500
        k(   34) = (   0.2500000  -0.5000000   0.0000000), wk =   0.0156250
        k(   35) = (   0.2500000  -0.5000000   0.0242250), wk =   0.0312500
        k(   36) = (   0.2500000  -0.5000000  -0.0484499), wk =   0.0156250
        k(   37) = (   0.3750000   0.3750000   0.0000000), wk =   0.0156250
        k(   38) = (   0.3750000   0.3750000   0.0242250), wk =   0.0312500
        k(   39) = (   0.3750000   0.3750000  -0.0484499), wk =   0.0156250
        k(   40) = (   0.3750000  -0.5000000   0.0000000), wk =   0.0156250
        k(   41) = (   0.3750000  -0.5000000   0.0242250), wk =   0.0312500
        k(   42) = (   0.3750000  -0.5000000  -0.0484499), wk =   0.0156250
        k(   43) = (  -0.5000000  -0.5000000   0.0000000), wk =   0.0039062
        k(   44) = (  -0.5000000  -0.5000000   0.0242250), wk =   0.0078125
        k(   45) = (  -0.5000000  -0.5000000  -0.0484499), wk =   0.0039062

     Dense  grid:   368373 G-vectors     FFT dimensions: (  45,  45, 432)

     Smooth grid:   111379 G-vectors     FFT dimensions: (  27,  27, 288)

     Estimated max dynamical RAM per process >     186.81 MB

     Estimated total dynamical RAM >       5.84 GB
     Generating pointlists ...
     new r_m :   0.3377 (alat units)  2.1668 (a.u.) for type    1
     new r_m :   0.3377 (alat units)  2.1668 (a.u.) for type    2
     new r_m :   0.3377 (alat units)  2.1668 (a.u.) for type    3

     Check: negative/imaginary core charge=   -0.000006    0.000000

     Initial potential from superposition of free atoms

     starting charge  295.99426, renormalised to  296.00000
     Number of +U iterations with fixed ns =  0
     Starting occupations:
 --- enter write_ns ---
 LDA+U parameters:
U(  1) =   3.1200   J(  1) =   0.7000   B(  1) =   0.0803
U(  2) =   3.1200   J(  2) =   0.7000   B(  2) =   0.0803
atom    1   Tr[ns(na)] (up, down, total) =   5.00000  0.00000  5.00000
   spin  1
    eigenvalues: 
  1.000  1.000  1.000  1.000  1.000
    eigenvectors:
  1.000  0.000  0.000  0.000  0.000
  0.000  1.000  0.000  0.000  0.000
  0.000  0.000  1.000  0.000  0.000
  0.000  0.000  0.000  1.000  0.000
  0.000  0.000  0.000  0.000  1.000
    occupations:
  1.000  0.000  0.000  0.000  0.000
  0.000  1.000  0.000  0.000  0.000
  0.000  0.000  1.000  0.000  0.000
  0.000  0.000  0.000  1.000  0.000
  0.000  0.000  0.000  0.000  1.000
   spin  2
    eigenvalues: 
  0.000  0.000  0.000  0.000  0.000
    eigenvectors:
  1.000  0.000  0.000  0.000  0.000
  0.000  1.000  0.000  0.000  0.000
  0.000  0.000  1.000  0.000  0.000
  0.000  0.000  0.000  1.000  0.000
  0.000  0.000  0.000  0.000  1.000
    occupations:
  0.000  0.000  0.000  0.000  0.000
  0.000  0.000  0.000  0.000  0.000
  0.000  0.000  0.000  0.000  0.000
  0.000  0.000  0.000  0.000  0.000
  0.000  0.000  0.000  0.000  0.000
atomic mag. moment =     5.000000
atom    2   Tr[ns(na)] (up, down, total) =   5.00000  0.00000  5.00000
   spin  1
    eigenvalues: 
  1.000  1.000  1.000  1.000  1.000
    eigenvectors:
  1.000  0.000  0.000  0.000  0.000
  0.000  1.000  0.000  0.000  0.000
  0.000  0.000  1.000  0.000  0.000
  0.000  0.000  0.000  1.000  0.000
  0.000  0.000  0.000  0.000  1.000
    occupations:
  1.000  0.000  0.000  0.000  0.000
  0.000  1.000  0.000  0.000  0.000
  0.000  0.000  1.000  0.000  0.000
  0.000  0.000  0.000  1.000  0.000
  0.000  0.000  0.000  0.000  1.000
   spin  2
    eigenvalues: 
  0.000  0.000  0.000  0.000  0.000
    eigenvectors:
  1.000  0.000  0.000  0.000  0.000
  0.000  1.000  0.000  0.000  0.000
  0.000  0.000  1.000  0.000  0.000
  0.000  0.000  0.000  1.000  0.000
  0.000  0.000  0.000  0.000  1.000
    occupations:
  0.000  0.000  0.000  0.000  0.000
  0.000  0.000  0.000  0.000  0.000
  0.000  0.000  0.000  0.000  0.000
  0.000  0.000  0.000  0.000  0.000
  0.000  0.000  0.000  0.000  0.000
atomic mag. moment =     5.000000
atom    3   Tr[ns(na)] (up, down, total) =   5.00000  0.00000  5.00000
   spin  1
    eigenvalues: 
  1.000  1.000  1.000  1.000  1.000
    eigenvectors:
  1.000  0.000  0.000  0.000  0.000
  0.000  1.000  0.000  0.000  0.000
  0.000  0.000  1.000  0.000  0.000
  0.000  0.000  0.000  1.000  0.000
  0.000  0.000  0.000  0.000  1.000
    occupations:
  1.000  0.000  0.000  0.000  0.000
  0.000  1.000  0.000  0.000  0.000
  0.000  0.000  1.000  0.000  0.000
  0.000  0.000  0.000  1.000  0.000
  0.000  0.000  0.000  0.000  1.000
   spin  2
    eigenvalues: 
  0.000  0.000  0.000  0.000  0.000
    eigenvectors:
  1.000  0.000  0.000  0.000  0.000
  0.000  1.000  0.000  0.000  0.000
  0.000  0.000  1.000  0.000  0.000
  0.000  0.000  0.000  1.000  0.000
  0.000  0.000  0.000  0.000  1.000
    occupations:
  0.000  0.000  0.000  0.000  0.000
  0.000  0.000  0.000  0.000  0.000
  0.000  0.000  0.000  0.000  0.000
  0.000  0.000  0.000  0.000  0.000
  0.000  0.000  0.000  0.000  0.000
atomic mag. moment =     5.000000
atom    4   Tr[ns(na)] (up, down, total) =   5.00000  0.00000  5.00000
   spin  1
    eigenvalues: 
  1.000  1.000  1.000  1.000  1.000
    eigenvectors:
  1.000  0.000  0.000  0.000  0.000
  0.000  1.000  0.000  0.000  0.000
  0.000  0.000  1.000  0.000  0.000
  0.000  0.000  0.000  1.000  0.000
  0.000  0.000  0.000  0.000  1.000
    occupations:
  1.000  0.000  0.000  0.000  0.000
  0.000  1.000  0.000  0.000  0.000
  0.000  0.000  1.000  0.000  0.000
  0.000  0.000  0.000  1.000  0.000
  0.000  0.000  0.000  0.000  1.000
   spin  2
    eigenvalues: 
  0.000  0.000  0.000  0.000  0.000
    eigenvectors:
  1.000  0.000  0.000  0.000  0.000
  0.000  1.000  0.000  0.000  0.000
  0.000  0.000  1.000  0.000  0.000
  0.000  0.000  0.000  1.000  0.000
  0.000  0.000  0.000  0.000  1.000
    occupations:
  0.000  0.000  0.000  0.000  0.000
  0.000  0.000  0.000  0.000  0.000
  0.000  0.000  0.000  0.000  0.000
  0.000  0.000  0.000  0.000  0.000
  0.000  0.000  0.000  0.000  0.000
atomic mag. moment =     5.000000
atom    5   Tr[ns(na)] (up, down, total) =   5.00000  0.00000  5.00000
   spin  1
    eigenvalues: 
  1.000  1.000  1.000  1.000  1.000
    eigenvectors:
  1.000  0.000  0.000  0.000  0.000
  0.000  1.000  0.000  0.000  0.000
  0.000  0.000  1.000  0.000  0.000
  0.000  0.000  0.000  1.000  0.000
  0.000  0.000  0.000  0.000  1.000
    occupations:
  1.000  0.000  0.000  0.000  0.000
  0.000  1.000  0.000  0.000  0.000
  0.000  0.000  1.000  0.000  0.000
  0.000  0.000  0.000  1.000  0.000
  0.000  0.000  0.000  0.000  1.000
   spin  2
    eigenvalues: 
  0.000  0.000  0.000  0.000  0.000
    eigenvectors:
  1.000  0.000  0.000  0.000  0.000
  0.000  1.000  0.000  0.000  0.000
  0.000  0.000  1.000  0.000  0.000
  0.000  0.000  0.000  1.000  0.000
  0.000  0.000  0.000  0.000  1.000
    occupations:
  0.000  0.000  0.000  0.000  0.000
  0.000  0.000  0.000  0.000  0.000
  0.000  0.000  0.000  0.000  0.000
  0.000  0.000  0.000  0.000  0.000
  0.000  0.000  0.000  0.000  0.000
atomic mag. moment =     5.000000
atom    6   Tr[ns(na)] (up, down, total) =   0.00000  5.00000  5.00000
   spin  1
    eigenvalues: 
  0.000  0.000  0.000  0.000  0.000
    eigenvectors:
  1.000  0.000  0.000  0.000  0.000
  0.000  1.000  0.000  0.000  0.000
  0.000  0.000  1.000  0.000  0.000
  0.000  0.000  0.000  1.000  0.000
  0.000  0.000  0.000  0.000  1.000
    occupations:
  0.000  0.000  0.000  0.000  0.000
  0.000  0.000  0.000  0.000  0.000
  0.000  0.000  0.000  0.000  0.000
  0.000  0.000  0.000  0.000  0.000
  0.000  0.000  0.000  0.000  0.000
   spin  2
    eigenvalues: 
  1.000  1.000  1.000  1.000  1.000
    eigenvectors:
  1.000  0.000  0.000  0.000  0.000
  0.000  1.000  0.000  0.000  0.000
  0.000  0.000  1.000  0.000  0.000
  0.000  0.000  0.000  1.000  0.000
  0.000  0.000  0.000  0.000  1.000
    occupations:
  1.000  0.000  0.000  0.000  0.000
  0.000  1.000  0.000  0.000  0.000
  0.000  0.000  1.000  0.000  0.000
  0.000  0.000  0.000  1.000  0.000
  0.000  0.000  0.000  0.000  1.000
atomic mag. moment =    -5.000000
atom    7   Tr[ns(na)] (up, down, total) =   5.00000  0.00000  5.00000
   spin  1
    eigenvalues: 
  1.000  1.000  1.000  1.000  1.000
    eigenvectors:
  1.000  0.000  0.000  0.000  0.000
  0.000  1.000  0.000  0.000  0.000
  0.000  0.000  1.000  0.000  0.000
  0.000  0.000  0.000  1.000  0.000
  0.000  0.000  0.000  0.000  1.000
    occupations:
  1.000  0.000  0.000  0.000  0.000
  0.000  1.000  0.000  0.000  0.000
  0.000  0.000  1.000  0.000  0.000
  0.000  0.000  0.000  1.000  0.000
  0.000  0.000  0.000  0.000  1.000
   spin  2
    eigenvalues: 
  0.000  0.000  0.000  0.000  0.000
    eigenvectors:
  1.000  0.000  0.000  0.000  0.000
  0.000  1.000  0.000  0.000  0.000
  0.000  0.000  1.000  0.000  0.000
  0.000  0.000  0.000  1.000  0.000
  0.000  0.000  0.000  0.000  1.000
    occupations:
  0.000  0.000  0.000  0.000  0.000
  0.000  0.000  0.000  0.000  0.000
  0.000  0.000  0.000  0.000  0.000
  0.000  0.000  0.000  0.000  0.000
  0.000  0.000  0.000  0.000  0.000
atomic mag. moment =     5.000000
atom    8   Tr[ns(na)] (up, down, total) =   0.00000  5.00000  5.00000
   spin  1
    eigenvalues: 
  0.000  0.000  0.000  0.000  0.000
    eigenvectors:
  1.000  0.000  0.000  0.000  0.000
  0.000  1.000  0.000  0.000  0.000
  0.000  0.000  1.000  0.000  0.000
  0.000  0.000  0.000  1.000  0.000
  0.000  0.000  0.000  0.000  1.000
    occupations:
  0.000  0.000  0.000  0.000  0.000
  0.000  0.000  0.000  0.000  0.000
  0.000  0.000  0.000  0.000  0.000
  0.000  0.000  0.000  0.000  0.000
  0.000  0.000  0.000  0.000  0.000
   spin  2
    eigenvalues: 
  1.000  1.000  1.000  1.000  1.000
    eigenvectors:
  1.000  0.000  0.000  0.000  0.000
  0.000  1.000  0.000  0.000  0.000
  0.000  0.000  1.000  0.000  0.000
  0.000  0.000  0.000  1.000  0.000
  0.000  0.000  0.000  0.000  1.000
    occupations:
  1.000  0.000  0.000  0.000  0.000
  0.000  1.000  0.000  0.000  0.000
  0.000  0.000  1.000  0.000  0.000
  0.000  0.000  0.000  1.000  0.000
  0.000  0.000  0.000  0.000  1.000
atomic mag. moment =    -5.000000
N of occupied +U levels =   40.000000
 --- exit write_ns ---
 Atomic wfc used for LDA+U Projector are NOT orthogonalized
     Starting wfcs are  224 randomized atomic wfcs
     Checking if some PAW data can be deallocated... 

     total cpu time spent up to now is       93.8 secs

     Self-consistent Calculation

     iteration #  1     ecut=    45.00 Ry     beta= 0.10
     Davidson diagonalization with overlap
     ethr =  1.00E-02,  avg # of iterations =  3.8
 --- enter write_ns ---
 LDA+U parameters:
U(  1) =   3.1200   J(  1) =   0.7000   B(  1) =   0.0803
U(  2) =   3.1200   J(  2) =   0.7000   B(  2) =   0.0803
atom    1   Tr[ns(na)] (up, down, total) =   5.01739  0.40621  5.42360
   spin  1
    eigenvalues: 
  1.003  1.003  1.003  1.004  1.004
    eigenvectors:
  0.000  0.000  0.000  1.000  0.000
  0.000  0.320  0.680  0.000  0.000
  0.000  0.680  0.320  0.000  0.000
  0.000  0.000  0.000  0.000  1.000
  1.000  0.000  0.000  0.000  0.000
    occupations:
  1.004 -0.000 -0.000  0.000  0.000
 -0.000  1.003 -0.000  0.000  0.000
 -0.000 -0.000  1.003  0.000  0.000
  0.000  0.000  0.000  1.004 -0.000
  0.000  0.000  0.000 -0.000  1.003
   spin  2
    eigenvalues: 
  0.053  0.072  0.080  0.080  0.120
    eigenvectors:
  0.000  1.000  0.000  0.000  0.000
  0.000  0.000  0.270  0.730  0.000
  0.000  0.000  0.730  0.270  0.000
  1.000  0.000  0.000  0.000  0.000
  0.000  0.000  0.000  0.000  1.000
    occupations:
  0.072 -0.000 -0.000  0.000  0.000
 -0.000  0.080 -0.000  0.000  0.000
 -0.000 -0.000  0.080  0.000  0.000
  0.000  0.000  0.000  0.053 -0.000
  0.000  0.000  0.000 -0.000  0.120
atomic mag. moment =     4.611180
atom    2   Tr[ns(na)] (up, down, total) =   5.01748  0.40218  5.41966
   spin  1
    eigenvalues: 
  1.003  1.003  1.003  1.004  1.004
    eigenvectors:
  0.000  0.000  0.000  1.000  0.000
  0.000  0.291  0.709  0.000  0.000
  0.000  0.709  0.291  0.000  0.000
  0.000  0.000  0.000  0.000  1.000
  1.000  0.000  0.000  0.000  0.000
    occupations:
  1.004 -0.000 -0.000  0.000  0.000
 -0.000  1.003 -0.000  0.000  0.000
 -0.000 -0.000  1.003  0.000  0.000
  0.000  0.000  0.000  1.004 -0.000
  0.000  0.000  0.000 -0.000  1.003
   spin  2
    eigenvalues: 
  0.053  0.073  0.081  0.081  0.114
    eigenvectors:
  0.000  1.000  0.000  0.000  0.000
  0.000  0.000  0.387  0.613  0.000
  0.000  0.000  0.613  0.387  0.000
  1.000  0.000  0.000  0.000  0.000
  0.000  0.000  0.000  0.000  1.000
    occupations:
  0.073 -0.000 -0.000  0.000  0.000
 -0.000  0.081 -0.000  0.000  0.000
 -0.000 -0.000  0.081  0.000  0.000
  0.000  0.000  0.000  0.053 -0.000
  0.000  0.000  0.000 -0.000  0.114
atomic mag. moment =     4.615296
atom    3   Tr[ns(na)] (up, down, total) =   5.01756  0.40114  5.41869
   spin  1
    eigenvalues: 
  1.003  1.003  1.003  1.004  1.004
    eigenvectors:
  0.000  0.000  0.000  1.000  0.000
  0.000  0.331  0.669  0.000  0.000
  0.000  0.669  0.331  0.000  0.000
  0.000  0.000  0.000  0.000  1.000
  1.000  0.000  0.000  0.000  0.000
    occupations:
  1.004 -0.000 -0.000  0.000  0.000
 -0.000  1.003 -0.000  0.000  0.000
 -0.000 -0.000  1.003  0.000  0.000
  0.000  0.000  0.000  1.004 -0.000
  0.000  0.000  0.000 -0.000  1.003
   spin  2
    eigenvalues: 
  0.052  0.073  0.080  0.080  0.115
    eigenvectors:
  0.000  1.000  0.000  0.000  0.000
  0.000  0.000  0.305  0.695  0.000
  0.000  0.000  0.695  0.305  0.000
  1.000  0.000  0.000  0.000  0.000
  0.000  0.000  0.000  0.000  1.000
    occupations:
  0.073 -0.000 -0.000  0.000  0.000
 -0.000  0.080 -0.000  0.000  0.000
 -0.000 -0.000  0.080  0.000  0.000
  0.000  0.000  0.000  0.052 -0.000
  0.000  0.000  0.000 -0.000  0.115
atomic mag. moment =     4.616422
atom    4   Tr[ns(na)] (up, down, total) =   5.01748  0.40218  5.41966
   spin  1
    eigenvalues: 
  1.003  1.003  1.003  1.004  1.004
    eigenvectors:
  0.000  0.000  0.000  1.000  0.000
  0.000  0.284  0.716  0.000  0.000
  0.000  0.716  0.284  0.000  0.000
  0.000  0.000  0.000  0.000  1.000
  1.000  0.000  0.000  0.000  0.000
    occupations:
  1.004 -0.000 -0.000  0.000  0.000
 -0.000  1.003 -0.000  0.000  0.000
 -0.000 -0.000  1.003  0.000  0.000
  0.000  0.000  0.000  1.004 -0.000
  0.000  0.000  0.000 -0.000  1.003
   spin  2
    eigenvalues: 
  0.053  0.073  0.081  0.081  0.114
    eigenvectors:
  0.000  1.000  0.000  0.000  0.000
  0.000  0.000  0.364  0.636  0.000
  0.000  0.000  0.636  0.364  0.000
  1.000  0.000  0.000  0.000  0.000
  0.000  0.000  0.000  0.000  1.000
    occupations:
  0.073 -0.000 -0.000  0.000  0.000
 -0.000  0.081 -0.000  0.000  0.000
 -0.000 -0.000  0.081  0.000  0.000
  0.000  0.000  0.000  0.053 -0.000
  0.000  0.000  0.000 -0.000  0.114
atomic mag. moment =     4.615296
atom    5   Tr[ns(na)] (up, down, total) =   5.01739  0.40621  5.42360
   spin  1
    eigenvalues: 
  1.003  1.003  1.003  1.004  1.004
    eigenvectors:
  0.000  0.000  0.000  1.000  0.000
  0.000  0.364  0.636  0.000  0.000
  0.000  0.636  0.364  0.000  0.000
  0.000  0.000  0.000  0.000  1.000
  1.000  0.000  0.000  0.000  0.000
    occupations:
  1.004 -0.000 -0.000  0.000  0.000
 -0.000  1.003 -0.000  0.000  0.000
 -0.000 -0.000  1.003  0.000  0.000
  0.000  0.000  0.000  1.004 -0.000
  0.000  0.000  0.000 -0.000  1.003
   spin  2
    eigenvalues: 
  0.053  0.072  0.080  0.080  0.120
    eigenvectors:
  0.000  1.000  0.000  0.000  0.000
  0.000  0.000  0.325  0.675  0.000
  0.000  0.000  0.675  0.325  0.000
  1.000  0.000  0.000  0.000  0.000
  0.000  0.000  0.000  0.000  1.000
    occupations:
  0.072 -0.000 -0.000  0.000  0.000
 -0.000  0.080 -0.000  0.000  0.000
 -0.000 -0.000  0.080  0.000  0.000
  0.000  0.000  0.000  0.053 -0.000
  0.000  0.000  0.000 -0.000  0.120
atomic mag. moment =     4.611180
atom    6   Tr[ns(na)] (up, down, total) =   0.41299  5.01745  5.43044
   spin  1
    eigenvalues: 
  0.054  0.074  0.081  0.081  0.125
    eigenvectors:
  0.000  1.000  0.000  0.000  0.000
  0.000  0.000  0.350  0.650  0.000
  0.000  0.000  0.650  0.350  0.000
  1.000  0.000  0.000  0.000  0.000
  0.000  0.000  0.000  0.000  1.000
    occupations:
  0.074 -0.000 -0.000  0.000  0.000
 -0.000  0.081 -0.000  0.000  0.000
 -0.000 -0.000  0.081  0.000  0.000
  0.000  0.000  0.000  0.054 -0.000
  0.000  0.000  0.000 -0.000  0.125
   spin  2
    eigenvalues: 
  1.003  1.003  1.003  1.004  1.004
    eigenvectors:
  0.000  0.000  0.000  1.000  0.000
  0.000  0.247  0.753  0.000  0.000
  0.000  0.753  0.247  0.000  0.000
  0.000  0.000  0.000  0.000  1.000
  1.000  0.000  0.000  0.000  0.000
    occupations:
  1.004 -0.000 -0.000  0.000  0.000
 -0.000  1.003 -0.000  0.000  0.000
 -0.000 -0.000  1.003  0.000  0.000
  0.000  0.000  0.000  1.004 -0.000
  0.000  0.000  0.000 -0.000  1.003
atomic mag. moment =    -4.604462
atom    7   Tr[ns(na)] (up, down, total) =   5.01730  0.41232  5.42962
   spin  1
    eigenvalues: 
  1.003  1.003  1.003  1.004  1.004
    eigenvectors:
  0.000  0.000  0.000  1.000  0.000
  0.000  0.284  0.716  0.000  0.000
  0.000  0.716  0.284  0.000  0.000
  0.000  0.000  0.000  0.000  1.000
  1.000  0.000  0.000  0.000  0.000
    occupations:
  1.004 -0.000 -0.000  0.000  0.000
 -0.000  1.003 -0.000  0.000  0.000
 -0.000 -0.000  1.003  0.000  0.000
  0.000  0.000  0.000  1.004 -0.000
  0.000  0.000  0.000 -0.000  1.003
   spin  2
    eigenvalues: 
  0.053  0.073  0.080  0.080  0.126
    eigenvectors:
  0.000  1.000  0.000  0.000  0.000
  0.000  0.000  0.210  0.790  0.000
  0.000  0.000  0.790  0.210  0.000
  1.000  0.000  0.000  0.000  0.000
  0.000  0.000  0.000  0.000  1.000
    occupations:
  0.073 -0.000 -0.000  0.000  0.000
 -0.000  0.080 -0.000  0.000  0.000
 -0.000 -0.000  0.080  0.000  0.000
  0.000  0.000  0.000  0.053 -0.000
  0.000  0.000  0.000 -0.000  0.126
atomic mag. moment =     4.604988
atom    8   Tr[ns(na)] (up, down, total) =   0.41299  5.01745  5.43044
   spin  1
    eigenvalues: 
  0.054  0.074  0.081  0.081  0.125
    eigenvectors:
  0.000  1.000  0.000  0.000  0.000
  0.000  0.000  0.305  0.695  0.000
  0.000  0.000  0.695  0.305  0.000
  1.000  0.000  0.000  0.000  0.000
  0.000  0.000  0.000  0.000  1.000
    occupations:
  0.074 -0.000 -0.000  0.000  0.000
 -0.000  0.081 -0.000  0.000  0.000
 -0.000 -0.000  0.081  0.000  0.000
  0.000  0.000  0.000  0.054 -0.000
  0.000  0.000  0.000 -0.000  0.125
   spin  2
    eigenvalues: 
  1.003  1.003  1.003  1.004  1.004
    eigenvectors:
  0.000  0.000  0.000  1.000  0.000
  0.000  0.284  0.716  0.000  0.000
  0.000  0.716  0.284  0.000  0.000
  0.000  0.000  0.000  0.000  1.000
  1.000  0.000  0.000  0.000  0.000
    occupations:
  1.004 -0.000 -0.000  0.000  0.000
 -0.000  1.003 -0.000  0.000  0.000
 -0.000 -0.000  1.003  0.000  0.000
  0.000  0.000  0.000  1.004 -0.000
  0.000  0.000  0.000 -0.000  1.003
atomic mag. moment =    -4.604462
N of occupied +U levels =   43.395715
 --- exit write_ns ---

     total cpu time spent up to now is      322.7 secs

     total energy              =  -14687.27599836 Ry
     Harris-Foulkes estimate   =  -14685.81669891 Ry
     estimated scf accuracy    <      11.55606955 Ry

     total magnetization       =    20.20 Bohr mag/cell
     absolute magnetization    =    41.59 Bohr mag/cell

     iteration #  2     ecut=    45.00 Ry     beta= 0.10
     Davidson diagonalization with overlap
     ethr =  3.90E-03,  avg # of iterations =  1.0

     total cpu time spent up to now is      470.1 secs

     total energy              =  -14688.32927204 Ry
     Harris-Foulkes estimate   =  -14687.35781310 Ry
     estimated scf accuracy    <      10.28136180 Ry

     total magnetization       =    19.85 Bohr mag/cell
     absolute magnetization    =    41.21 Bohr mag/cell

     iteration #  3     ecut=    45.00 Ry     beta= 0.10
     Davidson diagonalization with overlap
     ethr =  3.47E-03,  avg # of iterations =  3.5

     total cpu time spent up to now is      671.2 secs

     total energy              =  -14692.29804891 Ry
     Harris-Foulkes estimate   =  -14689.28338861 Ry
     estimated scf accuracy    <      83.54140515 Ry

     total magnetization       =    19.85 Bohr mag/cell
     absolute magnetization    =    40.90 Bohr mag/cell

     iteration #  4     ecut=    45.00 Ry     beta= 0.10
     Davidson diagonalization with overlap
     ethr =  3.47E-03,  avg # of iterations =  2.4

     total cpu time spent up to now is      856.6 secs

     total energy              =  -14694.98246522 Ry
     Harris-Foulkes estimate   =  -14694.23530984 Ry
     estimated scf accuracy    <       4.07930253 Ry

     total magnetization       =    18.51 Bohr mag/cell
     absolute magnetization    =    38.44 Bohr mag/cell

     iteration #  5     ecut=    45.00 Ry     beta= 0.10
     Davidson diagonalization with overlap
     ethr =  1.38E-03,  avg # of iterations =  3.1

     total cpu time spent up to now is     1045.9 secs

     total energy              =  -14694.54399271 Ry
     Harris-Foulkes estimate   =  -14695.11330895 Ry
     estimated scf accuracy    <       8.68562852 Ry

     total magnetization       =    18.02 Bohr mag/cell
     absolute magnetization    =    37.69 Bohr mag/cell

     iteration #  6     ecut=    45.00 Ry     beta= 0.10
     Davidson diagonalization with overlap
     ethr =  1.38E-03,  avg # of iterations =  1.1

     total cpu time spent up to now is     1195.5 secs

     total energy              =  -14693.45390951 Ry
     Harris-Foulkes estimate   =  -14694.58934563 Ry
     estimated scf accuracy    <       6.36873659 Ry

     total magnetization       =    18.32 Bohr mag/cell
     absolute magnetization    =    38.10 Bohr mag/cell

     iteration #  7     ecut=    45.00 Ry     beta= 0.10
     Davidson diagonalization with overlap
     ethr =  1.38E-03,  avg # of iterations =  4.4

     total cpu time spent up to now is     1435.7 secs

     total energy              =  -14693.94135618 Ry
     Harris-Foulkes estimate   =  -14693.96731994 Ry
     estimated scf accuracy    <       0.19362765 Ry

     total magnetization       =    17.87 Bohr mag/cell
     absolute magnetization    =    37.80 Bohr mag/cell

     iteration #  8     ecut=    45.00 Ry     beta= 0.10
     Davidson diagonalization with overlap
     ethr =  6.54E-05,  avg # of iterations =  4.3

     total cpu time spent up to now is     1761.7 secs

     total energy              =  -14694.01134925 Ry
     Harris-Foulkes estimate   =  -14694.01048024 Ry
     estimated scf accuracy    <       0.25944601 Ry

     total magnetization       =    17.48 Bohr mag/cell
     absolute magnetization    =    37.31 Bohr mag/cell

     iteration #  9     ecut=    45.00 Ry     beta= 0.10
     Davidson diagonalization with overlap
     ethr =  6.54E-05,  avg # of iterations =  1.0

     total cpu time spent up to now is     1909.9 secs

     total energy              =  -14694.00937509 Ry
     Harris-Foulkes estimate   =  -14694.01165868 Ry
     estimated scf accuracy    <       0.28867414 Ry

     total magnetization       =    17.51 Bohr mag/cell
     absolute magnetization    =    37.33 Bohr mag/cell

     iteration # 10     ecut=    45.00 Ry     beta= 0.10
     Davidson diagonalization with overlap
     ethr =  6.54E-05,  avg # of iterations =  1.0

     total cpu time spent up to now is     2058.6 secs

     total energy              =  -14694.00165347 Ry
     Harris-Foulkes estimate   =  -14694.01179239 Ry
     estimated scf accuracy    <       0.17955304 Ry

     total magnetization       =    17.45 Bohr mag/cell
     absolute magnetization    =    37.27 Bohr mag/cell

     iteration # 11     ecut=    45.00 Ry     beta= 0.10
     Davidson diagonalization with overlap
     ethr =  6.07E-05,  avg # of iterations =  1.1

     total cpu time spent up to now is     2208.5 secs

     total energy              =  -14693.99925217 Ry
     Harris-Foulkes estimate   =  -14694.00386522 Ry
     estimated scf accuracy    <       0.09745845 Ry

     total magnetization       =    17.43 Bohr mag/cell
     absolute magnetization    =    37.29 Bohr mag/cell

     iteration # 12     ecut=    45.00 Ry     beta= 0.10
     Davidson diagonalization with overlap
     ethr =  3.29E-05,  avg # of iterations =  1.0

     total cpu time spent up to now is     2358.0 secs

     total energy              =  -14693.99906456 Ry
     Harris-Foulkes estimate   =  -14694.00142853 Ry
     estimated scf accuracy    <       0.03450697 Ry

     total magnetization       =    17.39 Bohr mag/cell
     absolute magnetization    =    37.26 Bohr mag/cell

     iteration # 13     ecut=    45.00 Ry     beta= 0.10
     Davidson diagonalization with overlap
     ethr =  1.17E-05,  avg # of iterations =  3.1

     total cpu time spent up to now is     2557.5 secs

     total energy              =  -14694.00076432 Ry
     Harris-Foulkes estimate   =  -14694.00155219 Ry
     estimated scf accuracy    <       0.00612492 Ry

     total magnetization       =    17.32 Bohr mag/cell
     absolute magnetization    =    37.23 Bohr mag/cell

     iteration # 14     ecut=    45.00 Ry     beta= 0.10
     Davidson diagonalization with overlap
     ethr =  2.07E-06,  avg # of iterations =  4.0

     total cpu time spent up to now is     2855.5 secs

     total energy              =  -14694.00204086 Ry
     Harris-Foulkes estimate   =  -14694.00294790 Ry
     estimated scf accuracy    <       0.00401878 Ry

     total magnetization       =    17.27 Bohr mag/cell
     absolute magnetization    =    37.19 Bohr mag/cell

     iteration # 15     ecut=    45.00 Ry     beta= 0.10
     Davidson diagonalization with overlap
     ethr =  1.36E-06,  avg # of iterations =  2.3

     total cpu time spent up to now is     3035.4 secs

     total energy              =  -14694.00239701 Ry
     Harris-Foulkes estimate   =  -14694.00241572 Ry
     estimated scf accuracy    <       0.00032820 Ry

     total magnetization       =    17.28 Bohr mag/cell
     absolute magnetization    =    37.20 Bohr mag/cell

     iteration # 16     ecut=    45.00 Ry     beta= 0.10
     Davidson diagonalization with overlap
     ethr =  1.11E-07,  avg # of iterations =  2.9

     total cpu time spent up to now is     3235.3 secs

     total energy              =  -14694.00249574 Ry
     Harris-Foulkes estimate   =  -14694.00243309 Ry
     estimated scf accuracy    <       0.00030815 Ry

     total magnetization       =    17.27 Bohr mag/cell
     absolute magnetization    =    37.20 Bohr mag/cell

     iteration # 17     ecut=    45.00 Ry     beta= 0.10
     Davidson diagonalization with overlap
     ethr =  1.04E-07,  avg # of iterations =  1.1

     total cpu time spent up to now is     3385.3 secs

     total energy              =  -14694.00254335 Ry
     Harris-Foulkes estimate   =  -14694.00250191 Ry
     estimated scf accuracy    <       0.00014160 Ry

     total magnetization       =    17.27 Bohr mag/cell
     absolute magnetization    =    37.20 Bohr mag/cell

     iteration # 18     ecut=    45.00 Ry     beta= 0.10
     Davidson diagonalization with overlap
     ethr =  4.78E-08,  avg # of iterations =  2.1

     total cpu time spent up to now is     3555.1 secs

     total energy              =  -14694.00256773 Ry
     Harris-Foulkes estimate   =  -14694.00254768 Ry
     estimated scf accuracy    <       0.00005834 Ry

     total magnetization       =    17.26 Bohr mag/cell
     absolute magnetization    =    37.20 Bohr mag/cell

     iteration # 19     ecut=    45.00 Ry     beta= 0.10
     Davidson diagonalization with overlap
     ethr =  1.97E-08,  avg # of iterations =  1.8

     total cpu time spent up to now is     3720.5 secs

     total energy              =  -14694.00258570 Ry
     Harris-Foulkes estimate   =  -14694.00256533 Ry
     estimated scf accuracy    <       0.00002161 Ry

     total magnetization       =    17.26 Bohr mag/cell
     absolute magnetization    =    37.20 Bohr mag/cell

     iteration # 20     ecut=    45.00 Ry     beta= 0.10
     Davidson diagonalization with overlap
     ethr =  7.30E-09,  avg # of iterations =  2.7

     total cpu time spent up to now is     3927.5 secs

     total energy              =  -14694.00259216 Ry
     Harris-Foulkes estimate   =  -14694.00258870 Ry
     estimated scf accuracy    <       0.00000419 Ry

     total magnetization       =    17.25 Bohr mag/cell
     absolute magnetization    =    37.19 Bohr mag/cell

     iteration # 21     ecut=    45.00 Ry     beta= 0.10
     Davidson diagonalization with overlap
     ethr =  1.42E-09,  avg # of iterations =  3.8

     total cpu time spent up to now is     4140.9 secs

     total energy              =  -14694.00259356 Ry
     Harris-Foulkes estimate   =  -14694.00259128 Ry
     estimated scf accuracy    <       0.00000202 Ry

     total magnetization       =    17.25 Bohr mag/cell
     absolute magnetization    =    37.19 Bohr mag/cell

     iteration # 22     ecut=    45.00 Ry     beta= 0.10
     Davidson diagonalization with overlap
     ethr =  6.81E-10,  avg # of iterations =  2.1

     total cpu time spent up to now is     4313.2 secs

     total energy              =  -14694.00259519 Ry
     Harris-Foulkes estimate   =  -14694.00259315 Ry
     estimated scf accuracy    <       0.00000126 Ry

     total magnetization       =    17.25 Bohr mag/cell
     absolute magnetization    =    37.19 Bohr mag/cell

     iteration # 23     ecut=    45.00 Ry     beta= 0.10
     Davidson diagonalization with overlap
     ethr =  4.25E-10,  avg # of iterations =  2.5
 
     Magnetic moment per site:
     atom:    1    charge:   13.5468    magn:    4.2405    constr:    0.0000
     atom:    2    charge:   13.5530    magn:    4.1991    constr:    0.0000
     atom:    3    charge:   13.5539    magn:    4.1954    constr:    0.0000
     atom:    4    charge:   13.5530    magn:    4.1991    constr:    0.0000
     atom:    5    charge:   13.5468    magn:    4.2405    constr:    0.0000
     atom:    6    charge:   13.5441    magn:   -4.2604    constr:    0.0000
     atom:    7    charge:   13.5418    magn:    4.2736    constr:    0.0000
     atom:    8    charge:   13.5441    magn:   -4.2604    constr:    0.0000
     atom:    9    charge:    9.1226    magn:    0.0312    constr:    0.0000
     atom:   10    charge:    9.1223    magn:    0.0299    constr:    0.0000
     atom:   11    charge:    9.1211    magn:    0.0292    constr:    0.0000
     atom:   12    charge:    9.1198    magn:    0.0246    constr:    0.0000
     atom:   13    charge:    9.1198    magn:    0.0246    constr:    0.0000
     atom:   14    charge:    9.1211    magn:    0.0292    constr:    0.0000
     atom:   15    charge:    9.1223    magn:    0.0299    constr:    0.0000
     atom:   16    charge:    9.1226    magn:    0.0312    constr:    0.0000
     atom:   17    charge:    9.1242    magn:    0.0385    constr:    0.0000
     atom:   18    charge:    9.1245    magn:   -0.0402    constr:    0.0000
     atom:   19    charge:    9.1249    magn:   -0.0375    constr:    0.0000
     atom:   20    charge:    9.1252    magn:    0.0391    constr:    0.0000
     atom:   21    charge:    9.1252    magn:    0.0391    constr:    0.0000
     atom:   22    charge:    9.1249    magn:   -0.0375    constr:    0.0000
     atom:   23    charge:    9.1245    magn:   -0.0402    constr:    0.0000
     atom:   24    charge:    9.1242    magn:    0.0385    constr:    0.0000

     total cpu time spent up to now is     4499.0 secs

     End of self-consistent calculation
 --- enter write_ns ---
 LDA+U parameters:
U(  1) =   3.1200   J(  1) =   0.7000   B(  1) =   0.0803
U(  2) =   3.1200   J(  2) =   0.7000   B(  2) =   0.0803
atom    1   Tr[ns(na)] (up, down, total) =   4.97263  0.73197  5.70460
   spin  1
    eigenvalues: 
  0.985  0.994  0.994  0.997  1.002
    eigenvectors:
  0.000  0.000  0.000  1.000  0.000
  0.000  0.368  0.632  0.000  0.000
  0.000  0.632  0.368  0.000  0.000
  0.000  0.000  0.000  0.000  1.000
  1.000  0.000  0.000  0.000  0.000
    occupations:
  0.997 -0.000 -0.000  0.000  0.000
 -0.000  0.994 -0.000  0.000  0.000
 -0.000 -0.000  0.994  0.000  0.000
  0.000  0.000  0.000  1.002 -0.000
  0.000  0.000  0.000 -0.000  0.985
   spin  2
    eigenvalues: 
  0.066  0.130  0.145  0.145  0.246
    eigenvectors:
  0.000  1.000  0.000  0.000  0.000
  0.000  0.000  0.263  0.737  0.000
  0.000  0.000  0.737  0.263  0.000
  1.000  0.000  0.000  0.000  0.000
  0.000  0.000  0.000  0.000  1.000
    occupations:
  0.130 -0.000 -0.000  0.000  0.000
 -0.000  0.145 -0.000  0.000  0.000
 -0.000 -0.000  0.145  0.000  0.000
  0.000  0.000  0.000  0.066 -0.000
  0.000  0.000  0.000 -0.000  0.246
atomic mag. moment =     4.240660
atom    2   Tr[ns(na)] (up, down, total) =   4.96933  0.76452  5.73386
   spin  1
    eigenvalues: 
  0.984  0.993  0.993  0.996  1.002
    eigenvectors:
  0.000  0.000  0.000  1.000  0.000
  0.000  0.301  0.699  0.000  0.000
  0.000  0.699  0.301  0.000  0.000
  0.000  0.000  0.000  0.000  1.000
  1.000  0.000  0.000  0.000  0.000
    occupations:
  0.996 -0.000 -0.000  0.000  0.000
 -0.000  0.993 -0.000  0.000  0.000
 -0.000 -0.000  0.993  0.000  0.000
  0.000  0.000  0.000  1.002 -0.000
  0.000  0.000  0.000 -0.000  0.984
   spin  2
    eigenvalues: 
  0.065  0.143  0.143  0.145  0.268
    eigenvectors:
  0.000  0.000  0.000  1.000  0.000
  0.000  0.281  0.719  0.000  0.000
  0.000  0.719  0.281  0.000  0.000
  1.000  0.000  0.000  0.000  0.000
  0.000  0.000  0.000  0.000  1.000
    occupations:
  0.145 -0.000 -0.000  0.000  0.000
 -0.000  0.143 -0.000  0.000  0.000
 -0.000 -0.000  0.143  0.000  0.000
  0.000  0.000  0.000  0.065 -0.000
  0.000  0.000  0.000 -0.000  0.268
atomic mag. moment =     4.204811
atom    3   Tr[ns(na)] (up, down, total) =   4.96856  0.76760  5.73617
   spin  1
    eigenvalues: 
  0.984  0.993  0.993  0.997  1.002
    eigenvectors:
  0.000  0.000  0.000  1.000  0.000
  0.000  0.303  0.697  0.000  0.000
  0.000  0.697  0.303  0.000  0.000
  0.000  0.000  0.000  0.000  1.000
  1.000  0.000  0.000  0.000  0.000
    occupations:
  0.997 -0.000 -0.000  0.000  0.000
 -0.000  0.993 -0.000  0.000  0.000
 -0.000 -0.000  0.993  0.000  0.000
  0.000  0.000  0.000  1.002 -0.000
  0.000  0.000  0.000 -0.000  0.984
   spin  2
    eigenvalues: 
  0.065  0.143  0.143  0.147  0.269
    eigenvectors:
  0.000  0.000  0.000  1.000  0.000
  0.000  0.428  0.572  0.000  0.000
  0.000  0.572  0.428  0.000  0.000
  1.000  0.000  0.000  0.000  0.000
  0.000  0.000  0.000  0.000  1.000
    occupations:
  0.147 -0.000 -0.000  0.000  0.000
 -0.000  0.143 -0.000  0.000  0.000
 -0.000 -0.000  0.143  0.000  0.000
  0.000  0.000  0.000  0.065 -0.000
  0.000  0.000  0.000 -0.000  0.269
atomic mag. moment =     4.200957
atom    4   Tr[ns(na)] (up, down, total) =   4.96933  0.76452  5.73386
   spin  1
    eigenvalues: 
  0.984  0.993  0.993  0.996  1.002
    eigenvectors:
  0.000  0.000  0.000  1.000  0.000
  0.000  0.302  0.698  0.000  0.000
  0.000  0.698  0.302  0.000  0.000
  0.000  0.000  0.000  0.000  1.000
  1.000  0.000  0.000  0.000  0.000
    occupations:
  0.996 -0.000 -0.000  0.000  0.000
 -0.000  0.993 -0.000  0.000  0.000
 -0.000 -0.000  0.993  0.000  0.000
  0.000  0.000  0.000  1.002 -0.000
  0.000  0.000  0.000 -0.000  0.984
   spin  2
    eigenvalues: 
  0.065  0.143  0.143  0.145  0.268
    eigenvectors:
  0.000  0.000  0.000  1.000  0.000
  0.000  0.305  0.695  0.000  0.000
  0.000  0.695  0.305  0.000  0.000
  1.000  0.000  0.000  0.000  0.000
  0.000  0.000  0.000  0.000  1.000
    occupations:
  0.145 -0.000 -0.000  0.000  0.000
 -0.000  0.143 -0.000  0.000  0.000
 -0.000 -0.000  0.143  0.000  0.000
  0.000  0.000  0.000  0.065 -0.000
  0.000  0.000  0.000 -0.000  0.268
atomic mag. moment =     4.204811
atom    5   Tr[ns(na)] (up, down, total) =   4.97263  0.73197  5.70460
   spin  1
    eigenvalues: 
  0.985  0.994  0.994  0.997  1.002
    eigenvectors:
  0.000  0.000  0.000  1.000  0.000
  0.000  0.343  0.657  0.000  0.000
  0.000  0.657  0.343  0.000  0.000
  0.000  0.000  0.000  0.000  1.000
  1.000  0.000  0.000  0.000  0.000
    occupations:
  0.997 -0.000 -0.000  0.000  0.000
 -0.000  0.994 -0.000  0.000  0.000
 -0.000 -0.000  0.994  0.000  0.000
  0.000  0.000  0.000  1.002 -0.000
  0.000  0.000  0.000 -0.000  0.985
   spin  2
    eigenvalues: 
  0.066  0.130  0.145  0.145  0.246
    eigenvectors:
  0.000  1.000  0.000  0.000  0.000
  0.000  0.000  0.356  0.644  0.000
  0.000  0.000  0.644  0.356  0.000
  1.000  0.000  0.000  0.000  0.000
  0.000  0.000  0.000  0.000  1.000
    occupations:
  0.130 -0.000 -0.000  0.000  0.000
 -0.000  0.145 -0.000  0.000  0.000
 -0.000 -0.000  0.145  0.000  0.000
  0.000  0.000  0.000  0.066 -0.000
  0.000  0.000  0.000 -0.000  0.246
atomic mag. moment =     4.240660
atom    6   Tr[ns(na)] (up, down, total) =   0.71832  4.97244  5.69076
   spin  1
    eigenvalues: 
  0.065  0.120  0.144  0.144  0.244
    eigenvectors:
  0.000  1.000  0.000  0.000  0.000
  0.000  0.000  0.396  0.604  0.000
  0.000  0.000  0.604  0.396  0.000
  1.000  0.000  0.000  0.000  0.000
  0.000  0.000  0.000  0.000  1.000
    occupations:
  0.120 -0.000 -0.000  0.000  0.000
 -0.000  0.144 -0.000  0.000  0.000
 -0.000 -0.000  0.144  0.000  0.000
  0.000  0.000  0.000  0.065 -0.000
  0.000  0.000  0.000 -0.000  0.244
   spin  2
    eigenvalues: 
  0.985  0.994  0.994  0.997  1.003
    eigenvectors:
  0.000  0.000  0.000  1.000  0.000
  0.000  0.340  0.660  0.000  0.000
  0.000  0.660  0.340  0.000  0.000
  0.000  0.000  0.000  0.000  1.000
  1.000  0.000  0.000  0.000  0.000
    occupations:
  0.997 -0.000 -0.000  0.000  0.000
 -0.000  0.994 -0.000  0.000  0.000
 -0.000 -0.000  0.994  0.000  0.000
  0.000  0.000  0.000  1.003 -0.000
  0.000  0.000  0.000 -0.000  0.985
atomic mag. moment =    -4.254119
atom    7   Tr[ns(na)] (up, down, total) =   4.97412  0.70624  5.68036
   spin  1
    eigenvalues: 
  0.985  0.994  0.994  0.998  1.003
    eigenvectors:
  0.000  0.000  0.000  1.000  0.000
  0.000  0.371  0.629  0.000  0.000
  0.000  0.629  0.371  0.000  0.000
  0.000  0.000  0.000  0.000  1.000
  1.000  0.000  0.000  0.000  0.000
    occupations:
  0.998 -0.000 -0.000  0.000  0.000
 -0.000  0.994 -0.000  0.000  0.000
 -0.000 -0.000  0.994  0.000  0.000
  0.000  0.000  0.000  1.003 -0.000
  0.000  0.000  0.000 -0.000  0.985
   spin  2
    eigenvalues: 
  0.067  0.109  0.146  0.146  0.239
    eigenvectors:
  0.000  1.000  0.000  0.000  0.000
  0.000  0.000  0.341  0.659  0.000
  0.000  0.000  0.659  0.341  0.000
  1.000  0.000  0.000  0.000  0.000
  0.000  0.000  0.000  0.000  1.000
    occupations:
  0.109 -0.000 -0.000  0.000  0.000
 -0.000  0.146 -0.000  0.000  0.000
 -0.000 -0.000  0.146  0.000  0.000
  0.000  0.000  0.000  0.067 -0.000
  0.000  0.000  0.000 -0.000  0.239
atomic mag. moment =     4.267879
atom    8   Tr[ns(na)] (up, down, total) =   0.71832  4.97244  5.69076
   spin  1
    eigenvalues: 
  0.065  0.120  0.144  0.144  0.244
    eigenvectors:
  0.000  1.000  0.000  0.000  0.000
  0.000  0.000  0.404  0.596  0.000
  0.000  0.000  0.596  0.404  0.000
  1.000  0.000  0.000  0.000  0.000
  0.000  0.000  0.000  0.000  1.000
    occupations:
  0.120 -0.000 -0.000  0.000  0.000
 -0.000  0.144 -0.000  0.000  0.000
 -0.000 -0.000  0.144  0.000  0.000
  0.000  0.000  0.000  0.065 -0.000
  0.000  0.000  0.000 -0.000  0.244
   spin  2
    eigenvalues: 
  0.985  0.994  0.994  0.997  1.003
    eigenvectors:
  0.000  0.000  0.000  1.000  0.000
  0.000  0.294  0.706  0.000  0.000
  0.000  0.706  0.294  0.000  0.000
  0.000  0.000  0.000  0.000  1.000
  1.000  0.000  0.000  0.000  0.000
    occupations:
  0.997 -0.000 -0.000  0.000  0.000
 -0.000  0.994 -0.000  0.000  0.000
 -0.000 -0.000  0.994  0.000  0.000
  0.000  0.000  0.000  1.003 -0.000
  0.000  0.000  0.000 -0.000  0.985
atomic mag. moment =    -4.254119
N of occupied +U levels =   45.674961
 --- exit write_ns ---

 ------ SPIN UP ------------


          k = 0.0000 0.0000 0.0000 ( 13925 PWs)   bands (ev):

   -66.8724 -66.7532 -66.7532 -66.6078 -66.6078 -66.5819 -62.2335 -62.2335
   -35.6394 -35.5883 -35.5883 -35.5163 -35.5163 -35.4733 -35.4733 -35.4733
   -35.4733 -35.3837 -35.3837 -35.3555 -35.3239 -35.3239 -35.3239 -35.3239
   -35.2995 -35.2995 -31.0555 -31.0555 -31.0518 -31.0518 -31.0518 -31.0518
     5.7432   5.8908   5.8969   6.2861   6.3917   7.0123   7.0141   7.6153
     8.2197   8.3816   8.3819   8.4368   8.4630   8.4792   8.5040   8.5783
     8.7122   8.7733   8.7993   8.8420   8.9110   9.0281   9.2018   9.2024
     9.2160   9.3781   9.4035   9.4436   9.5896   9.5964   9.7082   9.9016
     9.9374   9.9391   9.9393  10.0534  10.0707  10.1057  10.1057  10.1058
    10.1153  10.1706  10.1706  10.2023  10.2023  10.2126  10.3166  10.3368
    10.3368  10.3458  10.3458  10.4190  10.5376  10.5432  10.5432  10.5915
    10.5915  10.5965  10.5965  10.6086  10.6086  10.6147  10.6147  10.6182
    10.6665  10.6885  10.6885  10.7714  10.7714  10.7975  10.7975  10.8745
    10.9653  11.0245  11.0245  11.0418  11.0418  11.0725  11.1449  11.2140
    11.2543  11.2567  11.3063  11.3906  11.4463  11.4494  11.4494  11.5006
    11.5406  11.5406  11.5834  11.7103  11.7589  11.7989  11.8619  11.9340
    11.9340  11.9909  12.0016  12.0780  12.1033  12.1429  12.1590  12.1590
    12.2430  12.2559  12.3491  12.3491  12.5290  12.5595  12.5595  12.7139
    12.7637  12.8087  12.8087  12.8152  12.8889  13.0340  13.0642  13.1446
    13.1957  13.8680  14.2882  15.1684  15.3987  16.4791  16.8476  16.8476
    16.8998  16.8998  16.9229  16.9232  17.1126  17.1128  17.5462  17.5661
    18.1619  19.4859  19.5185  20.0398  20.0398  20.4032  20.4032  20.4155
    20.4155  21.3379

          k = 0.0000 0.0000 0.0242 ( 13893 PWs)   bands (ev):

   -66.8724 -66.7532 -66.7532 -66.6078 -66.6078 -66.5819 -62.2335 -62.2335
   -35.6394 -35.5883 -35.5883 -35.5163 -35.5163 -35.4733 -35.4733 -35.4733
   -35.4733 -35.3837 -35.3837 -35.3555 -35.3239 -35.3239 -35.3239 -35.3239
   -35.2995 -35.2995 -31.0555 -31.0555 -31.0518 -31.0518 -31.0518 -31.0518
     5.7524   5.8294   5.9749   6.1976   6.4951   6.8334   7.1980   7.5454
     8.2864   8.3819   8.3878   8.4344   8.4547   8.4660   8.5350   8.5768
     8.6486   8.6895   8.7749   8.9177   8.9886   9.0235   9.1432   9.2136
     9.2753   9.3639   9.3653   9.4290   9.6018   9.6140   9.7084   9.9021
     9.9171   9.9314   9.9450  10.0526  10.0989  10.1052  10.1063  10.1063
    10.1154  10.1635  10.1635  10.2137  10.2182  10.2182  10.2919  10.2919
    10.2993  10.3981  10.3981  10.4153  10.5309  10.5309  10.5443  10.5443
    10.5459  10.5935  10.5935  10.6025  10.6025  10.6293  10.6581  10.6828
    10.6828  10.6885  10.6885  10.7664  10.7664  10.8021  10.8021  10.8809
    10.9406  10.9406  10.9439  11.0978  11.1317  11.1357  11.1357  11.2141
    11.2434  11.2737  11.3053  11.3751  11.3751  11.3926  11.4362  11.4989
    11.5870  11.6064  11.6064  11.7164  11.7598  11.7926  11.8673  11.8985
    11.8985  11.9895  11.9898  12.0771  12.1187  12.1430  12.1956  12.1956
    12.2355  12.2559  12.3257  12.3257  12.5315  12.5645  12.5645  12.7092
    12.7676  12.8082  12.8082  12.8369  12.8883  12.9909  13.0341  13.1446
    13.2759  13.7870  14.4053  14.9707  15.5770  16.4135  16.8477  16.8477
    16.8997  16.8997  16.9229  16.9231  17.1126  17.1128  17.5464  17.5635
    18.2676  19.0729  19.9743  20.0637  20.0637  20.2518  20.2518  20.6043
    20.6043  20.9838

          k = 0.0000 0.0000-0.0484 ( 13878 PWs)   bands (ev):

   -66.8724 -66.7532 -66.7532 -66.6078 -66.6078 -66.5819 -62.2335 -62.2335
   -35.6394 -35.5883 -35.5883 -35.5163 -35.5163 -35.4733 -35.4733 -35.4733
   -35.4733 -35.3837 -35.3837 -35.3555 -35.3239 -35.3239 -35.3239 -35.3239
   -35.2995 -35.2995 -31.0555 -31.0555 -31.0518 -31.0518 -31.0518 -31.0518
     5.7734   5.7899   6.0478   6.1110   6.6197   6.6942   7.3485   7.4209
     8.3651   8.3822   8.4323   8.4335   8.4365   8.4687   8.5047   8.5640
     8.5754   8.6649   8.7765   8.9540   9.0191   9.0324   9.1383   9.2261
     9.2799   9.3481   9.3487   9.4062   9.6138   9.6288   9.7083   9.8986
     9.9026   9.9285   9.9478  10.0518  10.1046  10.1069  10.1069  10.1155
    10.1262  10.1586  10.1586  10.2147  10.2497  10.2497  10.2515  10.2515
    10.2792  10.4118  10.4596  10.4596  10.4638  10.4638  10.5437  10.5437
    10.5548  10.5935  10.5935  10.6024  10.6024  10.6405  10.6490  10.6885
    10.6885  10.7314  10.7314  10.7516  10.7516  10.8113  10.8113  10.8874
    10.8915  10.8915  10.9264  11.1202  11.1214  11.2118  11.2118  11.2143
    11.2298  11.2900  11.2989  11.2989  11.3044  11.3947  11.4250  11.4972
    11.5907  11.6560  11.6560  11.7224  11.7607  11.7868  11.8606  11.8606
    11.8720  11.9791  11.9887  12.0763  12.1338  12.1431  12.2266  12.2512
    12.2512  12.2559  12.2802  12.2802  12.5340  12.5691  12.5691  12.7050
    12.7710  12.8077  12.8077  12.8876  12.8929  12.9053  13.0341  13.1445
    13.3430  13.7113  14.5663  14.7776  15.7044  16.3372  16.8477  16.8477
    16.8997  16.8997  16.9229  16.9231  17.1126  17.1128  17.5467  17.5614
    18.4277  18.8174  20.1266  20.1266  20.1439  20.1439  20.4100  20.5373
    20.8056  20.8056

          k = 0.0000 0.1250 0.0000 ( 13879 PWs)   bands (ev):

   -66.8721 -66.7529 -66.7529 -66.6075 -66.6075 -66.5816 -62.2335 -62.2335
   -35.6393 -35.5900 -35.5882 -35.5162 -35.5162 -35.4751 -35.4751 -35.4732
   -35.4732 -35.3836 -35.3835 -35.3553 -35.3257 -35.3257 -35.3238 -35.3238
   -35.3012 -35.2994 -31.0553 -31.0553 -31.0540 -31.0540 -31.0517 -31.0517
     5.9868   6.1302   6.1366   6.5133   6.6092   7.1958   7.1960   7.7441
     8.2361   8.4720   8.5192   8.5601   8.5730   8.5759   8.6024   8.6834
     8.7079   8.7287   8.8247   8.8543   8.9634   9.0691   9.1496   9.1600
     9.2875   9.3007   9.3102   9.3702   9.4329   9.6141   9.7514   9.7550
     9.7571   9.8194   9.8273   9.9006   9.9078   9.9407   9.9546  10.0192
    10.0480  10.0580  10.0703  10.1072  10.1280  10.1401  10.1804  10.2310
    10.2730  10.3297  10.3337  10.3967  10.4062  10.4081  10.4789  10.5841
    10.5924  10.6104  10.6568  10.6894  10.7220  10.7501  10.7552  10.7737
    10.8448  10.8487  10.8801  10.8920  10.9667  10.9871  11.0074  11.0930
    11.1215  11.1254  11.1488  11.1504  11.1966  11.2314  11.2473  11.2723
    11.2865  11.2989  11.3423  11.4024  11.4177  11.4902  11.4966  11.5625
    11.5660  11.6551  11.7007  11.7184  11.8119  11.8157  11.8383  11.8405
    11.8977  12.0108  12.0108  12.0310  12.0442  12.1309  12.1326  12.2228
    12.2250  12.2491  12.4024  12.4067  12.4735  12.4945  12.6330  12.6627
    12.6637  12.7235  12.7644  12.8783  12.8964  13.0394  13.0398  13.0496
    13.1601  13.9064  14.3246  15.2979  15.5234  16.5640  16.6842  16.7406
    16.9308  16.9378  16.9818  17.0063  17.0082  17.0264  17.5691  17.8803
    18.2734  18.6032  18.9289  18.9574  19.7215  19.8129  19.8364  19.8469
    20.6480  20.8847

          k = 0.0000 0.1250 0.0242 ( 13869 PWs)   bands (ev):

   -66.8721 -66.7529 -66.7529 -66.6075 -66.6075 -66.5816 -62.2335 -62.2335
   -35.6393 -35.5900 -35.5882 -35.5162 -35.5162 -35.4751 -35.4751 -35.4732
   -35.4732 -35.3836 -35.3835 -35.3553 -35.3257 -35.3257 -35.3238 -35.3238
   -35.3012 -35.2994 -31.0553 -31.0553 -31.0540 -31.0540 -31.0517 -31.0517
     5.9956   6.0708   6.2121   6.4266   6.7097   7.0280   7.3669   7.6800
     8.2936   8.4752   8.5193   8.5408   8.5600   8.5800   8.5898   8.6324
     8.6878   8.7783   8.8498   8.8653   8.9781   9.0673   9.1047   9.1758
     9.2684   9.2948   9.3203   9.3869   9.4508   9.5897   9.7359   9.7552
     9.7928   9.8133   9.8353   9.8938   9.8976   9.9409   9.9536  10.0197
    10.0531  10.0537  10.0710  10.1011  10.1405  10.1446  10.1714  10.2471
    10.2640  10.3266  10.3377  10.3416  10.4175  10.4711  10.4728  10.5781
    10.5964  10.6139  10.6420  10.6546  10.6916  10.7488  10.7789  10.8318
    10.8472  10.8534  10.8689  10.8927  10.9606  10.9933  11.0234  11.0524
    11.0936  11.1207  11.1338  11.1810  11.2061  11.2387  11.2440  11.2652
    11.2982  11.3234  11.3527  11.3626  11.4221  11.4730  11.5408  11.5488
    11.5755  11.6564  11.6756  11.7210  11.7872  11.8213  11.8336  11.8702
    11.8908  11.9979  12.0205  12.0267  12.0684  12.1312  12.1325  12.2204
    12.2251  12.2361  12.3883  12.4164  12.4690  12.5116  12.6332  12.6444
    12.6802  12.7203  12.7869  12.8785  12.8967  12.9565  13.0394  13.0398
    13.2663  13.8023  14.4633  15.0810  15.7142  16.5042  16.6662  16.7687
    16.9308  16.9380  16.9818  17.0063  17.0082  17.0264  17.5838  17.7803
    18.4603  18.6279  18.8016  19.1161  19.3515  19.5438  20.0440  20.3081
    20.6239  20.6661

          k = 0.0000 0.1250-0.0484 ( 13868 PWs)   bands (ev):

   -66.8721 -66.7529 -66.7529 -66.6075 -66.6075 -66.5816 -62.2335 -62.2335
   -35.6393 -35.5900 -35.5882 -35.5162 -35.5162 -35.4751 -35.4751 -35.4732
   -35.4732 -35.3836 -35.3835 -35.3553 -35.3257 -35.3257 -35.3238 -35.3238
   -35.3012 -35.2994 -31.0553 -31.0553 -31.0540 -31.0540 -31.0517 -31.0517
     6.0156   6.0329   6.2833   6.3422   6.8304   6.8949   7.5109   7.5607
     8.3836   8.4612   8.4937   8.5212   8.5259   8.5646   8.5857   8.6579
     8.6849   8.7580   8.8577   8.9468   8.9543   9.0666   9.0784   9.1676
     9.2661   9.2837   9.3298   9.3932   9.4818   9.5575   9.7319   9.7555
     9.8101   9.8234   9.8408   9.8721   9.8941   9.9412   9.9526  10.0200
    10.0504  10.0587  10.0728  10.0937  10.1514  10.1529  10.1615  10.2540
    10.2706  10.3059  10.3273  10.3376  10.4315  10.4587  10.5501  10.5571
    10.5744  10.5988  10.6169  10.6522  10.6940  10.7476  10.7848  10.8413
    10.8491  10.8579  10.8919  10.9245  10.9612  10.9622  11.0049  11.0411
    11.0927  11.1184  11.1217  11.1847  11.2074  11.2319  11.2672  11.2712
    11.3095  11.3102  11.3512  11.3686  11.4220  11.4642  11.5439  11.5498
    11.5908  11.6559  11.6680  11.7270  11.7499  11.8155  11.8288  11.8899
    11.9227  11.9791  11.9960  12.0259  12.1222  12.1352  12.1358  12.1722
    12.2250  12.2472  12.3767  12.4248  12.4642  12.5275  12.6332  12.6332
    12.6899  12.7157  12.8534  12.8534  12.8787  12.8970  13.0394  13.0397
    13.3536  13.7041  14.6485  14.8675  15.8472  16.4321  16.6604  16.7842
    16.9308  16.9383  16.9818  17.0063  17.0082  17.0264  17.6124  17.6965
    18.6441  18.7165  18.7466  19.0301  19.2864  19.3528  20.2749  20.3344
    20.7020  20.7575

          k = 0.0000 0.2500 0.0000 ( 13848 PWs)   bands (ev):

   -66.8720 -66.7527 -66.7527 -66.6074 -66.6073 -66.5814 -62.2331 -62.2331
   -35.6389 -35.5942 -35.5879 -35.5158 -35.5158 -35.4793 -35.4793 -35.4730
   -35.4730 -35.3832 -35.3832 -35.3549 -35.3299 -35.3299 -35.3236 -35.3236
   -35.3054 -35.2991 -31.0592 -31.0592 -31.0547 -31.0547 -31.0513 -31.0513
     6.6757   6.8045   6.8116   7.1408   7.2055   7.6546   7.6567   8.0127
     8.2177   8.4438   8.4455   8.6541   8.6704   8.7122   8.7733   8.8058
     8.8510   8.8628   8.8708   8.9149   8.9187   8.9756   9.0157   9.0454
     9.1157   9.1169   9.3328   9.4712   9.4857   9.4954   9.5596   9.5668
     9.5970   9.5987   9.6362   9.6938   9.6951   9.7285   9.7770   9.8037
     9.8576   9.9293   9.9842  10.0273  10.0550  10.1533  10.2131  10.2637
    10.3248  10.4548  10.5254  10.5656  10.5821  10.5880  10.6257  10.6388
    10.6959  10.7487  10.7659  10.7964  10.8051  10.8494  10.8690  10.9240
    10.9807  11.0572  11.0690  11.0985  11.1164  11.1184  11.1226  11.2413
    11.2660  11.2683  11.2998  11.3777  11.3946  11.4063  11.4252  11.4539
    11.5083  11.5348  11.5817  11.6167  11.6461  11.6689  11.6712  11.6875
    11.7491  11.7605  11.7639  11.8313  11.8315  11.8692  11.8947  11.8980
    11.9314  11.9353  11.9802  12.0106  12.0472  12.0825  12.0985  12.1493
    12.1633  12.2660  12.2748  12.4307  12.4604  12.5851  12.5986  12.6828
    12.6862  12.7772  12.7774  12.9435  12.9525  12.9906  13.0493  13.0755
    13.0915  14.0275  14.3904  15.4907  15.7033  15.9603  16.1034  16.1104
    16.5086  16.5582  16.8450  16.8647  16.8752  16.8830  17.1863  17.2502
    17.2534  17.3715  17.4820  17.8183  18.1928  18.3797  18.4710  18.5518
    19.2559  20.3376

          k = 0.0000 0.2500 0.0242 ( 13862 PWs)   bands (ev):

   -66.8720 -66.7527 -66.7527 -66.6074 -66.6073 -66.5814 -62.2331 -62.2331
   -35.6389 -35.5942 -35.5879 -35.5158 -35.5158 -35.4793 -35.4793 -35.4730
   -35.4730 -35.3832 -35.3832 -35.3549 -35.3299 -35.3299 -35.3236 -35.3236
   -35.3054 -35.2991 -31.0592 -31.0592 -31.0547 -31.0547 -31.0513 -31.0513
     6.6836   6.7523   6.8779   7.0627   7.2921   7.5346   7.7727   7.9706
     8.2508   8.3814   8.5040   8.6123   8.7059   8.7175   8.7656   8.7932
     8.8364   8.8631   8.8999   8.9129   8.9220   8.9841   9.0152   9.0412
     9.0883   9.1175   9.3655   9.4719   9.4811   9.5033   9.5414   9.5864
     9.5872   9.5987   9.6288   9.6634   9.6894   9.7000   9.8068   9.8561
     9.8579   9.9235   9.9938  10.0230  10.0540  10.0987  10.2245  10.2980
    10.3090  10.4904  10.5034  10.5569  10.5715  10.5869  10.6480  10.6576
    10.6673  10.7043  10.7805  10.7985  10.8324  10.8478  10.8707  10.9398
    10.9859  11.0286  11.0408  11.0897  11.1067  11.1489  11.1619  11.2264
    11.2614  11.2744  11.2936  11.3711  11.3972  11.4080  11.4244  11.4649
    11.5115  11.5505  11.5652  11.5884  11.6389  11.6651  11.6653  11.7449
    11.7490  11.7600  11.7630  11.8294  11.8358  11.8610  11.8881  11.8940
    11.9032  11.9356  11.9888  12.0275  12.0292  12.0984  12.1188  12.1348
    12.1633  12.2604  12.2880  12.3795  12.5092  12.5977  12.6137  12.6701
    12.6825  12.7776  12.7844  12.8341  12.9435  12.9517  13.0756  13.0915
    13.2388  13.8507  14.5886  15.2690  15.8423  15.9850  16.0820  16.1567
    16.4383  16.5641  16.8632  16.8647  16.8752  16.8867  17.2052  17.2502
    17.2534  17.3337  17.5152  17.8626  18.0484  18.2762  18.5421  18.7036
    19.2993  19.9330

          k = 0.0000 0.2500-0.0484 ( 13842 PWs)   bands (ev):

   -66.8720 -66.7527 -66.7527 -66.6074 -66.6073 -66.5814 -62.2331 -62.2331
   -35.6389 -35.5942 -35.5879 -35.5158 -35.5158 -35.4793 -35.4793 -35.4730
   -35.4730 -35.3832 -35.3832 -35.3549 -35.3299 -35.3299 -35.3236 -35.3236
   -35.3054 -35.2991 -31.0592 -31.0592 -31.0547 -31.0547 -31.0513 -31.0513
     6.7003   6.7196   6.9422   6.9878   7.3951   7.4276   7.8786   7.8829
     8.3087   8.3206   8.5582   8.5614   8.7214   8.7335   8.7532   8.7796
     8.8312   8.8631   8.9028   8.9193   8.9378   8.9936   9.0141   9.0361
     9.0589   9.1181   9.4023   9.4731   9.4777   9.5127   9.5283   9.5616
     9.5988   9.6100   9.6107   9.6369   9.6877   9.7022   9.8103   9.8542
     9.9187   9.9236  10.0089  10.0123  10.0402  10.0530  10.2551  10.2563
    10.3482  10.4743  10.5391  10.5585  10.5594  10.5891  10.6066  10.6533
    10.6872  10.7199  10.7496  10.7892  10.8446  10.8465  10.9094  10.9780
    10.9802  10.9841  11.0029  11.1012  11.1060  11.1855  11.1870  11.1911
    11.2522  11.2851  11.2869  11.3631  11.4012  11.4079  11.4246  11.4847
    11.5184  11.5323  11.5662  11.5674  11.6484  11.6624  11.6626  11.7460
    11.7580  11.7623  11.7846  11.8272  11.8520  11.8523  11.8632  11.8889
    11.8924  11.9447  11.9598  12.0244  12.0785  12.0984  12.1042  12.1415
    12.1633  12.2537  12.3203  12.3299  12.5423  12.5939  12.6539  12.6813
    12.6948  12.7012  12.7781  12.7902  12.9435  12.9509  13.0757  13.0916
    13.3982  13.6745  14.8327  15.0210  15.8942  16.0073  16.0962  16.2385
    16.3287  16.5638  16.8647  16.8752  16.8808  16.8886  17.2502  17.2534
    17.2555  17.2653  17.5684  17.8414  18.0636  18.1136  18.6696  18.7274
    19.4602  19.6274

          k = 0.0000 0.3750 0.0000 ( 13856 PWs)   bands (ev):

   -66.8725 -66.7533 -66.7533 -66.6079 -66.6079 -66.5820 -62.2321 -62.2321
   -35.6385 -35.5983 -35.5877 -35.5154 -35.5153 -35.4833 -35.4833 -35.4727
   -35.4727 -35.3827 -35.3827 -35.3545 -35.3340 -35.3340 -35.3233 -35.3233
   -35.3095 -35.2989 -31.0646 -31.0646 -31.0541 -31.0541 -31.0510 -31.0510
     7.6352   7.7329   7.7417   7.9537   7.9581   8.1187   8.1373   8.1806
     8.1824   8.2264   8.2394   8.3394   8.3417   8.5210   8.5433   8.7147
     8.8214   8.9317   9.0222   9.0630   9.1250   9.1281   9.2215   9.2233
     9.2265   9.2608   9.2616   9.2674   9.2995   9.3320   9.3322   9.3995
     9.4532   9.4751   9.5779   9.6111   9.6262   9.6525   9.7116   9.7527
     9.8849   9.9080   9.9999  10.0874  10.0949  10.1371  10.1388  10.3174
    10.3437  10.3734  10.3883  10.4271  10.5038  10.5904  10.6260  10.7230
    10.7742  10.8054  10.8525  10.9253  10.9908  11.1459  11.1664  11.1678
    11.2277  11.2455  11.3223  11.3278  11.4045  11.4499  11.4594  11.4668
    11.4740  11.5096  11.5174  11.5809  11.5811  11.6027  11.6278  11.6547
    11.6889  11.6987  11.7034  11.7204  11.7890  11.8431  11.8447  11.8495
    11.9112  11.9313  11.9817  12.0027  12.0347  12.0441  12.0562  12.0880
    12.1501  12.1679  12.1820  12.2191  12.2262  12.2506  12.2978  12.3549
    12.3822  12.4992  12.5018  12.5287  12.5955  12.6049  12.7284  12.7487
    12.7681  12.8518  12.8994  12.9800  12.9800  13.0012  13.0354  13.1259
    13.1383  13.9452  14.0683  14.0909  14.2618  14.2975  14.9516  14.9999
    15.1016  15.1268  15.6780  15.6906  16.0005  16.1016  16.7990  16.7998
    16.8056  16.9872  16.9918  17.1292  17.4530  17.4533  17.8937  18.0112
    19.4324  19.4724

          k = 0.0000 0.3750 0.0242 ( 13870 PWs)   bands (ev):

   -66.8725 -66.7533 -66.7533 -66.6079 -66.6079 -66.5820 -62.2321 -62.2321
   -35.6385 -35.5983 -35.5877 -35.5153 -35.5153 -35.4833 -35.4833 -35.4727
   -35.4727 -35.3827 -35.3827 -35.3545 -35.3340 -35.3340 -35.3233 -35.3233
   -35.3095 -35.2989 -31.0646 -31.0646 -31.0541 -31.0541 -31.0510 -31.0510
     7.6408   7.6971   7.7865   7.8996   8.0082   8.0949   8.1536   8.1769
     8.1849   8.2170   8.2531   8.3067   8.3798   8.4785   8.5882   8.6908
     8.8365   8.9355   9.0109   9.0391   9.1308   9.1659   9.2125   9.2216
     9.2246   9.2665   9.2692   9.2747   9.2989   9.3213   9.3299   9.4106
     9.4156   9.4516   9.5981   9.6210   9.6291   9.6519   9.7400   9.7736
     9.8760   9.8897  10.0059  10.0176  10.0839  10.0948  10.2600  10.3168
    10.3383  10.3779  10.4020  10.4260  10.4926  10.5855  10.6001  10.7181
    10.7216  10.8478  10.8704  10.9700  11.0084  11.0767  11.1458  11.2196
    11.2504  11.2623  11.2673  11.3759  11.4004  11.4152  11.4207  11.4662
    11.4818  11.4984  11.5029  11.5694  11.5943  11.6156  11.6193  11.6461
    11.6756  11.7057  11.7246  11.7724  11.7819  11.8013  11.8360  11.8541
    11.9146  11.9349  11.9752  11.9949  12.0498  12.0632  12.0764  12.1228
    12.1391  12.1518  12.1798  12.2140  12.2490  12.2605  12.3244  12.3593
    12.3751  12.4984  12.5023  12.5122  12.5941  12.6178  12.7004  12.7294
    12.7430  12.7689  12.8529  12.8993  13.0011  13.0355  13.1259  13.1383
    13.2704  13.8313  13.9652  14.1384  14.3044  14.4538  14.7694  14.8724
    15.1971  15.3374  15.5608  15.7170  15.9802  16.1079  16.7990  16.7998
    16.8113  16.9870  16.9924  17.1314  17.4530  17.4533  17.8919  18.0142
    19.4336  19.5135

          k = 0.0000 0.3750-0.0484 ( 13872 PWs)   bands (ev):

   -66.8725 -66.7533 -66.7533 -66.6079 -66.6079 -66.5820 -62.2321 -62.2321
   -35.6385 -35.5983 -35.5877 -35.5153 -35.5153 -35.4833 -35.4833 -35.4727
   -35.4727 -35.3827 -35.3827 -35.3545 -35.3340 -35.3340 -35.3233 -35.3233
   -35.3095 -35.2989 -31.0646 -31.0646 -31.0541 -31.0541 -31.0510 -31.0510
     7.6506   7.6756   7.8347   7.8489   8.0476   8.0631   8.1685   8.1688
     8.1868   8.2108   8.2708   8.2836   8.4136   8.4404   8.6375   8.6471
     8.8501   8.9399   9.0023   9.0187   9.1551   9.1657   9.2193   9.2218
     9.2228   9.2670   9.2779   9.2965   9.3041   9.3109   9.3145   9.3651
     9.4218   9.4489   9.5877   9.6303   9.6419   9.6499   9.7968   9.8076
     9.8405   9.8874   9.9189  10.0331  10.0791  10.0946  10.3162  10.3216
    10.3288  10.4010  10.4022  10.4250  10.4996  10.5198  10.6137  10.6895
    10.7209  10.8358  10.9280  11.0145  11.0210  11.0335  11.1355  11.2114
    11.2537  11.2753  11.2952  11.3315  11.3883  11.3942  11.4389  11.4620
    11.4688  11.4785  11.5362  11.5689  11.5708  11.6044  11.6166  11.6337
    11.7085  11.7310  11.7350  11.7619  11.7701  11.8132  11.8290  11.8616
    11.8841  11.9218  11.9788  12.0354  12.0385  12.0600  12.1112  12.1136
    12.1474  12.1511  12.1786  12.1799  12.2781  12.3370  12.3509  12.3688
    12.4292  12.4377  12.4937  12.5005  12.5201  12.5989  12.6286  12.7298
    12.7380  12.7691  12.8540  12.8993  13.0010  13.0355  13.1259  13.1383
    13.5312  13.5856  14.0061  14.0581  14.4663  14.5852  14.6317  14.7044
    15.3498  15.3974  15.5772  15.5891  15.9851  16.1049  16.7990  16.7998
    16.8168  16.9868  16.9929  17.1336  17.4530  17.4533  17.8903  18.0170
    19.4509  19.5382

          k = 0.0000-0.5000 0.0000 ( 13918 PWs)   bands (ev):

   -66.8730 -66.7538 -66.7538 -66.6084 -66.6084 -66.5825 -62.2315 -62.2315
   -35.6383 -35.5999 -35.5876 -35.5152 -35.5152 -35.4850 -35.4850 -35.4726
   -35.4726 -35.3826 -35.3826 -35.3543 -35.3356 -35.3356 -35.3232 -35.3232
   -35.3112 -35.2988 -31.0669 -31.0669 -31.0539 -31.0539 -31.0509 -31.0509
     8.1109   8.1152   8.1529   8.1578   8.1639   8.1747   8.2449   8.2879
     8.3213   8.3978   8.4251   8.4381   8.5095   8.5174   8.5250   8.6615
     8.6937   8.7902   8.9238   8.9439   9.1178   9.1241   9.1404   9.1801
     9.1834   9.1976   9.2219   9.2257   9.3070   9.3160   9.3598   9.4690
     9.4835   9.5647   9.6758   9.7071   9.7247   9.7540   9.7904   9.7908
     9.8159   9.8178   9.8426   9.9725   9.9966  10.0241  10.0437  10.1388
    10.2366  10.3575  10.3956  10.3980  10.5521  10.5559  10.6051  10.6393
    10.6629  10.7460  10.8260  11.0282  11.1748  11.1905  11.2707  11.3366
    11.3553  11.4240  11.4352  11.4849  11.5013  11.5068  11.5577  11.5609
    11.5631  11.5786  11.5966  11.6071  11.6362  11.6537  11.6789  11.7074
    11.7283  11.7562  11.7777  11.7954  11.8392  11.8687  11.8757  12.0123
    12.0282  12.0789  12.0912  12.2143  12.2644  12.3726  12.4077  12.4208
    12.4336  12.4631  12.4946  12.5043  12.5564  12.5709  12.5969  12.6162
    12.6272  12.6750  12.7362  12.7414  12.7735  12.7756  12.8399  12.8740
    12.9365  12.9514  12.9688  13.0294  13.0403  13.0583  13.1531  13.1549
    13.1558  13.3613  13.3886  13.4107  13.7521  13.8152  13.9380  13.9864
    14.3873  14.4253  14.4785  14.4875  14.7653  14.8273  16.5477  16.7767
    16.7797  16.7816  16.8511  16.8520  17.5270  17.5270  17.8907  17.9451
    19.4261  19.4597

          k = 0.0000-0.5000 0.0242 ( 13918 PWs)   bands (ev):

   -66.8730 -66.7538 -66.7538 -66.6084 -66.6084 -66.5825 -62.2315 -62.2315
   -35.6383 -35.5999 -35.5876 -35.5152 -35.5152 -35.4850 -35.4850 -35.4726
   -35.4726 -35.3826 -35.3826 -35.3543 -35.3356 -35.3356 -35.3232 -35.3232
   -35.3112 -35.2988 -31.0669 -31.0669 -31.0539 -31.0539 -31.0509 -31.0509
     8.1142   8.1169   8.1397   8.1457   8.1822   8.1859   8.2354   8.2802
     8.3292   8.3932   8.4359   8.4406   8.4933   8.5091   8.5413   8.6594
     8.6956   8.7914   8.9210   8.9407   9.1201   9.1241   9.1511   9.1653
     9.1834   9.2153   9.2219   9.2319   9.2949   9.3160   9.3464   9.4616
     9.5002   9.5647   9.6766   9.7086   9.7090   9.7269   9.7914   9.8149
     9.8159   9.8416   9.8433   9.9862   9.9966  10.0057  10.0437  10.1681
    10.2180  10.3667  10.3904  10.3980  10.4054  10.6051  10.6317  10.6630
    10.7343  10.7460  10.8231  11.0356  11.0949  11.1920  11.2785  11.3273
    11.3738  11.4245  11.4346  11.4821  11.4952  11.5104  11.5458  11.5571
    11.5604  11.5872  11.5998  11.6039  11.6219  11.6368  11.7276  11.7336
    11.7430  11.7588  11.7754  11.7949  11.8580  11.8687  11.8724  11.9355
    12.0789  12.1053  12.1082  12.1082  12.3402  12.3406  12.3727  12.4206
    12.4492  12.4941  12.5040  12.5088  12.5528  12.5710  12.5760  12.5940
    12.6294  12.7015  12.7262  12.7413  12.7736  12.8028  12.8278  12.8740
    12.8844  12.9459  12.9945  13.0420  13.0583  13.0845  13.1296  13.1531
    13.1548  13.2808  13.4107  13.4933  13.7132  13.7502  13.9958  14.0603
    14.2695  14.3440  14.5411  14.6130  14.7364  14.8023  16.5499  16.7753
    16.7797  16.7816  16.8512  16.8520  17.5269  17.5270  17.8916  17.9445
    19.4529  19.4755

          k = 0.0000-0.5000-0.0484 ( 13892 PWs)   bands (ev):

   -66.8730 -66.7538 -66.7538 -66.6084 -66.6084 -66.5825 -62.2315 -62.2315
   -35.6383 -35.5999 -35.5876 -35.5152 -35.5152 -35.4850 -35.4850 -35.4726
   -35.4726 -35.3826 -35.3826 -35.3543 -35.3356 -35.3356 -35.3232 -35.3232
   -35.3112 -35.2988 -31.0669 -31.0669 -31.0539 -31.0539 -31.0509 -31.0509
     8.1191   8.1229   8.1250   8.1399   8.1882   8.2086   8.2165   8.2739
     8.3360   8.3886   8.4429   8.4578   8.4670   8.5087   8.5485   8.6573
     8.6974   8.7927   8.9183   8.9376   9.1229   9.1241   9.1559   9.1634
     9.1834   9.2219   9.2279   9.2383   9.2812   9.3160   9.3335   9.4540
     9.5174   9.5647   9.6775   9.6806   9.7108   9.7285   9.7929   9.8122
     9.8159   9.8439   9.8793   9.9813   9.9967  10.0012  10.0437  10.1993
    10.2393  10.2730  10.3760  10.3980  10.4139  10.6051  10.6239  10.6630
    10.7460  10.8202  10.8840  10.9657  11.0432  11.1932  11.2870  11.3179
    11.3858  11.4254  11.4338  11.4784  11.4899  11.5156  11.5338  11.5566
    11.5599  11.5962  11.5969  11.6097  11.6150  11.6185  11.7371  11.7535
    11.7629  11.7719  11.7820  11.7927  11.8687  11.8696  11.8905  11.9281
    11.9986  12.0789  12.1194  12.1603  12.2913  12.3728  12.3805  12.4205
    12.4370  12.5120  12.5222  12.5300  12.5364  12.5636  12.5711  12.5744
    12.6368  12.6737  12.7412  12.7737  12.7911  12.8174  12.8176  12.8198
    12.8740  12.9398  13.0287  13.0435  13.0583  13.0945  13.1518  13.1531
    13.1547  13.2063  13.4334  13.5623  13.6801  13.6814  14.0729  14.1580
    14.1765  14.2358  14.6542  14.6582  14.7016  14.7496  16.5520  16.7739
    16.7797  16.7816  16.8513  16.8519  17.5269  17.5270  17.8925  17.9439
    19.4894  19.4941

          k = 0.1250 0.1250 0.0000 ( 13839 PWs)   bands (ev):

   -66.8718 -66.7526 -66.7526 -66.6072 -66.6072 -66.5813 -62.2336 -62.2335
   -35.6391 -35.5899 -35.5899 -35.5160 -35.5160 -35.4750 -35.4750 -35.4749
   -35.4749 -35.3834 -35.3834 -35.3551 -35.3256 -35.3256 -35.3256 -35.3256
   -35.3012 -35.3011 -31.0550 -31.0550 -31.0539 -31.0539 -31.0537 -31.0537
     6.2184   6.3590   6.3655   6.7339   6.8248   7.3853   7.3862   7.8934
     8.2997   8.5540   8.6440   8.6614   8.6716   8.6982   8.7025   8.7062
     8.7104   8.8194   8.9027   8.9778   8.9918   9.0708   9.1750   9.1764
     9.3349   9.3369   9.3406   9.4607   9.4696   9.5209   9.5606   9.6064
     9.7380   9.7632   9.7708   9.8465   9.8549   9.8683   9.8835   9.8876
     9.9186   9.9207   9.9249   9.9645  10.0253  10.1084  10.1085  10.1693
    10.2095  10.3021  10.3275  10.3413  10.3596  10.3737  10.4638  10.4820
    10.5572  10.5584  10.5816  10.6105  10.6528  10.6773  10.6874  10.7548
    10.8266  10.8303  10.8475  11.0351  11.0651  11.0868  11.1121  11.1326
    11.1455  11.1902  11.2023  11.2124  11.2739  11.2780  11.2816  11.3405
    11.3866  11.3872  11.4626  11.4948  11.4998  11.5212  11.5985  11.6420
    11.6698  11.7086  11.7375  11.8173  11.8714  11.8746  11.9408  11.9625
    11.9693  11.9948  11.9964  12.0600  12.1070  12.1926  12.1984  12.2147
    12.2812  12.3702  12.4014  12.4389  12.4874  12.5531  12.5992  12.6064
    12.6384  12.7194  12.7685  12.7846  12.8453  12.9160  12.9163  13.0712
    13.1686  14.0040  14.4299  15.4361  15.6854  16.6593  16.7796  16.7952
    16.8459  16.9222  16.9266  16.9594  16.9694  17.0180  17.5989  18.1964
    18.4412  19.0945  19.1966  19.3030  19.3885  19.5412  19.5701  19.8003
    19.9993  20.1115

          k = 0.1250 0.1250 0.0242 ( 13842 PWs)   bands (ev):

   -66.8718 -66.7526 -66.7526 -66.6072 -66.6072 -66.5813 -62.2336 -62.2335
   -35.6391 -35.5899 -35.5899 -35.5160 -35.5160 -35.4750 -35.4750 -35.4749
   -35.4749 -35.3834 -35.3834 -35.3551 -35.3256 -35.3256 -35.3256 -35.3256
   -35.3012 -35.3011 -31.0550 -31.0550 -31.0539 -31.0539 -31.0537 -31.0537
     6.2272   6.3008   6.4394   6.6489   6.9225   7.2268   7.5463   7.8339
     8.3492   8.5502   8.5928   8.6284   8.6617   8.6985   8.7075   8.7144
     8.7942   8.8185   8.8791   8.9679   8.9787   9.0975   9.1742   9.1865
     9.2718   9.3412   9.4071   9.4501   9.4530   9.5069   9.5701   9.6212
     9.7245   9.7601   9.7846   9.8413   9.8537   9.8707   9.8824   9.8891
     9.9147   9.9191   9.9247   9.9642  10.0430  10.1084  10.1085  10.1387
    10.2168  10.3063  10.3418  10.3460  10.3590  10.3738  10.4624  10.4642
    10.5579  10.5643  10.5758  10.6244  10.6525  10.6756  10.6943  10.7560
    10.7701  10.8265  10.9040  11.0282  11.0804  11.0894  11.1088  11.1303
    11.1326  11.1736  11.1812  11.2532  11.2569  11.2831  11.3141  11.3357
    11.3557  11.3955  11.4558  11.4777  11.4947  11.5232  11.6235  11.6673
    11.6746  11.7109  11.7373  11.8153  11.8604  11.8613  11.8922  11.9531
    11.9891  11.9975  12.0318  12.0534  12.1116  12.1926  12.1970  12.2511
    12.2527  12.3683  12.3783  12.4550  12.4894  12.5497  12.6045  12.6119
    12.6323  12.7391  12.7707  12.7879  12.8448  12.9141  12.9165  12.9560
    13.3041  13.8799  14.5841  15.2255  15.8577  16.6069  16.7796  16.8219
    16.8458  16.9004  16.9282  16.9594  16.9694  17.0301  17.6334  17.9931
    18.7182  19.0999  19.2171  19.2617  19.4105  19.4509  19.6379  19.7347
    19.7356  20.0987

          k = 0.1250 0.1250-0.0484 ( 13838 PWs)   bands (ev):

   -66.8718 -66.7526 -66.7526 -66.6072 -66.6072 -66.5813 -62.2336 -62.2335
   -35.6391 -35.5899 -35.5899 -35.5160 -35.5160 -35.4750 -35.4750 -35.4749
   -35.4749 -35.3834 -35.3834 -35.3551 -35.3256 -35.3256 -35.3256 -35.3256
   -35.3012 -35.3011 -31.0550 -31.0550 -31.0539 -31.0539 -31.0537 -31.0537
     6.2472   6.2631   6.5091   6.5665   7.0401   7.0984   7.6849   7.7190
     8.4258   8.4909   8.5783   8.6056   8.6621   8.6959   8.7171   8.7343
[...]
    11.8142  11.8541  11.8638  11.9100  11.9144  11.9182  11.9601  11.9898
    12.0418  12.0829  12.2161  12.2581  12.2839  12.3754  12.3904  12.4236
    12.4525  12.4721  12.7982  12.8408  12.8447  12.9321  13.0251  13.1097
    13.1302  13.3401  13.6763  13.7014  13.7255  13.9108  14.0198  14.1955
    14.4313  14.5074  14.5881  14.8010  14.8274  14.9843  15.2229  15.6046
    16.0117  16.1965  16.8908  16.9557  16.9876  16.9954  17.0453  17.0606
    17.0685  17.0914  17.1044  17.1648  17.1703  17.2708  17.4701  17.5020
    17.5034  17.5131  17.7254  17.7376  17.9048  17.9536  18.1140  18.1531
    18.1938  18.2207  18.2835  18.3049  18.4055  18.4886  18.6073  18.6092
    19.8323  19.9880

          k = 0.3750 0.3750 0.0000 ( 13948 PWs)   bands (ev):

   -66.8414 -66.8414 -62.2477 -62.1567 -62.1567 -62.0483 -62.0483 -62.0266
   -35.6075 -35.6075 -35.5689 -35.5689 -35.5688 -35.5688 -31.0793 -31.0791
   -31.0666 -30.9894 -30.9894 -30.9892 -30.9892 -30.9779 -30.9779 -30.8794
   -30.8794 -30.8782 -30.8782 -30.8780 -30.8780 -30.8581 -30.8579 -30.8547
     8.0996   8.2357   8.4413   8.4958   8.5411   8.7259   8.7298   8.8510
     9.0109   9.0243   9.0576   9.1330   9.2088   9.2220   9.2855   9.2961
     9.3067   9.3476   9.3673   9.4013   9.4283   9.4789   9.5179   9.5182
     9.5369   9.5644   9.5834   9.6369   9.7067   9.7181   9.7238   9.8963
     9.9440   9.9565  10.0081  10.0254  10.0301  10.1232  10.1289  10.1621
    10.1770  10.2906  10.2935  10.3785  10.4405  10.5038  10.5660  10.6165
    10.6589  10.6764  10.7510  10.7735  10.8012  10.8168  10.8432  10.9825
    11.0084  11.0115  11.1183  11.1705  11.1917  11.2198  11.2573  11.3850
    11.4284  11.4834  11.4846  11.5423  11.5717  11.5951  11.5964  11.6198
    11.7571  11.8812  11.8886  11.9318  11.9620  11.9623  11.9873  12.0348
    12.0484  12.0589  12.0955  12.1484  12.1531  12.2163  12.2463  12.2648
    12.3179  12.4451  12.5198  12.6580  12.6710  12.9250  12.9718  13.1714
    13.3375  13.6233  13.8111  14.1148  14.3636  14.6846  14.6973  14.8857
    15.0818  15.1703  15.2067  15.3103  15.4099  15.5053  16.2295  16.3410
    16.4171  16.5133  16.9434  17.0242  17.0578  17.0884  17.1085  17.1322
    17.1454  17.1670  17.2374  17.3573  17.4436  17.5941  17.6400  17.6893
    17.7932  17.8277  17.8343  17.8363  17.9730  18.1074  18.1559  18.2029
    18.3695  18.3700  18.3756  18.4693  18.4864  18.8651  19.0173  19.0387
    19.0668  19.0906

          k = 0.3750 0.3750 0.0242 ( 13940 PWs)   bands (ev):

   -66.8414 -66.8414 -62.2477 -62.1567 -62.1567 -62.0483 -62.0483 -62.0266
   -35.6075 -35.6075 -35.5689 -35.5689 -35.5688 -35.5688 -31.0793 -31.0791
   -31.0666 -30.9894 -30.9894 -30.9892 -30.9892 -30.9779 -30.9779 -30.8794
   -30.8794 -30.8782 -30.8782 -30.8780 -30.8780 -30.8581 -30.8579 -30.8547
     8.0999   8.2345   8.4418   8.4971   8.5544   8.6572   8.7946   8.8519
     9.0064   9.0176   9.0561   9.1471   9.1758   9.2211   9.2793   9.2962
     9.3469   9.3504   9.3797   9.3856   9.4351   9.4819   9.4825   9.5131
     9.5436   9.5601   9.6097   9.6398   9.6619   9.7072   9.7846   9.9074
     9.9160   9.9573   9.9738  10.0130  10.0771  10.0871  10.1609  10.1750
    10.2014  10.2503  10.2944  10.3901  10.4080  10.5336  10.5794  10.6068
    10.6493  10.6819  10.7297  10.7803  10.8063  10.8380  10.8410  10.9527
    10.9828  11.0519  11.1178  11.1691  11.1997  11.2186  11.2581  11.3779
    11.4299  11.4730  11.4952  11.5393  11.5751  11.5898  11.5998  11.6197
    11.7679  11.8431  11.9285  11.9319  11.9618  11.9623  11.9866  12.0138
    12.0392  12.0853  12.0887  12.1453  12.1605  12.2184  12.2459  12.2523
    12.3260  12.4441  12.5271  12.6105  12.7297  12.8722  13.0189  13.1512
    13.3495  13.6107  13.8258  14.0982  14.3879  14.6174  14.7618  14.8739
    15.0846  15.1577  15.2202  15.3057  15.4108  15.5052  16.2295  16.3418
    16.4169  16.5117  16.9501  17.0180  17.0604  17.0850  17.1087  17.1333
    17.1453  17.1624  17.2435  17.3689  17.4300  17.5757  17.6486  17.7017
    17.7921  17.8273  17.8367  17.8409  17.9625  18.1201  18.1343  18.2061
    18.3045  18.3693  18.4517  18.4750  18.5923  18.8086  18.8208  18.8816
    19.0861  19.2425

          k = 0.3750 0.3750-0.0484 ( 13950 PWs)   bands (ev):

   -66.8414 -66.8414 -62.2477 -62.1567 -62.1567 -62.0483 -62.0483 -62.0266
   -35.6075 -35.6075 -35.5689 -35.5689 -35.5688 -35.5688 -31.0793 -31.0791
   -31.0666 -30.9894 -30.9894 -30.9892 -30.9892 -30.9779 -30.9779 -30.8794
   -30.8794 -30.8782 -30.8782 -30.8780 -30.8780 -30.8581 -30.8579 -30.8547
     8.1002   8.2333   8.4422   8.4980   8.5870   8.6043   8.8276   8.8518
     8.9961   9.0138   9.0586   9.1499   9.1715   9.1959   9.2963   9.3145
     9.3369   9.3462   9.3691   9.4422   9.4512   9.4541   9.4573   9.4895
     9.5367   9.6070   9.6093   9.6179   9.6511   9.7042   9.8485   9.8547
     9.9269   9.9577   9.9680   9.9838  10.0668  10.1380  10.1597  10.1794
    10.2032  10.2423  10.3151  10.3265  10.4304  10.5521  10.5879  10.5961
    10.6496  10.6939  10.6989  10.7858  10.8120  10.8383  10.8703  10.9091
    10.9831  11.0666  11.1173  11.1681  11.2123  11.2128  11.2591  11.3703
    11.4316  11.4679  11.5006  11.5362  11.5805  11.5842  11.6012  11.6196
    11.7865  11.8155  11.9320  11.9616  11.9623  11.9703  11.9734  11.9860
    12.0450  12.0753  12.1096  12.1325  12.1726  12.2205  12.2399  12.2455
    12.3323  12.4429  12.5388  12.5830  12.7973  12.8035  13.0575  13.1232
    13.3609  13.5986  13.8404  14.0820  14.4157  14.5777  14.8023  14.8538
    15.0878  15.1480  15.2311  15.3005  15.4117  15.5051  16.2296  16.3427
    16.4167  16.5101  16.9582  17.0105  17.0633  17.0810  17.1089  17.1346
    17.1450  17.1580  17.2502  17.3811  17.4164  17.5589  17.6565  17.7114
    17.7909  17.8269  17.8370  17.8487  17.9530  18.0948  18.1638  18.2102
    18.2806  18.3144  18.5632  18.6210  18.6235  18.6640  18.6933  18.8036
    19.0936  19.2416

          k = 0.3750-0.5000 0.0000 ( 13934 PWs)   bands (ev):

   -66.8414 -66.8414 -62.2475 -62.1565 -62.1565 -62.0481 -62.0481 -62.0264
   -35.6074 -35.6074 -35.5705 -35.5705 -35.5687 -35.5687 -31.0814 -31.0790
   -31.0664 -30.9915 -30.9915 -30.9891 -30.9891 -30.9778 -30.9778 -30.8803
   -30.8803 -30.8793 -30.8793 -30.8779 -30.8779 -30.8602 -30.8578 -30.8545
     8.2258   8.2353   8.3107   8.3996   8.6383   8.6509   8.7754   8.7906
     8.9142   9.0536   9.1093   9.1585   9.1923   9.1981   9.2088   9.2324
     9.2723   9.3071   9.3136   9.3660   9.4194   9.4291   9.4309   9.4863
     9.5136   9.5298   9.6208   9.6558   9.7070   9.7082   9.8858   9.9044
     9.9492   9.9691   9.9855   9.9904  10.0763  10.1002  10.1842  10.2150
    10.3590  10.3843  10.3890  10.3939  10.5275  10.5760  10.6689  10.6763
    10.6855  10.7640  10.8242  10.8635  10.8802  11.0642  11.1062  11.1512
    11.1538  11.1565  11.2462  11.2490  11.3464  11.4184  11.4352  11.4379
    11.5182  11.6396  11.6479  11.6867  11.7550  11.7680  11.7699  11.8164
    11.8972  11.9512  11.9636  11.9819  12.0291  12.0314  12.0441  12.0936
    12.1052  12.1148  12.1657  12.2170  12.2671  12.2714  12.3167  12.3599
    12.3683  12.4272  12.9246  13.0151  13.1038  13.1135  13.1381  13.2842
    13.5729  13.8234  14.1354  14.2542  14.2811  14.2914  14.4432  14.4762
    14.6182  14.6730  14.8389  14.8420  15.3317  15.4074  15.5671  15.8805
    16.7264  16.8489  17.0268  17.0306  17.0404  17.0448  17.0797  17.0974
    17.1071  17.1350  17.3282  17.3309  17.3363  17.6918  17.7182  17.8677
    17.9032  17.9514  17.9929  18.0425  18.0814  18.1276  18.1496  18.2595
    18.3012  18.4345  18.4547  18.5562  18.7526  18.7745  18.8114  18.9735
    19.0102  19.1751

          k = 0.3750-0.5000 0.0242 ( 13948 PWs)   bands (ev):

   -66.8414 -66.8414 -62.2475 -62.1565 -62.1565 -62.0481 -62.0481 -62.0264
   -35.6074 -35.6074 -35.5705 -35.5705 -35.5687 -35.5687 -31.0814 -31.0790
   -31.0664 -30.9915 -30.9915 -30.9891 -30.9891 -30.9778 -30.9778 -30.8803
   -30.8803 -30.8793 -30.8793 -30.8779 -30.8779 -30.8602 -30.8578 -30.8545
     8.2260   8.2354   8.3105   8.3980   8.6534   8.6543   8.7537   8.7702
     8.9550   9.0668   9.1094   9.1450   9.1601   9.1808   9.2008   9.2654
     9.2777   9.2826   9.3509   9.3700   9.4029   9.4098   9.4674   9.4822
     9.5071   9.5466   9.5852   9.6499   9.6988   9.7707   9.8331   9.9106
     9.9357   9.9506   9.9943  10.0217  10.0913  10.1230  10.1776  10.2190
    10.2999  10.3031  10.4480  10.4749  10.5322  10.5602  10.6480  10.6889
    10.6932  10.7575  10.7995  10.8158  10.9503  11.0664  11.1014  11.1362
    11.1541  11.1816  11.2205  11.2765  11.3101  11.4065  11.4530  11.4619
    11.5101  11.6233  11.6589  11.6934  11.7393  11.7680  11.7837  11.8128
    11.8991  11.9490  11.9642  11.9836  12.0254  12.0270  12.0502  12.0942
    12.1047  12.1149  12.1663  12.2116  12.2604  12.2833  12.3281  12.3608
    12.3641  12.4170  12.9367  13.0193  13.0560  13.1338  13.1564  13.2783
    13.5747  13.8219  14.1405  14.2304  14.2837  14.3182  14.4325  14.4709
    14.6224  14.6776  14.8378  14.8399  15.3319  15.4074  15.5673  15.8804
    16.7268  16.8475  17.0235  17.0308  17.0449  17.0455  17.0796  17.0941
    17.1193  17.1425  17.2490  17.3177  17.4302  17.6506  17.7409  17.8742
    17.8894  17.9664  17.9916  18.0311  18.0932  18.1250  18.1642  18.2525
    18.2658  18.4223  18.4604  18.5753  18.7577  18.8036  18.8445  18.9611
    19.0069  19.1098

          k = 0.3750-0.5000-0.0484 ( 13940 PWs)   bands (ev):

   -66.8414 -66.8414 -62.2475 -62.1565 -62.1565 -62.0481 -62.0481 -62.0264
   -35.6074 -35.6074 -35.5705 -35.5705 -35.5687 -35.5687 -31.0814 -31.0790
   -31.0664 -30.9915 -30.9915 -30.9891 -30.9891 -30.9778 -30.9778 -30.8803
   -30.8803 -30.8793 -30.8793 -30.8779 -30.8779 -30.8602 -30.8578 -30.8545
     8.2262   8.2355   8.3102   8.3965   8.6561   8.6938   8.7002   8.7651
     9.0004   9.0836   9.0977   9.1100   9.1593   9.1640   9.2007   9.2560
     9.2811   9.3006   9.3696   9.3771   9.3931   9.3975   9.4782   9.4925
     9.5013   9.5570   9.5722   9.6132   9.7484   9.7802   9.8239   9.8557
     9.9463   9.9513   9.9981  10.0315  10.1153  10.1621  10.1624  10.2305
    10.2459  10.2615  10.5047  10.5199  10.5242  10.5329  10.6434  10.6855
    10.6924  10.7557  10.7698  10.8074  10.9922  11.0683  11.0982  11.1145
    11.1543  11.2118  11.2221  11.2629  11.2883  11.3996  11.4701  11.4806
    11.4974  11.6122  11.6639  11.7039  11.7250  11.7680  11.7956  11.8060
    11.9011  11.9467  11.9646  11.9854  12.0216  12.0248  12.0542  12.0947
    12.1042  12.1151  12.1670  12.2073  12.2553  12.2964  12.3367  12.3510
    12.3751  12.4011  12.9539  13.0238  13.0256  13.1292  13.1783  13.2709
    13.5765  13.8204  14.1470  14.2135  14.2863  14.3396  14.4191  14.4658
    14.6265  14.6822  14.8366  14.8376  15.3320  15.4073  15.5676  15.8803
    16.7272  16.8462  17.0216  17.0305  17.0451  17.0497  17.0796  17.0912
    17.1396  17.1501  17.2036  17.3070  17.4982  17.5944  17.7743  17.8393
    17.9083  17.9779  17.9886  18.0211  18.1034  18.1232  18.1937  18.2188
    18.2446  18.4131  18.4627  18.5916  18.7643  18.8150  18.9473  18.9571
    18.9814  19.0070

          k =-0.5000-0.5000 0.0000 ( 13964 PWs)   bands (ev):

   -66.8414 -66.8414 -62.2474 -62.1563 -62.1563 -62.0480 -62.0480 -62.0262
   -35.6073 -35.6073 -35.5703 -35.5703 -35.5703 -35.5703 -31.0812 -31.0812
   -31.0663 -30.9913 -30.9913 -30.9913 -30.9913 -30.9777 -30.9777 -30.8801
   -30.8801 -30.8801 -30.8801 -30.8792 -30.8792 -30.8600 -30.8600 -30.8544
     8.1500   8.1558   8.2320   8.3224   8.5957   8.6013   8.7382   8.7776
     8.8461   8.9844   9.1997   9.1997   9.2220   9.2315   9.2315   9.2368
     9.2935   9.2935   9.3460   9.3460   9.4296   9.4525   9.4593   9.4593
     9.4656   9.4656   9.7086   9.7086   9.7092   9.7092   9.8611   9.9182
     9.9182   9.9189   9.9189   9.9955  10.0513  10.0513  10.0839  10.0839
    10.4949  10.5237  10.5237  10.5374  10.5374  10.6093  10.6157  10.6412
    10.7212  10.7216  10.9855  10.9855  11.1437  11.1560  11.1726  11.1726
    11.2050  11.2827  11.3757  11.3759  11.5756  11.5756  11.7570  11.7570
    11.9199  11.9199  11.9461  11.9765  11.9765  12.0100  12.0100  12.0331
    12.0331  12.0379  12.0385  12.0784  12.0784  12.0970  12.0970  12.1259
    12.1259  12.1300  12.1395  12.1558  12.2016  12.2584  12.2687  12.2702
    12.2753  12.3486  13.3645  13.4026  13.4032  13.4313  13.4471  13.4509
    13.8835  13.8835  14.1304  14.1304  14.1938  14.1938  14.4716  14.4716
    14.6784  14.6784  14.8571  14.8571  15.8466  15.8466  15.9658  15.9658
    16.5715  16.6336  16.7487  16.8284  16.9234  16.9379  16.9654  17.1593
    17.1593  17.2068  17.4537  17.4537  17.6282  17.6282  17.7420  17.7714
    17.8498  17.9975  18.0040  18.0851  18.0851  18.2123  18.2123  18.2161
    18.2215  18.2340  18.3450  18.3450  18.3916  18.4086  18.4086  18.6671
    18.7192  18.7866

          k =-0.5000-0.5000 0.0242 ( 13960 PWs)   bands (ev):

   -66.8414 -66.8414 -62.2474 -62.1563 -62.1563 -62.0480 -62.0480 -62.0262
   -35.6073 -35.6073 -35.5703 -35.5703 -35.5703 -35.5703 -31.0812 -31.0812
   -31.0663 -30.9913 -30.9913 -30.9913 -30.9913 -30.9777 -30.9777 -30.8801
   -30.8801 -30.8801 -30.8801 -30.8792 -30.8792 -30.8600 -30.8600 -30.8544
     8.1501   8.1559   8.2317   8.3212   8.6046   8.6106   8.7263   8.7299
     8.9055   9.0088   9.1123   9.1460   9.2318   9.2318   9.2763   9.2907
     9.2907   9.3104   9.3567   9.3567   9.4182   9.4187   9.4187   9.4339
     9.5136   9.5136   9.6367   9.6367   9.7881   9.7881   9.8639   9.9182
     9.9182   9.9189   9.9189   9.9667   9.9667   9.9942  10.1739  10.1739
    10.4099  10.4099  10.4986  10.5872  10.6365  10.6412  10.6526  10.6526
    10.7193  10.7212  10.9207  10.9207  11.1437  11.1560  11.2051  11.2281
    11.2281  11.2826  11.3758  11.3759  11.5352  11.5352  11.7819  11.7819
    11.9199  11.9199  11.9461  11.9765  11.9765  12.0100  12.0100  12.0331
    12.0331  12.0379  12.0385  12.0784  12.0784  12.0925  12.0925  12.1259
    12.1259  12.1300  12.1395  12.1557  12.2022  12.2584  12.2611  12.2753
    12.2775  12.3483  13.3646  13.4012  13.4045  13.4313  13.4471  13.4508
    13.8918  13.8918  14.0880  14.0880  14.2389  14.2389  14.4568  14.4568
    14.6830  14.6830  14.8564  14.8564  15.8466  15.8466  15.9658  15.9658
    16.5718  16.6318  16.7581  16.8284  16.8731  16.9653  16.9953  17.1707
    17.1707  17.1848  17.3932  17.3932  17.7288  17.7288  17.7529  17.8112
    17.8294  18.0040  18.0090  18.0686  18.0851  18.0851  18.1341  18.1341
    18.2123  18.2123  18.2340  18.3673  18.3893  18.6274  18.6369  18.6369
    18.7202  18.7860

          k =-0.5000-0.5000-0.0484 ( 13992 PWs)   bands (ev):

   -66.8414 -66.8414 -62.2474 -62.1563 -62.1563 -62.0480 -62.0480 -62.0262
   -35.6073 -35.6073 -35.5703 -35.5703 -35.5703 -35.5703 -31.0812 -31.0812
   -31.0663 -30.9913 -30.9913 -30.9913 -30.9913 -30.9777 -30.9777 -30.8801
   -30.8801 -30.8801 -30.8801 -30.8792 -30.8792 -30.8600 -30.8600 -30.8544
     8.1502   8.1561   8.2315   8.3200   8.6082   8.6379   8.6800   8.7218
     8.9660   9.0492   9.0681   9.0697   9.2321   9.2321   9.2882   9.2882
     9.3154   9.3715   9.3815   9.3815   9.3843   9.3843   9.3930   9.4015
     9.5714   9.5714   9.5718   9.5718   9.8667   9.8727   9.8727   9.8755
     9.8755   9.9184   9.9184   9.9189   9.9189   9.9929  10.2620  10.2620
    10.3161  10.3161  10.5030  10.5752  10.6413  10.6469  10.7166  10.7212
    10.7391  10.7391  10.8413  10.8413  11.1438  11.1560  11.2052  11.2791
    11.2791  11.2825  11.3758  11.3759  11.4924  11.4924  11.8022  11.8022
    11.9199  11.9199  11.9461  11.9765  11.9765  12.0100  12.0100  12.0331
    12.0331  12.0379  12.0385  12.0784  12.0784  12.0876  12.0876  12.1259
    12.1259  12.1300  12.1396  12.1557  12.2029  12.2575  12.2585  12.2752
    12.2807  12.3479  13.3646  13.4005  13.4052  13.4313  13.4471  13.4508
    13.9017  13.9017  14.0591  14.0591  14.2716  14.2716  14.4396  14.4396
    14.6873  14.6873  14.8557  14.8557  15.8466  15.8466  15.9658  15.9658
    16.5722  16.6300  16.7706  16.8284  16.8450  16.9652  17.0335  17.1569
    17.1855  17.1855  17.3482  17.3482  17.7732  17.8010  17.8842  17.8888
    17.8888  17.9417  17.9417  17.9619  18.0040  18.0190  18.0851  18.0851
    18.2123  18.2123  18.2340  18.3869  18.4671  18.5604  18.7212  18.7855
    18.8978  18.8978

     the Fermi energy is    15.2702 ev

!    total energy              =  -14694.00260117 Ry
     Harris-Foulkes estimate   =  -14694.00259408 Ry
     estimated scf accuracy    <       0.00000057 Ry

     total all-electron energy =   -626921.598323 Ry

     The total energy is the sum of the following terms:

     one-electron contribution =    -714.48855970 Ry
     hartree contribution      =     656.54454329 Ry
     xc contribution           =    -737.87788753 Ry
     ewald contribution        =   -2196.78933708 Ry
     Hubbard energy            =       0.45084322 Ry
     one-center paw contrib.   =  -11701.84220337 Ry

     total magnetization       =    17.24 Bohr mag/cell
     absolute magnetization    =    37.19 Bohr mag/cell

     convergence has been achieved in  23 iterations

     Writing output data file mnau2.save/
 
     init_run     :     83.57s CPU     85.40s WALL (       1 calls)
     electrons    :   4322.29s CPU   4405.85s WALL (       1 calls)

     Called by init_run:
     wfcinit      :     79.87s CPU     81.48s WALL (       1 calls)
     potinit      :      1.67s CPU      1.73s WALL (       1 calls)
     hinit0       :      1.14s CPU      1.21s WALL (       1 calls)

     Called by electrons:
     c_bands      :   3825.84s CPU   3894.35s WALL (      23 calls)
     sum_band     :    459.13s CPU    473.10s WALL (      23 calls)
     v_of_rho     :      2.87s CPU      2.91s WALL (      24 calls)
     newd         :     12.26s CPU     12.47s WALL (      24 calls)
     PAW_pot      :     22.24s CPU     22.41s WALL (      24 calls)
     mix_rho      :      0.69s CPU      0.76s WALL (      23 calls)

     Called by c_bands:
     init_us_2    :     14.51s CPU     14.61s WALL (    4320 calls)
     cegterg      :   3721.83s CPU   3787.50s WALL (    2070 calls)

     Called by sum_band:
     sum_band:bec :      5.02s CPU      5.06s WALL (    2070 calls)
     addusdens    :     18.47s CPU     18.62s WALL (      23 calls)

     Called by *egterg:
     h_psi        :   1726.51s CPU   1767.07s WALL (    7209 calls)
     s_psi        :    237.17s CPU    237.35s WALL (    7299 calls)
     g_psi        :      2.37s CPU      2.41s WALL (    5049 calls)
     cdiaghg      :   1095.30s CPU   1117.20s WALL (    7119 calls)

     Called by h_psi:
     h_psi:pot    :   1603.31s CPU   1643.08s WALL (    7209 calls)
     h_psi:calbec :    297.23s CPU    310.92s WALL (    7209 calls)
     vloc_psi     :   1071.46s CPU   1097.31s WALL (    7209 calls)
     add_vuspsi   :    234.47s CPU    234.72s WALL (    7209 calls)
     vhpsi        :    119.36s CPU    120.09s WALL (    7209 calls)

     General routines
     calbec       :    522.68s CPU    543.66s WALL (   18648 calls)
     fft          :      2.23s CPU      2.30s WALL (     596 calls)
     ffts         :      0.13s CPU      0.14s WALL (      94 calls)
     fftw         :   1276.31s CPU   1307.18s WALL ( 2005380 calls)
     interpolate  :      0.24s CPU      0.25s WALL (      48 calls)
     davcio       :      0.01s CPU      3.56s WALL (      90 calls)
 
     Parallel routines
     fft_scatt_xy :     47.29s CPU     48.12s WALL ( 2006070 calls)
     fft_scatt_yz :   1000.54s CPU   1026.24s WALL ( 2006070 calls)

     Hubbard U routines
     new_ns       :     19.79s CPU     21.39s WALL (      23 calls)
     vhpsi        :    119.36s CPU    120.09s WALL (    7209 calls)
 
     PWSCF        :     1h13m CPU       13h 1m WALL

      19h
 
   This run was terminated on:   4:53: 5   8Apr2019            

=------------------------------------------------------------------------------=
   JOB DONE.
=------------------------------------------------------------------------------=
