
     Program PWSCF v.6.3MaX starts on  8Apr2019 at  4:53: 8 

     This program is part of the open-source Quantum ESPRESSO suite
     for quantum simulation of materials; please cite
         "P. Giannozzi et al., J. Phys.:Condens. Matter 21 395502 (2009);
         "P. Giannozzi et al., J. Phys.:Condens. Matter 29 465901 (2017);
          URL http://www.quantum-espresso.org", 
     in publications or presentations arising from this work. More details at
     http://www.quantum-espresso.org/quote

     Parallel version (MPI), running on    32 processors

     MPI processes distributed on     2 nodes
     R & G space division:  proc/nbgrp/npool/nimage =      32
     Waiting for input...
     Reading input from standard input

     Current dimensions of program PWSCF are:
     Max number of different atomic species (ntypx) = 10
     Max number of k-points (npk) =  40000
     Max angular momentum in pseudopotentials (lmaxx) =  3
               file Mn.pbe-spn-kjpaw_psl.0.3.1.UPF: wavefunction(s)  3P 3D renormalized
               file Mn.pbe-spn-kjpaw_psl.0.3.1.UPF: wavefunction(s)  3P 3D renormalized
               file Au.pbe-dn-kjpaw_psl.0.1.UPF: wavefunction(s)  6S 6P 5D renormalized

     Subspace diagonalization in iterative solution of the eigenvalue problem:
     one sub-group per band group will be used
     scalapack distributed-memory algorithm (size of sub-group:  4*  4 procs)

 
     Parallelization info
     --------------------
     sticks:   dense  smooth     PW     G-vecs:    dense   smooth      PW
     Min          41      18      5                11487     3460     563
     Max          42      19      6                11527     3505     606
     Sum        1313     593    177               368373   111379   18691
 


     bravais-lattice index     =            0
     lattice parameter (alat)  =       6.4153  a.u.
     unit-cell volume          =    2724.7774 (a.u.)^3
     number of atoms/cell      =           24
     number of atomic types    =            3
     number of electrons       =       296.00
     number of Kohn-Sham states=          178
     kinetic-energy cutoff     =      45.0000  Ry
     charge density cutoff     =     400.0000  Ry
     convergence threshold     =      1.0E-06
     mixing beta               =       0.1000
     number of iterations used =            8  plain     mixing
     Exchange-correlation      = SLA PW PBX PBC ( 1  4  3  4 0 0)

     celldm(1)=   6.415315  celldm(2)=   0.000000  celldm(3)=   0.000000
     celldm(4)=   0.000000  celldm(5)=   0.000000  celldm(6)=   0.000000

     crystal axes: (cart. coord. in units of alat)
               a(1) = (   1.000000   0.000000   0.000000 )  
               a(2) = (   0.000000   1.000000   0.000000 )  
               a(3) = (   0.000000   0.000000  10.319937 )  

     reciprocal axes: (cart. coord. in units 2 pi/alat)
               b(1) = (  1.000000  0.000000  0.000000 )  
               b(2) = (  0.000000  1.000000  0.000000 )  
               b(3) = (  0.000000  0.000000  0.096900 )  


     PseudoPot. # 1 for Mn read from file:
     ./pseudo/Mn.pbe-spn-kjpaw_psl.0.3.1.UPF
     MD5 check sum: 7b43a3fb0e93e198b8dd8488d8cf503e
     Pseudo is Projector augmented-wave + core cor, Zval = 15.0
     Generated using "atomic" code by A. Dal Corso v.5.0.99 svn rev. 10869
     Shape of augmentation charge: PSQ
     Using radial grid of 1187 points,  6 beta functions with: 
                l(1) =   0
                l(2) =   0
                l(3) =   1
                l(4) =   1
                l(5) =   2
                l(6) =   2
     Q(r) pseudized with 0 coefficients 


     PseudoPot. # 2 for Mn read from file:
     ./pseudo/Mn.pbe-spn-kjpaw_psl.0.3.1.UPF
     MD5 check sum: 7b43a3fb0e93e198b8dd8488d8cf503e
     Pseudo is Projector augmented-wave + core cor, Zval = 15.0
     Generated using "atomic" code by A. Dal Corso v.5.0.99 svn rev. 10869
     Shape of augmentation charge: PSQ
     Using radial grid of 1187 points,  6 beta functions with: 
                l(1) =   0
                l(2) =   0
                l(3) =   1
                l(4) =   1
                l(5) =   2
                l(6) =   2
     Q(r) pseudized with 0 coefficients 


     PseudoPot. # 3 for Au read from file:
     ./pseudo/Au.pbe-dn-kjpaw_psl.0.1.UPF
     MD5 check sum: be11e2e8e535ebe2b3ccfb4f88f554cb
     Pseudo is Projector augmented-wave + core cor, Zval = 11.0
     Generated using "atomic" code by A. Dal Corso v.5.0.2 svn rev. 9415
     Shape of augmentation charge: PSQ
     Using radial grid of 1279 points,  6 beta functions with: 
                l(1) =   0
                l(2) =   0
                l(3) =   1
                l(4) =   1
                l(5) =   2
                l(6) =   2
     Q(r) pseudized with 0 coefficients 


     atomic species   valence    mass     pseudopotential
        Mn1           15.00    54.93800     Mn( 1.00)
        Mn2           15.00    54.93800     Mn( 1.00)
        Au            11.00   196.96600     Au( 1.00)

     Starting magnetic structure 
     atomic species   magnetization
        Mn1          0.800
        Mn2         -0.800
        Au           0.000


     Full LDA+U calculation (l_max = 2) with parameters (eV):
     U(  1) =   3.1200   J(  1) =   0.7000   B(  1) =   0.0803
     U(  2) =   3.1200   J(  2) =   0.7000   B(  2) =   0.0803



     16 Sym. Ops., with inversion, found ( 8 have fractional translation)



   Cartesian axes

     site n.     atom                  positions (alat units)
         1           Mn1 tau(   1) = (   0.0000000   0.0000000   0.0000000  )
         2           Mn1 tau(   2) = (   0.5000000   0.5000000   1.2899921  )
         3           Mn1 tau(   3) = (   0.0000000   0.0000000   2.5799843  )
         4           Mn1 tau(   4) = (   0.5000000   0.5000000   3.8699764  )
         5           Mn1 tau(   5) = (   0.0000000   0.0000000   5.1599686  )
         6           Mn2 tau(   6) = (   0.5000000   0.5000000   6.4499607  )
         7           Mn2 tau(   7) = (   0.0000000   0.0000000   7.7399528  )
         8           Mn2 tau(   8) = (   0.5000000   0.5000000   9.0299450  )
         9           Au  tau(   9) = (   0.5000000   0.5000000   0.4127975  )
        10           Au  tau(  10) = (   0.0000000   0.0000000   0.8771947  )
        11           Au  tau(  11) = (   0.0000000   0.0000000   1.7027896  )
        12           Au  tau(  12) = (   0.5000000   0.5000000   2.1671868  )
        13           Au  tau(  13) = (   0.5000000   0.5000000   2.9927818  )
        14           Au  tau(  14) = (   0.0000000   0.0000000   3.4571789  )
        15           Au  tau(  15) = (   0.0000000   0.0000000   4.2827739  )
        16           Au  tau(  16) = (   0.5000000   0.5000000   4.7471711  )
        17           Au  tau(  17) = (   0.5000000   0.5000000   5.5727660  )
        18           Au  tau(  18) = (   0.0000000   0.0000000   6.0371632  )
        19           Au  tau(  19) = (   0.0000000   0.0000000   6.8627582  )
        20           Au  tau(  20) = (   0.5000000   0.5000000   7.3271553  )
        21           Au  tau(  21) = (   0.5000000   0.5000000   8.1527503  )
        22           Au  tau(  22) = (   0.0000000   0.0000000   8.6171475  )
        23           Au  tau(  23) = (   0.0000000   0.0000000   9.4427424  )
        24           Au  tau(  24) = (   0.5000000   0.5000000   9.9071396  )

     number of k points=    45 (tetrahedron method)
                       cart. coord. in units 2pi/alat
        k(    1) = (   0.0000000   0.0000000   0.0000000), wk =   0.0039062
        k(    2) = (   0.0000000   0.0000000   0.0242250), wk =   0.0078125
        k(    3) = (   0.0000000   0.0000000  -0.0484499), wk =   0.0039062
        k(    4) = (   0.0000000   0.1250000   0.0000000), wk =   0.0156250
        k(    5) = (   0.0000000   0.1250000   0.0242250), wk =   0.0312500
        k(    6) = (   0.0000000   0.1250000  -0.0484499), wk =   0.0156250
        k(    7) = (   0.0000000   0.2500000   0.0000000), wk =   0.0156250
        k(    8) = (   0.0000000   0.2500000   0.0242250), wk =   0.0312500
        k(    9) = (   0.0000000   0.2500000  -0.0484499), wk =   0.0156250
        k(   10) = (   0.0000000   0.3750000   0.0000000), wk =   0.0156250
        k(   11) = (   0.0000000   0.3750000   0.0242250), wk =   0.0312500
        k(   12) = (   0.0000000   0.3750000  -0.0484499), wk =   0.0156250
        k(   13) = (   0.0000000  -0.5000000   0.0000000), wk =   0.0078125
        k(   14) = (   0.0000000  -0.5000000   0.0242250), wk =   0.0156250
        k(   15) = (   0.0000000  -0.5000000  -0.0484499), wk =   0.0078125
        k(   16) = (   0.1250000   0.1250000   0.0000000), wk =   0.0156250
        k(   17) = (   0.1250000   0.1250000   0.0242250), wk =   0.0312500
        k(   18) = (   0.1250000   0.1250000  -0.0484499), wk =   0.0156250
        k(   19) = (   0.1250000   0.2500000   0.0000000), wk =   0.0312500
        k(   20) = (   0.1250000   0.2500000   0.0242250), wk =   0.0625000
        k(   21) = (   0.1250000   0.2500000  -0.0484499), wk =   0.0312500
        k(   22) = (   0.1250000   0.3750000   0.0000000), wk =   0.0312500
        k(   23) = (   0.1250000   0.3750000   0.0242250), wk =   0.0625000
        k(   24) = (   0.1250000   0.3750000  -0.0484499), wk =   0.0312500
        k(   25) = (   0.1250000  -0.5000000   0.0000000), wk =   0.0156250
        k(   26) = (   0.1250000  -0.5000000   0.0242250), wk =   0.0312500
        k(   27) = (   0.1250000  -0.5000000  -0.0484499), wk =   0.0156250
        k(   28) = (   0.2500000   0.2500000   0.0000000), wk =   0.0156250
        k(   29) = (   0.2500000   0.2500000   0.0242250), wk =   0.0312500
        k(   30) = (   0.2500000   0.2500000  -0.0484499), wk =   0.0156250
        k(   31) = (   0.2500000   0.3750000   0.0000000), wk =   0.0312500
        k(   32) = (   0.2500000   0.3750000   0.0242250), wk =   0.0625000
        k(   33) = (   0.2500000   0.3750000  -0.0484499), wk =   0.0312500
        k(   34) = (   0.2500000  -0.5000000   0.0000000), wk =   0.0156250
        k(   35) = (   0.2500000  -0.5000000   0.0242250), wk =   0.0312500
        k(   36) = (   0.2500000  -0.5000000  -0.0484499), wk =   0.0156250
        k(   37) = (   0.3750000   0.3750000   0.0000000), wk =   0.0156250
        k(   38) = (   0.3750000   0.3750000   0.0242250), wk =   0.0312500
        k(   39) = (   0.3750000   0.3750000  -0.0484499), wk =   0.0156250
        k(   40) = (   0.3750000  -0.5000000   0.0000000), wk =   0.0156250
        k(   41) = (   0.3750000  -0.5000000   0.0242250), wk =   0.0312500
        k(   42) = (   0.3750000  -0.5000000  -0.0484499), wk =   0.0156250
        k(   43) = (  -0.5000000  -0.5000000   0.0000000), wk =   0.0039062
        k(   44) = (  -0.5000000  -0.5000000   0.0242250), wk =   0.0078125
        k(   45) = (  -0.5000000  -0.5000000  -0.0484499), wk =   0.0039062

     Dense  grid:   368373 G-vectors     FFT dimensions: (  45,  45, 432)

     Smooth grid:   111379 G-vectors     FFT dimensions: (  27,  27, 288)

     Estimated max dynamical RAM per process >     186.81 MB

     Estimated total dynamical RAM >       5.84 GB
     Generating pointlists ...
     new r_m :   0.3377 (alat units)  2.1668 (a.u.) for type    1
     new r_m :   0.3377 (alat units)  2.1668 (a.u.) for type    2
     new r_m :   0.3377 (alat units)  2.1668 (a.u.) for type    3

     Check: negative/imaginary core charge=   -0.000006    0.000000

     Initial potential from superposition of free atoms

     starting charge  295.99426, renormalised to  296.00000
     Number of +U iterations with fixed ns =  0
     Starting occupations:
 --- enter write_ns ---
 LDA+U parameters:
U(  1) =   3.1200   J(  1) =   0.7000   B(  1) =   0.0803
U(  2) =   3.1200   J(  2) =   0.7000   B(  2) =   0.0803
atom    1   Tr[ns(na)] (up, down, total) =   5.00000  0.00000  5.00000
   spin  1
    eigenvalues: 
  1.000  1.000  1.000  1.000  1.000
    eigenvectors:
  1.000  0.000  0.000  0.000  0.000
  0.000  1.000  0.000  0.000  0.000
  0.000  0.000  1.000  0.000  0.000
  0.000  0.000  0.000  1.000  0.000
  0.000  0.000  0.000  0.000  1.000
    occupations:
  1.000  0.000  0.000  0.000  0.000
  0.000  1.000  0.000  0.000  0.000
  0.000  0.000  1.000  0.000  0.000
  0.000  0.000  0.000  1.000  0.000
  0.000  0.000  0.000  0.000  1.000
   spin  2
    eigenvalues: 
  0.000  0.000  0.000  0.000  0.000
    eigenvectors:
  1.000  0.000  0.000  0.000  0.000
  0.000  1.000  0.000  0.000  0.000
  0.000  0.000  1.000  0.000  0.000
  0.000  0.000  0.000  1.000  0.000
  0.000  0.000  0.000  0.000  1.000
    occupations:
  0.000  0.000  0.000  0.000  0.000
  0.000  0.000  0.000  0.000  0.000
  0.000  0.000  0.000  0.000  0.000
  0.000  0.000  0.000  0.000  0.000
  0.000  0.000  0.000  0.000  0.000
atomic mag. moment =     5.000000
atom    2   Tr[ns(na)] (up, down, total) =   5.00000  0.00000  5.00000
   spin  1
    eigenvalues: 
  1.000  1.000  1.000  1.000  1.000
    eigenvectors:
  1.000  0.000  0.000  0.000  0.000
  0.000  1.000  0.000  0.000  0.000
  0.000  0.000  1.000  0.000  0.000
  0.000  0.000  0.000  1.000  0.000
  0.000  0.000  0.000  0.000  1.000
    occupations:
  1.000  0.000  0.000  0.000  0.000
  0.000  1.000  0.000  0.000  0.000
  0.000  0.000  1.000  0.000  0.000
  0.000  0.000  0.000  1.000  0.000
  0.000  0.000  0.000  0.000  1.000
   spin  2
    eigenvalues: 
  0.000  0.000  0.000  0.000  0.000
    eigenvectors:
  1.000  0.000  0.000  0.000  0.000
  0.000  1.000  0.000  0.000  0.000
  0.000  0.000  1.000  0.000  0.000
  0.000  0.000  0.000  1.000  0.000
  0.000  0.000  0.000  0.000  1.000
    occupations:
  0.000  0.000  0.000  0.000  0.000
  0.000  0.000  0.000  0.000  0.000
  0.000  0.000  0.000  0.000  0.000
  0.000  0.000  0.000  0.000  0.000
  0.000  0.000  0.000  0.000  0.000
atomic mag. moment =     5.000000
atom    3   Tr[ns(na)] (up, down, total) =   5.00000  0.00000  5.00000
   spin  1
    eigenvalues: 
  1.000  1.000  1.000  1.000  1.000
    eigenvectors:
  1.000  0.000  0.000  0.000  0.000
  0.000  1.000  0.000  0.000  0.000
  0.000  0.000  1.000  0.000  0.000
  0.000  0.000  0.000  1.000  0.000
  0.000  0.000  0.000  0.000  1.000
    occupations:
  1.000  0.000  0.000  0.000  0.000
  0.000  1.000  0.000  0.000  0.000
  0.000  0.000  1.000  0.000  0.000
  0.000  0.000  0.000  1.000  0.000
  0.000  0.000  0.000  0.000  1.000
   spin  2
    eigenvalues: 
  0.000  0.000  0.000  0.000  0.000
    eigenvectors:
  1.000  0.000  0.000  0.000  0.000
  0.000  1.000  0.000  0.000  0.000
  0.000  0.000  1.000  0.000  0.000
  0.000  0.000  0.000  1.000  0.000
  0.000  0.000  0.000  0.000  1.000
    occupations:
  0.000  0.000  0.000  0.000  0.000
  0.000  0.000  0.000  0.000  0.000
  0.000  0.000  0.000  0.000  0.000
  0.000  0.000  0.000  0.000  0.000
  0.000  0.000  0.000  0.000  0.000
atomic mag. moment =     5.000000
atom    4   Tr[ns(na)] (up, down, total) =   5.00000  0.00000  5.00000
   spin  1
    eigenvalues: 
  1.000  1.000  1.000  1.000  1.000
    eigenvectors:
  1.000  0.000  0.000  0.000  0.000
  0.000  1.000  0.000  0.000  0.000
  0.000  0.000  1.000  0.000  0.000
  0.000  0.000  0.000  1.000  0.000
  0.000  0.000  0.000  0.000  1.000
    occupations:
  1.000  0.000  0.000  0.000  0.000
  0.000  1.000  0.000  0.000  0.000
  0.000  0.000  1.000  0.000  0.000
  0.000  0.000  0.000  1.000  0.000
  0.000  0.000  0.000  0.000  1.000
   spin  2
    eigenvalues: 
  0.000  0.000  0.000  0.000  0.000
    eigenvectors:
  1.000  0.000  0.000  0.000  0.000
  0.000  1.000  0.000  0.000  0.000
  0.000  0.000  1.000  0.000  0.000
  0.000  0.000  0.000  1.000  0.000
  0.000  0.000  0.000  0.000  1.000
    occupations:
  0.000  0.000  0.000  0.000  0.000
  0.000  0.000  0.000  0.000  0.000
  0.000  0.000  0.000  0.000  0.000
  0.000  0.000  0.000  0.000  0.000
  0.000  0.000  0.000  0.000  0.000
atomic mag. moment =     5.000000
atom    5   Tr[ns(na)] (up, down, total) =   5.00000  0.00000  5.00000
   spin  1
    eigenvalues: 
  1.000  1.000  1.000  1.000  1.000
    eigenvectors:
  1.000  0.000  0.000  0.000  0.000
  0.000  1.000  0.000  0.000  0.000
  0.000  0.000  1.000  0.000  0.000
  0.000  0.000  0.000  1.000  0.000
  0.000  0.000  0.000  0.000  1.000
    occupations:
  1.000  0.000  0.000  0.000  0.000
  0.000  1.000  0.000  0.000  0.000
  0.000  0.000  1.000  0.000  0.000
  0.000  0.000  0.000  1.000  0.000
  0.000  0.000  0.000  0.000  1.000
   spin  2
    eigenvalues: 
  0.000  0.000  0.000  0.000  0.000
    eigenvectors:
  1.000  0.000  0.000  0.000  0.000
  0.000  1.000  0.000  0.000  0.000
  0.000  0.000  1.000  0.000  0.000
  0.000  0.000  0.000  1.000  0.000
  0.000  0.000  0.000  0.000  1.000
    occupations:
  0.000  0.000  0.000  0.000  0.000
  0.000  0.000  0.000  0.000  0.000
  0.000  0.000  0.000  0.000  0.000
  0.000  0.000  0.000  0.000  0.000
  0.000  0.000  0.000  0.000  0.000
atomic mag. moment =     5.000000
atom    6   Tr[ns(na)] (up, down, total) =   0.00000  5.00000  5.00000
   spin  1
    eigenvalues: 
  0.000  0.000  0.000  0.000  0.000
    eigenvectors:
  1.000  0.000  0.000  0.000  0.000
  0.000  1.000  0.000  0.000  0.000
  0.000  0.000  1.000  0.000  0.000
  0.000  0.000  0.000  1.000  0.000
  0.000  0.000  0.000  0.000  1.000
    occupations:
  0.000  0.000  0.000  0.000  0.000
  0.000  0.000  0.000  0.000  0.000
  0.000  0.000  0.000  0.000  0.000
  0.000  0.000  0.000  0.000  0.000
  0.000  0.000  0.000  0.000  0.000
   spin  2
    eigenvalues: 
  1.000  1.000  1.000  1.000  1.000
    eigenvectors:
  1.000  0.000  0.000  0.000  0.000
  0.000  1.000  0.000  0.000  0.000
  0.000  0.000  1.000  0.000  0.000
  0.000  0.000  0.000  1.000  0.000
  0.000  0.000  0.000  0.000  1.000
    occupations:
  1.000  0.000  0.000  0.000  0.000
  0.000  1.000  0.000  0.000  0.000
  0.000  0.000  1.000  0.000  0.000
  0.000  0.000  0.000  1.000  0.000
  0.000  0.000  0.000  0.000  1.000
atomic mag. moment =    -5.000000
atom    7   Tr[ns(na)] (up, down, total) =   0.00000  5.00000  5.00000
   spin  1
    eigenvalues: 
  0.000  0.000  0.000  0.000  0.000
    eigenvectors:
  1.000  0.000  0.000  0.000  0.000
  0.000  1.000  0.000  0.000  0.000
  0.000  0.000  1.000  0.000  0.000
  0.000  0.000  0.000  1.000  0.000
  0.000  0.000  0.000  0.000  1.000
    occupations:
  0.000  0.000  0.000  0.000  0.000
  0.000  0.000  0.000  0.000  0.000
  0.000  0.000  0.000  0.000  0.000
  0.000  0.000  0.000  0.000  0.000
  0.000  0.000  0.000  0.000  0.000
   spin  2
    eigenvalues: 
  1.000  1.000  1.000  1.000  1.000
    eigenvectors:
  1.000  0.000  0.000  0.000  0.000
  0.000  1.000  0.000  0.000  0.000
  0.000  0.000  1.000  0.000  0.000
  0.000  0.000  0.000  1.000  0.000
  0.000  0.000  0.000  0.000  1.000
    occupations:
  1.000  0.000  0.000  0.000  0.000
  0.000  1.000  0.000  0.000  0.000
  0.000  0.000  1.000  0.000  0.000
  0.000  0.000  0.000  1.000  0.000
  0.000  0.000  0.000  0.000  1.000
atomic mag. moment =    -5.000000
atom    8   Tr[ns(na)] (up, down, total) =   0.00000  5.00000  5.00000
   spin  1
    eigenvalues: 
  0.000  0.000  0.000  0.000  0.000
    eigenvectors:
  1.000  0.000  0.000  0.000  0.000
  0.000  1.000  0.000  0.000  0.000
  0.000  0.000  1.000  0.000  0.000
  0.000  0.000  0.000  1.000  0.000
  0.000  0.000  0.000  0.000  1.000
    occupations:
  0.000  0.000  0.000  0.000  0.000
  0.000  0.000  0.000  0.000  0.000
  0.000  0.000  0.000  0.000  0.000
  0.000  0.000  0.000  0.000  0.000
  0.000  0.000  0.000  0.000  0.000
   spin  2
    eigenvalues: 
  1.000  1.000  1.000  1.000  1.000
    eigenvectors:
  1.000  0.000  0.000  0.000  0.000
  0.000  1.000  0.000  0.000  0.000
  0.000  0.000  1.000  0.000  0.000
  0.000  0.000  0.000  1.000  0.000
  0.000  0.000  0.000  0.000  1.000
    occupations:
  1.000  0.000  0.000  0.000  0.000
  0.000  1.000  0.000  0.000  0.000
  0.000  0.000  1.000  0.000  0.000
  0.000  0.000  0.000  1.000  0.000
  0.000  0.000  0.000  0.000  1.000
atomic mag. moment =    -5.000000
N of occupied +U levels =   40.000000
 --- exit write_ns ---
 Atomic wfc used for LDA+U Projector are NOT orthogonalized
     Starting wfcs are  224 randomized atomic wfcs
     Checking if some PAW data can be deallocated... 

     total cpu time spent up to now is       94.1 secs

     Self-consistent Calculation

     iteration #  1     ecut=    45.00 Ry     beta= 0.10
     Davidson diagonalization with overlap
     ethr =  1.00E-02,  avg # of iterations =  4.1
 --- enter write_ns ---
 LDA+U parameters:
U(  1) =   3.1200   J(  1) =   0.7000   B(  1) =   0.0803
U(  2) =   3.1200   J(  2) =   0.7000   B(  2) =   0.0803
atom    1   Tr[ns(na)] (up, down, total) =   5.01743  0.40949  5.42692
   spin  1
    eigenvalues: 
  1.003  1.003  1.003  1.004  1.004
    eigenvectors:
  0.000  0.000  0.000  1.000  0.000
  0.000  0.320  0.680  0.000  0.000
  0.000  0.680  0.320  0.000  0.000
  0.000  0.000  0.000  0.000  1.000
  1.000  0.000  0.000  0.000  0.000
    occupations:
  1.004 -0.000 -0.000  0.000  0.000
 -0.000  1.003 -0.000  0.000  0.000
 -0.000 -0.000  1.003  0.000  0.000
  0.000  0.000  0.000  1.004 -0.000
  0.000  0.000  0.000 -0.000  1.003
   spin  2
    eigenvalues: 
  0.053  0.074  0.081  0.081  0.121
    eigenvectors:
  0.000  1.000  0.000  0.000  0.000
  0.000  0.000  0.416  0.584  0.000
  0.000  0.000  0.584  0.416  0.000
  1.000  0.000  0.000  0.000  0.000
  0.000  0.000  0.000  0.000  1.000
    occupations:
  0.074 -0.000 -0.000  0.000  0.000
 -0.000  0.081 -0.000  0.000  0.000
 -0.000 -0.000  0.081  0.000  0.000
  0.000  0.000  0.000  0.053 -0.000
  0.000  0.000  0.000 -0.000  0.121
atomic mag. moment =     4.607938
atom    2   Tr[ns(na)] (up, down, total) =   5.01754  0.40298  5.42051
   spin  1
    eigenvalues: 
  1.003  1.003  1.003  1.004  1.004
    eigenvectors:
  0.000  0.000  0.000  1.000  0.000
  0.000  0.247  0.753  0.000  0.000
  0.000  0.753  0.247  0.000  0.000
  0.000  0.000  0.000  0.000  1.000
  1.000  0.000  0.000  0.000  0.000
    occupations:
  1.004 -0.000 -0.000  0.000  0.000
 -0.000  1.003 -0.000  0.000  0.000
 -0.000 -0.000  1.003  0.000  0.000
  0.000  0.000  0.000  1.004 -0.000
  0.000  0.000  0.000 -0.000  1.003
   spin  2
    eigenvalues: 
  0.053  0.073  0.082  0.082  0.114
    eigenvectors:
  0.000  1.000  0.000  0.000  0.000
  0.000  0.000  0.300  0.700  0.000
  0.000  0.000  0.700  0.300  0.000
  1.000  0.000  0.000  0.000  0.000
  0.000  0.000  0.000  0.000  1.000
    occupations:
  0.073 -0.000 -0.000  0.000  0.000
 -0.000  0.082 -0.000  0.000  0.000
 -0.000 -0.000  0.082  0.000  0.000
  0.000  0.000  0.000  0.053 -0.000
  0.000  0.000  0.000 -0.000  0.114
atomic mag. moment =     4.614559
atom    3   Tr[ns(na)] (up, down, total) =   5.01760  0.40130  5.41890
   spin  1
    eigenvalues: 
  1.003  1.003  1.003  1.004  1.004
    eigenvectors:
  0.000  0.000  0.000  1.000  0.000
  0.000  0.351  0.649  0.000  0.000
  0.000  0.649  0.351  0.000  0.000
  0.000  0.000  0.000  0.000  1.000
  1.000  0.000  0.000  0.000  0.000
    occupations:
  1.004 -0.000 -0.000  0.000  0.000
 -0.000  1.003 -0.000  0.000  0.000
 -0.000 -0.000  1.003  0.000  0.000
  0.000  0.000  0.000  1.004 -0.000
  0.000  0.000  0.000 -0.000  1.003
   spin  2
    eigenvalues: 
  0.053  0.072  0.081  0.081  0.115
    eigenvectors:
  0.000  1.000  0.000  0.000  0.000
  0.000  0.000  0.305  0.695  0.000
  0.000  0.000  0.695  0.305  0.000
  1.000  0.000  0.000  0.000  0.000
  0.000  0.000  0.000  0.000  1.000
    occupations:
  0.072 -0.000 -0.000  0.000  0.000
 -0.000  0.081 -0.000  0.000  0.000
 -0.000 -0.000  0.081  0.000  0.000
  0.000  0.000  0.000  0.053 -0.000
  0.000  0.000  0.000 -0.000  0.115
atomic mag. moment =     4.616297
atom    4   Tr[ns(na)] (up, down, total) =   5.01754  0.40298  5.42051
   spin  1
    eigenvalues: 
  1.003  1.003  1.003  1.004  1.004
    eigenvectors:
  0.000  0.000  0.000  1.000  0.000
  0.000  0.324  0.676  0.000  0.000
  0.000  0.676  0.324  0.000  0.000
  0.000  0.000  0.000  0.000  1.000
  1.000  0.000  0.000  0.000  0.000
    occupations:
  1.004 -0.000 -0.000  0.000  0.000
 -0.000  1.003 -0.000  0.000  0.000
 -0.000 -0.000  1.003  0.000  0.000
  0.000  0.000  0.000  1.004 -0.000
  0.000  0.000  0.000 -0.000  1.003
   spin  2
    eigenvalues: 
  0.053  0.073  0.082  0.082  0.114
    eigenvectors:
  0.000  1.000  0.000  0.000  0.000
  0.000  0.000  0.313  0.687  0.000
  0.000  0.000  0.687  0.313  0.000
  1.000  0.000  0.000  0.000  0.000
  0.000  0.000  0.000  0.000  1.000
    occupations:
  0.073 -0.000 -0.000  0.000  0.000
 -0.000  0.082 -0.000  0.000  0.000
 -0.000 -0.000  0.082  0.000  0.000
  0.000  0.000  0.000  0.053 -0.000
  0.000  0.000  0.000 -0.000  0.114
atomic mag. moment =     4.614559
atom    5   Tr[ns(na)] (up, down, total) =   5.01743  0.40949  5.42692
   spin  1
    eigenvalues: 
  1.003  1.003  1.003  1.004  1.004
    eigenvectors:
  0.000  0.000  0.000  1.000  0.000
  0.000  0.282  0.718  0.000  0.000
  0.000  0.718  0.282  0.000  0.000
  0.000  0.000  0.000  0.000  1.000
  1.000  0.000  0.000  0.000  0.000
    occupations:
  1.004 -0.000 -0.000  0.000  0.000
 -0.000  1.003 -0.000  0.000  0.000
 -0.000 -0.000  1.003  0.000  0.000
  0.000  0.000  0.000  1.004 -0.000
  0.000  0.000  0.000 -0.000  1.003
   spin  2
    eigenvalues: 
  0.053  0.074  0.081  0.081  0.121
    eigenvectors:
  0.000  1.000  0.000  0.000  0.000
  0.000  0.000  0.323  0.677  0.000
  0.000  0.000  0.677  0.323  0.000
  1.000  0.000  0.000  0.000  0.000
  0.000  0.000  0.000  0.000  1.000
    occupations:
  0.074 -0.000 -0.000  0.000  0.000
 -0.000  0.081 -0.000  0.000  0.000
 -0.000 -0.000  0.081  0.000  0.000
  0.000  0.000  0.000  0.053 -0.000
  0.000  0.000  0.000 -0.000  0.121
atomic mag. moment =     4.607938
atom    6   Tr[ns(na)] (up, down, total) =   0.40835  5.01758  5.42594
   spin  1
    eigenvalues: 
  0.053  0.073  0.081  0.081  0.120
    eigenvectors:
  0.000  1.000  0.000  0.000  0.000
  0.000  0.000  0.307  0.693  0.000
  0.000  0.000  0.693  0.307  0.000
  1.000  0.000  0.000  0.000  0.000
  0.000  0.000  0.000  0.000  1.000
    occupations:
  0.073 -0.000 -0.000  0.000  0.000
 -0.000  0.081 -0.000  0.000  0.000
 -0.000 -0.000  0.081  0.000  0.000
  0.000  0.000  0.000  0.053 -0.000
  0.000  0.000  0.000 -0.000  0.120
   spin  2
    eigenvalues: 
  1.003  1.003  1.003  1.004  1.004
    eigenvectors:
  0.000  0.000  0.000  1.000  0.000
  0.000  0.342  0.658  0.000  0.000
  0.000  0.658  0.342  0.000  0.000
  0.000  0.000  0.000  0.000  1.000
  1.000  0.000  0.000  0.000  0.000
    occupations:
  1.004 -0.000 -0.000  0.000  0.000
 -0.000  1.003 -0.000  0.000  0.000
 -0.000 -0.000  1.003  0.000  0.000
  0.000  0.000  0.000  1.004 -0.000
  0.000  0.000  0.000 -0.000  1.003
atomic mag. moment =    -4.609232
atom    7   Tr[ns(na)] (up, down, total) =   0.40390  5.01778  5.42168
   spin  1
    eigenvalues: 
  0.053  0.075  0.082  0.082  0.112
    eigenvectors:
  0.000  1.000  0.000  0.000  0.000
  0.000  0.000  0.326  0.674  0.000
  0.000  0.000  0.674  0.326  0.000
  1.000  0.000  0.000  0.000  0.000
  0.000  0.000  0.000  0.000  1.000
    occupations:
  0.075 -0.000 -0.000  0.000  0.000
 -0.000  0.082 -0.000  0.000  0.000
 -0.000 -0.000  0.082  0.000  0.000
  0.000  0.000  0.000  0.053 -0.000
  0.000  0.000  0.000 -0.000  0.112
   spin  2
    eigenvalues: 
  1.003  1.003  1.003  1.004  1.004
    eigenvectors:
  0.000  0.000  0.000  1.000  0.000
  0.000  0.266  0.734  0.000  0.000
  0.000  0.734  0.266  0.000  0.000
  0.000  0.000  0.000  0.000  1.000
  1.000  0.000  0.000  0.000  0.000
    occupations:
  1.004 -0.000 -0.000  0.000  0.000
 -0.000  1.003 -0.000  0.000  0.000
 -0.000 -0.000  1.003  0.000  0.000
  0.000  0.000  0.000  1.004 -0.000
  0.000  0.000  0.000 -0.000  1.003
atomic mag. moment =    -4.613881
atom    8   Tr[ns(na)] (up, down, total) =   0.40835  5.01758  5.42594
   spin  1
    eigenvalues: 
  0.053  0.073  0.081  0.081  0.120
    eigenvectors:
  0.000  1.000  0.000  0.000  0.000
  0.000  0.000  0.314  0.686  0.000
  0.000  0.000  0.686  0.314  0.000
  1.000  0.000  0.000  0.000  0.000
  0.000  0.000  0.000  0.000  1.000
    occupations:
  0.073 -0.000 -0.000  0.000  0.000
 -0.000  0.081 -0.000  0.000  0.000
 -0.000 -0.000  0.081  0.000  0.000
  0.000  0.000  0.000  0.053 -0.000
  0.000  0.000  0.000 -0.000  0.120
   spin  2
    eigenvalues: 
  1.003  1.003  1.003  1.004  1.004
    eigenvectors:
  0.000  0.000  0.000  1.000  0.000
  0.000  0.325  0.675  0.000  0.000
  0.000  0.675  0.325  0.000  0.000
  0.000  0.000  0.000  0.000  1.000
  1.000  0.000  0.000  0.000  0.000
    occupations:
  1.004 -0.000 -0.000  0.000  0.000
 -0.000  1.003 -0.000  0.000  0.000
 -0.000 -0.000  1.003  0.000  0.000
  0.000  0.000  0.000  1.004 -0.000
  0.000  0.000  0.000 -0.000  1.003
atomic mag. moment =    -4.609232
N of occupied +U levels =   43.387311
 --- exit write_ns ---

     total cpu time spent up to now is      331.0 secs

     total energy              =  -14687.27070783 Ry
     Harris-Foulkes estimate   =  -14685.80915989 Ry
     estimated scf accuracy    <      11.53781009 Ry

     total magnetization       =    10.07 Bohr mag/cell
     absolute magnetization    =    41.52 Bohr mag/cell

     iteration #  2     ecut=    45.00 Ry     beta= 0.10
     Davidson diagonalization with overlap
     ethr =  3.90E-03,  avg # of iterations =  1.0

     total cpu time spent up to now is      482.7 secs

     total energy              =  -14689.40787674 Ry
     Harris-Foulkes estimate   =  -14687.34766879 Ry
     estimated scf accuracy    <       9.67137522 Ry

     total magnetization       =     9.88 Bohr mag/cell
     absolute magnetization    =    41.19 Bohr mag/cell

     iteration #  3     ecut=    45.00 Ry     beta= 0.10
     Davidson diagonalization with overlap
     ethr =  3.27E-03,  avg # of iterations =  4.6

     total cpu time spent up to now is      713.5 secs

     total energy              =  -14691.37125650 Ry
     Harris-Foulkes estimate   =  -14691.01812879 Ry
     estimated scf accuracy    <     177.99343706 Ry

     total magnetization       =    10.23 Bohr mag/cell
     absolute magnetization    =    40.36 Bohr mag/cell

     iteration #  4     ecut=    45.00 Ry     beta= 0.10
     Davidson diagonalization with overlap
     ethr =  3.27E-03,  avg # of iterations =  4.1

     total cpu time spent up to now is      938.4 secs

     total energy              =  -14694.77922354 Ry
     Harris-Foulkes estimate   =  -14694.19965042 Ry
     estimated scf accuracy    <       3.54789824 Ry

     total magnetization       =     9.24 Bohr mag/cell
     absolute magnetization    =    38.36 Bohr mag/cell

     iteration #  5     ecut=    45.00 Ry     beta= 0.10
     Davidson diagonalization with overlap
     ethr =  1.20E-03,  avg # of iterations =  4.7

     total cpu time spent up to now is     1166.4 secs

     total energy              =  -14692.72670411 Ry
     Harris-Foulkes estimate   =  -14694.85708814 Ry
     estimated scf accuracy    <       5.58929804 Ry

     total magnetization       =     9.10 Bohr mag/cell
     absolute magnetization    =    37.82 Bohr mag/cell

     iteration #  6     ecut=    45.00 Ry     beta= 0.10
     Davidson diagonalization with overlap
     ethr =  1.20E-03,  avg # of iterations =  4.6

     total cpu time spent up to now is     1495.3 secs

     total energy              =  -14693.87140987 Ry
     Harris-Foulkes estimate   =  -14693.89665157 Ry
     estimated scf accuracy    <       1.77191790 Ry

     total magnetization       =     8.57 Bohr mag/cell
     absolute magnetization    =    37.71 Bohr mag/cell

     iteration #  7     ecut=    45.00 Ry     beta= 0.10
     Davidson diagonalization with overlap
     ethr =  5.99E-04,  avg # of iterations =  1.5

     total cpu time spent up to now is     1651.7 secs

     total energy              =  -14693.98227198 Ry
     Harris-Foulkes estimate   =  -14693.96520235 Ry
     estimated scf accuracy    <       0.22859122 Ry

     total magnetization       =     8.87 Bohr mag/cell
     absolute magnetization    =    37.63 Bohr mag/cell

     iteration #  8     ecut=    45.00 Ry     beta= 0.10
     Davidson diagonalization with overlap
     ethr =  7.72E-05,  avg # of iterations =  4.0

     total cpu time spent up to now is     1865.1 secs

     total energy              =  -14693.99700710 Ry
     Harris-Foulkes estimate   =  -14693.99284662 Ry
     estimated scf accuracy    <       0.05297983 Ry

     total magnetization       =     8.73 Bohr mag/cell
     absolute magnetization    =    37.37 Bohr mag/cell

     iteration #  9     ecut=    45.00 Ry     beta= 0.10
     Davidson diagonalization with overlap
     ethr =  1.79E-05,  avg # of iterations =  3.9

     total cpu time spent up to now is     2133.1 secs

     total energy              =  -14694.00729250 Ry
     Harris-Foulkes estimate   =  -14694.01143958 Ry
     estimated scf accuracy    <       0.11006421 Ry

     total magnetization       =     8.59 Bohr mag/cell
     absolute magnetization    =    37.02 Bohr mag/cell

     iteration # 10     ecut=    45.00 Ry     beta= 0.10
     Davidson diagonalization with overlap
     ethr =  1.79E-05,  avg # of iterations =  1.4

     total cpu time spent up to now is     2289.4 secs

     total energy              =  -14694.00001744 Ry
     Harris-Foulkes estimate   =  -14694.00999329 Ry
     estimated scf accuracy    <       0.05198307 Ry

     total magnetization       =     8.56 Bohr mag/cell
     absolute magnetization    =    36.99 Bohr mag/cell

     iteration # 11     ecut=    45.00 Ry     beta= 0.10
     Davidson diagonalization with overlap
     ethr =  1.76E-05,  avg # of iterations =  2.6

     total cpu time spent up to now is     2472.8 secs

     total energy              =  -14694.00723064 Ry
     Harris-Foulkes estimate   =  -14694.00519576 Ry
     estimated scf accuracy    <       0.00796425 Ry

     total magnetization       =     8.64 Bohr mag/cell
     absolute magnetization    =    37.15 Bohr mag/cell

     iteration # 12     ecut=    45.00 Ry     beta= 0.10
     Davidson diagonalization with overlap
     c_bands:  3 eigenvalues not converged
     ethr =  2.69E-06,  avg # of iterations =  3.1

     total cpu time spent up to now is     2661.3 secs

     total energy              =  -14694.00862132 Ry
     Harris-Foulkes estimate   =  -14694.00763055 Ry
     estimated scf accuracy    <       0.00222304 Ry

     total magnetization       =     8.59 Bohr mag/cell
     absolute magnetization    =    37.08 Bohr mag/cell

     iteration # 13     ecut=    45.00 Ry     beta= 0.10
     Davidson diagonalization with overlap
     ethr =  7.51E-07,  avg # of iterations =  3.5

     total cpu time spent up to now is     2901.3 secs

     total energy              =  -14694.00905032 Ry
     Harris-Foulkes estimate   =  -14694.00913792 Ry
     estimated scf accuracy    <       0.00035372 Ry

     total magnetization       =     8.57 Bohr mag/cell
     absolute magnetization    =    37.04 Bohr mag/cell

     iteration # 14     ecut=    45.00 Ry     beta= 0.10
     Davidson diagonalization with overlap
     ethr =  1.19E-07,  avg # of iterations =  1.8

     total cpu time spent up to now is     3060.7 secs

     total energy              =  -14694.00921766 Ry
     Harris-Foulkes estimate   =  -14694.00907794 Ry
     estimated scf accuracy    <       0.00023124 Ry

     total magnetization       =     8.57 Bohr mag/cell
     absolute magnetization    =    37.05 Bohr mag/cell

     iteration # 15     ecut=    45.00 Ry     beta= 0.10
     Davidson diagonalization with overlap
     ethr =  7.81E-08,  avg # of iterations =  1.7

     total cpu time spent up to now is     3218.8 secs

     total energy              =  -14694.00922865 Ry
     Harris-Foulkes estimate   =  -14694.00921871 Ry
     estimated scf accuracy    <       0.00014008 Ry

     total magnetization       =     8.56 Bohr mag/cell
     absolute magnetization    =    37.04 Bohr mag/cell

     iteration # 16     ecut=    45.00 Ry     beta= 0.10
     Davidson diagonalization with overlap
     ethr =  4.73E-08,  avg # of iterations =  1.6

     total cpu time spent up to now is     3371.7 secs

     total energy              =  -14694.00929063 Ry
     Harris-Foulkes estimate   =  -14694.00924856 Ry
     estimated scf accuracy    <       0.00022462 Ry

     total magnetization       =     8.57 Bohr mag/cell
     absolute magnetization    =    37.05 Bohr mag/cell

     iteration # 17     ecut=    45.00 Ry     beta= 0.10
     Davidson diagonalization with overlap
     ethr =  4.73E-08,  avg # of iterations =  2.3

     total cpu time spent up to now is     3542.4 secs

     total energy              =  -14694.00929860 Ry
     Harris-Foulkes estimate   =  -14694.00928884 Ry
     estimated scf accuracy    <       0.00001400 Ry

     total magnetization       =     8.56 Bohr mag/cell
     absolute magnetization    =    37.04 Bohr mag/cell

     iteration # 18     ecut=    45.00 Ry     beta= 0.10
     Davidson diagonalization with overlap
     ethr =  4.73E-09,  avg # of iterations =  3.6

     total cpu time spent up to now is     3761.4 secs

     total energy              =  -14694.00930632 Ry
     Harris-Foulkes estimate   =  -14694.00930030 Ry
     estimated scf accuracy    <       0.00000759 Ry

     total magnetization       =     8.55 Bohr mag/cell
     absolute magnetization    =    37.04 Bohr mag/cell

     iteration # 19     ecut=    45.00 Ry     beta= 0.10
     Davidson diagonalization with overlap
     ethr =  2.56E-09,  avg # of iterations =  2.5

     total cpu time spent up to now is     3937.9 secs

     total energy              =  -14694.00930854 Ry
     Harris-Foulkes estimate   =  -14694.00930523 Ry
     estimated scf accuracy    <       0.00000324 Ry

     total magnetization       =     8.55 Bohr mag/cell
     absolute magnetization    =    37.04 Bohr mag/cell

     iteration # 20     ecut=    45.00 Ry     beta= 0.10
     Davidson diagonalization with overlap
     ethr =  1.10E-09,  avg # of iterations =  2.1

     total cpu time spent up to now is     4102.2 secs

     total energy              =  -14694.00931088 Ry
     Harris-Foulkes estimate   =  -14694.00930831 Ry
     estimated scf accuracy    <       0.00000213 Ry

     total magnetization       =     8.55 Bohr mag/cell
     absolute magnetization    =    37.04 Bohr mag/cell

     iteration # 21     ecut=    45.00 Ry     beta= 0.10
     Davidson diagonalization with overlap
     ethr =  7.20E-10,  avg # of iterations =  2.1

     total cpu time spent up to now is     4266.1 secs

     total energy              =  -14694.00931249 Ry
     Harris-Foulkes estimate   =  -14694.00931071 Ry
     estimated scf accuracy    <       0.00000350 Ry

     total magnetization       =     8.55 Bohr mag/cell
     absolute magnetization    =    37.04 Bohr mag/cell

     iteration # 22     ecut=    45.00 Ry     beta= 0.10
     Davidson diagonalization with overlap
     ethr =  7.20E-10,  avg # of iterations =  2.0

     total cpu time spent up to now is     4422.8 secs

     total energy              =  -14694.00931541 Ry
     Harris-Foulkes estimate   =  -14694.00931396 Ry
     estimated scf accuracy    <       0.00000114 Ry

     total magnetization       =     8.55 Bohr mag/cell
     absolute magnetization    =    37.04 Bohr mag/cell

     iteration # 23     ecut=    45.00 Ry     beta= 0.10
     Davidson diagonalization with overlap
     ethr =  3.86E-10,  avg # of iterations =  2.4
 
     Magnetic moment per site:
     atom:    1    charge:   13.5490    magn:    4.2275    constr:    0.0000
     atom:    2    charge:   13.5539    magn:    4.1942    constr:    0.0000
     atom:    3    charge:   13.5539    magn:    4.1984    constr:    0.0000
     atom:    4    charge:   13.5539    magn:    4.1942    constr:    0.0000
     atom:    5    charge:   13.5490    magn:    4.2275    constr:    0.0000
     atom:    6    charge:   13.5491    magn:   -4.2316    constr:    0.0000
     atom:    7    charge:   13.5525    magn:   -4.2029    constr:    0.0000
     atom:    8    charge:   13.5491    magn:   -4.2316    constr:    0.0000
     atom:    9    charge:    9.1221    magn:    0.0306    constr:    0.0000
     atom:   10    charge:    9.1216    magn:    0.0295    constr:    0.0000
     atom:   11    charge:    9.1212    magn:    0.0304    constr:    0.0000
     atom:   12    charge:    9.1195    magn:    0.0245    constr:    0.0000
     atom:   13    charge:    9.1195    magn:    0.0245    constr:    0.0000
     atom:   14    charge:    9.1212    magn:    0.0304    constr:    0.0000
     atom:   15    charge:    9.1216    magn:    0.0295    constr:    0.0000
     atom:   16    charge:    9.1221    magn:    0.0306    constr:    0.0000
     atom:   17    charge:    9.1238    magn:    0.0381    constr:    0.0000
     atom:   18    charge:    9.1232    magn:   -0.0392    constr:    0.0000
     atom:   19    charge:    9.1218    magn:   -0.0316    constr:    0.0000
     atom:   20    charge:    9.1217    magn:   -0.0340    constr:    0.0000
     atom:   21    charge:    9.1217    magn:   -0.0340    constr:    0.0000
     atom:   22    charge:    9.1218    magn:   -0.0316    constr:    0.0000
     atom:   23    charge:    9.1232    magn:   -0.0392    constr:    0.0000
     atom:   24    charge:    9.1238    magn:    0.0381    constr:    0.0000

     total cpu time spent up to now is     4593.4 secs

     End of self-consistent calculation
 --- enter write_ns ---
 LDA+U parameters:
U(  1) =   3.1200   J(  1) =   0.7000   B(  1) =   0.0803
U(  2) =   3.1200   J(  2) =   0.7000   B(  2) =   0.0803
atom    1   Tr[ns(na)] (up, down, total) =   4.97060  0.74320  5.71380
   spin  1
    eigenvalues: 
  0.984  0.994  0.994  0.997  1.002
    eigenvectors:
  0.000  0.000  0.000  1.000  0.000
  0.000  0.284  0.716  0.000  0.000
  0.000  0.716  0.284  0.000  0.000
  0.000  0.000  0.000  0.000  1.000
  1.000  0.000  0.000  0.000  0.000
    occupations:
  0.997 -0.000 -0.000  0.000  0.000
 -0.000  0.994 -0.000  0.000  0.000
 -0.000 -0.000  0.994  0.000  0.000
  0.000  0.000  0.000  1.002 -0.000
  0.000  0.000  0.000 -0.000  0.984
   spin  2
    eigenvalues: 
  0.065  0.136  0.143  0.143  0.255
    eigenvectors:
  0.000  1.000  0.000  0.000  0.000
  0.000  0.000  0.329  0.671  0.000
  0.000  0.000  0.671  0.329  0.000
  1.000  0.000  0.000  0.000  0.000
  0.000  0.000  0.000  0.000  1.000
    occupations:
  0.136 -0.000 -0.000  0.000  0.000
 -0.000  0.143 -0.000  0.000  0.000
 -0.000 -0.000  0.143  0.000  0.000
  0.000  0.000  0.000  0.065 -0.000
  0.000  0.000  0.000 -0.000  0.255
atomic mag. moment =     4.227399
atom    2   Tr[ns(na)] (up, down, total) =   4.96862  0.76938  5.73800
   spin  1
    eigenvalues: 
  0.984  0.993  0.993  0.996  1.002
    eigenvectors:
  0.000  0.000  0.000  1.000  0.000
  0.000  0.278  0.722  0.000  0.000
  0.000  0.722  0.278  0.000  0.000
  0.000  0.000  0.000  0.000  1.000
  1.000  0.000  0.000  0.000  0.000
    occupations:
  0.996 -0.000 -0.000  0.000  0.000
 -0.000  0.993 -0.000  0.000  0.000
 -0.000 -0.000  0.993  0.000  0.000
  0.000  0.000  0.000  1.002 -0.000
  0.000  0.000  0.000 -0.000  0.984
   spin  2
    eigenvalues: 
  0.065  0.144  0.144  0.147  0.269
    eigenvectors:
  0.000  0.000  0.000  1.000  0.000
  0.000  0.313  0.687  0.000  0.000
  0.000  0.687  0.313  0.000  0.000
  1.000  0.000  0.000  0.000  0.000
  0.000  0.000  0.000  0.000  1.000
    occupations:
  0.147 -0.000 -0.000  0.000  0.000
 -0.000  0.144 -0.000  0.000  0.000
 -0.000 -0.000  0.144  0.000  0.000
  0.000  0.000  0.000  0.065 -0.000
  0.000  0.000  0.000 -0.000  0.269
atomic mag. moment =     4.199237
atom    3   Tr[ns(na)] (up, down, total) =   4.96867  0.76647  5.73514
   spin  1
    eigenvalues: 
  0.984  0.993  0.993  0.997  1.002
    eigenvectors:
  0.000  0.000  0.000  1.000  0.000
  0.000  0.335  0.665  0.000  0.000
  0.000  0.665  0.335  0.000  0.000
  0.000  0.000  0.000  0.000  1.000
  1.000  0.000  0.000  0.000  0.000
    occupations:
  0.997 -0.000 -0.000  0.000  0.000
 -0.000  0.993 -0.000  0.000  0.000
 -0.000 -0.000  0.993  0.000  0.000
  0.000  0.000  0.000  1.002 -0.000
  0.000  0.000  0.000 -0.000  0.984
   spin  2
    eigenvalues: 
  0.065  0.142  0.142  0.148  0.269
    eigenvectors:
  0.000  0.000  0.000  1.000  0.000
  0.000  0.366  0.634  0.000  0.000
  0.000  0.634  0.366  0.000  0.000
  1.000  0.000  0.000  0.000  0.000
  0.000  0.000  0.000  0.000  1.000
    occupations:
  0.148 -0.000 -0.000  0.000  0.000
 -0.000  0.142 -0.000  0.000  0.000
 -0.000 -0.000  0.142  0.000  0.000
  0.000  0.000  0.000  0.065 -0.000
  0.000  0.000  0.000 -0.000  0.269
atomic mag. moment =     4.202195
atom    4   Tr[ns(na)] (up, down, total) =   4.96862  0.76938  5.73800
   spin  1
    eigenvalues: 
  0.984  0.993  0.993  0.996  1.002
    eigenvectors:
  0.000  0.000  0.000  1.000  0.000
  0.000  0.250  0.750  0.000  0.000
  0.000  0.750  0.250  0.000  0.000
  0.000  0.000  0.000  0.000  1.000
  1.000  0.000  0.000  0.000  0.000
    occupations:
  0.996 -0.000 -0.000  0.000  0.000
 -0.000  0.993 -0.000  0.000  0.000
 -0.000 -0.000  0.993  0.000  0.000
  0.000  0.000  0.000  1.002 -0.000
  0.000  0.000  0.000 -0.000  0.984
   spin  2
    eigenvalues: 
  0.065  0.144  0.144  0.147  0.269
    eigenvectors:
  0.000  0.000  0.000  1.000  0.000
  0.000  0.284  0.716  0.000  0.000
  0.000  0.716  0.284  0.000  0.000
  1.000  0.000  0.000  0.000  0.000
  0.000  0.000  0.000  0.000  1.000
    occupations:
  0.147 -0.000 -0.000  0.000  0.000
 -0.000  0.144 -0.000  0.000  0.000
 -0.000 -0.000  0.144  0.000  0.000
  0.000  0.000  0.000  0.065 -0.000
  0.000  0.000  0.000 -0.000  0.269
atomic mag. moment =     4.199237
atom    5   Tr[ns(na)] (up, down, total) =   4.97060  0.74320  5.71380
   spin  1
    eigenvalues: 
  0.984  0.994  0.994  0.997  1.002
    eigenvectors:
  0.000  0.000  0.000  1.000  0.000
  0.000  0.394  0.606  0.000  0.000
  0.000  0.606  0.394  0.000  0.000
  0.000  0.000  0.000  0.000  1.000
  1.000  0.000  0.000  0.000  0.000
    occupations:
  0.997 -0.000 -0.000  0.000  0.000
 -0.000  0.994 -0.000  0.000  0.000
 -0.000 -0.000  0.994  0.000  0.000
  0.000  0.000  0.000  1.002 -0.000
  0.000  0.000  0.000 -0.000  0.984
   spin  2
    eigenvalues: 
  0.065  0.136  0.143  0.143  0.255
    eigenvectors:
  0.000  1.000  0.000  0.000  0.000
  0.000  0.000  0.376  0.624  0.000
  0.000  0.000  0.624  0.376  0.000
  1.000  0.000  0.000  0.000  0.000
  0.000  0.000  0.000  0.000  1.000
    occupations:
  0.136 -0.000 -0.000  0.000  0.000
 -0.000  0.143 -0.000  0.000  0.000
 -0.000 -0.000  0.143  0.000  0.000
  0.000  0.000  0.000  0.065 -0.000
  0.000  0.000  0.000 -0.000  0.255
atomic mag. moment =     4.227399
atom    6   Tr[ns(na)] (up, down, total) =   0.74108  4.97107  5.71215
   spin  1
    eigenvalues: 
  0.065  0.136  0.142  0.142  0.255
    eigenvectors:
  0.000  1.000  0.000  0.000  0.000
  0.000  0.000  0.317  0.683  0.000
  0.000  0.000  0.683  0.317  0.000
  1.000  0.000  0.000  0.000  0.000
  0.000  0.000  0.000  0.000  1.000
    occupations:
  0.136 -0.000 -0.000  0.000  0.000
 -0.000  0.142 -0.000  0.000  0.000
 -0.000 -0.000  0.142  0.000  0.000
  0.000  0.000  0.000  0.065 -0.000
  0.000  0.000  0.000 -0.000  0.255
   spin  2
    eigenvalues: 
  0.985  0.993  0.993  0.997  1.002
    eigenvectors:
  0.000  0.000  0.000  1.000  0.000
  0.000  0.278  0.722  0.000  0.000
  0.000  0.722  0.278  0.000  0.000
  0.000  0.000  0.000  0.000  1.000
  1.000  0.000  0.000  0.000  0.000
    occupations:
  0.997 -0.000 -0.000  0.000  0.000
 -0.000  0.993 -0.000  0.000  0.000
 -0.000 -0.000  0.993  0.000  0.000
  0.000  0.000  0.000  1.002 -0.000
  0.000  0.000  0.000 -0.000  0.985
atomic mag. moment =    -4.229986
atom    7   Tr[ns(na)] (up, down, total) =   0.76301  4.96994  5.73294
   spin  1
    eigenvalues: 
  0.065  0.142  0.142  0.146  0.268
    eigenvectors:
  0.000  0.000  0.000  1.000  0.000
  0.000  0.309  0.691  0.000  0.000
  0.000  0.691  0.309  0.000  0.000
  1.000  0.000  0.000  0.000  0.000
  0.000  0.000  0.000  0.000  1.000
    occupations:
  0.146 -0.000 -0.000  0.000  0.000
 -0.000  0.142 -0.000  0.000  0.000
 -0.000 -0.000  0.142  0.000  0.000
  0.000  0.000  0.000  0.065 -0.000
  0.000  0.000  0.000 -0.000  0.268
   spin  2
    eigenvalues: 
  0.985  0.993  0.993  0.997  1.002
    eigenvectors:
  0.000  0.000  0.000  1.000  0.000
  0.000  0.254  0.746  0.000  0.000
  0.000  0.746  0.254  0.000  0.000
  0.000  0.000  0.000  0.000  1.000
  1.000  0.000  0.000  0.000  0.000
    occupations:
  0.997 -0.000 -0.000  0.000  0.000
 -0.000  0.993 -0.000  0.000  0.000
 -0.000 -0.000  0.993  0.000  0.000
  0.000  0.000  0.000  1.002 -0.000
  0.000  0.000  0.000 -0.000  0.985
atomic mag. moment =    -4.206928
atom    8   Tr[ns(na)] (up, down, total) =   0.74108  4.97107  5.71215
   spin  1
    eigenvalues: 
  0.065  0.136  0.142  0.142  0.255
    eigenvectors:
  0.000  1.000  0.000  0.000  0.000
  0.000  0.000  0.309  0.691  0.000
  0.000  0.000  0.691  0.309  0.000
  1.000  0.000  0.000  0.000  0.000
  0.000  0.000  0.000  0.000  1.000
    occupations:
  0.136 -0.000 -0.000  0.000  0.000
 -0.000  0.142 -0.000  0.000  0.000
 -0.000 -0.000  0.142  0.000  0.000
  0.000  0.000  0.000  0.065 -0.000
  0.000  0.000  0.000 -0.000  0.255
   spin  2
    eigenvalues: 
  0.985  0.993  0.993  0.997  1.002
    eigenvectors:
  0.000  0.000  0.000  1.000  0.000
  0.000  0.274  0.726  0.000  0.000
  0.000  0.726  0.274  0.000  0.000
  0.000  0.000  0.000  0.000  1.000
  1.000  0.000  0.000  0.000  0.000
    occupations:
  0.997 -0.000 -0.000  0.000  0.000
 -0.000  0.993 -0.000  0.000  0.000
 -0.000 -0.000  0.993  0.000  0.000
  0.000  0.000  0.000  1.002 -0.000
  0.000  0.000  0.000 -0.000  0.985
atomic mag. moment =    -4.229986
N of occupied +U levels =   45.795991
 --- exit write_ns ---

 ------ SPIN UP ------------


          k = 0.0000 0.0000 0.0000 ( 13925 PWs)   bands (ev):

   -66.7571 -66.7571 -66.6308 -66.6308 -66.6178 -62.1665 -62.1665 -62.0835
   -35.5243 -35.5243 -35.4756 -35.4756 -35.4756 -35.4756 -35.4059 -35.4059
   -35.3920 -35.3476 -35.3476 -35.3476 -35.3476 -35.3348 -35.3348 -30.9911
   -30.9911 -30.9858 -30.9858 -30.9858 -30.9858 -30.9163 -30.9004 -30.9004
     5.7487   5.8728   5.9726   6.3441   6.3835   7.0193   7.0371   7.6101
     8.2589   8.3526   8.3648   8.4116   8.4586   8.5485   8.6269   8.7465
     8.8034   8.8332   8.8923   8.9862   9.1085   9.1670   9.2111   9.2273
     9.2355   9.3631   9.4483   9.5735   9.5836   9.6461   9.7221   9.8770
     9.9171   9.9176  10.0281  10.1209  10.1209  10.1344  10.1576  10.1576
    10.1891  10.1946  10.1946  10.2500  10.3130  10.3389  10.3389  10.3395
    10.3395  10.3835  10.4893  10.5707  10.5721  10.5721  10.5800  10.5800
    10.5954  10.6047  10.6047  10.6053  10.6053  10.6559  10.6610  10.6610
    10.7495  10.7495  10.7708  10.7708  10.8242  10.8634  10.9935  11.0036
    11.0036  11.0408  11.0408  11.1045  11.1265  11.1870  11.2414  11.2861
    11.4022  11.4729  11.4729  11.4752  11.4929  11.4929  11.5634  11.6898
    11.7390  11.7755  11.9010  11.9010  11.9200  11.9200  11.9259  11.9634
    12.0400  12.0499  12.1160  12.1404  12.2243  12.2332  12.2418  12.2418
    12.5113  12.5347  12.5347  12.6958  12.7774  12.7774  12.8167  12.8662
    13.0102  13.0981  13.1120  13.1144  13.8564  13.9230  14.7922  15.3867
    16.4107  16.7786  16.7786  16.9178  16.9178  16.9583  16.9746  17.0682
    17.1079  17.1310  17.1932  17.1975  17.1975  17.4855  17.5490  17.6187
    18.2985  19.4947  19.7539  20.0539  20.0539  20.4016  20.4016  20.5254
    20.5254  21.4371

          k = 0.0000 0.0000 0.0242 ( 13893 PWs)   bands (ev):

   -66.7571 -66.7571 -66.6308 -66.6308 -66.6178 -62.1665 -62.1665 -62.0835
   -35.5243 -35.5243 -35.4756 -35.4756 -35.4756 -35.4756 -35.4059 -35.4059
   -35.3920 -35.3476 -35.3476 -35.3476 -35.3476 -35.3348 -35.3348 -30.9911
   -30.9911 -30.9858 -30.9858 -30.9858 -30.9858 -30.9163 -30.9004 -30.9004
     5.7545   5.8461   6.0197   6.2310   6.5122   6.8478   7.2114   7.5459
     8.3066   8.3526   8.3732   8.4116   8.4567   8.5486   8.6282   8.6895
     8.7462   8.8693   8.9356   8.9896   9.0987   9.1297   9.2155   9.2424
     9.3067   9.3517   9.4307   9.5207   9.5881   9.6693   9.7300   9.8770
     9.9145   9.9176  10.0282  10.1236  10.1236  10.1340  10.1478  10.1478
    10.1889  10.2110  10.2110  10.2531  10.2899  10.2899  10.3129  10.3856
    10.3959  10.3959  10.4817  10.5283  10.5283  10.5730  10.5730  10.5839
    10.5848  10.5848  10.5883  10.6469  10.6610  10.6610  10.6726  10.6726
    10.7431  10.7431  10.7803  10.7803  10.8461  10.8656  10.9311  10.9311
    10.9597  11.1192  11.1192  11.1252  11.1319  11.1870  11.2306  11.2860
    11.3784  11.3784  11.4036  11.4756  11.5644  11.5886  11.5886  11.6871
    11.7383  11.7751  11.8244  11.8244  11.9386  11.9635  11.9782  11.9782
    12.0185  12.0507  12.1159  12.1594  12.2243  12.2244  12.2359  12.2359
    12.5118  12.5357  12.5357  12.6956  12.7773  12.7773  12.8276  12.8663
    12.9980  13.0102  13.1144  13.2418  13.6728  14.1218  14.6863  15.4640
    16.3684  16.7786  16.7786  16.9178  16.9178  16.9583  16.9746  17.0682
    17.1079  17.1310  17.1932  17.1975  17.1975  17.4763  17.5711  17.6154
    18.3573  19.2280  20.0732  20.0732  20.0902  20.2982  20.2982  20.6717
    20.6717  21.0551

          k = 0.0000 0.0000-0.0484 ( 13878 PWs)   bands (ev):

   -66.7571 -66.7571 -66.6308 -66.6308 -66.6178 -62.1665 -62.1665 -62.0835
   -35.5243 -35.5243 -35.4756 -35.4756 -35.4756 -35.4756 -35.4059 -35.4059
   -35.3920 -35.3476 -35.3476 -35.3476 -35.3476 -35.3348 -35.3348 -30.9911
   -30.9911 -30.9858 -30.9858 -30.9858 -30.9858 -30.9163 -30.9004 -30.9004
     5.7626   5.8244   6.0954   6.1341   6.6531   6.6951   7.3596   7.4270
     8.3410   8.3526   8.4116   8.4154   8.4536   8.5487   8.5856   8.6461
     8.7459   8.8536   8.9933   9.0203   9.0507   9.0895   9.2592   9.2633
     9.3376   9.3765   9.3851   9.4698   9.5925   9.6806   9.7384   9.8771
     9.9118   9.9176  10.0282  10.1287  10.1287  10.1335  10.1380  10.1380
    10.1887  10.2358  10.2358  10.2563  10.2564  10.2564  10.3128  10.3879
    10.4567  10.4567  10.4622  10.4622  10.4750  10.5729  10.5729  10.5815
    10.5846  10.5846  10.6008  10.6332  10.6610  10.6610  10.7146  10.7146
    10.7286  10.7286  10.7969  10.7969  10.8677  10.8818  10.8818  10.8886
    10.9099  11.1239  11.1600  11.1793  11.1793  11.1870  11.2140  11.2858
    11.3149  11.3149  11.4050  11.4760  11.5654  11.6577  11.6577  11.6844
    11.7375  11.7615  11.7615  11.7748  11.9609  11.9636  11.9901  12.0052
    12.0052  12.0515  12.1159  12.1827  12.2087  12.2243  12.2296  12.2296
    12.5124  12.5365  12.5365  12.6953  12.7772  12.7772  12.8434  12.8664
    12.9493  13.0102  13.1144  13.3449  13.5442  14.2735  14.5531  15.5347
    16.3230  16.7786  16.7786  16.9178  16.9178  16.9583  16.9746  17.0682
    17.1079  17.1310  17.1932  17.1974  17.1974  17.4707  17.5934  17.6076
    18.4333  19.0541  20.1038  20.1038  20.2254  20.2254  20.5536  20.5674
    20.8809  20.8809

          k = 0.0000 0.1250 0.0000 ( 13879 PWs)   bands (ev):

   -66.7569 -66.7569 -66.6305 -66.6305 -66.6175 -62.1665 -62.1665 -62.0835
   -35.5241 -35.5241 -35.4774 -35.4774 -35.4755 -35.4755 -35.4057 -35.4057
   -35.3918 -35.3493 -35.3493 -35.3475 -35.3475 -35.3366 -35.3347 -30.9909
   -30.9909 -30.9880 -30.9880 -30.9857 -30.9857 -30.9161 -30.9025 -30.9002
     5.9923   6.1127   6.2106   6.5708   6.6043   7.2132   7.2198   7.7532
     8.2709   8.4553   8.4908   8.5367   8.5542   8.6530   8.7041   8.7203
     8.8235   8.8295   8.9608   9.0324   9.0620   9.1808   9.1950   9.2777
     9.2827   9.3339   9.3943   9.4005   9.5138   9.6136   9.7907   9.8057
     9.8058   9.8196   9.8693   9.9131   9.9207  10.0131  10.0269  10.0459
    10.0605  10.0738  10.1331  10.1538  10.2139  10.2273  10.3039  10.3127
    10.3334  10.3769  10.4285  10.4314  10.4836  10.5181  10.5792  10.5856
    10.6312  10.6473  10.6593  10.7226  10.7585  10.8069  10.8266  10.8273
    10.8626  10.8688  10.8979  10.9620  11.0510  11.0753  11.0821  11.1102
    11.1287  11.1458  11.1931  11.2179  11.2382  11.2473  11.2650  11.3639
    11.3928  11.4119  11.4647  11.5032  11.5357  11.6320  11.6896  11.6974
    11.8004  11.8041  11.8132  11.8330  11.9023  11.9836  11.9838  12.0021
    12.0228  12.1030  12.1278  12.1500  12.1727  12.1932  12.2160  12.3826
    12.3840  12.4523  12.6036  12.6292  12.6966  12.7636  12.8569  12.8704
    13.0087  13.0103  13.0771  13.0787  13.8964  13.9951  14.9209  15.5010
    16.5078  16.5254  16.7710  16.8985  16.9075  16.9497  16.9663  17.0329
    17.0469  17.0974  17.1107  17.2020  17.3122  17.4426  17.5988  17.9373
    18.4579  18.6077  18.9344  19.1177  19.8349  19.8679  19.9010  20.0366
    20.6529  20.9404

          k = 0.0000 0.1250 0.0242 ( 13869 PWs)   bands (ev):

   -66.7569 -66.7569 -66.6305 -66.6305 -66.6175 -62.1665 -62.1665 -62.0835
   -35.5241 -35.5241 -35.4774 -35.4774 -35.4755 -35.4755 -35.4057 -35.4057
   -35.3918 -35.3493 -35.3493 -35.3475 -35.3475 -35.3366 -35.3347 -30.9909
   -30.9909 -30.9880 -30.9880 -30.9857 -30.9857 -30.9161 -30.9025 -30.9002
     5.9979   6.0870   6.2559   6.4603   6.7292   7.0473   7.3878   7.6921
     8.3175   8.4581   8.4910   8.5354   8.5526   8.6193   8.6616   8.7344
     8.8244   8.8694   8.9572   9.0367   9.0798   9.1520   9.2207   9.2450
     9.2738   9.3258   9.3835   9.4575   9.5150   9.5933   9.7737   9.7911
     9.8051   9.8635   9.8697   9.9131   9.9209  10.0145  10.0186  10.0255
    10.0587  10.0899  10.1337  10.1496  10.2298  10.2319  10.3034  10.3087
    10.3246  10.3461  10.4395  10.4469  10.5061  10.5146  10.5776  10.5911
    10.6279  10.6508  10.6574  10.6909  10.7260  10.8185  10.8265  10.8575
    10.8623  10.8805  10.9088  10.9650  11.0526  11.0768  11.0898  11.0927
    11.1137  11.1351  11.2017  11.2235  11.2301  11.2411  11.2484  11.3802
    11.4014  11.4298  11.4375  11.5348  11.5637  11.6324  11.6403  11.6896
    11.7739  11.7832  11.8157  11.8630  11.9336  11.9783  11.9906  12.0140
    12.0311  12.1026  12.1142  12.1335  12.1596  12.1932  12.2257  12.3861
    12.3892  12.4514  12.6027  12.6278  12.6968  12.7787  12.8568  12.8707
    12.9530  13.0087  13.0103  13.2348  13.6996  14.2095  14.7973  15.5914
    16.3959  16.6202  16.7519  16.8985  16.9075  16.9509  16.9662  17.0329
    17.0469  17.0970  17.1113  17.2020  17.3122  17.4344  17.6313  17.8602
    18.5839  18.6320  18.8676  19.2235  19.4936  19.6430  20.1402  20.4146
    20.6633  20.7143

          k = 0.0000 0.1250-0.0484 ( 13868 PWs)   bands (ev):

   -66.7569 -66.7569 -66.6305 -66.6305 -66.6175 -62.1665 -62.1665 -62.0835
   -35.5241 -35.5241 -35.4774 -35.4774 -35.4755 -35.4755 -35.4057 -35.4057
   -35.3918 -35.3493 -35.3493 -35.3475 -35.3475 -35.3366 -35.3347 -30.9909
   -30.9909 -30.9880 -30.9880 -30.9857 -30.9857 -30.9161 -30.9025 -30.9002
     6.0057   6.0660   6.3280   6.3680   6.8642   6.9021   7.5397   7.5671
     8.3733   8.4690   8.4926   8.5245   8.5507   8.5554   8.6594   8.7427
     8.8222   8.8819   8.9821   9.0400   9.0706   9.1707   9.1930   9.2336
     9.2712   9.3143   9.3892   9.5104   9.5161   9.5556   9.7607   9.7915
     9.8044   9.8701   9.8930   9.9131   9.9210   9.9947  10.0166  10.0234
    10.0570  10.0985  10.1345  10.1463  10.2325  10.2641  10.2877  10.3007
    10.3069  10.3395  10.4508  10.4552  10.4897  10.5641  10.5764  10.5961
    10.6248  10.6299  10.6539  10.6553  10.7293  10.8191  10.8264  10.8493
    10.8623  10.9164  10.9224  10.9761  11.0553  11.0615  11.0809  11.0965
    11.1021  11.1221  11.2010  11.2095  11.2280  11.2491  11.2601  11.3548
    11.3954  11.4350  11.5158  11.5322  11.5584  11.6160  11.6318  11.7019
    11.7092  11.7840  11.8151  11.8913  11.9455  11.9939  11.9989  12.0104
    12.0428  12.0988  12.1113  12.1146  12.1405  12.1932  12.2332  12.3896
    12.3943  12.4503  12.6018  12.6263  12.6970  12.8042  12.8568  12.8709
    12.8901  13.0087  13.0102  13.3589  13.5487  14.3924  14.6333  15.6741
    16.3285  16.6868  16.7105  16.8985  16.9075  16.9521  16.9660  17.0330
    17.0469  17.0967  17.1119  17.2020  17.3122  17.4276  17.6855  17.7734
    18.6308  18.7747  18.8175  19.2486  19.3792  19.4578  20.3865  20.4197
    20.6763  20.8416

          k = 0.0000 0.2500 0.0000 ( 13848 PWs)   bands (ev):

   -66.7567 -66.7567 -66.6303 -66.6303 -66.6173 -62.1662 -62.1662 -62.0831
   -35.5237 -35.5237 -35.4816 -35.4816 -35.4753 -35.4753 -35.4053 -35.4053
   -35.3914 -35.3535 -35.3535 -35.3472 -35.3472 -35.3408 -35.3345 -30.9933
   -30.9933 -30.9903 -30.9903 -30.9853 -30.9853 -30.9155 -30.9078 -30.8999
     6.6813   6.7888   6.8798   7.1946   7.2093   7.6802   7.6913   8.0641
     8.2388   8.4747   8.4958   8.6881   8.7147   8.7262   8.7952   8.8366
     8.8518   8.8874   8.9134   8.9553   8.9845   9.0173   9.0575   9.2378
     9.3373   9.3830   9.4462   9.4657   9.5187   9.5767   9.6164   9.6197
     9.6551   9.6672   9.6718   9.7527   9.7686   9.8047   9.8302   9.8896
     9.9664   9.9885  10.0333  10.1158  10.1455  10.1530  10.2252  10.2783
    10.3475  10.4992  10.5265  10.5491  10.5655  10.5917  10.6734  10.7109
    10.7780  10.7800  10.8019  10.8795  10.9174  10.9564  10.9825  11.0080
    11.0753  11.0821  11.1146  11.1640  11.1672  11.2064  11.2341  11.3023
    11.3326  11.3663  11.3746  11.3919  11.4536  11.4915  11.4947  11.5778
    11.5963  11.6112  11.6425  11.6763  11.6783  11.7259  11.7301  11.7494
    11.8066  11.8078  11.8808  11.8983  11.9007  11.9562  11.9861  12.0137
    12.0577  12.0604  12.0702  12.1310  12.1319  12.2275  12.2437  12.2966
    12.4322  12.5142  12.5783  12.5793  12.7507  12.7560  12.9159  12.9278
    12.9771  13.0146  13.0465  13.0605  14.0115  14.1366  15.1751  15.5654
    16.0226  16.0725  16.1001  16.1940  16.4608  16.7266  16.8034  16.8636
    16.8722  17.0346  17.0581  17.0655  17.2341  17.3087  17.3381  17.3547
    17.4398  17.4413  17.8789  17.9697  18.2978  18.5080  18.5341  18.8581
    19.4130  20.3948

          k = 0.0000 0.2500 0.0242 ( 13862 PWs)   bands (ev):

   -66.7567 -66.7567 -66.6303 -66.6303 -66.6173 -62.1662 -62.1662 -62.0831
   -35.5237 -35.5237 -35.4816 -35.4816 -35.4753 -35.4753 -35.4053 -35.4053
   -35.3914 -35.3535 -35.3535 -35.3472 -35.3472 -35.3408 -35.3345 -30.9933
   -30.9933 -30.9903 -30.9903 -30.9853 -30.9853 -30.9155 -30.9078 -30.8999
     6.6863   6.7668   6.9184   7.0963   7.3171   7.5628   7.8030   8.0195
     8.2746   8.4205   8.5476   8.6598   8.6993   8.7635   8.7962   8.8364
     8.8457   8.8863   8.8997   8.9653   8.9841   9.0281   9.0545   9.2399
     9.2899   9.4445   9.4462   9.4657   9.5189   9.5764   9.6115   9.6198
     9.6548   9.6674   9.6701   9.6834   9.7699   9.8300   9.8812   9.8866
     9.9706   9.9878  10.0307  10.1057  10.1140  10.1484  10.2354  10.3144
    10.3255  10.5167  10.5214  10.5468  10.5527  10.6013  10.6672  10.7278
    10.7525  10.7700  10.8099  10.8844  10.9344  10.9426  10.9843  11.0079
    11.0747  11.0801  11.1231  11.1532  11.1793  11.2059  11.2435  11.2809
    11.3390  11.3714  11.3744  11.3962  11.4587  11.4634  11.4938  11.5731
    11.6134  11.6229  11.6344  11.6429  11.7239  11.7296  11.7381  11.7410
    11.8053  11.8144  11.8705  11.8819  11.9085  11.9491  11.9727  12.0106
    12.0356  12.0700  12.1159  12.1250  12.1310  12.2306  12.2353  12.3058
    12.4102  12.5282  12.5774  12.6042  12.7508  12.7543  12.8207  12.9158
    12.9283  13.0465  13.0605  13.2122  13.7674  14.3919  15.0141  15.6945
    16.0014  16.0461  16.1290  16.1576  16.4639  16.7266  16.8113  16.8636
    16.8714  17.0346  17.0583  17.0648  17.2332  17.3087  17.3167  17.3547
    17.4398  17.5151  17.7937  18.0786  18.1493  18.4183  18.6796  18.9117
    19.4444  20.0859

          k = 0.0000 0.2500-0.0484 ( 13842 PWs)   bands (ev):

   -66.7567 -66.7567 -66.6303 -66.6303 -66.6173 -62.1662 -62.1662 -62.0831
   -35.5237 -35.5237 -35.4816 -35.4816 -35.4753 -35.4753 -35.4053 -35.4053
   -35.3914 -35.3535 -35.3535 -35.3472 -35.3472 -35.3408 -35.3345 -30.9933
   -30.9933 -30.9903 -30.9903 -30.9853 -30.9853 -30.9155 -30.9078 -30.8999
     6.6931   6.7486   6.9776   7.0204   7.4286   7.4485   7.8855   7.9537
     8.3214   8.3725   8.6026   8.6087   8.6994   8.7769   8.8177   8.8234
     8.8377   8.8814   8.8928   8.9735   8.9833   9.0428   9.0474   9.2498
     9.2548   9.4462   9.4656   9.5011   9.5192   9.5761   9.5871   9.6199
     9.6424   9.6545   9.6677   9.6729   9.7711   9.8298   9.8838   9.9436
     9.9755   9.9865  10.0281  10.0517  10.1125  10.1507  10.2518  10.2997
    10.3450  10.5001  10.5419  10.5437  10.5509  10.6073  10.6638  10.7270
    10.7387  10.7672  10.8165  10.8968  10.9067  10.9652  10.9830  11.0087
    11.0736  11.0780  11.1308  11.1398  11.1972  11.2092  11.2514  11.2567
    11.3417  11.3741  11.3803  11.3998  11.4297  11.4738  11.5093  11.5349
    11.6121  11.6288  11.6402  11.6784  11.7082  11.7275  11.7280  11.7672
    11.8049  11.8340  11.8498  11.8673  11.9321  11.9324  11.9454  12.0017
    12.0551  12.0700  12.1158  12.1309  12.1451  12.2237  12.2336  12.3192
    12.3874  12.5395  12.5762  12.6568  12.7180  12.7511  12.7524  12.9157
    12.9287  13.0464  13.0605  13.4061  13.5468  14.6381  14.7898  15.8603
    15.8962  16.0725  16.0937  16.1525  16.4658  16.7266  16.8198  16.8636
    16.8698  17.0346  17.0587  17.0640  17.2315  17.3065  17.3087  17.3547
    17.4398  17.6225  17.7014  18.0439  18.2445  18.2493  18.8180  18.9025
    19.5409  19.8518

          k = 0.0000 0.3750 0.0000 ( 13856 PWs)   bands (ev):

   -66.7573 -66.7573 -66.6309 -66.6309 -66.6179 -62.1652 -62.1652 -62.0821
   -35.5233 -35.5233 -35.4857 -35.4857 -35.4750 -35.4750 -35.4049 -35.4049
   -35.3910 -35.3576 -35.3576 -35.3470 -35.3470 -35.3449 -35.3342 -30.9987
   -30.9987 -30.9898 -30.9898 -30.9850 -30.9850 -30.9149 -30.9133 -30.8995
     7.6426   7.7222   7.7915   7.9710   7.9884   8.1301   8.1337   8.1681
     8.1743   8.2741   8.2855   8.4233   8.4883   8.6201   8.7584   8.8720
     8.8928   8.9293   9.0563   9.0608   9.1490   9.1946   9.1985   9.2450
     9.2605   9.2658   9.2689   9.3112   9.3713   9.4231   9.4413   9.5637
     9.5864   9.6026   9.6187   9.7406   9.7566   9.7937   9.8575   9.8996
     9.9778   9.9793  10.0340  10.0613  10.1480  10.1763  10.1877  10.2931
    10.3211  10.3580  10.3958  10.4150  10.6190  10.6257  10.6283  10.8610
    10.8615  10.9669  11.0866  11.1124  11.1196  11.2283  11.2419  11.3074
    11.3622  11.3691  11.3778  11.4302  11.4379  11.4496  11.5110  11.5198
    11.5695  11.5810  11.5871  11.6028  11.6214  11.6645  11.6659  11.7080
    11.7164  11.7832  11.7981  11.8342  11.8373  11.8820  11.8834  11.9073
    12.0272  12.0532  12.0584  12.0650  12.1196  12.1354  12.1500  12.1533
    12.1716  12.2042  12.3161  12.3216  12.3603  12.3864  12.4740  12.4773
    12.5401  12.5640  12.6379  12.7097  12.8209  12.8752  12.9747  12.9798
    12.9833  13.0105  13.0950  13.1080  13.9544  13.9665  13.9915  14.2550
    14.3116  14.7955  14.8899  15.0647  15.0950  15.5715  15.6032  15.9724
    16.0817  16.6974  16.7604  16.8148  16.8531  16.9620  17.0047  17.0420
    17.1361  17.3272  17.5209  17.5246  17.6074  17.9298  18.0134  18.2359
    19.4325  19.4962

          k = 0.0000 0.3750 0.0242 ( 13870 PWs)   bands (ev):

   -66.7573 -66.7573 -66.6309 -66.6309 -66.6179 -62.1652 -62.1652 -62.0821
   -35.5233 -35.5233 -35.4857 -35.4857 -35.4750 -35.4750 -35.4049 -35.4049
   -35.3910 -35.3576 -35.3576 -35.3470 -35.3470 -35.3449 -35.3342 -30.9987
   -30.9987 -30.9898 -30.9898 -30.9850 -30.9850 -30.9149 -30.9133 -30.8995
     7.6462   7.7075   7.8157   7.9252   8.0299   8.1105   8.1440   8.1604
     8.1892   8.2440   8.3190   8.4027   8.5012   8.6166   8.7657   8.8380
     8.9271   8.9403   9.0329   9.0491   9.1691   9.1946   9.1985   9.2361
     9.2450   9.2657   9.2930   9.3269   9.3714   9.4231   9.4398   9.5181
     9.5633   9.6027   9.6567   9.7429   9.7921   9.7948   9.8573   9.8973
     9.9774   9.9795  10.0398  10.0608  10.0695  10.1445  10.2733  10.2937
    10.3206  10.3745  10.4024  10.4139  10.5664  10.6290  10.6409  10.8559
    10.8855  10.9562  11.0583  11.1185  11.1609  11.2260  11.2460  11.3148
    11.3603  11.3649  11.4015  11.4375  11.4403  11.4464  11.4962  11.5018
    11.5358  11.5604  11.5856  11.6090  11.6239  11.6576  11.6883  11.7042
    11.7193  11.7658  11.7918  11.8031  11.8513  11.8823  11.8860  11.9365
    12.0259  12.0412  12.0632  12.0952  12.1151  12.1214  12.1456  12.1463
    12.2283  12.2482  12.3093  12.3230  12.3524  12.3982  12.4757  12.4778
    12.5286  12.5632  12.6441  12.7097  12.7163  12.8197  12.8752  12.9750
    13.0105  13.0950  13.1080  13.2493  13.7516  13.9761  14.1410  14.1979
    14.4515  14.6305  14.8565  15.0404  15.2727  15.4911  15.6508  15.9461
    16.0755  16.6974  16.7654  16.8148  16.8541  16.9620  17.0048  17.0414
    17.1349  17.3314  17.5209  17.5246  17.6074  17.9309  18.0110  18.2384
    19.4295  19.5160

          k = 0.0000 0.3750-0.0484 ( 13872 PWs)   bands (ev):

   -66.7573 -66.7573 -66.6309 -66.6309 -66.6179 -62.1652 -62.1652 -62.0821
   -35.5233 -35.5233 -35.4857 -35.4857 -35.4750 -35.4750 -35.4049 -35.4049
   -35.3910 -35.3576 -35.3576 -35.3470 -35.3470 -35.3449 -35.3342 -30.9987
   -30.9987 -30.9898 -30.9898 -30.9850 -30.9850 -30.9149 -30.9133 -30.8995
     7.6509   7.6950   7.8498   7.8852   8.0613   8.0888   8.1489   8.1560
     8.2102   8.2171   8.3505   8.3735   8.5115   8.6128   8.7776   8.8142
     8.9395   8.9734   8.9987   9.0366   9.1946   9.1983   9.1985   9.2100
     9.2450   9.2657   9.3003   9.3602   9.3715   9.4231   9.4320   9.4717
     9.5628   9.6028   9.6672   9.7453   9.7904   9.8478   9.8571   9.8952
     9.9771   9.9796   9.9997  10.0462  10.0600  10.1407  10.2943  10.3048
    10.3160  10.3818  10.4128  10.4552  10.4970  10.6324  10.6417  10.8509
    10.9201  10.9338  11.0460  11.1247  11.1779  11.2215  11.2555  11.3501
    11.3524  11.3845  11.4075  11.4373  11.4396  11.4534  11.4680  11.4783
    11.4795  11.5510  11.5846  11.6081  11.6518  11.6698  11.6829  11.7027
    11.7266  11.7596  11.7719  11.7810  11.8586  11.8825  11.8935  11.9901
    11.9922  12.0340  12.0685  12.0759  12.1210  12.1283  12.1406  12.1461
    12.2533  12.3046  12.3234  12.3299  12.4102  12.4266  12.4668  12.4786
    12.5019  12.5164  12.5690  12.6497  12.7097  12.8184  12.8753  12.9752
    13.0105  13.0949  13.1080  13.4947  13.5221  14.0353  14.0437  14.4095
    14.4134  14.6290  14.6658  15.1691  15.2657  15.5607  15.5856  15.9333
    16.0646  16.6974  16.7704  16.8148  16.8549  16.9620  17.0048  17.0407
    17.1338  17.3356  17.5209  17.5246  17.6074  17.9321  18.0085  18.2410
    19.4311  19.5309

          k = 0.0000-0.5000 0.0000 ( 13918 PWs)   bands (ev):

   -66.7577 -66.7577 -66.6314 -66.6314 -66.6184 -62.1646 -62.1646 -62.0815
   -35.5232 -35.5232 -35.4873 -35.4873 -35.4749 -35.4749 -35.4047 -35.4047
   -35.3908 -35.3593 -35.3593 -35.3469 -35.3469 -35.3465 -35.3341 -31.0010
   -31.0010 -30.9895 -30.9895 -30.9849 -30.9849 -30.9156 -30.9147 -30.8994
     8.0899   8.0966   8.1263   8.1371   8.1810   8.2681   8.2795   8.4077
     8.4115   8.4311   8.4690   8.5000   8.5026   8.6205   8.6842   8.7610
     8.8393   8.8688   8.9574   8.9660   9.0943   9.0964   9.1562   9.1594
     9.1624   9.2537   9.2922   9.3101   9.4646   9.5405   9.5491   9.5670
     9.6777   9.6869   9.7043   9.7142   9.7661   9.7872   9.7914   9.8148
     9.8309   9.9211  10.0168  10.0214  10.0498  10.0901  10.0916  10.2622
    10.3548  10.3776  10.3920  10.4058  10.5572  10.5933  10.6138  10.7245
    10.8031  10.9638  11.2512  11.3334  11.3374  11.3502  11.4097  11.4247
    11.4629  11.4887  11.5047  11.5219  11.5506  11.5538  11.5684  11.5726
    11.5775  11.6004  11.6025  11.6550  11.6726  11.7072  11.7455  11.7608
    11.8161  11.8419  11.8444  11.8691  11.8785  12.0435  12.0535  12.0714
    12.1758  12.2555  12.3924  12.4046  12.4507  12.4552  12.4706  12.4753
    12.5073  12.5229  12.5250  12.5435  12.5487  12.5981  12.6702  12.7150
    12.7239  12.8034  12.8539  12.8723  12.9148  12.9491  12.9608  13.0152
    13.0329  13.1225  13.1240  13.2101  13.2972  13.3443  13.4023  13.7475
    13.8284  13.8600  13.8924  14.3658  14.3937  14.4545  14.4958  14.8132
    14.8543  16.5254  16.6492  16.7952  16.7959  16.8326  16.8658  16.8679
    17.0142  17.0570  17.5977  17.5980  17.6789  17.9755  17.9917  18.0716
    19.4431  19.4552

          k = 0.0000-0.5000 0.0242 ( 13918 PWs)   bands (ev):

   -66.7577 -66.7577 -66.6314 -66.6314 -66.6184 -62.1646 -62.1646 -62.0815
   -35.5232 -35.5232 -35.4873 -35.4873 -35.4749 -35.4749 -35.4047 -35.4047
   -35.3908 -35.3593 -35.3593 -35.3469 -35.3469 -35.3465 -35.3341 -31.0010
   -31.0010 -30.9895 -30.9895 -30.9849 -30.9849 -30.9156 -30.9147 -30.8994
     8.0898   8.0968   8.1265   8.1363   8.1819   8.2653   8.2828   8.4006
     8.4058   8.4485   8.4726   8.4948   8.4978   8.6281   8.6720   8.7577
     8.8582   8.8824   8.9442   8.9459   9.0943   9.0964   9.1562   9.1624
     9.1701   9.2596   9.2922   9.3101   9.4645   9.5405   9.5406   9.5610
     9.6779   9.6870   9.7063   9.7142   9.7657   9.7846   9.7913   9.8152
     9.8303   9.9217  10.0168  10.0213  10.0498  10.1084  10.1236  10.2421
    10.3386  10.3547  10.3776  10.3958  10.5933  10.6033  10.6139  10.7246
    10.8032  10.9632  11.2581  11.3312  11.3317  11.3520  11.4118  11.4258
    11.4645  11.4863  11.5063  11.5216  11.5509  11.5556  11.5680  11.5739
    11.5808  11.5886  11.6004  11.6318  11.6667  11.7165  11.7447  11.7621
    11.8067  11.8418  11.8419  11.8776  11.9038  12.0460  12.0535  12.0814
    12.1734  12.2414  12.3925  12.4065  12.4467  12.4505  12.4720  12.4848
    12.5095  12.5160  12.5237  12.5417  12.5488  12.6004  12.6779  12.7153
    12.7239  12.8001  12.8520  12.8539  12.9147  12.9720  12.9721  13.0152
    13.0329  13.1225  13.1240  13.1769  13.2546  13.3874  13.4677  13.6850
    13.7078  13.9714  13.9874  14.2570  14.2874  14.5537  14.5861  14.7871
    14.8326  16.5271  16.6497  16.7951  16.7959  16.8326  16.8658  16.8667
    17.0146  17.0571  17.5977  17.5980  17.6789  17.9761  17.9910  18.0716
    19.4528  19.4625

          k = 0.0000-0.5000-0.0484 ( 13892 PWs)   bands (ev):

   -66.7577 -66.7577 -66.6314 -66.6314 -66.6184 -62.1646 -62.1646 -62.0815
   -35.5232 -35.5232 -35.4873 -35.4873 -35.4749 -35.4749 -35.4047 -35.4047
   -35.3908 -35.3593 -35.3593 -35.3469 -35.3469 -35.3465 -35.3341 -31.0010
   -31.0010 -30.9895 -30.9895 -30.9849 -30.9849 -30.9156 -30.9147 -30.8994
     8.0898   8.0970   8.1266   8.1356   8.1828   8.2632   8.2853   8.3943
     8.4040   8.4696   8.4770   8.4787   8.4948   8.6436   8.6525   8.7547
     8.8931   8.9098   8.9106   8.9162   9.0943   9.0964   9.1562   9.1625
     9.1801   9.2655   9.2922   9.3102   9.4644   9.5321   9.5405   9.5549
     9.6781   9.6872   9.7082   9.7142   9.7653   9.7822   9.7913   9.8155
     9.8297   9.9223  10.0168  10.0211  10.0498  10.1334  10.1783  10.2157
    10.2622  10.3547  10.3776  10.3991  10.5933  10.6139  10.6358  10.7246
    10.8032  10.9624  11.2653  11.3248  11.3303  11.3535  11.4137  11.4272
    11.4660  11.4836  11.5076  11.5226  11.5512  11.5580  11.5676  11.5730
    11.5745  11.5955  11.6004  11.6010  11.6630  11.7227  11.7438  11.7630
    11.8024  11.8395  11.8419  11.8767  11.9330  12.0485  12.0535  12.0912
    12.1708  12.2261  12.3926  12.4084  12.4403  12.4503  12.4734  12.4972
    12.5041  12.5116  12.5223  12.5400  12.5488  12.6025  12.6860  12.7157
    12.7239  12.7970  12.8358  12.8539  12.9146  12.9848  12.9916  13.0153
    13.0329  13.1225  13.1240  13.1496  13.2246  13.4297  13.5669  13.5946
    13.6331  14.0759  14.1132  14.1433  14.1611  14.6317  14.6526  14.7444
    14.8008  16.5288  16.6501  16.7951  16.7959  16.8326  16.8654  16.8657
    17.0149  17.0571  17.5977  17.5980  17.6789  17.9769  17.9904  18.0716
    19.4635  19.4703

          k = 0.1250 0.1250 0.0000 ( 13839 PWs)   bands (ev):

   -66.7566 -66.7566 -66.6302 -66.6302 -66.6172 -62.1666 -62.1666 -62.0835
   -35.5240 -35.5240 -35.4773 -35.4773 -35.4773 -35.4773 -35.4056 -35.4056
   -35.3917 -35.3493 -35.3493 -35.3492 -35.3492 -35.3365 -35.3364 -30.9907
   -30.9907 -30.9879 -30.9879 -30.9877 -30.9877 -30.9159 -30.9025 -30.9023
     6.2233   6.3419   6.4407   6.7924   6.8221   7.4100   7.4102   7.9135
     8.3296   8.5401   8.6251   8.6330   8.6776   8.7139   8.7469   8.7906
     8.8468   8.9507   9.0147   9.0531   9.1430   9.1748   9.2990   9.2991
     9.3675   9.3792   9.3799   9.4702   9.5273   9.5526   9.5657   9.7151
     9.7223   9.8081   9.8327   9.8545   9.8590   9.8617   9.8898   9.8914
     9.9262   9.9368  10.0434  10.0673  10.1488  10.1639  10.2888  10.3070
    10.3164  10.3513  10.3565  10.3777  10.4072  10.4370  10.5345  10.5351
    10.5618  10.5978  10.6225  10.6427  10.7244  10.7266  10.8239  10.8918
    10.8992  10.9087  11.0416  11.0649  11.0753  11.0857  11.0886  11.1429
    11.1466  11.1866  11.2485  11.2575  11.2781  11.3287  11.4217  11.4483
    11.4932  11.5007  11.5819  11.6032  11.6361  11.6511  11.6927  11.7185
    11.8405  11.9344  11.9350  11.9652  11.9694  11.9715  12.0172  12.0357
    12.0659  12.0927  12.1606  12.1734  12.1766  12.2719  12.3007  12.3538
    12.4475  12.5744  12.5869  12.5870  12.7094  12.7505  12.7595  12.8140
    12.8852  12.8871  13.0845  13.0990  13.9889  14.0976  15.0640  15.6497
    16.6112  16.6903  16.7008  16.8082  16.8115  16.8859  16.9589  16.9865
    16.9998  17.1455  17.1604  17.2049  17.2318  17.4583  17.6488  18.2802
    18.6519  19.0732  19.2037  19.2876  19.5396  19.5704  19.7406  20.0112
    20.0357  20.1896

          k = 0.1250 0.1250 0.0242 ( 13842 PWs)   bands (ev):

   -66.7566 -66.7566 -66.6302 -66.6302 -66.6172 -62.1666 -62.1666 -62.0835
   -35.5240 -35.5240 -35.4773 -35.4773 -35.4773 -35.4773 -35.4056 -35.4056
   -35.3917 -35.3493 -35.3493 -35.3492 -35.3492 -35.3365 -35.3364 -30.9907
   -30.9907 -30.9879 -30.9879 -30.9877 -30.9877 -30.9159 -30.9025 -30.9023
     6.2287   6.3175   6.4842   6.6840   6.9441   7.2493   7.5717   7.8554
     8.3711   8.5422   8.6172   8.6330   8.6445   8.6776   8.7906   8.7974
     8.8685   8.9506   8.9672   9.1091   9.1439   9.1517   9.2687   9.2934
     9.3665   9.3935   9.4256   9.4555   9.5052   9.5592   9.5662   9.7135
     9.7252   9.8088   9.8301   9.8551   9.8587   9.8710   9.8897   9.8915
     9.9175   9.9335  10.0496  10.0673  10.1489  10.1635  10.2835  10.3044
    10.3206  10.3493  10.3540  10.3767  10.4177  10.4386  10.5306  10.5327
    10.5533  10.6060  10.6240  10.6539  10.7238  10.7286  10.8243  10.8339
    10.9065  10.9463  11.0312  11.0660  11.0869  11.0877  11.0943  11.1365
    11.1615  11.1774  11.2475  11.2591  11.2843  11.3383  11.3716  11.4583
    11.4926  11.4979  11.5490  11.6240  11.6568  11.6808  11.7101  11.7211
    11.8426  11.8721  11.9129  11.9603  11.9649  11.9760  12.0033  12.0789
    12.0949  12.1013  12.1562  12.1606  12.1950  12.2597  12.2924  12.3491
    12.4490  12.5756  12.5860  12.5911  12.7211  12.7521  12.7632  12.8139
    12.8851  12.8871  12.9485  13.2706  13.7744  14.3267  14.9357  15.7420
    16.5224  16.6903  16.7130  16.8115  16.8655  16.8863  16.9561  16.9864
    16.9998  17.1439  17.1455  17.2049  17.2401  17.4403  17.7087  18.1172
    18.8678  19.0754  19.2164  19.2802  19.4741  19.5960  19.7766  19.8486
    19.8962  20.2065

          k = 0.1250 0.1250-0.0484 ( 13838 PWs)   bands (ev):

   -66.7566 -66.7566 -66.6302 -66.6302 -66.6172 -62.1666 -62.1666 -62.0835
   -35.5240 -35.5240 -35.4773 -35.4773 -35.4773 -35.4773 -35.4056 -35.4056
   -35.3917 -35.3493 -35.3493 -35.3492 -35.3492 -35.3365 -35.3364 -30.9907
   -30.9907 -30.9879 -30.9879 -30.9877 -30.9877 -30.9159 -30.9025 -30.9023
     6.2360   6.2975   6.5532   6.5952   7.0749   7.1097   7.7259   7.7263
     8.4204   8.5545   8.5660   8.6258   8.6330   8.6776   8.7907   8.8216
[...]
    11.6513  11.6679  11.7148  11.7364  11.8408  11.8425  11.8813  11.8841
    11.8886  11.9462  11.9844  12.0260  12.0555  12.2048  12.2272  12.2526
    12.2605  12.3953  12.4083  12.4292  12.4488  12.4669  12.5051  12.8268
    12.8453  12.8498  12.9198  13.0325  13.1644  13.4097  13.5355  13.7360
    13.7702  13.8370  13.8897  14.2136  14.4281  14.4782  14.5819  14.8991
    14.9606  14.9721  15.1338  15.5485  16.0387  16.4967  16.7551  16.9301
    16.9595  16.9712  17.0347  17.0467  17.0552  17.0859  17.1302  17.1370
    17.1813  17.4408  17.4732  17.4781  17.5900  17.7503  17.9927  18.1058
    18.1512  18.1921  18.1922  18.2704  18.3645  18.3934  18.5609  18.5674
    19.6851  19.7678

          k = 0.3750 0.3750 0.0000 ( 13948 PWs)   bands (ev):

   -66.7513 -66.7513 -66.6446 -62.1735 -62.1735 -62.0761 -62.0761 -62.0600
   -35.5201 -35.5201 -35.4796 -35.4796 -35.4796 -35.4796 -35.4212 -35.3709
   -35.3709 -31.0055 -31.0055 -31.0053 -31.0053 -30.9967 -30.9967 -30.9069
   -30.9069 -30.9067 -30.9067 -30.9059 -30.9059 -30.8912 -30.8910 -30.8885
     7.9966   8.2494   8.3391   8.4460   8.5431   8.6566   8.7098   8.8130
     8.9680   8.9857   9.0265   9.0385   9.1504   9.1949   9.2126   9.2482
     9.3059   9.3321   9.3381   9.3489   9.4007   9.4067   9.4892   9.4967
     9.5062   9.5122   9.5511   9.5837   9.6752   9.6855   9.7117   9.8438
     9.9149   9.9677   9.9748  10.0053  10.0110  10.0631  10.1043  10.1116
    10.1145  10.1592  10.2307  10.3410  10.3491  10.3539  10.4149  10.4803
    10.5080  10.6106  10.6114  10.6438  10.6588  10.6608  10.7580  10.7662
    10.7956  10.9323  10.9589  11.0130  11.0550  11.0882  11.1558  11.2105
    11.2914  11.4440  11.4612  11.5115  11.5376  11.5513  11.5630  11.5847
    11.5973  11.6311  11.6703  11.7266  11.7624  11.8678  11.9235  11.9364
    11.9399  11.9834  11.9985  12.0060  12.0330  12.0495  12.0956  12.1039
    12.1264  12.2436  12.2642  12.3291  12.4231  12.4635  12.5406  12.6644
    12.7215  12.7600  12.9800  13.0091  13.2185  13.5617  13.8350  14.0103
    14.4023  14.4226  14.7376  15.0997  15.1297  15.1922  15.2447  15.3846
    15.4690  15.6034  16.0092  16.4725  16.7787  16.9616  16.9711  17.0359
    17.0459  17.1085  17.1100  17.1212  17.1720  17.3574  17.4349  17.4543
    17.5132  17.6692  17.6861  17.7688  17.8464  17.9567  18.0715  18.0941
    18.2277  18.2864  18.3031  18.3239  18.4401  18.6155  18.8705  18.9408
    19.0106  19.0162

          k = 0.3750 0.3750 0.0242 ( 13940 PWs)   bands (ev):

   -66.7513 -66.7513 -66.6446 -62.1735 -62.1735 -62.0761 -62.0761 -62.0600
   -35.5201 -35.5201 -35.4796 -35.4796 -35.4796 -35.4796 -35.4212 -35.3709
   -35.3709 -31.0055 -31.0055 -31.0053 -31.0053 -30.9967 -30.9967 -30.9069
   -30.9069 -30.9067 -30.9067 -30.9059 -30.9059 -30.8912 -30.8910 -30.8885
     7.9967   8.2473   8.3391   8.4602   8.5402   8.6112   8.7550   8.8167
     8.9679   8.9781   9.0161   9.0466   9.1385   9.1693   9.2167   9.2856
     9.3062   9.3312   9.3367   9.3591   9.4082   9.4119   9.4569   9.4737
     9.4985   9.5354   9.5702   9.5915   9.6378   9.6727   9.7634   9.8563
     9.9022   9.9260   9.9627  10.0058  10.0486  10.0628  10.0685  10.1080
    10.1575  10.1847  10.2360  10.2784  10.3443  10.3902  10.4176  10.4462
    10.5569  10.5767  10.6159  10.6586  10.6623  10.6646  10.7137  10.7948
    10.8137  10.9157  10.9589  11.0031  11.0556  11.0881  11.1705  11.2091
    11.2914  11.4432  11.4624  11.5106  11.5377  11.5521  11.5545  11.5839
    11.5978  11.6311  11.6736  11.7266  11.7740  11.8454  11.9369  11.9396
    11.9435  11.9834  11.9905  12.0193  12.0340  12.0373  12.0748  12.1095
    12.1480  12.2329  12.2640  12.3328  12.4226  12.4646  12.5497  12.6269
    12.7599  12.7659  12.9258  13.0566  13.2042  13.5793  13.7960  14.0595
    14.3105  14.5048  14.7214  15.1058  15.1321  15.1720  15.2651  15.3752
    15.4723  15.6032  16.0086  16.4722  16.7859  16.9280  16.9939  17.0250
    17.0600  17.1031  17.1100  17.1356  17.1915  17.3379  17.3477  17.5354
    17.5362  17.6527  17.6714  17.7702  17.8546  17.9462  18.0942  18.0996
    18.1909  18.2480  18.3642  18.3799  18.4184  18.6820  18.6881  18.7855
    18.9619  19.1535

          k = 0.3750 0.3750-0.0484 ( 13950 PWs)   bands (ev):

   -66.7513 -66.7513 -66.6446 -62.1735 -62.1735 -62.0761 -62.0761 -62.0600
   -35.5201 -35.5201 -35.4796 -35.4796 -35.4796 -35.4796 -35.4212 -35.3709
   -35.3709 -31.0055 -31.0055 -31.0053 -31.0053 -30.9967 -30.9967 -30.9069
   -30.9069 -30.9067 -30.9067 -30.9059 -30.9059 -30.8912 -30.8910 -30.8885
     7.9968   8.2453   8.3392   8.4808   8.5317   8.5816   8.7844   8.8206
     8.9678   8.9703   9.0202   9.0339   9.1212   9.1764   9.2165   9.2916
     9.3065   9.3319   9.3355   9.4143   9.4158   9.4213   9.4264   9.4298
     9.4783   9.5787   9.5797   9.5892   9.6091   9.6636   9.8144   9.8539
     9.8776   9.9205   9.9393  10.0058  10.0334  10.0648  10.1035  10.1113
    10.1522  10.2105  10.2419  10.2781  10.3039  10.3705  10.4380  10.4590
    10.5438  10.5803  10.6294  10.6621  10.6711  10.6729  10.6761  10.7939
    10.8604  10.8778  10.9588  10.9964  11.0559  11.0881  11.1850  11.2064
    11.2914  11.4425  11.4636  11.5097  11.5380  11.5463  11.5529  11.5831
    11.5982  11.6311  11.6762  11.7266  11.7949  11.8184  11.9376  11.9390
    11.9616  11.9835  11.9867  12.0234  12.0282  12.0439  12.0517  12.1139
    12.1663  12.2194  12.2638  12.3360  12.4222  12.4655  12.5690  12.5917
    12.7598  12.8112  12.8792  13.0871  13.1864  13.6007  13.7603  14.1166
    14.2450  14.5504  14.7005  15.1149  15.1345  15.1538  15.2824  15.3643
    15.4753  15.6029  16.0079  16.4719  16.7946  16.9072  17.0047  17.0176
    17.0678  17.1001  17.1100  17.1496  17.2284  17.2838  17.3191  17.5615
    17.5889  17.6308  17.6457  17.7714  17.8629  17.9371  18.0943  18.1329
    18.1685  18.2337  18.3190  18.4915  18.5315  18.5375  18.5980  18.7736
    18.8920  19.1519

          k = 0.3750-0.5000 0.0000 ( 13934 PWs)   bands (ev):

   -66.7513 -66.7513 -66.6446 -62.1733 -62.1733 -62.0759 -62.0759 -62.0598
   -35.5200 -35.5200 -35.4812 -35.4812 -35.4794 -35.4794 -35.4211 -35.3725
   -35.3707 -31.0076 -31.0076 -31.0052 -31.0052 -30.9966 -30.9966 -30.9090
   -30.9090 -30.9066 -30.9066 -30.9057 -30.9057 -30.8933 -30.8909 -30.8883
     8.1208   8.1219   8.3286   8.4046   8.5679   8.6124   8.7222   8.7473
     8.9087   8.9297   9.1028   9.1164   9.1730   9.1806   9.2083   9.2118
     9.2243   9.2417   9.2804   9.3290   9.3951   9.3999   9.4169   9.4194
     9.4533   9.4735   9.5926   9.6395   9.6454   9.6581   9.8659   9.8812
     9.9130   9.9214   9.9704   9.9954  10.0416  10.0820  10.1137  10.1516
    10.1681  10.2993  10.3285  10.3667  10.3793  10.4301  10.4519  10.6214
    10.6413  10.6538  10.6603  10.6881  10.8261  10.8544  10.9083  10.9821
    11.0276  11.0459  11.1822  11.2133  11.2220  11.2740  11.2745  11.3332
    11.3814  11.4702  11.5295  11.5743  11.5893  11.6352  11.6770  11.7025
    11.7351  11.7559  11.7730  11.7770  11.9178  11.9478  11.9527  11.9972
    12.0006  12.0169  12.0476  12.0616  12.1030  12.1851  12.2082  12.2353
    12.2775  12.2913  12.3020  12.3614  12.4092  12.5033  12.5336  12.9614
    12.9836  13.1133  13.1205  13.1632  13.5917  13.8654  14.2189  14.2197
    14.2505  14.3709  14.5123  14.5609  14.5897  14.7579  14.8022  14.8155
    15.3526  15.4093  16.0423  16.3319  16.8368  16.9730  16.9963  17.0143
    17.0486  17.0592  17.0977  17.1128  17.1206  17.2960  17.5081  17.5095
    17.5710  17.7903  17.9265  17.9317  18.0064  18.0651  18.1237  18.1449
    18.2290  18.2353  18.3079  18.5512  18.6989  18.7145  18.7645  18.8154
    18.8799  18.9582

          k = 0.3750-0.5000 0.0242 ( 13948 PWs)   bands (ev):

   -66.7513 -66.7513 -66.6446 -62.1733 -62.1733 -62.0759 -62.0759 -62.0598
   -35.5200 -35.5200 -35.4812 -35.4812 -35.4794 -35.4794 -35.4211 -35.3725
   -35.3707 -31.0076 -31.0076 -31.0052 -31.0052 -30.9966 -30.9966 -30.9090
   -30.9090 -30.9066 -30.9066 -30.9057 -30.9057 -30.8933 -30.8909 -30.8883
     8.1209   8.1220   8.3282   8.4022   8.5821   8.6188   8.6960   8.7325
     8.9442   8.9508   9.0922   9.0988   9.1556   9.1569   9.1785   9.2164
     9.2492   9.2655   9.3026   9.3354   9.3754   9.3860   9.4269   9.4444
     9.4600   9.4662   9.5583   9.5980   9.6820   9.7152   9.8130   9.8539
     9.9165   9.9505   9.9794   9.9794  10.0723  10.1014  10.1133  10.1498
    10.1732  10.2694  10.3011  10.3067  10.4143  10.4673  10.4893  10.6209
    10.6255  10.6676  10.6703  10.6826  10.7894  10.8003  10.9728  10.9845
    11.0448  11.0523  11.1756  11.1795  11.2373  11.2538  11.2774  11.3425
    11.3948  11.4570  11.5312  11.5816  11.5939  11.6293  11.6676  11.7127
    11.7363  11.7555  11.7611  11.7849  11.9214  11.9442  11.9538  11.9963
    12.0008  12.0159  12.0475  12.0622  12.1031  12.1905  12.2046  12.2323
    12.2484  12.3023  12.3331  12.3632  12.4092  12.4953  12.5231  12.9805
    12.9920  13.0836  13.1060  13.1846  13.5932  13.8641  14.1917  14.2277
    14.2912  14.3543  14.4745  14.5880  14.6180  14.7164  14.8107  14.8265
    15.3527  15.4089  16.0423  16.3319  16.8353  16.9724  17.0007  17.0142
    17.0486  17.0552  17.0678  17.1068  17.1911  17.2757  17.4206  17.5355
    17.6547  17.7676  17.8940  17.9435  18.0300  18.0622  18.1182  18.1293
    18.1955  18.2376  18.3374  18.5703  18.7195  18.7370  18.7579  18.8195
    18.8772  18.9416

          k = 0.3750-0.5000-0.0484 ( 13940 PWs)   bands (ev):

   -66.7513 -66.7513 -66.6446 -62.1733 -62.1733 -62.0759 -62.0759 -62.0598
   -35.5200 -35.5200 -35.4812 -35.4812 -35.4794 -35.4794 -35.4211 -35.3725
   -35.3707 -31.0076 -31.0076 -31.0052 -31.0052 -30.9966 -30.9966 -30.9090
   -30.9090 -30.9066 -30.9066 -30.9057 -30.9057 -30.8933 -30.8909 -30.8883
     8.1209   8.1221   8.3278   8.4000   8.6030   8.6264   8.6658   8.7177
     8.9747   9.0014   9.0372   9.0891   9.1362   9.1483   9.1773   9.2142
     9.2520   9.2893   9.3193   9.3518   9.3536   9.3814   9.4245   9.4567
     9.4682   9.4736   9.5305   9.5722   9.7444   9.7485   9.7746   9.7929
     9.9351   9.9549   9.9655   9.9872  10.1059  10.1093  10.1369  10.1395
    10.1970  10.2065  10.2621  10.3030  10.4235  10.4913  10.5288  10.6129
    10.6303  10.6692  10.6760  10.6841  10.7443  10.7741  10.9855  11.0255
    11.0370  11.0796  11.1436  11.1739  11.2355  11.2413  11.2796  11.3487
    11.4182  11.4341  11.5328  11.5888  11.6012  11.6209  11.6600  11.7223
    11.7375  11.7519  11.7552  11.7883  11.9270  11.9386  11.9549  11.9953
    12.0010  12.0149  12.0473  12.0627  12.1033  12.1996  12.2010  12.2277
    12.2306  12.3119  12.3533  12.3659  12.4092  12.4866  12.5115  13.0015
    13.0270  13.0282  13.0976  13.1968  13.5948  13.8629  14.1776  14.2374
    14.3253  14.3375  14.4390  14.6345  14.6380  14.6648  14.8054  14.8401
    15.3528  15.4085  16.0422  16.3320  16.8339  16.9720  17.0050  17.0140
    17.0489  17.0508  17.0516  17.1166  17.2559  17.2563  17.3429  17.5645
    17.7146  17.7425  17.8560  17.9546  18.0587  18.0696  18.0744  18.1437
    18.1590  18.2433  18.3542  18.5905  18.7337  18.7415  18.7976  18.8226
    18.8766  18.9244

          k =-0.5000-0.5000 0.0000 ( 13964 PWs)   bands (ev):

   -66.7513 -66.7513 -66.6446 -62.1732 -62.1732 -62.0758 -62.0758 -62.0596
   -35.5199 -35.5199 -35.4810 -35.4810 -35.4810 -35.4810 -35.4210 -35.3723
   -35.3723 -31.0074 -31.0074 -31.0074 -31.0074 -30.9964 -30.9964 -30.9088
   -30.9088 -30.9088 -30.9088 -30.9056 -30.9056 -30.8931 -30.8931 -30.8882
     8.0337   8.0366   8.2511   8.3326   8.5228   8.5605   8.6851   8.7107
     8.8373   8.8505   9.1336   9.1539   9.2048   9.2143   9.2450   9.2450
     9.2805   9.2805   9.3254   9.3254   9.4111   9.4261   9.4435   9.4435
     9.4481   9.4481   9.6910   9.6910   9.6982   9.6982   9.8462   9.8989
     9.8989   9.9375   9.9714   9.9714  10.0146  10.0238  10.0238  10.0684
    10.0684  10.1437  10.1437  10.5161  10.5161  10.5521  10.5852  10.6094
    10.6133  10.6133  10.6847  10.6892  11.0819  11.0839  11.0839  11.1063
    11.1505  11.1505  11.1858  11.2822  11.4553  11.4554  11.4978  11.5093
    11.5567  11.5789  11.5789  11.7519  11.7519  11.9257  11.9263  11.9488
    11.9488  11.9798  11.9997  11.9997  12.0034  12.0288  12.0302  12.0497
    12.0497  12.0692  12.0924  12.0924  12.0954  12.1707  12.1980  12.2246
    12.2349  12.2431  12.2550  12.3106  12.3778  12.4931  12.4931  13.3622
    13.3646  13.3952  13.4111  13.4172  13.8587  13.8587  14.1638  14.1638
    14.3281  14.3281  14.6502  14.6502  14.7712  14.7712  14.8884  14.8884
    15.9131  15.9131  16.6362  16.6468  16.7964  16.8111  16.8314  16.9329
    16.9344  16.9538  16.9538  17.0245  17.2620  17.2620  17.4235  17.4235
    17.7521  17.7630  17.8953  17.9553  17.9785  18.0805  18.0805  18.1257
    18.1257  18.1860  18.1860  18.1950  18.2013  18.3615  18.3615  18.3655
    18.5383  18.7537

          k =-0.5000-0.5000 0.0242 ( 13960 PWs)   bands (ev):

   -66.7513 -66.7513 -66.6446 -62.1732 -62.1732 -62.0758 -62.0758 -62.0596
   -35.5199 -35.5199 -35.4810 -35.4810 -35.4810 -35.4810 -35.4210 -35.3723
   -35.3723 -31.0074 -31.0074 -31.0074 -31.0074 -30.9964 -30.9964 -30.9088
   -30.9088 -30.9088 -30.9088 -30.9056 -30.9056 -30.8931 -30.8931 -30.8882
     8.0338   8.0367   8.2507   8.3307   8.5383   8.5684   8.6504   8.6873
     8.8829   8.8838   9.0652   9.0928   9.2461   9.2461   9.2652   9.2757
     9.2757   9.2766   9.3373   9.3373   9.3936   9.4018   9.4018   9.4057
     9.4972   9.4972   9.6216   9.6216   9.7744   9.7744   9.8491   9.8989
     9.8989   9.9383   9.9510   9.9510   9.9726   9.9726  10.0134  10.1005
    10.1005  10.1852  10.1852  10.4348  10.4348  10.5503  10.5870  10.6095
    10.6845  10.6891  10.7042  10.7042  10.9750  10.9750  11.0819  11.1062
    11.1857  11.2525  11.2525  11.2822  11.4553  11.4554  11.4978  11.5092
    11.5310  11.5310  11.5567  11.7739  11.7739  11.9257  11.9263  11.9488
    11.9488  11.9798  11.9997  11.9997  12.0034  12.0288  12.0302  12.0497
    12.0497  12.0692  12.0924  12.0924  12.0954  12.1705  12.1995  12.2255
    12.2310  12.2423  12.2576  12.3107  12.3777  12.4914  12.4914  13.3622
    13.3646  13.3952  13.4111  13.4172  13.8675  13.8675  14.1308  14.1308
    14.3701  14.3701  14.6141  14.6141  14.7982  14.7982  14.8801  14.8801
    15.9131  15.9131  16.6374  16.6455  16.7960  16.8115  16.8303  16.9342
    16.9381  16.9648  16.9648  17.0195  17.2001  17.2001  17.5180  17.5180
    17.7620  17.7811  17.8687  17.9235  17.9816  17.9816  17.9970  18.0805
    18.0805  18.1860  18.1860  18.2013  18.2143  18.3639  18.5316  18.5316
    18.5343  18.7537

          k =-0.5000-0.5000-0.0484 ( 13992 PWs)   bands (ev):

   -66.7513 -66.7513 -66.6446 -62.1732 -62.1732 -62.0758 -62.0758 -62.0596
   -35.5199 -35.5199 -35.4810 -35.4810 -35.4810 -35.4810 -35.4210 -35.3723
   -35.3723 -31.0074 -31.0074 -31.0074 -31.0074 -30.9964 -30.9964 -30.9088
   -30.9088 -30.9088 -30.9088 -30.9056 -30.9056 -30.8931 -30.8931 -30.8882
     8.0338   8.0368   8.2503   8.3289   8.5650   8.5785   8.6105   8.6655
     8.9223   8.9645   8.9761   9.0444   9.2474   9.2474   9.2715   9.2715
     9.3226   9.3499   9.3525   9.3582   9.3608   9.3608   9.3692   9.3692
     9.5542   9.5542   9.5574   9.5574   9.8521   9.8542   9.8542   9.8674
     9.8674   9.8989   9.8989   9.9391   9.9720   9.9720  10.0121  10.1062
    10.1062  10.2450  10.2450  10.3634  10.3634  10.5487  10.5887  10.6095
    10.6843  10.6891  10.8190  10.8190  10.8558  10.8558  11.0819  11.1062
    11.1857  11.2823  11.3317  11.3317  11.4553  11.4554  11.4700  11.4700
    11.4978  11.5092  11.5567  11.7910  11.7910  11.9257  11.9263  11.9488
    11.9488  11.9798  11.9997  11.9997  12.0034  12.0288  12.0302  12.0497
    12.0497  12.0692  12.0924  12.0924  12.0954  12.1704  12.2012  12.2264
    12.2273  12.2414  12.2597  12.3107  12.3776  12.4897  12.4897  13.3622
    13.3646  13.3952  13.4111  13.4172  13.8773  13.8773  14.1034  14.1034
    14.4122  14.4122  14.5767  14.5767  14.8253  14.8253  14.8662  14.8662
    15.9131  15.9131  16.6393  16.6434  16.7957  16.8120  16.8293  16.9340
    16.9439  16.9788  16.9788  17.0140  17.1553  17.1553  17.6212  17.6212
    17.7764  17.8096  17.8424  17.8533  17.8533  17.8834  18.0106  18.0805
    18.0805  18.1860  18.1860  18.2013  18.2315  18.3623  18.5300  18.7538
    18.7542  18.7542

     the Fermi energy is    15.2298 ev

!    total energy              =  -14694.00932183 Ry
     Harris-Foulkes estimate   =  -14694.00931540 Ry
     estimated scf accuracy    <       0.00000078 Ry

     total all-electron energy =   -626921.605044 Ry

     The total energy is the sum of the following terms:

     one-electron contribution =    -714.67767868 Ry
     hartree contribution      =     656.68603941 Ry
     xc contribution           =    -737.85905449 Ry
     ewald contribution        =   -2196.78933708 Ry
     Hubbard energy            =       0.45881262 Ry
     one-center paw contrib.   =  -11701.82810362 Ry

     total magnetization       =     8.55 Bohr mag/cell
     absolute magnetization    =    37.04 Bohr mag/cell

     convergence has been achieved in  23 iterations

     Writing output data file mnau2.save/
 
     init_run     :     83.81s CPU     85.89s WALL (       1 calls)
     electrons    :   4405.63s CPU   4499.93s WALL (       1 calls)

     Called by init_run:
     wfcinit      :     79.87s CPU     81.43s WALL (       1 calls)
     potinit      :      1.85s CPU      2.21s WALL (       1 calls)
     hinit0       :      1.16s CPU      1.23s WALL (       1 calls)

     Called by electrons:
     c_bands      :   3919.96s CPU   3999.39s WALL (      23 calls)
     sum_band     :    444.15s CPU    456.97s WALL (      23 calls)
     v_of_rho     :      2.77s CPU      2.87s WALL (      24 calls)
     newd         :     12.19s CPU     12.41s WALL (      24 calls)
     PAW_pot      :     27.30s CPU     27.62s WALL (      24 calls)
     mix_rho      :      0.69s CPU      1.46s WALL (      23 calls)

     Called by c_bands:
     init_us_2    :      7.72s CPU      7.84s WALL (    4320 calls)
     cegterg      :   3831.96s CPU   3909.82s WALL (    2070 calls)

     Called by sum_band:
     sum_band:bec :      4.75s CPU      4.79s WALL (    2070 calls)
     addusdens    :     13.01s CPU     13.10s WALL (      23 calls)

     Called by *egterg:
     h_psi        :   1694.88s CPU   1734.70s WALL (    8029 calls)
     s_psi        :    212.66s CPU    212.87s WALL (    8119 calls)
     g_psi        :      1.93s CPU      1.96s WALL (    5869 calls)
     cdiaghg      :   1244.22s CPU   1277.87s WALL (    7939 calls)

     Called by h_psi:
     h_psi:pot    :   1539.69s CPU   1578.25s WALL (    8029 calls)
     h_psi:calbec :    300.81s CPU    312.87s WALL (    8029 calls)
     vloc_psi     :   1029.23s CPU   1055.53s WALL (    8029 calls)
     add_vuspsi   :    209.45s CPU    209.71s WALL (    8029 calls)
     vhpsi        :    152.40s CPU    153.63s WALL (    8029 calls)

     General routines
     calbec       :    560.10s CPU    579.24s WALL (   20288 calls)
     fft          :      2.25s CPU      2.37s WALL (     596 calls)
     ffts         :      0.12s CPU      0.13s WALL (      94 calls)
     fftw         :   1219.12s CPU   1250.24s WALL ( 2002674 calls)
     interpolate  :      0.24s CPU      0.25s WALL (      48 calls)
     davcio       :      0.01s CPU      3.68s WALL (      90 calls)
 
     Parallel routines
     fft_scatt_xy :     49.70s CPU     50.74s WALL ( 2003364 calls)
     fft_scatt_yz :    940.89s CPU    966.38s WALL ( 2003364 calls)

     Hubbard U routines
     new_ns       :     20.30s CPU     21.26s WALL (      23 calls)
     vhpsi        :    152.40s CPU    153.63s WALL (    8029 calls)
 
     PWSCF        :     1h15m CPU       15h 1m WALL

      19h
 
   This run was terminated on:   6:12:17   8Apr2019            

=------------------------------------------------------------------------------=
   JOB DONE.
=------------------------------------------------------------------------------=
