
     Program PWSCF v.6.3MaX starts on  8Apr2019 at  6:12:20 

     This program is part of the open-source Quantum ESPRESSO suite
     for quantum simulation of materials; please cite
         "P. Giannozzi et al., J. Phys.:Condens. Matter 21 395502 (2009);
         "P. Giannozzi et al., J. Phys.:Condens. Matter 29 465901 (2017);
          URL http://www.quantum-espresso.org", 
     in publications or presentations arising from this work. More details at
     http://www.quantum-espresso.org/quote

     Parallel version (MPI), running on    32 processors

     MPI processes distributed on     2 nodes
     R & G space division:  proc/nbgrp/npool/nimage =      32
     Waiting for input...
     Reading input from standard input

     Current dimensions of program PWSCF are:
     Max number of different atomic species (ntypx) = 10
     Max number of k-points (npk) =  40000
     Max angular momentum in pseudopotentials (lmaxx) =  3
               file Mn.pbe-spn-kjpaw_psl.0.3.1.UPF: wavefunction(s)  3P 3D renormalized
               file Mn.pbe-spn-kjpaw_psl.0.3.1.UPF: wavefunction(s)  3P 3D renormalized
               file Au.pbe-dn-kjpaw_psl.0.1.UPF: wavefunction(s)  6S 6P 5D renormalized

     Subspace diagonalization in iterative solution of the eigenvalue problem:
     one sub-group per band group will be used
     scalapack distributed-memory algorithm (size of sub-group:  4*  4 procs)

 
     Parallelization info
     --------------------
     sticks:   dense  smooth     PW     G-vecs:    dense   smooth      PW
     Min          41      18      5                11487     3460     563
     Max          42      19      6                11527     3505     606
     Sum        1313     593    177               368373   111379   18691
 


     bravais-lattice index     =            0
     lattice parameter (alat)  =       6.4153  a.u.
     unit-cell volume          =    2724.7774 (a.u.)^3
     number of atoms/cell      =           24
     number of atomic types    =            3
     number of electrons       =       296.00
     number of Kohn-Sham states=          178
     kinetic-energy cutoff     =      45.0000  Ry
     charge density cutoff     =     400.0000  Ry
     convergence threshold     =      1.0E-06
     mixing beta               =       0.1000
     number of iterations used =            8  plain     mixing
     Exchange-correlation      = SLA PW PBX PBC ( 1  4  3  4 0 0)

     celldm(1)=   6.415315  celldm(2)=   0.000000  celldm(3)=   0.000000
     celldm(4)=   0.000000  celldm(5)=   0.000000  celldm(6)=   0.000000

     crystal axes: (cart. coord. in units of alat)
               a(1) = (   1.000000   0.000000   0.000000 )  
               a(2) = (   0.000000   1.000000   0.000000 )  
               a(3) = (   0.000000   0.000000  10.319937 )  

     reciprocal axes: (cart. coord. in units 2 pi/alat)
               b(1) = (  1.000000  0.000000  0.000000 )  
               b(2) = (  0.000000  1.000000  0.000000 )  
               b(3) = (  0.000000  0.000000  0.096900 )  


     PseudoPot. # 1 for Mn read from file:
     ./pseudo/Mn.pbe-spn-kjpaw_psl.0.3.1.UPF
     MD5 check sum: 7b43a3fb0e93e198b8dd8488d8cf503e
     Pseudo is Projector augmented-wave + core cor, Zval = 15.0
     Generated using "atomic" code by A. Dal Corso v.5.0.99 svn rev. 10869
     Shape of augmentation charge: PSQ
     Using radial grid of 1187 points,  6 beta functions with: 
                l(1) =   0
                l(2) =   0
                l(3) =   1
                l(4) =   1
                l(5) =   2
                l(6) =   2
     Q(r) pseudized with 0 coefficients 


     PseudoPot. # 2 for Mn read from file:
     ./pseudo/Mn.pbe-spn-kjpaw_psl.0.3.1.UPF
     MD5 check sum: 7b43a3fb0e93e198b8dd8488d8cf503e
     Pseudo is Projector augmented-wave + core cor, Zval = 15.0
     Generated using "atomic" code by A. Dal Corso v.5.0.99 svn rev. 10869
     Shape of augmentation charge: PSQ
     Using radial grid of 1187 points,  6 beta functions with: 
                l(1) =   0
                l(2) =   0
                l(3) =   1
                l(4) =   1
                l(5) =   2
                l(6) =   2
     Q(r) pseudized with 0 coefficients 


     PseudoPot. # 3 for Au read from file:
     ./pseudo/Au.pbe-dn-kjpaw_psl.0.1.UPF
     MD5 check sum: be11e2e8e535ebe2b3ccfb4f88f554cb
     Pseudo is Projector augmented-wave + core cor, Zval = 11.0
     Generated using "atomic" code by A. Dal Corso v.5.0.2 svn rev. 9415
     Shape of augmentation charge: PSQ
     Using radial grid of 1279 points,  6 beta functions with: 
                l(1) =   0
                l(2) =   0
                l(3) =   1
                l(4) =   1
                l(5) =   2
                l(6) =   2
     Q(r) pseudized with 0 coefficients 


     atomic species   valence    mass     pseudopotential
        Mn1           15.00    54.93800     Mn( 1.00)
        Mn2           15.00    54.93800     Mn( 1.00)
        Au            11.00   196.96600     Au( 1.00)

     Starting magnetic structure 
     atomic species   magnetization
        Mn1          0.800
        Mn2         -0.800
        Au           0.000


     Full LDA+U calculation (l_max = 2) with parameters (eV):
     U(  1) =   3.1200   J(  1) =   0.7000   B(  1) =   0.0803
     U(  2) =   3.1200   J(  2) =   0.7000   B(  2) =   0.0803



      8 Sym. Ops. (no inversion) found



   Cartesian axes

     site n.     atom                  positions (alat units)
         1           Mn1 tau(   1) = (   0.0000000   0.0000000   0.0000000  )
         2           Mn1 tau(   2) = (   0.5000000   0.5000000   1.2899921  )
         3           Mn1 tau(   3) = (   0.0000000   0.0000000   2.5799843  )
         4           Mn1 tau(   4) = (   0.5000000   0.5000000   3.8699764  )
         5           Mn2 tau(   5) = (   0.0000000   0.0000000   5.1599686  )
         6           Mn1 tau(   6) = (   0.5000000   0.5000000   6.4499607  )
         7           Mn1 tau(   7) = (   0.0000000   0.0000000   7.7399528  )
         8           Mn2 tau(   8) = (   0.5000000   0.5000000   9.0299450  )
         9           Au  tau(   9) = (   0.5000000   0.5000000   0.4127975  )
        10           Au  tau(  10) = (   0.0000000   0.0000000   0.8771947  )
        11           Au  tau(  11) = (   0.0000000   0.0000000   1.7027896  )
        12           Au  tau(  12) = (   0.5000000   0.5000000   2.1671868  )
        13           Au  tau(  13) = (   0.5000000   0.5000000   2.9927818  )
        14           Au  tau(  14) = (   0.0000000   0.0000000   3.4571789  )
        15           Au  tau(  15) = (   0.0000000   0.0000000   4.2827739  )
        16           Au  tau(  16) = (   0.5000000   0.5000000   4.7471711  )
        17           Au  tau(  17) = (   0.5000000   0.5000000   5.5727660  )
        18           Au  tau(  18) = (   0.0000000   0.0000000   6.0371632  )
        19           Au  tau(  19) = (   0.0000000   0.0000000   6.8627582  )
        20           Au  tau(  20) = (   0.5000000   0.5000000   7.3271553  )
        21           Au  tau(  21) = (   0.5000000   0.5000000   8.1527503  )
        22           Au  tau(  22) = (   0.0000000   0.0000000   8.6171475  )
        23           Au  tau(  23) = (   0.0000000   0.0000000   9.4427424  )
        24           Au  tau(  24) = (   0.5000000   0.5000000   9.9071396  )

     number of k points=    45 (tetrahedron method)
                       cart. coord. in units 2pi/alat
        k(    1) = (   0.0000000   0.0000000   0.0000000), wk =   0.0039062
        k(    2) = (   0.0000000   0.0000000   0.0242250), wk =   0.0078125
        k(    3) = (   0.0000000   0.0000000  -0.0484499), wk =   0.0039062
        k(    4) = (   0.0000000   0.1250000   0.0000000), wk =   0.0156250
        k(    5) = (   0.0000000   0.1250000   0.0242250), wk =   0.0312500
        k(    6) = (   0.0000000   0.1250000  -0.0484499), wk =   0.0156250
        k(    7) = (   0.0000000   0.2500000   0.0000000), wk =   0.0156250
        k(    8) = (   0.0000000   0.2500000   0.0242250), wk =   0.0312500
        k(    9) = (   0.0000000   0.2500000  -0.0484499), wk =   0.0156250
        k(   10) = (   0.0000000   0.3750000   0.0000000), wk =   0.0156250
        k(   11) = (   0.0000000   0.3750000   0.0242250), wk =   0.0312500
        k(   12) = (   0.0000000   0.3750000  -0.0484499), wk =   0.0156250
        k(   13) = (   0.0000000  -0.5000000   0.0000000), wk =   0.0078125
        k(   14) = (   0.0000000  -0.5000000   0.0242250), wk =   0.0156250
        k(   15) = (   0.0000000  -0.5000000  -0.0484499), wk =   0.0078125
        k(   16) = (   0.1250000   0.1250000   0.0000000), wk =   0.0156250
        k(   17) = (   0.1250000   0.1250000   0.0242250), wk =   0.0312500
        k(   18) = (   0.1250000   0.1250000  -0.0484499), wk =   0.0156250
        k(   19) = (   0.1250000   0.2500000   0.0000000), wk =   0.0312500
        k(   20) = (   0.1250000   0.2500000   0.0242250), wk =   0.0625000
        k(   21) = (   0.1250000   0.2500000  -0.0484499), wk =   0.0312500
        k(   22) = (   0.1250000   0.3750000   0.0000000), wk =   0.0312500
        k(   23) = (   0.1250000   0.3750000   0.0242250), wk =   0.0625000
        k(   24) = (   0.1250000   0.3750000  -0.0484499), wk =   0.0312500
        k(   25) = (   0.1250000  -0.5000000   0.0000000), wk =   0.0156250
        k(   26) = (   0.1250000  -0.5000000   0.0242250), wk =   0.0312500
        k(   27) = (   0.1250000  -0.5000000  -0.0484499), wk =   0.0156250
        k(   28) = (   0.2500000   0.2500000   0.0000000), wk =   0.0156250
        k(   29) = (   0.2500000   0.2500000   0.0242250), wk =   0.0312500
        k(   30) = (   0.2500000   0.2500000  -0.0484499), wk =   0.0156250
        k(   31) = (   0.2500000   0.3750000   0.0000000), wk =   0.0312500
        k(   32) = (   0.2500000   0.3750000   0.0242250), wk =   0.0625000
        k(   33) = (   0.2500000   0.3750000  -0.0484499), wk =   0.0312500
        k(   34) = (   0.2500000  -0.5000000   0.0000000), wk =   0.0156250
        k(   35) = (   0.2500000  -0.5000000   0.0242250), wk =   0.0312500
        k(   36) = (   0.2500000  -0.5000000  -0.0484499), wk =   0.0156250
        k(   37) = (   0.3750000   0.3750000   0.0000000), wk =   0.0156250
        k(   38) = (   0.3750000   0.3750000   0.0242250), wk =   0.0312500
        k(   39) = (   0.3750000   0.3750000  -0.0484499), wk =   0.0156250
        k(   40) = (   0.3750000  -0.5000000   0.0000000), wk =   0.0156250
        k(   41) = (   0.3750000  -0.5000000   0.0242250), wk =   0.0312500
        k(   42) = (   0.3750000  -0.5000000  -0.0484499), wk =   0.0156250
        k(   43) = (  -0.5000000  -0.5000000   0.0000000), wk =   0.0039062
        k(   44) = (  -0.5000000  -0.5000000   0.0242250), wk =   0.0078125
        k(   45) = (  -0.5000000  -0.5000000  -0.0484499), wk =   0.0039062

     Dense  grid:   368373 G-vectors     FFT dimensions: (  45,  45, 432)

     Smooth grid:   111379 G-vectors     FFT dimensions: (  27,  27, 288)

     Estimated max dynamical RAM per process >     186.81 MB

     Estimated total dynamical RAM >       5.84 GB
     Generating pointlists ...
     new r_m :   0.3377 (alat units)  2.1668 (a.u.) for type    1
     new r_m :   0.3377 (alat units)  2.1668 (a.u.) for type    2
     new r_m :   0.3377 (alat units)  2.1668 (a.u.) for type    3

     Check: negative/imaginary core charge=   -0.000006    0.000000

     Initial potential from superposition of free atoms

     starting charge  295.99426, renormalised to  296.00000
     Number of +U iterations with fixed ns =  0
     Starting occupations:
 --- enter write_ns ---
 LDA+U parameters:
U(  1) =   3.1200   J(  1) =   0.7000   B(  1) =   0.0803
U(  2) =   3.1200   J(  2) =   0.7000   B(  2) =   0.0803
atom    1   Tr[ns(na)] (up, down, total) =   5.00000  0.00000  5.00000
   spin  1
    eigenvalues: 
  1.000  1.000  1.000  1.000  1.000
    eigenvectors:
  1.000  0.000  0.000  0.000  0.000
  0.000  1.000  0.000  0.000  0.000
  0.000  0.000  1.000  0.000  0.000
  0.000  0.000  0.000  1.000  0.000
  0.000  0.000  0.000  0.000  1.000
    occupations:
  1.000  0.000  0.000  0.000  0.000
  0.000  1.000  0.000  0.000  0.000
  0.000  0.000  1.000  0.000  0.000
  0.000  0.000  0.000  1.000  0.000
  0.000  0.000  0.000  0.000  1.000
   spin  2
    eigenvalues: 
  0.000  0.000  0.000  0.000  0.000
    eigenvectors:
  1.000  0.000  0.000  0.000  0.000
  0.000  1.000  0.000  0.000  0.000
  0.000  0.000  1.000  0.000  0.000
  0.000  0.000  0.000  1.000  0.000
  0.000  0.000  0.000  0.000  1.000
    occupations:
  0.000  0.000  0.000  0.000  0.000
  0.000  0.000  0.000  0.000  0.000
  0.000  0.000  0.000  0.000  0.000
  0.000  0.000  0.000  0.000  0.000
  0.000  0.000  0.000  0.000  0.000
atomic mag. moment =     5.000000
atom    2   Tr[ns(na)] (up, down, total) =   5.00000  0.00000  5.00000
   spin  1
    eigenvalues: 
  1.000  1.000  1.000  1.000  1.000
    eigenvectors:
  1.000  0.000  0.000  0.000  0.000
  0.000  1.000  0.000  0.000  0.000
  0.000  0.000  1.000  0.000  0.000
  0.000  0.000  0.000  1.000  0.000
  0.000  0.000  0.000  0.000  1.000
    occupations:
  1.000  0.000  0.000  0.000  0.000
  0.000  1.000  0.000  0.000  0.000
  0.000  0.000  1.000  0.000  0.000
  0.000  0.000  0.000  1.000  0.000
  0.000  0.000  0.000  0.000  1.000
   spin  2
    eigenvalues: 
  0.000  0.000  0.000  0.000  0.000
    eigenvectors:
  1.000  0.000  0.000  0.000  0.000
  0.000  1.000  0.000  0.000  0.000
  0.000  0.000  1.000  0.000  0.000
  0.000  0.000  0.000  1.000  0.000
  0.000  0.000  0.000  0.000  1.000
    occupations:
  0.000  0.000  0.000  0.000  0.000
  0.000  0.000  0.000  0.000  0.000
  0.000  0.000  0.000  0.000  0.000
  0.000  0.000  0.000  0.000  0.000
  0.000  0.000  0.000  0.000  0.000
atomic mag. moment =     5.000000
atom    3   Tr[ns(na)] (up, down, total) =   5.00000  0.00000  5.00000
   spin  1
    eigenvalues: 
  1.000  1.000  1.000  1.000  1.000
    eigenvectors:
  1.000  0.000  0.000  0.000  0.000
  0.000  1.000  0.000  0.000  0.000
  0.000  0.000  1.000  0.000  0.000
  0.000  0.000  0.000  1.000  0.000
  0.000  0.000  0.000  0.000  1.000
    occupations:
  1.000  0.000  0.000  0.000  0.000
  0.000  1.000  0.000  0.000  0.000
  0.000  0.000  1.000  0.000  0.000
  0.000  0.000  0.000  1.000  0.000
  0.000  0.000  0.000  0.000  1.000
   spin  2
    eigenvalues: 
  0.000  0.000  0.000  0.000  0.000
    eigenvectors:
  1.000  0.000  0.000  0.000  0.000
  0.000  1.000  0.000  0.000  0.000
  0.000  0.000  1.000  0.000  0.000
  0.000  0.000  0.000  1.000  0.000
  0.000  0.000  0.000  0.000  1.000
    occupations:
  0.000  0.000  0.000  0.000  0.000
  0.000  0.000  0.000  0.000  0.000
  0.000  0.000  0.000  0.000  0.000
  0.000  0.000  0.000  0.000  0.000
  0.000  0.000  0.000  0.000  0.000
atomic mag. moment =     5.000000
atom    4   Tr[ns(na)] (up, down, total) =   5.00000  0.00000  5.00000
   spin  1
    eigenvalues: 
  1.000  1.000  1.000  1.000  1.000
    eigenvectors:
  1.000  0.000  0.000  0.000  0.000
  0.000  1.000  0.000  0.000  0.000
  0.000  0.000  1.000  0.000  0.000
  0.000  0.000  0.000  1.000  0.000
  0.000  0.000  0.000  0.000  1.000
    occupations:
  1.000  0.000  0.000  0.000  0.000
  0.000  1.000  0.000  0.000  0.000
  0.000  0.000  1.000  0.000  0.000
  0.000  0.000  0.000  1.000  0.000
  0.000  0.000  0.000  0.000  1.000
   spin  2
    eigenvalues: 
  0.000  0.000  0.000  0.000  0.000
    eigenvectors:
  1.000  0.000  0.000  0.000  0.000
  0.000  1.000  0.000  0.000  0.000
  0.000  0.000  1.000  0.000  0.000
  0.000  0.000  0.000  1.000  0.000
  0.000  0.000  0.000  0.000  1.000
    occupations:
  0.000  0.000  0.000  0.000  0.000
  0.000  0.000  0.000  0.000  0.000
  0.000  0.000  0.000  0.000  0.000
  0.000  0.000  0.000  0.000  0.000
  0.000  0.000  0.000  0.000  0.000
atomic mag. moment =     5.000000
atom    5   Tr[ns(na)] (up, down, total) =   0.00000  5.00000  5.00000
   spin  1
    eigenvalues: 
  0.000  0.000  0.000  0.000  0.000
    eigenvectors:
  1.000  0.000  0.000  0.000  0.000
  0.000  1.000  0.000  0.000  0.000
  0.000  0.000  1.000  0.000  0.000
  0.000  0.000  0.000  1.000  0.000
  0.000  0.000  0.000  0.000  1.000
    occupations:
  0.000  0.000  0.000  0.000  0.000
  0.000  0.000  0.000  0.000  0.000
  0.000  0.000  0.000  0.000  0.000
  0.000  0.000  0.000  0.000  0.000
  0.000  0.000  0.000  0.000  0.000
   spin  2
    eigenvalues: 
  1.000  1.000  1.000  1.000  1.000
    eigenvectors:
  1.000  0.000  0.000  0.000  0.000
  0.000  1.000  0.000  0.000  0.000
  0.000  0.000  1.000  0.000  0.000
  0.000  0.000  0.000  1.000  0.000
  0.000  0.000  0.000  0.000  1.000
    occupations:
  1.000  0.000  0.000  0.000  0.000
  0.000  1.000  0.000  0.000  0.000
  0.000  0.000  1.000  0.000  0.000
  0.000  0.000  0.000  1.000  0.000
  0.000  0.000  0.000  0.000  1.000
atomic mag. moment =    -5.000000
atom    6   Tr[ns(na)] (up, down, total) =   5.00000  0.00000  5.00000
   spin  1
    eigenvalues: 
  1.000  1.000  1.000  1.000  1.000
    eigenvectors:
  1.000  0.000  0.000  0.000  0.000
  0.000  1.000  0.000  0.000  0.000
  0.000  0.000  1.000  0.000  0.000
  0.000  0.000  0.000  1.000  0.000
  0.000  0.000  0.000  0.000  1.000
    occupations:
  1.000  0.000  0.000  0.000  0.000
  0.000  1.000  0.000  0.000  0.000
  0.000  0.000  1.000  0.000  0.000
  0.000  0.000  0.000  1.000  0.000
  0.000  0.000  0.000  0.000  1.000
   spin  2
    eigenvalues: 
  0.000  0.000  0.000  0.000  0.000
    eigenvectors:
  1.000  0.000  0.000  0.000  0.000
  0.000  1.000  0.000  0.000  0.000
  0.000  0.000  1.000  0.000  0.000
  0.000  0.000  0.000  1.000  0.000
  0.000  0.000  0.000  0.000  1.000
    occupations:
  0.000  0.000  0.000  0.000  0.000
  0.000  0.000  0.000  0.000  0.000
  0.000  0.000  0.000  0.000  0.000
  0.000  0.000  0.000  0.000  0.000
  0.000  0.000  0.000  0.000  0.000
atomic mag. moment =     5.000000
atom    7   Tr[ns(na)] (up, down, total) =   5.00000  0.00000  5.00000
   spin  1
    eigenvalues: 
  1.000  1.000  1.000  1.000  1.000
    eigenvectors:
  1.000  0.000  0.000  0.000  0.000
  0.000  1.000  0.000  0.000  0.000
  0.000  0.000  1.000  0.000  0.000
  0.000  0.000  0.000  1.000  0.000
  0.000  0.000  0.000  0.000  1.000
    occupations:
  1.000  0.000  0.000  0.000  0.000
  0.000  1.000  0.000  0.000  0.000
  0.000  0.000  1.000  0.000  0.000
  0.000  0.000  0.000  1.000  0.000
  0.000  0.000  0.000  0.000  1.000
   spin  2
    eigenvalues: 
  0.000  0.000  0.000  0.000  0.000
    eigenvectors:
  1.000  0.000  0.000  0.000  0.000
  0.000  1.000  0.000  0.000  0.000
  0.000  0.000  1.000  0.000  0.000
  0.000  0.000  0.000  1.000  0.000
  0.000  0.000  0.000  0.000  1.000
    occupations:
  0.000  0.000  0.000  0.000  0.000
  0.000  0.000  0.000  0.000  0.000
  0.000  0.000  0.000  0.000  0.000
  0.000  0.000  0.000  0.000  0.000
  0.000  0.000  0.000  0.000  0.000
atomic mag. moment =     5.000000
atom    8   Tr[ns(na)] (up, down, total) =   0.00000  5.00000  5.00000
   spin  1
    eigenvalues: 
  0.000  0.000  0.000  0.000  0.000
    eigenvectors:
  1.000  0.000  0.000  0.000  0.000
  0.000  1.000  0.000  0.000  0.000
  0.000  0.000  1.000  0.000  0.000
  0.000  0.000  0.000  1.000  0.000
  0.000  0.000  0.000  0.000  1.000
    occupations:
  0.000  0.000  0.000  0.000  0.000
  0.000  0.000  0.000  0.000  0.000
  0.000  0.000  0.000  0.000  0.000
  0.000  0.000  0.000  0.000  0.000
  0.000  0.000  0.000  0.000  0.000
   spin  2
    eigenvalues: 
  1.000  1.000  1.000  1.000  1.000
    eigenvectors:
  1.000  0.000  0.000  0.000  0.000
  0.000  1.000  0.000  0.000  0.000
  0.000  0.000  1.000  0.000  0.000
  0.000  0.000  0.000  1.000  0.000
  0.000  0.000  0.000  0.000  1.000
    occupations:
  1.000  0.000  0.000  0.000  0.000
  0.000  1.000  0.000  0.000  0.000
  0.000  0.000  1.000  0.000  0.000
  0.000  0.000  0.000  1.000  0.000
  0.000  0.000  0.000  0.000  1.000
atomic mag. moment =    -5.000000
N of occupied +U levels =   40.000000
 --- exit write_ns ---
 Atomic wfc used for LDA+U Projector are NOT orthogonalized
     Starting wfcs are  224 randomized atomic wfcs
     Checking if some PAW data can be deallocated... 

     total cpu time spent up to now is       95.0 secs

     Self-consistent Calculation

     iteration #  1     ecut=    45.00 Ry     beta= 0.10
     Davidson diagonalization with overlap
     ethr =  1.00E-02,  avg # of iterations =  3.6
 --- enter write_ns ---
 LDA+U parameters:
U(  1) =   3.1200   J(  1) =   0.7000   B(  1) =   0.0803
U(  2) =   3.1200   J(  2) =   0.7000   B(  2) =   0.0803
atom    1   Tr[ns(na)] (up, down, total) =   5.01736  0.40790  5.42526
   spin  1
    eigenvalues: 
  1.003  1.003  1.003  1.004  1.004
    eigenvectors:
  0.000  0.000  0.000  1.000  0.000
  0.000  0.259  0.741  0.000  0.000
  0.000  0.741  0.259  0.000  0.000
  0.000  0.000  0.000  0.000  1.000
  1.000  0.000  0.000  0.000  0.000
    occupations:
  1.004 -0.000 -0.000  0.000  0.000
 -0.000  1.003 -0.000  0.000  0.000
 -0.000 -0.000  1.003  0.000  0.000
  0.000  0.000  0.000  1.004 -0.000
  0.000  0.000  0.000 -0.000  1.003
   spin  2
    eigenvalues: 
  0.053  0.072  0.081  0.081  0.122
    eigenvectors:
  0.000  1.000  0.000  0.000  0.000
  0.000  0.000  0.361  0.639  0.000
  0.000  0.000  0.639  0.361  0.000
  1.000  0.000  0.000  0.000  0.000
  0.000  0.000  0.000  0.000  1.000
    occupations:
  0.072 -0.000 -0.000  0.000  0.000
 -0.000  0.081 -0.000  0.000  0.000
 -0.000 -0.000  0.081  0.000  0.000
  0.000  0.000  0.000  0.053 -0.000
  0.000  0.000  0.000 -0.000  0.122
atomic mag. moment =     4.609458
atom    2   Tr[ns(na)] (up, down, total) =   5.01759  0.40218  5.41977
   spin  1
    eigenvalues: 
  1.003  1.003  1.003  1.004  1.004
    eigenvectors:
  0.000  0.000  0.000  1.000  0.000
  0.000  0.406  0.594  0.000  0.000
  0.000  0.594  0.406  0.000  0.000
  0.000  0.000  0.000  0.000  1.000
  1.000  0.000  0.000  0.000  0.000
    occupations:
  1.004 -0.000 -0.000  0.000  0.000
 -0.000  1.003 -0.000  0.000  0.000
 -0.000 -0.000  1.003  0.000  0.000
  0.000  0.000  0.000  1.004 -0.000
  0.000  0.000  0.000 -0.000  1.003
   spin  2
    eigenvalues: 
  0.052  0.073  0.081  0.081  0.114
    eigenvectors:
  0.000  1.000  0.000  0.000  0.000
  0.000  0.000  0.328  0.672  0.000
  0.000  0.000  0.672  0.328  0.000
  1.000  0.000  0.000  0.000  0.000
  0.000  0.000  0.000  0.000  1.000
    occupations:
  0.073 -0.000 -0.000  0.000  0.000
 -0.000  0.081 -0.000  0.000  0.000
 -0.000 -0.000  0.081  0.000  0.000
  0.000  0.000  0.000  0.052 -0.000
  0.000  0.000  0.000 -0.000  0.114
atomic mag. moment =     4.615413
atom    3   Tr[ns(na)] (up, down, total) =   5.01756  0.40237  5.41993
   spin  1
    eigenvalues: 
  1.003  1.003  1.003  1.004  1.004
    eigenvectors:
  0.000  0.000  0.000  1.000  0.000
  0.000  0.303  0.697  0.000  0.000
  0.000  0.697  0.303  0.000  0.000
  0.000  0.000  0.000  0.000  1.000
  1.000  0.000  0.000  0.000  0.000
    occupations:
  1.004 -0.000 -0.000  0.000  0.000
 -0.000  1.003 -0.000  0.000  0.000
 -0.000 -0.000  1.003  0.000  0.000
  0.000  0.000  0.000  1.004 -0.000
  0.000  0.000  0.000 -0.000  1.003
   spin  2
    eigenvalues: 
  0.053  0.073  0.081  0.081  0.114
    eigenvectors:
  0.000  1.000  0.000  0.000  0.000
  0.000  0.000  0.362  0.638  0.000
  0.000  0.000  0.638  0.362  0.000
  1.000  0.000  0.000  0.000  0.000
  0.000  0.000  0.000  0.000  1.000
    occupations:
  0.073 -0.000 -0.000  0.000  0.000
 -0.000  0.081 -0.000  0.000  0.000
 -0.000 -0.000  0.081  0.000  0.000
  0.000  0.000  0.000  0.053 -0.000
  0.000  0.000  0.000 -0.000  0.114
atomic mag. moment =     4.615188
atom    4   Tr[ns(na)] (up, down, total) =   5.01728  0.40857  5.42586
   spin  1
    eigenvalues: 
  1.003  1.003  1.003  1.004  1.004
    eigenvectors:
  0.000  0.000  0.000  1.000  0.000
  0.000  0.362  0.638  0.000  0.000
  0.000  0.638  0.362  0.000  0.000
  0.000  0.000  0.000  0.000  1.000
  1.000  0.000  0.000  0.000  0.000
    occupations:
  1.004 -0.000 -0.000  0.000  0.000
 -0.000  1.003 -0.000  0.000  0.000
 -0.000 -0.000  1.003  0.000  0.000
  0.000  0.000  0.000  1.004 -0.000
  0.000  0.000  0.000 -0.000  1.003
   spin  2
    eigenvalues: 
  0.053  0.072  0.081  0.081  0.122
    eigenvectors:
  0.000  1.000  0.000  0.000  0.000
  0.000  0.000  0.303  0.697  0.000
  0.000  0.000  0.697  0.303  0.000
  1.000  0.000  0.000  0.000  0.000
  0.000  0.000  0.000  0.000  1.000
    occupations:
  0.072 -0.000 -0.000  0.000  0.000
 -0.000  0.081 -0.000  0.000  0.000
 -0.000 -0.000  0.081  0.000  0.000
  0.000  0.000  0.000  0.053 -0.000
  0.000  0.000  0.000 -0.000  0.122
atomic mag. moment =     4.608712
atom    5   Tr[ns(na)] (up, down, total) =   0.41495  5.01744  5.43239
   spin  1
    eigenvalues: 
  0.053  0.075  0.081  0.081  0.125
    eigenvectors:
  0.000  1.000  0.000  0.000  0.000
  0.000  0.000  0.387  0.613  0.000
  0.000  0.000  0.613  0.387  0.000
  1.000  0.000  0.000  0.000  0.000
  0.000  0.000  0.000  0.000  1.000
    occupations:
  0.075 -0.000 -0.000  0.000  0.000
 -0.000  0.081 -0.000  0.000  0.000
 -0.000 -0.000  0.081  0.000  0.000
  0.000  0.000  0.000  0.053 -0.000
  0.000  0.000  0.000 -0.000  0.125
   spin  2
    eigenvalues: 
  1.003  1.003  1.003  1.004  1.004
    eigenvectors:
  0.000  0.000  0.000  1.000  0.000
  0.000  0.410  0.590  0.000  0.000
  0.000  0.590  0.410  0.000  0.000
  0.000  0.000  0.000  0.000  1.000
  1.000  0.000  0.000  0.000  0.000
    occupations:
  1.004 -0.000 -0.000  0.000  0.000
 -0.000  1.003 -0.000  0.000  0.000
 -0.000 -0.000  1.003  0.000  0.000
  0.000  0.000  0.000  1.004 -0.000
  0.000  0.000  0.000 -0.000  1.003
atomic mag. moment =    -4.602493
atom    6   Tr[ns(na)] (up, down, total) =   5.01750  0.41104  5.42854
   spin  1
    eigenvalues: 
  1.003  1.003  1.003  1.004  1.004
    eigenvectors:
  0.000  0.000  0.000  1.000  0.000
  0.000  0.291  0.709  0.000  0.000
  0.000  0.709  0.291  0.000  0.000
  0.000  0.000  0.000  0.000  1.000
  1.000  0.000  0.000  0.000  0.000
    occupations:
  1.004 -0.000 -0.000  0.000  0.000
 -0.000  1.003 -0.000  0.000  0.000
 -0.000 -0.000  1.003  0.000  0.000
  0.000  0.000  0.000  1.004 -0.000
  0.000  0.000  0.000 -0.000  1.003
   spin  2
    eigenvalues: 
  0.053  0.073  0.082  0.082  0.121
    eigenvectors:
  0.000  1.000  0.000  0.000  0.000
  0.000  0.000  0.281  0.719  0.000
  0.000  0.000  0.719  0.281  0.000
  1.000  0.000  0.000  0.000  0.000
  0.000  0.000  0.000  0.000  1.000
    occupations:
  0.073 -0.000 -0.000  0.000  0.000
 -0.000  0.082 -0.000  0.000  0.000
 -0.000 -0.000  0.082  0.000  0.000
  0.000  0.000  0.000  0.053 -0.000
  0.000  0.000  0.000 -0.000  0.121
atomic mag. moment =     4.606466
atom    7   Tr[ns(na)] (up, down, total) =   5.01740  0.41078  5.42818
   spin  1
    eigenvalues: 
  1.003  1.003  1.003  1.004  1.004
    eigenvectors:
  0.000  0.000  0.000  1.000  0.000
  0.000  0.366  0.634  0.000  0.000
  0.000  0.634  0.366  0.000  0.000
  0.000  0.000  0.000  0.000  1.000
  1.000  0.000  0.000  0.000  0.000
    occupations:
  1.004 -0.000 -0.000  0.000  0.000
 -0.000  1.003 -0.000  0.000  0.000
 -0.000 -0.000  1.003  0.000  0.000
  0.000  0.000  0.000  1.004 -0.000
  0.000  0.000  0.000 -0.000  1.003
   spin  2
    eigenvalues: 
  0.053  0.073  0.082  0.082  0.121
    eigenvectors:
  0.000  1.000  0.000  0.000  0.000
  0.000  0.000  0.393  0.607  0.000
  0.000  0.000  0.607  0.393  0.000
  1.000  0.000  0.000  0.000  0.000
  0.000  0.000  0.000  0.000  1.000
    occupations:
  0.073 -0.000 -0.000  0.000  0.000
 -0.000  0.082 -0.000  0.000  0.000
 -0.000 -0.000  0.082  0.000  0.000
  0.000  0.000  0.000  0.053 -0.000
  0.000  0.000  0.000 -0.000  0.121
atomic mag. moment =     4.606627
atom    8   Tr[ns(na)] (up, down, total) =   0.41437  5.01738  5.43176
   spin  1
    eigenvalues: 
  0.053  0.074  0.081  0.081  0.124
    eigenvectors:
  0.000  1.000  0.000  0.000  0.000
  0.000  0.000  0.300  0.700  0.000
  0.000  0.000  0.700  0.300  0.000
  1.000  0.000  0.000  0.000  0.000
  0.000  0.000  0.000  0.000  1.000
    occupations:
  0.074 -0.000 -0.000  0.000  0.000
 -0.000  0.081 -0.000  0.000  0.000
 -0.000 -0.000  0.081  0.000  0.000
  0.000  0.000  0.000  0.053 -0.000
  0.000  0.000  0.000 -0.000  0.124
   spin  2
    eigenvalues: 
  1.003  1.003  1.003  1.004  1.004
    eigenvectors:
  0.000  0.000  0.000  1.000  0.000
  0.000  0.315  0.685  0.000  0.000
  0.000  0.685  0.315  0.000  0.000
  0.000  0.000  0.000  0.000  1.000
  1.000  0.000  0.000  0.000  0.000
    occupations:
  1.004 -0.000 -0.000  0.000  0.000
 -0.000  1.003 -0.000  0.000  0.000
 -0.000 -0.000  1.003  0.000  0.000
  0.000  0.000  0.000  1.004 -0.000
  0.000  0.000  0.000 -0.000  1.003
atomic mag. moment =    -4.603010
N of occupied +U levels =   43.411687
 --- exit write_ns ---

     total cpu time spent up to now is      318.9 secs

     total energy              =  -14687.27629046 Ry
     Harris-Foulkes estimate   =  -14685.81583597 Ry
     estimated scf accuracy    <      11.55695122 Ry

     total magnetization       =    20.15 Bohr mag/cell
     absolute magnetization    =    41.55 Bohr mag/cell

     iteration #  2     ecut=    45.00 Ry     beta= 0.10
     Davidson diagonalization with overlap
     ethr =  3.90E-03,  avg # of iterations =  1.0

     total cpu time spent up to now is      466.1 secs

     total energy              =  -14689.80232851 Ry
     Harris-Foulkes estimate   =  -14687.35160060 Ry
     estimated scf accuracy    <       9.58738764 Ry

     total magnetization       =    19.93 Bohr mag/cell
     absolute magnetization    =    41.22 Bohr mag/cell

     iteration #  3     ecut=    45.00 Ry     beta= 0.10
     Davidson diagonalization with overlap
     ethr =  3.24E-03,  avg # of iterations =  4.6

     total cpu time spent up to now is      695.2 secs

     total energy              =  -14690.96538367 Ry
     Harris-Foulkes estimate   =  -14691.58834283 Ry
     estimated scf accuracy    <     212.89107004 Ry

     total magnetization       =    18.67 Bohr mag/cell
     absolute magnetization    =    40.00 Bohr mag/cell

     iteration #  4     ecut=    45.00 Ry     beta= 0.10
     Davidson diagonalization with overlap
     ethr =  3.24E-03,  avg # of iterations =  4.2

     total cpu time spent up to now is      919.6 secs

     total energy              =  -14695.01415995 Ry
     Harris-Foulkes estimate   =  -14694.22208635 Ry
     estimated scf accuracy    <       4.15788090 Ry

     total magnetization       =    18.41 Bohr mag/cell
     absolute magnetization    =    38.44 Bohr mag/cell

     iteration #  5     ecut=    45.00 Ry     beta= 0.10
     Davidson diagonalization with overlap
     ethr =  1.40E-03,  avg # of iterations =  4.2

     total cpu time spent up to now is     1136.4 secs

     total energy              =  -14695.15026986 Ry
     Harris-Foulkes estimate   =  -14695.16278803 Ry
     estimated scf accuracy    <      11.93039047 Ry

     total magnetization       =    18.00 Bohr mag/cell
     absolute magnetization    =    37.61 Bohr mag/cell

     iteration #  6     ecut=    45.00 Ry     beta= 0.10
     Davidson diagonalization with overlap
     ethr =  1.40E-03,  avg # of iterations =  1.0

     total cpu time spent up to now is     1285.0 secs

     total energy              =  -14694.26543632 Ry
     Harris-Foulkes estimate   =  -14695.15946788 Ry
     estimated scf accuracy    <      12.38006695 Ry

     total magnetization       =    18.02 Bohr mag/cell
     absolute magnetization    =    37.59 Bohr mag/cell

     iteration #  7     ecut=    45.00 Ry     beta= 0.10
     Davidson diagonalization with overlap
     ethr =  1.40E-03,  avg # of iterations =  1.0

     total cpu time spent up to now is     1431.4 secs

     total energy              =  -14694.08560674 Ry
     Harris-Foulkes estimate   =  -14694.41748170 Ry
     estimated scf accuracy    <       4.41727460 Ry

     total magnetization       =    18.18 Bohr mag/cell
     absolute magnetization    =    38.11 Bohr mag/cell

     iteration #  8     ecut=    45.00 Ry     beta= 0.10
     Davidson diagonalization with overlap
     ethr =  1.40E-03,  avg # of iterations =  2.9

     total cpu time spent up to now is     1617.8 secs

     total energy              =  -14693.71839467 Ry
     Harris-Foulkes estimate   =  -14694.19289213 Ry
     estimated scf accuracy    <       1.82167555 Ry

     total magnetization       =    17.96 Bohr mag/cell
     absolute magnetization    =    38.02 Bohr mag/cell

     iteration #  9     ecut=    45.00 Ry     beta= 0.10
     Davidson diagonalization with overlap
     ethr =  6.15E-04,  avg # of iterations =  4.4

     total cpu time spent up to now is     1874.1 secs

     total energy              =  -14694.04258092 Ry
     Harris-Foulkes estimate   =  -14694.03495908 Ry
     estimated scf accuracy    <       0.35688319 Ry

     total magnetization       =    17.58 Bohr mag/cell
     absolute magnetization    =    37.23 Bohr mag/cell

     iteration # 10     ecut=    45.00 Ry     beta= 0.10
     Davidson diagonalization with overlap
     ethr =  1.21E-04,  avg # of iterations =  1.5

     total cpu time spent up to now is     2032.0 secs

     total energy              =  -14694.05659239 Ry
     Harris-Foulkes estimate   =  -14694.04617611 Ry
     estimated scf accuracy    <       0.46325104 Ry

     total magnetization       =    17.58 Bohr mag/cell
     absolute magnetization    =    37.22 Bohr mag/cell

     iteration # 11     ecut=    45.00 Ry     beta= 0.10
     Davidson diagonalization with overlap
     ethr =  1.21E-04,  avg # of iterations =  1.0

     total cpu time spent up to now is     2179.2 secs

     total energy              =  -14694.01366040 Ry
     Harris-Foulkes estimate   =  -14694.05805724 Ry
     estimated scf accuracy    <       0.53454682 Ry

     total magnetization       =    17.54 Bohr mag/cell
     absolute magnetization    =    37.15 Bohr mag/cell

     iteration # 12     ecut=    45.00 Ry     beta= 0.10
     Davidson diagonalization with overlap
     ethr =  1.21E-04,  avg # of iterations =  1.1

     total cpu time spent up to now is     2327.1 secs

     total energy              =  -14693.99538976 Ry
     Harris-Foulkes estimate   =  -14694.02178212 Ry
     estimated scf accuracy    <       0.24808228 Ry

     total magnetization       =    17.58 Bohr mag/cell
     absolute magnetization    =    37.28 Bohr mag/cell

     iteration # 13     ecut=    45.00 Ry     beta= 0.10
     Davidson diagonalization with overlap
     ethr =  8.38E-05,  avg # of iterations =  1.4

     total cpu time spent up to now is     2483.4 secs

     total energy              =  -14693.99904083 Ry
     Harris-Foulkes estimate   =  -14694.00319652 Ry
     estimated scf accuracy    <       0.12279620 Ry

     total magnetization       =    17.60 Bohr mag/cell
     absolute magnetization    =    37.33 Bohr mag/cell

     iteration # 14     ecut=    45.00 Ry     beta= 0.10
     Davidson diagonalization with overlap
     ethr =  4.15E-05,  avg # of iterations =  1.1

     total cpu time spent up to now is     2633.8 secs

     total energy              =  -14693.99648887 Ry
     Harris-Foulkes estimate   =  -14694.00136588 Ry
     estimated scf accuracy    <       0.06381505 Ry

     total magnetization       =    17.55 Bohr mag/cell
     absolute magnetization    =    37.31 Bohr mag/cell

     iteration # 15     ecut=    45.00 Ry     beta= 0.10
     Davidson diagonalization with overlap
     c_bands:  3 eigenvalues not converged
     c_bands:  1 eigenvalues not converged
     c_bands:  4 eigenvalues not converged
     ethr =  2.16E-05,  avg # of iterations =  3.8

     total cpu time spent up to now is     2846.7 secs

     total energy              =  -14694.00150552 Ry
     Harris-Foulkes estimate   =  -14694.00110741 Ry
     estimated scf accuracy    <       0.01257605 Ry

     total magnetization       =    17.54 Bohr mag/cell
     absolute magnetization    =    37.29 Bohr mag/cell

     iteration # 16     ecut=    45.00 Ry     beta= 0.10
     Davidson diagonalization with overlap
     ethr =  4.25E-06,  avg # of iterations =  5.2

     total cpu time spent up to now is     3085.6 secs

     total energy              =  -14694.00264740 Ry
     Harris-Foulkes estimate   =  -14694.00272905 Ry
     estimated scf accuracy    <       0.01410984 Ry

     total magnetization       =    17.51 Bohr mag/cell
     absolute magnetization    =    37.25 Bohr mag/cell

     iteration # 17     ecut=    45.00 Ry     beta= 0.10
     Davidson diagonalization with overlap
     ethr =  4.25E-06,  avg # of iterations =  1.2

     total cpu time spent up to now is     3236.4 secs

     total energy              =  -14694.00383064 Ry
     Harris-Foulkes estimate   =  -14694.00307139 Ry
     estimated scf accuracy    <       0.00338235 Ry

     total magnetization       =    17.51 Bohr mag/cell
     absolute magnetization    =    37.28 Bohr mag/cell

     iteration # 18     ecut=    45.00 Ry     beta= 0.10
     Davidson diagonalization with overlap
     ethr =  1.14E-06,  avg # of iterations =  2.3

     total cpu time spent up to now is     3410.8 secs

     total energy              =  -14694.00436739 Ry
     Harris-Foulkes estimate   =  -14694.00397028 Ry
     estimated scf accuracy    <       0.00117628 Ry

     total magnetization       =    17.49 Bohr mag/cell
     absolute magnetization    =    37.27 Bohr mag/cell

     iteration # 19     ecut=    45.00 Ry     beta= 0.10
     Davidson diagonalization with overlap
     ethr =  3.97E-07,  avg # of iterations =  2.5

     total cpu time spent up to now is     3590.0 secs

     total energy              =  -14694.00464316 Ry
     Harris-Foulkes estimate   =  -14694.00444148 Ry
     estimated scf accuracy    <       0.00185003 Ry

     total magnetization       =    17.48 Bohr mag/cell
     absolute magnetization    =    37.26 Bohr mag/cell

     iteration # 20     ecut=    45.00 Ry     beta= 0.10
     Davidson diagonalization with overlap
     ethr =  3.97E-07,  avg # of iterations =  1.2

     total cpu time spent up to now is     3743.1 secs

     total energy              =  -14694.00488163 Ry
     Harris-Foulkes estimate   =  -14694.00468283 Ry
     estimated scf accuracy    <       0.00045365 Ry

     total magnetization       =    17.47 Bohr mag/cell
     absolute magnetization    =    37.25 Bohr mag/cell

     iteration # 21     ecut=    45.00 Ry     beta= 0.10
     Davidson diagonalization with overlap
     ethr =  1.53E-07,  avg # of iterations =  2.3

     total cpu time spent up to now is     3916.9 secs

     total energy              =  -14694.00493126 Ry
     Harris-Foulkes estimate   =  -14694.00488762 Ry
     estimated scf accuracy    <       0.00046033 Ry

     total magnetization       =    17.45 Bohr mag/cell
     absolute magnetization    =    37.25 Bohr mag/cell

     iteration # 22     ecut=    45.00 Ry     beta= 0.10
     Davidson diagonalization with overlap
     ethr =  1.53E-07,  avg # of iterations =  1.0

     total cpu time spent up to now is     4066.0 secs

     total energy              =  -14694.00496573 Ry
     Harris-Foulkes estimate   =  -14694.00493616 Ry
     estimated scf accuracy    <       0.00017262 Ry

     total magnetization       =    17.45 Bohr mag/cell
     absolute magnetization    =    37.25 Bohr mag/cell

     iteration # 23     ecut=    45.00 Ry     beta= 0.10
     Davidson diagonalization with overlap
     ethr =  5.83E-08,  avg # of iterations =  1.7

     total cpu time spent up to now is     4226.7 secs

     total energy              =  -14694.00498956 Ry
     Harris-Foulkes estimate   =  -14694.00497805 Ry
     estimated scf accuracy    <       0.00145576 Ry

     total magnetization       =    17.44 Bohr mag/cell
     absolute magnetization    =    37.25 Bohr mag/cell

     iteration # 24     ecut=    45.00 Ry     beta= 0.10
     Davidson diagonalization with overlap
     ethr =  5.83E-08,  avg # of iterations =  1.6

     total cpu time spent up to now is     4386.6 secs

     total energy              =  -14694.00500021 Ry
     Harris-Foulkes estimate   =  -14694.00499344 Ry
     estimated scf accuracy    <       0.00004198 Ry

     total magnetization       =    17.44 Bohr mag/cell
     absolute magnetization    =    37.25 Bohr mag/cell

     iteration # 25     ecut=    45.00 Ry     beta= 0.10
     Davidson diagonalization with overlap
     ethr =  1.42E-08,  avg # of iterations =  1.9

     total cpu time spent up to now is     4553.4 secs

     total energy              =  -14694.00499952 Ry
     Harris-Foulkes estimate   =  -14694.00499695 Ry
     estimated scf accuracy    <       0.00003568 Ry

     total magnetization       =    17.44 Bohr mag/cell
     absolute magnetization    =    37.25 Bohr mag/cell

     iteration # 26     ecut=    45.00 Ry     beta= 0.10
     Davidson diagonalization with overlap
     ethr =  1.21E-08,  avg # of iterations =  1.0

     total cpu time spent up to now is     4700.9 secs

     total energy              =  -14694.00500157 Ry
     Harris-Foulkes estimate   =  -14694.00499910 Ry
     estimated scf accuracy    <       0.00009103 Ry

     total magnetization       =    17.44 Bohr mag/cell
     absolute magnetization    =    37.25 Bohr mag/cell

     iteration # 27     ecut=    45.00 Ry     beta= 0.10
     Davidson diagonalization with overlap
     ethr =  1.21E-08,  avg # of iterations =  1.2

     total cpu time spent up to now is     4850.9 secs

     total energy              =  -14694.00500376 Ry
     Harris-Foulkes estimate   =  -14694.00500142 Ry
     estimated scf accuracy    <       0.00001698 Ry

     total magnetization       =    17.44 Bohr mag/cell
     absolute magnetization    =    37.25 Bohr mag/cell

     iteration # 28     ecut=    45.00 Ry     beta= 0.10
     Davidson diagonalization with overlap
     ethr =  5.74E-09,  avg # of iterations =  1.2

     total cpu time spent up to now is     5001.9 secs

     total energy              =  -14694.00500477 Ry
     Harris-Foulkes estimate   =  -14694.00500295 Ry
     estimated scf accuracy    <       0.00000559 Ry

     total magnetization       =    17.44 Bohr mag/cell
     absolute magnetization    =    37.25 Bohr mag/cell

     iteration # 29     ecut=    45.00 Ry     beta= 0.10
     Davidson diagonalization with overlap
     ethr =  1.89E-09,  avg # of iterations =  2.1

     total cpu time spent up to now is     5172.2 secs

     total energy              =  -14694.00500492 Ry
     Harris-Foulkes estimate   =  -14694.00500425 Ry
     estimated scf accuracy    <       0.00004631 Ry

     total magnetization       =    17.44 Bohr mag/cell
     absolute magnetization    =    37.25 Bohr mag/cell

     iteration # 30     ecut=    45.00 Ry     beta= 0.10
     Davidson diagonalization with overlap
     ethr =  1.89E-09,  avg # of iterations =  1.0

     total cpu time spent up to now is     5319.0 secs

     total energy              =  -14694.00500554 Ry
     Harris-Foulkes estimate   =  -14694.00500486 Ry
     estimated scf accuracy    <       0.00000662 Ry

     total magnetization       =    17.43 Bohr mag/cell
     absolute magnetization    =    37.25 Bohr mag/cell

     iteration # 31     ecut=    45.00 Ry     beta= 0.10
     Davidson diagonalization with overlap
     ethr =  1.89E-09,  avg # of iterations =  1.1

     total cpu time spent up to now is     5469.0 secs

     total energy              =  -14694.00500522 Ry
     Harris-Foulkes estimate   =  -14694.00500476 Ry
     estimated scf accuracy    <       0.00000762 Ry

     total magnetization       =    17.43 Bohr mag/cell
     absolute magnetization    =    37.25 Bohr mag/cell

     iteration # 32     ecut=    45.00 Ry     beta= 0.10
     Davidson diagonalization with overlap
     ethr =  1.89E-09,  avg # of iterations =  1.1
 
     Magnetic moment per site:
     atom:    1    charge:   13.5462    magn:    4.2451    constr:    0.0000
     atom:    2    charge:   13.5527    magn:    4.2020    constr:    0.0000
     atom:    3    charge:   13.5524    magn:    4.2023    constr:    0.0000
     atom:    4    charge:   13.5463    magn:    4.2455    constr:    0.0000
     atom:    5    charge:   13.5468    magn:   -4.2429    constr:    0.0000
     atom:    6    charge:   13.5456    magn:    4.2479    constr:    0.0000
     atom:    7    charge:   13.5455    magn:    4.2478    constr:    0.0000
     atom:    8    charge:   13.5469    magn:   -4.2430    constr:    0.0000
     atom:    9    charge:    9.1228    magn:    0.0323    constr:    0.0000
     atom:   10    charge:    9.1220    magn:    0.0309    constr:    0.0000
     atom:   11    charge:    9.1206    magn:    0.0304    constr:    0.0000
     atom:   12    charge:    9.1205    magn:    0.0304    constr:    0.0000
     atom:   13    charge:    9.1219    magn:    0.0311    constr:    0.0000
     atom:   14    charge:    9.1230    magn:    0.0326    constr:    0.0000
     atom:   15    charge:    9.1243    magn:    0.0417    constr:    0.0000
     atom:   16    charge:    9.1240    magn:   -0.0393    constr:    0.0000
     atom:   17    charge:    9.1231    magn:   -0.0390    constr:    0.0000
     atom:   18    charge:    9.1239    magn:    0.0455    constr:    0.0000
     atom:   19    charge:    9.1236    magn:    0.0381    constr:    0.0000
     atom:   20    charge:    9.1234    magn:    0.0381    constr:    0.0000
     atom:   21    charge:    9.1238    magn:    0.0454    constr:    0.0000
     atom:   22    charge:    9.1231    magn:   -0.0389    constr:    0.0000
     atom:   23    charge:    9.1241    magn:   -0.0393    constr:    0.0000
     atom:   24    charge:    9.1241    magn:    0.0417    constr:    0.0000

     total cpu time spent up to now is     5616.7 secs

     End of self-consistent calculation
 --- enter write_ns ---
 LDA+U parameters:
U(  1) =   3.1200   J(  1) =   0.7000   B(  1) =   0.0803
U(  2) =   3.1200   J(  2) =   0.7000   B(  2) =   0.0803
atom    1   Tr[ns(na)] (up, down, total) =   4.97313  0.72805  5.70117
   spin  1
    eigenvalues: 
  0.985  0.994  0.994  0.997  1.002
    eigenvectors:
  0.000  0.000  0.000  1.000  0.000
  0.000  0.292  0.708  0.000  0.000
  0.000  0.708  0.292  0.000  0.000
  0.000  0.000  0.000  0.000  1.000
  1.000  0.000  0.000  0.000  0.000
    occupations:
  0.997 -0.000 -0.000  0.000  0.000
 -0.000  0.994 -0.000  0.000  0.000
 -0.000 -0.000  0.994  0.000  0.000
  0.000  0.000  0.000  1.002 -0.000
  0.000  0.000  0.000 -0.000  0.985
   spin  2
    eigenvalues: 
  0.067  0.124  0.145  0.145  0.247
    eigenvectors:
  0.000  1.000  0.000  0.000  0.000
  0.000  0.000  0.330  0.670  0.000
  0.000  0.000  0.670  0.330  0.000
  1.000  0.000  0.000  0.000  0.000
  0.000  0.000  0.000  0.000  1.000
    occupations:
  0.124 -0.000 -0.000  0.000  0.000
 -0.000  0.145 -0.000  0.000  0.000
 -0.000 -0.000  0.145  0.000  0.000
  0.000  0.000  0.000  0.067 -0.000
  0.000  0.000  0.000 -0.000  0.247
atomic mag. moment =     4.245082
atom    2   Tr[ns(na)] (up, down, total) =   4.96967  0.76243  5.73210
   spin  1
    eigenvalues: 
  0.984  0.993  0.993  0.997  1.002
    eigenvectors:
  0.000  0.000  0.000  1.000  0.000
  0.000  0.316  0.684  0.000  0.000
  0.000  0.684  0.316  0.000  0.000
  0.000  0.000  0.000  0.000  1.000
  1.000  0.000  0.000  0.000  0.000
    occupations:
  0.997 -0.000 -0.000  0.000  0.000
 -0.000  0.993 -0.000  0.000  0.000
 -0.000 -0.000  0.993  0.000  0.000
  0.000  0.000  0.000  1.002 -0.000
  0.000  0.000  0.000 -0.000  0.984
   spin  2
    eigenvalues: 
  0.065  0.141  0.144  0.144  0.269
    eigenvectors:
  0.000  1.000  0.000  0.000  0.000
  0.000  0.000  0.287  0.713  0.000
  0.000  0.000  0.713  0.287  0.000
  1.000  0.000  0.000  0.000  0.000
  0.000  0.000  0.000  0.000  1.000
    occupations:
  0.141 -0.000 -0.000  0.000  0.000
 -0.000  0.144 -0.000  0.000  0.000
 -0.000 -0.000  0.144  0.000  0.000
  0.000  0.000  0.000  0.065 -0.000
  0.000  0.000  0.000 -0.000  0.269
atomic mag. moment =     4.207249
atom    3   Tr[ns(na)] (up, down, total) =   4.96970  0.76196  5.73166
   spin  1
    eigenvalues: 
  0.984  0.993  0.993  0.997  1.002
    eigenvectors:
  0.000  0.000  0.000  1.000  0.000
  0.000  0.263  0.737  0.000  0.000
  0.000  0.737  0.263  0.000  0.000
  0.000  0.000  0.000  0.000  1.000
  1.000  0.000  0.000  0.000  0.000
    occupations:
  0.997 -0.000 -0.000  0.000  0.000
 -0.000  0.993 -0.000  0.000  0.000
 -0.000 -0.000  0.993  0.000  0.000
  0.000  0.000  0.000  1.002 -0.000
  0.000  0.000  0.000 -0.000  0.984
   spin  2
    eigenvalues: 
  0.065  0.141  0.144  0.144  0.269
    eigenvectors:
  0.000  1.000  0.000  0.000  0.000
  0.000  0.000  0.276  0.724  0.000
  0.000  0.000  0.724  0.276  0.000
  1.000  0.000  0.000  0.000  0.000
  0.000  0.000  0.000  0.000  1.000
    occupations:
  0.141 -0.000 -0.000  0.000  0.000
 -0.000  0.144 -0.000  0.000  0.000
 -0.000 -0.000  0.144  0.000  0.000
  0.000  0.000  0.000  0.065 -0.000
  0.000  0.000  0.000 -0.000  0.269
atomic mag. moment =     4.207744
atom    4   Tr[ns(na)] (up, down, total) =   4.97317  0.72773  5.70090
   spin  1
    eigenvalues: 
  0.985  0.994  0.994  0.997  1.002
    eigenvectors:
  0.000  0.000  0.000  1.000  0.000
  0.000  0.345  0.655  0.000  0.000
  0.000  0.655  0.345  0.000  0.000
  0.000  0.000  0.000  0.000  1.000
  1.000  0.000  0.000  0.000  0.000
    occupations:
  0.997 -0.000 -0.000  0.000  0.000
 -0.000  0.994 -0.000  0.000  0.000
 -0.000 -0.000  0.994  0.000  0.000
  0.000  0.000  0.000  1.002 -0.000
  0.000  0.000  0.000 -0.000  0.985
   spin  2
    eigenvalues: 
  0.067  0.124  0.145  0.145  0.247
    eigenvectors:
  0.000  1.000  0.000  0.000  0.000
  0.000  0.000  0.376  0.624  0.000
  0.000  0.000  0.624  0.376  0.000
  1.000  0.000  0.000  0.000  0.000
  0.000  0.000  0.000  0.000  1.000
    occupations:
  0.124 -0.000 -0.000  0.000  0.000
 -0.000  0.145 -0.000  0.000  0.000
 -0.000 -0.000  0.145  0.000  0.000
  0.000  0.000  0.000  0.067 -0.000
  0.000  0.000  0.000 -0.000  0.247
atomic mag. moment =     4.245448
atom    5   Tr[ns(na)] (up, down, total) =   0.73238  4.97025  5.70263
   spin  1
    eigenvalues: 
  0.064  0.124  0.145  0.145  0.254
    eigenvectors:
  0.000  1.000  0.000  0.000  0.000
  0.000  0.000  0.346  0.654  0.000
  0.000  0.000  0.654  0.346  0.000
  1.000  0.000  0.000  0.000  0.000
  0.000  0.000  0.000  0.000  1.000
    occupations:
  0.124 -0.000 -0.000  0.000  0.000
 -0.000  0.145 -0.000  0.000  0.000
 -0.000 -0.000  0.145  0.000  0.000
  0.000  0.000  0.000  0.064 -0.000
  0.000  0.000  0.000 -0.000  0.254
   spin  2
    eigenvalues: 
  0.984  0.994  0.994  0.996  1.003
    eigenvectors:
  0.000  0.000  0.000  1.000  0.000
  0.000  0.372  0.628  0.000  0.000
  0.000  0.628  0.372  0.000  0.000
  0.000  0.000  0.000  0.000  1.000
  1.000  0.000  0.000  0.000  0.000
    occupations:
  0.996 -0.000 -0.000  0.000  0.000
 -0.000  0.994 -0.000  0.000  0.000
 -0.000 -0.000  0.994  0.000  0.000
  0.000  0.000  0.000  1.003 -0.000
  0.000  0.000  0.000 -0.000  0.984
atomic mag. moment =    -4.237868
atom    6   Tr[ns(na)] (up, down, total) =   4.97346  0.72656  5.70002
   spin  1
    eigenvalues: 
  0.985  0.994  0.994  0.997  1.002
    eigenvectors:
  0.000  0.000  0.000  1.000  0.000
  0.000  0.326  0.674  0.000  0.000
  0.000  0.674  0.326  0.000  0.000
  0.000  0.000  0.000  0.000  1.000
  1.000  0.000  0.000  0.000  0.000
    occupations:
  0.997 -0.000 -0.000  0.000  0.000
 -0.000  0.994 -0.000  0.000  0.000
 -0.000 -0.000  0.994  0.000  0.000
  0.000  0.000  0.000  1.002 -0.000
  0.000  0.000  0.000 -0.000  0.985
   spin  2
    eigenvalues: 
  0.066  0.122  0.146  0.146  0.248
    eigenvectors:
  0.000  1.000  0.000  0.000  0.000
  0.000  0.000  0.253  0.747  0.000
  0.000  0.000  0.747  0.253  0.000
  1.000  0.000  0.000  0.000  0.000
  0.000  0.000  0.000  0.000  1.000
    occupations:
  0.122 -0.000 -0.000  0.000  0.000
 -0.000  0.146 -0.000  0.000  0.000
 -0.000 -0.000  0.146  0.000  0.000
  0.000  0.000  0.000  0.066 -0.000
  0.000  0.000  0.000 -0.000  0.248
atomic mag. moment =     4.246907
atom    7   Tr[ns(na)] (up, down, total) =   4.97345  0.72662  5.70006
   spin  1
    eigenvalues: 
  0.985  0.994  0.994  0.997  1.002
    eigenvectors:
  0.000  0.000  0.000  1.000  0.000
  0.000  0.278  0.722  0.000  0.000
  0.000  0.722  0.278  0.000  0.000
  0.000  0.000  0.000  0.000  1.000
  1.000  0.000  0.000  0.000  0.000
    occupations:
  0.997 -0.000 -0.000  0.000  0.000
 -0.000  0.994 -0.000  0.000  0.000
 -0.000 -0.000  0.994  0.000  0.000
  0.000  0.000  0.000  1.002 -0.000
  0.000  0.000  0.000 -0.000  0.985
   spin  2
    eigenvalues: 
  0.066  0.122  0.145  0.145  0.248
    eigenvectors:
  0.000  1.000  0.000  0.000  0.000
  0.000  0.000  0.350  0.650  0.000
  0.000  0.000  0.650  0.350  0.000
  1.000  0.000  0.000  0.000  0.000
  0.000  0.000  0.000  0.000  1.000
    occupations:
  0.122 -0.000 -0.000  0.000  0.000
 -0.000  0.145 -0.000  0.000  0.000
 -0.000 -0.000  0.145  0.000  0.000
  0.000  0.000  0.000  0.066 -0.000
  0.000  0.000  0.000 -0.000  0.248
atomic mag. moment =     4.246831
atom    8   Tr[ns(na)] (up, down, total) =   0.73233  4.97025  5.70257
   spin  1
    eigenvalues: 
  0.064  0.124  0.145  0.145  0.253
    eigenvectors:
  0.000  1.000  0.000  0.000  0.000
  0.000  0.000  0.318  0.682  0.000
  0.000  0.000  0.682  0.318  0.000
  1.000  0.000  0.000  0.000  0.000
  0.000  0.000  0.000  0.000  1.000
    occupations:
  0.124 -0.000 -0.000  0.000  0.000
 -0.000  0.145 -0.000  0.000  0.000
 -0.000 -0.000  0.145  0.000  0.000
  0.000  0.000  0.000  0.064 -0.000
  0.000  0.000  0.000 -0.000  0.253
   spin  2
    eigenvalues: 
  0.984  0.994  0.994  0.996  1.003
    eigenvectors:
  0.000  0.000  0.000  1.000  0.000
  0.000  0.305  0.695  0.000  0.000
  0.000  0.695  0.305  0.000  0.000
  0.000  0.000  0.000  0.000  1.000
  1.000  0.000  0.000  0.000  0.000
    occupations:
  0.996 -0.000 -0.000  0.000  0.000
 -0.000  0.994 -0.000  0.000  0.000
 -0.000 -0.000  0.994  0.000  0.000
  0.000  0.000  0.000  1.003 -0.000
  0.000  0.000  0.000 -0.000  0.984
atomic mag. moment =    -4.237919
N of occupied +U levels =   45.671122
 --- exit write_ns ---

 ------ SPIN UP ------------


          k = 0.0000 0.0000 0.0000 ( 13925 PWs)   bands (ev):

   -66.7660 -66.7656 -66.7654 -66.7647 -66.6023 -66.6015 -62.2090 -62.2082
   -35.5359 -35.5356 -35.5326 -35.5315 -35.4842 -35.4842 -35.4829 -35.4829
   -35.4818 -35.4818 -35.4817 -35.4817 -35.3807 -35.3796 -35.3172 -35.3172
   -35.3165 -35.3165 -31.0339 -31.0331 -31.0263 -31.0263 -31.0255 -31.0255
     5.7404   5.8807   5.9001   6.3332   6.3374   6.9745   7.0490   7.6127
     8.2160   8.3785   8.3833   8.4017   8.4382   8.4672   8.5114   8.6752
     8.7051   8.7586   8.7698   8.8272   8.9235   8.9640   9.1529   9.2331
     9.2547   9.3761   9.4390   9.4720   9.5037   9.6244   9.6964   9.8657
     9.8970   9.9065   9.9576  10.0479  10.0975  10.1177  10.1177  10.1306
    10.1335  10.1446  10.1576  10.1576  10.2006  10.2006  10.3367  10.3367
    10.3410  10.3410  10.3659  10.4749  10.5314  10.5602  10.5602  10.5794
    10.5809  10.5809  10.6020  10.6020  10.6030  10.6030  10.6083  10.6083
    10.6642  10.6839  10.6839  10.7254  10.7254  10.7936  10.7936  10.8936
    10.9030  11.0126  11.0126  11.0397  11.0397  11.0807  11.1268  11.2157
    11.2338  11.2521  11.2637  11.3522  11.4138  11.4138  11.5806  11.5806
    11.5851  11.6090  11.6288  11.6335  11.7005  11.7406  11.8603  11.9377
    11.9716  11.9716  12.0013  12.0420  12.0420  12.0723  12.0887  12.1478
    12.2354  12.2404  12.4425  12.4425  12.5502  12.5505  12.5505  12.6569
    12.7673  12.7677  12.7677  12.8146  12.9650  12.9753  13.0248  13.1241
    13.2646  13.9791  14.0787  15.1691  15.5040  16.3955  16.8916  16.8916
    16.8997  16.8997  16.9548  16.9557  17.1056  17.1058  17.5507  17.5619
    18.2016  19.3859  19.5909  20.0363  20.0363  20.3863  20.3863  20.4248
    20.4248  21.3838

          k = 0.0000 0.0000 0.0242 ( 13893 PWs)   bands (ev):

   -66.7660 -66.7656 -66.7654 -66.7647 -66.6023 -66.6015 -62.2090 -62.2082
   -35.5359 -35.5356 -35.5326 -35.5315 -35.4842 -35.4842 -35.4829 -35.4829
   -35.4818 -35.4818 -35.4817 -35.4817 -35.3807 -35.3796 -35.3172 -35.3172
   -35.3165 -35.3165 -31.0339 -31.0331 -31.0263 -31.0263 -31.0255 -31.0255
     5.7496   5.8254   5.9711   6.2061   6.4793   6.8289   7.2014   7.5417
     8.2847   8.3841   8.3854   8.4003   8.4239   8.4682   8.5269   8.6344
     8.6694   8.7116   8.7356   8.8794   8.9612   9.0218   9.1133   9.2597
     9.2672   9.3589   9.3816   9.4477   9.5595   9.6402   9.6909   9.8456
     9.8981   9.9049   9.9583  10.0641  10.1000  10.1194  10.1194  10.1250
    10.1312  10.1504  10.1504  10.1506  10.2155  10.2155  10.2896  10.2896
    10.3639  10.3955  10.3955  10.4425  10.5292  10.5292  10.5612  10.5612
    10.5646  10.5836  10.5836  10.5883  10.6031  10.6031  10.6535  10.6604
    10.6604  10.6976  10.6976  10.7285  10.7285  10.7956  10.7956  10.8806
    10.9120  10.9284  10.9284  11.0684  11.1331  11.1331  11.1454  11.2165
    11.2386  11.2432  11.2621  11.3532  11.3532  11.3533  11.5651  11.6143
    11.6266  11.6338  11.6338  11.6538  11.7030  11.7350  11.8629  11.9104
    11.9104  11.9303  12.0004  12.0701  12.0899  12.0899  12.0905  12.1603
    12.2307  12.2354  12.4271  12.4271  12.5540  12.5597  12.5597  12.6529
    12.7668  12.7668  12.7690  12.8351  12.9632  12.9729  12.9769  13.1241
    13.3278  13.8248  14.2475  15.0172  15.6694  16.3163  16.8916  16.8916
    16.8996  16.8996  16.9548  16.9557  17.1056  17.1058  17.5507  17.5608
    18.3132  19.0363  19.9737  20.0603  20.0603  20.2470  20.2470  20.6006
    20.6006  20.9894

          k = 0.0000 0.0000-0.0484 ( 13878 PWs)   bands (ev):

   -66.7660 -66.7656 -66.7654 -66.7647 -66.6023 -66.6015 -62.2090 -62.2082
   -35.5359 -35.5356 -35.5326 -35.5315 -35.4842 -35.4842 -35.4829 -35.4829
   -35.4818 -35.4818 -35.4817 -35.4817 -35.3807 -35.3796 -35.3172 -35.3172
   -35.3165 -35.3165 -31.0339 -31.0331 -31.0263 -31.0263 -31.0255 -31.0255
     5.7723   5.7845   6.0375   6.1229   6.5968   6.7008   7.3635   7.4042
     8.3723   8.3851   8.3988   8.4082   8.4405   8.4692   8.4718   8.5509
     8.6650   8.7110   8.7167   8.9154   8.9585   9.0703   9.1236   9.2444
     9.2857   9.3361   9.3496   9.4334   9.5907   9.6573   9.6834   9.8253
     9.9004   9.9022   9.9590  10.0789  10.1029  10.1212  10.1216  10.1216
    10.1285  10.1443  10.1443  10.1548  10.2434  10.2434  10.2524  10.2524
    10.3620  10.4209  10.4531  10.4531  10.4658  10.4658  10.5610  10.5610
    10.5835  10.5835  10.5871  10.6009  10.6031  10.6031  10.6392  10.6691
    10.6691  10.7147  10.7147  10.7447  10.7447  10.8032  10.8032  10.8678
    10.8718  10.8718  10.9218  11.0560  11.1708  11.2174  11.2177  11.2239
    11.2239  11.2521  11.2604  11.2667  11.2667  11.3544  11.5511  11.6199
    11.6244  11.6682  11.6853  11.6853  11.7053  11.7291  11.8587  11.8587
    11.8653  11.9230  11.9995  12.0682  12.0919  12.1197  12.1197  12.1772
    12.2162  12.2354  12.4125  12.4125  12.5579  12.5675  12.5675  12.6487
    12.7659  12.7659  12.7706  12.8923  12.8931  12.9617  12.9781  13.1241
    13.3943  13.7257  14.3656  14.8902  15.8229  16.2085  16.8917  16.8917
    16.8995  16.8995  16.9548  16.9557  17.1056  17.1058  17.5508  17.5600
    18.5163  18.7388  20.1283  20.1283  20.1344  20.1344  20.3839  20.5643
    20.7879  20.7879

          k = 0.0000 0.1250 0.0000 ( 13879 PWs)   bands (ev):

   -66.7657 -66.7653 -66.7651 -66.7645 -66.6021 -66.6012 -62.2091 -62.2082
   -35.5357 -35.5354 -35.5324 -35.5313 -35.4860 -35.4847 -35.4841 -35.4836
   -35.4835 -35.4828 -35.4817 -35.4816 -35.3805 -35.3795 -35.3190 -35.3183
   -35.3171 -35.3164 -31.0337 -31.0329 -31.0285 -31.0277 -31.0262 -31.0254
     5.9840   6.1211   6.1385   6.5562   6.5599   7.1636   7.2236   7.7418
     8.2319   8.4686   8.5195   8.5244   8.5349   8.5828   8.6095   8.6883
     8.7191   8.7779   8.8057   8.9037   8.9253   9.0162   9.1260   9.1709
     9.2576   9.2874   9.3057   9.4149   9.4180   9.6121   9.7218   9.7812
     9.8036   9.8121   9.8262   9.8743   9.9139   9.9212   9.9455  10.0076
    10.0125  10.0419  10.0612  10.1252  10.1252  10.1339  10.2082  10.2263
    10.2721  10.3109  10.3395  10.3883  10.4061  10.4490  10.4895  10.5710
    10.6118  10.6152  10.6318  10.6547  10.7179  10.7279  10.7528  10.8035
    10.8157  10.8451  10.8485  10.8618  10.9379  11.0107  11.0496  11.0677
    11.0979  11.1444  11.1557  11.1599  11.1747  11.1881  11.2350  11.2427
    11.3216  11.3323  11.3506  11.3762  11.3980  11.4552  11.4908  11.5792
    11.6036  11.6541  11.6929  11.7457  11.7851  11.8051  11.8598  11.8932
    11.8969  11.9007  11.9474  11.9665  12.0714  12.0775  12.2072  12.2314
    12.2362  12.3059  12.3674  12.4023  12.4048  12.5139  12.5696  12.5995
    12.7606  12.7889  12.7992  12.8341  12.8582  13.0039  13.0096  13.0144
    13.2273  14.0299  14.1171  15.2928  15.6231  16.5232  16.6660  16.7637
    16.9643  16.9663  17.0028  17.0044  17.0213  17.0243  17.5786  17.8739
    18.2999  18.5979  18.9061  18.9747  19.7221  19.7789  19.8094  19.8894
    20.6460  20.9176

          k = 0.0000 0.1250 0.0242 ( 13869 PWs)   bands (ev):

   -66.7657 -66.7653 -66.7651 -66.7645 -66.6021 -66.6012 -62.2091 -62.2082
   -35.5357 -35.5354 -35.5324 -35.5313 -35.4860 -35.4847 -35.4841 -35.4836
   -35.4835 -35.4828 -35.4817 -35.4816 -35.3805 -35.3795 -35.3190 -35.3183
   -35.3171 -35.3164 -31.0337 -31.0329 -31.0285 -31.0277 -31.0262 -31.0254
     5.9930   6.0668   6.2081   6.4339   6.6959   7.0237   7.3678   7.6770
     8.2906   8.4734   8.5085   8.5205   8.5298   8.5675   8.5964   8.6303
     8.7510   8.7964   8.8197   8.8899   8.9758   9.0165   9.0874   9.1555
     9.2655   9.2830   9.3119   9.4052   9.4523   9.5829   9.7421   9.7826
     9.7993   9.8050   9.8352   9.8707   9.9103   9.9213   9.9456  10.0040
    10.0083  10.0481  10.0632  10.1133  10.1328  10.1442  10.1966  10.2461
    10.2633  10.3154  10.3356  10.3426  10.4475  10.4701  10.4879  10.5669
    10.6145  10.6176  10.6321  10.6398  10.6549  10.7282  10.8018  10.8205
    10.8269  10.8473  10.8523  10.8542  10.9372  11.0170  11.0199  11.0573
    11.1031  11.1336  11.1482  11.1729  11.1904  11.2040  11.2291  11.2363
    11.2966  11.3237  11.3376  11.3890  11.4344  11.4358  11.5391  11.5795
    11.5956  11.6587  11.6979  11.7060  11.7327  11.8311  11.8587  11.8770
    11.8957  11.9248  11.9543  12.0089  12.0683  12.0793  12.1987  12.2072
    12.2324  12.2804  12.3950  12.4076  12.4206  12.5112  12.5584  12.5983
    12.7827  12.7902  12.8042  12.8328  12.8557  12.9388  13.0097  13.0144
    13.3090  13.8414  14.3208  15.1216  15.7993  16.4314  16.7004  16.7574
    16.9643  16.9662  17.0028  17.0044  17.0213  17.0242  17.5956  17.7765
    18.4908  18.6194  18.7961  19.1145  19.3276  19.5539  20.0376  20.3062
    20.6201  20.6651

          k = 0.0000 0.1250-0.0484 ( 13868 PWs)   bands (ev):

   -66.7657 -66.7653 -66.7651 -66.7645 -66.6021 -66.6012 -62.2091 -62.2082
   -35.5357 -35.5354 -35.5324 -35.5313 -35.4860 -35.4847 -35.4841 -35.4836
   -35.4835 -35.4828 -35.4817 -35.4816 -35.3805 -35.3795 -35.3190 -35.3183
   -35.3171 -35.3164 -31.0337 -31.0329 -31.0285 -31.0277 -31.0262 -31.0254
     6.0147   6.0273   6.2729   6.3532   6.8105   6.9001   7.5201   7.5484
     8.3931   8.4367   8.4930   8.4995   8.5231   8.5323   8.5924   8.6448
     8.7458   8.7999   8.8161   8.9390   9.0056   9.0156   9.0440   9.1315
     9.2712   9.2766   9.3249   9.3971   9.4958   9.5416   9.7636   9.7845
     9.7905   9.7997   9.8432   9.8656   9.9064   9.9214   9.9456  10.0009
    10.0052  10.0522  10.0674  10.1046  10.1405  10.1507  10.1891  10.2555
    10.2733  10.2961  10.3188  10.3455  10.4461  10.4860  10.5497  10.5532
    10.5640  10.6140  10.6219  10.6329  10.6550  10.7284  10.8024  10.8331
    10.8355  10.8408  10.8473  10.9175  10.9378  10.9522  11.0335  11.0446
    11.1038  11.1386  11.1606  11.1684  11.1789  11.2186  11.2432  11.2468
    11.2550  11.3196  11.3229  11.4082  11.4149  11.4805  11.5704  11.5820
    11.5909  11.6580  11.6634  11.7076  11.7078  11.8057  11.8525  11.8764
    11.9326  11.9357  11.9530  12.0492  12.0615  12.0806  12.1680  12.2073
    12.2286  12.2561  12.4122  12.4204  12.4328  12.5090  12.5444  12.5970
    12.7918  12.8092  12.8316  12.8430  12.8496  12.8526  13.0099  13.0144
    13.3950  13.7205  14.4611  14.9754  15.9584  16.3209  16.7306  16.7430
    16.9644  16.9661  17.0028  17.0044  17.0213  17.0242  17.6361  17.6829
    18.6675  18.7040  18.7989  18.9608  19.2641  19.3803  20.2686  20.3332
    20.7106  20.7378

          k = 0.0000 0.2500 0.0000 ( 13848 PWs)   bands (ev):

   -66.7656 -66.7651 -66.7650 -66.7643 -66.6019 -66.6011 -62.2087 -62.2078
   -35.5353 -35.5350 -35.5320 -35.5310 -35.4902 -35.4889 -35.4877 -35.4877
   -35.4839 -35.4826 -35.4814 -35.4814 -35.3801 -35.3791 -35.3232 -35.3225
   -35.3169 -35.3161 -31.0338 -31.0331 -31.0329 -31.0323 -31.0258 -31.0250
     6.6731   6.7986   6.8098   7.1691   7.1720   7.6431   7.6608   8.0088
     8.2129   8.4389   8.4414   8.6539   8.6584   8.7150   8.7884   8.8128
     8.8336   8.8510   8.8630   8.8937   8.8946   8.9682   8.9928   9.0808
     9.1044   9.2194   9.2355   9.4632   9.4750   9.4916   9.5529   9.5684
     9.6012   9.6067   9.6325   9.6631   9.7345   9.7458   9.7817   9.7919
     9.8361   9.9061   9.9883  10.0109  10.0323  10.1508  10.2355  10.2630
    10.3380  10.4641  10.5019  10.5425  10.5718  10.5946  10.5975  10.6728
    10.7109  10.7149  10.7350  10.7544  10.7928  10.8685  10.9056  10.9537
    10.9886  10.9964  11.0459  11.0812  11.1000  11.1411  11.1572  11.2252
    11.2619  11.2898  11.3502  11.3595  11.3885  11.4176  11.4534  11.4679
    11.5053  11.5128  11.5277  11.6204  11.6278  11.6342  11.6453  11.6726
    11.7513  11.7645  11.7660  11.8108  11.8306  11.8460  11.8493  11.8837
    11.8889  11.9329  12.0193  12.0364  12.0437  12.0629  12.0898  12.1506
    12.1971  12.2482  12.2890  12.4008  12.4852  12.5342  12.5828  12.6321
    12.6769  12.8536  12.8757  12.8817  12.9191  12.9311  13.0437  13.0715
    13.1094  14.1554  14.2118  15.4912  15.7160  16.0300  16.0622  16.2797
    16.3353  16.5826  16.7616  16.8628  16.8630  17.0269  17.0825  17.2736
    17.2744  17.4218  17.5312  17.7530  18.2876  18.3932  18.4661  18.4904
    19.2619  20.3228

          k = 0.0000 0.2500 0.0242 ( 13862 PWs)   bands (ev):

   -66.7656 -66.7651 -66.7650 -66.7643 -66.6019 -66.6011 -62.2087 -62.2078
   -35.5353 -35.5350 -35.5320 -35.5310 -35.4902 -35.4889 -35.4877 -35.4877
   -35.4839 -35.4826 -35.4814 -35.4814 -35.3801 -35.3791 -35.3232 -35.3225
   -35.3169 -35.3161 -31.0338 -31.0331 -31.0329 -31.0323 -31.0258 -31.0250
     6.6812   6.7482   6.8734   7.0661   7.2840   7.5308   7.7692   7.9666
     8.2461   8.3766   8.4998   8.6084   8.6933   8.7231   8.7728   8.8009
     8.8427   8.8541   8.8622   8.8920   8.9087   8.9706   8.9924   9.0802
     9.1044   9.1539   9.3087   9.4637   9.4726   9.4966   9.5382   9.5854
     9.5885   9.6043   9.6287   9.6344   9.7155   9.7668   9.7809   9.7930
     9.8889   9.8985   9.9953  10.0110  10.0286  10.0929  10.2451  10.3124
    10.3147  10.4691  10.4983  10.5487  10.5650  10.5989  10.6180  10.6566
    10.6614  10.7126  10.7195  10.8017  10.8321  10.8550  10.9051  10.9293
    10.9840  11.0019  11.0386  11.0943  11.1080  11.1386  11.1421  11.2441
    11.2650  11.2877  11.3470  11.3509  11.3811  11.4283  11.4415  11.5013
    11.5032  11.5140  11.5278  11.5754  11.6069  11.6188  11.6769  11.7295
    11.7416  11.7444  11.7791  11.8111  11.8296  11.8433  11.8495  11.8769
    11.8878  11.9280  11.9957  12.0458  12.0508  12.0581  12.1292  12.1506
    12.1693  12.2409  12.3052  12.3889  12.4866  12.5449  12.6102  12.6252
    12.6773  12.8184  12.8515  12.8785  12.8831  12.9173  13.0438  13.0715
    13.2564  13.8812  14.4942  15.2973  15.8478  16.0087  16.0947  16.2850
    16.3276  16.6023  16.7300  16.8628  16.8630  17.0306  17.0838  17.2736
    17.2744  17.3573  17.6014  17.8158  18.1167  18.2417  18.5558  18.6858
    19.3075  19.9258

          k = 0.0000 0.2500-0.0484 ( 13842 PWs)   bands (ev):

   -66.7656 -66.7651 -66.7650 -66.7643 -66.6019 -66.6011 -62.2087 -62.2078
   -35.5353 -35.5350 -35.5320 -35.5310 -35.4902 -35.4889 -35.4877 -35.4877
   -35.4839 -35.4826 -35.4814 -35.4814 -35.3801 -35.3791 -35.3232 -35.3225
   -35.3169 -35.3161 -31.0338 -31.0331 -31.0329 -31.0323 -31.0258 -31.0250
     6.6999   6.7135   6.9321   6.9954   7.3835   7.4289   7.8766   7.8773
     8.3071   8.3126   8.5536   8.5581   8.7099   8.7297   8.7678   8.7831
     8.8472   8.8553   8.8627   8.8918   8.9235   8.9730   8.9920   9.0795
     9.1044   9.1209   9.3529   9.4643   9.4706   9.5026   9.5278   9.5579
     9.5999   9.6040   9.6216   9.6242   9.7059   9.7776   9.7813   9.7942
     9.8908   9.9619  10.0026  10.0128  10.0195  10.0225  10.2640  10.2856
    10.3633  10.4280  10.5448  10.5539  10.5699  10.5887  10.6093  10.6177
    10.6678  10.7006  10.7250  10.8230  10.8446  10.8719  10.8922  10.9369
    10.9523  10.9894  11.0583  11.0825  11.1225  11.1381  11.1432  11.2305
    11.2865  11.2925  11.3344  11.3500  11.3745  11.4408  11.4440  11.4843
    11.5211  11.5235  11.5377  11.5386  11.5941  11.6184  11.7116  11.7117
    11.7280  11.7748  11.7788  11.8093  11.8331  11.8412  11.8590  11.8707
    11.8834  11.9136  11.9704  12.0456  12.0578  12.1097  12.1141  12.1505
    12.1561  12.2308  12.3222  12.3741  12.4883  12.5563  12.6171  12.6775
    12.6853  12.6969  12.8501  12.8786  12.8869  12.9152  13.0438  13.0715
    13.4105  13.6926  14.6860  15.1180  15.9498  15.9546  16.1517  16.2502
    16.3457  16.6455  16.6724  16.8628  16.8630  17.0340  17.0855  17.2736
    17.2744  17.3148  17.6663  17.8997  18.0085  18.1035  18.6822  18.7148
    19.4975  19.5905

          k = 0.0000 0.3750 0.0000 ( 13856 PWs)   bands (ev):

   -66.7662 -66.7657 -66.7656 -66.7649 -66.6025 -66.6016 -62.2077 -62.2068
   -35.5349 -35.5346 -35.5316 -35.5305 -35.4942 -35.4929 -35.4918 -35.4917
   -35.4836 -35.4823 -35.4812 -35.4811 -35.3797 -35.3787 -35.3273 -35.3265
   -35.3166 -35.3159 -31.0392 -31.0383 -31.0325 -31.0317 -31.0255 -31.0247
     7.6338   7.7314   7.7355   7.9537   7.9551   8.1177   8.1221   8.1728
     8.1769   8.2209   8.2280   8.3450   8.3508   8.5050   8.5583   8.7098
     8.8232   8.9182   8.9988   9.0333   9.1029   9.1574   9.2245   9.2254
     9.2322   9.2408   9.2429   9.2460   9.2933   9.3211   9.3345   9.4463
     9.5390   9.5392   9.5397   9.5673   9.5824   9.6691   9.6858   9.7245
     9.8277   9.9444   9.9990  10.0722  10.0903  10.0947  10.1733  10.3442
    10.3520  10.3640  10.3707  10.4752  10.4955  10.5207  10.6283  10.7041
    10.7673  10.7738  10.8186  10.8752  11.1108  11.1222  11.1567  11.1984
    11.2379  11.2790  11.3101  11.3396  11.4183  11.4362  11.4451  11.4717
    11.4898  11.4953  11.4993  11.5456  11.5764  11.5975  11.6149  11.6435
    11.6606  11.6729  11.6962  11.7293  11.7766  11.8164  11.8326  11.8342
    11.9034  11.9418  11.9434  12.0118  12.0376  12.0513  12.0543  12.0863
    12.0936  12.1715  12.1831  12.2155  12.2453  12.2761  12.3293  12.3752
    12.4209  12.4370  12.4707  12.5347  12.5720  12.6174  12.6350  12.7308
    12.7933  12.9210  12.9567  12.9643  12.9705  12.9720  12.9950  13.1022
    13.1181  13.9262  14.1034  14.1046  14.2521  14.2603  14.9181  14.9669
    15.1244  15.1598  15.7080  15.7259  15.9672  16.0340  16.7921  16.7922
    16.8945  16.9992  17.0088  17.0929  17.4752  17.4760  17.9405  17.9949
    19.4449  19.5391

          k = 0.0000 0.3750 0.0242 ( 13870 PWs)   bands (ev):

   -66.7662 -66.7657 -66.7656 -66.7649 -66.6025 -66.6016 -62.2077 -62.2068
   -35.5349 -35.5346 -35.5316 -35.5305 -35.4942 -35.4929 -35.4918 -35.4917
   -35.4836 -35.4823 -35.4812 -35.4811 -35.3797 -35.3787 -35.3273 -35.3265
   -35.3166 -35.3159 -31.0392 -31.0383 -31.0325 -31.0317 -31.0255 -31.0247
     7.6399   7.6926   7.7827   7.8983   8.0054   8.0926   8.1414   8.1679
     8.1802   8.2065   8.2483   8.3107   8.3871   8.4775   8.5891   8.6852
     8.8443   8.9200   8.9840   9.0148   9.1192   9.1816   9.2187   9.2213
     9.2252   9.2317   9.2475   9.2714   9.2946   9.3183   9.3251   9.4401
     9.4634   9.5353   9.5481   9.5863   9.6241   9.6727   9.7070   9.7405
     9.8235   9.9267   9.9991  10.0153  10.0720  10.0873  10.2645  10.3408
    10.3440  10.3642  10.3945  10.4654  10.4877  10.5410  10.5879  10.6740
    10.6936  10.8165  10.8554  10.9513  11.0775  11.1146  11.1658  11.1927
    11.2507  11.2611  11.3204  11.3561  11.4005  11.4118  11.4521  11.4694
    11.4913  11.4946  11.5073  11.5331  11.5586  11.5955  11.5997  11.6061
    11.6633  11.6974  11.7137  11.7425  11.7656  11.8059  11.8399  11.8639
    11.8838  11.8931  11.9835  12.0342  12.0514  12.0604  12.0614  12.0871
    12.1215  12.1654  12.1776  12.2281  12.2390  12.2714  12.3571  12.3829
    12.4084  12.4456  12.4750  12.5327  12.5709  12.5878  12.6575  12.6980
    12.7305  12.7936  12.9183  12.9596  12.9681  12.9735  13.1022  13.1181
    13.2712  13.8335  13.9642  14.1214  14.3376  14.4228  14.7694  14.8320
    15.2180  15.3381  15.5889  15.7613  15.9380  16.0468  16.7921  16.7922
    16.9054  16.9988  17.0093  17.0891  17.4752  17.4760  17.9408  17.9966
    19.4580  19.5863

          k = 0.0000 0.3750-0.0484 ( 13872 PWs)   bands (ev):

   -66.7662 -66.7657 -66.7656 -66.7649 -66.6025 -66.6016 -62.2077 -62.2068
   -35.5349 -35.5346 -35.5316 -35.5305 -35.4942 -35.4929 -35.4918 -35.4917
   -35.4836 -35.4823 -35.4812 -35.4811 -35.3797 -35.3787 -35.3273 -35.3265
   -35.3166 -35.3159 -31.0392 -31.0383 -31.0325 -31.0317 -31.0255 -31.0247
     7.6525   7.6682   7.8280   7.8505   8.0380   8.0685   8.1556   8.1593
     8.1834   8.1984   8.2750   8.2792   8.4166   8.4474   8.6370   8.6390
     8.8673   8.9176   8.9736   8.9961   9.1389   9.1846   9.2189   9.2234
     9.2252   9.2316   9.2531   9.2971   9.2975   9.3068   9.3146   9.3866
     9.4989   9.5028   9.5421   9.5876   9.6420   9.6745   9.7586   9.7598
     9.8163   9.9131   9.9226  10.0282  10.0717  10.0836  10.3303  10.3345
    10.3438  10.3611  10.4226  10.4638  10.4835  10.5163  10.5641  10.6528
    10.6672  10.8133  10.9100  11.0279  11.0399  11.0882  11.1954  11.2003
    11.2341  11.2403  11.3011  11.3730  11.3885  11.4237  11.4481  11.4635
    11.4936  11.4936  11.5088  11.5162  11.5563  11.5692  11.5854  11.6052
    11.6848  11.6874  11.7192  11.7569  11.8102  11.8138  11.8143  11.8276
    11.8667  11.8953  11.9969  12.0424  12.0592  12.0653  12.0940  12.1118
    12.1304  12.1423  12.1740  12.1788  12.2812  12.3648  12.3809  12.3969
    12.4119  12.4333  12.4842  12.4866  12.5263  12.5695  12.5751  12.6685
    12.7302  12.7939  12.9157  12.9640  12.9646  12.9742  13.1022  13.1181
    13.5278  13.5945  14.0029  14.0405  14.5455  14.5586  14.5965  14.6575
    15.3731  15.3816  15.6048  15.6252  15.9633  16.0376  16.7921  16.7922
    16.9166  16.9984  17.0099  17.0848  17.4752  17.4760  17.9412  17.9984
    19.4890  19.6031

          k = 0.0000-0.5000 0.0000 ( 13918 PWs)   bands (ev):

   -66.7666 -66.7661 -66.7661 -66.7653 -66.6029 -66.6021 -62.2071 -62.2062
   -35.5347 -35.5345 -35.5314 -35.5304 -35.4959 -35.4946 -35.4935 -35.4934
   -35.4835 -35.4822 -35.4811 -35.4810 -35.3795 -35.3785 -35.3289 -35.3282
   -35.3165 -35.3158 -31.0414 -31.0406 -31.0323 -31.0315 -31.0254 -31.0246
     8.1122   8.1124   8.1226   8.1227   8.1846   8.1847   8.2595   8.2596
     8.3640   8.3641   8.4363   8.4363   8.5001   8.5002   8.6317   8.6319
     8.6969   8.6971   8.8900   8.8901   9.1218   9.1218   9.1440   9.1442
     9.2101   9.2101   9.2151   9.2152   9.4009   9.4010   9.4041   9.4041
     9.4833   9.4834   9.6853   9.6854   9.7165   9.7166   9.7316   9.7317
     9.8230   9.8231   9.9413   9.9413  10.0279  10.0280  10.0823  10.0824
    10.2945  10.2946  10.4196  10.4196  10.5630  10.5632  10.5670  10.5670
    10.6853  10.6855  10.8836  10.8836  11.2149  11.2150  11.2852  11.2853
    11.4200  11.4203  11.4466  11.4470  11.5014  11.5015  11.5582  11.5582
    11.5788  11.5789  11.5861  11.5863  11.6428  11.6428  11.6876  11.6877
    11.7650  11.7650  11.7756  11.7757  11.8417  11.8419  11.9453  11.9454
    11.9788  11.9792  12.2275  12.2276  12.2712  12.2714  12.4058  12.4059
    12.4534  12.4535  12.5136  12.5136  12.5609  12.5610  12.6023  12.6026
    12.6551  12.6552  12.6767  12.6769  12.7913  12.7915  12.8774  12.8775
    12.9531  12.9531  12.9700  12.9700  13.0026  13.0027  13.1332  13.1333
    13.2705  13.2706  13.4405  13.4406  13.8357  13.8358  13.8807  13.8809
    14.4068  14.4069  14.4765  14.4767  14.7945  14.7946  16.6780  16.6785
    16.7733  16.7734  16.8637  16.8643  17.5492  17.5500  17.9402  17.9410
    19.4822  19.4822

          k = 0.0000-0.5000 0.0242 ( 13918 PWs)   bands (ev):

   -66.7666 -66.7661 -66.7661 -66.7653 -66.6029 -66.6021 -62.2071 -62.2062
   -35.5347 -35.5345 -35.5314 -35.5304 -35.4959 -35.4946 -35.4935 -35.4934
   -35.4835 -35.4822 -35.4811 -35.4810 -35.3795 -35.3785 -35.3289 -35.3282
   -35.3165 -35.3158 -31.0414 -31.0406 -31.0323 -31.0315 -31.0254 -31.0246
     8.1084   8.1085   8.1297   8.1298   8.1779   8.1780   8.2669   8.2669
     8.3559   8.3559   8.4432   8.4432   8.4972   8.4973   8.6307   8.6309
     8.7000   8.7002   8.8857   8.8859   9.1219   9.1219   9.1439   9.1440
     9.2152   9.2153   9.2211   9.2211   9.3904   9.3905   9.4006   9.4007
     9.4837   9.4837   9.6869   9.6869   9.7162   9.7163   9.7372   9.7374
     9.8207   9.8208   9.9417   9.9417  10.0277  10.0277  10.0953  10.0954
    10.2757  10.2758  10.4195  10.4195  10.5614  10.5616  10.5673  10.5673
    10.6851  10.6853  10.9002  10.9003  11.2150  11.2150  11.2950  11.2950
    11.3870  11.3871  11.4596  11.4599  11.5024  11.5025  11.5422  11.5425
    11.5767  11.5769  11.5904  11.5904  11.6236  11.6236  11.7168  11.7169
    11.7604  11.7604  11.7754  11.7755  11.8373  11.8375  11.9782  11.9782
    11.9793  11.9797  12.2266  12.2267  12.2405  12.2406  12.4074  12.4074
    12.4691  12.4691  12.5123  12.5124  12.5590  12.5590  12.5869  12.5871
    12.6739  12.6740  12.6783  12.6784  12.7907  12.7909  12.8456  12.8456
    12.9703  12.9703  12.9928  12.9928  13.0024  13.0025  13.1332  13.1333
    13.2329  13.2330  13.4845  13.4846  13.7456  13.7457  13.9773  13.9773
    14.3059  14.3060  14.5762  14.5763  14.7680  14.7681  16.6786  16.6791
    16.7733  16.7734  16.8636  16.8642  17.5492  17.5500  17.9403  17.9411
    19.5106  19.5106

          k = 0.0000-0.5000-0.0484 ( 13892 PWs)   bands (ev):

   -66.7666 -66.7661 -66.7661 -66.7653 -66.6029 -66.6021 -62.2071 -62.2062
   -35.5347 -35.5345 -35.5314 -35.5304 -35.4959 -35.4946 -35.4935 -35.4934
   -35.4835 -35.4822 -35.4811 -35.4810 -35.3795 -35.3785 -35.3289 -35.3282
   -35.3165 -35.3158 -31.0414 -31.0406 -31.0323 -31.0315 -31.0254 -31.0246
     8.1061   8.1062   8.1362   8.1364   8.1705   8.1707   8.2745   8.2745
     8.3477   8.3477   8.4500   8.4500   8.4938   8.4938   8.6297   8.6299
     8.7031   8.7032   8.8815   8.8816   9.1220   9.1220   9.1437   9.1438
     9.2154   9.2155   9.2335   9.2336   9.3754   9.3755   9.4003   9.4004
     9.4840   9.4841   9.6880   9.6881   9.7160   9.7161   9.7432   9.7434
     9.8181   9.8183   9.9421   9.9421  10.0274  10.0274  10.1113  10.1114
    10.2540  10.2541  10.4194  10.4194  10.5601  10.5603  10.5676  10.5676
    10.6849  10.6851  10.9170  10.9170  11.2150  11.2151  11.3201  11.3202
    11.3431  11.3432  11.4670  11.4673  11.5036  11.5037  11.5281  11.5285
    11.5755  11.5757  11.5925  11.5926  11.6158  11.6158  11.7401  11.7401
    11.7501  11.7502  11.7752  11.7753  11.8343  11.8345  11.9797  11.9801
    12.0160  12.0160  12.2052  12.2053  12.2257  12.2258  12.4089  12.4090
    12.4858  12.4859  12.5088  12.5088  12.5570  12.5571  12.5747  12.5749
[...]
    11.8468  11.8469  11.8752  11.8753  11.9196  11.9197  11.9903  11.9904
    12.0709  12.0710  12.2361  12.2362  12.3261  12.3262  12.4216  12.4216
    12.4589  12.4589  12.8116  12.8116  12.8858  12.8859  13.0663  13.0664
    13.2444  13.2445  13.6954  13.6956  13.8062  13.8062  14.1536  14.1538
    14.4052  14.4054  14.7154  14.7157  14.8818  14.8819  15.4545  15.4547
    16.1300  16.1303  16.9032  16.9034  16.9739  16.9741  17.0844  17.0847
    17.0913  17.0916  17.1567  17.1571  17.1660  17.1664  17.4783  17.4784
    17.5029  17.5030  17.8152  17.8154  17.8748  17.8750  18.1453  18.1460
    18.2009  18.2009  18.2905  18.2907  18.4414  18.4417  18.5724  18.5725
    19.9710  19.9711

          k = 0.3750 0.3750 0.0000 ( 13948 PWs)   bands (ev):

   -66.8001 -66.7993 -62.1633 -62.1622 -62.1612 -62.1612 -62.0391 -62.0386
   -35.5715 -35.5710 -35.5257 -35.5257 -35.5248 -35.5247 -30.9961 -30.9959
   -30.9950 -30.9948 -30.9920 -30.9919 -30.9918 -30.9917 -30.9860 -30.9857
   -30.9841 -30.9834 -30.8700 -30.8693 -30.8691 -30.8689 -30.8686 -30.8684
     8.1538   8.1977   8.4956   8.5010   8.5209   8.7161   8.7183   8.8452
     9.0438   9.0472   9.0994   9.1268   9.2190   9.2220   9.2756   9.3070
     9.3195   9.3386   9.3620   9.4284   9.4335   9.4355   9.5156   9.5236
     9.5369   9.5654   9.5863   9.6252   9.6983   9.7220   9.7262   9.8914
     9.9632   9.9801  10.0110  10.0285  10.1126  10.1183  10.1255  10.1474
    10.2290  10.2732  10.2733  10.4178  10.4752  10.4827  10.5940  10.5949
    10.6538  10.6895  10.7009  10.7473  10.7873  10.8086  10.9215  10.9619
    10.9884  11.0977  11.1149  11.1953  11.1980  11.2589  11.2622  11.3555
    11.4457  11.4842  11.4895  11.5474  11.5616  11.6107  11.6132  11.6224
    11.7577  11.8821  11.8958  11.9504  11.9638  11.9711  11.9807  12.0428
    12.0574  12.0682  12.1166  12.1190  12.1573  12.2208  12.2458  12.2482
    12.3727  12.4270  12.5228  12.6586  12.6623  12.9348  12.9652  13.1818
    13.3645  13.5358  13.8704  14.2254  14.2433  14.6362  14.7541  14.8971
    15.0948  15.1549  15.2234  15.3461  15.3529  15.4829  16.3130  16.3521
    16.3906  16.4927  16.9487  17.0280  17.0481  17.0719  17.0923  17.1279
    17.1416  17.2555  17.2720  17.2948  17.4699  17.5318  17.5388  17.7663
    17.8239  17.8658  17.8673  17.8976  17.9423  18.0172  18.1651  18.1969
    18.3417  18.3741  18.3775  18.4137  18.5358  18.9700  18.9968  19.0192
    19.0337  19.1310

          k = 0.3750 0.3750 0.0242 ( 13940 PWs)   bands (ev):

   -66.8001 -66.7993 -62.1633 -62.1622 -62.1612 -62.1612 -62.0391 -62.0386
   -35.5715 -35.5710 -35.5257 -35.5257 -35.5248 -35.5247 -30.9961 -30.9959
   -30.9950 -30.9948 -30.9920 -30.9919 -30.9918 -30.9917 -30.9860 -30.9857
   -30.9841 -30.9834 -30.8700 -30.8693 -30.8691 -30.8689 -30.8686 -30.8684
     8.1552   8.1954   8.4892   8.5100   8.5325   8.6483   8.7833   8.8438
     9.0395   9.0470   9.0781   9.1507   9.1939   9.2276   9.2627   9.3201
     9.3373   9.3416   9.3712   9.4036   9.4353   9.4645   9.4836   9.5102
     9.5604   9.5622   9.5895   9.6369   9.6647   9.6961   9.7884   9.9074
     9.9253   9.9802   9.9870  10.0413  10.0915  10.1173  10.1432  10.2013
    10.2331  10.2390  10.2771  10.4056  10.4418  10.5219  10.5819  10.6200
    10.6321  10.6933  10.7141  10.7489  10.7746  10.8215  10.9215  10.9387
    10.9887  11.0972  11.1283  11.1898  11.2118  11.2538  11.2684  11.3436
    11.4484  11.4735  11.4993  11.5434  11.5643  11.6082  11.6159  11.6218
    11.7697  11.8443  11.9345  11.9510  11.9625  11.9714  11.9806  12.0225
    12.0474  12.0930  12.0987  12.1429  12.1494  12.2237  12.2411  12.2441
    12.3782  12.4241  12.5311  12.6064  12.7235  12.8763  13.0218  13.1571
    13.3839  13.5216  13.8819  14.1672  14.3061  14.6025  14.7883  14.8845
    15.0993  15.1442  15.2339  15.3307  15.3642  15.4827  16.3135  16.3514
    16.3944  16.4877  16.9579  17.0122  17.0573  17.0718  17.0905  17.1292
    17.1416  17.2604  17.2643  17.3070  17.4385  17.5368  17.5551  17.7654
    17.8268  17.8657  17.8673  17.8886  17.9471  18.0276  18.1577  18.2011
    18.2895  18.3139  18.4688  18.4796  18.5944  18.8066  18.8642  18.9193
    19.0458  19.2721

          k = 0.3750 0.3750-0.0484 ( 13950 PWs)   bands (ev):

   -66.8001 -66.7993 -62.1633 -62.1622 -62.1612 -62.1612 -62.0391 -62.0386
   -35.5715 -35.5710 -35.5257 -35.5257 -35.5248 -35.5247 -30.9961 -30.9959
   -30.9950 -30.9948 -30.9920 -30.9919 -30.9918 -30.9917 -30.9860 -30.9857
   -30.9841 -30.9834 -30.8700 -30.8693 -30.8691 -30.8689 -30.8686 -30.8684
     8.1568   8.1929   8.4871   8.5116   8.5588   8.6038   8.8207   8.8362
     9.0306   9.0444   9.0756   9.1634   9.1672   9.2352   9.2757   9.3188
     9.3208   9.3360   9.3963   9.4324   9.4508   9.4540   9.4589   9.4773
     9.5651   9.5834   9.6086   9.6125   9.6544   9.6880   9.8542   9.8589
     9.9370   9.9803   9.9845   9.9906  10.1190  10.1406  10.1529  10.1845
    10.2378  10.2383  10.3062  10.3401  10.4642  10.5323  10.5756  10.6129
    10.6435  10.6912  10.7228  10.7569  10.7616  10.8329  10.9147  10.9215
    10.9890  11.0967  11.1383  11.1878  11.2255  11.2489  11.2751  11.3286
    11.4527  11.4657  11.5049  11.5397  11.5664  11.6067  11.6180  11.6208
    11.7934  11.8112  11.9518  11.9612  11.9716  11.9737  11.9805  11.9849
    12.0541  12.0795  12.1249  12.1318  12.1555  12.2270  12.2332  12.2420
    12.3843  12.4206  12.5467  12.5751  12.7735  12.8239  13.0689  13.1202
    13.4053  13.5042  13.8942  14.1378  14.3417  14.5727  14.8278  14.8599
    15.1060  15.1325  15.2440  15.3206  15.3694  15.4826  16.3141  16.3507
    16.3986  16.4824  16.9739  16.9931  17.0634  17.0714  17.0885  17.1305
    17.1416  17.2530  17.2748  17.3151  17.4136  17.5348  17.5702  17.7646
    17.8314  17.8657  17.8673  17.8760  17.9636  18.0193  18.1826  18.2071
    18.2474  18.2636  18.5953  18.6006  18.6357  18.6447  18.6986  18.8780
    19.0619  19.2179

          k = 0.3750-0.5000 0.0000 ( 13934 PWs)   bands (ev):

   -66.8002 -66.7994 -62.1630 -62.1620 -62.1610 -62.1609 -62.0389 -62.0384
   -35.5714 -35.5709 -35.5273 -35.5264 -35.5255 -35.5246 -30.9982 -30.9971
   -30.9958 -30.9947 -30.9941 -30.9940 -30.9917 -30.9916 -30.9859 -30.9856
   -30.9840 -30.9832 -30.8712 -30.8707 -30.8698 -30.8691 -30.8688 -30.8683
     8.2787   8.2792   8.3229   8.3234   8.6575   8.6579   8.7679   8.7681
     8.9991   8.9995   9.1511   9.1512   9.1866   9.1867   9.2531   9.2534
     9.3058   9.3058   9.3174   9.3175   9.3994   9.3996   9.4788   9.4789
     9.5095   9.5096   9.6707   9.6707   9.6765   9.6766   9.9320   9.9320
     9.9548   9.9549  10.0088  10.0088  10.0870  10.0871  10.2129  10.2132
    10.3485  10.3485  10.4108  10.4108  10.5873  10.5876  10.6625  10.6626
    10.7329  10.7331  10.8296  10.8297  10.9453  10.9454  11.1347  11.1350
    11.2089  11.2091  11.2588  11.2588  11.3933  11.3934  11.4476  11.4479
    11.6071  11.6072  11.6605  11.6606  11.7426  11.7426  11.8070  11.8071
    11.9423  11.9424  11.9646  11.9647  12.0203  12.0204  12.0872  12.0872
    12.1144  12.1144  12.1865  12.1866  12.2832  12.2832  12.3379  12.3380
    12.3956  12.3957  12.9616  12.9617  13.0995  13.0997  13.2242  13.2244
    13.6989  13.6989  14.1850  14.1851  14.3348  14.3349  14.4925  14.4925
    14.5865  14.5866  14.7975  14.7975  15.3933  15.3934  15.7435  15.7436
    16.7957  16.7959  17.0237  17.0237  17.0530  17.0531  17.0879  17.0886
    17.1548  17.1549  17.2727  17.2728  17.5150  17.5151  17.8076  17.8077
    17.9513  17.9517  18.0153  18.0153  18.1010  18.1010  18.1563  18.1567
    18.3431  18.3432  18.5445  18.5447  18.7661  18.7662  18.9245  18.9245
    19.0477  19.0477

          k = 0.3750-0.5000 0.0242 ( 13948 PWs)   bands (ev):

   -66.8002 -66.7994 -62.1630 -62.1620 -62.1610 -62.1609 -62.0389 -62.0384
   -35.5714 -35.5709 -35.5273 -35.5264 -35.5255 -35.5246 -30.9982 -30.9971
   -30.9958 -30.9947 -30.9941 -30.9940 -30.9917 -30.9916 -30.9859 -30.9856
   -30.9840 -30.9832 -30.8712 -30.8707 -30.8698 -30.8691 -30.8688 -30.8683
     8.2793   8.2798   8.3219   8.3224   8.6652   8.6655   8.7540   8.7542
     9.0195   9.0198   9.1425   9.1427   9.1849   9.1850   9.2246   9.2248
     9.3101   9.3102   9.3458   9.3460   9.3945   9.3947   9.4752   9.4753
     9.5200   9.5201   9.6197   9.6198   9.7348   9.7348   9.8754   9.8755
     9.9890   9.9891  10.0111  10.0111  10.1087  10.1087  10.2070  10.2072
    10.2965  10.2966  10.4630  10.4630  10.5861  10.5864  10.6560  10.6561
    10.7326  10.7327  10.8072  10.8074  10.9668  10.9669  11.1418  11.1420
    11.2090  11.2093  11.2405  11.2405  11.3973  11.3975  11.4542  11.4543
    11.5983  11.5984  11.6672  11.6672  11.7416  11.7417  11.8063  11.8064
    11.9446  11.9447  11.9631  11.9632  12.0187  12.0188  12.0882  12.0882
    12.1143  12.1143  12.1859  12.1860  12.2849  12.2849  12.3447  12.3447
    12.3872  12.3873  12.9682  12.9683  13.0892  13.0894  13.2292  13.2293
    13.6982  13.6983  14.1880  14.1881  14.3269  14.3270  14.5086  14.5086
    14.5739  14.5740  14.7992  14.7992  15.3932  15.3933  15.7435  15.7436
    16.7962  16.7964  17.0228  17.0229  17.0532  17.0533  17.0873  17.0879
    17.1488  17.1489  17.2865  17.2865  17.5025  17.5026  17.8253  17.8254
    17.9329  17.9331  18.0259  18.0260  18.0921  18.0922  18.1679  18.1682
    18.3205  18.3206  18.5574  18.5576  18.7927  18.7928  18.9247  18.9247
    19.0178  19.0178

          k = 0.3750-0.5000-0.0484 ( 13940 PWs)   bands (ev):

   -66.8002 -66.7994 -62.1630 -62.1620 -62.1610 -62.1609 -62.0389 -62.0384
   -35.5714 -35.5709 -35.5273 -35.5264 -35.5255 -35.5246 -30.9982 -30.9971
   -30.9958 -30.9947 -30.9941 -30.9940 -30.9917 -30.9916 -30.9859 -30.9856
   -30.9840 -30.9832 -30.8712 -30.8707 -30.8698 -30.8691 -30.8688 -30.8683
     8.2799   8.2804   8.3209   8.3213   8.6754   8.6758   8.7382   8.7385
     9.0457   9.0460   9.1249   9.1251   9.1825   9.1825   9.2093   9.2094
     9.3116   9.3118   9.3687   9.3690   9.3901   9.3902   9.4681   9.4683
     9.5383   9.5384   9.5887   9.5888   9.7885   9.7885   9.8189   9.8189
     9.9979   9.9980  10.0147  10.0148  10.1541  10.1542  10.1783  10.1784
    10.2643  10.2646  10.4997  10.4998  10.5849  10.5852  10.6455  10.6456
    10.7327  10.7328  10.7895  10.7897  10.9839  10.9839  11.1531  11.1533
    11.2104  11.2106  11.2178  11.2179  11.4001  11.4004  11.4614  11.4615
    11.5902  11.5903  11.6728  11.6728  11.7405  11.7406  11.8056  11.8057
    11.9475  11.9476  11.9610  11.9611  12.0171  12.0172  12.0891  12.0891
    12.1141  12.1141  12.1853  12.1855  12.2864  12.2865  12.3573  12.3573
    12.3731  12.3732  12.9758  12.9759  13.0784  13.0786  13.2337  13.2338
    13.6975  13.6976  14.1912  14.1913  14.3193  14.3195  14.5402  14.5403
    14.5453  14.5454  14.8008  14.8008  15.3932  15.3933  15.7435  15.7436
    16.7967  16.7969  17.0219  17.0220  17.0534  17.0535  17.0867  17.0873
    17.1439  17.1439  17.3002  17.3003  17.4894  17.4895  17.8491  17.8492
    17.9099  17.9100  18.0358  18.0361  18.0833  18.0834  18.1800  18.1802
    18.2984  18.2985  18.5674  18.5676  18.8294  18.8295  18.9259  18.9259
    18.9776  18.9776

          k =-0.5000-0.5000 0.0000 ( 13964 PWs)   bands (ev):

   -66.8002 -66.7994 -62.1629 -62.1619 -62.1608 -62.1608 -62.0387 -62.0382
   -35.5713 -35.5708 -35.5271 -35.5271 -35.5262 -35.5262 -30.9980 -30.9980
   -30.9969 -30.9969 -30.9939 -30.9939 -30.9937 -30.9937 -30.9858 -30.9854
   -30.9839 -30.9831 -30.8710 -30.8710 -30.8705 -30.8705 -30.8697 -30.8690
     8.1979   8.1984   8.2485   8.2489   8.6140   8.6144   8.7452   8.7455
     8.9221   8.9225   9.2087   9.2089   9.2285   9.2289   9.2524   9.2524
     9.2821   9.2821   9.3468   9.3468   9.4368   9.4370   9.4600   9.4600
     9.4672   9.4672   9.7100   9.7100   9.7111   9.7111   9.9410   9.9410
     9.9416   9.9416   9.9497   9.9503  10.0541  10.0541  10.0860  10.0860
    10.4925  10.4925  10.5569  10.5572  10.5728  10.5728  10.6387  10.6389
    10.7069  10.7070  11.0721  11.0721  11.0784  11.0784  11.1644  11.1648
    11.2786  11.2788  11.4124  11.4132  11.5214  11.5214  11.8803  11.8803
    11.9274  11.9274  11.9743  11.9744  11.9840  11.9841  12.0177  12.0177
    12.0389  12.0392  12.0484  12.0484  12.0777  12.0780  12.0838  12.0840
    12.1327  12.1329  12.1505  12.1507  12.2168  12.2171  12.2713  12.2714
    12.3252  12.3253  13.3946  13.3948  13.4080  13.4081  13.4467  13.4469
    13.9053  13.9053  14.0621  14.0621  14.2471  14.2471  14.5719  14.5719
    14.5802  14.5802  14.8218  14.8218  15.9107  15.9107  15.9277  15.9277
    16.6214  16.6216  16.7932  16.7933  16.9134  16.9141  17.1106  17.1108
    17.1716  17.1716  17.4808  17.4808  17.5514  17.5514  17.7647  17.7648
    17.9751  17.9753  18.0812  18.0824  18.0912  18.0913  18.1804  18.1806
    18.2260  18.2264  18.3411  18.3411  18.4195  18.4195  18.4922  18.4922
    18.8391  18.8394

          k =-0.5000-0.5000 0.0242 ( 13960 PWs)   bands (ev):

   -66.8002 -66.7994 -62.1629 -62.1619 -62.1608 -62.1608 -62.0387 -62.0382
   -35.5713 -35.5708 -35.5271 -35.5271 -35.5262 -35.5262 -30.9980 -30.9980
   -30.9969 -30.9969 -30.9939 -30.9939 -30.9937 -30.9937 -30.9858 -30.9854
   -30.9839 -30.9831 -30.8710 -30.8710 -30.8705 -30.8705 -30.8697 -30.8690
     8.1983   8.1989   8.2477   8.2481   8.6227   8.6231   8.7245   8.7248
     8.9533   8.9537   9.1348   9.1351   9.2536   9.2536   9.2786   9.2786
     9.2982   9.2986   9.3572   9.3572   9.4197   9.4197   9.4214   9.4217
     9.5148   9.5148   9.6383   9.6383   9.7897   9.7897   9.9402   9.9402
     9.9416   9.9416   9.9503   9.9509   9.9699   9.9699  10.1769  10.1769
    10.4047  10.4047  10.5562  10.5566  10.6396  10.6398  10.6604  10.6604
    10.7066  10.7067  10.9537  10.9537  11.1644  11.1647  11.1878  11.1878
    11.2786  11.2788  11.4124  11.4132  11.4927  11.4927  11.9001  11.9001
    11.9274  11.9274  11.9743  11.9744  11.9840  11.9841  12.0177  12.0177
    12.0381  12.0381  12.0389  12.0392  12.0777  12.0780  12.0838  12.0840
    12.1327  12.1329  12.1505  12.1507  12.2170  12.2172  12.2711  12.2712
    12.3252  12.3254  13.3946  13.3948  13.4080  13.4081  13.4467  13.4469
    13.9179  13.9179  14.0347  14.0347  14.2716  14.2716  14.5301  14.5301
    14.6134  14.6134  14.8208  14.8208  15.9108  15.9108  15.9276  15.9276
    16.6214  16.6217  16.7927  16.7927  16.9149  16.9156  17.1087  17.1089
    17.1869  17.1869  17.3859  17.3859  17.6762  17.6762  17.7819  17.7821
    17.9390  17.9391  18.0812  18.0824  18.0912  18.0913  18.1448  18.1448
    18.2090  18.2092  18.2260  18.2264  18.4820  18.4820  18.6394  18.6394
    18.8426  18.8431

          k =-0.5000-0.5000-0.0484 ( 13992 PWs)   bands (ev):

   -66.8002 -66.7994 -62.1629 -62.1619 -62.1608 -62.1608 -62.0387 -62.0382
   -35.5713 -35.5708 -35.5271 -35.5271 -35.5262 -35.5262 -30.9980 -30.9980
   -30.9969 -30.9969 -30.9939 -30.9939 -30.9937 -30.9937 -30.9858 -30.9854
   -30.9839 -30.9831 -30.8710 -30.8710 -30.8705 -30.8705 -30.8697 -30.8690
     8.1988   8.1994   8.2468   8.2473   8.6348   8.6351   8.7029   8.7032
     8.9958   8.9962   9.0804   9.0807   9.2550   9.2550   9.2752   9.2752
     9.3481   9.3484   9.3796   9.3796   9.3874   9.3874   9.3930   9.3932
     9.5698   9.5698   9.5761   9.5761   9.8752   9.8752   9.8761   9.8761
     9.9418   9.9418   9.9420   9.9420   9.9509   9.9515  10.2744  10.2744
    10.3035  10.3035  10.5556  10.5560  10.6404  10.6406  10.7062  10.7064
    10.7385  10.7385  10.8726  10.8726  11.1643  11.1647  11.2454  11.2454
    11.2786  11.2788  11.4124  11.4132  11.4584  11.4584  11.9219  11.9219
    11.9274  11.9274  11.9743  11.9744  11.9840  11.9841  12.0177  12.0177
    12.0248  12.0248  12.0389  12.0392  12.0777  12.0780  12.0838  12.0840
    12.1327  12.1329  12.1504  12.1506  12.2171  12.2174  12.2710  12.2711
    12.3253  12.3254  13.3946  13.3948  13.4080  13.4081  13.4467  13.4469
    13.9373  13.9373  14.0035  14.0035  14.2950  14.2950  14.5056  14.5056
    14.6275  14.6275  14.8198  14.8198  15.9109  15.9109  15.9275  15.9275
    16.6214  16.6217  16.7921  16.7922  16.9165  16.9172  17.1068  17.1069
    17.2099  17.2099  17.3267  17.3267  17.7911  17.7911  17.8078  17.8079
    17.8984  17.8986  18.0042  18.0042  18.0812  18.0824  18.0912  18.0913
    18.2260  18.2264  18.2347  18.2348  18.4707  18.4707  18.8463  18.8465
    18.9018  18.9018

     the Fermi energy is    15.2743 ev

!    total energy              =  -14694.00500684 Ry
     Harris-Foulkes estimate   =  -14694.00500486 Ry
     estimated scf accuracy    <       0.00000063 Ry

     total all-electron energy =   -626921.600729 Ry

     The total energy is the sum of the following terms:

     one-electron contribution =    -714.47915148 Ry
     hartree contribution      =     656.53245971 Ry
     xc contribution           =    -737.87757633 Ry
     ewald contribution        =   -2196.78933708 Ry
     Hubbard energy            =       0.45020693 Ry
     one-center paw contrib.   =  -11701.84160858 Ry

     total magnetization       =    17.43 Bohr mag/cell
     absolute magnetization    =    37.25 Bohr mag/cell

     convergence has been achieved in  32 iterations

     Writing output data file mnau2.save/
 
     init_run     :     84.78s CPU     86.51s WALL (       1 calls)
     electrons    :   5420.33s CPU   5523.77s WALL (       1 calls)

     Called by init_run:
     wfcinit      :     81.04s CPU     82.57s WALL (       1 calls)
     potinit      :      1.53s CPU      1.60s WALL (       1 calls)
     hinit0       :      1.19s CPU      1.26s WALL (       1 calls)

     Called by electrons:
     c_bands      :   4729.38s CPU   4813.83s WALL (      32 calls)
     sum_band     :    637.69s CPU    654.18s WALL (      32 calls)
     v_of_rho     :      3.87s CPU      3.92s WALL (      33 calls)
     newd         :     16.82s CPU     17.02s WALL (      33 calls)
     PAW_pot      :     32.37s CPU     32.65s WALL (      33 calls)
     mix_rho      :      1.03s CPU      1.09s WALL (      32 calls)

     Called by c_bands:
     init_us_2    :     12.89s CPU     13.06s WALL (    5940 calls)
     cegterg      :   4588.61s CPU   4670.48s WALL (    2880 calls)

     Called by sum_band:
     sum_band:bec :      6.76s CPU      6.81s WALL (    2880 calls)
     addusdens    :     20.69s CPU     20.85s WALL (      32 calls)

     Called by *egterg:
     h_psi        :   2244.19s CPU   2293.83s WALL (    8969 calls)
     s_psi        :    305.92s CPU    306.18s WALL (    9059 calls)
     g_psi        :      3.09s CPU      3.12s WALL (    5999 calls)
     cdiaghg      :   1230.97s CPU   1258.95s WALL (    8879 calls)

     Called by h_psi:
     h_psi:pot    :   2081.13s CPU   2129.60s WALL (    8969 calls)
     h_psi:calbec :    387.38s CPU    398.98s WALL (    8969 calls)
     vloc_psi     :   1395.36s CPU   1431.98s WALL (    8969 calls)
     add_vuspsi   :    298.18s CPU    298.48s WALL (    8969 calls)
     vhpsi        :    159.49s CPU    160.59s WALL (    8969 calls)

     General routines
     calbec       :    699.92s CPU    718.44s WALL (   23788 calls)
     fft          :      3.06s CPU      3.12s WALL (     821 calls)
     ffts         :      0.19s CPU      0.20s WALL (     130 calls)
     fftw         :   1683.27s CPU   1727.28s WALL ( 2656464 calls)
     interpolate  :      0.38s CPU      0.39s WALL (      66 calls)
     davcio       :      0.01s CPU      3.15s WALL (      90 calls)
 
     Parallel routines
     fft_scatt_xy :     65.62s CPU     66.98s WALL ( 2657415 calls)
     fft_scatt_yz :   1311.06s CPU   1347.19s WALL ( 2657415 calls)

     Hubbard U routines
     new_ns       :     27.94s CPU     29.71s WALL (      32 calls)
     vhpsi        :    159.49s CPU    160.59s WALL (    8969 calls)
 
     PWSCF        :     1h32m CPU       32h 1m WALL

      36h
 
   This run was terminated on:   7:48:40   8Apr2019            

=------------------------------------------------------------------------------=
   JOB DONE.
=------------------------------------------------------------------------------=
