
     Program PWSCF v.6.3MaX starts on  8Apr2019 at  7:48:45 

     This program is part of the open-source Quantum ESPRESSO suite
     for quantum simulation of materials; please cite
         "P. Giannozzi et al., J. Phys.:Condens. Matter 21 395502 (2009);
         "P. Giannozzi et al., J. Phys.:Condens. Matter 29 465901 (2017);
          URL http://www.quantum-espresso.org", 
     in publications or presentations arising from this work. More details at
     http://www.quantum-espresso.org/quote

     Parallel version (MPI), running on    32 processors

     MPI processes distributed on     2 nodes
     R & G space division:  proc/nbgrp/npool/nimage =      32
     Waiting for input...
     Reading input from standard input

     Current dimensions of program PWSCF are:
     Max number of different atomic species (ntypx) = 10
     Max number of k-points (npk) =  40000
     Max angular momentum in pseudopotentials (lmaxx) =  3
               file Mn.pbe-spn-kjpaw_psl.0.3.1.UPF: wavefunction(s)  3P 3D renormalized
               file Mn.pbe-spn-kjpaw_psl.0.3.1.UPF: wavefunction(s)  3P 3D renormalized
               file Au.pbe-dn-kjpaw_psl.0.1.UPF: wavefunction(s)  6S 6P 5D renormalized

     Subspace diagonalization in iterative solution of the eigenvalue problem:
     one sub-group per band group will be used
     scalapack distributed-memory algorithm (size of sub-group:  4*  4 procs)

 
     Parallelization info
     --------------------
     sticks:   dense  smooth     PW     G-vecs:    dense   smooth      PW
     Min          41      18      5                11487     3460     563
     Max          42      19      6                11527     3505     606
     Sum        1313     593    177               368373   111379   18691
 


     bravais-lattice index     =            0
     lattice parameter (alat)  =       6.4153  a.u.
     unit-cell volume          =    2724.7774 (a.u.)^3
     number of atoms/cell      =           24
     number of atomic types    =            3
     number of electrons       =       296.00
     number of Kohn-Sham states=          178
     kinetic-energy cutoff     =      45.0000  Ry
     charge density cutoff     =     400.0000  Ry
     convergence threshold     =      1.0E-06
     mixing beta               =       0.1000
     number of iterations used =            8  plain     mixing
     Exchange-correlation      = SLA PW PBX PBC ( 1  4  3  4 0 0)

     celldm(1)=   6.415315  celldm(2)=   0.000000  celldm(3)=   0.000000
     celldm(4)=   0.000000  celldm(5)=   0.000000  celldm(6)=   0.000000

     crystal axes: (cart. coord. in units of alat)
               a(1) = (   1.000000   0.000000   0.000000 )  
               a(2) = (   0.000000   1.000000   0.000000 )  
               a(3) = (   0.000000   0.000000  10.319937 )  

     reciprocal axes: (cart. coord. in units 2 pi/alat)
               b(1) = (  1.000000  0.000000  0.000000 )  
               b(2) = (  0.000000  1.000000  0.000000 )  
               b(3) = (  0.000000  0.000000  0.096900 )  


     PseudoPot. # 1 for Mn read from file:
     ./pseudo/Mn.pbe-spn-kjpaw_psl.0.3.1.UPF
     MD5 check sum: 7b43a3fb0e93e198b8dd8488d8cf503e
     Pseudo is Projector augmented-wave + core cor, Zval = 15.0
     Generated using "atomic" code by A. Dal Corso v.5.0.99 svn rev. 10869
     Shape of augmentation charge: PSQ
     Using radial grid of 1187 points,  6 beta functions with: 
                l(1) =   0
                l(2) =   0
                l(3) =   1
                l(4) =   1
                l(5) =   2
                l(6) =   2
     Q(r) pseudized with 0 coefficients 


     PseudoPot. # 2 for Mn read from file:
     ./pseudo/Mn.pbe-spn-kjpaw_psl.0.3.1.UPF
     MD5 check sum: 7b43a3fb0e93e198b8dd8488d8cf503e
     Pseudo is Projector augmented-wave + core cor, Zval = 15.0
     Generated using "atomic" code by A. Dal Corso v.5.0.99 svn rev. 10869
     Shape of augmentation charge: PSQ
     Using radial grid of 1187 points,  6 beta functions with: 
                l(1) =   0
                l(2) =   0
                l(3) =   1
                l(4) =   1
                l(5) =   2
                l(6) =   2
     Q(r) pseudized with 0 coefficients 


     PseudoPot. # 3 for Au read from file:
     ./pseudo/Au.pbe-dn-kjpaw_psl.0.1.UPF
     MD5 check sum: be11e2e8e535ebe2b3ccfb4f88f554cb
     Pseudo is Projector augmented-wave + core cor, Zval = 11.0
     Generated using "atomic" code by A. Dal Corso v.5.0.2 svn rev. 9415
     Shape of augmentation charge: PSQ
     Using radial grid of 1279 points,  6 beta functions with: 
                l(1) =   0
                l(2) =   0
                l(3) =   1
                l(4) =   1
                l(5) =   2
                l(6) =   2
     Q(r) pseudized with 0 coefficients 


     atomic species   valence    mass     pseudopotential
        Mn1           15.00    54.93800     Mn( 1.00)
        Mn2           15.00    54.93800     Mn( 1.00)
        Au            11.00   196.96600     Au( 1.00)

     Starting magnetic structure 
     atomic species   magnetization
        Mn1          0.800
        Mn2         -0.800
        Au           0.000


     Full LDA+U calculation (l_max = 2) with parameters (eV):
     U(  1) =   3.1200   J(  1) =   0.7000   B(  1) =   0.0803
     U(  2) =   3.1200   J(  2) =   0.7000   B(  2) =   0.0803



      8 Sym. Ops. (no inversion) found



   Cartesian axes

     site n.     atom                  positions (alat units)
         1           Mn1 tau(   1) = (   0.0000000   0.0000000   0.0000000  )
         2           Mn1 tau(   2) = (   0.5000000   0.5000000   1.2899921  )
         3           Mn1 tau(   3) = (   0.0000000   0.0000000   2.5799843  )
         4           Mn1 tau(   4) = (   0.5000000   0.5000000   3.8699764  )
         5           Mn2 tau(   5) = (   0.0000000   0.0000000   5.1599686  )
         6           Mn1 tau(   6) = (   0.5000000   0.5000000   6.4499607  )
         7           Mn2 tau(   7) = (   0.0000000   0.0000000   7.7399528  )
         8           Mn2 tau(   8) = (   0.5000000   0.5000000   9.0299450  )
         9           Au  tau(   9) = (   0.5000000   0.5000000   0.4127975  )
        10           Au  tau(  10) = (   0.0000000   0.0000000   0.8771947  )
        11           Au  tau(  11) = (   0.0000000   0.0000000   1.7027896  )
        12           Au  tau(  12) = (   0.5000000   0.5000000   2.1671868  )
        13           Au  tau(  13) = (   0.5000000   0.5000000   2.9927818  )
        14           Au  tau(  14) = (   0.0000000   0.0000000   3.4571789  )
        15           Au  tau(  15) = (   0.0000000   0.0000000   4.2827739  )
        16           Au  tau(  16) = (   0.5000000   0.5000000   4.7471711  )
        17           Au  tau(  17) = (   0.5000000   0.5000000   5.5727660  )
        18           Au  tau(  18) = (   0.0000000   0.0000000   6.0371632  )
        19           Au  tau(  19) = (   0.0000000   0.0000000   6.8627582  )
        20           Au  tau(  20) = (   0.5000000   0.5000000   7.3271553  )
        21           Au  tau(  21) = (   0.5000000   0.5000000   8.1527503  )
        22           Au  tau(  22) = (   0.0000000   0.0000000   8.6171475  )
        23           Au  tau(  23) = (   0.0000000   0.0000000   9.4427424  )
        24           Au  tau(  24) = (   0.5000000   0.5000000   9.9071396  )

     number of k points=    45 (tetrahedron method)
                       cart. coord. in units 2pi/alat
        k(    1) = (   0.0000000   0.0000000   0.0000000), wk =   0.0039062
        k(    2) = (   0.0000000   0.0000000   0.0242250), wk =   0.0078125
        k(    3) = (   0.0000000   0.0000000  -0.0484499), wk =   0.0039062
        k(    4) = (   0.0000000   0.1250000   0.0000000), wk =   0.0156250
        k(    5) = (   0.0000000   0.1250000   0.0242250), wk =   0.0312500
        k(    6) = (   0.0000000   0.1250000  -0.0484499), wk =   0.0156250
        k(    7) = (   0.0000000   0.2500000   0.0000000), wk =   0.0156250
        k(    8) = (   0.0000000   0.2500000   0.0242250), wk =   0.0312500
        k(    9) = (   0.0000000   0.2500000  -0.0484499), wk =   0.0156250
        k(   10) = (   0.0000000   0.3750000   0.0000000), wk =   0.0156250
        k(   11) = (   0.0000000   0.3750000   0.0242250), wk =   0.0312500
        k(   12) = (   0.0000000   0.3750000  -0.0484499), wk =   0.0156250
        k(   13) = (   0.0000000  -0.5000000   0.0000000), wk =   0.0078125
        k(   14) = (   0.0000000  -0.5000000   0.0242250), wk =   0.0156250
        k(   15) = (   0.0000000  -0.5000000  -0.0484499), wk =   0.0078125
        k(   16) = (   0.1250000   0.1250000   0.0000000), wk =   0.0156250
        k(   17) = (   0.1250000   0.1250000   0.0242250), wk =   0.0312500
        k(   18) = (   0.1250000   0.1250000  -0.0484499), wk =   0.0156250
        k(   19) = (   0.1250000   0.2500000   0.0000000), wk =   0.0312500
        k(   20) = (   0.1250000   0.2500000   0.0242250), wk =   0.0625000
        k(   21) = (   0.1250000   0.2500000  -0.0484499), wk =   0.0312500
        k(   22) = (   0.1250000   0.3750000   0.0000000), wk =   0.0312500
        k(   23) = (   0.1250000   0.3750000   0.0242250), wk =   0.0625000
        k(   24) = (   0.1250000   0.3750000  -0.0484499), wk =   0.0312500
        k(   25) = (   0.1250000  -0.5000000   0.0000000), wk =   0.0156250
        k(   26) = (   0.1250000  -0.5000000   0.0242250), wk =   0.0312500
        k(   27) = (   0.1250000  -0.5000000  -0.0484499), wk =   0.0156250
        k(   28) = (   0.2500000   0.2500000   0.0000000), wk =   0.0156250
        k(   29) = (   0.2500000   0.2500000   0.0242250), wk =   0.0312500
        k(   30) = (   0.2500000   0.2500000  -0.0484499), wk =   0.0156250
        k(   31) = (   0.2500000   0.3750000   0.0000000), wk =   0.0312500
        k(   32) = (   0.2500000   0.3750000   0.0242250), wk =   0.0625000
        k(   33) = (   0.2500000   0.3750000  -0.0484499), wk =   0.0312500
        k(   34) = (   0.2500000  -0.5000000   0.0000000), wk =   0.0156250
        k(   35) = (   0.2500000  -0.5000000   0.0242250), wk =   0.0312500
        k(   36) = (   0.2500000  -0.5000000  -0.0484499), wk =   0.0156250
        k(   37) = (   0.3750000   0.3750000   0.0000000), wk =   0.0156250
        k(   38) = (   0.3750000   0.3750000   0.0242250), wk =   0.0312500
        k(   39) = (   0.3750000   0.3750000  -0.0484499), wk =   0.0156250
        k(   40) = (   0.3750000  -0.5000000   0.0000000), wk =   0.0156250
        k(   41) = (   0.3750000  -0.5000000   0.0242250), wk =   0.0312500
        k(   42) = (   0.3750000  -0.5000000  -0.0484499), wk =   0.0156250
        k(   43) = (  -0.5000000  -0.5000000   0.0000000), wk =   0.0039062
        k(   44) = (  -0.5000000  -0.5000000   0.0242250), wk =   0.0078125
        k(   45) = (  -0.5000000  -0.5000000  -0.0484499), wk =   0.0039062

     Dense  grid:   368373 G-vectors     FFT dimensions: (  45,  45, 432)

     Smooth grid:   111379 G-vectors     FFT dimensions: (  27,  27, 288)

     Estimated max dynamical RAM per process >     186.81 MB

     Estimated total dynamical RAM >       5.84 GB
     Generating pointlists ...
     new r_m :   0.3377 (alat units)  2.1668 (a.u.) for type    1
     new r_m :   0.3377 (alat units)  2.1668 (a.u.) for type    2
     new r_m :   0.3377 (alat units)  2.1668 (a.u.) for type    3

     Check: negative/imaginary core charge=   -0.000006    0.000000

     Initial potential from superposition of free atoms

     starting charge  295.99426, renormalised to  296.00000
     Number of +U iterations with fixed ns =  0
     Starting occupations:
 --- enter write_ns ---
 LDA+U parameters:
U(  1) =   3.1200   J(  1) =   0.7000   B(  1) =   0.0803
U(  2) =   3.1200   J(  2) =   0.7000   B(  2) =   0.0803
atom    1   Tr[ns(na)] (up, down, total) =   5.00000  0.00000  5.00000
   spin  1
    eigenvalues: 
  1.000  1.000  1.000  1.000  1.000
    eigenvectors:
  1.000  0.000  0.000  0.000  0.000
  0.000  1.000  0.000  0.000  0.000
  0.000  0.000  1.000  0.000  0.000
  0.000  0.000  0.000  1.000  0.000
  0.000  0.000  0.000  0.000  1.000
    occupations:
  1.000  0.000  0.000  0.000  0.000
  0.000  1.000  0.000  0.000  0.000
  0.000  0.000  1.000  0.000  0.000
  0.000  0.000  0.000  1.000  0.000
  0.000  0.000  0.000  0.000  1.000
   spin  2
    eigenvalues: 
  0.000  0.000  0.000  0.000  0.000
    eigenvectors:
  1.000  0.000  0.000  0.000  0.000
  0.000  1.000  0.000  0.000  0.000
  0.000  0.000  1.000  0.000  0.000
  0.000  0.000  0.000  1.000  0.000
  0.000  0.000  0.000  0.000  1.000
    occupations:
  0.000  0.000  0.000  0.000  0.000
  0.000  0.000  0.000  0.000  0.000
  0.000  0.000  0.000  0.000  0.000
  0.000  0.000  0.000  0.000  0.000
  0.000  0.000  0.000  0.000  0.000
atomic mag. moment =     5.000000
atom    2   Tr[ns(na)] (up, down, total) =   5.00000  0.00000  5.00000
   spin  1
    eigenvalues: 
  1.000  1.000  1.000  1.000  1.000
    eigenvectors:
  1.000  0.000  0.000  0.000  0.000
  0.000  1.000  0.000  0.000  0.000
  0.000  0.000  1.000  0.000  0.000
  0.000  0.000  0.000  1.000  0.000
  0.000  0.000  0.000  0.000  1.000
    occupations:
  1.000  0.000  0.000  0.000  0.000
  0.000  1.000  0.000  0.000  0.000
  0.000  0.000  1.000  0.000  0.000
  0.000  0.000  0.000  1.000  0.000
  0.000  0.000  0.000  0.000  1.000
   spin  2
    eigenvalues: 
  0.000  0.000  0.000  0.000  0.000
    eigenvectors:
  1.000  0.000  0.000  0.000  0.000
  0.000  1.000  0.000  0.000  0.000
  0.000  0.000  1.000  0.000  0.000
  0.000  0.000  0.000  1.000  0.000
  0.000  0.000  0.000  0.000  1.000
    occupations:
  0.000  0.000  0.000  0.000  0.000
  0.000  0.000  0.000  0.000  0.000
  0.000  0.000  0.000  0.000  0.000
  0.000  0.000  0.000  0.000  0.000
  0.000  0.000  0.000  0.000  0.000
atomic mag. moment =     5.000000
atom    3   Tr[ns(na)] (up, down, total) =   5.00000  0.00000  5.00000
   spin  1
    eigenvalues: 
  1.000  1.000  1.000  1.000  1.000
    eigenvectors:
  1.000  0.000  0.000  0.000  0.000
  0.000  1.000  0.000  0.000  0.000
  0.000  0.000  1.000  0.000  0.000
  0.000  0.000  0.000  1.000  0.000
  0.000  0.000  0.000  0.000  1.000
    occupations:
  1.000  0.000  0.000  0.000  0.000
  0.000  1.000  0.000  0.000  0.000
  0.000  0.000  1.000  0.000  0.000
  0.000  0.000  0.000  1.000  0.000
  0.000  0.000  0.000  0.000  1.000
   spin  2
    eigenvalues: 
  0.000  0.000  0.000  0.000  0.000
    eigenvectors:
  1.000  0.000  0.000  0.000  0.000
  0.000  1.000  0.000  0.000  0.000
  0.000  0.000  1.000  0.000  0.000
  0.000  0.000  0.000  1.000  0.000
  0.000  0.000  0.000  0.000  1.000
    occupations:
  0.000  0.000  0.000  0.000  0.000
  0.000  0.000  0.000  0.000  0.000
  0.000  0.000  0.000  0.000  0.000
  0.000  0.000  0.000  0.000  0.000
  0.000  0.000  0.000  0.000  0.000
atomic mag. moment =     5.000000
atom    4   Tr[ns(na)] (up, down, total) =   5.00000  0.00000  5.00000
   spin  1
    eigenvalues: 
  1.000  1.000  1.000  1.000  1.000
    eigenvectors:
  1.000  0.000  0.000  0.000  0.000
  0.000  1.000  0.000  0.000  0.000
  0.000  0.000  1.000  0.000  0.000
  0.000  0.000  0.000  1.000  0.000
  0.000  0.000  0.000  0.000  1.000
    occupations:
  1.000  0.000  0.000  0.000  0.000
  0.000  1.000  0.000  0.000  0.000
  0.000  0.000  1.000  0.000  0.000
  0.000  0.000  0.000  1.000  0.000
  0.000  0.000  0.000  0.000  1.000
   spin  2
    eigenvalues: 
  0.000  0.000  0.000  0.000  0.000
    eigenvectors:
  1.000  0.000  0.000  0.000  0.000
  0.000  1.000  0.000  0.000  0.000
  0.000  0.000  1.000  0.000  0.000
  0.000  0.000  0.000  1.000  0.000
  0.000  0.000  0.000  0.000  1.000
    occupations:
  0.000  0.000  0.000  0.000  0.000
  0.000  0.000  0.000  0.000  0.000
  0.000  0.000  0.000  0.000  0.000
  0.000  0.000  0.000  0.000  0.000
  0.000  0.000  0.000  0.000  0.000
atomic mag. moment =     5.000000
atom    5   Tr[ns(na)] (up, down, total) =   0.00000  5.00000  5.00000
   spin  1
    eigenvalues: 
  0.000  0.000  0.000  0.000  0.000
    eigenvectors:
  1.000  0.000  0.000  0.000  0.000
  0.000  1.000  0.000  0.000  0.000
  0.000  0.000  1.000  0.000  0.000
  0.000  0.000  0.000  1.000  0.000
  0.000  0.000  0.000  0.000  1.000
    occupations:
  0.000  0.000  0.000  0.000  0.000
  0.000  0.000  0.000  0.000  0.000
  0.000  0.000  0.000  0.000  0.000
  0.000  0.000  0.000  0.000  0.000
  0.000  0.000  0.000  0.000  0.000
   spin  2
    eigenvalues: 
  1.000  1.000  1.000  1.000  1.000
    eigenvectors:
  1.000  0.000  0.000  0.000  0.000
  0.000  1.000  0.000  0.000  0.000
  0.000  0.000  1.000  0.000  0.000
  0.000  0.000  0.000  1.000  0.000
  0.000  0.000  0.000  0.000  1.000
    occupations:
  1.000  0.000  0.000  0.000  0.000
  0.000  1.000  0.000  0.000  0.000
  0.000  0.000  1.000  0.000  0.000
  0.000  0.000  0.000  1.000  0.000
  0.000  0.000  0.000  0.000  1.000
atomic mag. moment =    -5.000000
atom    6   Tr[ns(na)] (up, down, total) =   5.00000  0.00000  5.00000
   spin  1
    eigenvalues: 
  1.000  1.000  1.000  1.000  1.000
    eigenvectors:
  1.000  0.000  0.000  0.000  0.000
  0.000  1.000  0.000  0.000  0.000
  0.000  0.000  1.000  0.000  0.000
  0.000  0.000  0.000  1.000  0.000
  0.000  0.000  0.000  0.000  1.000
    occupations:
  1.000  0.000  0.000  0.000  0.000
  0.000  1.000  0.000  0.000  0.000
  0.000  0.000  1.000  0.000  0.000
  0.000  0.000  0.000  1.000  0.000
  0.000  0.000  0.000  0.000  1.000
   spin  2
    eigenvalues: 
  0.000  0.000  0.000  0.000  0.000
    eigenvectors:
  1.000  0.000  0.000  0.000  0.000
  0.000  1.000  0.000  0.000  0.000
  0.000  0.000  1.000  0.000  0.000
  0.000  0.000  0.000  1.000  0.000
  0.000  0.000  0.000  0.000  1.000
    occupations:
  0.000  0.000  0.000  0.000  0.000
  0.000  0.000  0.000  0.000  0.000
  0.000  0.000  0.000  0.000  0.000
  0.000  0.000  0.000  0.000  0.000
  0.000  0.000  0.000  0.000  0.000
atomic mag. moment =     5.000000
atom    7   Tr[ns(na)] (up, down, total) =   0.00000  5.00000  5.00000
   spin  1
    eigenvalues: 
  0.000  0.000  0.000  0.000  0.000
    eigenvectors:
  1.000  0.000  0.000  0.000  0.000
  0.000  1.000  0.000  0.000  0.000
  0.000  0.000  1.000  0.000  0.000
  0.000  0.000  0.000  1.000  0.000
  0.000  0.000  0.000  0.000  1.000
    occupations:
  0.000  0.000  0.000  0.000  0.000
  0.000  0.000  0.000  0.000  0.000
  0.000  0.000  0.000  0.000  0.000
  0.000  0.000  0.000  0.000  0.000
  0.000  0.000  0.000  0.000  0.000
   spin  2
    eigenvalues: 
  1.000  1.000  1.000  1.000  1.000
    eigenvectors:
  1.000  0.000  0.000  0.000  0.000
  0.000  1.000  0.000  0.000  0.000
  0.000  0.000  1.000  0.000  0.000
  0.000  0.000  0.000  1.000  0.000
  0.000  0.000  0.000  0.000  1.000
    occupations:
  1.000  0.000  0.000  0.000  0.000
  0.000  1.000  0.000  0.000  0.000
  0.000  0.000  1.000  0.000  0.000
  0.000  0.000  0.000  1.000  0.000
  0.000  0.000  0.000  0.000  1.000
atomic mag. moment =    -5.000000
atom    8   Tr[ns(na)] (up, down, total) =   0.00000  5.00000  5.00000
   spin  1
    eigenvalues: 
  0.000  0.000  0.000  0.000  0.000
    eigenvectors:
  1.000  0.000  0.000  0.000  0.000
  0.000  1.000  0.000  0.000  0.000
  0.000  0.000  1.000  0.000  0.000
  0.000  0.000  0.000  1.000  0.000
  0.000  0.000  0.000  0.000  1.000
    occupations:
  0.000  0.000  0.000  0.000  0.000
  0.000  0.000  0.000  0.000  0.000
  0.000  0.000  0.000  0.000  0.000
  0.000  0.000  0.000  0.000  0.000
  0.000  0.000  0.000  0.000  0.000
   spin  2
    eigenvalues: 
  1.000  1.000  1.000  1.000  1.000
    eigenvectors:
  1.000  0.000  0.000  0.000  0.000
  0.000  1.000  0.000  0.000  0.000
  0.000  0.000  1.000  0.000  0.000
  0.000  0.000  0.000  1.000  0.000
  0.000  0.000  0.000  0.000  1.000
    occupations:
  1.000  0.000  0.000  0.000  0.000
  0.000  1.000  0.000  0.000  0.000
  0.000  0.000  1.000  0.000  0.000
  0.000  0.000  0.000  1.000  0.000
  0.000  0.000  0.000  0.000  1.000
atomic mag. moment =    -5.000000
N of occupied +U levels =   40.000000
 --- exit write_ns ---
 Atomic wfc used for LDA+U Projector are NOT orthogonalized
     Starting wfcs are  224 randomized atomic wfcs
     Checking if some PAW data can be deallocated... 

     total cpu time spent up to now is       94.1 secs

     Self-consistent Calculation

     iteration #  1     ecut=    45.00 Ry     beta= 0.10
     Davidson diagonalization with overlap
     ethr =  1.00E-02,  avg # of iterations =  4.0
 --- enter write_ns ---
 LDA+U parameters:
U(  1) =   3.1200   J(  1) =   0.7000   B(  1) =   0.0803
U(  2) =   3.1200   J(  2) =   0.7000   B(  2) =   0.0803
atom    1   Tr[ns(na)] (up, down, total) =   5.01742  0.40990  5.42732
   spin  1
    eigenvalues: 
  1.003  1.003  1.003  1.004  1.004
    eigenvectors:
  0.000  0.000  0.000  1.000  0.000
  0.000  0.309  0.691  0.000  0.000
  0.000  0.691  0.309  0.000  0.000
  0.000  0.000  0.000  0.000  1.000
  1.000  0.000  0.000  0.000  0.000
    occupations:
  1.004 -0.000 -0.000  0.000  0.000
 -0.000  1.003 -0.000  0.000  0.000
 -0.000 -0.000  1.003  0.000  0.000
  0.000  0.000  0.000  1.004 -0.000
  0.000  0.000  0.000 -0.000  1.003
   spin  2
    eigenvalues: 
  0.052  0.073  0.081  0.081  0.122
    eigenvectors:
  0.000  1.000  0.000  0.000  0.000
  0.000  0.000  0.399  0.601  0.000
  0.000  0.000  0.601  0.399  0.000
  1.000  0.000  0.000  0.000  0.000
  0.000  0.000  0.000  0.000  1.000
    occupations:
  0.073 -0.000 -0.000  0.000  0.000
 -0.000  0.081 -0.000  0.000  0.000
 -0.000 -0.000  0.081  0.000  0.000
  0.000  0.000  0.000  0.052 -0.000
  0.000  0.000  0.000 -0.000  0.122
atomic mag. moment =     4.607516
atom    2   Tr[ns(na)] (up, down, total) =   5.01763  0.40269  5.42032
   spin  1
    eigenvalues: 
  1.003  1.003  1.003  1.004  1.004
    eigenvectors:
  0.000  0.000  0.000  1.000  0.000
  0.000  0.243  0.757  0.000  0.000
  0.000  0.757  0.243  0.000  0.000
  0.000  0.000  0.000  0.000  1.000
  1.000  0.000  0.000  0.000  0.000
    occupations:
  1.004 -0.000 -0.000  0.000  0.000
 -0.000  1.003 -0.000  0.000  0.000
 -0.000 -0.000  1.003  0.000  0.000
  0.000  0.000  0.000  1.004 -0.000
  0.000  0.000  0.000 -0.000  1.003
   spin  2
    eigenvalues: 
  0.053  0.074  0.081  0.081  0.114
    eigenvectors:
  0.000  1.000  0.000  0.000  0.000
  0.000  0.000  0.431  0.569  0.000
  0.000  0.000  0.569  0.431  0.000
  1.000  0.000  0.000  0.000  0.000
  0.000  0.000  0.000  0.000  1.000
    occupations:
  0.074 -0.000 -0.000  0.000  0.000
 -0.000  0.081 -0.000  0.000  0.000
 -0.000 -0.000  0.081  0.000  0.000
  0.000  0.000  0.000  0.053 -0.000
  0.000  0.000  0.000 -0.000  0.114
atomic mag. moment =     4.614936
atom    3   Tr[ns(na)] (up, down, total) =   5.01757  0.40328  5.42085
   spin  1
    eigenvalues: 
  1.003  1.003  1.003  1.004  1.004
    eigenvectors:
  0.000  0.000  0.000  1.000  0.000
  0.000  0.262  0.738  0.000  0.000
  0.000  0.738  0.262  0.000  0.000
  0.000  0.000  0.000  0.000  1.000
  1.000  0.000  0.000  0.000  0.000
    occupations:
  1.004 -0.000 -0.000  0.000  0.000
 -0.000  1.003 -0.000  0.000  0.000
 -0.000 -0.000  1.003  0.000  0.000
  0.000  0.000  0.000  1.004 -0.000
  0.000  0.000  0.000 -0.000  1.003
   spin  2
    eigenvalues: 
  0.053  0.073  0.082  0.082  0.115
    eigenvectors:
  0.000  1.000  0.000  0.000  0.000
  0.000  0.000  0.395  0.605  0.000
  0.000  0.000  0.605  0.395  0.000
  1.000  0.000  0.000  0.000  0.000
  0.000  0.000  0.000  0.000  1.000
    occupations:
  0.073 -0.000 -0.000  0.000  0.000
 -0.000  0.082 -0.000  0.000  0.000
 -0.000 -0.000  0.082  0.000  0.000
  0.000  0.000  0.000  0.053 -0.000
  0.000  0.000  0.000 -0.000  0.115
atomic mag. moment =     4.614292
atom    4   Tr[ns(na)] (up, down, total) =   5.01732  0.40819  5.42551
   spin  1
    eigenvalues: 
  1.003  1.003  1.003  1.004  1.004
    eigenvectors:
  0.000  0.000  0.000  1.000  0.000
  0.000  0.252  0.748  0.000  0.000
  0.000  0.748  0.252  0.000  0.000
  0.000  0.000  0.000  0.000  1.000
  1.000  0.000  0.000  0.000  0.000
    occupations:
  1.004 -0.000 -0.000  0.000  0.000
 -0.000  1.003 -0.000  0.000  0.000
 -0.000 -0.000  1.003  0.000  0.000
  0.000  0.000  0.000  1.004 -0.000
  0.000  0.000  0.000 -0.000  1.003
   spin  2
    eigenvalues: 
  0.053  0.072  0.080  0.080  0.123
    eigenvectors:
  0.000  1.000  0.000  0.000  0.000
  0.000  0.000  0.369  0.631  0.000
  0.000  0.000  0.631  0.369  0.000
  1.000  0.000  0.000  0.000  0.000
  0.000  0.000  0.000  0.000  1.000
    occupations:
  0.072 -0.000 -0.000  0.000  0.000
 -0.000  0.080 -0.000  0.000  0.000
 -0.000 -0.000  0.080  0.000  0.000
  0.000  0.000  0.000  0.053 -0.000
  0.000  0.000  0.000 -0.000  0.123
atomic mag. moment =     4.609125
atom    5   Tr[ns(na)] (up, down, total) =   0.41280  5.01740  5.43020
   spin  1
    eigenvalues: 
  0.053  0.073  0.081  0.081  0.125
    eigenvectors:
  0.000  1.000  0.000  0.000  0.000
  0.000  0.000  0.402  0.598  0.000
  0.000  0.000  0.598  0.402  0.000
  1.000  0.000  0.000  0.000  0.000
  0.000  0.000  0.000  0.000  1.000
    occupations:
  0.073 -0.000 -0.000  0.000  0.000
 -0.000  0.081 -0.000  0.000  0.000
 -0.000 -0.000  0.081  0.000  0.000
  0.000  0.000  0.000  0.053 -0.000
  0.000  0.000  0.000 -0.000  0.125
   spin  2
    eigenvalues: 
  1.003  1.003  1.003  1.004  1.004
    eigenvectors:
  0.000  0.000  0.000  1.000  0.000
  0.000  0.290  0.710  0.000  0.000
  0.000  0.710  0.290  0.000  0.000
  0.000  0.000  0.000  0.000  1.000
  1.000  0.000  0.000  0.000  0.000
    occupations:
  1.004 -0.000 -0.000  0.000  0.000
 -0.000  1.003 -0.000  0.000  0.000
 -0.000 -0.000  1.003  0.000  0.000
  0.000  0.000  0.000  1.004 -0.000
  0.000  0.000  0.000 -0.000  1.003
atomic mag. moment =    -4.604595
atom    6   Tr[ns(na)] (up, down, total) =   5.01743  0.41216  5.42959
   spin  1
    eigenvalues: 
  1.003  1.003  1.003  1.004  1.004
    eigenvectors:
  0.000  0.000  0.000  1.000  0.000
  0.000  0.337  0.663  0.000  0.000
  0.000  0.663  0.337  0.000  0.000
  0.000  0.000  0.000  0.000  1.000
  1.000  0.000  0.000  0.000  0.000
    occupations:
  1.004 -0.000 -0.000  0.000  0.000
 -0.000  1.003 -0.000  0.000  0.000
 -0.000 -0.000  1.003  0.000  0.000
  0.000  0.000  0.000  1.004 -0.000
  0.000  0.000  0.000 -0.000  1.003
   spin  2
    eigenvalues: 
  0.053  0.073  0.080  0.080  0.125
    eigenvectors:
  0.000  1.000  0.000  0.000  0.000
  0.000  0.000  0.333  0.667  0.000
  0.000  0.000  0.667  0.333  0.000
  1.000  0.000  0.000  0.000  0.000
  0.000  0.000  0.000  0.000  1.000
    occupations:
  0.073 -0.000 -0.000  0.000  0.000
 -0.000  0.080 -0.000  0.000  0.000
 -0.000 -0.000  0.080  0.000  0.000
  0.000  0.000  0.000  0.053 -0.000
  0.000  0.000  0.000 -0.000  0.125
atomic mag. moment =     4.605279
atom    7   Tr[ns(na)] (up, down, total) =   0.41001  5.01755  5.42756
   spin  1
    eigenvalues: 
  0.053  0.073  0.081  0.081  0.121
    eigenvectors:
  0.000  1.000  0.000  0.000  0.000
  0.000  0.000  0.338  0.662  0.000
  0.000  0.000  0.662  0.338  0.000
  1.000  0.000  0.000  0.000  0.000
  0.000  0.000  0.000  0.000  1.000
    occupations:
  0.073 -0.000 -0.000  0.000  0.000
 -0.000  0.081 -0.000  0.000  0.000
 -0.000 -0.000  0.081  0.000  0.000
  0.000  0.000  0.000  0.053 -0.000
  0.000  0.000  0.000 -0.000  0.121
   spin  2
    eigenvalues: 
  1.003  1.003  1.003  1.004  1.004
    eigenvectors:
  0.000  0.000  0.000  1.000  0.000
  0.000  0.303  0.697  0.000  0.000
  0.000  0.697  0.303  0.000  0.000
  0.000  0.000  0.000  0.000  1.000
  1.000  0.000  0.000  0.000  0.000
    occupations:
  1.004 -0.000 -0.000  0.000  0.000
 -0.000  1.003 -0.000  0.000  0.000
 -0.000 -0.000  1.003  0.000  0.000
  0.000  0.000  0.000  1.004 -0.000
  0.000  0.000  0.000 -0.000  1.003
atomic mag. moment =    -4.607538
atom    8   Tr[ns(na)] (up, down, total) =   0.41216  5.01750  5.42965
   spin  1
    eigenvalues: 
  0.053  0.074  0.082  0.082  0.120
    eigenvectors:
  0.000  1.000  0.000  0.000  0.000
  0.000  0.000  0.334  0.666  0.000
  0.000  0.000  0.666  0.334  0.000
  1.000  0.000  0.000  0.000  0.000
  0.000  0.000  0.000  0.000  1.000
    occupations:
  0.074 -0.000 -0.000  0.000  0.000
 -0.000  0.082 -0.000  0.000  0.000
 -0.000 -0.000  0.082  0.000  0.000
  0.000  0.000  0.000  0.053 -0.000
  0.000  0.000  0.000 -0.000  0.120
   spin  2
    eigenvalues: 
  1.003  1.003  1.003  1.004  1.004
    eigenvectors:
  0.000  0.000  0.000  1.000  0.000
  0.000  0.278  0.722  0.000  0.000
  0.000  0.722  0.278  0.000  0.000
  0.000  0.000  0.000  0.000  1.000
  1.000  0.000  0.000  0.000  0.000
    occupations:
  1.004 -0.000 -0.000  0.000  0.000
 -0.000  1.003 -0.000  0.000  0.000
 -0.000 -0.000  1.003  0.000  0.000
  0.000  0.000  0.000  1.004 -0.000
  0.000  0.000  0.000 -0.000  1.003
atomic mag. moment =    -4.605339
N of occupied +U levels =   43.411001
 --- exit write_ns ---

     total cpu time spent up to now is      324.9 secs

     total energy              =  -14687.27573396 Ry
     Harris-Foulkes estimate   =  -14685.81577746 Ry
     estimated scf accuracy    <      11.55806828 Ry

     total magnetization       =    10.13 Bohr mag/cell
     absolute magnetization    =    41.56 Bohr mag/cell

     iteration #  2     ecut=    45.00 Ry     beta= 0.10
     Davidson diagonalization with overlap
     ethr =  3.90E-03,  avg # of iterations =  1.0

     total cpu time spent up to now is      472.4 secs

     total energy              =  -14689.40154024 Ry
     Harris-Foulkes estimate   =  -14687.35281021 Ry
     estimated scf accuracy    <       9.68346661 Ry

     total magnetization       =     9.94 Bohr mag/cell
     absolute magnetization    =    41.22 Bohr mag/cell

     iteration #  3     ecut=    45.00 Ry     beta= 0.10
     Davidson diagonalization with overlap
     ethr =  3.27E-03,  avg # of iterations =  4.7

     total cpu time spent up to now is      703.9 secs

     total energy              =  -14691.36958633 Ry
     Harris-Foulkes estimate   =  -14690.98594541 Ry
     estimated scf accuracy    <     171.77232366 Ry

     total magnetization       =     9.48 Bohr mag/cell
     absolute magnetization    =    40.46 Bohr mag/cell

     iteration #  4     ecut=    45.00 Ry     beta= 0.10
     Davidson diagonalization with overlap
     ethr =  3.27E-03,  avg # of iterations =  4.1

     total cpu time spent up to now is      928.3 secs

     total energy              =  -14694.94520264 Ry
     Harris-Foulkes estimate   =  -14694.19801484 Ry
     estimated scf accuracy    <       3.71869275 Ry

     total magnetization       =     9.18 Bohr mag/cell
     absolute magnetization    =    38.45 Bohr mag/cell

     iteration #  5     ecut=    45.00 Ry     beta= 0.10
     Davidson diagonalization with overlap
     ethr =  1.26E-03,  avg # of iterations =  4.4

     total cpu time spent up to now is     1150.7 secs

     total energy              =  -14694.70241077 Ry
     Harris-Foulkes estimate   =  -14695.06542501 Ry
     estimated scf accuracy    <       7.39807388 Ry

     total magnetization       =     8.98 Bohr mag/cell
     absolute magnetization    =    37.70 Bohr mag/cell

     iteration #  6     ecut=    45.00 Ry     beta= 0.10
     Davidson diagonalization with overlap
     ethr =  1.26E-03,  avg # of iterations =  2.0

     total cpu time spent up to now is     1317.4 secs

     total energy              =  -14693.02267469 Ry
     Harris-Foulkes estimate   =  -14694.81297403 Ry
     estimated scf accuracy    <      19.77400995 Ry

     total magnetization       =     9.13 Bohr mag/cell
     absolute magnetization    =    37.89 Bohr mag/cell

     iteration #  7     ecut=    45.00 Ry     beta= 0.10
     Davidson diagonalization with overlap
     ethr =  1.26E-03,  avg # of iterations =  4.6

     total cpu time spent up to now is     1592.1 secs

     total energy              =  -14693.92518160 Ry
     Harris-Foulkes estimate   =  -14693.88876353 Ry
     estimated scf accuracy    <       0.83575872 Ry

     total magnetization       =     8.90 Bohr mag/cell
     absolute magnetization    =    38.06 Bohr mag/cell

     iteration #  8     ecut=    45.00 Ry     beta= 0.10
     Davidson diagonalization with overlap
     ethr =  2.82E-04,  avg # of iterations =  3.2

     total cpu time spent up to now is     1782.5 secs

     total energy              =  -14693.98529166 Ry
     Harris-Foulkes estimate   =  -14693.96593445 Ry
     estimated scf accuracy    <       0.17995315 Ry

     total magnetization       =     8.79 Bohr mag/cell
     absolute magnetization    =    37.79 Bohr mag/cell

     iteration #  9     ecut=    45.00 Ry     beta= 0.10
     Davidson diagonalization with overlap
     ethr =  6.08E-05,  avg # of iterations =  3.7

     total cpu time spent up to now is     1989.8 secs

     total energy              =  -14693.99529095 Ry
     Harris-Foulkes estimate   =  -14693.99374458 Ry
     estimated scf accuracy    <       0.06935530 Ry

     total magnetization       =     8.70 Bohr mag/cell
     absolute magnetization    =    37.42 Bohr mag/cell

     iteration # 10     ecut=    45.00 Ry     beta= 0.10
     Davidson diagonalization with overlap
     ethr =  2.34E-05,  avg # of iterations =  1.8

     total cpu time spent up to now is     2151.5 secs

     total energy              =  -14693.99412153 Ry
     Harris-Foulkes estimate   =  -14693.99781265 Ry
     estimated scf accuracy    <       0.04803981 Ry

     total magnetization       =     8.66 Bohr mag/cell
     absolute magnetization    =    37.28 Bohr mag/cell

     iteration # 11     ecut=    45.00 Ry     beta= 0.10
     Davidson diagonalization with overlap
     ethr =  1.62E-05,  avg # of iterations =  3.1

     total cpu time spent up to now is     2355.8 secs

     total energy              =  -14694.00052158 Ry
     Harris-Foulkes estimate   =  -14694.00072403 Ry
     estimated scf accuracy    <       0.02129193 Ry

     total magnetization       =     8.63 Bohr mag/cell
     absolute magnetization    =    37.33 Bohr mag/cell

     iteration # 12     ecut=    45.00 Ry     beta= 0.10
     Davidson diagonalization with overlap
     c_bands:  5 eigenvalues not converged
     ethr =  7.19E-06,  avg # of iterations =  3.0

     total cpu time spent up to now is     2541.7 secs

     total energy              =  -14694.00148094 Ry
     Harris-Foulkes estimate   =  -14694.00129706 Ry
     estimated scf accuracy    <       0.01143813 Ry

     total magnetization       =     8.63 Bohr mag/cell
     absolute magnetization    =    37.30 Bohr mag/cell

     iteration # 13     ecut=    45.00 Ry     beta= 0.10
     Davidson diagonalization with overlap
     c_bands:  3 eigenvalues not converged
     ethr =  3.86E-06,  avg # of iterations =  3.5

     total cpu time spent up to now is     2737.1 secs

     total energy              =  -14694.00205852 Ry
     Harris-Foulkes estimate   =  -14694.00188634 Ry
     estimated scf accuracy    <       0.00927301 Ry

     total magnetization       =     8.63 Bohr mag/cell
     absolute magnetization    =    37.28 Bohr mag/cell

     iteration # 14     ecut=    45.00 Ry     beta= 0.10
     Davidson diagonalization with overlap
     ethr =  3.13E-06,  avg # of iterations =  2.2

     total cpu time spent up to now is     2906.4 secs

     total energy              =  -14694.00339253 Ry
     Harris-Foulkes estimate   =  -14694.00250872 Ry
     estimated scf accuracy    <       0.01889455 Ry

     total magnetization       =     8.60 Bohr mag/cell
     absolute magnetization    =    37.30 Bohr mag/cell

     iteration # 15     ecut=    45.00 Ry     beta= 0.10
     Davidson diagonalization with overlap
     ethr =  3.13E-06,  avg # of iterations =  1.1

     total cpu time spent up to now is     3055.2 secs

     total energy              =  -14694.00369038 Ry
     Harris-Foulkes estimate   =  -14694.00366950 Ry
     estimated scf accuracy    <       0.00187195 Ry

     total magnetization       =     8.60 Bohr mag/cell
     absolute magnetization    =    37.26 Bohr mag/cell

     iteration # 16     ecut=    45.00 Ry     beta= 0.10
     Davidson diagonalization with overlap
     ethr =  6.32E-07,  avg # of iterations =  4.0

     total cpu time spent up to now is     3263.7 secs

     total energy              =  -14694.00394789 Ry
     Harris-Foulkes estimate   =  -14694.00385307 Ry
     estimated scf accuracy    <       0.00992450 Ry

     total magnetization       =     8.59 Bohr mag/cell
     absolute magnetization    =    37.26 Bohr mag/cell

     iteration # 17     ecut=    45.00 Ry     beta= 0.10
     Davidson diagonalization with overlap
     ethr =  6.32E-07,  avg # of iterations =  1.1

     total cpu time spent up to now is     3414.0 secs

     total energy              =  -14694.00412449 Ry
     Harris-Foulkes estimate   =  -14694.00407668 Ry
     estimated scf accuracy    <       0.00058156 Ry

     total magnetization       =     8.59 Bohr mag/cell
     absolute magnetization    =    37.24 Bohr mag/cell

     iteration # 18     ecut=    45.00 Ry     beta= 0.10
     Davidson diagonalization with overlap
     ethr =  1.96E-07,  avg # of iterations =  2.0

     total cpu time spent up to now is     3580.1 secs

     total energy              =  -14694.00419125 Ry
     Harris-Foulkes estimate   =  -14694.00413373 Ry
     estimated scf accuracy    <       0.00018252 Ry

     total magnetization       =     8.59 Bohr mag/cell
     absolute magnetization    =    37.24 Bohr mag/cell

     iteration # 19     ecut=    45.00 Ry     beta= 0.10
     Davidson diagonalization with overlap
     c_bands:  4 eigenvalues not converged
     ethr =  6.17E-08,  avg # of iterations =  2.4

     total cpu time spent up to now is     3752.9 secs

     total energy              =  -14694.00421486 Ry
     Harris-Foulkes estimate   =  -14694.00419950 Ry
     estimated scf accuracy    <       0.00019294 Ry

     total magnetization       =     8.58 Bohr mag/cell
     absolute magnetization    =    37.23 Bohr mag/cell

     iteration # 20     ecut=    45.00 Ry     beta= 0.10
     Davidson diagonalization with overlap
     ethr =  6.17E-08,  avg # of iterations =  1.2

     total cpu time spent up to now is     3905.9 secs

     total energy              =  -14694.00428305 Ry
     Harris-Foulkes estimate   =  -14694.00421431 Ry
     estimated scf accuracy    <       0.00010494 Ry

     total magnetization       =     8.58 Bohr mag/cell
     absolute magnetization    =    37.23 Bohr mag/cell

     iteration # 21     ecut=    45.00 Ry     beta= 0.10
     Davidson diagonalization with overlap
     c_bands:  2 eigenvalues not converged
     ethr =  3.55E-08,  avg # of iterations =  2.3

     total cpu time spent up to now is     4084.2 secs

     total energy              =  -14694.00430386 Ry
     Harris-Foulkes estimate   =  -14694.00429314 Ry
     estimated scf accuracy    <       0.00003795 Ry

     total magnetization       =     8.58 Bohr mag/cell
     absolute magnetization    =    37.23 Bohr mag/cell

     iteration # 22     ecut=    45.00 Ry     beta= 0.10
     Davidson diagonalization with overlap
     c_bands:  1 eigenvalues not converged
     ethr =  1.28E-08,  avg # of iterations =  2.2

     total cpu time spent up to now is     4254.9 secs

     total energy              =  -14694.00430846 Ry
     Harris-Foulkes estimate   =  -14694.00430526 Ry
     estimated scf accuracy    <       0.00002671 Ry

     total magnetization       =     8.58 Bohr mag/cell
     absolute magnetization    =    37.23 Bohr mag/cell

     iteration # 23     ecut=    45.00 Ry     beta= 0.10
     Davidson diagonalization with overlap
     ethr =  9.02E-09,  avg # of iterations =  1.2

     total cpu time spent up to now is     4407.3 secs

     total energy              =  -14694.00431177 Ry
     Harris-Foulkes estimate   =  -14694.00430949 Ry
     estimated scf accuracy    <       0.00001153 Ry

     total magnetization       =     8.58 Bohr mag/cell
     absolute magnetization    =    37.23 Bohr mag/cell

     iteration # 24     ecut=    45.00 Ry     beta= 0.10
     Davidson diagonalization with overlap
     ethr =  3.90E-09,  avg # of iterations =  1.8

     total cpu time spent up to now is     4569.5 secs

     total energy              =  -14694.00431657 Ry
     Harris-Foulkes estimate   =  -14694.00431587 Ry
     estimated scf accuracy    <       0.00004638 Ry

     total magnetization       =     8.58 Bohr mag/cell
     absolute magnetization    =    37.23 Bohr mag/cell

     iteration # 25     ecut=    45.00 Ry     beta= 0.10
     Davidson diagonalization with overlap
     ethr =  3.90E-09,  avg # of iterations =  1.0

     total cpu time spent up to now is     4718.5 secs

     total energy              =  -14694.00431616 Ry
     Harris-Foulkes estimate   =  -14694.00431435 Ry
     estimated scf accuracy    <       0.00000812 Ry

     total magnetization       =     8.58 Bohr mag/cell
     absolute magnetization    =    37.23 Bohr mag/cell

     iteration # 26     ecut=    45.00 Ry     beta= 0.10
     Davidson diagonalization with overlap
     ethr =  2.74E-09,  avg # of iterations =  1.1

     total cpu time spent up to now is     4868.9 secs

     total energy              =  -14694.00431738 Ry
     Harris-Foulkes estimate   =  -14694.00431632 Ry
     estimated scf accuracy    <       0.00000731 Ry

     total magnetization       =     8.58 Bohr mag/cell
     absolute magnetization    =    37.23 Bohr mag/cell

     iteration # 27     ecut=    45.00 Ry     beta= 0.10
     Davidson diagonalization with overlap
     ethr =  2.47E-09,  avg # of iterations =  1.0

     total cpu time spent up to now is     5019.6 secs

     total energy              =  -14694.00431973 Ry
     Harris-Foulkes estimate   =  -14694.00431814 Ry
     estimated scf accuracy    <       0.00000785 Ry

     total magnetization       =     8.58 Bohr mag/cell
     absolute magnetization    =    37.23 Bohr mag/cell

     iteration # 28     ecut=    45.00 Ry     beta= 0.10
     Davidson diagonalization with overlap
     ethr =  2.47E-09,  avg # of iterations =  1.6
 
     Magnetic moment per site:
     atom:    1    charge:   13.5494    magn:    4.2260    constr:    0.0000
     atom:    2    charge:   13.5530    magn:    4.2008    constr:    0.0000
     atom:    3    charge:   13.5526    magn:    4.2051    constr:    0.0000
     atom:    4    charge:   13.5463    magn:    4.2456    constr:    0.0000
     atom:    5    charge:   13.5437    magn:   -4.2575    constr:    0.0000
     atom:    6    charge:   13.5447    magn:    4.2575    constr:    0.0000
     atom:    7    charge:   13.5460    magn:   -4.2488    constr:    0.0000
     atom:    8    charge:   13.5482    magn:   -4.2362    constr:    0.0000
     atom:    9    charge:    9.1224    magn:    0.0319    constr:    0.0000
     atom:   10    charge:    9.1215    magn:    0.0303    constr:    0.0000
     atom:   11    charge:    9.1207    magn:    0.0316    constr:    0.0000
     atom:   12    charge:    9.1205    magn:    0.0304    constr:    0.0000
     atom:   13    charge:    9.1217    magn:    0.0308    constr:    0.0000
     atom:   14    charge:    9.1232    magn:    0.0339    constr:    0.0000
     atom:   15    charge:    9.1245    magn:    0.0420    constr:    0.0000
     atom:   16    charge:    9.1247    magn:   -0.0377    constr:    0.0000
     atom:   17    charge:    9.1249    magn:   -0.0380    constr:    0.0000
     atom:   18    charge:    9.1242    magn:    0.0427    constr:    0.0000
     atom:   19    charge:    9.1235    magn:    0.0400    constr:    0.0000
     atom:   20    charge:    9.1239    magn:   -0.0438    constr:    0.0000
     atom:   21    charge:    9.1233    magn:   -0.0392    constr:    0.0000
     atom:   22    charge:    9.1239    magn:   -0.0405    constr:    0.0000
     atom:   23    charge:    9.1238    magn:   -0.0450    constr:    0.0000
     atom:   24    charge:    9.1229    magn:    0.0384    constr:    0.0000

     total cpu time spent up to now is     5181.4 secs

     End of self-consistent calculation
 --- enter write_ns ---
 LDA+U parameters:
U(  1) =   3.1200   J(  1) =   0.7000   B(  1) =   0.0803
U(  2) =   3.1200   J(  2) =   0.7000   B(  2) =   0.0803
atom    1   Tr[ns(na)] (up, down, total) =   4.97079  0.74460  5.71539
   spin  1
    eigenvalues: 
  0.984  0.994  0.994  0.997  1.002
    eigenvectors:
  0.000  0.000  0.000  1.000  0.000
  0.000  0.336  0.664  0.000  0.000
  0.000  0.664  0.336  0.000  0.000
  0.000  0.000  0.000  0.000  1.000
  1.000  0.000  0.000  0.000  0.000
    occupations:
  0.997 -0.000 -0.000  0.000  0.000
 -0.000  0.994 -0.000  0.000  0.000
 -0.000 -0.000  0.994  0.000  0.000
  0.000  0.000  0.000  1.002 -0.000
  0.000  0.000  0.000 -0.000  0.984
   spin  2
    eigenvalues: 
  0.065  0.131  0.146  0.146  0.256
    eigenvectors:
  0.000  1.000  0.000  0.000  0.000
  0.000  0.000  0.326  0.674  0.000
  0.000  0.000  0.674  0.326  0.000
  1.000  0.000  0.000  0.000  0.000
  0.000  0.000  0.000  0.000  1.000
    occupations:
  0.131 -0.000 -0.000  0.000  0.000
 -0.000  0.146 -0.000  0.000  0.000
 -0.000 -0.000  0.146  0.000  0.000
  0.000  0.000  0.000  0.065 -0.000
  0.000  0.000  0.000 -0.000  0.256
atomic mag. moment =     4.226195
atom    2   Tr[ns(na)] (up, down, total) =   4.96953  0.76389  5.73342
   spin  1
    eigenvalues: 
  0.984  0.993  0.993  0.997  1.002
    eigenvectors:
  0.000  0.000  0.000  1.000  0.000
  0.000  0.268  0.732  0.000  0.000
  0.000  0.732  0.268  0.000  0.000
  0.000  0.000  0.000  0.000  1.000
  1.000  0.000  0.000  0.000  0.000
    occupations:
  0.997 -0.000 -0.000  0.000  0.000
 -0.000  0.993 -0.000  0.000  0.000
 -0.000 -0.000  0.993  0.000  0.000
  0.000  0.000  0.000  1.002 -0.000
  0.000  0.000  0.000 -0.000  0.984
   spin  2
    eigenvalues: 
  0.065  0.143  0.143  0.145  0.268
    eigenvectors:
  0.000  0.000  0.000  1.000  0.000
  0.000  0.273  0.727  0.000  0.000
  0.000  0.727  0.273  0.000  0.000
  1.000  0.000  0.000  0.000  0.000
  0.000  0.000  0.000  0.000  1.000
    occupations:
  0.145 -0.000 -0.000  0.000  0.000
 -0.000  0.143 -0.000  0.000  0.000
 -0.000 -0.000  0.143  0.000  0.000
  0.000  0.000  0.000  0.065 -0.000
  0.000  0.000  0.000 -0.000  0.268
atomic mag. moment =     4.205636
atom    3   Tr[ns(na)] (up, down, total) =   4.96990  0.76067  5.73057
   spin  1
    eigenvalues: 
  0.984  0.993  0.993  0.997  1.002
    eigenvectors:
  0.000  0.000  0.000  1.000  0.000
  0.000  0.389  0.611  0.000  0.000
  0.000  0.611  0.389  0.000  0.000
  0.000  0.000  0.000  0.000  1.000
  1.000  0.000  0.000  0.000  0.000
    occupations:
  0.997 -0.000 -0.000  0.000  0.000
 -0.000  0.993 -0.000  0.000  0.000
 -0.000 -0.000  0.993  0.000  0.000
  0.000  0.000  0.000  1.002 -0.000
  0.000  0.000  0.000 -0.000  0.984
   spin  2
    eigenvalues: 
  0.065  0.141  0.143  0.143  0.268
    eigenvectors:
  0.000  1.000  0.000  0.000  0.000
  0.000  0.000  0.264  0.736  0.000
  0.000  0.000  0.736  0.264  0.000
  1.000  0.000  0.000  0.000  0.000
  0.000  0.000  0.000  0.000  1.000
    occupations:
  0.141 -0.000 -0.000  0.000  0.000
 -0.000  0.143 -0.000  0.000  0.000
 -0.000 -0.000  0.143  0.000  0.000
  0.000  0.000  0.000  0.065 -0.000
  0.000  0.000  0.000 -0.000  0.268
atomic mag. moment =     4.209225
atom    4   Tr[ns(na)] (up, down, total) =   4.97320  0.72804  5.70125
   spin  1
    eigenvalues: 
  0.985  0.994  0.994  0.997  1.002
    eigenvectors:
  0.000  0.000  0.000  1.000  0.000
  0.000  0.295  0.705  0.000  0.000
  0.000  0.705  0.295  0.000  0.000
  0.000  0.000  0.000  0.000  1.000
  1.000  0.000  0.000  0.000  0.000
    occupations:
  0.997 -0.000 -0.000  0.000  0.000
 -0.000  0.994 -0.000  0.000  0.000
 -0.000 -0.000  0.994  0.000  0.000
  0.000  0.000  0.000  1.002 -0.000
  0.000  0.000  0.000 -0.000  0.985
   spin  2
    eigenvalues: 
  0.067  0.123  0.146  0.146  0.246
    eigenvectors:
  0.000  1.000  0.000  0.000  0.000
  0.000  0.000  0.344  0.656  0.000
  0.000  0.000  0.656  0.344  0.000
  1.000  0.000  0.000  0.000  0.000
  0.000  0.000  0.000  0.000  1.000
    occupations:
  0.123 -0.000 -0.000  0.000  0.000
 -0.000  0.146 -0.000  0.000  0.000
 -0.000 -0.000  0.146  0.000  0.000
  0.000  0.000  0.000  0.067 -0.000
  0.000  0.000  0.000 -0.000  0.246
atomic mag. moment =     4.245161
atom    5   Tr[ns(na)] (up, down, total) =   0.71890  4.97192  5.69082
   spin  1
    eigenvalues: 
  0.066  0.115  0.146  0.146  0.245
    eigenvectors:
  0.000  1.000  0.000  0.000  0.000
  0.000  0.000  0.393  0.607  0.000
  0.000  0.000  0.607  0.393  0.000
  1.000  0.000  0.000  0.000  0.000
  0.000  0.000  0.000  0.000  1.000
    occupations:
  0.115 -0.000 -0.000  0.000  0.000
 -0.000  0.146 -0.000  0.000  0.000
 -0.000 -0.000  0.146  0.000  0.000
  0.000  0.000  0.000  0.066 -0.000
  0.000  0.000  0.000 -0.000  0.245
   spin  2
    eigenvalues: 
  0.985  0.994  0.994  0.997  1.003
    eigenvectors:
  0.000  0.000  0.000  1.000  0.000
  0.000  0.217  0.783  0.000  0.000
  0.000  0.783  0.217  0.000  0.000
  0.000  0.000  0.000  0.000  1.000
  1.000  0.000  0.000  0.000  0.000
    occupations:
  0.997 -0.000 -0.000  0.000  0.000
 -0.000  0.994 -0.000  0.000  0.000
 -0.000 -0.000  0.994  0.000  0.000
  0.000  0.000  0.000  1.003 -0.000
  0.000  0.000  0.000 -0.000  0.985
atomic mag. moment =    -4.253013
atom    6   Tr[ns(na)] (up, down, total) =   4.97213  0.72039  5.69252
   spin  1
    eigenvalues: 
  0.985  0.994  0.994  0.997  1.003
    eigenvectors:
  0.000  0.000  0.000  1.000  0.000
  0.000  0.337  0.663  0.000  0.000
  0.000  0.663  0.337  0.000  0.000
  0.000  0.000  0.000  0.000  1.000
  1.000  0.000  0.000  0.000  0.000
    occupations:
  0.997 -0.000 -0.000  0.000  0.000
 -0.000  0.994 -0.000  0.000  0.000
 -0.000 -0.000  0.994  0.000  0.000
  0.000  0.000  0.000  1.003 -0.000
  0.000  0.000  0.000 -0.000  0.985
   spin  2
    eigenvalues: 
  0.066  0.118  0.147  0.147  0.243
    eigenvectors:
  0.000  1.000  0.000  0.000  0.000
  0.000  0.000  0.359  0.641  0.000
  0.000  0.000  0.641  0.359  0.000
  1.000  0.000  0.000  0.000  0.000
  0.000  0.000  0.000  0.000  1.000
    occupations:
  0.118 -0.000 -0.000  0.000  0.000
 -0.000  0.147 -0.000  0.000  0.000
 -0.000 -0.000  0.147  0.000  0.000
  0.000  0.000  0.000  0.066 -0.000
  0.000  0.000  0.000 -0.000  0.243
atomic mag. moment =     4.251742
atom    7   Tr[ns(na)] (up, down, total) =   0.72697  4.97373  5.70069
   spin  1
    eigenvalues: 
  0.066  0.128  0.143  0.143  0.248
    eigenvectors:
  0.000  1.000  0.000  0.000  0.000
  0.000  0.000  0.385  0.615  0.000
  0.000  0.000  0.615  0.385  0.000
  1.000  0.000  0.000  0.000  0.000
  0.000  0.000  0.000  0.000  1.000
    occupations:
  0.128 -0.000 -0.000  0.000  0.000
 -0.000  0.143 -0.000  0.000  0.000
 -0.000 -0.000  0.143  0.000  0.000
  0.000  0.000  0.000  0.066 -0.000
  0.000  0.000  0.000 -0.000  0.248
   spin  2
    eigenvalues: 
  0.985  0.994  0.994  0.997  1.002
    eigenvectors:
  0.000  0.000  0.000  1.000  0.000
  0.000  0.332  0.668  0.000  0.000
  0.000  0.668  0.332  0.000  0.000
  0.000  0.000  0.000  0.000  1.000
  1.000  0.000  0.000  0.000  0.000
    occupations:
  0.997 -0.000 -0.000  0.000  0.000
 -0.000  0.994 -0.000  0.000  0.000
 -0.000 -0.000  0.994  0.000  0.000
  0.000  0.000  0.000  1.002 -0.000
  0.000  0.000  0.000 -0.000  0.985
atomic mag. moment =    -4.246757
atom    8   Tr[ns(na)] (up, down, total) =   0.73788  4.97181  5.70970
   spin  1
    eigenvalues: 
  0.064  0.132  0.143  0.143  0.257
    eigenvectors:
  0.000  1.000  0.000  0.000  0.000
  0.000  0.000  0.245  0.755  0.000
  0.000  0.000  0.755  0.245  0.000
  1.000  0.000  0.000  0.000  0.000
  0.000  0.000  0.000  0.000  1.000
    occupations:
  0.132 -0.000 -0.000  0.000  0.000
 -0.000  0.143 -0.000  0.000  0.000
 -0.000 -0.000  0.143  0.000  0.000
  0.000  0.000  0.000  0.064 -0.000
  0.000  0.000  0.000 -0.000  0.257
   spin  2
    eigenvalues: 
  0.985  0.994  0.994  0.996  1.002
    eigenvectors:
  0.000  0.000  0.000  1.000  0.000
  0.000  0.281  0.719  0.000  0.000
  0.000  0.719  0.281  0.000  0.000
  0.000  0.000  0.000  0.000  1.000
  1.000  0.000  0.000  0.000  0.000
    occupations:
  0.996 -0.000 -0.000  0.000  0.000
 -0.000  0.994 -0.000  0.000  0.000
 -0.000 -0.000  0.994  0.000  0.000
  0.000  0.000  0.000  1.002 -0.000
  0.000  0.000  0.000 -0.000  0.985
atomic mag. moment =    -4.233933
N of occupied +U levels =   45.674366
 --- exit write_ns ---

 ------ SPIN UP ------------


          k = 0.0000 0.0000 0.0000 ( 13925 PWs)   bands (ev):

   -66.8293 -66.7668 -66.7034 -66.6069 -66.5985 -62.2478 -62.1592 -62.1443
   -35.5937 -35.5472 -35.5472 -35.5332 -35.4851 -35.4851 -35.4724 -35.4214
   -35.4214 -35.3845 -35.3747 -35.3221 -35.3221 -35.3146 -35.3146 -31.0713
   -31.0650 -31.0650 -30.9847 -30.9778 -30.9778 -30.9720 -30.9620 -30.9620
     5.7586   5.8933   5.9392   6.3377   6.3938   7.0119   7.0550   7.6174
     8.2762   8.3877   8.3924   8.4719   8.4860   8.5048   8.5560   8.6826
     8.7905   8.8348   8.8676   8.9602   9.0606   9.1465   9.2128   9.2497
     9.2579   9.3773   9.4495   9.5040   9.6569   9.6677   9.9057   9.9068
     9.9561   9.9739  10.0428  10.1078  10.1123  10.1123  10.1262  10.1390
    10.1781  10.1781  10.1969  10.1969  10.2807  10.3412  10.3412  10.3481
    10.3481  10.3652  10.4821  10.5134  10.5695  10.5695  10.5790  10.5866
    10.5866  10.6087  10.6087  10.6149  10.6149  10.6307  10.6307  10.6683
    10.7326  10.7326  10.7889  10.7889  10.8397  10.9265  10.9945  10.9945
    11.0094  11.0455  11.0455  11.1249  11.2220  11.2358  11.2551  11.3009
    11.3663  11.4071  11.4071  11.4171  11.5349  11.5349  11.5941  11.6254
    11.6416  11.8301  11.8301  11.8648  11.8888  11.9156  12.0067  12.0461
    12.0461  12.0648  12.0805  12.1488  12.2361  12.2454  12.3092  12.3092
    12.4519  12.4519  12.5654  12.7685  12.7685  12.7745  12.7918  12.8172
    12.9747  12.9970  13.1250  13.1912  13.7094  14.0759  15.0509  15.2209
    16.3094  16.8003  16.8003  16.8557  16.8557  16.9129  16.9627  17.0235
    17.1008  17.1008  17.1008  17.1325  17.1875  17.5209  17.5794  17.5868
    18.3590  19.5373  19.6769  20.0676  20.0676  20.4282  20.4282  20.4873
    20.4873  21.4238

          k = 0.0000 0.0000 0.0242 ( 13893 PWs)   bands (ev):

   -66.8293 -66.7668 -66.7034 -66.6069 -66.5985 -62.2478 -62.1592 -62.1443
   -35.5937 -35.5472 -35.5472 -35.5332 -35.4851 -35.4851 -35.4724 -35.4214
   -35.4214 -35.3845 -35.3747 -35.3221 -35.3221 -35.3146 -35.3146 -31.0713
   -31.0650 -31.0650 -30.9847 -30.9778 -30.9778 -30.9720 -30.9620 -30.9620
     5.7660   5.8514   5.9972   6.2354   6.5133   6.8533   7.2178   7.5526
     8.3317   8.3877   8.3976   8.4714   8.4866   8.4959   8.5675   8.6824
     8.6964   8.7860   8.9614   8.9621   9.0982   9.1398   9.1571   9.2624
     9.3123   9.3681   9.4296   9.4815   9.6607   9.6769   9.9057   9.9095
     9.9559   9.9741  10.0322  10.1072  10.1131  10.1131  10.1374  10.1388
    10.1673  10.1673  10.2163  10.2163  10.2805  10.2955  10.2955  10.3660
    10.4014  10.4014  10.4776  10.5078  10.5337  10.5337  10.5726  10.5726
    10.5887  10.5887  10.5890  10.6305  10.6305  10.6623  10.6827  10.6827
    10.7348  10.7348  10.7886  10.7886  10.8517  10.9258  10.9258  10.9283
    10.9869  11.1233  11.1233  11.1455  11.2223  11.2302  11.2467  11.3067
    11.3442  11.3442  11.3644  11.4190  11.5921  11.5948  11.5948  11.6262
    11.6411  11.7943  11.7943  11.8629  11.8905  11.9210  12.0068  12.0517
    12.0655  12.0655  12.0805  12.1632  12.2361  12.2394  12.2997  12.2997
    12.4553  12.4553  12.5659  12.7683  12.7683  12.7732  12.7930  12.8312
    12.9515  12.9746  13.1250  13.2585  13.6205  14.1715  14.8819  15.3783
    16.2658  16.8002  16.8002  16.8558  16.8558  16.9129  16.9627  17.0235
    17.1008  17.1008  17.1008  17.1325  17.1875  17.5237  17.5747  17.5933
    18.4323  19.2080  20.0622  20.0898  20.0898  20.2977  20.2977  20.6565
    20.6565  21.1631

          k = 0.0000 0.0000-0.0484 ( 13878 PWs)   bands (ev):

   -66.8293 -66.7668 -66.7034 -66.6069 -66.5985 -62.2478 -62.1592 -62.1443
   -35.5937 -35.5472 -35.5472 -35.5332 -35.4851 -35.4851 -35.4724 -35.4214
   -35.4214 -35.3845 -35.3747 -35.3221 -35.3221 -35.3146 -35.3146 -31.0713
   -31.0650 -31.0650 -30.9847 -30.9778 -30.9778 -30.9720 -30.9620 -30.9620
     5.7782   5.8224   6.0559   6.1595   6.6392   6.7152   7.3669   7.4321
     8.3777   8.3877   8.4435   8.4709   8.4832   8.4871   8.5759   8.5931
     8.6822   8.7731   8.9626   9.0237   9.0862   9.1339   9.1559   9.2761
     9.3570   9.3603   9.3915   9.4599   9.6645   9.6846   9.9058   9.9121
     9.9556   9.9744  10.0233  10.1066  10.1140  10.1140  10.1387  10.1469
    10.1611  10.1611  10.2420  10.2420  10.2618  10.2618  10.2803  10.3669
    10.4621  10.4621  10.4676  10.4676  10.4730  10.5030  10.5721  10.5721
    10.5886  10.5886  10.5994  10.6305  10.6305  10.6549  10.7152  10.7152
    10.7466  10.7466  10.7872  10.7872  10.8668  10.8781  10.8781  10.9301
    10.9643  11.1659  11.1988  11.1988  11.2225  11.2254  11.2356  11.2701
    11.2701  11.3118  11.3627  11.4208  11.5901  11.6270  11.6407  11.6582
    11.6582  11.7427  11.7427  11.8611  11.8919  11.9270  12.0070  12.0398
    12.0804  12.0834  12.0834  12.1776  12.2316  12.2361  12.2897  12.2897
    12.4585  12.4585  12.5664  12.7682  12.7682  12.7720  12.7940  12.8582
    12.9027  12.9746  13.1250  13.3400  13.5230  14.2668  14.7597  15.4793
    16.2175  16.8002  16.8002  16.8558  16.8558  16.9129  16.9627  17.0235
    17.1008  17.1008  17.1008  17.1325  17.1875  17.5262  17.5721  17.5975
    18.5369  19.0017  20.1315  20.1315  20.2112  20.2112  20.4584  20.6443
    20.8412  20.8412

          k = 0.0000 0.1250 0.0000 ( 13879 PWs)   bands (ev):

   -66.8291 -66.7665 -66.7031 -66.6066 -66.5983 -62.2478 -62.1592 -62.1444
   -35.5936 -35.5489 -35.5471 -35.5330 -35.4869 -35.4851 -35.4723 -35.4232
   -35.4213 -35.3843 -35.3745 -35.3239 -35.3220 -35.3164 -35.3145 -31.0711
   -31.0672 -31.0649 -30.9844 -30.9800 -30.9777 -30.9717 -30.9642 -30.9619
     6.0020   6.1334   6.1782   6.5633   6.6152   7.2031   7.2374   7.7589
     8.2869   8.4822   8.5244   8.5816   8.6029   8.6069   8.6493   8.7375
     8.7611   8.7924   8.9188   8.9882   9.0570   9.1672   9.2212   9.2571
     9.3102   9.3267   9.3959   9.4237   9.6155   9.6425   9.7716   9.7828
     9.8227   9.8478   9.8677   9.9237   9.9455  10.0147  10.0307  10.0588
    10.0687  10.1255  10.1285  10.1638  10.1697  10.2263  10.2327  10.3156
    10.3239  10.3912  10.4062  10.4232  10.4658  10.4821  10.5485  10.5896
    10.6204  10.6665  10.7079  10.7337  10.7633  10.7894  10.7896  10.8460
    10.8633  10.8970  10.9436  10.9774  10.9935  11.0819  11.1098  11.1328
    11.1383  11.1832  11.1895  11.2093  11.2259  11.2935  11.3281  11.3551
    11.3873  11.3960  11.4401  11.4976  11.5720  11.5984  11.6083  11.6882
    11.7879  11.7930  11.8099  11.8702  11.9000  11.9078  11.9573  11.9675
    12.0419  12.0788  12.1150  12.2073  12.2211  12.2413  12.2470  12.3152
    12.4954  12.5243  12.5757  12.6000  12.6924  12.7584  12.7989  12.8239
    12.9758  13.0123  13.0148  13.1571  13.7803  14.1138  15.1729  15.3386
    16.4157  16.5725  16.6849  16.8977  16.9134  16.9336  16.9755  16.9781
    16.9969  17.0398  17.0681  17.0955  17.2468  17.5022  17.6243  17.9292
    18.4863  18.6371  18.9844  19.0577  19.8279  19.8665  19.9397  19.9757
    20.6793  20.9787

          k = 0.0000 0.1250 0.0242 ( 13869 PWs)   bands (ev):

   -66.8291 -66.7665 -66.7031 -66.6066 -66.5983 -62.2478 -62.1592 -62.1444
   -35.5936 -35.5489 -35.5471 -35.5330 -35.4869 -35.4850 -35.4723 -35.4232
   -35.4213 -35.3843 -35.3745 -35.3239 -35.3220 -35.3164 -35.3145 -31.0711
   -31.0672 -31.0649 -30.9844 -30.9800 -30.9777 -30.9717 -30.9642 -30.9619
     6.0093   6.0927   6.2344   6.4639   6.7306   7.0512   7.3922   7.6978
     8.3376   8.4842   8.5244   8.5723   8.6018   8.6042   8.6360   8.6657
     8.7742   8.8385   8.9318   8.9974   9.0570   9.1527   9.2277   9.2556
     9.2891   9.3158   9.3946   9.4654   9.5969   9.6442   9.7718   9.7753
     9.8215   9.8494   9.8845   9.9232   9.9455  10.0033  10.0284  10.0584
    10.0727  10.1278  10.1285  10.1615  10.1716  10.2139  10.2554  10.3139
    10.3258  10.3628  10.3997  10.4250  10.4785  10.5108  10.5500  10.5893
    10.6201  10.6667  10.6865  10.7081  10.7331  10.7947  10.8389  10.8598
    10.8799  10.8820  10.9431  10.9938  10.9939  11.0805  11.0844  11.1094
    11.1294  11.1840  11.1918  11.2243  11.2443  11.2930  11.3146  11.3455
    11.3918  11.4083  11.4302  11.5338  11.5584  11.6068  11.6183  11.6887
    11.7205  11.7601  11.8693  11.8772  11.8985  11.9050  11.9581  11.9993
    12.0351  12.0782  12.1051  12.1989  12.2080  12.2431  12.2483  12.3258
    12.4987  12.5266  12.5702  12.5994  12.6934  12.7754  12.7987  12.8240
    12.9150  13.0123  13.0149  13.2434  13.6642  14.2379  14.9830  15.5112
    16.3542  16.5906  16.6950  16.8977  16.9122  16.9323  16.9755  16.9783
    16.9969  17.0398  17.0678  17.0955  17.2467  17.4986  17.6494  17.8560
    18.6208  18.6618  18.8814  19.1951  19.4729  19.6436  20.1386  20.3990
    20.6933  20.7121

          k = 0.0000 0.1250-0.0484 ( 13868 PWs)   bands (ev):

   -66.8291 -66.7665 -66.7031 -66.6066 -66.5983 -62.2478 -62.1592 -62.1444
   -35.5936 -35.5489 -35.5471 -35.5330 -35.4869 -35.4850 -35.4723 -35.4232
   -35.4213 -35.3843 -35.3745 -35.3239 -35.3220 -35.3164 -35.3145 -31.0711
   -31.0672 -31.0649 -30.9844 -30.9800 -30.9777 -30.9717 -30.9642 -30.9619
     6.0209   6.0646   6.2918   6.3902   6.8541   6.9172   7.5391   7.5773
     8.4067   8.4939   8.5237   8.5279   8.5851   8.5999   8.6060   8.6756
     8.7732   8.8443   8.9707   9.0149   9.0308   9.1519   9.2197   9.2547
     9.2813   9.3026   9.3993   9.5061   9.5690   9.6450   9.7697   9.7719
     9.8204   9.8509   9.9018   9.9226   9.9455   9.9898  10.0263  10.0582
    10.0763  10.1285  10.1296  10.1592  10.1736  10.2093  10.2759  10.3123
    10.3275  10.3339  10.3992  10.4269  10.4748  10.5513  10.5633  10.5890
    10.6198  10.6251  10.6668  10.7082  10.7325  10.8008  10.8412  10.8615
    10.8687  10.9384  10.9465  10.9908  11.0084  11.0235  11.0885  11.1085
    11.1191  11.1798  11.1925  11.2501  11.2579  11.2697  11.3096  11.3416
    11.3947  11.4217  11.4245  11.5499  11.5720  11.6015  11.6462  11.6700
    11.6891  11.7272  11.8819  11.8820  11.8929  11.9332  11.9581  12.0182
    12.0302  12.0764  12.0987  12.1766  12.2077  12.2392  12.2544  12.3342
    12.5014  12.5310  12.5632  12.5988  12.6944  12.7985  12.8110  12.8241
    12.8514  13.0123  13.0149  13.3443  13.5429  14.3572  14.8426  15.6200
    16.2945  16.6005  16.7053  16.8977  16.9108  16.9311  16.9755  16.9785
    16.9969  17.0398  17.0675  17.0955  17.2467  17.4956  17.6942  17.7749
    18.6741  18.7977  18.8552  19.1912  19.3444  19.4748  20.3842  20.4172
    20.7137  20.8336

          k = 0.0000 0.2500 0.0000 ( 13848 PWs)   bands (ev):

   -66.8289 -66.7664 -66.7030 -66.6065 -66.5981 -62.2475 -62.1588 -62.1440
   -35.5932 -35.5531 -35.5468 -35.5326 -35.4911 -35.4848 -35.4719 -35.4274
   -35.4211 -35.3839 -35.3741 -35.3281 -35.3218 -35.3206 -35.3143 -31.0724
   -31.0705 -31.0645 -30.9853 -30.9839 -30.9773 -30.9711 -30.9695 -30.9616
     6.6906   6.8095   6.8508   7.1839   7.2219   7.6836   7.6932   8.0594
     8.2523   8.4826   8.4972   8.6950   8.7172   8.7292   8.7959   8.8603
     8.8623   8.8928   8.9245   8.9384   8.9727   8.9980   9.0748   9.2065
     9.2368   9.4400   9.4722   9.5010   9.5262   9.5804   9.5940   9.6201
     9.6401   9.6453   9.6585   9.7371   9.7444   9.7873   9.8453   9.8860
     9.9851   9.9973  10.0299  10.1258  10.1463  10.1597  10.2515  10.3191
    10.3686  10.5463  10.5496  10.5715  10.6126  10.6286  10.6681  10.7199
    10.7453  10.8021  10.8248  10.8587  10.9066  10.9189  10.9320  11.0128
    11.0633  11.0981  11.1076  11.1411  11.1714  11.1920  11.2246  11.2711
    11.3222  11.3293  11.3842  11.4249  11.4304  11.4478  11.5383  11.5398
    11.6120  11.6133  11.6473  11.6610  11.6897  11.7095  11.7607  11.7910
    11.8115  11.8289  11.8717  11.8744  11.9100  11.9377  11.9493  11.9853
    12.0399  12.0656  12.0701  12.1354  12.1504  12.2177  12.2478  12.3699
    12.4570  12.5749  12.5802  12.6831  12.6971  12.7018  12.8688  12.8873
    12.9126  13.0460  13.0522  13.0722  13.9627  14.2002  15.3711  15.4650
    15.9696  16.0250  16.1196  16.2249  16.4775  16.6264  16.7389  16.7871
    16.8584  17.0062  17.0481  17.0867  17.2299  17.2477  17.3179  17.3516
    17.3826  17.5689  17.7910  17.9575  18.3794  18.5072  18.5328  18.7644
    19.4151  20.4337

          k = 0.0000 0.2500 0.0242 ( 13862 PWs)   bands (ev):

   -66.8289 -66.7664 -66.7030 -66.6065 -66.5981 -62.2475 -62.1588 -62.1440
   -35.5932 -35.5531 -35.5468 -35.5326 -35.4911 -35.4848 -35.4719 -35.4274
   -35.4211 -35.3839 -35.3741 -35.3281 -35.3218 -35.3206 -35.3143 -31.0724
   -31.0705 -31.0645 -30.9853 -30.9839 -30.9773 -30.9711 -30.9695 -30.9616
     6.6969   6.7738   6.9003   7.0976   7.3191   7.5649   7.8074   8.0153
     8.2869   8.4261   8.5502   8.6581   8.7282   8.7464   8.7944   8.8511
     8.8677   8.8887   8.9170   8.9474   8.9825   8.9977   9.0744   9.1906
     9.2356   9.4722   9.4729   9.5005   9.5274   9.5780   9.5910   9.6224
     9.6352   9.6449   9.6581   9.6850   9.7438   9.7873   9.8867   9.9063
     9.9821  10.0009  10.0290  10.1171  10.1238  10.1463  10.2634  10.3492
    10.3500  10.5429  10.5683  10.5688  10.5897  10.6347  10.6872  10.7207
    10.7426  10.7630  10.8342  10.8575  10.9087  10.9299  10.9493  10.9971
    11.0745  11.0808  11.1157  11.1476  11.1591  11.1966  11.2252  11.2796
    11.3193  11.3303  11.3835  11.4170  11.4269  11.4613  11.5240  11.5481
    11.5952  11.6128  11.6205  11.6784  11.6938  11.7511  11.7682  11.7912
    11.8121  11.8286  11.8689  11.8701  11.9013  11.9075  11.9466  11.9990
    12.0149  12.0637  12.1109  12.1397  12.1504  12.2123  12.2419  12.3779
    12.4403  12.5943  12.5995  12.6817  12.6945  12.6992  12.7975  12.8696
    12.8873  13.0460  13.0722  13.2050  13.7648  14.4021  15.1427  15.6619
    15.9624  16.0141  16.1186  16.2032  16.4869  16.6203  16.7422  16.7871
    16.8584  17.0062  17.0482  17.0858  17.2299  17.2555  17.3179  17.3369
    17.3826  17.6105  17.7517  18.0437  18.2063  18.3969  18.6833  18.8541
    19.4521  20.0649

          k = 0.0000 0.2500-0.0484 ( 13842 PWs)   bands (ev):

   -66.8289 -66.7664 -66.7030 -66.6065 -66.5981 -62.2475 -62.1588 -62.1440
   -35.5932 -35.5531 -35.5468 -35.5326 -35.4911 -35.4848 -35.4719 -35.4274
   -35.4211 -35.3839 -35.3741 -35.3281 -35.3218 -35.3206 -35.3143 -31.0724
   -31.0705 -31.0645 -30.9853 -30.9839 -30.9773 -30.9711 -30.9695 -30.9616
     6.7069   6.7493   6.9517   7.0333   7.4278   7.4527   7.9008   7.9395
     8.3369   8.3743   8.6024   8.6101   8.7311   8.7586   8.7942   8.8455
     8.8704   8.8886   8.9039   8.9606   8.9897   8.9969   9.0740   9.1751
     9.2349   9.4723   9.5000   9.5249   9.5287   9.5701   9.5758   9.6176
     9.6246   9.6445   9.6549   9.6614   9.7433   9.7873   9.8873   9.9683
     9.9800  10.0037  10.0280  10.0631  10.1220  10.1464  10.2816  10.3249
    10.3784  10.5297  10.5624  10.5813  10.5947  10.6407  10.6969  10.7186
    10.7284  10.7444  10.8484  10.8570  10.8907  10.9286  10.9883  10.9990
    11.0417  11.0816  11.1281  11.1504  11.1585  11.2009  11.2144  11.2957
    11.3126  11.3315  11.3828  11.4095  11.4251  11.4832  11.5049  11.5478
    11.5710  11.6123  11.6238  11.6891  11.6984  11.7594  11.7899  11.8042
    11.8188  11.8323  11.8515  11.8615  11.8799  11.9031  11.9406  11.9779
    12.0321  12.0636  12.1343  12.1453  12.1504  12.2058  12.2345  12.3915
    12.4193  12.6086  12.6596  12.6787  12.6896  12.6914  12.6991  12.8704
    12.8873  13.0459  13.0722  13.3711  13.5736  14.5806  14.9658  15.7891
    15.9283  16.0149  16.1039  16.1887  16.4951  16.6147  16.7450  16.7871
    16.8584  17.0062  17.0482  17.0850  17.2299  17.2649  17.3179  17.3232
    17.3826  17.6452  17.7452  18.0766  18.1956  18.2360  18.8062  18.8734
    19.5739  19.7996

          k = 0.0000 0.3750 0.0000 ( 13856 PWs)   bands (ev):

   -66.8295 -66.7669 -66.7036 -66.6071 -66.5987 -62.2465 -62.1578 -62.1430
   -35.5927 -35.5572 -35.5466 -35.5322 -35.4952 -35.4846 -35.4715 -35.4314
   -35.4208 -35.3835 -35.3737 -35.3322 -35.3247 -35.3215 -35.3140 -31.0778
   -31.0700 -31.0642 -30.9907 -30.9833 -30.9770 -30.9749 -30.9706 -30.9612
     7.6494   7.7409   7.7742   7.9739   7.9823   8.1428   8.1460   8.1859
     8.2015   8.2677   8.2974   8.4107   8.4529   8.6172   8.6602   8.8511
     8.9275   8.9639   9.0669   9.1191   9.1659   9.1807   9.2275   9.2295
     9.2923   9.2947   9.3130   9.3144   9.3182   9.3562   9.5085   9.5181
     9.5461   9.5858   9.6126   9.6949   9.7195   9.7925   9.8379   9.9124
     9.9333  10.0101  10.0370  10.1016  10.1168  10.1563  10.2018  10.3503
    10.3610  10.3742  10.4923  10.5253  10.5538  10.7087  10.7714  10.8217
    10.8360  10.8652  11.0052  11.0197  11.1310  11.1849  11.2242  11.2805
    11.3064  11.3300  11.3569  11.4302  11.4553  11.4587  11.4867  11.5276
    11.5420  11.5801  11.6097  11.6230  11.6278  11.6738  11.7133  11.7212
    11.7408  11.7691  11.8155  11.8367  11.8439  11.8817  11.9016  11.9382
    12.0160  12.0488  12.0524  12.0650  12.1041  12.1289  12.1612  12.1671
    12.1921  12.1945  12.3128  12.3318  12.3643  12.3789  12.4424  12.5390
    12.5611  12.5729  12.6939  12.7712  12.7846  12.8047  12.9345  12.9704
    12.9796  12.9842  13.1035  13.1189  13.9382  14.0043  14.0193  14.2676
    14.2767  14.8134  14.8815  15.0987  15.1386  15.5455  15.5801  15.9489
    16.0327  16.7499  16.7878  16.8073  16.8261  16.9349  16.9820  17.0451
    17.1137  17.2597  17.4312  17.5238  17.5503  17.9059  17.9777  18.1590
    19.4943  19.6012

          k = 0.0000 0.3750 0.0242 ( 13870 PWs)   bands (ev):

   -66.8295 -66.7669 -66.7036 -66.6071 -66.5987 -62.2465 -62.1578 -62.1430
   -35.5927 -35.5572 -35.5466 -35.5322 -35.4952 -35.4846 -35.4715 -35.4314
   -35.4208 -35.3835 -35.3737 -35.3322 -35.3247 -35.3215 -35.3140 -31.0778
   -31.0700 -31.0642 -30.9907 -30.9833 -30.9770 -30.9749 -30.9706 -30.9612
     7.6537   7.7168   7.8075   7.9232   8.0296   8.1160   8.1630   8.1821
     8.2090   8.2549   8.3150   8.3845   8.4800   8.5909   8.6812   8.8375
     8.9423   8.9693   9.0565   9.0891   9.1828   9.2052   9.2274   9.2295
     9.2897   9.2948   9.3143   9.3171   9.3187   9.3553   9.4906   9.5093
     9.5446   9.5460   9.6451   9.7164   9.7412   9.7970   9.8364   9.9168
     9.9365   9.9978  10.0493  10.0525  10.0945  10.1205  10.2915  10.3503
    10.3630  10.3857  10.4759  10.5244  10.5577  10.7161  10.7193  10.8201
    10.8218  10.8833  11.0370  11.0464  11.1382  11.1862  11.2066  11.2664
    11.3076  11.3132  11.3974  11.4376  11.4494  11.4663  11.4752  11.5142
    11.5261  11.5522  11.6059  11.6066  11.6426  11.6728  11.6992  11.7220
    11.7599  11.7685  11.8024  11.8285  11.8598  11.8890  11.9035  11.9496
    12.0024  12.0479  12.0593  12.0733  12.0953  12.1344  12.1632  12.1700
    12.2237  12.2419  12.2964  12.3266  12.3715  12.3881  12.4450  12.5335
    12.5607  12.5720  12.6977  12.7110  12.7691  12.7845  12.8049  12.9347
    12.9796  13.1035  13.1189  13.2494  13.7693  13.9696  14.1357  14.2314
    14.4352  14.6580  14.8362  15.0916  15.3350  15.4319  15.6310  15.9242
    16.0229  16.7499  16.7878  16.8044  16.8361  16.9349  16.9820  17.0427
    17.1154  17.2614  17.4312  17.5238  17.5503  17.9068  17.9763  18.1610
    19.4961  19.6256

          k = 0.0000 0.3750-0.0484 ( 13872 PWs)   bands (ev):

   -66.8295 -66.7669 -66.7036 -66.6071 -66.5987 -62.2465 -62.1578 -62.1430
   -35.5927 -35.5572 -35.5466 -35.5322 -35.4952 -35.4846 -35.4715 -35.4314
   -35.4208 -35.3835 -35.3737 -35.3322 -35.3247 -35.3215 -35.3140 -31.0778
   -31.0700 -31.0642 -30.9907 -30.9833 -30.9770 -30.9749 -30.9706 -30.9612
     7.6598   7.7004   7.8452   7.8818   8.0661   8.0873   8.1713   8.1774
     8.2179   8.2433   8.3406   8.3542   8.5054   8.5657   8.6960   8.8254
     8.9560   8.9761   9.0457   9.0682   9.1928   9.2237   9.2274   9.2295
     9.2936   9.2949   9.3143   9.3193   9.3203   9.3544   9.4533   9.5102
     9.5385   9.5460   9.6503   9.7135   9.7945   9.8016   9.8346   9.9405
     9.9463   9.9574   9.9880  10.0600  10.0868  10.1230  10.3329  10.3503
    10.3627  10.4273  10.4442  10.5236  10.5552  10.6795  10.7253  10.8068
    10.8188  10.8901  11.0558  11.0884  11.1503  11.1875  11.1963  11.2269
    11.3109  11.3346  11.4043  11.4408  11.4418  11.4580  11.4846  11.4864
    11.5152  11.5429  11.5827  11.6100  11.6537  11.6727  11.6902  11.7335
    11.7613  11.7787  11.7972  11.8142  11.8678  11.8745  11.9130  11.9830
    11.9995  12.0242  12.0646  12.0656  12.0894  12.1437  12.1656  12.1706
    12.2648  12.2685  12.2835  12.3729  12.3996  12.4180  12.4593  12.4884
    12.5274  12.5605  12.5766  12.7016  12.7668  12.7844  12.8052  12.9348
    12.9795  13.1035  13.1189  13.4922  13.5413  14.0124  14.0550  14.4160
    14.4745  14.5928  14.6739  15.2241  15.2913  15.5362  15.5521  15.9154
    16.0067  16.7499  16.7878  16.8032  16.8442  16.9349  16.9820  17.0403
    17.1169  17.2631  17.4312  17.5238  17.5503  17.9077  17.9750  18.1629
    19.5018  19.6455

          k = 0.0000-0.5000 0.0000 ( 13918 PWs)   bands (ev):

   -66.8299 -66.7674 -66.7040 -66.6075 -66.5991 -62.2459 -62.1572 -62.1424
   -35.5926 -35.5588 -35.5465 -35.5320 -35.4968 -35.4845 -35.4713 -35.4331
   -35.4207 -35.3834 -35.3735 -35.3338 -35.3263 -35.3214 -35.3139 -31.0801
   -31.0697 -31.0641 -30.9929 -30.9831 -30.9772 -30.9769 -30.9704 -30.9611
     8.1187   8.1215   8.1586   8.1764   8.2062   8.2143   8.3002   8.3270
     8.3909   8.4431   8.4475   8.5090   8.5128   8.5528   8.6709   8.6867
     8.8702   8.8773   9.0104   9.0313   9.1267   9.1297   9.2027   9.2033
     9.2244   9.2362   9.2457   9.2832   9.4325   9.4343   9.5195   9.5652
     9.6829   9.6896   9.6936   9.7042   9.7520   9.7686   9.8207   9.8305
     9.8865   9.9624   9.9799  10.0046  10.0315  10.0431  10.1003  10.2640
    10.3465  10.4087  10.4314  10.4329  10.5703  10.6833  10.6843  10.7038
    10.8365  10.9055  11.0849  11.2043  11.3180  11.3595  11.3762  11.4409
    11.4519  11.4530  11.4661  11.5389  11.5413  11.5584  11.5685  11.5820
    11.5891  11.6061  11.6130  11.6485  11.6619  11.7395  11.7469  11.7772
    11.8089  11.8457  11.8459  11.9224  11.9306  12.0070  12.0457  12.1391
    12.2276  12.2604  12.3765  12.4115  12.4265  12.4452  12.4542  12.4757
    12.5203  12.5479  12.5757  12.5907  12.5974  12.6023  12.6424  12.7775
    12.7915  12.7955  12.8309  12.8335  12.8644  12.9556  12.9700  12.9929
    12.9954  13.1334  13.1350  13.1369  13.2488  13.3834  13.4274  13.7451
    13.8097  13.8757  13.8942  14.3977  14.4207  14.4394  14.4993  14.8144
    14.8419  16.5536  16.6713  16.7497  16.7691  16.8183  16.8319  16.8486
    16.9889  16.9969  17.5049  17.6028  17.6189  17.9049  18.0011  18.0114
    19.5265  19.5423

          k = 0.0000-0.5000 0.0242 ( 13918 PWs)   bands (ev):

   -66.8299 -66.7674 -66.7040 -66.6075 -66.5991 -62.2459 -62.1572 -62.1424
   -35.5926 -35.5588 -35.5465 -35.5320 -35.4968 -35.4845 -35.4713 -35.4331
   -35.4207 -35.3834 -35.3735 -35.3338 -35.3263 -35.3214 -35.3139 -31.0801
   -31.0697 -31.0641 -30.9929 -30.9831 -30.9772 -30.9769 -30.9704 -30.9611
     8.1192   8.1212   8.1572   8.1789   8.2029   8.2165   8.3028   8.3241
     8.3875   8.4492   8.4501   8.5016   8.5120   8.5563   8.6702   8.6863
     8.8735   8.8790   9.0054   9.0244   9.1267   9.1297   9.2032   9.2107
     9.2244   9.2362   9.2458   9.2943   9.4325   9.4343   9.5076   9.5485
     9.6832   9.6921   9.6936   9.7105   9.7577   9.7682   9.8184   9.8296
     9.8865   9.9628   9.9972  10.0046  10.0313  10.0431  10.1221  10.2355
    10.3077  10.4255  10.4314  10.4329  10.5867  10.6832  10.6845  10.7038
    10.8334  10.9164  11.0848  11.2075  11.3235  11.3471  11.3762  11.4410
    11.4494  11.4551  11.4666  11.5305  11.5428  11.5553  11.5739  11.5876
    11.5888  11.6048  11.6120  11.6318  11.6482  11.7434  11.7565  11.7760
    11.8103  11.8436  11.8451  11.9224  11.9569  12.0080  12.0566  12.1391
    12.2059  12.2590  12.3766  12.4131  12.4264  12.4368  12.4608  12.4804
    12.5195  12.5432  12.5747  12.5860  12.5908  12.6082  12.6586  12.7783
    12.7912  12.7958  12.8221  12.8330  12.8430  12.9828  12.9906  12.9929
    12.9954  13.1143  13.1334  13.1350  13.2186  13.4052  13.4698  13.6954
    13.7186  13.9616  13.9746  14.2757  14.3128  14.5583  14.6025  14.7864
    14.8153  16.5561  16.6719  16.7481  16.7691  16.8183  16.8319  16.8486
    16.9889  16.9968  17.5049  17.6028  17.6189  17.9050  18.0011  18.0115
    19.5406  19.5532

          k = 0.0000-0.5000-0.0484 ( 13892 PWs)   bands (ev):

   -66.8299 -66.7674 -66.7040 -66.6075 -66.5991 -62.2459 -62.1572 -62.1424
   -35.5926 -35.5588 -35.5465 -35.5320 -35.4968 -35.4845 -35.4713 -35.4331
   -35.4207 -35.3834 -35.3735 -35.3338 -35.3263 -35.3214 -35.3139 -31.0801
   -31.0697 -31.0641 -30.9929 -30.9831 -30.9772 -30.9769 -30.9704 -30.9611
     8.1196   8.1210   8.1557   8.1822   8.1987   8.2187   8.3054   8.3212
     8.3842   8.4526   8.4568   8.4931   8.5112   8.5593   8.6696   8.6858
     8.8771   8.8809   9.0006   9.0177   9.1268   9.1297   9.2031   9.2188
     9.2244   9.2362   9.2458   9.3060   9.4325   9.4342   9.4961   9.5322
     9.6835   9.6936   9.6941   9.7157   9.7637   9.7677   9.8158   9.8288
     9.8865   9.9633  10.0046  10.0173  10.0311  10.0431  10.1548  10.2073
    10.2611  10.4314  10.4328  10.4390  10.5998  10.6831  10.6846  10.7039
    10.8303  10.9282  11.0847  11.2105  11.3299  11.3340  11.3762  11.4412
    11.4450  11.4582  11.4670  11.5234  11.5448  11.5521  11.5774  11.5881
    11.5975  11.6053  11.6071  11.6189  11.6345  11.7467  11.7622  11.7747
    11.8113  11.8417  11.8446  11.9224  11.9874  12.0090  12.0672  12.1390
    12.1804  12.2576  12.3767  12.4147  12.4263  12.4294  12.4675  12.4841
    12.5181  12.5393  12.5737  12.5780  12.5908  12.6135  12.6722  12.7792
    12.7910  12.7961  12.8143  12.8257  12.8324  12.9930  12.9954  13.0077
    13.0184  13.0846  13.1334  13.1350  13.1906  13.4288  13.5224  13.6492
    13.6561  14.0370  14.0575  14.1862  14.2249  14.6451  14.6880  14.7366
    14.7658  16.5586  16.6724  16.7464  16.7691  16.8183  16.8319  16.8486
    16.9888  16.9968  17.5049  17.6028  17.6189  17.9051  18.0010  18.0115
    19.5568  19.5651

          k = 0.1250 0.1250 0.0000 ( 13839 PWs)   bands (ev):

   -66.8288 -66.7662 -66.7028 -66.6063 -66.5980 -62.2479 -62.1592 -62.1444
   -35.5934 -35.5489 -35.5488 -35.5329 -35.4868 -35.4868 -35.4721 -35.4231
   -35.4230 -35.3842 -35.3744 -35.3238 -35.3237 -35.3163 -35.3163 -31.0709
   -31.0671 -31.0669 -30.9842 -30.9799 -30.9797 -30.9715 -30.9641 -30.9639
     6.2337   6.3627   6.4079   6.7836   6.8338   7.3989   7.4273   7.9174
     8.3467   8.5646   8.6656   8.6735   8.7241   8.7248   8.7319   8.7390
     8.7597   8.9044   8.9965   9.0387   9.1215   9.1272   9.3194   9.3343
     9.3558   9.3836   9.3848   9.4705   9.5161   9.6051   9.6132   9.6923
     9.7719   9.8011   9.8216   9.8704   9.8733   9.8842   9.9055   9.9163
     9.9227   9.9524  10.0921  10.1021  10.1051  10.1440  10.2399  10.2535
    10.3426  10.3430  10.3640  10.3833  10.3836  10.4033  10.5169  10.5270
    10.5778  10.6268  10.6337  10.6815  10.7036  10.7342  10.7673  10.8491
    10.8788  10.9274  11.0191  11.0558  11.0886  11.1179  11.1486  11.1672
    11.1883  11.2129  11.2617  11.2995  11.2998  11.3757  11.3975  11.4031
    11.4443  11.5112  11.5459  11.5698  11.6444  11.6632  11.6946  11.7446
    11.8206  11.8527  11.9055  11.9216  11.9709  11.9785  11.9831  12.0381
    12.0742  12.1197  12.1246  12.1784  12.2642  12.2906  12.3657  12.4623
    12.4958  12.4961  12.5202  12.6088  12.6951  12.7064  12.7342  12.8054
[...]
    11.6048  11.6383  11.6660  11.6818  11.8266  11.8600  11.8812  11.9141
    11.9173  11.9621  11.9866  11.9950  12.0618  12.1669  12.1673  12.2322
    12.2980  12.3686  12.3990  12.4108  12.4433  12.4694  12.4765  12.8269
    12.8626  12.8893  12.9370  13.0761  13.1949  13.3705  13.4140  13.7490
    13.7878  13.8337  14.0081  14.2550  14.4275  14.5034  14.5247  14.8800
    14.9129  15.0729  15.2549  15.5117  16.0871  16.3753  16.3797  16.9707
    16.9711  16.9907  17.0465  17.0839  17.0982  17.1379  17.1624  17.1651
    17.2864  17.4844  17.4924  17.5907  17.6463  17.8279  17.8769  18.0468
    18.1395  18.1440  18.2082  18.2473  18.3493  18.3781  18.5494  18.5537
    19.7645  19.8234

          k = 0.3750 0.3750 0.0000 ( 13948 PWs)   bands (ev):

   -66.8547 -66.7613 -66.7329 -62.2208 -62.1645 -62.1208 -62.0418 -62.0372
   -35.6239 -35.5802 -35.5801 -35.5292 -35.5059 -35.4896 -35.4895 -35.4591
   -35.4590 -31.0522 -31.0520 -31.0407 -30.9971 -30.9969 -30.9860 -30.9531
   -30.9529 -30.9440 -30.8721 -30.8719 -30.8717 -30.8676 -30.8675 -30.8674
     8.0409   8.1730   8.3824   8.4405   8.4883   8.6504   8.6725   8.8180
     8.9704   8.9919   9.0316   9.0395   9.1196   9.1847   9.2345   9.2600
     9.2995   9.3314   9.3397   9.3413   9.3769   9.4011   9.4934   9.5057
     9.5142   9.5304   9.5520   9.5831   9.6852   9.6911   9.7091   9.8408
     9.9300   9.9401   9.9776  10.0127  10.0217  10.0958  10.1029  10.1111
    10.1341  10.1496  10.1620  10.2616  10.2644  10.3900  10.3975  10.4745
    10.5205  10.5673  10.6101  10.6774  10.7092  10.7379  10.7441  10.7897
    10.8518  10.9273  10.9941  11.0333  11.0804  11.0997  11.1567  11.1927
    11.2223  11.3936  11.4418  11.4758  11.5082  11.5345  11.5568  11.5690
    11.5854  11.6060  11.6182  11.6807  11.7652  11.9064  11.9372  11.9468
    11.9584  11.9744  11.9868  12.0237  12.0388  12.0722  12.1126  12.1263
    12.1441  12.2254  12.2632  12.3353  12.3727  12.3987  12.5334  12.6375
    12.6925  12.7191  12.9911  13.0712  13.2954  13.5113  13.8744  13.9952
    14.3174  14.5915  14.8059  15.0227  15.0922  15.1795  15.2282  15.3563
    15.4842  15.8558  16.1485  16.3177  16.4329  16.9659  17.0218  17.0265
    17.0758  17.1083  17.1228  17.1384  17.2151  17.3186  17.3622  17.5276
    17.5488  17.7475  17.7710  17.8386  17.8858  17.9413  18.0212  18.0540
    18.1326  18.2700  18.3151  18.3437  18.4736  18.5440  18.8851  18.9168
    18.9498  19.0141

          k = 0.3750 0.3750 0.0242 ( 13940 PWs)   bands (ev):

   -66.8547 -66.7613 -66.7329 -62.2208 -62.1645 -62.1208 -62.0418 -62.0372
   -35.6239 -35.5802 -35.5801 -35.5292 -35.5059 -35.4896 -35.4895 -35.4591
   -35.4590 -31.0522 -31.0520 -31.0407 -30.9971 -30.9969 -30.9860 -30.9531
   -30.9529 -30.9440 -30.8721 -30.8719 -30.8717 -30.8676 -30.8675 -30.8674
     8.0413   8.1716   8.3826   8.4467   8.4970   8.5923   8.7220   8.8233
     8.9621   8.9916   9.0247   9.0473   9.1169   9.1732   9.2204   9.2729
     9.2996   9.3302   9.3387   9.3645   9.3937   9.4062   9.4670   9.4798
     9.5051   9.5403   9.5789   9.5923   9.6410   9.6810   9.7640   9.8550
     9.9028   9.9333   9.9559  10.0063  10.0410  10.0697  10.1029  10.1296
    10.1480  10.1654  10.1931  10.2257  10.2656  10.3913  10.4129  10.4182
    10.5534  10.5749  10.6073  10.6799  10.7127  10.7162  10.7471  10.8164
    10.8517  10.9273  10.9529  11.0473  11.0809  11.0997  11.1558  11.2066
    11.2253  11.3897  11.4407  11.4790  11.5052  11.5342  11.5588  11.5604
    11.5836  11.6072  11.6178  11.6807  11.7812  11.8793  11.9374  11.9584
    11.9721  11.9742  11.9860  12.0234  12.0453  12.0578  12.0940  12.1334
    12.1643  12.2245  12.2530  12.3350  12.3762  12.3988  12.5447  12.6372
    12.6393  12.7803  12.9438  13.1133  13.2726  13.5273  13.8456  14.0287
    14.2953  14.6140  14.7894  15.0272  15.0966  15.1656  15.2401  15.3536
    15.4845  15.8559  16.1474  16.3175  16.4348  16.9549  17.0273  17.0384
    17.0758  17.1083  17.1194  17.1384  17.2292  17.3028  17.3359  17.5470
    17.5615  17.7432  17.7696  17.8387  17.8746  17.9511  18.0212  18.0511
    18.1371  18.2446  18.3731  18.3796  18.4232  18.6258  18.6844  18.7701
    18.9543  19.1478

          k = 0.3750 0.3750-0.0484 ( 13950 PWs)   bands (ev):

   -66.8547 -66.7613 -66.7329 -62.2208 -62.1645 -62.1208 -62.0418 -62.0372
   -35.6239 -35.5802 -35.5801 -35.5292 -35.5059 -35.4896 -35.4895 -35.4591
   -35.4590 -31.0522 -31.0520 -31.0407 -30.9971 -30.9969 -30.9860 -30.9531
   -30.9529 -30.9440 -30.8721 -30.8719 -30.8717 -30.8676 -30.8675 -30.8674
     8.0416   8.1702   8.3828   8.4520   8.5240   8.5417   8.7463   8.8300
     8.9530   8.9914   9.0219   9.0545   9.0996   9.1787   9.2201   9.2581
     9.2998   9.3378   9.3388   9.3923   9.4131   9.4289   9.4461   9.4516
     9.4671   9.5802   9.5813   9.5951   9.6208   9.6679   9.8186   9.8479
     9.8779   9.9328   9.9536   9.9692  10.0346  10.1028  10.1241  10.1290
    10.1470  10.1709  10.1768  10.2355  10.2935  10.3289  10.4034  10.4459
    10.5353  10.5953  10.6221  10.6759  10.6994  10.7159  10.7485  10.8515
    10.8530  10.9070  10.9273  11.0529  11.0813  11.0997  11.1553  11.2145
    11.2339  11.3849  11.4397  11.4827  11.5016  11.5338  11.5526  11.5610
    11.5816  11.6083  11.6173  11.6807  11.8033  11.8531  11.9375  11.9583
    11.9740  11.9852  11.9947  12.0231  12.0400  12.0556  12.0772  12.1391
    12.1815  12.2237  12.2405  12.3346  12.3795  12.3989  12.5661  12.6000
    12.6369  12.8372  12.8886  13.1511  13.2435  13.5430  13.8223  14.0583
    14.2720  14.6390  14.7694  15.0313  15.1023  15.1532  15.2495  15.3507
    15.4848  15.8559  16.1463  16.3172  16.4367  16.9464  17.0332  17.0482
    17.0759  17.1083  17.1159  17.1384  17.2518  17.2878  17.3035  17.5646
    17.5731  17.7380  17.7680  17.8387  17.8652  17.9639  18.0212  18.0347
    18.1636  18.2325  18.3215  18.4997  18.5165  18.5381  18.5926  18.6810
    18.9270  19.2087

          k = 0.3750-0.5000 0.0000 ( 13934 PWs)   bands (ev):

   -66.8548 -66.7614 -66.7329 -62.2205 -62.1643 -62.1205 -62.0415 -62.0370
   -35.6238 -35.5818 -35.5800 -35.5291 -35.5058 -35.4912 -35.4894 -35.4606
   -35.4589 -31.0543 -31.0519 -31.0405 -30.9992 -30.9968 -30.9858 -30.9552
   -30.9528 -30.9439 -30.8740 -30.8720 -30.8716 -30.8697 -30.8674 -30.8673
     8.1640   8.1716   8.2739   8.3075   8.5577   8.5831   8.7215   8.7407
     8.8807   8.9854   9.1067   9.1365   9.1657   9.1692   9.2065   9.2226
     9.2237   9.2518   9.2706   9.2901   9.3874   9.3916   9.4177   9.4696
     9.4785   9.4853   9.5973   9.6410   9.6444   9.6666   9.8665   9.8987
     9.9060   9.9401   9.9593   9.9759  10.0586  10.0620  10.0852  10.1006
    10.1900  10.2647  10.2948  10.3684  10.3835  10.3910  10.4181  10.5881
    10.6456  10.6713  10.6965  10.7491  10.8084  10.8538  10.9044  11.0002
    11.0690  11.0794  11.1251  11.1612  11.2220  11.2607  11.2705  11.3585
    11.4043  11.4371  11.4850  11.5106  11.5186  11.6468  11.6535  11.7161
    11.7337  11.7680  11.8012  11.8040  11.9081  11.9540  11.9644  12.0159
    12.0201  12.0426  12.0484  12.0741  12.1035  12.1764  12.2102  12.2123
    12.2710  12.2945  12.3135  12.3412  12.3715  12.4555  12.4829  12.9691
    13.0315  13.1203  13.1561  13.2226  13.6352  13.8123  13.8882  14.1866
    14.2990  14.3415  14.5298  14.5344  14.7675  14.7939  14.9085  14.9386
    15.3689  15.6820  15.9612  16.0163  16.7733  16.9991  17.0038  17.0346
    17.0599  17.0724  17.0865  17.1172  17.1605  17.2380  17.4323  17.4956
    17.6466  17.8824  17.8998  17.9393  18.0202  18.0505  18.1080  18.1362
    18.2258  18.2595  18.3653  18.4822  18.6798  18.6925  18.7841  18.8554
    18.9603  18.9640

          k = 0.3750-0.5000 0.0242 ( 13948 PWs)   bands (ev):

   -66.8548 -66.7614 -66.7329 -62.2205 -62.1643 -62.1205 -62.0415 -62.0370
   -35.6238 -35.5818 -35.5800 -35.5291 -35.5058 -35.4912 -35.4894 -35.4606
   -35.4589 -31.0543 -31.0519 -31.0405 -30.9992 -30.9968 -30.9858 -30.9552
   -30.9528 -30.9439 -30.8740 -30.8720 -30.8716 -30.8697 -30.8674 -30.8673
     8.1642   8.1718   8.2735   8.3065   8.5607   8.5930   8.7148   8.7155
     8.9101   9.0021   9.1020   9.1192   9.1539   9.1580   9.1895   9.2067
     9.2457   9.2557   9.2842   9.3102   9.3795   9.3860   9.4318   9.4699
     9.4843   9.4885   9.5637   9.6001   9.6833   9.7193   9.8164   9.8558
     9.9265   9.9462   9.9810   9.9891  10.0546  10.0550  10.1059  10.1219
    10.1874  10.2457  10.2791  10.3184  10.3358  10.4671  10.4697  10.5831
    10.6434  10.6765  10.6922  10.7464  10.7921  10.7984  10.9550  11.0105
    11.0751  11.0786  11.1411  11.1583  11.1941  11.2473  11.2793  11.3712
    11.4045  11.4293  11.4650  11.5194  11.5381  11.6424  11.6469  11.7225
    11.7341  11.7647  11.8013  11.8043  11.9092  11.9534  11.9656  12.0158
    12.0199  12.0395  12.0468  12.0763  12.1039  12.1764  12.2074  12.2105
    12.2648  12.3008  12.3286  12.3452  12.3719  12.4472  12.4736  12.9825
    13.0397  13.0996  13.1482  13.2327  13.6382  13.8111  13.8855  14.1911
    14.3025  14.3332  14.5289  14.5380  14.7729  14.7853  14.9135  14.9360
    15.3691  15.6819  15.9612  16.0163  16.7724  16.9947  17.0070  17.0358
    17.0637  17.0691  17.0874  17.1107  17.1911  17.2172  17.3973  17.5220
    17.6786  17.8428  17.8819  17.9670  18.0199  18.0614  18.1127  18.1344
    18.1967  18.2434  18.3868  18.4940  18.6949  18.7095  18.7981  18.8530
    18.9466  18.9582

          k = 0.3750-0.5000-0.0484 ( 13940 PWs)   bands (ev):

   -66.8548 -66.7614 -66.7329 -62.2205 -62.1643 -62.1205 -62.0415 -62.0370
   -35.6238 -35.5818 -35.5800 -35.5291 -35.5058 -35.4912 -35.4894 -35.4606
   -35.4589 -31.0543 -31.0519 -31.0405 -30.9992 -30.9968 -30.9858 -30.9552
   -30.9528 -30.9439 -30.8740 -30.8720 -30.8716 -30.8697 -30.8674 -30.8673
     8.1644   8.1719   8.2730   8.3055   8.5638   8.6062   8.6909   8.7082
     8.9398   9.0246   9.0903   9.0924   9.1408   9.1539   9.1867   9.1995
     9.2514   9.2574   9.2996   9.3237   9.3780   9.3810   9.4386   9.4662
     9.4913   9.5062   9.5366   9.5712   9.7404   9.7558   9.7824   9.7908
     9.9367   9.9474   9.9864  10.0079  10.0478  10.0528  10.1484  10.1560
    10.1613  10.2260  10.2330  10.3112  10.3223  10.5019  10.5126  10.5761
    10.6391  10.6840  10.6867  10.7369  10.7659  10.7777  10.9842  11.0188
    11.0779  11.0884  11.1458  11.1682  11.1761  11.2155  11.2906  11.3834
    11.4047  11.4223  11.4498  11.5276  11.5518  11.6375  11.6405  11.7293
    11.7345  11.7606  11.8015  11.8045  11.9104  11.9528  11.9668  12.0156
    12.0196  12.0368  12.0453  12.0782  12.1043  12.1763  12.2049  12.2088
    12.2609  12.3062  12.3423  12.3511  12.3726  12.4377  12.4630  13.0007
    13.0491  13.0759  13.1391  13.2408  13.6412  13.8099  13.8827  14.1960
    14.3061  14.3249  14.5234  14.5462  14.7769  14.7783  14.9181  14.9333
    15.3692  15.6817  15.9612  16.0163  16.7715  16.9905  17.0097  17.0371
    17.0666  17.0688  17.0893  17.1080  17.1963  17.2237  17.3594  17.5494
    17.7107  17.8111  17.8608  17.9845  18.0193  18.0730  18.1217  18.1315
    18.1684  18.2282  18.4023  18.5039  18.7138  18.7262  18.8274  18.8487
    18.9279  18.9434

          k =-0.5000-0.5000 0.0000 ( 13964 PWs)   bands (ev):

   -66.8548 -66.7614 -66.7330 -62.2204 -62.1641 -62.1204 -62.0414 -62.0369
   -35.6237 -35.5816 -35.5816 -35.5290 -35.5057 -35.4910 -35.4910 -35.4605
   -35.4605 -31.0541 -31.0541 -31.0404 -30.9990 -30.9990 -30.9857 -30.9550
   -30.9550 -30.9438 -30.8738 -30.8738 -30.8719 -30.8695 -30.8695 -30.8672
     8.0828   8.0861   8.1925   8.2320   8.5035   8.5303   8.6767   8.6990
     8.8211   8.9130   9.1621   9.1842   9.2078   9.2121   9.2360   9.2360
     9.2893   9.2893   9.3322   9.3322   9.4222   9.4361   9.4503   9.4503
     9.4540   9.4540   9.6953   9.6953   9.7029   9.7029   9.8545   9.9097
     9.9097   9.9103   9.9103   9.9485   9.9986  10.0254  10.0254  10.0707
    10.0707  10.0895  10.0895  10.5120  10.5120  10.5223  10.5816  10.5816
    10.6045  10.6133  10.7032  10.7055  11.0641  11.0641  11.1194  11.1213
    11.1444  11.2064  11.2064  11.2271  11.3669  11.4074  11.4120  11.4523
    11.4769  11.5808  11.5808  11.8904  11.8904  11.9158  11.9512  11.9568
    11.9627  11.9722  11.9948  12.0058  12.0356  12.0382  12.0455  12.0501
    12.0560  12.0771  12.0920  12.1288  12.1315  12.1410  12.1976  12.2107
    12.2645  12.2658  12.2706  12.3346  12.3365  12.3365  12.3533  13.3681
    13.3997  13.4080  13.4455  13.4467  13.8655  13.8655  14.1026  14.1026
    14.2480  14.2480  14.5704  14.5704  14.8152  14.8152  15.2227  15.2227
    15.8968  15.8968  16.5819  16.6436  16.6436  16.6824  16.6834  16.8344
    16.8789  16.9229  17.0260  17.1277  17.2525  17.2525  17.5254  17.5254
    17.7500  17.7696  17.8584  17.9867  18.0176  18.0333  18.0802  18.1344
    18.2171  18.2171  18.2171  18.2217  18.2250  18.3035  18.3035  18.4416
    18.5146  18.7301

          k =-0.5000-0.5000 0.0242 ( 13960 PWs)   bands (ev):

   -66.8548 -66.7614 -66.7330 -62.2204 -62.1641 -62.1204 -62.0414 -62.0369
   -35.6237 -35.5816 -35.5816 -35.5290 -35.5057 -35.4910 -35.4910 -35.4605
   -35.4605 -31.0541 -31.0541 -31.0404 -30.9990 -30.9990 -30.9857 -30.9550
   -30.9550 -30.9438 -30.8738 -30.8738 -30.8719 -30.8695 -30.8695 -30.8672
     8.0830   8.0863   8.1921   8.2312   8.5070   8.5410   8.6671   8.6674
     8.8600   8.9369   9.0969   9.1123   9.2364   9.2364   9.2709   9.2848
     9.2857   9.2857   9.3429   9.3429   9.4063   9.4095   9.4095   9.4160
     9.5027   9.5027   9.6262   9.6262   9.7792   9.7792   9.8578   9.9097
     9.9097   9.9103   9.9103   9.9493   9.9585   9.9585   9.9971  10.0551
    10.0551  10.1774  10.1774  10.4189  10.4189  10.5216  10.6045  10.6139
    10.6743  10.6743  10.7032  10.7053  10.9869  10.9869  11.1194  11.1214
    11.1443  11.2272  11.2828  11.2828  11.3669  11.4074  11.4120  11.4523
    11.4769  11.5414  11.5414  11.9063  11.9063  11.9158  11.9512  11.9568
    11.9627  11.9722  11.9948  12.0058  12.0356  12.0382  12.0455  12.0501
    12.0560  12.0771  12.0920  12.1288  12.1315  12.1410  12.1982  12.2108
    12.2590  12.2656  12.2758  12.3328  12.3328  12.3346  12.3530  13.3680
    13.3997  13.4080  13.4455  13.4466  13.8768  13.8768  14.0703  14.0703
    14.2764  14.2764  14.5614  14.5614  14.8172  14.8172  15.2227  15.2227
    15.8967  15.8967  16.5819  16.6449  16.6449  16.6824  16.6835  16.8328
    16.8790  16.9260  17.0258  17.1249  17.2292  17.2292  17.5887  17.5887
    17.7616  17.7868  17.8383  17.9536  18.0275  18.0275  18.0276  18.0333
    18.0802  18.1344  18.2217  18.2250  18.2410  18.4401  18.5076  18.5226
    18.5226  18.7303

          k =-0.5000-0.5000-0.0484 ( 13992 PWs)   bands (ev):

   -66.8548 -66.7614 -66.7330 -62.2204 -62.1641 -62.1204 -62.0414 -62.0369
   -35.6237 -35.5816 -35.5816 -35.5290 -35.5057 -35.4910 -35.4910 -35.4605
   -35.4605 -31.0541 -31.0541 -31.0404 -30.9990 -30.9990 -30.9857 -30.9550
   -30.9550 -30.9438 -30.8738 -30.8738 -30.8719 -30.8695 -30.8695 -30.8672
     8.0832   8.0864   8.1916   8.2303   8.5108   8.5556   8.6385   8.6578
     8.8998   8.9713   9.0496   9.0611   9.2368   9.2368   9.2827   9.2827
     9.3201   9.3513   9.3602   9.3602   9.3705   9.3789   9.3831   9.3831
     9.5582   9.5582   9.5634   9.5634   9.8610   9.8617   9.8617   9.8707
     9.8707   9.9097   9.9097   9.9103   9.9103   9.9500   9.9956  10.0542
    10.0542  10.2628  10.2628  10.3282  10.3282  10.5210  10.6046  10.6146
    10.7032  10.7052  10.7494  10.7494  10.9130  10.9130  11.1193  11.1214
    11.1443  11.2272  11.3564  11.3564  11.3669  11.4073  11.4120  11.4523
    11.4768  11.4860  11.4860  11.9158  11.9208  11.9208  11.9512  11.9568
    11.9627  11.9722  11.9948  12.0058  12.0356  12.0382  12.0455  12.0501
    12.0560  12.0771  12.0920  12.1288  12.1315  12.1409  12.1988  12.2110
    12.2557  12.2655  12.2787  12.3290  12.3290  12.3346  12.3527  13.3680
    13.3997  13.4080  13.4455  13.4466  13.8908  13.8908  14.0409  14.0409
    14.3001  14.3001  14.5515  14.5515  14.8191  14.8191  15.2226  15.2226
    15.8967  15.8967  16.5819  16.6461  16.6461  16.6823  16.6836  16.8313
    16.8791  16.9290  17.0256  17.1221  17.2104  17.2104  17.6739  17.6739
    17.7839  17.8087  17.8113  17.8978  17.8978  17.9164  18.0333  18.0364
    18.0802  18.1344  18.2217  18.2250  18.2627  18.4385  18.4999  18.7306
    18.7610  18.7610

     the Fermi energy is    15.2677 ev

!    total energy              =  -14694.00432256 Ry
     Harris-Foulkes estimate   =  -14694.00431884 Ry
     estimated scf accuracy    <       0.00000066 Ry

     total all-electron energy =   -626921.600044 Ry

     The total energy is the sum of the following terms:

     one-electron contribution =    -714.49912178 Ry
     hartree contribution      =     656.55873514 Ry
     xc contribution           =    -737.88240232 Ry
     ewald contribution        =   -2196.78933708 Ry
     Hubbard energy            =       0.45045553 Ry
     one-center paw contrib.   =  -11701.84265205 Ry

     total magnetization       =     8.58 Bohr mag/cell
     absolute magnetization    =    37.23 Bohr mag/cell

     convergence has been achieved in  28 iterations

     Writing output data file mnau2.save/
 
     init_run     :     84.04s CPU     85.74s WALL (       1 calls)
     electrons    :   4990.62s CPU   5096.17s WALL (       1 calls)

     Called by init_run:
     wfcinit      :     80.24s CPU     81.73s WALL (       1 calls)
     potinit      :      1.68s CPU      1.73s WALL (       1 calls)
     hinit0       :      1.18s CPU      1.26s WALL (       1 calls)

     Called by electrons:
     c_bands      :   4378.94s CPU   4458.20s WALL (      28 calls)
     sum_band     :    563.71s CPU    580.45s WALL (      28 calls)
     v_of_rho     :      3.47s CPU      3.51s WALL (      29 calls)
     newd         :     14.85s CPU     15.01s WALL (      29 calls)
     PAW_pot      :     29.77s CPU     30.03s WALL (      29 calls)
     mix_rho      :      0.95s CPU      1.32s WALL (      28 calls)

     Called by c_bands:
     init_us_2    :     14.78s CPU     14.88s WALL (    5220 calls)
     cegterg      :   4252.32s CPU   4328.95s WALL (    2520 calls)

     Called by sum_band:
     sum_band:bec :      6.04s CPU      6.08s WALL (    2520 calls)
     addusdens    :     21.19s CPU     21.37s WALL (      28 calls)

     Called by *egterg:
     h_psi        :   1999.33s CPU   2045.59s WALL (    8841 calls)
     s_psi        :    271.32s CPU    271.55s WALL (    8931 calls)
     g_psi        :      3.01s CPU      3.03s WALL (    6231 calls)
     cdiaghg      :   1246.38s CPU   1272.87s WALL (    8751 calls)

     Called by h_psi:
     h_psi:pot    :   1858.46s CPU   1903.80s WALL (    8841 calls)
     h_psi:calbec :    341.87s CPU    355.88s WALL (    8841 calls)
     vloc_psi     :   1249.13s CPU   1280.13s WALL (    8841 calls)
     add_vuspsi   :    267.27s CPU    267.64s WALL (    8841 calls)
     vhpsi        :    136.99s CPU    137.85s WALL (    8841 calls)

     General routines
     calbec       :    611.42s CPU    633.36s WALL (   22812 calls)
     fft          :      2.73s CPU      2.79s WALL (     721 calls)
     ffts         :      0.15s CPU      0.16s WALL (     114 calls)
     fftw         :   1508.69s CPU   1546.50s WALL ( 2347380 calls)
     interpolate  :      0.31s CPU      0.31s WALL (      58 calls)
     davcio       :      0.01s CPU      3.27s WALL (      90 calls)
 
     Parallel routines
     fft_scatt_xy :     54.78s CPU     55.82s WALL ( 2348215 calls)
     fft_scatt_yz :   1191.70s CPU   1223.33s WALL ( 2348215 calls)

     Hubbard U routines
     new_ns       :     24.22s CPU     25.83s WALL (      28 calls)
     vhpsi        :    136.99s CPU    137.85s WALL (    8841 calls)
 
     PWSCF        :     1h25m CPU       25h 1m WALL

      27h
 
   This run was terminated on:   9:16:44   8Apr2019            

=------------------------------------------------------------------------------=
   JOB DONE.
=------------------------------------------------------------------------------=
