
     Program PWSCF v.6.3MaX starts on  8Apr2019 at  9:16:47 

     This program is part of the open-source Quantum ESPRESSO suite
     for quantum simulation of materials; please cite
         "P. Giannozzi et al., J. Phys.:Condens. Matter 21 395502 (2009);
         "P. Giannozzi et al., J. Phys.:Condens. Matter 29 465901 (2017);
          URL http://www.quantum-espresso.org", 
     in publications or presentations arising from this work. More details at
     http://www.quantum-espresso.org/quote

     Parallel version (MPI), running on    32 processors

     MPI processes distributed on     2 nodes
     R & G space division:  proc/nbgrp/npool/nimage =      32
     Waiting for input...
     Reading input from standard input

     Current dimensions of program PWSCF are:
     Max number of different atomic species (ntypx) = 10
     Max number of k-points (npk) =  40000
     Max angular momentum in pseudopotentials (lmaxx) =  3
               file Mn.pbe-spn-kjpaw_psl.0.3.1.UPF: wavefunction(s)  3P 3D renormalized
               file Mn.pbe-spn-kjpaw_psl.0.3.1.UPF: wavefunction(s)  3P 3D renormalized
               file Au.pbe-dn-kjpaw_psl.0.1.UPF: wavefunction(s)  6S 6P 5D renormalized

     Subspace diagonalization in iterative solution of the eigenvalue problem:
     one sub-group per band group will be used
     scalapack distributed-memory algorithm (size of sub-group:  4*  4 procs)

 
     Parallelization info
     --------------------
     sticks:   dense  smooth     PW     G-vecs:    dense   smooth      PW
     Min          41      18      5                11487     3460     563
     Max          42      19      6                11527     3505     606
     Sum        1313     593    177               368373   111379   18691
 


     bravais-lattice index     =            0
     lattice parameter (alat)  =       6.4153  a.u.
     unit-cell volume          =    2724.7774 (a.u.)^3
     number of atoms/cell      =           24
     number of atomic types    =            3
     number of electrons       =       296.00
     number of Kohn-Sham states=          178
     kinetic-energy cutoff     =      45.0000  Ry
     charge density cutoff     =     400.0000  Ry
     convergence threshold     =      1.0E-06
     mixing beta               =       0.1000
     number of iterations used =            8  plain     mixing
     Exchange-correlation      = SLA PW PBX PBC ( 1  4  3  4 0 0)

     celldm(1)=   6.415315  celldm(2)=   0.000000  celldm(3)=   0.000000
     celldm(4)=   0.000000  celldm(5)=   0.000000  celldm(6)=   0.000000

     crystal axes: (cart. coord. in units of alat)
               a(1) = (   1.000000   0.000000   0.000000 )  
               a(2) = (   0.000000   1.000000   0.000000 )  
               a(3) = (   0.000000   0.000000  10.319937 )  

     reciprocal axes: (cart. coord. in units 2 pi/alat)
               b(1) = (  1.000000  0.000000  0.000000 )  
               b(2) = (  0.000000  1.000000  0.000000 )  
               b(3) = (  0.000000  0.000000  0.096900 )  


     PseudoPot. # 1 for Mn read from file:
     ./pseudo/Mn.pbe-spn-kjpaw_psl.0.3.1.UPF
     MD5 check sum: 7b43a3fb0e93e198b8dd8488d8cf503e
     Pseudo is Projector augmented-wave + core cor, Zval = 15.0
     Generated using "atomic" code by A. Dal Corso v.5.0.99 svn rev. 10869
     Shape of augmentation charge: PSQ
     Using radial grid of 1187 points,  6 beta functions with: 
                l(1) =   0
                l(2) =   0
                l(3) =   1
                l(4) =   1
                l(5) =   2
                l(6) =   2
     Q(r) pseudized with 0 coefficients 


     PseudoPot. # 2 for Mn read from file:
     ./pseudo/Mn.pbe-spn-kjpaw_psl.0.3.1.UPF
     MD5 check sum: 7b43a3fb0e93e198b8dd8488d8cf503e
     Pseudo is Projector augmented-wave + core cor, Zval = 15.0
     Generated using "atomic" code by A. Dal Corso v.5.0.99 svn rev. 10869
     Shape of augmentation charge: PSQ
     Using radial grid of 1187 points,  6 beta functions with: 
                l(1) =   0
                l(2) =   0
                l(3) =   1
                l(4) =   1
                l(5) =   2
                l(6) =   2
     Q(r) pseudized with 0 coefficients 


     PseudoPot. # 3 for Au read from file:
     ./pseudo/Au.pbe-dn-kjpaw_psl.0.1.UPF
     MD5 check sum: be11e2e8e535ebe2b3ccfb4f88f554cb
     Pseudo is Projector augmented-wave + core cor, Zval = 11.0
     Generated using "atomic" code by A. Dal Corso v.5.0.2 svn rev. 9415
     Shape of augmentation charge: PSQ
     Using radial grid of 1279 points,  6 beta functions with: 
                l(1) =   0
                l(2) =   0
                l(3) =   1
                l(4) =   1
                l(5) =   2
                l(6) =   2
     Q(r) pseudized with 0 coefficients 


     atomic species   valence    mass     pseudopotential
        Mn1           15.00    54.93800     Mn( 1.00)
        Mn2           15.00    54.93800     Mn( 1.00)
        Au            11.00   196.96600     Au( 1.00)

     Starting magnetic structure 
     atomic species   magnetization
        Mn1          0.800
        Mn2         -0.800
        Au           0.000


     Full LDA+U calculation (l_max = 2) with parameters (eV):
     U(  1) =   3.1200   J(  1) =   0.7000   B(  1) =   0.0803
     U(  2) =   3.1200   J(  2) =   0.7000   B(  2) =   0.0803



      8 Sym. Ops. (no inversion) found



   Cartesian axes

     site n.     atom                  positions (alat units)
         1           Mn1 tau(   1) = (   0.0000000   0.0000000   0.0000000  )
         2           Mn1 tau(   2) = (   0.5000000   0.5000000   1.2899921  )
         3           Mn1 tau(   3) = (   0.0000000   0.0000000   2.5799843  )
         4           Mn1 tau(   4) = (   0.5000000   0.5000000   3.8699764  )
         5           Mn2 tau(   5) = (   0.0000000   0.0000000   5.1599686  )
         6           Mn2 tau(   6) = (   0.5000000   0.5000000   6.4499607  )
         7           Mn2 tau(   7) = (   0.0000000   0.0000000   7.7399528  )
         8           Mn2 tau(   8) = (   0.5000000   0.5000000   9.0299450  )
         9           Au  tau(   9) = (   0.5000000   0.5000000   0.4127975  )
        10           Au  tau(  10) = (   0.0000000   0.0000000   0.8771947  )
        11           Au  tau(  11) = (   0.0000000   0.0000000   1.7027896  )
        12           Au  tau(  12) = (   0.5000000   0.5000000   2.1671868  )
        13           Au  tau(  13) = (   0.5000000   0.5000000   2.9927818  )
        14           Au  tau(  14) = (   0.0000000   0.0000000   3.4571789  )
        15           Au  tau(  15) = (   0.0000000   0.0000000   4.2827739  )
        16           Au  tau(  16) = (   0.5000000   0.5000000   4.7471711  )
        17           Au  tau(  17) = (   0.5000000   0.5000000   5.5727660  )
        18           Au  tau(  18) = (   0.0000000   0.0000000   6.0371632  )
        19           Au  tau(  19) = (   0.0000000   0.0000000   6.8627582  )
        20           Au  tau(  20) = (   0.5000000   0.5000000   7.3271553  )
        21           Au  tau(  21) = (   0.5000000   0.5000000   8.1527503  )
        22           Au  tau(  22) = (   0.0000000   0.0000000   8.6171475  )
        23           Au  tau(  23) = (   0.0000000   0.0000000   9.4427424  )
        24           Au  tau(  24) = (   0.5000000   0.5000000   9.9071396  )

     number of k points=    45 (tetrahedron method)
                       cart. coord. in units 2pi/alat
        k(    1) = (   0.0000000   0.0000000   0.0000000), wk =   0.0039062
        k(    2) = (   0.0000000   0.0000000   0.0242250), wk =   0.0078125
        k(    3) = (   0.0000000   0.0000000  -0.0484499), wk =   0.0039062
        k(    4) = (   0.0000000   0.1250000   0.0000000), wk =   0.0156250
        k(    5) = (   0.0000000   0.1250000   0.0242250), wk =   0.0312500
        k(    6) = (   0.0000000   0.1250000  -0.0484499), wk =   0.0156250
        k(    7) = (   0.0000000   0.2500000   0.0000000), wk =   0.0156250
        k(    8) = (   0.0000000   0.2500000   0.0242250), wk =   0.0312500
        k(    9) = (   0.0000000   0.2500000  -0.0484499), wk =   0.0156250
        k(   10) = (   0.0000000   0.3750000   0.0000000), wk =   0.0156250
        k(   11) = (   0.0000000   0.3750000   0.0242250), wk =   0.0312500
        k(   12) = (   0.0000000   0.3750000  -0.0484499), wk =   0.0156250
        k(   13) = (   0.0000000  -0.5000000   0.0000000), wk =   0.0078125
        k(   14) = (   0.0000000  -0.5000000   0.0242250), wk =   0.0156250
        k(   15) = (   0.0000000  -0.5000000  -0.0484499), wk =   0.0078125
        k(   16) = (   0.1250000   0.1250000   0.0000000), wk =   0.0156250
        k(   17) = (   0.1250000   0.1250000   0.0242250), wk =   0.0312500
        k(   18) = (   0.1250000   0.1250000  -0.0484499), wk =   0.0156250
        k(   19) = (   0.1250000   0.2500000   0.0000000), wk =   0.0312500
        k(   20) = (   0.1250000   0.2500000   0.0242250), wk =   0.0625000
        k(   21) = (   0.1250000   0.2500000  -0.0484499), wk =   0.0312500
        k(   22) = (   0.1250000   0.3750000   0.0000000), wk =   0.0312500
        k(   23) = (   0.1250000   0.3750000   0.0242250), wk =   0.0625000
        k(   24) = (   0.1250000   0.3750000  -0.0484499), wk =   0.0312500
        k(   25) = (   0.1250000  -0.5000000   0.0000000), wk =   0.0156250
        k(   26) = (   0.1250000  -0.5000000   0.0242250), wk =   0.0312500
        k(   27) = (   0.1250000  -0.5000000  -0.0484499), wk =   0.0156250
        k(   28) = (   0.2500000   0.2500000   0.0000000), wk =   0.0156250
        k(   29) = (   0.2500000   0.2500000   0.0242250), wk =   0.0312500
        k(   30) = (   0.2500000   0.2500000  -0.0484499), wk =   0.0156250
        k(   31) = (   0.2500000   0.3750000   0.0000000), wk =   0.0312500
        k(   32) = (   0.2500000   0.3750000   0.0242250), wk =   0.0625000
        k(   33) = (   0.2500000   0.3750000  -0.0484499), wk =   0.0312500
        k(   34) = (   0.2500000  -0.5000000   0.0000000), wk =   0.0156250
        k(   35) = (   0.2500000  -0.5000000   0.0242250), wk =   0.0312500
        k(   36) = (   0.2500000  -0.5000000  -0.0484499), wk =   0.0156250
        k(   37) = (   0.3750000   0.3750000   0.0000000), wk =   0.0156250
        k(   38) = (   0.3750000   0.3750000   0.0242250), wk =   0.0312500
        k(   39) = (   0.3750000   0.3750000  -0.0484499), wk =   0.0156250
        k(   40) = (   0.3750000  -0.5000000   0.0000000), wk =   0.0156250
        k(   41) = (   0.3750000  -0.5000000   0.0242250), wk =   0.0312500
        k(   42) = (   0.3750000  -0.5000000  -0.0484499), wk =   0.0156250
        k(   43) = (  -0.5000000  -0.5000000   0.0000000), wk =   0.0039062
        k(   44) = (  -0.5000000  -0.5000000   0.0242250), wk =   0.0078125
        k(   45) = (  -0.5000000  -0.5000000  -0.0484499), wk =   0.0039062

     Dense  grid:   368373 G-vectors     FFT dimensions: (  45,  45, 432)

     Smooth grid:   111379 G-vectors     FFT dimensions: (  27,  27, 288)

     Estimated max dynamical RAM per process >     186.81 MB

     Estimated total dynamical RAM >       5.84 GB
     Generating pointlists ...
     new r_m :   0.3377 (alat units)  2.1668 (a.u.) for type    1
     new r_m :   0.3377 (alat units)  2.1668 (a.u.) for type    2
     new r_m :   0.3377 (alat units)  2.1668 (a.u.) for type    3

     Check: negative/imaginary core charge=   -0.000006    0.000000

     Initial potential from superposition of free atoms

     starting charge  295.99426, renormalised to  296.00000
     Number of +U iterations with fixed ns =  0
     Starting occupations:
 --- enter write_ns ---
 LDA+U parameters:
U(  1) =   3.1200   J(  1) =   0.7000   B(  1) =   0.0803
U(  2) =   3.1200   J(  2) =   0.7000   B(  2) =   0.0803
atom    1   Tr[ns(na)] (up, down, total) =   5.00000  0.00000  5.00000
   spin  1
    eigenvalues: 
  1.000  1.000  1.000  1.000  1.000
    eigenvectors:
  1.000  0.000  0.000  0.000  0.000
  0.000  1.000  0.000  0.000  0.000
  0.000  0.000  1.000  0.000  0.000
  0.000  0.000  0.000  1.000  0.000
  0.000  0.000  0.000  0.000  1.000
    occupations:
  1.000  0.000  0.000  0.000  0.000
  0.000  1.000  0.000  0.000  0.000
  0.000  0.000  1.000  0.000  0.000
  0.000  0.000  0.000  1.000  0.000
  0.000  0.000  0.000  0.000  1.000
   spin  2
    eigenvalues: 
  0.000  0.000  0.000  0.000  0.000
    eigenvectors:
  1.000  0.000  0.000  0.000  0.000
  0.000  1.000  0.000  0.000  0.000
  0.000  0.000  1.000  0.000  0.000
  0.000  0.000  0.000  1.000  0.000
  0.000  0.000  0.000  0.000  1.000
    occupations:
  0.000  0.000  0.000  0.000  0.000
  0.000  0.000  0.000  0.000  0.000
  0.000  0.000  0.000  0.000  0.000
  0.000  0.000  0.000  0.000  0.000
  0.000  0.000  0.000  0.000  0.000
atomic mag. moment =     5.000000
atom    2   Tr[ns(na)] (up, down, total) =   5.00000  0.00000  5.00000
   spin  1
    eigenvalues: 
  1.000  1.000  1.000  1.000  1.000
    eigenvectors:
  1.000  0.000  0.000  0.000  0.000
  0.000  1.000  0.000  0.000  0.000
  0.000  0.000  1.000  0.000  0.000
  0.000  0.000  0.000  1.000  0.000
  0.000  0.000  0.000  0.000  1.000
    occupations:
  1.000  0.000  0.000  0.000  0.000
  0.000  1.000  0.000  0.000  0.000
  0.000  0.000  1.000  0.000  0.000
  0.000  0.000  0.000  1.000  0.000
  0.000  0.000  0.000  0.000  1.000
   spin  2
    eigenvalues: 
  0.000  0.000  0.000  0.000  0.000
    eigenvectors:
  1.000  0.000  0.000  0.000  0.000
  0.000  1.000  0.000  0.000  0.000
  0.000  0.000  1.000  0.000  0.000
  0.000  0.000  0.000  1.000  0.000
  0.000  0.000  0.000  0.000  1.000
    occupations:
  0.000  0.000  0.000  0.000  0.000
  0.000  0.000  0.000  0.000  0.000
  0.000  0.000  0.000  0.000  0.000
  0.000  0.000  0.000  0.000  0.000
  0.000  0.000  0.000  0.000  0.000
atomic mag. moment =     5.000000
atom    3   Tr[ns(na)] (up, down, total) =   5.00000  0.00000  5.00000
   spin  1
    eigenvalues: 
  1.000  1.000  1.000  1.000  1.000
    eigenvectors:
  1.000  0.000  0.000  0.000  0.000
  0.000  1.000  0.000  0.000  0.000
  0.000  0.000  1.000  0.000  0.000
  0.000  0.000  0.000  1.000  0.000
  0.000  0.000  0.000  0.000  1.000
    occupations:
  1.000  0.000  0.000  0.000  0.000
  0.000  1.000  0.000  0.000  0.000
  0.000  0.000  1.000  0.000  0.000
  0.000  0.000  0.000  1.000  0.000
  0.000  0.000  0.000  0.000  1.000
   spin  2
    eigenvalues: 
  0.000  0.000  0.000  0.000  0.000
    eigenvectors:
  1.000  0.000  0.000  0.000  0.000
  0.000  1.000  0.000  0.000  0.000
  0.000  0.000  1.000  0.000  0.000
  0.000  0.000  0.000  1.000  0.000
  0.000  0.000  0.000  0.000  1.000
    occupations:
  0.000  0.000  0.000  0.000  0.000
  0.000  0.000  0.000  0.000  0.000
  0.000  0.000  0.000  0.000  0.000
  0.000  0.000  0.000  0.000  0.000
  0.000  0.000  0.000  0.000  0.000
atomic mag. moment =     5.000000
atom    4   Tr[ns(na)] (up, down, total) =   5.00000  0.00000  5.00000
   spin  1
    eigenvalues: 
  1.000  1.000  1.000  1.000  1.000
    eigenvectors:
  1.000  0.000  0.000  0.000  0.000
  0.000  1.000  0.000  0.000  0.000
  0.000  0.000  1.000  0.000  0.000
  0.000  0.000  0.000  1.000  0.000
  0.000  0.000  0.000  0.000  1.000
    occupations:
  1.000  0.000  0.000  0.000  0.000
  0.000  1.000  0.000  0.000  0.000
  0.000  0.000  1.000  0.000  0.000
  0.000  0.000  0.000  1.000  0.000
  0.000  0.000  0.000  0.000  1.000
   spin  2
    eigenvalues: 
  0.000  0.000  0.000  0.000  0.000
    eigenvectors:
  1.000  0.000  0.000  0.000  0.000
  0.000  1.000  0.000  0.000  0.000
  0.000  0.000  1.000  0.000  0.000
  0.000  0.000  0.000  1.000  0.000
  0.000  0.000  0.000  0.000  1.000
    occupations:
  0.000  0.000  0.000  0.000  0.000
  0.000  0.000  0.000  0.000  0.000
  0.000  0.000  0.000  0.000  0.000
  0.000  0.000  0.000  0.000  0.000
  0.000  0.000  0.000  0.000  0.000
atomic mag. moment =     5.000000
atom    5   Tr[ns(na)] (up, down, total) =   0.00000  5.00000  5.00000
   spin  1
    eigenvalues: 
  0.000  0.000  0.000  0.000  0.000
    eigenvectors:
  1.000  0.000  0.000  0.000  0.000
  0.000  1.000  0.000  0.000  0.000
  0.000  0.000  1.000  0.000  0.000
  0.000  0.000  0.000  1.000  0.000
  0.000  0.000  0.000  0.000  1.000
    occupations:
  0.000  0.000  0.000  0.000  0.000
  0.000  0.000  0.000  0.000  0.000
  0.000  0.000  0.000  0.000  0.000
  0.000  0.000  0.000  0.000  0.000
  0.000  0.000  0.000  0.000  0.000
   spin  2
    eigenvalues: 
  1.000  1.000  1.000  1.000  1.000
    eigenvectors:
  1.000  0.000  0.000  0.000  0.000
  0.000  1.000  0.000  0.000  0.000
  0.000  0.000  1.000  0.000  0.000
  0.000  0.000  0.000  1.000  0.000
  0.000  0.000  0.000  0.000  1.000
    occupations:
  1.000  0.000  0.000  0.000  0.000
  0.000  1.000  0.000  0.000  0.000
  0.000  0.000  1.000  0.000  0.000
  0.000  0.000  0.000  1.000  0.000
  0.000  0.000  0.000  0.000  1.000
atomic mag. moment =    -5.000000
atom    6   Tr[ns(na)] (up, down, total) =   0.00000  5.00000  5.00000
   spin  1
    eigenvalues: 
  0.000  0.000  0.000  0.000  0.000
    eigenvectors:
  1.000  0.000  0.000  0.000  0.000
  0.000  1.000  0.000  0.000  0.000
  0.000  0.000  1.000  0.000  0.000
  0.000  0.000  0.000  1.000  0.000
  0.000  0.000  0.000  0.000  1.000
    occupations:
  0.000  0.000  0.000  0.000  0.000
  0.000  0.000  0.000  0.000  0.000
  0.000  0.000  0.000  0.000  0.000
  0.000  0.000  0.000  0.000  0.000
  0.000  0.000  0.000  0.000  0.000
   spin  2
    eigenvalues: 
  1.000  1.000  1.000  1.000  1.000
    eigenvectors:
  1.000  0.000  0.000  0.000  0.000
  0.000  1.000  0.000  0.000  0.000
  0.000  0.000  1.000  0.000  0.000
  0.000  0.000  0.000  1.000  0.000
  0.000  0.000  0.000  0.000  1.000
    occupations:
  1.000  0.000  0.000  0.000  0.000
  0.000  1.000  0.000  0.000  0.000
  0.000  0.000  1.000  0.000  0.000
  0.000  0.000  0.000  1.000  0.000
  0.000  0.000  0.000  0.000  1.000
atomic mag. moment =    -5.000000
atom    7   Tr[ns(na)] (up, down, total) =   0.00000  5.00000  5.00000
   spin  1
    eigenvalues: 
  0.000  0.000  0.000  0.000  0.000
    eigenvectors:
  1.000  0.000  0.000  0.000  0.000
  0.000  1.000  0.000  0.000  0.000
  0.000  0.000  1.000  0.000  0.000
  0.000  0.000  0.000  1.000  0.000
  0.000  0.000  0.000  0.000  1.000
    occupations:
  0.000  0.000  0.000  0.000  0.000
  0.000  0.000  0.000  0.000  0.000
  0.000  0.000  0.000  0.000  0.000
  0.000  0.000  0.000  0.000  0.000
  0.000  0.000  0.000  0.000  0.000
   spin  2
    eigenvalues: 
  1.000  1.000  1.000  1.000  1.000
    eigenvectors:
  1.000  0.000  0.000  0.000  0.000
  0.000  1.000  0.000  0.000  0.000
  0.000  0.000  1.000  0.000  0.000
  0.000  0.000  0.000  1.000  0.000
  0.000  0.000  0.000  0.000  1.000
    occupations:
  1.000  0.000  0.000  0.000  0.000
  0.000  1.000  0.000  0.000  0.000
  0.000  0.000  1.000  0.000  0.000
  0.000  0.000  0.000  1.000  0.000
  0.000  0.000  0.000  0.000  1.000
atomic mag. moment =    -5.000000
atom    8   Tr[ns(na)] (up, down, total) =   0.00000  5.00000  5.00000
   spin  1
    eigenvalues: 
  0.000  0.000  0.000  0.000  0.000
    eigenvectors:
  1.000  0.000  0.000  0.000  0.000
  0.000  1.000  0.000  0.000  0.000
  0.000  0.000  1.000  0.000  0.000
  0.000  0.000  0.000  1.000  0.000
  0.000  0.000  0.000  0.000  1.000
    occupations:
  0.000  0.000  0.000  0.000  0.000
  0.000  0.000  0.000  0.000  0.000
  0.000  0.000  0.000  0.000  0.000
  0.000  0.000  0.000  0.000  0.000
  0.000  0.000  0.000  0.000  0.000
   spin  2
    eigenvalues: 
  1.000  1.000  1.000  1.000  1.000
    eigenvectors:
  1.000  0.000  0.000  0.000  0.000
  0.000  1.000  0.000  0.000  0.000
  0.000  0.000  1.000  0.000  0.000
  0.000  0.000  0.000  1.000  0.000
  0.000  0.000  0.000  0.000  1.000
    occupations:
  1.000  0.000  0.000  0.000  0.000
  0.000  1.000  0.000  0.000  0.000
  0.000  0.000  1.000  0.000  0.000
  0.000  0.000  0.000  1.000  0.000
  0.000  0.000  0.000  0.000  1.000
atomic mag. moment =    -5.000000
N of occupied +U levels =   40.000000
 --- exit write_ns ---
 Atomic wfc used for LDA+U Projector are NOT orthogonalized
     Starting wfcs are  224 randomized atomic wfcs
     Checking if some PAW data can be deallocated... 

     total cpu time spent up to now is       94.4 secs

     Self-consistent Calculation

     iteration #  1     ecut=    45.00 Ry     beta= 0.10
     Davidson diagonalization with overlap
     ethr =  1.00E-02,  avg # of iterations =  4.1
 --- enter write_ns ---
 LDA+U parameters:
U(  1) =   3.1200   J(  1) =   0.7000   B(  1) =   0.0803
U(  2) =   3.1200   J(  2) =   0.7000   B(  2) =   0.0803
atom    1   Tr[ns(na)] (up, down, total) =   5.01744  0.40899  5.42644
   spin  1
    eigenvalues: 
  1.003  1.003  1.003  1.004  1.004
    eigenvectors:
  0.000  0.000  0.000  1.000  0.000
  0.000  0.295  0.705  0.000  0.000
  0.000  0.705  0.295  0.000  0.000
  0.000  0.000  0.000  0.000  1.000
  1.000  0.000  0.000  0.000  0.000
    occupations:
  1.004 -0.000 -0.000  0.000  0.000
 -0.000  1.003 -0.000  0.000  0.000
 -0.000 -0.000  1.003  0.000  0.000
  0.000  0.000  0.000  1.004 -0.000
  0.000  0.000  0.000 -0.000  1.003
   spin  2
    eigenvalues: 
  0.053  0.073  0.081  0.081  0.121
    eigenvectors:
  0.000  1.000  0.000  0.000  0.000
  0.000  0.000  0.467  0.533  0.000
  0.000  0.000  0.533  0.467  0.000
  1.000  0.000  0.000  0.000  0.000
  0.000  0.000  0.000  0.000  1.000
    occupations:
  0.073 -0.000 -0.000  0.000  0.000
 -0.000  0.081 -0.000  0.000  0.000
 -0.000 -0.000  0.081  0.000  0.000
  0.000  0.000  0.000  0.053 -0.000
  0.000  0.000  0.000 -0.000  0.121
atomic mag. moment =     4.608449
atom    2   Tr[ns(na)] (up, down, total) =   5.01768  0.40249  5.42017
   spin  1
    eigenvalues: 
  1.003  1.003  1.003  1.004  1.004
    eigenvectors:
  0.000  0.000  0.000  1.000  0.000
  0.000  0.288  0.712  0.000  0.000
  0.000  0.712  0.288  0.000  0.000
  0.000  0.000  0.000  0.000  1.000
  1.000  0.000  0.000  0.000  0.000
    occupations:
  1.004 -0.000 -0.000  0.000  0.000
 -0.000  1.003 -0.000  0.000  0.000
 -0.000 -0.000  1.003  0.000  0.000
  0.000  0.000  0.000  1.004 -0.000
  0.000  0.000  0.000 -0.000  1.003
   spin  2
    eigenvalues: 
  0.053  0.073  0.081  0.081  0.114
    eigenvectors:
  0.000  1.000  0.000  0.000  0.000
  0.000  0.000  0.303  0.697  0.000
  0.000  0.000  0.697  0.303  0.000
  1.000  0.000  0.000  0.000  0.000
  0.000  0.000  0.000  0.000  1.000
    occupations:
  0.073 -0.000 -0.000  0.000  0.000
 -0.000  0.081 -0.000  0.000  0.000
 -0.000 -0.000  0.081  0.000  0.000
  0.000  0.000  0.000  0.053 -0.000
  0.000  0.000  0.000 -0.000  0.114
atomic mag. moment =     4.615186
atom    3   Tr[ns(na)] (up, down, total) =   5.01765  0.40337  5.42102
   spin  1
    eigenvalues: 
  1.003  1.003  1.003  1.004  1.004
    eigenvectors:
  0.000  0.000  0.000  1.000  0.000
  0.000  0.329  0.671  0.000  0.000
  0.000  0.671  0.329  0.000  0.000
  0.000  0.000  0.000  0.000  1.000
  1.000  0.000  0.000  0.000  0.000
    occupations:
  1.004 -0.000 -0.000  0.000  0.000
 -0.000  1.003 -0.000  0.000  0.000
 -0.000 -0.000  1.003  0.000  0.000
  0.000  0.000  0.000  1.004 -0.000
  0.000  0.000  0.000 -0.000  1.003
   spin  2
    eigenvalues: 
  0.053  0.074  0.081  0.081  0.115
    eigenvectors:
  0.000  1.000  0.000  0.000  0.000
  0.000  0.000  0.390  0.610  0.000
  0.000  0.000  0.610  0.390  0.000
  1.000  0.000  0.000  0.000  0.000
  0.000  0.000  0.000  0.000  1.000
    occupations:
  0.074 -0.000 -0.000  0.000  0.000
 -0.000  0.081 -0.000  0.000  0.000
 -0.000 -0.000  0.081  0.000  0.000
  0.000  0.000  0.000  0.053 -0.000
  0.000  0.000  0.000 -0.000  0.115
atomic mag. moment =     4.614283
atom    4   Tr[ns(na)] (up, down, total) =   5.01737  0.40974  5.42711
   spin  1
    eigenvalues: 
  1.003  1.003  1.003  1.004  1.004
    eigenvectors:
  0.000  0.000  0.000  1.000  0.000
  0.000  0.297  0.703  0.000  0.000
  0.000  0.703  0.297  0.000  0.000
  0.000  0.000  0.000  0.000  1.000
  1.000  0.000  0.000  0.000  0.000
    occupations:
  1.004 -0.000 -0.000  0.000  0.000
 -0.000  1.003 -0.000  0.000  0.000
 -0.000 -0.000  1.003  0.000  0.000
  0.000  0.000  0.000  1.004 -0.000
  0.000  0.000  0.000 -0.000  1.003
   spin  2
    eigenvalues: 
  0.053  0.073  0.081  0.081  0.122
    eigenvectors:
  0.000  1.000  0.000  0.000  0.000
  0.000  0.000  0.372  0.628  0.000
  0.000  0.000  0.628  0.372  0.000
  1.000  0.000  0.000  0.000  0.000
  0.000  0.000  0.000  0.000  1.000
    occupations:
  0.073 -0.000 -0.000  0.000  0.000
 -0.000  0.081 -0.000  0.000  0.000
 -0.000 -0.000  0.081  0.000  0.000
  0.000  0.000  0.000  0.053 -0.000
  0.000  0.000  0.000 -0.000  0.122
atomic mag. moment =     4.607626
atom    5   Tr[ns(na)] (up, down, total) =   0.41036  5.01751  5.42787
   spin  1
    eigenvalues: 
  0.053  0.074  0.081  0.081  0.121
    eigenvectors:
  0.000  1.000  0.000  0.000  0.000
  0.000  0.000  0.409  0.591  0.000
  0.000  0.000  0.591  0.409  0.000
  1.000  0.000  0.000  0.000  0.000
  0.000  0.000  0.000  0.000  1.000
    occupations:
  0.074 -0.000 -0.000  0.000  0.000
 -0.000  0.081 -0.000  0.000  0.000
 -0.000 -0.000  0.081  0.000  0.000
  0.000  0.000  0.000  0.053 -0.000
  0.000  0.000  0.000 -0.000  0.121
   spin  2
    eigenvalues: 
  1.003  1.003  1.003  1.004  1.004
    eigenvectors:
  0.000  0.000  0.000  1.000  0.000
  0.000  0.279  0.721  0.000  0.000
  0.000  0.721  0.279  0.000  0.000
  0.000  0.000  0.000  0.000  1.000
  1.000  0.000  0.000  0.000  0.000
    occupations:
  1.004 -0.000 -0.000  0.000  0.000
 -0.000  1.003 -0.000  0.000  0.000
 -0.000 -0.000  1.003  0.000  0.000
  0.000  0.000  0.000  1.004 -0.000
  0.000  0.000  0.000 -0.000  1.003
atomic mag. moment =    -4.607145
atom    6   Tr[ns(na)] (up, down, total) =   0.40287  5.01778  5.42065
   spin  1
    eigenvalues: 
  0.053  0.074  0.081  0.081  0.114
    eigenvectors:
  0.000  1.000  0.000  0.000  0.000
  0.000  0.000  0.343  0.657  0.000
  0.000  0.000  0.657  0.343  0.000
  1.000  0.000  0.000  0.000  0.000
  0.000  0.000  0.000  0.000  1.000
    occupations:
  0.074 -0.000 -0.000  0.000  0.000
 -0.000  0.081 -0.000  0.000  0.000
 -0.000 -0.000  0.081  0.000  0.000
  0.000  0.000  0.000  0.053 -0.000
  0.000  0.000  0.000 -0.000  0.114
   spin  2
    eigenvalues: 
  1.003  1.003  1.003  1.004  1.004
    eigenvectors:
  0.000  0.000  0.000  1.000  0.000
  0.000  0.302  0.698  0.000  0.000
  0.000  0.698  0.302  0.000  0.000
  0.000  0.000  0.000  0.000  1.000
  1.000  0.000  0.000  0.000  0.000
    occupations:
  1.004 -0.000 -0.000  0.000  0.000
 -0.000  1.003 -0.000  0.000  0.000
 -0.000 -0.000  1.003  0.000  0.000
  0.000  0.000  0.000  1.004 -0.000
  0.000  0.000  0.000 -0.000  1.003
atomic mag. moment =    -4.614909
atom    7   Tr[ns(na)] (up, down, total) =   0.40248  5.01769  5.42017
   spin  1
    eigenvalues: 
  0.053  0.074  0.081  0.081  0.114
    eigenvectors:
  0.000  1.000  0.000  0.000  0.000
  0.000  0.000  0.314  0.686  0.000
  0.000  0.000  0.686  0.314  0.000
  1.000  0.000  0.000  0.000  0.000
  0.000  0.000  0.000  0.000  1.000
    occupations:
  0.074 -0.000 -0.000  0.000  0.000
 -0.000  0.081 -0.000  0.000  0.000
 -0.000 -0.000  0.081  0.000  0.000
  0.000  0.000  0.000  0.053 -0.000
  0.000  0.000  0.000 -0.000  0.114
   spin  2
    eigenvalues: 
  1.003  1.003  1.003  1.004  1.004
    eigenvectors:
  0.000  0.000  0.000  1.000  0.000
  0.000  0.358  0.642  0.000  0.000
  0.000  0.642  0.358  0.000  0.000
  0.000  0.000  0.000  0.000  1.000
  1.000  0.000  0.000  0.000  0.000
    occupations:
  1.004 -0.000 -0.000  0.000  0.000
 -0.000  1.003 -0.000  0.000  0.000
 -0.000 -0.000  1.003  0.000  0.000
  0.000  0.000  0.000  1.004 -0.000
  0.000  0.000  0.000 -0.000  1.003
atomic mag. moment =    -4.615212
atom    8   Tr[ns(na)] (up, down, total) =   0.40967  5.01745  5.42713
   spin  1
    eigenvalues: 
  0.053  0.073  0.081  0.081  0.121
    eigenvectors:
  0.000  1.000  0.000  0.000  0.000
  0.000  0.000  0.421  0.579  0.000
  0.000  0.000  0.579  0.421  0.000
  1.000  0.000  0.000  0.000  0.000
  0.000  0.000  0.000  0.000  1.000
    occupations:
  0.073 -0.000 -0.000  0.000  0.000
 -0.000  0.081 -0.000  0.000  0.000
 -0.000 -0.000  0.081  0.000  0.000
  0.000  0.000  0.000  0.053 -0.000
  0.000  0.000  0.000 -0.000  0.121
   spin  2
    eigenvalues: 
  1.003  1.003  1.003  1.004  1.004
    eigenvectors:
  0.000  0.000  0.000  1.000  0.000
  0.000  0.331  0.669  0.000  0.000
  0.000  0.669  0.331  0.000  0.000
  0.000  0.000  0.000  0.000  1.000
  1.000  0.000  0.000  0.000  0.000
    occupations:
  1.004 -0.000 -0.000  0.000  0.000
 -0.000  1.003 -0.000  0.000  0.000
 -0.000 -0.000  1.003  0.000  0.000
  0.000  0.000  0.000  1.004 -0.000
  0.000  0.000  0.000 -0.000  1.003
atomic mag. moment =    -4.607783
N of occupied +U levels =   43.390551
 --- exit write_ns ---

     total cpu time spent up to now is      333.4 secs

     total energy              =  -14687.27195215 Ry
     Harris-Foulkes estimate   =  -14685.81144826 Ry
     estimated scf accuracy    <      11.53736938 Ry

     total magnetization       =     0.00 Bohr mag/cell
     absolute magnetization    =    41.52 Bohr mag/cell

     iteration #  2     ecut=    45.00 Ry     beta= 0.10
     Davidson diagonalization with overlap
     ethr =  3.90E-03,  avg # of iterations =  1.0

     total cpu time spent up to now is      480.1 secs

     total energy              =  -14692.36911302 Ry
     Harris-Foulkes estimate   =  -14687.34591576 Ry
     estimated scf accuracy    <       9.30696698 Ry

     total magnetization       =     0.00 Bohr mag/cell
     absolute magnetization    =    41.20 Bohr mag/cell

     iteration #  3     ecut=    45.00 Ry     beta= 0.10
     Davidson diagonalization with overlap
     ethr =  3.14E-03,  avg # of iterations =  3.2

     total cpu time spent up to now is      681.5 secs

     total energy              =  -14693.23095482 Ry
     Harris-Foulkes estimate   =  -14693.95210605 Ry
     estimated scf accuracy    <      52.03637831 Ry

     total magnetization       =     0.04 Bohr mag/cell
     absolute magnetization    =    38.72 Bohr mag/cell

     iteration #  4     ecut=    45.00 Ry     beta= 0.10
     Davidson diagonalization with overlap
     ethr =  3.14E-03,  avg # of iterations =  2.6

     total cpu time spent up to now is      862.5 secs

     total energy              =  -14693.72704936 Ry
     Harris-Foulkes estimate   =  -14693.86828272 Ry
     estimated scf accuracy    <       4.28843312 Ry

     total magnetization       =    -0.01 Bohr mag/cell
     absolute magnetization    =    38.72 Bohr mag/cell

     iteration #  5     ecut=    45.00 Ry     beta= 0.10
     Davidson diagonalization with overlap
     ethr =  1.45E-03,  avg # of iterations =  1.5

     total cpu time spent up to now is     1021.5 secs

     total energy              =  -14693.54628612 Ry
     Harris-Foulkes estimate   =  -14693.75476277 Ry
     estimated scf accuracy    <       2.75388913 Ry

     total magnetization       =     0.02 Bohr mag/cell
     absolute magnetization    =    38.73 Bohr mag/cell

     iteration #  6     ecut=    45.00 Ry     beta= 0.10
     Davidson diagonalization with overlap
     ethr =  9.30E-04,  avg # of iterations =  1.4

     total cpu time spent up to now is     1177.4 secs

     total energy              =  -14692.97244203 Ry
     Harris-Foulkes estimate   =  -14693.57386947 Ry
     estimated scf accuracy    <       3.16929645 Ry

     total magnetization       =    -0.24 Bohr mag/cell
     absolute magnetization    =    38.83 Bohr mag/cell

     iteration #  7     ecut=    45.00 Ry     beta= 0.10
     Davidson diagonalization with overlap
     ethr =  9.30E-04,  avg # of iterations =  4.3

     total cpu time spent up to now is     1414.5 secs

     total energy              =  -14693.87335067 Ry
     Harris-Foulkes estimate   =  -14693.42501629 Ry
     estimated scf accuracy    <       7.67280588 Ry

     total magnetization       =     0.54 Bohr mag/cell
     absolute magnetization    =    38.56 Bohr mag/cell

     iteration #  8     ecut=    45.00 Ry     beta= 0.10
     Davidson diagonalization with overlap
     ethr =  9.30E-04,  avg # of iterations =  1.7

     total cpu time spent up to now is     1579.1 secs

     total energy              =  -14693.99840677 Ry
     Harris-Foulkes estimate   =  -14694.00017085 Ry
     estimated scf accuracy    <       0.19137565 Ry

     total magnetization       =    -0.01 Bohr mag/cell
     absolute magnetization    =    37.45 Bohr mag/cell

     iteration #  9     ecut=    45.00 Ry     beta= 0.10
     Davidson diagonalization with overlap
     ethr =  6.47E-05,  avg # of iterations =  5.8

     total cpu time spent up to now is     1849.1 secs

     total energy              =  -14694.00286924 Ry
     Harris-Foulkes estimate   =  -14694.00773612 Ry
     estimated scf accuracy    <       0.16956175 Ry

     total magnetization       =    -0.00 Bohr mag/cell
     absolute magnetization    =    37.20 Bohr mag/cell

     iteration # 10     ecut=    45.00 Ry     beta= 0.10
     Davidson diagonalization with overlap
     ethr =  5.73E-05,  avg # of iterations =  1.0

     total cpu time spent up to now is     1998.5 secs

     total energy              =  -14693.98026085 Ry
     Harris-Foulkes estimate   =  -14694.00571853 Ry
     estimated scf accuracy    <       0.12507242 Ry

     total magnetization       =     0.01 Bohr mag/cell
     absolute magnetization    =    37.16 Bohr mag/cell

     iteration # 11     ecut=    45.00 Ry     beta= 0.10
     Davidson diagonalization with overlap
     ethr =  4.23E-05,  avg # of iterations =  2.8

     total cpu time spent up to now is     2210.9 secs

     total energy              =  -14694.00133927 Ry
     Harris-Foulkes estimate   =  -14694.00494363 Ry
     estimated scf accuracy    <       0.04857348 Ry

     total magnetization       =     0.01 Bohr mag/cell
     absolute magnetization    =    37.10 Bohr mag/cell

     iteration # 12     ecut=    45.00 Ry     beta= 0.10
     Davidson diagonalization with overlap
     ethr =  1.64E-05,  avg # of iterations =  1.1

     total cpu time spent up to now is     2362.1 secs

     total energy              =  -14694.00463486 Ry
     Harris-Foulkes estimate   =  -14694.00365807 Ry
     estimated scf accuracy    <       0.01128729 Ry

     total magnetization       =     0.00 Bohr mag/cell
     absolute magnetization    =    37.11 Bohr mag/cell

     iteration # 13     ecut=    45.00 Ry     beta= 0.10
     Davidson diagonalization with overlap
     ethr =  3.81E-06,  avg # of iterations =  2.9

     total cpu time spent up to now is     2552.3 secs

     total energy              =  -14694.00708389 Ry
     Harris-Foulkes estimate   =  -14694.00505377 Ry
     estimated scf accuracy    <       0.01151894 Ry

     total magnetization       =    -0.00 Bohr mag/cell
     absolute magnetization    =    37.12 Bohr mag/cell

     iteration # 14     ecut=    45.00 Ry     beta= 0.10
     Davidson diagonalization with overlap
     ethr =  3.81E-06,  avg # of iterations =  1.7

     total cpu time spent up to now is     2714.3 secs

     total energy              =  -14694.00816717 Ry
     Harris-Foulkes estimate   =  -14694.00751144 Ry
     estimated scf accuracy    <       0.00546837 Ry

     total magnetization       =    -0.01 Bohr mag/cell
     absolute magnetization    =    37.09 Bohr mag/cell

     iteration # 15     ecut=    45.00 Ry     beta= 0.10
     Davidson diagonalization with overlap
     ethr =  1.85E-06,  avg # of iterations =  1.8

     total cpu time spent up to now is     2875.6 secs

     total energy              =  -14694.00846304 Ry
     Harris-Foulkes estimate   =  -14694.00827670 Ry
     estimated scf accuracy    <       0.00114595 Ry

     total magnetization       =     0.00 Bohr mag/cell
     absolute magnetization    =    37.08 Bohr mag/cell

     iteration # 16     ecut=    45.00 Ry     beta= 0.10
     Davidson diagonalization with overlap
     ethr =  3.87E-07,  avg # of iterations =  3.5

     total cpu time spent up to now is     3076.8 secs

     total energy              =  -14694.00860018 Ry
     Harris-Foulkes estimate   =  -14694.00849972 Ry
     estimated scf accuracy    <       0.00058459 Ry

     total magnetization       =    -0.00 Bohr mag/cell
     absolute magnetization    =    37.08 Bohr mag/cell

     iteration # 17     ecut=    45.00 Ry     beta= 0.10
     Davidson diagonalization with overlap
     ethr =  1.97E-07,  avg # of iterations =  1.8

     total cpu time spent up to now is     3240.9 secs

     total energy              =  -14694.00863188 Ry
     Harris-Foulkes estimate   =  -14694.00860025 Ry
     estimated scf accuracy    <       0.00054555 Ry

     total magnetization       =     0.00 Bohr mag/cell
     absolute magnetization    =    37.07 Bohr mag/cell

     iteration # 18     ecut=    45.00 Ry     beta= 0.10
     Davidson diagonalization with overlap
     ethr =  1.84E-07,  avg # of iterations =  1.0

     total cpu time spent up to now is     3389.3 secs

     total energy              =  -14694.00869649 Ry
     Harris-Foulkes estimate   =  -14694.00864807 Ry
     estimated scf accuracy    <       0.00099479 Ry

     total magnetization       =    -0.00 Bohr mag/cell
     absolute magnetization    =    37.07 Bohr mag/cell

     iteration # 19     ecut=    45.00 Ry     beta= 0.10
     Davidson diagonalization with overlap
     ethr =  1.84E-07,  avg # of iterations =  1.1

     total cpu time spent up to now is     3538.8 secs

     total energy              =  -14694.00871103 Ry
     Harris-Foulkes estimate   =  -14694.00869347 Ry
     estimated scf accuracy    <       0.00020582 Ry

     total magnetization       =     0.00 Bohr mag/cell
     absolute magnetization    =    37.06 Bohr mag/cell

     iteration # 20     ecut=    45.00 Ry     beta= 0.10
     Davidson diagonalization with overlap
     ethr =  6.95E-08,  avg # of iterations =  1.2

     total cpu time spent up to now is     3689.4 secs

     total energy              =  -14694.00875282 Ry
     Harris-Foulkes estimate   =  -14694.00871784 Ry
     estimated scf accuracy    <       0.00027623 Ry

     total magnetization       =    -0.00 Bohr mag/cell
     absolute magnetization    =    37.06 Bohr mag/cell

     iteration # 21     ecut=    45.00 Ry     beta= 0.10
     Davidson diagonalization with overlap
     ethr =  6.95E-08,  avg # of iterations =  1.3

     total cpu time spent up to now is     3846.1 secs

     total energy              =  -14694.00877312 Ry
     Harris-Foulkes estimate   =  -14694.00875078 Ry
     estimated scf accuracy    <       0.00024980 Ry

     total magnetization       =     0.00 Bohr mag/cell
     absolute magnetization    =    37.06 Bohr mag/cell

     iteration # 22     ecut=    45.00 Ry     beta= 0.10
     Davidson diagonalization with overlap
     ethr =  6.95E-08,  avg # of iterations =  1.1

     total cpu time spent up to now is     3997.8 secs

     total energy              =  -14694.00877485 Ry
     Harris-Foulkes estimate   =  -14694.00876875 Ry
     estimated scf accuracy    <       0.00002711 Ry

     total magnetization       =    -0.00 Bohr mag/cell
     absolute magnetization    =    37.06 Bohr mag/cell

     iteration # 23     ecut=    45.00 Ry     beta= 0.10
     Davidson diagonalization with overlap
     ethr =  9.16E-09,  avg # of iterations =  2.4

     total cpu time spent up to now is     4178.5 secs

     total energy              =  -14694.00877537 Ry
     Harris-Foulkes estimate   =  -14694.00877185 Ry
     estimated scf accuracy    <       0.00001209 Ry

     total magnetization       =    -0.00 Bohr mag/cell
     absolute magnetization    =    37.06 Bohr mag/cell

     iteration # 24     ecut=    45.00 Ry     beta= 0.10
     Davidson diagonalization with overlap
     ethr =  4.08E-09,  avg # of iterations =  1.8

     total cpu time spent up to now is     4343.5 secs

     total energy              =  -14694.00877604 Ry
     Harris-Foulkes estimate   =  -14694.00877418 Ry
     estimated scf accuracy    <       0.00000613 Ry

     total magnetization       =    -0.00 Bohr mag/cell
     absolute magnetization    =    37.06 Bohr mag/cell

     iteration # 25     ecut=    45.00 Ry     beta= 0.10
     Davidson diagonalization with overlap
     ethr =  2.07E-09,  avg # of iterations =  2.0

     total cpu time spent up to now is     4511.3 secs

     total energy              =  -14694.00877614 Ry
     Harris-Foulkes estimate   =  -14694.00877473 Ry
     estimated scf accuracy    <       0.00000188 Ry

     total magnetization       =    -0.00 Bohr mag/cell
     absolute magnetization    =    37.06 Bohr mag/cell

     iteration # 26     ecut=    45.00 Ry     beta= 0.10
     Davidson diagonalization with overlap
     ethr =  6.34E-10,  avg # of iterations =  3.5

     total cpu time spent up to now is     4717.3 secs

     total energy              =  -14694.00877602 Ry
     Harris-Foulkes estimate   =  -14694.00877502 Ry
     estimated scf accuracy    <       0.00000195 Ry

     total magnetization       =    -0.00 Bohr mag/cell
     absolute magnetization    =    37.06 Bohr mag/cell

     iteration # 27     ecut=    45.00 Ry     beta= 0.10
     Davidson diagonalization with overlap
     ethr =  6.34E-10,  avg # of iterations =  1.5
 
     Magnetic moment per site:
     atom:    1    charge:   13.5488    magn:    4.2277    constr:    0.0000
     atom:    2    charge:   13.5532    magn:    4.2023    constr:    0.0000
     atom:    3    charge:   13.5532    magn:    4.2018    constr:    0.0000
     atom:    4    charge:   13.5488    magn:    4.2282    constr:    0.0000
     atom:    5    charge:   13.5486    magn:   -4.2282    constr:    0.0000
     atom:    6    charge:   13.5534    magn:   -4.2018    constr:    0.0000
     atom:    7    charge:   13.5532    magn:   -4.2022    constr:    0.0000
     atom:    8    charge:   13.5489    magn:   -4.2278    constr:    0.0000
     atom:    9    charge:    9.1229    magn:    0.0341    constr:    0.0000
     atom:   10    charge:    9.1209    magn:    0.0290    constr:    0.0000
     atom:   11    charge:    9.1204    magn:    0.0299    constr:    0.0000
     atom:   12    charge:    9.1202    magn:    0.0298    constr:    0.0000
     atom:   13    charge:    9.1208    magn:    0.0290    constr:    0.0000
     atom:   14    charge:    9.1230    magn:    0.0342    constr:    0.0000
     atom:   15    charge:    9.1239    magn:    0.0421    constr:    0.0000
     atom:   16    charge:    9.1238    magn:   -0.0421    constr:    0.0000
     atom:   17    charge:    9.1229    magn:   -0.0341    constr:    0.0000
     atom:   18    charge:    9.1209    magn:   -0.0290    constr:    0.0000
     atom:   19    charge:    9.1203    magn:   -0.0298    constr:    0.0000
     atom:   20    charge:    9.1203    magn:   -0.0299    constr:    0.0000
     atom:   21    charge:    9.1208    magn:   -0.0290    constr:    0.0000
     atom:   22    charge:    9.1230    magn:   -0.0341    constr:    0.0000
     atom:   23    charge:    9.1238    magn:   -0.0420    constr:    0.0000
     atom:   24    charge:    9.1237    magn:    0.0420    constr:    0.0000

     total cpu time spent up to now is     4874.4 secs

     End of self-consistent calculation
 --- enter write_ns ---
 LDA+U parameters:
U(  1) =   3.1200   J(  1) =   0.7000   B(  1) =   0.0803
U(  2) =   3.1200   J(  2) =   0.7000   B(  2) =   0.0803
atom    1   Tr[ns(na)] (up, down, total) =   4.97063  0.74263  5.71326
   spin  1
    eigenvalues: 
  0.984  0.994  0.994  0.996  1.002
    eigenvectors:
  0.000  0.000  0.000  1.000  0.000
  0.000  0.380  0.620  0.000  0.000
  0.000  0.620  0.380  0.000  0.000
  0.000  0.000  0.000  0.000  1.000
  1.000  0.000  0.000  0.000  0.000
    occupations:
  0.996 -0.000 -0.000  0.000  0.000
 -0.000  0.994 -0.000  0.000  0.000
 -0.000 -0.000  0.994  0.000  0.000
  0.000  0.000  0.000  1.002 -0.000
  0.000  0.000  0.000 -0.000  0.984
   spin  2
    eigenvalues: 
  0.065  0.131  0.144  0.144  0.258
    eigenvectors:
  0.000  1.000  0.000  0.000  0.000
  0.000  0.000  0.285  0.715  0.000
  0.000  0.000  0.715  0.285  0.000
  1.000  0.000  0.000  0.000  0.000
  0.000  0.000  0.000  0.000  1.000
    occupations:
  0.131 -0.000 -0.000  0.000  0.000
 -0.000  0.144 -0.000  0.000  0.000
 -0.000 -0.000  0.144  0.000  0.000
  0.000  0.000  0.000  0.065 -0.000
  0.000  0.000  0.000 -0.000  0.258
atomic mag. moment =     4.228003
atom    2   Tr[ns(na)] (up, down, total) =   4.96967  0.76352  5.73320
   spin  1
    eigenvalues: 
  0.985  0.993  0.993  0.997  1.002
    eigenvectors:
  0.000  0.000  0.000  1.000  0.000
  0.000  0.326  0.674  0.000  0.000
  0.000  0.674  0.326  0.000  0.000
  0.000  0.000  0.000  0.000  1.000
  1.000  0.000  0.000  0.000  0.000
    occupations:
  0.997 -0.000 -0.000  0.000  0.000
 -0.000  0.993 -0.000  0.000  0.000
 -0.000 -0.000  0.993  0.000  0.000
  0.000  0.000  0.000  1.002 -0.000
  0.000  0.000  0.000 -0.000  0.985
   spin  2
    eigenvalues: 
  0.065  0.143  0.143  0.146  0.267
    eigenvectors:
  0.000  0.000  0.000  1.000  0.000
  0.000  0.301  0.699  0.000  0.000
  0.000  0.699  0.301  0.000  0.000
  1.000  0.000  0.000  0.000  0.000
  0.000  0.000  0.000  0.000  1.000
    occupations:
  0.146 -0.000 -0.000  0.000  0.000
 -0.000  0.143 -0.000  0.000  0.000
 -0.000 -0.000  0.143  0.000  0.000
  0.000  0.000  0.000  0.065 -0.000
  0.000  0.000  0.000 -0.000  0.267
atomic mag. moment =     4.206151
atom    3   Tr[ns(na)] (up, down, total) =   4.96956  0.76391  5.73347
   spin  1
    eigenvalues: 
  0.984  0.993  0.993  0.997  1.002
    eigenvectors:
  0.000  0.000  0.000  1.000  0.000
  0.000  0.312  0.688  0.000  0.000
  0.000  0.688  0.312  0.000  0.000
  0.000  0.000  0.000  0.000  1.000
  1.000  0.000  0.000  0.000  0.000
    occupations:
  0.997 -0.000 -0.000  0.000  0.000
 -0.000  0.993 -0.000  0.000  0.000
 -0.000 -0.000  0.993  0.000  0.000
  0.000  0.000  0.000  1.002 -0.000
  0.000  0.000  0.000 -0.000  0.984
   spin  2
    eigenvalues: 
  0.065  0.143  0.143  0.146  0.268
    eigenvectors:
  0.000  0.000  0.000  1.000  0.000
  0.000  0.332  0.668  0.000  0.000
  0.000  0.668  0.332  0.000  0.000
  1.000  0.000  0.000  0.000  0.000
  0.000  0.000  0.000  0.000  1.000
    occupations:
  0.146 -0.000 -0.000  0.000  0.000
 -0.000  0.143 -0.000  0.000  0.000
 -0.000 -0.000  0.143  0.000  0.000
  0.000  0.000  0.000  0.065 -0.000
  0.000  0.000  0.000 -0.000  0.268
atomic mag. moment =     4.205653
atom    4   Tr[ns(na)] (up, down, total) =   4.97074  0.74219  5.71293
   spin  1
    eigenvalues: 
  0.984  0.994  0.994  0.996  1.002
    eigenvectors:
  0.000  0.000  0.000  1.000  0.000
  0.000  0.267  0.733  0.000  0.000
  0.000  0.733  0.267  0.000  0.000
  0.000  0.000  0.000  0.000  1.000
  1.000  0.000  0.000  0.000  0.000
    occupations:
  0.996 -0.000 -0.000  0.000  0.000
 -0.000  0.994 -0.000  0.000  0.000
 -0.000 -0.000  0.994  0.000  0.000
  0.000  0.000  0.000  1.002 -0.000
  0.000  0.000  0.000 -0.000  0.984
   spin  2
    eigenvalues: 
  0.065  0.131  0.144  0.144  0.257
    eigenvectors:
  0.000  1.000  0.000  0.000  0.000
  0.000  0.000  0.362  0.638  0.000
  0.000  0.000  0.638  0.362  0.000
  1.000  0.000  0.000  0.000  0.000
  0.000  0.000  0.000  0.000  1.000
    occupations:
  0.131 -0.000 -0.000  0.000  0.000
 -0.000  0.144 -0.000  0.000  0.000
 -0.000 -0.000  0.144  0.000  0.000
  0.000  0.000  0.000  0.065 -0.000
  0.000  0.000  0.000 -0.000  0.257
atomic mag. moment =     4.228545
atom    5   Tr[ns(na)] (up, down, total) =   0.74219  4.97074  5.71293
   spin  1
    eigenvalues: 
  0.065  0.131  0.144  0.144  0.257
    eigenvectors:
  0.000  1.000  0.000  0.000  0.000
  0.000  0.000  0.333  0.667  0.000
  0.000  0.000  0.667  0.333  0.000
  1.000  0.000  0.000  0.000  0.000
  0.000  0.000  0.000  0.000  1.000
    occupations:
  0.131 -0.000 -0.000  0.000  0.000
 -0.000  0.144 -0.000  0.000  0.000
 -0.000 -0.000  0.144  0.000  0.000
  0.000  0.000  0.000  0.065 -0.000
  0.000  0.000  0.000 -0.000  0.257
   spin  2
    eigenvalues: 
  0.984  0.994  0.994  0.996  1.002
    eigenvectors:
  0.000  0.000  0.000  1.000  0.000
  0.000  0.326  0.674  0.000  0.000
  0.000  0.674  0.326  0.000  0.000
  0.000  0.000  0.000  0.000  1.000
  1.000  0.000  0.000  0.000  0.000
    occupations:
  0.996 -0.000 -0.000  0.000  0.000
 -0.000  0.994 -0.000  0.000  0.000
 -0.000 -0.000  0.994  0.000  0.000
  0.000  0.000  0.000  1.002 -0.000
  0.000  0.000  0.000 -0.000  0.984
atomic mag. moment =    -4.228548
atom    6   Tr[ns(na)] (up, down, total) =   0.76393  4.96957  5.73350
   spin  1
    eigenvalues: 
  0.065  0.143  0.143  0.146  0.268
    eigenvectors:
  0.000  0.000  0.000  1.000  0.000
  0.000  0.225  0.775  0.000  0.000
  0.000  0.775  0.225  0.000  0.000
  1.000  0.000  0.000  0.000  0.000
  0.000  0.000  0.000  0.000  1.000
    occupations:
  0.146 -0.000 -0.000  0.000  0.000
 -0.000  0.143 -0.000  0.000  0.000
 -0.000 -0.000  0.143  0.000  0.000
  0.000  0.000  0.000  0.065 -0.000
  0.000  0.000  0.000 -0.000  0.268
   spin  2
    eigenvalues: 
  0.984  0.993  0.993  0.997  1.002
    eigenvectors:
  0.000  0.000  0.000  1.000  0.000
  0.000  0.289  0.711  0.000  0.000
  0.000  0.711  0.289  0.000  0.000
  0.000  0.000  0.000  0.000  1.000
  1.000  0.000  0.000  0.000  0.000
    occupations:
  0.997 -0.000 -0.000  0.000  0.000
 -0.000  0.993 -0.000  0.000  0.000
 -0.000 -0.000  0.993  0.000  0.000
  0.000  0.000  0.000  1.002 -0.000
  0.000  0.000  0.000 -0.000  0.984
atomic mag. moment =    -4.205642
atom    7   Tr[ns(na)] (up, down, total) =   0.76357  4.96968  5.73325
   spin  1
    eigenvalues: 
  0.065  0.143  0.143  0.146  0.267
    eigenvectors:
  0.000  0.000  0.000  1.000  0.000
  0.000  0.339  0.661  0.000  0.000
  0.000  0.661  0.339  0.000  0.000
  1.000  0.000  0.000  0.000  0.000
  0.000  0.000  0.000  0.000  1.000
    occupations:
  0.146 -0.000 -0.000  0.000  0.000
 -0.000  0.143 -0.000  0.000  0.000
 -0.000 -0.000  0.143  0.000  0.000
  0.000  0.000  0.000  0.065 -0.000
  0.000  0.000  0.000 -0.000  0.267
   spin  2
    eigenvalues: 
  0.985  0.993  0.993  0.997  1.002
    eigenvectors:
  0.000  0.000  0.000  1.000  0.000
  0.000  0.351  0.649  0.000  0.000
  0.000  0.649  0.351  0.000  0.000
  0.000  0.000  0.000  0.000  1.000
  1.000  0.000  0.000  0.000  0.000
    occupations:
  0.997 -0.000 -0.000  0.000  0.000
 -0.000  0.993 -0.000  0.000  0.000
 -0.000 -0.000  0.993  0.000  0.000
  0.000  0.000  0.000  1.002 -0.000
  0.000  0.000  0.000 -0.000  0.985
atomic mag. moment =    -4.206111
atom    8   Tr[ns(na)] (up, down, total) =   0.74262  4.97063  5.71325
   spin  1
    eigenvalues: 
  0.065  0.131  0.144  0.144  0.258
    eigenvectors:
  0.000  1.000  0.000  0.000  0.000
  0.000  0.000  0.347  0.653  0.000
  0.000  0.000  0.653  0.347  0.000
  1.000  0.000  0.000  0.000  0.000
  0.000  0.000  0.000  0.000  1.000
    occupations:
  0.131 -0.000 -0.000  0.000  0.000
 -0.000  0.144 -0.000  0.000  0.000
 -0.000 -0.000  0.144  0.000  0.000
  0.000  0.000  0.000  0.065 -0.000
  0.000  0.000  0.000 -0.000  0.258
   spin  2
    eigenvalues: 
  0.984  0.994  0.994  0.996  1.002
    eigenvectors:
  0.000  0.000  0.000  1.000  0.000
  0.000  0.260  0.740  0.000  0.000
  0.000  0.740  0.260  0.000  0.000
  0.000  0.000  0.000  0.000  1.000
  1.000  0.000  0.000  0.000  0.000
    occupations:
  0.996 -0.000 -0.000  0.000  0.000
 -0.000  0.994 -0.000  0.000  0.000
 -0.000 -0.000  0.994  0.000  0.000
  0.000  0.000  0.000  1.002 -0.000
  0.000  0.000  0.000 -0.000  0.984
atomic mag. moment =    -4.228017
N of occupied +U levels =   45.785796
 --- exit write_ns ---

 ------ SPIN UP ------------


          k = 0.0000 0.0000 0.0000 ( 13925 PWs)   bands (ev):

   -66.7605 -66.7588 -66.6312 -66.6310 -62.1778 -62.1765 -62.0710 -62.0705
   -35.5332 -35.5326 -35.4763 -35.4763 -35.4740 -35.4740 -35.4073 -35.4066
   -35.3476 -35.3476 -35.3472 -35.3472 -31.0044 -31.0034 -30.9959 -30.9959
   -30.9944 -30.9944 -30.9034 -30.9029 -30.8883 -30.8883 -30.8878 -30.8878
     5.7551   5.9015   5.9993   6.3725   6.3983   7.0325   7.0628   7.6120
     8.3050   8.3571   8.3729   8.4478   8.5042   8.6524   8.7098   8.8396
     8.8576   8.9298   9.0262   9.0706   9.1720   9.2236   9.2255   9.2738
     9.3265   9.3641   9.4585   9.6230   9.6382   9.6430   9.8786   9.9447
     9.9783  10.0346  10.1114  10.1223  10.1223  10.1573  10.1573  10.2004
    10.2004  10.2429  10.3358  10.3366  10.3398  10.3398  10.3448  10.3448
    10.4381  10.4626  10.5359  10.5653  10.5653  10.5908  10.5908  10.5991
    10.5991  10.6011  10.6099  10.6099  10.6631  10.7028  10.7028  10.7622
    10.7622  10.8186  10.8340  10.9057  10.9720  10.9720  11.0438  11.0438
    11.0461  11.1514  11.1937  11.2235  11.2456  11.3383  11.4174  11.4174
    11.4892  11.4892  11.5608  11.6000  11.6132  11.8080  11.8080  11.8445
    11.8900  11.9134  11.9134  11.9584  11.9785  12.0491  12.0905  12.0905
    12.0973  12.1726  12.2039  12.2417  12.4174  12.4174  12.5417  12.7352
    12.7352  12.7574  12.8162  12.9456  13.0107  13.0931  13.1094  13.6589
    13.8901  14.6050  15.1351  16.2446  16.7705  16.7705  16.8391  16.8391
    16.9610  16.9658  17.0244  17.0244  17.0473  17.0968  17.1043  17.1112
    17.1702  17.2166  17.2576  17.2576  17.4643  17.5676  17.5701  17.6645
    18.4507  19.6547  19.8081  20.0761  20.0761  20.4617  20.4617  20.5706
    20.5706  21.5025

          k = 0.0000 0.0000 0.0242 ( 13893 PWs)   bands (ev):

   -66.7605 -66.7588 -66.6312 -66.6310 -62.1778 -62.1765 -62.0710 -62.0705
   -35.5332 -35.5326 -35.4763 -35.4763 -35.4740 -35.4740 -35.4073 -35.4066
   -35.3476 -35.3476 -35.3472 -35.3472 -31.0044 -31.0034 -30.9959 -30.9959
   -30.9944 -30.9944 -30.9034 -30.9029 -30.8883 -30.8883 -30.8878 -30.8878
     5.7589   5.8777   6.0457   6.2535   6.5325   6.8680   7.2298   7.5517
     8.3378   8.3571   8.3874   8.4478   8.5026   8.6525   8.6922   8.7611
     8.9292   8.9331   9.0143   9.0753   9.1504   9.1610   9.2891   9.3057
     9.3545   9.3660   9.4423   9.5633   9.6396   9.6715   9.8786   9.9447
     9.9832  10.0339  10.1114  10.1252  10.1252  10.1481  10.1481  10.2165
    10.2165  10.2419  10.2924  10.2924  10.3355  10.3366  10.3992  10.3992
    10.4397  10.4662  10.5264  10.5309  10.5309  10.5669  10.5669  10.5908
    10.5908  10.6139  10.6560  10.6685  10.6685  10.7075  10.7075  10.7655
    10.7655  10.7878  10.8760  10.9062  10.9125  10.9125  11.0210  11.1085
    11.1085  11.1733  11.1939  11.2232  11.2363  11.3379  11.3457  11.3457
    11.5613  11.5639  11.5639  11.6002  11.6135  11.7560  11.7560  11.8445
    11.8833  11.9506  11.9506  11.9721  11.9785  12.0491  12.0800  12.0800
    12.0806  12.1887  12.2039  12.2348  12.4179  12.4179  12.5418  12.7352
    12.7352  12.7574  12.8233  12.9456  12.9590  13.0931  13.1963  13.5313
    14.0384  14.4939  15.2005  16.2187  16.7705  16.7705  16.8390  16.8390
    16.9610  16.9658  17.0245  17.0245  17.0473  17.0968  17.1043  17.1112
    17.1702  17.2166  17.2575  17.2575  17.4680  17.5404  17.6013  17.6638
    18.4939  19.3771  20.0931  20.0931  20.1647  20.3544  20.3544  20.7243
    20.7243  21.1204

          k = 0.0000 0.0000-0.0484 ( 13878 PWs)   bands (ev):

   -66.7605 -66.7588 -66.6312 -66.6310 -62.1778 -62.1765 -62.0710 -62.0705
   -35.5332 -35.5326 -35.4763 -35.4763 -35.4740 -35.4740 -35.4073 -35.4066
   -35.3476 -35.3476 -35.3472 -35.3472 -31.0044 -31.0034 -30.9959 -30.9959
   -30.9944 -30.9944 -30.9034 -30.9029 -30.8883 -30.8883 -30.8878 -30.8878
     5.7633   5.8600   6.1268   6.1507   6.6711   6.7182   7.3802   7.4326
     8.3530   8.3571   8.4331   8.4478   8.4983   8.6417   8.6525   8.7456
     8.9286   8.9484   9.0517   9.0808   9.0838   9.1504   9.3095   9.3388
     9.3692   9.4046   9.4318   9.4950   9.6409   9.6826   9.8786   9.9447
     9.9880  10.0332  10.1114  10.1314  10.1314  10.1375  10.1375  10.2410
    10.2486  10.2486  10.2514  10.2514  10.3352  10.3366  10.4413  10.4615
    10.4615  10.4635  10.4635  10.4707  10.5175  10.5666  10.5666  10.5908
    10.5908  10.6354  10.6388  10.6878  10.6878  10.7224  10.7224  10.7736
    10.7760  10.7760  10.8644  10.8644  10.9068  10.9076  10.9929  11.1675
    11.1675  11.1941  11.2032  11.2157  11.2229  11.2839  11.2839  11.3376
    11.5618  11.6004  11.6138  11.6510  11.6510  11.6766  11.6766  11.8444
    11.8778  11.9784  11.9819  11.9819  11.9870  12.0491  12.0639  12.0653
    12.0653  12.2039  12.2111  12.2192  12.4184  12.4184  12.5419  12.7352
    12.7352  12.7573  12.8331  12.9246  12.9456  13.0931  13.3209  13.3822
    14.2497  14.2938  15.2571  16.1918  16.7705  16.7705  16.8389  16.8389
    16.9609  16.9658  17.0245  17.0245  17.0473  17.0968  17.1043  17.1112
    17.1702  17.2166  17.2574  17.2574  17.4721  17.5289  17.6164  17.6628
    18.5470  19.2235  20.1168  20.1168  20.2872  20.2872  20.5871  20.6729
    20.9419  20.9420

          k = 0.0000 0.1250 0.0000 ( 13879 PWs)   bands (ev):

   -66.7602 -66.7585 -66.6309 -66.6307 -62.1778 -62.1765 -62.0710 -62.0705
   -35.5331 -35.5324 -35.4780 -35.4762 -35.4757 -35.4739 -35.4071 -35.4064
   -35.3494 -35.3490 -35.3475 -35.3471 -31.0042 -31.0032 -30.9980 -30.9966
   -30.9957 -30.9943 -30.9031 -30.9027 -30.8905 -30.8900 -30.8882 -30.8877
     5.9985   6.1408   6.2382   6.5977   6.6228   7.2256   7.2544   7.7685
     8.3140   8.4612   8.4946   8.5675   8.6012   8.7228   8.7667   8.7708
     8.9163   8.9650   9.0490   9.0950   9.1873   9.2310   9.2344   9.3223
     9.3486   9.3847   9.4363   9.4491   9.6244   9.6907   9.7900   9.8156
     9.8593   9.8917   9.9115   9.9324  10.0135  10.0223  10.0972  10.1181
    10.1182  10.1294  10.2041  10.2142  10.2890  10.2901  10.3208  10.3622
    10.4295  10.4357  10.4876  10.4966  10.5018  10.5634  10.5858  10.6213
    10.6698  10.6802  10.7024  10.7662  10.8156  10.8224  10.8605  10.8682
    10.8864  10.9131  11.0251  11.0619  11.0748  11.1170  11.1578  11.1678
    11.1805  11.1809  11.2096  11.2930  11.3666  11.3673  11.3699  11.4501
    11.4655  11.5674  11.5803  11.6586  11.7831  11.7905  11.8011  11.8356
    11.8595  11.8991  11.9391  11.9751  12.0470  12.0514  12.0818  12.1192
    12.1755  12.1849  12.2231  12.2256  12.2819  12.4899  12.5383  12.5670
    12.7577  12.7709  12.7936  12.9806  12.9823  12.9845  13.0760  13.7297
    13.9395  14.7542  15.2479  16.3489  16.4696  16.6831  16.8219  16.8885
    16.9080  16.9408  16.9564  16.9672  17.0219  17.0359  17.0956  17.1147
    17.1727  17.1824  17.2632  17.3519  17.4142  17.5609  17.6749  17.9934
    18.6226  18.6364  19.0248  19.2016  19.9434  19.9775  19.9911  20.1045
    20.6773  21.0155

          k = 0.0000 0.1250 0.0242 ( 13869 PWs)   bands (ev):

   -66.7602 -66.7585 -66.6309 -66.6307 -62.1778 -62.1765 -62.0710 -62.0705
   -35.5331 -35.5324 -35.4780 -35.4762 -35.4757 -35.4739 -35.4071 -35.4064
   -35.3494 -35.3490 -35.3475 -35.3471 -31.0042 -31.0032 -30.9980 -30.9966
   -30.9957 -30.9943 -30.9031 -30.9027 -30.8905 -30.8900 -30.8882 -30.8877
     6.0021   6.1181   6.2828   6.4831   6.7516   7.0701   7.4117   7.7099
     8.3537   8.4645   8.4950   8.5660   8.5985   8.6698   8.7468   8.8119
     8.9169   8.9773   9.0347   9.1310   9.1759   9.2135   9.2621   9.2961
     9.3456   9.3520   9.4485   9.4905   9.6017   9.7043   9.7901   9.8155
     9.8370   9.8918   9.9115   9.9553  10.0146  10.0219  10.0934  10.0956
    10.1293  10.1352  10.1869  10.2439  10.2865  10.2924  10.3202  10.3479
    10.4096  10.4393  10.4839  10.4966  10.5448  10.5621  10.5904  10.6211
    10.6673  10.6777  10.7053  10.7118  10.8187  10.8224  10.8620  10.8916
    10.9060  10.9134  11.0219  11.0728  11.0788  11.1103  11.1498  11.1522
    11.1670  11.1878  11.2216  11.2884  11.3154  11.3642  11.4070  11.4517
    11.5227  11.5634  11.5809  11.6622  11.6967  11.7481  11.8503  11.8506
    11.8821  11.9146  11.9590  11.9715  12.0445  12.0508  12.0666  12.1011
    12.1754  12.1768  12.2270  12.2371  12.2844  12.4900  12.5375  12.5666
    12.7690  12.7709  12.7937  12.9131  12.9806  12.9823  13.1841  13.5748
    14.1149  14.6269  15.3271  16.2850  16.5287  16.6607  16.8279  16.8885
    16.9080  16.9408  16.9559  16.9673  17.0218  17.0359  17.0959  17.1143
    17.1724  17.1824  17.2632  17.3519  17.4187  17.5387  17.7202  17.9286
    18.6470  18.7311  18.9595  19.3112  19.6209  19.7282  20.2321  20.4964
    20.6848  20.8014

          k = 0.0000 0.1250-0.0484 ( 13868 PWs)   bands (ev):

   -66.7602 -66.7585 -66.6309 -66.6307 -62.1778 -62.1765 -62.0710 -62.0705
   -35.5331 -35.5324 -35.4780 -35.4762 -35.4757 -35.4739 -35.4071 -35.4064
   -35.3494 -35.3490 -35.3475 -35.3471 -31.0042 -31.0032 -30.9980 -30.9966
   -30.9957 -30.9943 -30.9031 -30.9027 -30.8905 -30.8900 -30.8882 -30.8877
     6.0064   6.1011   6.3626   6.3824   6.8870   6.9249   7.5707   7.5794
     8.3967   8.4747   8.4972   8.5582   8.5896   8.6242   8.7460   8.8302
     8.9066   8.9902   9.0397   9.1428   9.1874   9.2017   9.2684   9.2816
     9.3210   9.3462   9.4561   9.5482   9.5557   9.7172   9.7902   9.8153
     9.8180   9.8919   9.9115   9.9751  10.0159  10.0214  10.0780  10.0940
    10.1293  10.1411  10.1800  10.2719  10.2854  10.2933  10.3143  10.3279
    10.4010  10.4439  10.4791  10.4966  10.5618  10.5943  10.5997  10.6208
    10.6515  10.6651  10.6752  10.7077  10.8192  10.8224  10.8574  10.8952
    10.9130  10.9443  11.0199  11.0833  11.0925  11.0943  11.1276  11.1407
    11.1629  11.1922  11.2332  11.2815  11.3010  11.3595  11.3909  11.5302
    11.5346  11.5576  11.5836  11.6445  11.6859  11.6865  11.8538  11.8567
    11.9180  11.9198  11.9767  12.0064  12.0175  12.0321  12.0541  12.0934
    12.1685  12.1754  12.2313  12.2454  12.2869  12.4900  12.5367  12.5661
    12.7709  12.7873  12.7937  12.8645  12.9806  12.9823  13.3231  13.4090
    14.3365  14.4183  15.3939  16.2364  16.5979  16.6115  16.8333  16.8885
    16.9080  16.9408  16.9553  16.9674  17.0218  17.0360  17.0963  17.1140
    17.1721  17.1824  17.2632  17.3519  17.4239  17.5210  17.8129  17.8178
    18.6595  18.8605  18.9212  19.4025  19.5026  19.5076  20.4915  20.5015
    20.6934  20.9208

          k = 0.0000 0.2500 0.0000 ( 13848 PWs)   bands (ev):

   -66.7601 -66.7583 -66.6307 -66.6306 -62.1774 -62.1761 -62.0706 -62.0701
   -35.5327 -35.5320 -35.4822 -35.4799 -35.4759 -35.4736 -35.4067 -35.4060
   -35.3536 -35.3532 -35.3473 -35.3469 -31.0036 -31.0033 -31.0026 -31.0019
   -30.9954 -30.9940 -30.9025 -30.9021 -30.8958 -30.8953 -30.8878 -30.8873
     6.6868   6.8144   6.9100   7.2171   7.2368   7.7153   7.7204   8.1166
     8.2705   8.5216   8.5418   8.7046   8.7563   8.7565   8.8313   8.8492
     8.8858   8.9487   8.9504   8.9808   9.1267   9.1404   9.2882   9.3753
     9.4448   9.4611   9.4811   9.5535   9.6040   9.6174   9.6218   9.6674
     9.6814   9.7069   9.7576   9.7666   9.8483   9.8737   9.9587   9.9603
     9.9972  10.0289  10.1260  10.1330  10.1609  10.2532  10.2545  10.3213
    10.4172  10.5362  10.5458  10.5684  10.6236  10.6797  10.7023  10.7410
    10.8413  10.8714  10.8939  10.9584  11.0089  11.0151  11.0369  11.0948
    11.1092  11.1144  11.1661  11.2074  11.2813  11.2910  11.3242  11.3248
    11.3452  11.4098  11.4231  11.5074  11.5226  11.5413  11.5913  11.6288
    11.6333  11.6826  11.6910  11.7289  11.7837  11.7961  11.8025  11.8509
    11.8752  11.9199  11.9486  12.0124  12.0251  12.0415  12.0656  12.1179
    12.1572  12.2137  12.2239  12.2832  12.3642  12.4515  12.5689  12.5888
    12.6561  12.8395  12.8553  12.9226  12.9821  13.0142  13.0396  13.9111
    14.0475  15.0322  15.3739  15.9821  16.0358  16.0399  16.1176  16.1694
    16.5892  16.6714  16.7150  16.7967  16.9315  17.0571  17.0587  17.0689
    17.0924  17.1156  17.2244  17.3013  17.3277  17.3863  17.4243  17.4640
    17.4864  17.7954  18.0304  18.0624  18.4949  18.5478  18.6793  19.0056
    19.5524  20.5123

          k = 0.0000 0.2500 0.0242 ( 13862 PWs)   bands (ev):

   -66.7601 -66.7583 -66.6307 -66.6306 -62.1774 -62.1761 -62.0706 -62.0701
   -35.5327 -35.5320 -35.4822 -35.4799 -35.4759 -35.4736 -35.4067 -35.4060
   -35.3536 -35.3532 -35.3473 -35.3469 -31.0036 -31.0033 -31.0026 -31.0019
   -30.9954 -30.9940 -30.9025 -30.9021 -30.8958 -30.8953 -30.8878 -30.8873
     6.6899   6.7959   6.9478   7.1193   7.3439   7.5926   7.8366   8.0684
     8.3098   8.4665   8.5945   8.7049   8.7077   8.7961   8.8306   8.8540
     8.8822   8.9253   8.9607   8.9851   9.1183   9.1643   9.2871   9.3336
     9.4448   9.4811   9.5137   9.5535   9.6040   9.6170   9.6208   9.6659
     9.6804   9.7067   9.7123   9.7576   9.8493   9.9322   9.9487   9.9700
     9.9982  10.0271  10.1203  10.1261  10.1313  10.2401  10.2783  10.3472
    10.3986  10.5350  10.5472  10.5846  10.6022  10.6792  10.6956  10.7773
    10.8272  10.8703  10.8898  10.9325  11.0171  11.0191  11.0396  11.0920
    11.1135  11.1325  11.1611  11.2151  11.2703  11.2729  11.3295  11.3407
    11.3503  11.3932  11.4497  11.5059  11.5080  11.5267  11.5850  11.5974
    11.6555  11.6706  11.7226  11.7587  11.7839  11.7987  11.8012  11.8494
    11.8649  11.9190  11.9382  11.9857  12.0212  12.0318  12.1100  12.1180
    12.1586  12.2126  12.2159  12.2832  12.3734  12.4400  12.5905  12.5922
    12.6561  12.7874  12.8391  12.8553  13.0142  13.0396  13.1593  13.6826
    14.2869  14.8729  15.4979  15.9139  16.0248  16.0742  16.1039  16.1889
    16.5868  16.6721  16.7150  16.7967  16.9315  17.0545  17.0627  17.0689
    17.0922  17.1145  17.2315  17.3013  17.3277  17.3410  17.4243  17.4640
    17.5597  17.7905  17.9573  18.1892  18.3020  18.5173  18.8150  19.0475
    19.5758  20.2104

          k = 0.0000 0.2500-0.0484 ( 13842 PWs)   bands (ev):

   -66.7601 -66.7583 -66.6307 -66.6306 -62.1774 -62.1761 -62.0706 -62.0701
   -35.5327 -35.5320 -35.4822 -35.4799 -35.4759 -35.4736 -35.4067 -35.4060
   -35.3536 -35.3532 -35.3473 -35.3469 -31.0036 -31.0033 -31.0026 -31.0019
   -30.9954 -30.9940 -30.9025 -30.9021 -30.8958 -30.8953 -30.8878 -30.8873
     6.6935   6.7816   7.0217   7.0279   7.4618   7.4714   7.9158   8.0047
     8.3562   8.4205   8.6464   8.6595   8.7057   8.8120   8.8300   8.8675
     8.8738   8.9075   8.9628   8.9887   9.1152   9.1877   9.2818   9.3036
     9.4448   9.4810   9.5536   9.5814   9.6027   9.6040   9.6181   9.6470
     9.6727   9.6849   9.7065   9.7576   9.8504   9.9441   9.9743   9.9977
     9.9995  10.0251  10.0625  10.1262  10.1297  10.2362  10.2962  10.3700
    10.3782  10.5332  10.5498  10.5819  10.6000  10.6787  10.6935  10.8132
    10.8197  10.8623  10.8754  10.9139  11.0172  11.0285  11.0417  11.0922
    11.1124  11.1537  11.1574  11.2267  11.2457  11.2669  11.3323  11.3527
    11.3577  11.3857  11.4793  11.4833  11.4895  11.5448  11.5526  11.5838
    11.6520  11.7038  11.7236  11.7837  11.7842  11.7979  11.8169  11.8439
    11.8517  11.9157  11.9309  11.9536  12.0279  12.0315  12.1179  12.1386
    12.1599  12.2041  12.2117  12.2832  12.3871  12.4242  12.5954  12.6354
    12.6561  12.6954  12.8388  12.8553  13.0143  13.0396  13.3505  13.4649
    14.5359  14.6433  15.6158  15.8315  16.0427  16.0509  16.1161  16.2006
    16.5846  16.6727  16.7150  16.7967  16.9315  17.0535  17.0652  17.0689
    17.0920  17.1134  17.2418  17.3013  17.3093  17.3277  17.4243  17.4640
    17.6370  17.7476  17.9797  18.1523  18.3471  18.3781  18.9430  19.0444
    19.6472  19.9995

          k = 0.0000 0.3750 0.0000 ( 13856 PWs)   bands (ev):

   -66.7607 -66.7589 -66.6313 -66.6312 -62.1764 -62.1751 -62.0696 -62.0691
   -35.5323 -35.5316 -35.4863 -35.4840 -35.4757 -35.4734 -35.4063 -35.4056
   -35.3577 -35.3573 -35.3471 -35.3467 -31.0088 -31.0073 -31.0030 -31.0020
   -30.9951 -30.9936 -30.9020 -30.9016 -30.9012 -30.9007 -30.8875 -30.8870
     7.6466   7.7411   7.8210   7.9916   8.0087   8.1319   8.1447   8.1954
     8.2122   8.3618   8.3648   8.4957   8.6187   8.7745   8.8196   8.9273
     8.9444   8.9680   9.0826   9.1891   9.1974   9.2008   9.2043   9.2789
     9.2908   9.3036   9.3633   9.4073   9.4735   9.5180   9.5543   9.6469
     9.6859   9.6879   9.7777   9.7937   9.8095   9.8987   9.9027   9.9566
    10.0318  10.0322  10.0635  10.1053  10.1912  10.1925  10.2413  10.3222
    10.3518  10.3539  10.4823  10.5158  10.6838  10.7650  10.7989  10.9214
    11.0469  11.0924  11.1372  11.2438  11.2484  11.2737  11.3432  11.3691
    11.3749  11.4102  11.4325  11.4718  11.5071  11.5455  11.5579  11.5675
    11.5990  11.6093  11.6353  11.6827  11.7023  11.7218  11.7636  11.7715
    11.8034  11.8226  11.8431  11.8444  11.9304  12.0006  12.0255  12.0588
    12.0732  12.0892  12.1302  12.1315  12.1479  12.1759  12.2962  12.3081
    12.3439  12.3605  12.4113  12.4310  12.5297  12.5400  12.5490  12.6966
    12.7756  12.9025  12.9489  12.9698  12.9829  13.0710  13.0865  13.8918
    13.9210  13.9754  14.2558  14.2942  14.6941  14.7567  15.0775  15.0899
    15.4232  15.4668  15.9113  16.0039  16.6881  16.7590  16.7686  16.7826
    16.8801  16.9089  16.9952  17.0137  17.0307  17.1232  17.1993  17.4164
    17.5048  17.5068  17.6045  17.6245  17.9400  17.9715  18.1116  18.3055
    19.4848  19.6238

          k = 0.0000 0.3750 0.0242 ( 13870 PWs)   bands (ev):

   -66.7607 -66.7589 -66.6313 -66.6312 -62.1764 -62.1751 -62.0696 -62.0691
   -35.5323 -35.5316 -35.4863 -35.4840 -35.4757 -35.4734 -35.4063 -35.4056
   -35.3577 -35.3573 -35.3471 -35.3467 -31.0088 -31.0073 -31.0030 -31.0020
   -30.9951 -30.9936 -30.9020 -30.9016 -30.9012 -30.9007 -30.8875 -30.8870
     7.6486   7.7304   7.8433   7.9454   8.0504   8.1204   8.1505   8.1767
     8.2382   8.3193   8.4040   8.4886   8.6158   8.7791   8.8270   8.8963
     8.9472   9.0021   9.0711   9.1529   9.1974   9.2008   9.2367   9.2789
     9.2845   9.3036   9.3897   9.4085   9.4735   9.5180   9.5307   9.6005
     9.6856   9.7422   9.7799   9.7914   9.8100   9.8990   9.9225   9.9558
    10.0307  10.0316  10.0662  10.1030  10.1077  10.1920  10.2992  10.3222
    10.3415  10.3869  10.4852  10.5151  10.6386  10.7662  10.7987  10.9635
    11.0451  11.0884  11.1178  11.1990  11.2697  11.3187  11.3436  11.3761
    11.4004  11.4089  11.4324  11.4697  11.5064  11.5211  11.5251  11.5691
    11.6022  11.6029  11.6483  11.6864  11.6979  11.7118  11.7502  11.7745
    11.7782  11.8010  11.8588  11.8857  11.9122  12.0013  12.0092  12.0508
    12.0535  12.1111  12.1308  12.1374  12.1842  12.2421  12.2959  12.3063
    12.3437  12.3539  12.4160  12.4414  12.5302  12.5394  12.5432  12.6978
    12.7241  12.7755  12.9024  12.9489  13.0710  13.0865  13.2284  13.6989
    13.9739  14.1270  14.1408  14.4382  14.5328  14.8328  14.9374  15.2428
    15.3651  15.5309  15.8896  15.9857  16.6881  16.7590  16.7651  16.7921
    16.8801  16.9079  16.9952  17.0068  17.0383  17.1219  17.1980  17.4208
    17.5048  17.5068  17.6045  17.6245  17.9390  17.9731  18.1097  18.3076
    19.4830  19.6360

          k = 0.0000 0.3750-0.0484 ( 13872 PWs)   bands (ev):

   -66.7607 -66.7589 -66.6313 -66.6312 -62.1764 -62.1751 -62.0696 -62.0691
   -35.5323 -35.5316 -35.4863 -35.4840 -35.4757 -35.4734 -35.4063 -35.4056
   -35.3577 -35.3573 -35.3471 -35.3467 -31.0088 -31.0073 -31.0030 -31.0020
   -30.9951 -30.9936 -30.9020 -30.9016 -30.9012 -30.9007 -30.8875 -30.8870
     7.6509   7.7216   7.8816   7.8999   8.0848   8.0985   8.1605   8.1608
     8.2729   8.2803   8.4259   8.4783   8.6131   8.7825   8.8511   8.8583
     8.9534   9.0409   9.0447   9.1312   9.1974   9.2008   9.2642   9.2673
     9.2789   9.3036   9.4060   9.4498   9.4683   9.4736   9.5180   9.5877
     9.6853   9.7696   9.7838   9.7875   9.8104   9.8993   9.9550   9.9722
    10.0080  10.0311  10.0489  10.0692  10.1005  10.1927  10.3185  10.3222
    10.3371  10.4249  10.4981  10.5144  10.5834  10.7673  10.7984  11.0231
    11.0434  11.0587  11.1005  11.1860  11.2669  11.3289  11.3850  11.4062
    11.4133  11.4199  11.4305  11.4563  11.4873  11.5083  11.5091  11.5176
    11.6013  11.6225  11.6553  11.6731  11.7003  11.7181  11.7467  11.7654
    11.7769  11.7783  11.8742  11.8982  11.9335  11.9653  12.0021  12.0447
    12.0508  12.1173  12.1314  12.1379  12.2336  12.2408  12.2955  12.3430
    12.3489  12.3977  12.4515  12.4841  12.4860  12.5324  12.5349  12.5474
    12.6990  12.7755  12.9022  12.9489  13.0710  13.0865  13.4544  13.4878
    14.0238  14.0521  14.3282  14.3321  14.6064  14.6612  15.0460  15.1677
    15.4853  15.5033  15.8697  15.9652  16.6881  16.7590  16.7643  16.7987
    16.8801  16.9070  16.9952  17.0022  17.0437  17.1206  17.1967  17.4252
    17.5048  17.5068  17.6045  17.6245  17.9382  17.9747  18.1079  18.3096
    19.4822  19.6470

          k = 0.0000-0.5000 0.0000 ( 13918 PWs)   bands (ev):

   -66.7611 -66.7594 -66.6317 -66.6317 -62.1758 -62.1745 -62.0690 -62.0685
   -35.5321 -35.5315 -35.4879 -35.4857 -35.4756 -35.4733 -35.4061 -35.4054
   -35.3594 -35.3590 -35.3470 -35.3466 -31.0110 -31.0096 -31.0028 -31.0018
   -30.9949 -30.9935 -30.9035 -30.9030 -30.9017 -30.9013 -30.8874 -30.8869
     8.0929   8.0932   8.1503   8.1507   8.2790   8.2794   8.4139   8.4141
     8.4568   8.4568   8.5078   8.5078   8.6431   8.6435   8.8438   8.8438
     8.8691   8.8691   9.0824   9.0826   9.0985   9.0990   9.1960   9.1967
     9.3308   9.3310   9.4011   9.4015   9.6065   9.6066   9.6666   9.6670
     9.6973   9.6975   9.7199   9.7201   9.7930   9.7933   9.8694   9.8695
    10.0175  10.0176  10.0606  10.0606  10.0976  10.0979  10.2861  10.2864
    10.4084  10.4094  10.4225  10.4227  10.6688  10.6701  10.8103  10.8104
    11.2939  11.2940  11.3419  11.3421  11.4299  11.4305  11.4710  11.4711
    11.5285  11.5292  11.5607  11.5607  11.5650  11.5651  11.6076  11.6077
    11.6081  11.6084  11.6802  11.6802  11.7228  11.7230  11.8115  11.8118
    11.8939  11.8942  12.0195  12.0196  12.1093  12.1095  12.3986  12.3986
    12.4272  12.4273  12.4540  12.4541  12.4747  12.4748  12.5081  12.5083
    12.5656  12.5661  12.5813  12.5817  12.7754  12.7763  12.7990  12.7992
    12.9606  12.9606  12.9616  12.9620  13.1016  13.1023  13.1872  13.1872
    13.3340  13.3341  13.7411  13.7414  13.8427  13.8428  14.4062  14.4065
    14.4330  14.4334  14.8649  14.8653  16.5373  16.5379  16.7833  16.7848
    16.7945  16.7947  16.8427  16.8452  16.9657  16.9662  17.0771  17.0773
    17.5797  17.5816  17.6873  17.6876  17.9792  17.9810  18.0858  18.0859
    19.5317  19.5317

          k = 0.0000-0.5000 0.0242 ( 13918 PWs)   bands (ev):

   -66.7611 -66.7594 -66.6317 -66.6317 -62.1758 -62.1745 -62.0690 -62.0685
   -35.5321 -35.5315 -35.4879 -35.4857 -35.4756 -35.4733 -35.4061 -35.4054
   -35.3594 -35.3590 -35.3470 -35.3466 -31.0110 -31.0096 -31.0028 -31.0018
   -30.9949 -30.9935 -30.9035 -30.9030 -30.9017 -30.9013 -30.8874 -30.8869
     8.0929   8.0932   8.1502   8.1507   8.2794   8.2797   8.4106   8.4108
     8.4628   8.4629   8.5042   8.5043   8.6450   8.6455   8.8240   8.8241
     8.8937   8.8938   9.0708   9.0709   9.0985   9.0990   9.1960   9.1967
     9.3428   9.3429   9.4011   9.4015   9.5927   9.5927   9.6666   9.6670
     9.7011   9.7011   9.7199   9.7201   9.7924   9.7927   9.8694   9.8695
    10.0175  10.0176  10.0606  10.0606  10.1209  10.1212  10.2580  10.2583
    10.4084  10.4093  10.4292  10.4294  10.6688  10.6701  10.8123  10.8124
    11.2998  11.2998  11.3419  11.3421  11.4269  11.4275  11.4736  11.4736
    11.5286  11.5294  11.5616  11.5616  11.5666  11.5667  11.6012  11.6013
    11.6081  11.6084  11.6696  11.6697  11.7273  11.7275  11.8101  11.8104
    11.8939  11.8943  12.0275  12.0277  12.1093  12.1094  12.3987  12.3987
    12.4239  12.4239  12.4538  12.4539  12.4781  12.4782  12.5045  12.5047
    12.5657  12.5661  12.5835  12.5839  12.7754  12.7763  12.7965  12.7966
    12.9616  12.9620  12.9693  12.9693  13.1016  13.1023  13.1600  13.1600
    13.3751  13.3752  13.6601  13.6602  13.9388  13.9390  14.2663  14.2666
    14.5609  14.5615  14.8402  14.8406  16.5393  16.5400  16.7833  16.7848
    16.7932  16.7934  16.8427  16.8452  16.9656  16.9661  17.0772  17.0775
    17.5797  17.5816  17.6873  17.6876  17.9792  17.9811  18.0858  18.0859
    19.5365  19.5365

          k = 0.0000-0.5000-0.0484 ( 13892 PWs)   bands (ev):

   -66.7611 -66.7594 -66.6317 -66.6317 -62.1758 -62.1745 -62.0690 -62.0685
   -35.5321 -35.5315 -35.4879 -35.4857 -35.4756 -35.4733 -35.4061 -35.4054
   -35.3594 -35.3590 -35.3470 -35.3466 -31.0110 -31.0096 -31.0028 -31.0018
   -30.9949 -30.9935 -30.9035 -30.9030 -30.9017 -30.9013 -30.8874 -30.8869
     8.0930   8.0932   8.1502   8.1506   8.2797   8.2801   8.4077   8.4080
     8.4693   8.4693   8.4997   8.4997   8.6470   8.6475   8.8129   8.8130
     8.9109   8.9110   9.0585   9.0586   9.0985   9.0990   9.1960   9.1967
     9.3551   9.3552   9.4011   9.4015   9.5790   9.5790   9.6666   9.6670
     9.7040   9.7040   9.7199   9.7201   9.7918   9.7922   9.8694   9.8695
    10.0175  10.0176  10.0606  10.0606  10.1586  10.1590  10.2168  10.2170
    10.4084  10.4094  10.4346  10.4348  10.6688  10.6701  10.8143  10.8144
    11.3061  11.3061  11.3419  11.3421  11.4238  11.4243  11.4760  11.4760
    11.5294  11.5301  11.5623  11.5624  11.5696  11.5698  11.5919  11.5921
    11.6081  11.6084  11.6615  11.6616  11.7303  11.7305  11.8089  11.8091
    11.8939  11.8943  12.0353  12.0355  12.1093  12.1094  12.3988  12.3989
    12.4207  12.4207  12.4536  12.4538  12.4821  12.4823  12.5002  12.5003
    12.5657  12.5662  12.5856  12.5861  12.7754  12.7763  12.7940  12.7941
    12.9616  12.9620  12.9791  12.9791  13.1016  13.1023  13.1371  13.1372
    13.4198  13.4199  13.5988  13.5989  14.0397  14.0400  14.1565  14.1567
    14.6360  14.6366  14.8046  14.8049  16.5414  16.5420  16.7833  16.7848
    16.7920  16.7921  16.8427  16.8452  16.9655  16.9660  17.0773  17.0776
    17.5797  17.5816  17.6873  17.6876  17.9792  17.9811  18.0858  18.0859
    19.5416  19.5416

          k = 0.1250 0.1250 0.0000 ( 13839 PWs)   bands (ev):

   -66.7599 -66.7582 -66.6306 -66.6304 -62.1778 -62.1765 -62.0711 -62.0706
   -35.5329 -35.5323 -35.4780 -35.4779 -35.4757 -35.4756 -35.4070 -35.4063
   -35.3493 -35.3493 -35.3489 -35.3489 -31.0040 -31.0029 -30.9980 -30.9978
   -30.9965 -30.9964 -30.9029 -30.9025 -30.8904 -30.8902 -30.8899 -30.8897
     6.2296   6.3704   6.4699   6.8187   6.8437   7.4235   7.4494   7.9392
     8.3694   8.5467   8.6356   8.6768   8.7058   8.7561   8.7848   8.8744
     8.9798   9.0577   9.0791   9.0964   9.2761   9.3403   9.3410   9.3534
     9.3909   9.3920   9.4051   9.4911   9.5852   9.6190   9.6508   9.7554
     9.7831   9.8372   9.8416   9.8650   9.8818   9.9022   9.9114   9.9192
    10.0640  10.0670  10.1144  10.1969  10.2258  10.3117  10.3262  10.3452
    10.3616  10.3708  10.3710  10.4068  10.4724  10.4866  10.5571  10.6018
    10.6089  10.6265  10.7147  10.7485  10.7519  10.8391  10.8771  10.9168
    10.9507  11.0218  11.0822  11.0861  11.0965  11.1320  11.1580  11.1582
    11.2032  11.2735  11.2748  11.3406  11.4037  11.4888  11.5255  11.5523
    11.6070  11.6127  11.6380  11.6867  11.7110  11.8757  11.8886  11.9202
    11.9462  11.9654  12.0230  12.0244  12.0473  12.0512  12.1457  12.1486
    12.1856  12.1922  12.2421  12.2826  12.4348  12.4617  12.5193  12.6721
    12.6735  12.7224  12.7721  12.8576  12.8598  12.9981  13.0872  13.8313
    14.0304  14.8897  15.3884  16.4656  16.6397  16.6853  16.7087  16.7398
    16.8359  16.8940  16.9078  16.9238  16.9882  16.9997  17.1461  17.1561
    17.1599  17.1642  17.2616  17.2774  17.4086  17.6025  17.7597  18.3612
    18.8212  19.0972  19.2352  19.3887  19.6293  19.7120  19.8208  20.0793
    20.1385  20.3034

          k = 0.1250 0.1250 0.0242 ( 13842 PWs)   bands (ev):

   -66.7599 -66.7582 -66.6306 -66.6304 -62.1778 -62.1765 -62.0711 -62.0706
   -35.5329 -35.5323 -35.4780 -35.4779 -35.4757 -35.4756 -35.4070 -35.4063
   -35.3493 -35.3493 -35.3489 -35.3489 -31.0040 -31.0029 -30.9980 -30.9978
   -30.9965 -30.9964 -30.9029 -30.9025 -30.8904 -30.8902 -30.8899 -30.8897
[...]
    11.5245  11.5246  11.6571  11.6583  11.7218  11.7218  11.7593  11.7596
    11.8455  11.8459  11.8872  11.8873  11.9654  11.9655  12.0023  12.0023
    12.1142  12.1144  12.2462  12.2462  12.3108  12.3111  12.4372  12.4374
    12.4491  12.4492  12.5323  12.5323  12.8548  12.8550  12.9259  12.9260
    13.2481  13.2485  13.5618  13.5618  13.8398  13.8401  14.0203  14.0203
    14.5312  14.5316  14.6800  14.6808  15.0222  15.0231  15.4248  15.4252
    16.1828  16.1834  16.7940  16.7942  16.9496  16.9499  17.0445  17.0448
    17.1212  17.1218  17.1588  17.1591  17.4608  17.4624  17.6686  17.6687
    18.0688  18.0707  18.1643  18.1650  18.3069  18.3073  18.5036  18.5041
    19.6222  19.6224

          k = 0.3750 0.3750 0.0000 ( 13948 PWs)   bands (ev):

   -66.7591 -66.7573 -66.6300 -66.6299 -62.1768 -62.1756 -62.0699 -62.0694
   -35.5318 -35.5311 -35.4855 -35.4855 -35.4832 -35.4832 -35.4060 -35.4053
   -35.3571 -35.3570 -35.3568 -35.3568 -31.0076 -31.0074 -31.0062 -31.0060
   -31.0022 -31.0013 -30.9010 -30.9006 -30.8999 -30.8997 -30.8994 -30.8992
     7.9773   8.1511   8.3223   8.3879   8.4617   8.6076   8.6292   8.7762
     8.9647   8.9761   8.9794   8.9811   9.0762   9.1359   9.1791   9.2163
     9.2418   9.2798   9.3096   9.3268   9.3317   9.3823   9.4504   9.4735
     9.4793   9.4863   9.5275   9.5446   9.6505   9.6654   9.6887   9.8135
     9.9142   9.9447   9.9626   9.9633  10.0040  10.0042  10.0666  10.0869
    10.1007  10.1017  10.1448  10.1906  10.2164  10.3184  10.3489  10.3566
    10.4066  10.4571  10.4936  10.5373  10.5727  10.6266  10.6583  10.6714
    10.7212  10.7235  10.7553  10.9011  10.9612  10.9675  11.0558  11.0690
    11.1392  11.1608  11.2406  11.4031  11.4441  11.4652  11.4740  11.5291
    11.5792  11.5835  11.6022  11.6183  11.6582  11.6976  11.7322  11.7550
    11.8071  11.9019  11.9419  11.9461  11.9776  11.9899  11.9944  12.0129
    12.0129  12.0503  12.1002  12.1121  12.1460  12.2546  12.2934  12.3411
    12.4745  12.4919  12.5093  12.5509  12.6980  12.7871  12.8552  13.0550
    13.1182  13.4583  13.7589  14.0633  14.2139  14.6558  14.6579  15.1065
    15.2124  15.2157  15.2841  15.4555  15.4758  15.9278  16.1308  16.5858
    16.8830  16.9072  17.0161  17.0311  17.0742  17.1005  17.2334  17.2836
    17.3014  17.4688  17.5330  17.7104  17.7442  17.7657  17.8735  17.9878
    18.0541  18.1449  18.1602  18.2508  18.2890  18.5124  18.6671  18.7246
    18.8091  18.9076

          k = 0.3750 0.3750 0.0242 ( 13940 PWs)   bands (ev):

   -66.7591 -66.7573 -66.6300 -66.6299 -62.1768 -62.1756 -62.0699 -62.0694
   -35.5318 -35.5311 -35.4855 -35.4855 -35.4832 -35.4832 -35.4060 -35.4053
   -35.3571 -35.3570 -35.3568 -35.3568 -31.0076 -31.0074 -31.0062 -31.0060
   -31.0022 -31.0013 -30.9010 -30.9006 -30.8999 -30.8997 -30.8994 -30.8992
     7.9776   8.1492   8.3224   8.4000   8.4653   8.5464   8.6799   8.7855
     8.9470   8.9732   8.9797   8.9934   9.0745   9.1338   9.1408   9.2137
     9.2798   9.2961   9.3103   9.3250   9.3438   9.3886   9.4219   9.4429
     9.4716   9.5174   9.5424   9.5476   9.6173   9.6472   9.7405   9.8278
     9.8884   9.9175   9.9604   9.9697   9.9763  10.0493  10.0518  10.0802
    10.0870  10.1414  10.1792  10.1821  10.2207  10.2735  10.3509  10.3745
    10.4093  10.4377  10.4807  10.5465  10.5817  10.6333  10.6667  10.6750
    10.6959  10.7157  10.7934  10.9011  10.9209  10.9888  11.0463  11.0690
    11.1431  11.1575  11.2517  11.4080  11.4442  11.4651  11.4737  11.5294
    11.5782  11.5787  11.6027  11.6181  11.6416  11.6976  11.7484  11.7549
    11.8135  11.8886  11.9425  11.9458  11.9776  11.9860  12.0032  12.0082
    12.0284  12.0503  12.0878  12.0965  12.1735  12.2428  12.2923  12.3426
    12.4763  12.4964  12.5090  12.5583  12.6585  12.8351  12.8550  13.0029
    13.1597  13.4372  13.7974  13.9984  14.2727  14.5719  14.7242  15.1149
    15.1888  15.2119  15.3065  15.4377  15.4865  15.9299  16.1305  16.5800
    16.8900  16.9239  17.0024  17.0318  17.0799  17.1004  17.1986  17.2629
    17.3267  17.5135  17.5164  17.7222  17.7235  17.7750  17.8619  17.9706
    18.0880  18.1325  18.1537  18.2890  18.3506  18.4424  18.5526  18.6755
    18.7675  19.0172

          k = 0.3750 0.3750-0.0484 ( 13950 PWs)   bands (ev):

   -66.7591 -66.7573 -66.6300 -66.6299 -62.1768 -62.1756 -62.0699 -62.0694
   -35.5318 -35.5311 -35.4855 -35.4855 -35.4832 -35.4832 -35.4060 -35.4053
   -35.3571 -35.3570 -35.3568 -35.3568 -31.0076 -31.0074 -31.0062 -31.0060
   -31.0022 -31.0013 -30.9010 -30.9006 -30.8999 -30.8997 -30.8994 -30.8992
     7.9778   8.1473   8.3225   8.4143   8.4885   8.4899   8.7034   8.7964
     8.9406   8.9730   8.9763   8.9940   9.0578   9.1309   9.1640   9.1738
     9.3001   9.3112   9.3207   9.3231   9.3761   9.3983   9.4066   9.4223
     9.4248   9.5482   9.5636   9.5655   9.5695   9.6351   9.7874   9.8397
     9.8540   9.9167   9.9270   9.9692   9.9704  10.0469  10.0846  10.0859
    10.0934  10.1398  10.1617  10.2024  10.2499  10.2751  10.3044  10.3529
    10.4283  10.4550  10.4791  10.5107  10.6186  10.6368  10.6578  10.6771
    10.6991  10.6996  10.8417  10.8728  10.9011  10.9982  11.0374  11.0690
    11.1478  11.1532  11.2617  11.4140  11.4443  11.4650  11.4734  11.5297
    11.5706  11.5782  11.6033  11.6179  11.6306  11.6976  11.7549  11.7593
    11.8248  11.8723  11.9433  11.9452  11.9776  11.9830  12.0075  12.0116
    12.0466  12.0503  12.0637  12.0923  12.2066  12.2174  12.2912  12.3440
    12.4781  12.5006  12.5087  12.5730  12.6230  12.8547  12.8927  12.9449
    13.1880  13.4161  13.8643  13.9175  14.3259  14.5199  14.7503  15.1287
    15.1646  15.2081  15.3260  15.4226  15.4924  15.9320  16.1302  16.5745
    16.8976  16.9500  16.9801  17.0321  17.0861  17.1002  17.1768  17.2329
    17.3605  17.4903  17.5604  17.6993  17.7373  17.7797  17.8484  17.9624
    18.0952  18.1490  18.1495  18.3809  18.3866  18.4040  18.4892  18.4919
    18.8728  18.8989

          k = 0.3750-0.5000 0.0000 ( 13934 PWs)   bands (ev):

   -66.7592 -66.7574 -66.6300 -66.6299 -62.1766 -62.1754 -62.0697 -62.0692
   -35.5317 -35.5310 -35.4871 -35.4854 -35.4848 -35.4830 -35.4059 -35.4052
   -35.3587 -35.3584 -35.3569 -35.3567 -31.0097 -31.0083 -31.0073 -31.0059
   -31.0021 -31.0011 -30.9020 -30.9015 -30.9008 -30.9004 -30.8996 -30.8991
     8.1025   8.1032   8.2632   8.2641   8.5139   8.5141   8.6938   8.6940
     8.8777   8.8781   9.0930   9.0933   9.1554   9.1554   9.1933   9.1933
     9.1997   9.1999   9.2496   9.2498   9.3618   9.3619   9.3927   9.3929
     9.4431   9.4431   9.5715   9.5718   9.6254   9.6254   9.8496   9.8498
     9.8845   9.8845   9.9608   9.9609  10.0223  10.0225  10.0872  10.0876
    10.1523  10.1525  10.2250  10.2254  10.3572  10.3573  10.4079  10.4081
    10.4678  10.4684  10.6351  10.6351  10.6881  10.6882  10.8384  10.8385
    10.9525  10.9527  11.0113  11.0116  11.1286  11.1288  11.2540  11.2545
    11.2910  11.2911  11.3536  11.3539  11.4613  11.4617  11.6008  11.6010
    11.6252  11.6254  11.7059  11.7061  11.7616  11.7617  11.7834  11.7837
    11.9306  11.9309  11.9886  11.9889  12.0270  12.0272  12.0551  12.0553
    12.1562  12.1565  12.2340  12.2342  12.2778  12.2779  12.3043  12.3044
    12.4380  12.4380  12.6111  12.6111  13.0028  13.0033  13.1453  13.1458
    13.6720  13.6723  14.2179  14.2180  14.2670  14.2670  14.5460  14.5466
    14.7462  14.7468  15.0370  15.0372  15.6695  15.6698  16.3216  16.3219
    16.9333  16.9339  17.0136  17.0137  17.0464  17.0471  17.1974  17.1976
    17.3627  17.3627  17.7475  17.7480  17.8515  17.8522  18.0709  18.0721
    18.1567  18.1576  18.2366  18.2369  18.6293  18.6295  18.7625  18.7628
    18.8594  18.8603

          k = 0.3750-0.5000 0.0242 ( 13948 PWs)   bands (ev):

   -66.7592 -66.7574 -66.6300 -66.6299 -62.1766 -62.1754 -62.0697 -62.0692
   -35.5317 -35.5310 -35.4871 -35.4854 -35.4848 -35.4830 -35.4059 -35.4052
   -35.3587 -35.3584 -35.3569 -35.3567 -31.0097 -31.0083 -31.0073 -31.0059
   -31.0021 -31.0011 -30.9020 -30.9015 -30.9008 -30.9004 -30.8996 -30.8991
     8.1026   8.1034   8.2623   8.2632   8.5206   8.5208   8.6763   8.6765
     8.9062   8.9066   9.0714   9.0716   9.1391   9.1393   9.1744   9.1746
     9.2295   9.2298   9.2668   9.2670   9.3505   9.3505   9.4046   9.4047
     9.4441   9.4441   9.5383   9.5385   9.6673   9.6674   9.8026   9.8027
     9.9069   9.9069   9.9638   9.9638  10.0285  10.0285  10.0986  10.0989
    10.1538  10.1539  10.2216  10.2221  10.3059  10.3060  10.4314  10.4320
    10.4964  10.4967  10.6408  10.6408  10.6883  10.6883  10.7909  10.7909
    10.9808  10.9810  11.0235  11.0236  11.1335  11.1337  11.2189  11.2190
    11.3117  11.3118  11.3549  11.3552  11.4563  11.4568  11.6058  11.6061
    11.6243  11.6245  11.7031  11.7033  11.7626  11.7628  11.7832  11.7836
    11.9314  11.9316  11.9885  11.9888  12.0265  12.0267  12.0548  12.0550
    12.1583  12.1586  12.2305  12.2306  12.2571  12.2573  12.3338  12.3338
    12.4381  12.4382  12.5991  12.5991  13.0196  13.0202  13.1318  13.1323
    13.6750  13.6754  14.1898  14.1899  14.3063  14.3065  14.5224  14.5229
    14.7604  14.7611  15.0333  15.0334  15.6696  15.6700  16.3215  16.3217
    16.9399  16.9405  17.0153  17.0154  17.0462  17.0468  17.1652  17.1654
    17.4078  17.4078  17.6963  17.6969  17.8867  17.8876  18.0626  18.0633
    18.1348  18.1362  18.2671  18.2674  18.6438  18.6439  18.7550  18.7553
    18.8586  18.8598

          k = 0.3750-0.5000-0.0484 ( 13940 PWs)   bands (ev):

   -66.7592 -66.7574 -66.6300 -66.6299 -62.1766 -62.1754 -62.0697 -62.0692
   -35.5317 -35.5310 -35.4871 -35.4854 -35.4848 -35.4830 -35.4059 -35.4052
   -35.3587 -35.3584 -35.3569 -35.3567 -31.0097 -31.0083 -31.0073 -31.0059
   -31.0021 -31.0011 -30.9020 -30.9015 -30.9008 -30.9004 -30.8996 -30.8991
     8.1028   8.1035   8.2614   8.2622   8.5283   8.5285   8.6598   8.6600
     8.9422   8.9427   9.0367   9.0369   9.1316   9.1319   9.1723   9.1725
     9.2352   9.2355   9.2875   9.2877   9.3431   9.3431   9.4068   9.4068
     9.4544   9.4545   9.5112   9.5114   9.7231   9.7233   9.7446   9.7446
     9.9151   9.9151   9.9663   9.9665  10.0332  10.0333  10.1166  10.1167
    10.1587  10.1587  10.2080  10.2086  10.2762  10.2763  10.4344  10.4352
    10.5280  10.5281  10.6516  10.6518  10.6902  10.6902  10.7447  10.7448
    10.9909  10.9913  11.0450  11.0454  11.1487  11.1490  11.1806  11.1807
    11.3229  11.3232  11.3570  11.3571  11.4512  11.4517  11.6117  11.6121
    11.6225  11.6226  11.7003  11.7005  11.7636  11.7637  11.7830  11.7834
    11.9321  11.9324  11.9884  11.9887  12.0260  12.0262  12.0545  12.0547
    12.1607  12.1610  12.2245  12.2245  12.2492  12.2495  12.3534  12.3534
    12.4383  12.4384  12.5865  12.5865  13.0415  13.0421  13.1131  13.1135
    13.6780  13.6784  14.1733  14.1734  14.3378  14.3381  14.4966  14.4969
    14.7733  14.7741  15.0294  15.0295  15.6698  15.6702  16.3213  16.3216
    16.9471  16.9478  17.0179  17.0181  17.0457  17.0464  17.1382  17.1385
    17.4542  17.4543  17.6480  17.6486  17.9130  17.9141  18.0510  18.0510
    18.1227  18.1245  18.2893  18.2897  18.6660  18.6660  18.7398  18.7402
    18.8576  18.8600

          k =-0.5000-0.5000 0.0000 ( 13964 PWs)   bands (ev):

   -66.7592 -66.7574 -66.6300 -66.6299 -62.1765 -62.1752 -62.0695 -62.0691
   -35.5316 -35.5309 -35.4869 -35.4869 -35.4846 -35.4846 -35.4058 -35.4051
   -35.3585 -35.3585 -35.3583 -35.3583 -31.0095 -31.0095 -31.0081 -31.0081
   -31.0020 -31.0010 -30.9018 -30.9018 -30.9013 -30.9013 -30.9007 -30.9003
     8.0156   8.0164   8.1817   8.1826   8.4554   8.4557   8.6500   8.6503
     8.8049   8.8053   9.1096   9.1099   9.1830   9.1833   9.2481   9.2481
     9.2732   9.2732   9.3188   9.3188   9.4101   9.4102   9.4354   9.4354
     9.4391   9.4391   9.6826   9.6826   9.6896   9.6896   9.8523   9.8537
     9.9016   9.9016   9.9384   9.9384  10.0279  10.0279  10.0302  10.0314
    10.0468  10.0468  10.0577  10.0577  10.1850  10.1850  10.5570  10.5570
    10.5670  10.5671  10.6248  10.6248  10.6688  10.6690  11.0877  11.0883
    11.1165  11.1165  11.1610  11.1615  11.2266  11.2266  11.3524  11.3524
    11.4501  11.4523  11.5690  11.5691  11.5702  11.5705  11.6056  11.6056
    11.9304  11.9309  11.9551  11.9555  11.9789  11.9789  11.9828  11.9830
    12.0018  12.0020  12.0281  12.0285  12.0532  12.0535  12.0737  12.0740
    12.0957  12.0961  12.1927  12.1928  12.2318  12.2320  12.2550  12.2551
    12.3882  12.3883  12.6364  12.6364  13.3616  13.3623  13.4120  13.4136
    13.8442  13.8442  14.2139  14.2139  14.3777  14.3777  14.6819  14.6819
    14.7861  14.7861  15.4601  15.4601  16.3775  16.3775  16.6450  16.6460
    16.8184  16.8185  16.8403  16.8406  16.9843  16.9845  17.2229  17.2229
    17.2231  17.2231  17.7604  17.7606  17.9059  17.9059  17.9352  17.9352
    17.9982  17.9984  18.0836  18.0865  18.1911  18.1917  18.2324  18.2324
    18.4101  18.4102

          k =-0.5000-0.5000 0.0242 ( 13960 PWs)   bands (ev):

   -66.7592 -66.7574 -66.6300 -66.6299 -62.1765 -62.1752 -62.0695 -62.0691
   -35.5316 -35.5309 -35.4869 -35.4869 -35.4846 -35.4846 -35.4058 -35.4051
   -35.3585 -35.3585 -35.3583 -35.3583 -31.0095 -31.0095 -31.0081 -31.0081
   -31.0020 -31.0010 -30.9018 -30.9018 -30.9013 -30.9013 -30.9007 -30.9003
     8.0157   8.0165   8.1809   8.1817   8.4627   8.4630   8.6263   8.6265
     8.8441   8.8445   9.0420   9.0423   9.2484   9.2486   9.2499   9.2499
     9.2677   9.2677   9.3304   9.3304   9.3882   9.3884   9.3939   9.3939
     9.4883   9.4883   9.6126   9.6126   9.7667   9.7667   9.8556   9.8570
     9.9015   9.9015   9.9369   9.9369   9.9494   9.9494  10.0288  10.0299
    10.0474  10.0474  10.1148  10.1148  10.2070  10.2070  10.4661  10.4661
    10.5671  10.5672  10.6688  10.6690  10.7282  10.7282  11.0151  11.0151
    11.0878  11.0884  11.1609  11.1614  11.3261  11.3261  11.3524  11.3525
    11.4501  11.4523  11.5615  11.5615  11.5690  11.5691  11.5701  11.5704
    11.9304  11.9309  11.9551  11.9555  11.9828  11.9830  11.9924  11.9924
    12.0018  12.0020  12.0281  12.0285  12.0532  12.0535  12.0737  12.0740
    12.0957  12.0961  12.1940  12.1941  12.2285  12.2286  12.2571  12.2572
    12.3882  12.3882  12.6330  12.6330  13.3616  13.3623  13.4120  13.4136
    13.8567  13.8567  14.1673  14.1673  14.4394  14.4394  14.6384  14.6384
    14.8031  14.8031  15.4600  15.4600  16.3784  16.3784  16.6450  16.6460
    16.8182  16.8184  16.8406  16.8409  16.9840  16.9843  17.1260  17.1260
    17.3678  17.3678  17.7704  17.7706  17.7961  17.7961  17.8811  17.8811
    18.0143  18.0144  18.0836  18.0864  18.1911  18.1917  18.3908  18.3908
    18.4091  18.4092

          k =-0.5000-0.5000-0.0484 ( 13992 PWs)   bands (ev):

   -66.7592 -66.7574 -66.6300 -66.6299 -62.1765 -62.1752 -62.0695 -62.0691
   -35.5316 -35.5309 -35.4869 -35.4869 -35.4846 -35.4846 -35.4058 -35.4051
   -35.3585 -35.3585 -35.3583 -35.3583 -31.0095 -31.0095 -31.0081 -31.0081
   -31.0020 -31.0010 -30.9018 -30.9018 -30.9013 -30.9013 -30.9007 -30.9003
     8.0159   8.0166   8.1801   8.1809   8.4712   8.4715   8.6055   8.6058
     8.8975   8.8979   8.9781   8.9783   9.2531   9.2531   9.2617   9.2617
     9.3212   9.3213   9.3371   9.3374   9.3526   9.3526   9.3626   9.3626
     9.5463   9.5463   9.5472   9.5472   9.8461   9.8461   9.8589   9.8602
     9.8627   9.8627   9.9016   9.9016   9.9391   9.9391  10.0273  10.0285
    10.0474  10.0474  10.1326  10.1326  10.2480  10.2480  10.4001  10.4001
    10.5672  10.5673  10.6688  10.6689  10.8399  10.8399  10.9009  10.9009
    11.0879  11.0884  11.1608  11.1612  11.3525  11.3525  11.4460  11.4460
    11.4501  11.4523  11.4659  11.4659  11.5690  11.5691  11.5701  11.5704
    11.9304  11.9309  11.9551  11.9555  11.9828  11.9830  12.0018  12.0020
    12.0047  12.0047  12.0281  12.0285  12.0532  12.0535  12.0737  12.0740
    12.0957  12.0961  12.1954  12.1955  12.2254  12.2255  12.2589  12.2590
    12.3881  12.3882  12.6295  12.6295  13.3616  13.3623  13.4120  13.4136
    13.8710  13.8710  14.1303  14.1303  14.5207  14.5207  14.5688  14.5688
    14.8151  14.8151  15.4599  15.4599  16.3794  16.3794  16.6450  16.6460
    16.8181  16.8183  16.8409  16.8412  16.9838  16.9840  17.0918  17.0918
    17.4961  17.4961  17.6467  17.6467  17.7846  17.7848  17.8560  17.8560
    18.0265  18.0266  18.0836  18.0865  18.1911  18.1917  18.4081  18.4082
    18.5813  18.5813

     the Fermi energy is    15.2344 ev

!    total energy              =  -14694.00877906 Ry
     Harris-Foulkes estimate   =  -14694.00877553 Ry
     estimated scf accuracy    <       0.00000070 Ry

     total all-electron energy =   -626921.604501 Ry

     The total energy is the sum of the following terms:

     one-electron contribution =    -714.66462418 Ry
     hartree contribution      =     656.67872997 Ry
     xc contribution           =    -737.86230312 Ry
     ewald contribution        =   -2196.78933708 Ry
     Hubbard energy            =       0.45775800 Ry
     one-center paw contrib.   =  -11701.82900264 Ry

     total magnetization       =     0.00 Bohr mag/cell
     absolute magnetization    =    37.06 Bohr mag/cell

     convergence has been achieved in  27 iterations

     Writing output data file mnau2.save/
 
     init_run     :     83.86s CPU     85.71s WALL (       1 calls)
     electrons    :   4689.39s CPU   4781.98s WALL (       1 calls)

     Called by init_run:
     wfcinit      :     80.08s CPU     81.59s WALL (       1 calls)
     potinit      :      1.69s CPU      1.91s WALL (       1 calls)
     hinit0       :      1.19s CPU      1.27s WALL (       1 calls)

     Called by electrons:
     c_bands      :   4112.83s CPU   4187.14s WALL (      27 calls)
     sum_band     :    535.24s CPU    551.01s WALL (      27 calls)
     v_of_rho     :      3.39s CPU      3.43s WALL (      28 calls)
     newd         :     11.10s CPU     11.31s WALL (      28 calls)
     PAW_pot      :     26.93s CPU     27.19s WALL (      28 calls)
     mix_rho      :      0.85s CPU      0.95s WALL (      27 calls)

     Called by c_bands:
     init_us_2    :     15.35s CPU     15.45s WALL (    5040 calls)
     cegterg      :   4001.20s CPU   4073.19s WALL (    2431 calls)

     Called by sum_band:
     sum_band:bec :      5.72s CPU      5.78s WALL (    2430 calls)
     addusdens    :     20.09s CPU     20.27s WALL (      27 calls)

     Called by *egterg:
     h_psi        :   1930.35s CPU   1974.93s WALL (    7843 calls)
     s_psi        :    252.23s CPU    252.48s WALL (    7933 calls)
     g_psi        :      2.49s CPU      2.52s WALL (    5322 calls)
     cdiaghg      :   1110.61s CPU   1134.05s WALL (    7753 calls)

     Called by h_psi:
     h_psi:pot    :   1786.22s CPU   1829.78s WALL (    7843 calls)
     h_psi:calbec :    326.74s CPU    340.47s WALL (    7843 calls)
     vloc_psi     :   1210.03s CPU   1239.54s WALL (    7843 calls)
     add_vuspsi   :    249.28s CPU    249.64s WALL (    7843 calls)
     vhpsi        :    140.44s CPU    141.40s WALL (    7843 calls)

     General routines
     calbec       :    595.08s CPU    616.53s WALL (   20636 calls)
     fft          :      2.66s CPU      2.75s WALL (     696 calls)
     ffts         :      0.20s CPU      0.21s WALL (     110 calls)
     fftw         :   1455.77s CPU   1491.38s WALL ( 2262298 calls)
     interpolate  :      0.34s CPU      0.36s WALL (      56 calls)
     davcio       :      0.00s CPU      2.02s WALL (      90 calls)
 
     Parallel routines
     fft_scatt_xy :     51.07s CPU     51.94s WALL ( 2263104 calls)
     fft_scatt_yz :   1163.48s CPU   1193.82s WALL ( 2263104 calls)

     Hubbard U routines
     new_ns       :     22.79s CPU     24.64s WALL (      27 calls)
     vhpsi        :    140.44s CPU    141.40s WALL (    7843 calls)
 
     PWSCF        :     1h19m CPU       19h 1m WALL

      22h
 
   This run was terminated on:  10:39: 1   8Apr2019            

=------------------------------------------------------------------------------=
   JOB DONE.
=------------------------------------------------------------------------------=
