
     Program PWSCF v.6.3MaX starts on 16May2019 at 20: 3: 6 

     This program is part of the open-source Quantum ESPRESSO suite
     for quantum simulation of materials; please cite
         "P. Giannozzi et al., J. Phys.:Condens. Matter 21 395502 (2009);
         "P. Giannozzi et al., J. Phys.:Condens. Matter 29 465901 (2017);
          URL http://www.quantum-espresso.org", 
     in publications or presentations arising from this work. More details at
     http://www.quantum-espresso.org/quote

     Parallel version (MPI), running on    32 processors

     MPI processes distributed on     2 nodes
     R & G space division:  proc/nbgrp/npool/nimage =      32
     Waiting for input...
     Reading input from standard input

     Current dimensions of program PWSCF are:
     Max number of different atomic species (ntypx) = 10
     Max number of k-points (npk) =  40000
     Max angular momentum in pseudopotentials (lmaxx) =  3
               file Mn.pbe-spn-kjpaw_psl.0.3.1.UPF: wavefunction(s)  3P 3D renormalized
               file Mn.pbe-spn-kjpaw_psl.0.3.1.UPF: wavefunction(s)  3P 3D renormalized
               file Au.pbe-dn-kjpaw_psl.0.1.UPF: wavefunction(s)  6S 6P 5D renormalized

     Subspace diagonalization in iterative solution of the eigenvalue problem:
     one sub-group per band group will be used
     scalapack distributed-memory algorithm (size of sub-group:  4*  4 procs)

 
     Parallelization info
     --------------------
     sticks:   dense  smooth     PW     G-vecs:    dense   smooth      PW
     Min          40      18      5                11328     3410     561
     Max          41      19      6                11369     3447     602
     Sum        1305     577    177               362981   109451   18573
 


     bravais-lattice index     =            0
     lattice parameter (alat)  =       6.3684  a.u.
     unit-cell volume          =    2685.0513 (a.u.)^3
     number of atoms/cell      =           24
     number of atomic types    =            3
     number of electrons       =       296.00
     number of Kohn-Sham states=          178
     kinetic-energy cutoff     =      45.0000  Ry
     charge density cutoff     =     400.0000  Ry
     convergence threshold     =      1.0E-06
     mixing beta               =       0.1000
     number of iterations used =            8  plain     mixing
     Exchange-correlation      = SLA PW PBX PBC ( 1  4  3  4 0 0)

     celldm(1)=   6.368377  celldm(2)=   0.000000  celldm(3)=   0.000000
     celldm(4)=   0.000000  celldm(5)=   0.000000  celldm(6)=   0.000000

     crystal axes: (cart. coord. in units of alat)
               a(1) = (   1.000000   0.000000   0.000000 )  
               a(2) = (   0.000000   1.000000   0.000000 )  
               a(3) = (   0.000000   0.000000  10.396000 )  

     reciprocal axes: (cart. coord. in units 2 pi/alat)
               b(1) = (  1.000000  0.000000  0.000000 )  
               b(2) = (  0.000000  1.000000  0.000000 )  
               b(3) = (  0.000000  0.000000  0.096191 )  


     PseudoPot. # 1 for Mn read from file:
     ./pseudo/Mn.pbe-spn-kjpaw_psl.0.3.1.UPF
     MD5 check sum: 7b43a3fb0e93e198b8dd8488d8cf503e
     Pseudo is Projector augmented-wave + core cor, Zval = 15.0
     Generated using "atomic" code by A. Dal Corso v.5.0.99 svn rev. 10869
     Shape of augmentation charge: PSQ
     Using radial grid of 1187 points,  6 beta functions with: 
                l(1) =   0
                l(2) =   0
                l(3) =   1
                l(4) =   1
                l(5) =   2
                l(6) =   2
     Q(r) pseudized with 0 coefficients 


     PseudoPot. # 2 for Mn read from file:
     ./pseudo/Mn.pbe-spn-kjpaw_psl.0.3.1.UPF
     MD5 check sum: 7b43a3fb0e93e198b8dd8488d8cf503e
     Pseudo is Projector augmented-wave + core cor, Zval = 15.0
     Generated using "atomic" code by A. Dal Corso v.5.0.99 svn rev. 10869
     Shape of augmentation charge: PSQ
     Using radial grid of 1187 points,  6 beta functions with: 
                l(1) =   0
                l(2) =   0
                l(3) =   1
                l(4) =   1
                l(5) =   2
                l(6) =   2
     Q(r) pseudized with 0 coefficients 


     PseudoPot. # 3 for Au read from file:
     ./pseudo/Au.pbe-dn-kjpaw_psl.0.1.UPF
     MD5 check sum: be11e2e8e535ebe2b3ccfb4f88f554cb
     Pseudo is Projector augmented-wave + core cor, Zval = 11.0
     Generated using "atomic" code by A. Dal Corso v.5.0.2 svn rev. 9415
     Shape of augmentation charge: PSQ
     Using radial grid of 1279 points,  6 beta functions with: 
                l(1) =   0
                l(2) =   0
                l(3) =   1
                l(4) =   1
                l(5) =   2
                l(6) =   2
     Q(r) pseudized with 0 coefficients 


     atomic species   valence    mass     pseudopotential
        Mn1           15.00    54.93800     Mn( 1.00)
        Mn2           15.00    54.93800     Mn( 1.00)
        Au            11.00   196.96600     Au( 1.00)

     Starting magnetic structure 
     atomic species   magnetization
        Mn1          0.800
        Mn2         -0.800
        Au           0.000


     Full LDA+U calculation (l_max = 2) with parameters (eV):
     U(  1) =   3.1200   J(  1) =   0.7000   B(  1) =   0.0803
     U(  2) =   3.1200   J(  2) =   0.7000   B(  2) =   0.0803



      8 Sym. Ops. (no inversion) found



   Cartesian axes

     site n.     atom                  positions (alat units)
         1           Mn1 tau(   1) = (   0.0000000   0.0000000   0.0000000  )
         2           Mn1 tau(   2) = (   0.0000000   0.0000000   2.5990000  )
         3           Mn1 tau(   3) = (   0.0000000   0.0000000   5.1980000  )
         4           Mn2 tau(   4) = (   0.0000000   0.0000000   7.7970000  )
         5           Mn1 tau(   5) = (   0.5000000   0.5000000   1.2995000  )
         6           Mn2 tau(   6) = (   0.5000000   0.5000000   3.8985000  )
         7           Mn1 tau(   7) = (   0.5000000   0.5000000   6.4975000  )
         8           Mn2 tau(   8) = (   0.5000000   0.5000000   9.0965000  )
         9           Au  tau(   9) = (   0.5000000   0.5000000   2.1831600  )
        10           Au  tau(  10) = (   0.5000000   0.5000000   4.7821600  )
        11           Au  tau(  11) = (   0.5000000   0.5000000   7.3811600  )
        12           Au  tau(  12) = (   0.5000000   0.5000000   9.9801600  )
        13           Au  tau(  13) = (   0.5000000   0.5000000   0.4158400  )
        14           Au  tau(  14) = (   0.5000000   0.5000000   3.0148400  )
        15           Au  tau(  15) = (   0.5000000   0.5000000   5.6138400  )
        16           Au  tau(  16) = (   0.5000000   0.5000000   8.2128400  )
        17           Au  tau(  17) = (   0.0000000   0.0000000   0.8836600  )
        18           Au  tau(  18) = (   0.0000000   0.0000000   3.4826600  )
        19           Au  tau(  19) = (   0.0000000   0.0000000   6.0816600  )
        20           Au  tau(  20) = (   0.0000000   0.0000000   8.6806600  )
        21           Au  tau(  21) = (   0.0000000   0.0000000   1.7153400  )
        22           Au  tau(  22) = (   0.0000000   0.0000000   4.3143400  )
        23           Au  tau(  23) = (   0.0000000   0.0000000   6.9133400  )
        24           Au  tau(  24) = (   0.0000000   0.0000000   9.5123400  )

     number of k points=   135 (tetrahedron method)

     Number of k-points >= 100: set verbosity='high' to print them.

     Dense  grid:   362981 G-vectors     FFT dimensions: (  45,  45, 432)

     Smooth grid:   109451 G-vectors     FFT dimensions: (  27,  27, 288)

     Estimated max dynamical RAM per process >     439.54 MB

     Estimated total dynamical RAM >      13.74 GB
     Generating pointlists ...
     new r_m :   0.3384 (alat units)  2.1549 (a.u.) for type    1
     new r_m :   0.3384 (alat units)  2.1549 (a.u.) for type    2
     new r_m :   0.3384 (alat units)  2.1549 (a.u.) for type    3

     Check: negative/imaginary core charge=   -0.000006    0.000000

     Initial potential from superposition of free atoms

     starting charge  295.99426, renormalised to  296.00000
     Number of +U iterations with fixed ns =  0
     Starting occupations:
 --- enter write_ns ---
 LDA+U parameters:
U(  1) =   3.1200   J(  1) =   0.7000   B(  1) =   0.0803
U(  2) =   3.1200   J(  2) =   0.7000   B(  2) =   0.0803
atom    1   Tr[ns(na)] (up, down, total) =   5.00000  0.00000  5.00000
   spin  1
    eigenvalues: 
  1.000  1.000  1.000  1.000  1.000
    eigenvectors:
  1.000  0.000  0.000  0.000  0.000
  0.000  1.000  0.000  0.000  0.000
  0.000  0.000  1.000  0.000  0.000
  0.000  0.000  0.000  1.000  0.000
  0.000  0.000  0.000  0.000  1.000
    occupations:
  1.000  0.000  0.000  0.000  0.000
  0.000  1.000  0.000  0.000  0.000
  0.000  0.000  1.000  0.000  0.000
  0.000  0.000  0.000  1.000  0.000
  0.000  0.000  0.000  0.000  1.000
   spin  2
    eigenvalues: 
  0.000  0.000  0.000  0.000  0.000
    eigenvectors:
  1.000  0.000  0.000  0.000  0.000
  0.000  1.000  0.000  0.000  0.000
  0.000  0.000  1.000  0.000  0.000
  0.000  0.000  0.000  1.000  0.000
  0.000  0.000  0.000  0.000  1.000
    occupations:
  0.000  0.000  0.000  0.000  0.000
  0.000  0.000  0.000  0.000  0.000
  0.000  0.000  0.000  0.000  0.000
  0.000  0.000  0.000  0.000  0.000
  0.000  0.000  0.000  0.000  0.000
atomic mag. moment =     5.000000
atom    2   Tr[ns(na)] (up, down, total) =   5.00000  0.00000  5.00000
   spin  1
    eigenvalues: 
  1.000  1.000  1.000  1.000  1.000
    eigenvectors:
  1.000  0.000  0.000  0.000  0.000
  0.000  1.000  0.000  0.000  0.000
  0.000  0.000  1.000  0.000  0.000
  0.000  0.000  0.000  1.000  0.000
  0.000  0.000  0.000  0.000  1.000
    occupations:
  1.000  0.000  0.000  0.000  0.000
  0.000  1.000  0.000  0.000  0.000
  0.000  0.000  1.000  0.000  0.000
  0.000  0.000  0.000  1.000  0.000
  0.000  0.000  0.000  0.000  1.000
   spin  2
    eigenvalues: 
  0.000  0.000  0.000  0.000  0.000
    eigenvectors:
  1.000  0.000  0.000  0.000  0.000
  0.000  1.000  0.000  0.000  0.000
  0.000  0.000  1.000  0.000  0.000
  0.000  0.000  0.000  1.000  0.000
  0.000  0.000  0.000  0.000  1.000
    occupations:
  0.000  0.000  0.000  0.000  0.000
  0.000  0.000  0.000  0.000  0.000
  0.000  0.000  0.000  0.000  0.000
  0.000  0.000  0.000  0.000  0.000
  0.000  0.000  0.000  0.000  0.000
atomic mag. moment =     5.000000
atom    3   Tr[ns(na)] (up, down, total) =   5.00000  0.00000  5.00000
   spin  1
    eigenvalues: 
  1.000  1.000  1.000  1.000  1.000
    eigenvectors:
  1.000  0.000  0.000  0.000  0.000
  0.000  1.000  0.000  0.000  0.000
  0.000  0.000  1.000  0.000  0.000
  0.000  0.000  0.000  1.000  0.000
  0.000  0.000  0.000  0.000  1.000
    occupations:
  1.000  0.000  0.000  0.000  0.000
  0.000  1.000  0.000  0.000  0.000
  0.000  0.000  1.000  0.000  0.000
  0.000  0.000  0.000  1.000  0.000
  0.000  0.000  0.000  0.000  1.000
   spin  2
    eigenvalues: 
  0.000  0.000  0.000  0.000  0.000
    eigenvectors:
  1.000  0.000  0.000  0.000  0.000
  0.000  1.000  0.000  0.000  0.000
  0.000  0.000  1.000  0.000  0.000
  0.000  0.000  0.000  1.000  0.000
  0.000  0.000  0.000  0.000  1.000
    occupations:
  0.000  0.000  0.000  0.000  0.000
  0.000  0.000  0.000  0.000  0.000
  0.000  0.000  0.000  0.000  0.000
  0.000  0.000  0.000  0.000  0.000
  0.000  0.000  0.000  0.000  0.000
atomic mag. moment =     5.000000
atom    4   Tr[ns(na)] (up, down, total) =   0.00000  5.00000  5.00000
   spin  1
    eigenvalues: 
  0.000  0.000  0.000  0.000  0.000
    eigenvectors:
  1.000  0.000  0.000  0.000  0.000
  0.000  1.000  0.000  0.000  0.000
  0.000  0.000  1.000  0.000  0.000
  0.000  0.000  0.000  1.000  0.000
  0.000  0.000  0.000  0.000  1.000
    occupations:
  0.000  0.000  0.000  0.000  0.000
  0.000  0.000  0.000  0.000  0.000
  0.000  0.000  0.000  0.000  0.000
  0.000  0.000  0.000  0.000  0.000
  0.000  0.000  0.000  0.000  0.000
   spin  2
    eigenvalues: 
  1.000  1.000  1.000  1.000  1.000
    eigenvectors:
  1.000  0.000  0.000  0.000  0.000
  0.000  1.000  0.000  0.000  0.000
  0.000  0.000  1.000  0.000  0.000
  0.000  0.000  0.000  1.000  0.000
  0.000  0.000  0.000  0.000  1.000
    occupations:
  1.000  0.000  0.000  0.000  0.000
  0.000  1.000  0.000  0.000  0.000
  0.000  0.000  1.000  0.000  0.000
  0.000  0.000  0.000  1.000  0.000
  0.000  0.000  0.000  0.000  1.000
atomic mag. moment =    -5.000000
atom    5   Tr[ns(na)] (up, down, total) =   5.00000  0.00000  5.00000
   spin  1
    eigenvalues: 
  1.000  1.000  1.000  1.000  1.000
    eigenvectors:
  1.000  0.000  0.000  0.000  0.000
  0.000  1.000  0.000  0.000  0.000
  0.000  0.000  1.000  0.000  0.000
  0.000  0.000  0.000  1.000  0.000
  0.000  0.000  0.000  0.000  1.000
    occupations:
  1.000  0.000  0.000  0.000  0.000
  0.000  1.000  0.000  0.000  0.000
  0.000  0.000  1.000  0.000  0.000
  0.000  0.000  0.000  1.000  0.000
  0.000  0.000  0.000  0.000  1.000
   spin  2
    eigenvalues: 
  0.000  0.000  0.000  0.000  0.000
    eigenvectors:
  1.000  0.000  0.000  0.000  0.000
  0.000  1.000  0.000  0.000  0.000
  0.000  0.000  1.000  0.000  0.000
  0.000  0.000  0.000  1.000  0.000
  0.000  0.000  0.000  0.000  1.000
    occupations:
  0.000  0.000  0.000  0.000  0.000
  0.000  0.000  0.000  0.000  0.000
  0.000  0.000  0.000  0.000  0.000
  0.000  0.000  0.000  0.000  0.000
  0.000  0.000  0.000  0.000  0.000
atomic mag. moment =     5.000000
atom    6   Tr[ns(na)] (up, down, total) =   0.00000  5.00000  5.00000
   spin  1
    eigenvalues: 
  0.000  0.000  0.000  0.000  0.000
    eigenvectors:
  1.000  0.000  0.000  0.000  0.000
  0.000  1.000  0.000  0.000  0.000
  0.000  0.000  1.000  0.000  0.000
  0.000  0.000  0.000  1.000  0.000
  0.000  0.000  0.000  0.000  1.000
    occupations:
  0.000  0.000  0.000  0.000  0.000
  0.000  0.000  0.000  0.000  0.000
  0.000  0.000  0.000  0.000  0.000
  0.000  0.000  0.000  0.000  0.000
  0.000  0.000  0.000  0.000  0.000
   spin  2
    eigenvalues: 
  1.000  1.000  1.000  1.000  1.000
    eigenvectors:
  1.000  0.000  0.000  0.000  0.000
  0.000  1.000  0.000  0.000  0.000
  0.000  0.000  1.000  0.000  0.000
  0.000  0.000  0.000  1.000  0.000
  0.000  0.000  0.000  0.000  1.000
    occupations:
  1.000  0.000  0.000  0.000  0.000
  0.000  1.000  0.000  0.000  0.000
  0.000  0.000  1.000  0.000  0.000
  0.000  0.000  0.000  1.000  0.000
  0.000  0.000  0.000  0.000  1.000
atomic mag. moment =    -5.000000
atom    7   Tr[ns(na)] (up, down, total) =   5.00000  0.00000  5.00000
   spin  1
    eigenvalues: 
  1.000  1.000  1.000  1.000  1.000
    eigenvectors:
  1.000  0.000  0.000  0.000  0.000
  0.000  1.000  0.000  0.000  0.000
  0.000  0.000  1.000  0.000  0.000
  0.000  0.000  0.000  1.000  0.000
  0.000  0.000  0.000  0.000  1.000
    occupations:
  1.000  0.000  0.000  0.000  0.000
  0.000  1.000  0.000  0.000  0.000
  0.000  0.000  1.000  0.000  0.000
  0.000  0.000  0.000  1.000  0.000
  0.000  0.000  0.000  0.000  1.000
   spin  2
    eigenvalues: 
  0.000  0.000  0.000  0.000  0.000
    eigenvectors:
  1.000  0.000  0.000  0.000  0.000
  0.000  1.000  0.000  0.000  0.000
  0.000  0.000  1.000  0.000  0.000
  0.000  0.000  0.000  1.000  0.000
  0.000  0.000  0.000  0.000  1.000
    occupations:
  0.000  0.000  0.000  0.000  0.000
  0.000  0.000  0.000  0.000  0.000
  0.000  0.000  0.000  0.000  0.000
  0.000  0.000  0.000  0.000  0.000
  0.000  0.000  0.000  0.000  0.000
atomic mag. moment =     5.000000
atom    8   Tr[ns(na)] (up, down, total) =   0.00000  5.00000  5.00000
   spin  1
    eigenvalues: 
  0.000  0.000  0.000  0.000  0.000
    eigenvectors:
  1.000  0.000  0.000  0.000  0.000
  0.000  1.000  0.000  0.000  0.000
  0.000  0.000  1.000  0.000  0.000
  0.000  0.000  0.000  1.000  0.000
  0.000  0.000  0.000  0.000  1.000
    occupations:
  0.000  0.000  0.000  0.000  0.000
  0.000  0.000  0.000  0.000  0.000
  0.000  0.000  0.000  0.000  0.000
  0.000  0.000  0.000  0.000  0.000
  0.000  0.000  0.000  0.000  0.000
   spin  2
    eigenvalues: 
  1.000  1.000  1.000  1.000  1.000
    eigenvectors:
  1.000  0.000  0.000  0.000  0.000
  0.000  1.000  0.000  0.000  0.000
  0.000  0.000  1.000  0.000  0.000
  0.000  0.000  0.000  1.000  0.000
  0.000  0.000  0.000  0.000  1.000
    occupations:
  1.000  0.000  0.000  0.000  0.000
  0.000  1.000  0.000  0.000  0.000
  0.000  0.000  1.000  0.000  0.000
  0.000  0.000  0.000  1.000  0.000
  0.000  0.000  0.000  0.000  1.000
atomic mag. moment =    -5.000000
N of occupied +U levels =   40.000000
 --- exit write_ns ---
 Atomic wfc used for LDA+U Projector are NOT orthogonalized
     Starting wfcs are  224 randomized atomic wfcs
     Checking if some PAW data can be deallocated... 

     total cpu time spent up to now is      229.6 secs

     Self-consistent Calculation

     iteration #  1     ecut=    45.00 Ry     beta= 0.10
     Davidson diagonalization with overlap
     ethr =  1.00E-02,  avg # of iterations =  3.9
 --- enter write_ns ---
 LDA+U parameters:
U(  1) =   3.1200   J(  1) =   0.7000   B(  1) =   0.0803
U(  2) =   3.1200   J(  2) =   0.7000   B(  2) =   0.0803
atom    1   Tr[ns(na)] (up, down, total) =   5.01734  0.42154  5.43888
   spin  1
    eigenvalues: 
  1.003  1.003  1.003  1.004  1.004
    eigenvectors:
  0.000  0.000  0.000  1.000  0.000
  0.000  0.355  0.645  0.000  0.000
  0.000  0.645  0.355  0.000  0.000
  0.000  0.000  0.000  0.000  1.000
  1.000  0.000  0.000  0.000  0.000
    occupations:
  1.004 -0.000 -0.000  0.000  0.000
 -0.000  1.003 -0.000  0.000  0.000
 -0.000 -0.000  1.003  0.000  0.000
  0.000  0.000  0.000  1.004 -0.000
  0.000  0.000  0.000 -0.000  1.003
   spin  2
    eigenvalues: 
  0.054  0.074  0.084  0.084  0.125
    eigenvectors:
  0.000  1.000  0.000  0.000  0.000
  0.000  0.000  0.467  0.533  0.000
  0.000  0.000  0.533  0.467  0.000
  1.000  0.000  0.000  0.000  0.000
  0.000  0.000  0.000  0.000  1.000
    occupations:
  0.074 -0.000 -0.000  0.000  0.000
 -0.000  0.084 -0.000  0.000  0.000
 -0.000 -0.000  0.084  0.000  0.000
  0.000  0.000  0.000  0.054 -0.000
  0.000  0.000  0.000 -0.000  0.125
atomic mag. moment =     4.595803
atom    2   Tr[ns(na)] (up, down, total) =   5.01738  0.42229  5.43967
   spin  1
    eigenvalues: 
  1.003  1.003  1.003  1.004  1.004
    eigenvectors:
  0.000  0.000  0.000  1.000  0.000
  0.000  0.296  0.704  0.000  0.000
  0.000  0.704  0.296  0.000  0.000
  0.000  0.000  0.000  0.000  1.000
  1.000  0.000  0.000  0.000  0.000
    occupations:
  1.004 -0.000 -0.000  0.000  0.000
 -0.000  1.003 -0.000  0.000  0.000
 -0.000 -0.000  1.003  0.000  0.000
  0.000  0.000  0.000  1.004 -0.000
  0.000  0.000  0.000 -0.000  1.003
   spin  2
    eigenvalues: 
  0.055  0.074  0.084  0.084  0.126
    eigenvectors:
  0.000  1.000  0.000  0.000  0.000
  0.000  0.000  0.365  0.635  0.000
  0.000  0.000  0.635  0.365  0.000
  1.000  0.000  0.000  0.000  0.000
  0.000  0.000  0.000  0.000  1.000
    occupations:
  0.074 -0.000 -0.000  0.000  0.000
 -0.000  0.084 -0.000  0.000  0.000
 -0.000 -0.000  0.084  0.000  0.000
  0.000  0.000  0.000  0.055 -0.000
  0.000  0.000  0.000 -0.000  0.126
atomic mag. moment =     4.595091
atom    3   Tr[ns(na)] (up, down, total) =   5.01739  0.42696  5.44435
   spin  1
    eigenvalues: 
  1.003  1.003  1.003  1.004  1.004
    eigenvectors:
  0.000  0.000  0.000  1.000  0.000
  0.000  0.418  0.582  0.000  0.000
  0.000  0.582  0.418  0.000  0.000
  0.000  0.000  0.000  0.000  1.000
  1.000  0.000  0.000  0.000  0.000
    occupations:
  1.004 -0.000 -0.000  0.000  0.000
 -0.000  1.003 -0.000  0.000  0.000
 -0.000 -0.000  1.003  0.000  0.000
  0.000  0.000  0.000  1.004 -0.000
  0.000  0.000  0.000 -0.000  1.003
   spin  2
    eigenvalues: 
  0.055  0.075  0.085  0.085  0.126
    eigenvectors:
  0.000  1.000  0.000  0.000  0.000
  0.000  0.000  0.328  0.672  0.000
  0.000  0.000  0.672  0.328  0.000
  1.000  0.000  0.000  0.000  0.000
  0.000  0.000  0.000  0.000  1.000
    occupations:
  0.075 -0.000 -0.000  0.000  0.000
 -0.000  0.085 -0.000  0.000  0.000
 -0.000 -0.000  0.085  0.000  0.000
  0.000  0.000  0.000  0.055 -0.000
  0.000  0.000  0.000 -0.000  0.126
atomic mag. moment =     4.590430
atom    4   Tr[ns(na)] (up, down, total) =   0.42520  5.01736  5.44256
   spin  1
    eigenvalues: 
  0.055  0.076  0.085  0.085  0.124
    eigenvectors:
  0.000  1.000  0.000  0.000  0.000
  0.000  0.000  0.403  0.597  0.000
  0.000  0.000  0.597  0.403  0.000
  1.000  0.000  0.000  0.000  0.000
  0.000  0.000  0.000  0.000  1.000
    occupations:
  0.076 -0.000 -0.000  0.000  0.000
 -0.000  0.085 -0.000  0.000  0.000
 -0.000 -0.000  0.085  0.000  0.000
  0.000  0.000  0.000  0.055 -0.000
  0.000  0.000  0.000 -0.000  0.124
   spin  2
    eigenvalues: 
  1.003  1.003  1.003  1.004  1.004
    eigenvectors:
  0.000  0.000  0.000  1.000  0.000
  0.000  0.263  0.737  0.000  0.000
  0.000  0.737  0.263  0.000  0.000
  0.000  0.000  0.000  0.000  1.000
  1.000  0.000  0.000  0.000  0.000
    occupations:
  1.004 -0.000 -0.000  0.000  0.000
 -0.000  1.003 -0.000  0.000  0.000
 -0.000 -0.000  1.003  0.000  0.000
  0.000  0.000  0.000  1.004 -0.000
  0.000  0.000  0.000 -0.000  1.003
atomic mag. moment =    -4.592158
atom    5   Tr[ns(na)] (up, down, total) =   5.01753  0.41512  5.43265
   spin  1
    eigenvalues: 
  1.003  1.003  1.003  1.004  1.004
    eigenvectors:
  0.000  0.000  0.000  1.000  0.000
  0.000  0.364  0.636  0.000  0.000
  0.000  0.636  0.364  0.000  0.000
  0.000  0.000  0.000  0.000  1.000
  1.000  0.000  0.000  0.000  0.000
    occupations:
  1.004 -0.000 -0.000  0.000  0.000
 -0.000  1.003 -0.000  0.000  0.000
 -0.000 -0.000  1.003  0.000  0.000
  0.000  0.000  0.000  1.004 -0.000
  0.000  0.000  0.000 -0.000  1.003
   spin  2
    eigenvalues: 
  0.055  0.076  0.085  0.085  0.116
    eigenvectors:
  0.000  1.000  0.000  0.000  0.000
  0.000  0.000  0.285  0.715  0.000
  0.000  0.000  0.715  0.285  0.000
  1.000  0.000  0.000  0.000  0.000
  0.000  0.000  0.000  0.000  1.000
    occupations:
  0.076 -0.000 -0.000  0.000  0.000
 -0.000  0.085 -0.000  0.000  0.000
 -0.000 -0.000  0.085  0.000  0.000
  0.000  0.000  0.000  0.055 -0.000
  0.000  0.000  0.000 -0.000  0.116
atomic mag. moment =     4.602407
atom    6   Tr[ns(na)] (up, down, total) =   0.42592  5.01746  5.44338
   spin  1
    eigenvalues: 
  0.055  0.076  0.083  0.083  0.128
    eigenvectors:
  0.000  1.000  0.000  0.000  0.000
  0.000  0.000  0.446  0.554  0.000
  0.000  0.000  0.554  0.446  0.000
  1.000  0.000  0.000  0.000  0.000
  0.000  0.000  0.000  0.000  1.000
    occupations:
  0.076 -0.000 -0.000  0.000  0.000
 -0.000  0.083 -0.000  0.000  0.000
 -0.000 -0.000  0.083  0.000  0.000
  0.000  0.000  0.000  0.055 -0.000
  0.000  0.000  0.000 -0.000  0.128
   spin  2
    eigenvalues: 
  1.003  1.003  1.003  1.004  1.004
    eigenvectors:
  0.000  0.000  0.000  1.000  0.000
  0.000  0.226  0.774  0.000  0.000
  0.000  0.774  0.226  0.000  0.000
  0.000  0.000  0.000  0.000  1.000
  1.000  0.000  0.000  0.000  0.000
    occupations:
  1.004 -0.000 -0.000  0.000  0.000
 -0.000  1.003 -0.000  0.000  0.000
 -0.000 -0.000  1.003  0.000  0.000
  0.000  0.000  0.000  1.004 -0.000
  0.000  0.000  0.000 -0.000  1.003
atomic mag. moment =    -4.591538
atom    7   Tr[ns(na)] (up, down, total) =   5.01744  0.42556  5.44299
   spin  1
    eigenvalues: 
  1.003  1.003  1.003  1.004  1.004
    eigenvectors:
  0.000  0.000  0.000  1.000  0.000
  0.000  0.334  0.666  0.000  0.000
  0.000  0.666  0.334  0.000  0.000
  0.000  0.000  0.000  0.000  1.000
  1.000  0.000  0.000  0.000  0.000
    occupations:
  1.004 -0.000 -0.000  0.000  0.000
 -0.000  1.003 -0.000  0.000  0.000
 -0.000 -0.000  1.003  0.000  0.000
  0.000  0.000  0.000  1.004 -0.000
  0.000  0.000  0.000 -0.000  1.003
   spin  2
    eigenvalues: 
  0.055  0.076  0.086  0.086  0.124
    eigenvectors:
  0.000  1.000  0.000  0.000  0.000
  0.000  0.000  0.386  0.614  0.000
  0.000  0.000  0.614  0.386  0.000
  1.000  0.000  0.000  0.000  0.000
  0.000  0.000  0.000  0.000  1.000
    occupations:
  0.076 -0.000 -0.000  0.000  0.000
 -0.000  0.086 -0.000  0.000  0.000
 -0.000 -0.000  0.086  0.000  0.000
  0.000  0.000  0.000  0.055 -0.000
  0.000  0.000  0.000 -0.000  0.124
atomic mag. moment =     4.591878
atom    8   Tr[ns(na)] (up, down, total) =   0.42483  5.01744  5.44227
   spin  1
    eigenvalues: 
  0.055  0.076  0.085  0.085  0.125
    eigenvectors:
  0.000  1.000  0.000  0.000  0.000
  0.000  0.000  0.308  0.692  0.000
  0.000  0.000  0.692  0.308  0.000
  1.000  0.000  0.000  0.000  0.000
  0.000  0.000  0.000  0.000  1.000
    occupations:
  0.076 -0.000 -0.000  0.000  0.000
 -0.000  0.085 -0.000  0.000  0.000
 -0.000 -0.000  0.085  0.000  0.000
  0.000  0.000  0.000  0.055 -0.000
  0.000  0.000  0.000 -0.000  0.125
   spin  2
    eigenvalues: 
  1.003  1.003  1.003  1.004  1.004
    eigenvectors:
  0.000  0.000  0.000  1.000  0.000
  0.000  0.299  0.701  0.000  0.000
  0.000  0.701  0.299  0.000  0.000
  0.000  0.000  0.000  0.000  1.000
  1.000  0.000  0.000  0.000  0.000
    occupations:
  1.004 -0.000 -0.000  0.000  0.000
 -0.000  1.003 -0.000  0.000  0.000
 -0.000 -0.000  1.003  0.000  0.000
  0.000  0.000  0.000  1.004 -0.000
  0.000  0.000  0.000 -0.000  1.003
atomic mag. moment =    -4.592603
N of occupied +U levels =   43.526756
 --- exit write_ns ---

     total cpu time spent up to now is      867.4 secs

     total energy              =  -14687.23988533 Ry
     Harris-Foulkes estimate   =  -14685.78294966 Ry
     estimated scf accuracy    <      11.62901644 Ry

     total magnetization       =    10.02 Bohr mag/cell
     absolute magnetization    =    41.40 Bohr mag/cell

     iteration #  2     ecut=    45.00 Ry     beta= 0.10
     Davidson diagonalization with overlap
     ethr =  3.93E-03,  avg # of iterations =  1.0

     total cpu time spent up to now is     1252.5 secs

     total energy              =  -14689.21401081 Ry
     Harris-Foulkes estimate   =  -14687.31696612 Ry
     estimated scf accuracy    <       9.78001952 Ry

     total magnetization       =     9.90 Bohr mag/cell
     absolute magnetization    =    41.07 Bohr mag/cell

     iteration #  3     ecut=    45.00 Ry     beta= 0.10
     Davidson diagonalization with overlap
     ethr =  3.30E-03,  avg # of iterations =  4.4

     total cpu time spent up to now is     1832.3 secs

     total energy              =  -14691.50569280 Ry
     Harris-Foulkes estimate   =  -14690.77006035 Ry
     estimated scf accuracy    <     161.96886896 Ry

     total magnetization       =     9.52 Bohr mag/cell
     absolute magnetization    =    40.27 Bohr mag/cell

     iteration #  4     ecut=    45.00 Ry     beta= 0.10
     Davidson diagonalization with overlap
     ethr =  3.30E-03,  avg # of iterations =  3.9

     total cpu time spent up to now is     2401.1 secs

     total energy              =  -14694.65710864 Ry
     Harris-Foulkes estimate   =  -14694.14318880 Ry
     estimated scf accuracy    <       3.76072767 Ry

     total magnetization       =     9.20 Bohr mag/cell
     absolute magnetization    =    38.34 Bohr mag/cell

     iteration #  5     ecut=    45.00 Ry     beta= 0.10
     Davidson diagonalization with overlap
     ethr =  1.27E-03,  avg # of iterations =  4.5

     total cpu time spent up to now is     2992.7 secs

     total energy              =  -14694.51089571 Ry
     Harris-Foulkes estimate   =  -14694.73237894 Ry
     estimated scf accuracy    <       6.55455106 Ry

     total magnetization       =     9.11 Bohr mag/cell
     absolute magnetization    =    37.88 Bohr mag/cell

     iteration #  6     ecut=    45.00 Ry     beta= 0.10
     Davidson diagonalization with overlap
     ethr =  1.27E-03,  avg # of iterations =  1.1

     total cpu time spent up to now is     3375.3 secs

     total energy              =  -14693.51004073 Ry
     Harris-Foulkes estimate   =  -14694.53844245 Ry
     estimated scf accuracy    <       9.16395778 Ry

     total magnetization       =     9.09 Bohr mag/cell
     absolute magnetization    =    38.04 Bohr mag/cell

     iteration #  7     ecut=    45.00 Ry     beta= 0.10
     Davidson diagonalization with overlap
     ethr =  1.27E-03,  avg # of iterations =  1.6

     total cpu time spent up to now is     3785.0 secs

     total energy              =  -14693.67151280 Ry
     Harris-Foulkes estimate   =  -14693.79907173 Ry
     estimated scf accuracy    <       3.73093423 Ry

     total magnetization       =     9.12 Bohr mag/cell
     absolute magnetization    =    38.53 Bohr mag/cell

     iteration #  8     ecut=    45.00 Ry     beta= 0.10
     Davidson diagonalization with overlap
     ethr =  1.26E-03,  avg # of iterations =  4.3

     total cpu time spent up to now is     4381.8 secs

     total energy              =  -14693.97129699 Ry
     Harris-Foulkes estimate   =  -14693.95605872 Ry
     estimated scf accuracy    <       0.20508044 Ry

     total magnetization       =     8.85 Bohr mag/cell
     absolute magnetization    =    37.50 Bohr mag/cell

     iteration #  9     ecut=    45.00 Ry     beta= 0.10
     Davidson diagonalization with overlap
     ethr =  6.93E-05,  avg # of iterations =  3.3

     total cpu time spent up to now is     4906.4 secs

     total energy              =  -14693.98111756 Ry
     Harris-Foulkes estimate   =  -14693.97737459 Ry
     estimated scf accuracy    <       0.11673170 Ry

     total magnetization       =     8.81 Bohr mag/cell
     absolute magnetization    =    37.34 Bohr mag/cell

     iteration # 10     ecut=    45.00 Ry     beta= 0.10
     Davidson diagonalization with overlap
     ethr =  3.94E-05,  avg # of iterations =  1.1

     total cpu time spent up to now is     5288.1 secs

     total energy              =  -14693.96297426 Ry
     Harris-Foulkes estimate   =  -14693.98364196 Ry
     estimated scf accuracy    <       0.11539822 Ry

     total magnetization       =     8.79 Bohr mag/cell
     absolute magnetization    =    37.24 Bohr mag/cell

     iteration # 11     ecut=    45.00 Ry     beta= 0.10
     Davidson diagonalization with overlap
     ethr =  3.90E-05,  avg # of iterations =  2.4

     total cpu time spent up to now is     5785.9 secs

     total energy              =  -14693.97680309 Ry
     Harris-Foulkes estimate   =  -14693.98215682 Ry
     estimated scf accuracy    <       0.03364911 Ry

     total magnetization       =     8.80 Bohr mag/cell
     absolute magnetization    =    37.24 Bohr mag/cell

     iteration # 12     ecut=    45.00 Ry     beta= 0.10
     Davidson diagonalization with overlap
     ethr =  1.14E-05,  avg # of iterations =  3.1

     total cpu time spent up to now is     6389.3 secs

     total energy              =  -14693.98366968 Ry
     Harris-Foulkes estimate   =  -14693.98364232 Ry
     estimated scf accuracy    <       0.01955189 Ry

     total magnetization       =     8.78 Bohr mag/cell
     absolute magnetization    =    37.18 Bohr mag/cell

     iteration # 13     ecut=    45.00 Ry     beta= 0.10
     Davidson diagonalization with overlap
     c_bands:  3 eigenvalues not converged
     ethr =  6.61E-06,  avg # of iterations =  2.3

     total cpu time spent up to now is     6844.4 secs

     total energy              =  -14693.98576983 Ry
     Harris-Foulkes estimate   =  -14693.98507733 Ry
     estimated scf accuracy    <       0.00823582 Ry

     total magnetization       =     8.77 Bohr mag/cell
     absolute magnetization    =    37.15 Bohr mag/cell

     iteration # 14     ecut=    45.00 Ry     beta= 0.10
     Davidson diagonalization with overlap
     ethr =  2.78E-06,  avg # of iterations =  4.3

     total cpu time spent up to now is     7397.5 secs

     total energy              =  -14693.98681567 Ry
     Harris-Foulkes estimate   =  -14693.98636932 Ry
     estimated scf accuracy    <       0.03674476 Ry

     total magnetization       =     8.77 Bohr mag/cell
     absolute magnetization    =    37.17 Bohr mag/cell

     iteration # 15     ecut=    45.00 Ry     beta= 0.10
     Davidson diagonalization with overlap
     ethr =  2.78E-06,  avg # of iterations =  2.7

     total cpu time spent up to now is     7867.6 secs

     total energy              =  -14693.98768998 Ry
     Harris-Foulkes estimate   =  -14693.98739158 Ry
     estimated scf accuracy    <       0.00144535 Ry

     total magnetization       =     8.75 Bohr mag/cell
     absolute magnetization    =    37.13 Bohr mag/cell

     iteration # 16     ecut=    45.00 Ry     beta= 0.10
     Davidson diagonalization with overlap
     ethr =  4.88E-07,  avg # of iterations =  3.8

     total cpu time spent up to now is     8416.1 secs

     total energy              =  -14693.98789986 Ry
     Harris-Foulkes estimate   =  -14693.98792566 Ry
     estimated scf accuracy    <       0.00293364 Ry

     total magnetization       =     8.75 Bohr mag/cell
     absolute magnetization    =    37.09 Bohr mag/cell

     iteration # 17     ecut=    45.00 Ry     beta= 0.10
     Davidson diagonalization with overlap
     ethr =  4.88E-07,  avg # of iterations =  1.3

     total cpu time spent up to now is     8814.7 secs

     total energy              =  -14693.98804286 Ry
     Harris-Foulkes estimate   =  -14693.98800159 Ry
     estimated scf accuracy    <       0.00396629 Ry

     total magnetization       =     8.74 Bohr mag/cell
     absolute magnetization    =    37.10 Bohr mag/cell

     iteration # 18     ecut=    45.00 Ry     beta= 0.10
     Davidson diagonalization with overlap
     ethr =  4.88E-07,  avg # of iterations =  1.0

     total cpu time spent up to now is     9190.7 secs

     total energy              =  -14693.98817575 Ry
     Harris-Foulkes estimate   =  -14693.98810989 Ry
     estimated scf accuracy    <       0.00045109 Ry

     total magnetization       =     8.74 Bohr mag/cell
     absolute magnetization    =    37.08 Bohr mag/cell

     iteration # 19     ecut=    45.00 Ry     beta= 0.10
     Davidson diagonalization with overlap
     ethr =  1.52E-07,  avg # of iterations =  1.1

     total cpu time spent up to now is     9586.1 secs

     total energy              =  -14693.98832653 Ry
     Harris-Foulkes estimate   =  -14693.98818058 Ry
     estimated scf accuracy    <       0.00028153 Ry

     total magnetization       =     8.74 Bohr mag/cell
     absolute magnetization    =    37.08 Bohr mag/cell

     iteration # 20     ecut=    45.00 Ry     beta= 0.10
     Davidson diagonalization with overlap
     ethr =  9.51E-08,  avg # of iterations =  1.4

     total cpu time spent up to now is    10009.9 secs

     total energy              =  -14693.98837866 Ry
     Harris-Foulkes estimate   =  -14693.98833599 Ry
     estimated scf accuracy    <       0.00021725 Ry

     total magnetization       =     8.74 Bohr mag/cell
     absolute magnetization    =    37.08 Bohr mag/cell

     iteration # 21     ecut=    45.00 Ry     beta= 0.10
     Davidson diagonalization with overlap
     ethr =  7.34E-08,  avg # of iterations =  1.1

     total cpu time spent up to now is    10391.6 secs

     total energy              =  -14693.98839693 Ry
     Harris-Foulkes estimate   =  -14693.98838904 Ry
     estimated scf accuracy    <       0.00003268 Ry

     total magnetization       =     8.74 Bohr mag/cell
     absolute magnetization    =    37.09 Bohr mag/cell

     iteration # 22     ecut=    45.00 Ry     beta= 0.10
     Davidson diagonalization with overlap
     ethr =  1.10E-08,  avg # of iterations =  2.0

     total cpu time spent up to now is    10825.1 secs

     total energy              =  -14693.98840903 Ry
     Harris-Foulkes estimate   =  -14693.98839826 Ry
     estimated scf accuracy    <       0.00002218 Ry

     total magnetization       =     8.74 Bohr mag/cell
     absolute magnetization    =    37.09 Bohr mag/cell

     iteration # 23     ecut=    45.00 Ry     beta= 0.10
     Davidson diagonalization with overlap
     ethr =  7.49E-09,  avg # of iterations =  2.2

     total cpu time spent up to now is    11274.4 secs

     total energy              =  -14693.98841582 Ry
     Harris-Foulkes estimate   =  -14693.98841158 Ry
     estimated scf accuracy    <       0.00000873 Ry

     total magnetization       =     8.74 Bohr mag/cell
     absolute magnetization    =    37.09 Bohr mag/cell

     iteration # 24     ecut=    45.00 Ry     beta= 0.10
     Davidson diagonalization with overlap
     ethr =  2.95E-09,  avg # of iterations =  1.7

     total cpu time spent up to now is    11688.7 secs

     total energy              =  -14693.98841840 Ry
     Harris-Foulkes estimate   =  -14693.98841598 Ry
     estimated scf accuracy    <       0.00002970 Ry

     total magnetization       =     8.74 Bohr mag/cell
     absolute magnetization    =    37.09 Bohr mag/cell

     iteration # 25     ecut=    45.00 Ry     beta= 0.10
     Davidson diagonalization with overlap
     ethr =  2.95E-09,  avg # of iterations =  1.2

     total cpu time spent up to now is    12075.2 secs

     total energy              =  -14693.98842211 Ry
     Harris-Foulkes estimate   =  -14693.98841965 Ry
     estimated scf accuracy    <       0.00000800 Ry

     total magnetization       =     8.74 Bohr mag/cell
     absolute magnetization    =    37.09 Bohr mag/cell

     iteration # 26     ecut=    45.00 Ry     beta= 0.10
     Davidson diagonalization with overlap
     ethr =  2.70E-09,  avg # of iterations =  1.7

     total cpu time spent up to now is    12501.3 secs

     total energy              =  -14693.98842367 Ry
     Harris-Foulkes estimate   =  -14693.98842242 Ry
     estimated scf accuracy    <       0.00000154 Ry

     total magnetization       =     8.74 Bohr mag/cell
     absolute magnetization    =    37.09 Bohr mag/cell

     iteration # 27     ecut=    45.00 Ry     beta= 0.10
     Davidson diagonalization with overlap
     ethr =  5.21E-10,  avg # of iterations =  3.4

     total cpu time spent up to now is    13090.2 secs

     total energy              =  -14693.98842443 Ry
     Harris-Foulkes estimate   =  -14693.98842349 Ry
     estimated scf accuracy    <       0.00000427 Ry

     total magnetization       =     8.74 Bohr mag/cell
     absolute magnetization    =    37.09 Bohr mag/cell

     iteration # 28     ecut=    45.00 Ry     beta= 0.10
     Davidson diagonalization with overlap
     ethr =  5.21E-10,  avg # of iterations =  1.7

     total cpu time spent up to now is    13503.5 secs

     total energy              =  -14693.98842579 Ry
     Harris-Foulkes estimate   =  -14693.98842497 Ry
     estimated scf accuracy    <       0.00000125 Ry

     total magnetization       =     8.74 Bohr mag/cell
     absolute magnetization    =    37.09 Bohr mag/cell

     iteration # 29     ecut=    45.00 Ry     beta= 0.10
     Davidson diagonalization with overlap
     ethr =  4.23E-10,  avg # of iterations =  1.7
 
     Magnetic moment per site:
     atom:    1    charge:   13.5433    magn:    4.2082    constr:    0.0000
     atom:    2    charge:   13.5409    magn:    4.2244    constr:    0.0000
     atom:    3    charge:   13.5412    magn:    4.2176    constr:    0.0000
     atom:    4    charge:   13.5435    magn:   -4.2035    constr:    0.0000
     atom:    5    charge:   13.5476    magn:    4.1749    constr:    0.0000
     atom:    6    charge:   13.5414    magn:   -4.2131    constr:    0.0000
     atom:    7    charge:   13.5436    magn:    4.2035    constr:    0.0000
     atom:    8    charge:   13.5440    magn:   -4.1987    constr:    0.0000
     atom:    9    charge:    9.0888    magn:    0.0361    constr:    0.0000
     atom:   10    charge:    9.0898    magn:    0.0505    constr:    0.0000
     atom:   11    charge:    9.0891    magn:   -0.0448    constr:    0.0000
     atom:   12    charge:    9.0890    magn:    0.0450    constr:    0.0000
     atom:   13    charge:    9.0881    magn:    0.0365    constr:    0.0000
     atom:   14    charge:    9.0897    magn:    0.0484    constr:    0.0000
     atom:   15    charge:    9.0895    magn:    0.0391    constr:    0.0000
     atom:   16    charge:    9.0889    magn:   -0.0373    constr:    0.0000
     atom:   17    charge:    9.0888    magn:    0.0392    constr:    0.0000
     atom:   18    charge:    9.0916    magn:   -0.0407    constr:    0.0000
     atom:   19    charge:    9.0895    magn:    0.0402    constr:    0.0000
     atom:   20    charge:    9.0894    magn:   -0.0375    constr:    0.0000
     atom:   21    charge:    9.0891    magn:    0.0402    constr:    0.0000
     atom:   22    charge:    9.0910    magn:   -0.0433    constr:    0.0000
     atom:   23    charge:    9.0896    magn:    0.0465    constr:    0.0000
     atom:   24    charge:    9.0901    magn:   -0.0422    constr:    0.0000

     total cpu time spent up to now is    13949.0 secs

     End of self-consistent calculation
 --- enter write_ns ---
 LDA+U parameters:
U(  1) =   3.1200   J(  1) =   0.7000   B(  1) =   0.0803
U(  2) =   3.1200   J(  2) =   0.7000   B(  2) =   0.0803
atom    1   Tr[ns(na)] (up, down, total) =   4.96853  0.76010  5.72864
   spin  1
    eigenvalues: 
  0.983  0.993  0.993  0.997  1.002
    eigenvectors:
  0.000  0.000  0.000  1.000  0.000
  0.000  0.408  0.592  0.000  0.000
  0.000  0.592  0.408  0.000  0.000
  0.000  0.000  0.000  0.000  1.000
  1.000  0.000  0.000  0.000  0.000
    occupations:
  0.997 -0.000 -0.000  0.000  0.000
 -0.000  0.993 -0.000  0.000  0.000
 -0.000 -0.000  0.993  0.000  0.000
  0.000  0.000  0.000  1.002 -0.000
  0.000  0.000  0.000 -0.000  0.983
   spin  2
    eigenvalues: 
  0.066  0.132  0.149  0.149  0.263
    eigenvectors:
  0.000  1.000  0.000  0.000  0.000
  0.000  0.000  0.341  0.659  0.000
  0.000  0.000  0.659  0.341  0.000
  1.000  0.000  0.000  0.000  0.000
  0.000  0.000  0.000  0.000  1.000
    occupations:
  0.132 -0.000 -0.000  0.000  0.000
 -0.000  0.149 -0.000  0.000  0.000
 -0.000 -0.000  0.149  0.000  0.000
  0.000  0.000  0.000  0.066 -0.000
  0.000  0.000  0.000 -0.000  0.263
atomic mag. moment =     4.208431
atom    2   Tr[ns(na)] (up, down, total) =   4.97068  0.74651  5.71719
   spin  1
    eigenvalues: 
  0.984  0.993  0.993  0.998  1.002
    eigenvectors:
  0.000  0.000  0.000  1.000  0.000
  0.000  0.268  0.732  0.000  0.000
  0.000  0.732  0.268  0.000  0.000
  0.000  0.000  0.000  0.000  1.000
  1.000  0.000  0.000  0.000  0.000
    occupations:
  0.998 -0.000 -0.000  0.000  0.000
 -0.000  0.993 -0.000  0.000  0.000
 -0.000 -0.000  0.993  0.000  0.000
  0.000  0.000  0.000  1.002 -0.000
  0.000  0.000  0.000 -0.000  0.984
   spin  2
    eigenvalues: 
  0.067  0.118  0.153  0.153  0.255
    eigenvectors:
  0.000  1.000  0.000  0.000  0.000
  0.000  0.000  0.313  0.687  0.000
  0.000  0.000  0.687  0.313  0.000
  1.000  0.000  0.000  0.000  0.000
  0.000  0.000  0.000  0.000  1.000
    occupations:
  0.118 -0.000 -0.000  0.000  0.000
 -0.000  0.153 -0.000  0.000  0.000
 -0.000 -0.000  0.153  0.000  0.000
  0.000  0.000  0.000  0.067 -0.000
  0.000  0.000  0.000 -0.000  0.255
atomic mag. moment =     4.224163
atom    3   Tr[ns(na)] (up, down, total) =   4.97002  0.75191  5.72192
   spin  1
    eigenvalues: 
  0.984  0.993  0.993  0.997  1.002
    eigenvectors:
  0.000  0.000  0.000  1.000  0.000
  0.000  0.346  0.654  0.000  0.000
  0.000  0.654  0.346  0.000  0.000
  0.000  0.000  0.000  0.000  1.000
  1.000  0.000  0.000  0.000  0.000
    occupations:
  0.997 -0.000 -0.000  0.000  0.000
 -0.000  0.993 -0.000  0.000  0.000
 -0.000 -0.000  0.993  0.000  0.000
  0.000  0.000  0.000  1.002 -0.000
  0.000  0.000  0.000 -0.000  0.984
   spin  2
    eigenvalues: 
  0.067  0.122  0.152  0.152  0.258
    eigenvectors:
  0.000  1.000  0.000  0.000  0.000
  0.000  0.000  0.295  0.705  0.000
  0.000  0.000  0.705  0.295  0.000
  1.000  0.000  0.000  0.000  0.000
  0.000  0.000  0.000  0.000  1.000
    occupations:
  0.122 -0.000 -0.000  0.000  0.000
 -0.000  0.152 -0.000  0.000  0.000
 -0.000 -0.000  0.152  0.000  0.000
  0.000  0.000  0.000  0.067 -0.000
  0.000  0.000  0.000 -0.000  0.258
atomic mag. moment =     4.218112
atom    4   Tr[ns(na)] (up, down, total) =   0.76402  4.96816  5.73218
   spin  1
    eigenvalues: 
  0.066  0.133  0.150  0.150  0.265
    eigenvectors:
  0.000  1.000  0.000  0.000  0.000
  0.000  0.000  0.267  0.733  0.000
  0.000  0.000  0.733  0.267  0.000
  1.000  0.000  0.000  0.000  0.000
  0.000  0.000  0.000  0.000  1.000
    occupations:
  0.133 -0.000 -0.000  0.000  0.000
 -0.000  0.150 -0.000  0.000  0.000
 -0.000 -0.000  0.150  0.000  0.000
  0.000  0.000  0.000  0.066 -0.000
  0.000  0.000  0.000 -0.000  0.265
   spin  2
    eigenvalues: 
  0.984  0.993  0.993  0.996  1.002
    eigenvectors:
  0.000  0.000  0.000  1.000  0.000
  0.000  0.294  0.706  0.000  0.000
  0.000  0.706  0.294  0.000  0.000
  0.000  0.000  0.000  0.000  1.000
  1.000  0.000  0.000  0.000  0.000
    occupations:
  0.996 -0.000 -0.000  0.000  0.000
 -0.000  0.993 -0.000  0.000  0.000
 -0.000 -0.000  0.993  0.000  0.000
  0.000  0.000  0.000  1.002 -0.000
  0.000  0.000  0.000 -0.000  0.984
atomic mag. moment =    -4.204144
atom    5   Tr[ns(na)] (up, down, total) =   4.96652  0.78693  5.75345
   spin  1
    eigenvalues: 
  0.983  0.993  0.993  0.996  1.002
    eigenvectors:
  0.000  0.000  0.000  1.000  0.000
  0.000  0.253  0.747  0.000  0.000
  0.000  0.747  0.253  0.000  0.000
  0.000  0.000  0.000  0.000  1.000
  1.000  0.000  0.000  0.000  0.000
    occupations:
  0.996 -0.000 -0.000  0.000  0.000
 -0.000  0.993 -0.000  0.000  0.000
 -0.000 -0.000  0.993  0.000  0.000
  0.000  0.000  0.000  1.002 -0.000
  0.000  0.000  0.000 -0.000  0.983
   spin  2
    eigenvalues: 
  0.065  0.140  0.152  0.152  0.276
    eigenvectors:
  0.000  1.000  0.000  0.000  0.000
  0.000  0.000  0.335  0.665  0.000
  0.000  0.000  0.665  0.335  0.000
  1.000  0.000  0.000  0.000  0.000
  0.000  0.000  0.000  0.000  1.000
    occupations:
  0.140 -0.000 -0.000  0.000  0.000
 -0.000  0.152 -0.000  0.000  0.000
 -0.000 -0.000  0.152  0.000  0.000
  0.000  0.000  0.000  0.065 -0.000
  0.000  0.000  0.000 -0.000  0.276
atomic mag. moment =     4.179586
atom    6   Tr[ns(na)] (up, down, total) =   0.75531  4.96728  5.72259
   spin  1
    eigenvalues: 
  0.067  0.129  0.150  0.150  0.259
    eigenvectors:
  0.000  1.000  0.000  0.000  0.000
  0.000  0.000  0.297  0.703  0.000
  0.000  0.000  0.703  0.297  0.000
  1.000  0.000  0.000  0.000  0.000
  0.000  0.000  0.000  0.000  1.000
    occupations:
  0.129 -0.000 -0.000  0.000  0.000
 -0.000  0.150 -0.000  0.000  0.000
 -0.000 -0.000  0.150  0.000  0.000
  0.000  0.000  0.000  0.067 -0.000
  0.000  0.000  0.000 -0.000  0.259
   spin  2
    eigenvalues: 
  0.983  0.993  0.993  0.995  1.002
    eigenvectors:
  0.000  0.000  0.000  1.000  0.000
  0.000  0.327  0.673  0.000  0.000
  0.000  0.673  0.327  0.000  0.000
  0.000  0.000  0.000  0.000  1.000
  1.000  0.000  0.000  0.000  0.000
    occupations:
  0.995 -0.000 -0.000  0.000  0.000
 -0.000  0.993 -0.000  0.000  0.000
 -0.000 -0.000  0.993  0.000  0.000
  0.000  0.000  0.000  1.002 -0.000
  0.000  0.000  0.000 -0.000  0.983
atomic mag. moment =    -4.211966
atom    7   Tr[ns(na)] (up, down, total) =   4.96806  0.76389  5.73195
   spin  1
    eigenvalues: 
  0.984  0.993  0.993  0.996  1.002
    eigenvectors:
  0.000  0.000  0.000  1.000  0.000
  0.000  0.293  0.707  0.000  0.000
  0.000  0.707  0.293  0.000  0.000
  0.000  0.000  0.000  0.000  1.000
  1.000  0.000  0.000  0.000  0.000
    occupations:
  0.996 -0.000 -0.000  0.000  0.000
 -0.000  0.993 -0.000  0.000  0.000
 -0.000 -0.000  0.993  0.000  0.000
  0.000  0.000  0.000  1.002 -0.000
  0.000  0.000  0.000 -0.000  0.984
   spin  2
    eigenvalues: 
  0.066  0.132  0.150  0.150  0.265
    eigenvectors:
  0.000  1.000  0.000  0.000  0.000
  0.000  0.000  0.310  0.690  0.000
  0.000  0.000  0.690  0.310  0.000
  1.000  0.000  0.000  0.000  0.000
  0.000  0.000  0.000  0.000  1.000
    occupations:
  0.132 -0.000 -0.000  0.000  0.000
 -0.000  0.150 -0.000  0.000  0.000
 -0.000 -0.000  0.150  0.000  0.000
  0.000  0.000  0.000  0.066 -0.000
  0.000  0.000  0.000 -0.000  0.265
atomic mag. moment =     4.204169
atom    8   Tr[ns(na)] (up, down, total) =   0.76773  4.96759  5.73532
   spin  1
    eigenvalues: 
  0.066  0.137  0.150  0.150  0.264
    eigenvectors:
  0.000  1.000  0.000  0.000  0.000
  0.000  0.000  0.330  0.670  0.000
  0.000  0.000  0.670  0.330  0.000
  1.000  0.000  0.000  0.000  0.000
  0.000  0.000  0.000  0.000  1.000
    occupations:
  0.137 -0.000 -0.000  0.000  0.000
 -0.000  0.150 -0.000  0.000  0.000
 -0.000 -0.000  0.150  0.000  0.000
  0.000  0.000  0.000  0.066 -0.000
  0.000  0.000  0.000 -0.000  0.264
   spin  2
    eigenvalues: 
  0.983  0.993  0.993  0.996  1.002
    eigenvectors:
  0.000  0.000  0.000  1.000  0.000
  0.000  0.277  0.723  0.000  0.000
  0.000  0.723  0.277  0.000  0.000
  0.000  0.000  0.000  0.000  1.000
  1.000  0.000  0.000  0.000  0.000
    occupations:
  0.996 -0.000 -0.000  0.000  0.000
 -0.000  0.993 -0.000  0.000  0.000
 -0.000 -0.000  0.993  0.000  0.000
  0.000  0.000  0.000  1.002 -0.000
  0.000  0.000  0.000 -0.000  0.983
atomic mag. moment =    -4.199864
N of occupied +U levels =   45.843251
 --- exit write_ns ---

     Number of k-points >= 100: set verbosity='high' to print the bands.

     the Fermi energy is    15.5541 ev

!    total energy              =  -14693.98842954 Ry
     Harris-Foulkes estimate   =  -14693.98842584 Ry
     estimated scf accuracy    <       0.00000080 Ry

     total all-electron energy =   -626921.584151 Ry

     The total energy is the sum of the following terms:

     one-electron contribution =    -698.61923977 Ry
     hartree contribution      =     651.66511330 Ry
     xc contribution           =    -738.07941442 Ry
     ewald contribution        =   -2207.56121140 Ry
     Hubbard energy            =       0.46339987 Ry
     one-center paw contrib.   =  -11701.85707713 Ry

     total magnetization       =     8.74 Bohr mag/cell
     absolute magnetization    =    37.09 Bohr mag/cell

     convergence has been achieved in  29 iterations

     Writing output data file mnau2.save/
 
     init_run     :    215.19s CPU    221.25s WALL (       1 calls)
     electrons    :  13369.23s CPU  13719.76s WALL (       1 calls)

     Called by init_run:
     wfcinit      :    211.52s CPU    217.22s WALL (       1 calls)
     potinit      :      1.81s CPU      1.88s WALL (       1 calls)
     hinit0       :      1.17s CPU      1.24s WALL (       1 calls)

     Called by electrons:
     c_bands      :  11939.25s CPU  12235.46s WALL (      29 calls)
     sum_band     :   1385.84s CPU   1438.94s WALL (      29 calls)
     v_of_rho     :      3.59s CPU      3.65s WALL (      30 calls)
     newd         :     11.32s CPU     11.50s WALL (      30 calls)
     PAW_pot      :     29.43s CPU     29.96s WALL (      30 calls)
     mix_rho      :      0.71s CPU      0.88s WALL (      29 calls)

     Called by c_bands:
     init_us_2    :     26.98s CPU     27.44s WALL (   16200 calls)
     cegterg      :  11613.16s CPU  11900.08s WALL (    7830 calls)

     Called by sum_band:
     sum_band:bec :     16.89s CPU     17.06s WALL (    7830 calls)
     addusdens    :     16.91s CPU     17.40s WALL (      29 calls)

     Called by *egterg:
     h_psi        :   5125.72s CPU   5279.86s WALL (   26723 calls)
     s_psi        :    754.02s CPU    757.34s WALL (   26993 calls)
     g_psi        :      7.46s CPU      7.54s WALL (   18623 calls)
     cdiaghg      :   3614.16s CPU   3724.76s WALL (   26453 calls)

     Called by h_psi:
     h_psi:pot    :   4689.68s CPU   4838.72s WALL (   26723 calls)
     h_psi:calbec :    937.00s CPU    988.69s WALL (   26723 calls)
     vloc_psi     :   3014.64s CPU   3108.67s WALL (   26723 calls)
     add_vuspsi   :    737.46s CPU    740.92s WALL (   26723 calls)
     vhpsi        :    427.45s CPU    432.44s WALL (   26723 calls)

     General routines
     calbec       :   1742.00s CPU   1824.51s WALL (   69376 calls)
     fft          :      3.23s CPU      3.52s WALL (     746 calls)
     ffts         :      0.17s CPU      0.23s WALL (     118 calls)
     fftw         :   3577.92s CPU   3687.59s WALL ( 7312550 calls)
     interpolate  :      0.29s CPU      0.32s WALL (      60 calls)
     davcio       :      0.02s CPU      0.07s WALL (     270 calls)
 
     Parallel routines
     fft_scatt_xy :    168.15s CPU    172.77s WALL ( 7313414 calls)
     fft_scatt_yz :   2622.01s CPU   2706.36s WALL ( 7313414 calls)

     Hubbard U routines
     new_ns       :     58.68s CPU     64.06s WALL (      29 calls)
     vhpsi        :    427.45s CPU    432.44s WALL (   26723 calls)
 
     PWSCF        :     3h47m CPU       47h 3m WALL

      55h
 
   This run was terminated on:  23:58:13  16May2019            

=------------------------------------------------------------------------------=
   JOB DONE.
=------------------------------------------------------------------------------=
