
     Program PWSCF v.6.3MaX starts on 19May2019 at  1:28:47 

     This program is part of the open-source Quantum ESPRESSO suite
     for quantum simulation of materials; please cite
         "P. Giannozzi et al., J. Phys.:Condens. Matter 21 395502 (2009);
         "P. Giannozzi et al., J. Phys.:Condens. Matter 29 465901 (2017);
          URL http://www.quantum-espresso.org", 
     in publications or presentations arising from this work. More details at
     http://www.quantum-espresso.org/quote

     Parallel version (MPI), running on    32 processors

     MPI processes distributed on     1 nodes
     R & G space division:  proc/nbgrp/npool/nimage =      32
     Waiting for input...
     Reading input from standard input

     Current dimensions of program PWSCF are:
     Max number of different atomic species (ntypx) = 10
     Max number of k-points (npk) =  40000
     Max angular momentum in pseudopotentials (lmaxx) =  3
               file Mn.pbe-spn-kjpaw_psl.0.3.1.UPF: wavefunction(s)  3P 3D renormalized
               file Mn.pbe-spn-kjpaw_psl.0.3.1.UPF: wavefunction(s)  3P 3D renormalized
               file Au.pbe-dn-kjpaw_psl.0.1.UPF: wavefunction(s)  6S 6P 5D renormalized

     Subspace diagonalization in iterative solution of the eigenvalue problem:
     one sub-group per band group will be used
     scalapack distributed-memory algorithm (size of sub-group:  4*  4 procs)

 
     Parallelization info
     --------------------
     sticks:   dense  smooth     PW     G-vecs:    dense   smooth      PW
     Min          40      18      5                11328     3410     561
     Max          41      19      6                11369     3447     602
     Sum        1305     577    177               362981   109451   18573
 


     bravais-lattice index     =            0
     lattice parameter (alat)  =       6.3684  a.u.
     unit-cell volume          =    2685.0513 (a.u.)^3
     number of atoms/cell      =           24
     number of atomic types    =            3
     number of electrons       =       296.00
     number of Kohn-Sham states=          178
     kinetic-energy cutoff     =      45.0000  Ry
     charge density cutoff     =     400.0000  Ry
     convergence threshold     =      1.0E-06
     mixing beta               =       0.1000
     number of iterations used =            8  plain     mixing
     Exchange-correlation      = SLA PW PBX PBC ( 1  4  3  4 0 0)

     celldm(1)=   6.368377  celldm(2)=   0.000000  celldm(3)=   0.000000
     celldm(4)=   0.000000  celldm(5)=   0.000000  celldm(6)=   0.000000

     crystal axes: (cart. coord. in units of alat)
               a(1) = (   1.000000   0.000000   0.000000 )  
               a(2) = (   0.000000   1.000000   0.000000 )  
               a(3) = (   0.000000   0.000000  10.396000 )  

     reciprocal axes: (cart. coord. in units 2 pi/alat)
               b(1) = (  1.000000  0.000000  0.000000 )  
               b(2) = (  0.000000  1.000000  0.000000 )  
               b(3) = (  0.000000  0.000000  0.096191 )  


     PseudoPot. # 1 for Mn read from file:
     ./pseudo/Mn.pbe-spn-kjpaw_psl.0.3.1.UPF
     MD5 check sum: 7b43a3fb0e93e198b8dd8488d8cf503e
     Pseudo is Projector augmented-wave + core cor, Zval = 15.0
     Generated using "atomic" code by A. Dal Corso v.5.0.99 svn rev. 10869
     Shape of augmentation charge: PSQ
     Using radial grid of 1187 points,  6 beta functions with: 
                l(1) =   0
                l(2) =   0
                l(3) =   1
                l(4) =   1
                l(5) =   2
                l(6) =   2
     Q(r) pseudized with 0 coefficients 


     PseudoPot. # 2 for Mn read from file:
     ./pseudo/Mn.pbe-spn-kjpaw_psl.0.3.1.UPF
     MD5 check sum: 7b43a3fb0e93e198b8dd8488d8cf503e
     Pseudo is Projector augmented-wave + core cor, Zval = 15.0
     Generated using "atomic" code by A. Dal Corso v.5.0.99 svn rev. 10869
     Shape of augmentation charge: PSQ
     Using radial grid of 1187 points,  6 beta functions with: 
                l(1) =   0
                l(2) =   0
                l(3) =   1
                l(4) =   1
                l(5) =   2
                l(6) =   2
     Q(r) pseudized with 0 coefficients 


     PseudoPot. # 3 for Au read from file:
     ./pseudo/Au.pbe-dn-kjpaw_psl.0.1.UPF
     MD5 check sum: be11e2e8e535ebe2b3ccfb4f88f554cb
     Pseudo is Projector augmented-wave + core cor, Zval = 11.0
     Generated using "atomic" code by A. Dal Corso v.5.0.2 svn rev. 9415
     Shape of augmentation charge: PSQ
     Using radial grid of 1279 points,  6 beta functions with: 
                l(1) =   0
                l(2) =   0
                l(3) =   1
                l(4) =   1
                l(5) =   2
                l(6) =   2
     Q(r) pseudized with 0 coefficients 


     atomic species   valence    mass     pseudopotential
        Mn1           15.00    54.93800     Mn( 1.00)
        Mn2           15.00    54.93800     Mn( 1.00)
        Au            11.00   196.96600     Au( 1.00)

     Starting magnetic structure 
     atomic species   magnetization
        Mn1          0.800
        Mn2         -0.800
        Au           0.000


     Full LDA+U calculation (l_max = 2) with parameters (eV):
     U(  1) =   3.1200   J(  1) =   0.7000   B(  1) =   0.0803
     U(  2) =   3.1200   J(  2) =   0.7000   B(  2) =   0.0803



      8 Sym. Ops. (no inversion) found



   Cartesian axes

     site n.     atom                  positions (alat units)
         1           Mn1 tau(   1) = (   0.0000000   0.0000000   0.0000000  )
         2           Mn1 tau(   2) = (   0.0000000   0.0000000   2.5990000  )
         3           Mn2 tau(   3) = (   0.0000000   0.0000000   5.1980000  )
         4           Mn2 tau(   4) = (   0.0000000   0.0000000   7.7970000  )
         5           Mn1 tau(   5) = (   0.5000000   0.5000000   1.2995000  )
         6           Mn1 tau(   6) = (   0.5000000   0.5000000   3.8985000  )
         7           Mn2 tau(   7) = (   0.5000000   0.5000000   6.4975000  )
         8           Mn2 tau(   8) = (   0.5000000   0.5000000   9.0965000  )
         9           Au  tau(   9) = (   0.5000000   0.5000000   2.1831600  )
        10           Au  tau(  10) = (   0.5000000   0.5000000   4.7821600  )
        11           Au  tau(  11) = (   0.5000000   0.5000000   7.3811600  )
        12           Au  tau(  12) = (   0.5000000   0.5000000   9.9801600  )
        13           Au  tau(  13) = (   0.5000000   0.5000000   0.4158400  )
        14           Au  tau(  14) = (   0.5000000   0.5000000   3.0148400  )
        15           Au  tau(  15) = (   0.5000000   0.5000000   5.6138400  )
        16           Au  tau(  16) = (   0.5000000   0.5000000   8.2128400  )
        17           Au  tau(  17) = (   0.0000000   0.0000000   0.8836600  )
        18           Au  tau(  18) = (   0.0000000   0.0000000   3.4826600  )
        19           Au  tau(  19) = (   0.0000000   0.0000000   6.0816600  )
        20           Au  tau(  20) = (   0.0000000   0.0000000   8.6806600  )
        21           Au  tau(  21) = (   0.0000000   0.0000000   1.7153400  )
        22           Au  tau(  22) = (   0.0000000   0.0000000   4.3143400  )
        23           Au  tau(  23) = (   0.0000000   0.0000000   6.9133400  )
        24           Au  tau(  24) = (   0.0000000   0.0000000   9.5123400  )

     number of k points=   135 (tetrahedron method)

     Number of k-points >= 100: set verbosity='high' to print them.

     Dense  grid:   362981 G-vectors     FFT dimensions: (  45,  45, 432)

     Smooth grid:   109451 G-vectors     FFT dimensions: (  27,  27, 288)

     Estimated max dynamical RAM per process >     439.54 MB

     Estimated total dynamical RAM >      13.74 GB
     Generating pointlists ...
     new r_m :   0.3384 (alat units)  2.1549 (a.u.) for type    1
     new r_m :   0.3384 (alat units)  2.1549 (a.u.) for type    2
     new r_m :   0.3384 (alat units)  2.1549 (a.u.) for type    3

     Check: negative/imaginary core charge=   -0.000006    0.000000

     Initial potential from superposition of free atoms

     starting charge  295.99426, renormalised to  296.00000
     Number of +U iterations with fixed ns =  0
     Starting occupations:
 --- enter write_ns ---
 LDA+U parameters:
U(  1) =   3.1200   J(  1) =   0.7000   B(  1) =   0.0803
U(  2) =   3.1200   J(  2) =   0.7000   B(  2) =   0.0803
atom    1   Tr[ns(na)] (up, down, total) =   5.00000  0.00000  5.00000
   spin  1
    eigenvalues: 
  1.000  1.000  1.000  1.000  1.000
    eigenvectors:
  1.000  0.000  0.000  0.000  0.000
  0.000  1.000  0.000  0.000  0.000
  0.000  0.000  1.000  0.000  0.000
  0.000  0.000  0.000  1.000  0.000
  0.000  0.000  0.000  0.000  1.000
    occupations:
  1.000  0.000  0.000  0.000  0.000
  0.000  1.000  0.000  0.000  0.000
  0.000  0.000  1.000  0.000  0.000
  0.000  0.000  0.000  1.000  0.000
  0.000  0.000  0.000  0.000  1.000
   spin  2
    eigenvalues: 
  0.000  0.000  0.000  0.000  0.000
    eigenvectors:
  1.000  0.000  0.000  0.000  0.000
  0.000  1.000  0.000  0.000  0.000
  0.000  0.000  1.000  0.000  0.000
  0.000  0.000  0.000  1.000  0.000
  0.000  0.000  0.000  0.000  1.000
    occupations:
  0.000  0.000  0.000  0.000  0.000
  0.000  0.000  0.000  0.000  0.000
  0.000  0.000  0.000  0.000  0.000
  0.000  0.000  0.000  0.000  0.000
  0.000  0.000  0.000  0.000  0.000
atomic mag. moment =     5.000000
atom    2   Tr[ns(na)] (up, down, total) =   5.00000  0.00000  5.00000
   spin  1
    eigenvalues: 
  1.000  1.000  1.000  1.000  1.000
    eigenvectors:
  1.000  0.000  0.000  0.000  0.000
  0.000  1.000  0.000  0.000  0.000
  0.000  0.000  1.000  0.000  0.000
  0.000  0.000  0.000  1.000  0.000
  0.000  0.000  0.000  0.000  1.000
    occupations:
  1.000  0.000  0.000  0.000  0.000
  0.000  1.000  0.000  0.000  0.000
  0.000  0.000  1.000  0.000  0.000
  0.000  0.000  0.000  1.000  0.000
  0.000  0.000  0.000  0.000  1.000
   spin  2
    eigenvalues: 
  0.000  0.000  0.000  0.000  0.000
    eigenvectors:
  1.000  0.000  0.000  0.000  0.000
  0.000  1.000  0.000  0.000  0.000
  0.000  0.000  1.000  0.000  0.000
  0.000  0.000  0.000  1.000  0.000
  0.000  0.000  0.000  0.000  1.000
    occupations:
  0.000  0.000  0.000  0.000  0.000
  0.000  0.000  0.000  0.000  0.000
  0.000  0.000  0.000  0.000  0.000
  0.000  0.000  0.000  0.000  0.000
  0.000  0.000  0.000  0.000  0.000
atomic mag. moment =     5.000000
atom    3   Tr[ns(na)] (up, down, total) =   0.00000  5.00000  5.00000
   spin  1
    eigenvalues: 
  0.000  0.000  0.000  0.000  0.000
    eigenvectors:
  1.000  0.000  0.000  0.000  0.000
  0.000  1.000  0.000  0.000  0.000
  0.000  0.000  1.000  0.000  0.000
  0.000  0.000  0.000  1.000  0.000
  0.000  0.000  0.000  0.000  1.000
    occupations:
  0.000  0.000  0.000  0.000  0.000
  0.000  0.000  0.000  0.000  0.000
  0.000  0.000  0.000  0.000  0.000
  0.000  0.000  0.000  0.000  0.000
  0.000  0.000  0.000  0.000  0.000
   spin  2
    eigenvalues: 
  1.000  1.000  1.000  1.000  1.000
    eigenvectors:
  1.000  0.000  0.000  0.000  0.000
  0.000  1.000  0.000  0.000  0.000
  0.000  0.000  1.000  0.000  0.000
  0.000  0.000  0.000  1.000  0.000
  0.000  0.000  0.000  0.000  1.000
    occupations:
  1.000  0.000  0.000  0.000  0.000
  0.000  1.000  0.000  0.000  0.000
  0.000  0.000  1.000  0.000  0.000
  0.000  0.000  0.000  1.000  0.000
  0.000  0.000  0.000  0.000  1.000
atomic mag. moment =    -5.000000
atom    4   Tr[ns(na)] (up, down, total) =   0.00000  5.00000  5.00000
   spin  1
    eigenvalues: 
  0.000  0.000  0.000  0.000  0.000
    eigenvectors:
  1.000  0.000  0.000  0.000  0.000
  0.000  1.000  0.000  0.000  0.000
  0.000  0.000  1.000  0.000  0.000
  0.000  0.000  0.000  1.000  0.000
  0.000  0.000  0.000  0.000  1.000
    occupations:
  0.000  0.000  0.000  0.000  0.000
  0.000  0.000  0.000  0.000  0.000
  0.000  0.000  0.000  0.000  0.000
  0.000  0.000  0.000  0.000  0.000
  0.000  0.000  0.000  0.000  0.000
   spin  2
    eigenvalues: 
  1.000  1.000  1.000  1.000  1.000
    eigenvectors:
  1.000  0.000  0.000  0.000  0.000
  0.000  1.000  0.000  0.000  0.000
  0.000  0.000  1.000  0.000  0.000
  0.000  0.000  0.000  1.000  0.000
  0.000  0.000  0.000  0.000  1.000
    occupations:
  1.000  0.000  0.000  0.000  0.000
  0.000  1.000  0.000  0.000  0.000
  0.000  0.000  1.000  0.000  0.000
  0.000  0.000  0.000  1.000  0.000
  0.000  0.000  0.000  0.000  1.000
atomic mag. moment =    -5.000000
atom    5   Tr[ns(na)] (up, down, total) =   5.00000  0.00000  5.00000
   spin  1
    eigenvalues: 
  1.000  1.000  1.000  1.000  1.000
    eigenvectors:
  1.000  0.000  0.000  0.000  0.000
  0.000  1.000  0.000  0.000  0.000
  0.000  0.000  1.000  0.000  0.000
  0.000  0.000  0.000  1.000  0.000
  0.000  0.000  0.000  0.000  1.000
    occupations:
  1.000  0.000  0.000  0.000  0.000
  0.000  1.000  0.000  0.000  0.000
  0.000  0.000  1.000  0.000  0.000
  0.000  0.000  0.000  1.000  0.000
  0.000  0.000  0.000  0.000  1.000
   spin  2
    eigenvalues: 
  0.000  0.000  0.000  0.000  0.000
    eigenvectors:
  1.000  0.000  0.000  0.000  0.000
  0.000  1.000  0.000  0.000  0.000
  0.000  0.000  1.000  0.000  0.000
  0.000  0.000  0.000  1.000  0.000
  0.000  0.000  0.000  0.000  1.000
    occupations:
  0.000  0.000  0.000  0.000  0.000
  0.000  0.000  0.000  0.000  0.000
  0.000  0.000  0.000  0.000  0.000
  0.000  0.000  0.000  0.000  0.000
  0.000  0.000  0.000  0.000  0.000
atomic mag. moment =     5.000000
atom    6   Tr[ns(na)] (up, down, total) =   5.00000  0.00000  5.00000
   spin  1
    eigenvalues: 
  1.000  1.000  1.000  1.000  1.000
    eigenvectors:
  1.000  0.000  0.000  0.000  0.000
  0.000  1.000  0.000  0.000  0.000
  0.000  0.000  1.000  0.000  0.000
  0.000  0.000  0.000  1.000  0.000
  0.000  0.000  0.000  0.000  1.000
    occupations:
  1.000  0.000  0.000  0.000  0.000
  0.000  1.000  0.000  0.000  0.000
  0.000  0.000  1.000  0.000  0.000
  0.000  0.000  0.000  1.000  0.000
  0.000  0.000  0.000  0.000  1.000
   spin  2
    eigenvalues: 
  0.000  0.000  0.000  0.000  0.000
    eigenvectors:
  1.000  0.000  0.000  0.000  0.000
  0.000  1.000  0.000  0.000  0.000
  0.000  0.000  1.000  0.000  0.000
  0.000  0.000  0.000  1.000  0.000
  0.000  0.000  0.000  0.000  1.000
    occupations:
  0.000  0.000  0.000  0.000  0.000
  0.000  0.000  0.000  0.000  0.000
  0.000  0.000  0.000  0.000  0.000
  0.000  0.000  0.000  0.000  0.000
  0.000  0.000  0.000  0.000  0.000
atomic mag. moment =     5.000000
atom    7   Tr[ns(na)] (up, down, total) =   0.00000  5.00000  5.00000
   spin  1
    eigenvalues: 
  0.000  0.000  0.000  0.000  0.000
    eigenvectors:
  1.000  0.000  0.000  0.000  0.000
  0.000  1.000  0.000  0.000  0.000
  0.000  0.000  1.000  0.000  0.000
  0.000  0.000  0.000  1.000  0.000
  0.000  0.000  0.000  0.000  1.000
    occupations:
  0.000  0.000  0.000  0.000  0.000
  0.000  0.000  0.000  0.000  0.000
  0.000  0.000  0.000  0.000  0.000
  0.000  0.000  0.000  0.000  0.000
  0.000  0.000  0.000  0.000  0.000
   spin  2
    eigenvalues: 
  1.000  1.000  1.000  1.000  1.000
    eigenvectors:
  1.000  0.000  0.000  0.000  0.000
  0.000  1.000  0.000  0.000  0.000
  0.000  0.000  1.000  0.000  0.000
  0.000  0.000  0.000  1.000  0.000
  0.000  0.000  0.000  0.000  1.000
    occupations:
  1.000  0.000  0.000  0.000  0.000
  0.000  1.000  0.000  0.000  0.000
  0.000  0.000  1.000  0.000  0.000
  0.000  0.000  0.000  1.000  0.000
  0.000  0.000  0.000  0.000  1.000
atomic mag. moment =    -5.000000
atom    8   Tr[ns(na)] (up, down, total) =   0.00000  5.00000  5.00000
   spin  1
    eigenvalues: 
  0.000  0.000  0.000  0.000  0.000
    eigenvectors:
  1.000  0.000  0.000  0.000  0.000
  0.000  1.000  0.000  0.000  0.000
  0.000  0.000  1.000  0.000  0.000
  0.000  0.000  0.000  1.000  0.000
  0.000  0.000  0.000  0.000  1.000
    occupations:
  0.000  0.000  0.000  0.000  0.000
  0.000  0.000  0.000  0.000  0.000
  0.000  0.000  0.000  0.000  0.000
  0.000  0.000  0.000  0.000  0.000
  0.000  0.000  0.000  0.000  0.000
   spin  2
    eigenvalues: 
  1.000  1.000  1.000  1.000  1.000
    eigenvectors:
  1.000  0.000  0.000  0.000  0.000
  0.000  1.000  0.000  0.000  0.000
  0.000  0.000  1.000  0.000  0.000
  0.000  0.000  0.000  1.000  0.000
  0.000  0.000  0.000  0.000  1.000
    occupations:
  1.000  0.000  0.000  0.000  0.000
  0.000  1.000  0.000  0.000  0.000
  0.000  0.000  1.000  0.000  0.000
  0.000  0.000  0.000  1.000  0.000
  0.000  0.000  0.000  0.000  1.000
atomic mag. moment =    -5.000000
N of occupied +U levels =   40.000000
 --- exit write_ns ---
 Atomic wfc used for LDA+U Projector are NOT orthogonalized
     Starting wfcs are  224 randomized atomic wfcs
     Checking if some PAW data can be deallocated... 

     total cpu time spent up to now is      201.4 secs

     Self-consistent Calculation

     iteration #  1     ecut=    45.00 Ry     beta= 0.10
     Davidson diagonalization with overlap
     ethr =  1.00E-02,  avg # of iterations =  4.1
 --- enter write_ns ---
 LDA+U parameters:
U(  1) =   3.1200   J(  1) =   0.7000   B(  1) =   0.0803
U(  2) =   3.1200   J(  2) =   0.7000   B(  2) =   0.0803
atom    1   Tr[ns(na)] (up, down, total) =   5.01740  0.42307  5.44047
   spin  1
    eigenvalues: 
  1.003  1.003  1.003  1.004  1.004
    eigenvectors:
  0.000  0.000  0.000  1.000  0.000
  0.000  0.230  0.770  0.000  0.000
  0.000  0.770  0.230  0.000  0.000
  0.000  0.000  0.000  0.000  1.000
  1.000  0.000  0.000  0.000  0.000
    occupations:
  1.004 -0.000 -0.000  0.000  0.000
 -0.000  1.003 -0.000  0.000  0.000
 -0.000 -0.000  1.003  0.000  0.000
  0.000  0.000  0.000  1.004 -0.000
  0.000  0.000  0.000 -0.000  1.003
   spin  2
    eigenvalues: 
  0.055  0.075  0.084  0.084  0.125
    eigenvectors:
  0.000  1.000  0.000  0.000  0.000
  0.000  0.000  0.346  0.654  0.000
  0.000  0.000  0.654  0.346  0.000
  1.000  0.000  0.000  0.000  0.000
  0.000  0.000  0.000  0.000  1.000
    occupations:
  0.075 -0.000 -0.000  0.000  0.000
 -0.000  0.084 -0.000  0.000  0.000
 -0.000 -0.000  0.084  0.000  0.000
  0.000  0.000  0.000  0.055 -0.000
  0.000  0.000  0.000 -0.000  0.125
atomic mag. moment =     4.594327
atom    2   Tr[ns(na)] (up, down, total) =   5.01759  0.41736  5.43495
   spin  1
    eigenvalues: 
  1.003  1.003  1.003  1.004  1.004
    eigenvectors:
  0.000  0.000  0.000  1.000  0.000
  0.000  0.234  0.766  0.000  0.000
  0.000  0.766  0.234  0.000  0.000
  0.000  0.000  0.000  0.000  1.000
  1.000  0.000  0.000  0.000  0.000
    occupations:
  1.004 -0.000 -0.000  0.000  0.000
 -0.000  1.003 -0.000  0.000  0.000
 -0.000 -0.000  1.003  0.000  0.000
  0.000  0.000  0.000  1.004 -0.000
  0.000  0.000  0.000 -0.000  1.003
   spin  2
    eigenvalues: 
  0.055  0.075  0.085  0.085  0.118
    eigenvectors:
  0.000  1.000  0.000  0.000  0.000
  0.000  0.000  0.406  0.594  0.000
  0.000  0.000  0.594  0.406  0.000
  1.000  0.000  0.000  0.000  0.000
  0.000  0.000  0.000  0.000  1.000
    occupations:
  0.075 -0.000 -0.000  0.000  0.000
 -0.000  0.085 -0.000  0.000  0.000
 -0.000 -0.000  0.085  0.000  0.000
  0.000  0.000  0.000  0.055 -0.000
  0.000  0.000  0.000 -0.000  0.118
atomic mag. moment =     4.600235
atom    3   Tr[ns(na)] (up, down, total) =   0.42358  5.01743  5.44101
   spin  1
    eigenvalues: 
  0.055  0.075  0.084  0.084  0.125
    eigenvectors:
  0.000  1.000  0.000  0.000  0.000
  0.000  0.000  0.402  0.598  0.000
  0.000  0.000  0.598  0.402  0.000
  1.000  0.000  0.000  0.000  0.000
  0.000  0.000  0.000  0.000  1.000
    occupations:
  0.075 -0.000 -0.000  0.000  0.000
 -0.000  0.084 -0.000  0.000  0.000
 -0.000 -0.000  0.084  0.000  0.000
  0.000  0.000  0.000  0.055 -0.000
  0.000  0.000  0.000 -0.000  0.125
   spin  2
    eigenvalues: 
  1.003  1.003  1.003  1.004  1.004
    eigenvectors:
  0.000  0.000  0.000  1.000  0.000
  0.000  0.263  0.737  0.000  0.000
  0.000  0.737  0.263  0.000  0.000
  0.000  0.000  0.000  0.000  1.000
  1.000  0.000  0.000  0.000  0.000
    occupations:
  1.004 -0.000 -0.000  0.000  0.000
 -0.000  1.003 -0.000  0.000  0.000
 -0.000 -0.000  1.003  0.000  0.000
  0.000  0.000  0.000  1.004 -0.000
  0.000  0.000  0.000 -0.000  1.003
atomic mag. moment =    -4.593854
atom    4   Tr[ns(na)] (up, down, total) =   0.41726  5.01744  5.43470
   spin  1
    eigenvalues: 
  0.055  0.074  0.085  0.085  0.118
    eigenvectors:
  0.000  1.000  0.000  0.000  0.000
  0.000  0.000  0.382  0.618  0.000
  0.000  0.000  0.618  0.382  0.000
  1.000  0.000  0.000  0.000  0.000
  0.000  0.000  0.000  0.000  1.000
    occupations:
  0.074 -0.000 -0.000  0.000  0.000
 -0.000  0.085 -0.000  0.000  0.000
 -0.000 -0.000  0.085  0.000  0.000
  0.000  0.000  0.000  0.055 -0.000
  0.000  0.000  0.000 -0.000  0.118
   spin  2
    eigenvalues: 
  1.003  1.003  1.003  1.004  1.004
    eigenvectors:
  0.000  0.000  0.000  1.000  0.000
  0.000  0.272  0.728  0.000  0.000
  0.000  0.728  0.272  0.000  0.000
  0.000  0.000  0.000  0.000  1.000
  1.000  0.000  0.000  0.000  0.000
    occupations:
  1.004 -0.000 -0.000  0.000  0.000
 -0.000  1.003 -0.000  0.000  0.000
 -0.000 -0.000  1.003  0.000  0.000
  0.000  0.000  0.000  1.004 -0.000
  0.000  0.000  0.000 -0.000  1.003
atomic mag. moment =    -4.600178
atom    5   Tr[ns(na)] (up, down, total) =   5.01758  0.41745  5.43503
   spin  1
    eigenvalues: 
  1.003  1.003  1.003  1.004  1.004
    eigenvectors:
  0.000  0.000  0.000  1.000  0.000
  0.000  0.272  0.728  0.000  0.000
  0.000  0.728  0.272  0.000  0.000
  0.000  0.000  0.000  0.000  1.000
  1.000  0.000  0.000  0.000  0.000
    occupations:
  1.004 -0.000 -0.000  0.000  0.000
 -0.000  1.003 -0.000  0.000  0.000
 -0.000 -0.000  1.003  0.000  0.000
  0.000  0.000  0.000  1.004 -0.000
  0.000  0.000  0.000 -0.000  1.003
   spin  2
    eigenvalues: 
  0.055  0.075  0.085  0.085  0.118
    eigenvectors:
  0.000  1.000  0.000  0.000  0.000
  0.000  0.000  0.483  0.517  0.000
  0.000  0.000  0.517  0.483  0.000
  1.000  0.000  0.000  0.000  0.000
  0.000  0.000  0.000  0.000  1.000
    occupations:
  0.075 -0.000 -0.000  0.000  0.000
 -0.000  0.085 -0.000  0.000  0.000
 -0.000 -0.000  0.085  0.000  0.000
  0.000  0.000  0.000  0.055 -0.000
  0.000  0.000  0.000 -0.000  0.118
atomic mag. moment =     4.600129
atom    6   Tr[ns(na)] (up, down, total) =   5.01753  0.42327  5.44080
   spin  1
    eigenvalues: 
  1.003  1.003  1.003  1.004  1.004
    eigenvectors:
  0.000  0.000  0.000  1.000  0.000
  0.000  0.294  0.706  0.000  0.000
  0.000  0.706  0.294  0.000  0.000
  0.000  0.000  0.000  0.000  1.000
  1.000  0.000  0.000  0.000  0.000
    occupations:
  1.004 -0.000 -0.000  0.000  0.000
 -0.000  1.003 -0.000  0.000  0.000
 -0.000 -0.000  1.003  0.000  0.000
  0.000  0.000  0.000  1.004 -0.000
  0.000  0.000  0.000 -0.000  1.003
   spin  2
    eigenvalues: 
  0.055  0.075  0.084  0.084  0.125
    eigenvectors:
  0.000  1.000  0.000  0.000  0.000
  0.000  0.000  0.405  0.595  0.000
  0.000  0.000  0.595  0.405  0.000
  1.000  0.000  0.000  0.000  0.000
  0.000  0.000  0.000  0.000  1.000
    occupations:
  0.075 -0.000 -0.000  0.000  0.000
 -0.000  0.084 -0.000  0.000  0.000
 -0.000 -0.000  0.084  0.000  0.000
  0.000  0.000  0.000  0.055 -0.000
  0.000  0.000  0.000 -0.000  0.125
atomic mag. moment =     4.594264
atom    7   Tr[ns(na)] (up, down, total) =   0.41710  5.01760  5.43470
   spin  1
    eigenvalues: 
  0.055  0.075  0.085  0.085  0.118
    eigenvectors:
  0.000  1.000  0.000  0.000  0.000
  0.000  0.000  0.331  0.669  0.000
  0.000  0.000  0.669  0.331  0.000
  1.000  0.000  0.000  0.000  0.000
  0.000  0.000  0.000  0.000  1.000
    occupations:
  0.075 -0.000 -0.000  0.000  0.000
 -0.000  0.085 -0.000  0.000  0.000
 -0.000 -0.000  0.085  0.000  0.000
  0.000  0.000  0.000  0.055 -0.000
  0.000  0.000  0.000 -0.000  0.118
   spin  2
    eigenvalues: 
  1.003  1.003  1.003  1.004  1.004
    eigenvectors:
  0.000  0.000  0.000  1.000  0.000
  0.000  0.362  0.638  0.000  0.000
  0.000  0.638  0.362  0.000  0.000
  0.000  0.000  0.000  0.000  1.000
  1.000  0.000  0.000  0.000  0.000
    occupations:
  1.004 -0.000 -0.000  0.000  0.000
 -0.000  1.003 -0.000  0.000  0.000
 -0.000 -0.000  1.003  0.000  0.000
  0.000  0.000  0.000  1.004 -0.000
  0.000  0.000  0.000 -0.000  1.003
atomic mag. moment =    -4.600499
atom    8   Tr[ns(na)] (up, down, total) =   0.42395  5.01739  5.44134
   spin  1
    eigenvalues: 
  0.055  0.075  0.084  0.084  0.125
    eigenvectors:
  0.000  1.000  0.000  0.000  0.000
  0.000  0.000  0.291  0.709  0.000
  0.000  0.000  0.709  0.291  0.000
  1.000  0.000  0.000  0.000  0.000
  0.000  0.000  0.000  0.000  1.000
    occupations:
  0.075 -0.000 -0.000  0.000  0.000
 -0.000  0.084 -0.000  0.000  0.000
 -0.000 -0.000  0.084  0.000  0.000
  0.000  0.000  0.000  0.055 -0.000
  0.000  0.000  0.000 -0.000  0.125
   spin  2
    eigenvalues: 
  1.003  1.003  1.003  1.004  1.004
    eigenvectors:
  0.000  0.000  0.000  1.000  0.000
  0.000  0.288  0.712  0.000  0.000
  0.000  0.712  0.288  0.000  0.000
  0.000  0.000  0.000  0.000  1.000
  1.000  0.000  0.000  0.000  0.000
    occupations:
  1.004 -0.000 -0.000  0.000  0.000
 -0.000  1.003 -0.000  0.000  0.000
 -0.000 -0.000  1.003  0.000  0.000
  0.000  0.000  0.000  1.004 -0.000
  0.000  0.000  0.000 -0.000  1.003
atomic mag. moment =    -4.593444
N of occupied +U levels =   43.502993
 --- exit write_ns ---

     total cpu time spent up to now is      758.1 secs

     total energy              =  -14687.23257146 Ry
     Harris-Foulkes estimate   =  -14685.77241074 Ry
     estimated scf accuracy    <      11.60544599 Ry

     total magnetization       =    -0.00 Bohr mag/cell
     absolute magnetization    =    41.38 Bohr mag/cell

     iteration #  2     ecut=    45.00 Ry     beta= 0.10
     Davidson diagonalization with overlap
     ethr =  3.92E-03,  avg # of iterations =  1.0

     total cpu time spent up to now is     1084.4 secs

     total energy              =  -14692.51589705 Ry
     Harris-Foulkes estimate   =  -14687.30612379 Ry
     estimated scf accuracy    <       9.33765336 Ry

     total magnetization       =    -0.01 Bohr mag/cell
     absolute magnetization    =    41.04 Bohr mag/cell

     iteration #  3     ecut=    45.00 Ry     beta= 0.10
     Davidson diagonalization with overlap
     ethr =  3.15E-03,  avg # of iterations =  2.1

     total cpu time spent up to now is     1500.0 secs

     total energy              =  -14693.66266315 Ry
     Harris-Foulkes estimate   =  -14693.91148991 Ry
     estimated scf accuracy    <      14.26467644 Ry

     total magnetization       =     0.09 Bohr mag/cell
     absolute magnetization    =    38.54 Bohr mag/cell

     iteration #  4     ecut=    45.00 Ry     beta= 0.10
     Davidson diagonalization with overlap
     ethr =  3.15E-03,  avg # of iterations =  1.1

     total cpu time spent up to now is     1851.2 secs

     total energy              =  -14693.72212441 Ry
     Harris-Foulkes estimate   =  -14693.84523800 Ry
     estimated scf accuracy    <       4.40035664 Ry

     total magnetization       =    -0.05 Bohr mag/cell
     absolute magnetization    =    38.54 Bohr mag/cell

     iteration #  5     ecut=    45.00 Ry     beta= 0.10
     Davidson diagonalization with overlap
     ethr =  1.49E-03,  avg # of iterations =  1.1

     total cpu time spent up to now is     2181.3 secs

     total energy              =  -14693.57873850 Ry
     Harris-Foulkes estimate   =  -14693.73962816 Ry
     estimated scf accuracy    <       2.98896011 Ry

     total magnetization       =     0.02 Bohr mag/cell
     absolute magnetization    =    38.59 Bohr mag/cell

     iteration #  6     ecut=    45.00 Ry     beta= 0.10
     Davidson diagonalization with overlap
     ethr =  1.01E-03,  avg # of iterations =  1.1

     total cpu time spent up to now is     2519.5 secs

     total energy              =  -14692.68427920 Ry
     Harris-Foulkes estimate   =  -14693.60757845 Ry
     estimated scf accuracy    <       4.15713585 Ry

     total magnetization       =    -0.14 Bohr mag/cell
     absolute magnetization    =    38.66 Bohr mag/cell

     iteration #  7     ecut=    45.00 Ry     beta= 0.10
     Davidson diagonalization with overlap
     ethr =  1.01E-03,  avg # of iterations =  3.8

     total cpu time spent up to now is     3211.8 secs

     total energy              =  -14693.73334723 Ry
     Harris-Foulkes estimate   =  -14693.62167382 Ry
     estimated scf accuracy    <       4.98288532 Ry

     total magnetization       =     0.32 Bohr mag/cell
     absolute magnetization    =    37.75 Bohr mag/cell

     iteration #  8     ecut=    45.00 Ry     beta= 0.10
     Davidson diagonalization with overlap
     ethr =  1.01E-03,  avg # of iterations =  2.0

     total cpu time spent up to now is     3591.5 secs

     total energy              =  -14693.96258062 Ry
     Harris-Foulkes estimate   =  -14693.97139141 Ry
     estimated scf accuracy    <       0.26489203 Ry

     total magnetization       =    -0.02 Bohr mag/cell
     absolute magnetization    =    37.19 Bohr mag/cell

     iteration #  9     ecut=    45.00 Ry     beta= 0.10
     Davidson diagonalization with overlap
     c_bands:  4 eigenvalues not converged
     ethr =  8.95E-05,  avg # of iterations =  4.6

     total cpu time spent up to now is     4131.3 secs

     total energy              =  -14693.98808692 Ry
     Harris-Foulkes estimate   =  -14693.98117826 Ry
     estimated scf accuracy    <       0.14049171 Ry

     total magnetization       =    -0.00 Bohr mag/cell
     absolute magnetization    =    37.11 Bohr mag/cell

     iteration # 10     ecut=    45.00 Ry     beta= 0.10
     Davidson diagonalization with overlap
     ethr =  4.75E-05,  avg # of iterations =  2.7

     total cpu time spent up to now is     4535.1 secs

     total energy              =  -14693.96512400 Ry
     Harris-Foulkes estimate   =  -14694.00141255 Ry
     estimated scf accuracy    <       0.33314709 Ry

     total magnetization       =     0.06 Bohr mag/cell
     absolute magnetization    =    36.83 Bohr mag/cell

     iteration # 11     ecut=    45.00 Ry     beta= 0.10
     Davidson diagonalization with overlap
     ethr =  4.75E-05,  avg # of iterations =  2.5

     total cpu time spent up to now is     4946.4 secs

     total energy              =  -14693.98493275 Ry
     Harris-Foulkes estimate   =  -14693.98431319 Ry
     estimated scf accuracy    <       0.02505588 Ry

     total magnetization       =     0.01 Bohr mag/cell
     absolute magnetization    =    36.94 Bohr mag/cell

     iteration # 12     ecut=    45.00 Ry     beta= 0.10
     Davidson diagonalization with overlap
     c_bands:  3 eigenvalues not converged
     ethr =  8.46E-06,  avg # of iterations =  4.4

     total cpu time spent up to now is     5459.2 secs

     total energy              =  -14693.98784558 Ry
     Harris-Foulkes estimate   =  -14693.98570133 Ry
     estimated scf accuracy    <       0.00825109 Ry

     total magnetization       =     0.00 Bohr mag/cell
     absolute magnetization    =    36.93 Bohr mag/cell

     iteration # 13     ecut=    45.00 Ry     beta= 0.10
     Davidson diagonalization with overlap
     c_bands:  1 eigenvalues not converged
     ethr =  2.79E-06,  avg # of iterations =  4.5

     total cpu time spent up to now is     5968.5 secs

     total energy              =  -14693.98970735 Ry
     Harris-Foulkes estimate   =  -14693.98811291 Ry
     estimated scf accuracy    <       0.00677392 Ry

     total magnetization       =     0.00 Bohr mag/cell
     absolute magnetization    =    36.92 Bohr mag/cell

     iteration # 14     ecut=    45.00 Ry     beta= 0.10
     Davidson diagonalization with overlap
     ethr =  2.29E-06,  avg # of iterations =  5.1

     total cpu time spent up to now is     6503.8 secs

     total energy              =  -14693.98989033 Ry
     Harris-Foulkes estimate   =  -14693.99053931 Ry
     estimated scf accuracy    <       0.04863464 Ry

     total magnetization       =    -0.01 Bohr mag/cell
     absolute magnetization    =    36.91 Bohr mag/cell

     iteration # 15     ecut=    45.00 Ry     beta= 0.10
     Davidson diagonalization with overlap
     ethr =  2.29E-06,  avg # of iterations =  4.5

     total cpu time spent up to now is     7004.8 secs

     total energy              =  -14693.99078512 Ry
     Harris-Foulkes estimate   =  -14693.99058051 Ry
     estimated scf accuracy    <       0.00695961 Ry

     total magnetization       =     0.00 Bohr mag/cell
     absolute magnetization    =    36.90 Bohr mag/cell

     iteration # 16     ecut=    45.00 Ry     beta= 0.10
     Davidson diagonalization with overlap
     ethr =  2.29E-06,  avg # of iterations =  1.0

     total cpu time spent up to now is     7327.8 secs

     total energy              =  -14693.99102027 Ry
     Harris-Foulkes estimate   =  -14693.99091038 Ry
     estimated scf accuracy    <       0.00051387 Ry

     total magnetization       =    -0.00 Bohr mag/cell
     absolute magnetization    =    36.90 Bohr mag/cell

     iteration # 17     ecut=    45.00 Ry     beta= 0.10
     Davidson diagonalization with overlap
     ethr =  1.74E-07,  avg # of iterations =  3.2

     total cpu time spent up to now is     7772.4 secs

     total energy              =  -14693.99114822 Ry
     Harris-Foulkes estimate   =  -14693.99104043 Ry
     estimated scf accuracy    <       0.00027231 Ry

     total magnetization       =    -0.00 Bohr mag/cell
     absolute magnetization    =    36.89 Bohr mag/cell

     iteration # 18     ecut=    45.00 Ry     beta= 0.10
     Davidson diagonalization with overlap
     ethr =  9.20E-08,  avg # of iterations =  2.1

     total cpu time spent up to now is     8146.5 secs

     total energy              =  -14693.99123146 Ry
     Harris-Foulkes estimate   =  -14693.99115666 Ry
     estimated scf accuracy    <       0.00016156 Ry

     total magnetization       =    -0.00 Bohr mag/cell
     absolute magnetization    =    36.88 Bohr mag/cell

     iteration # 19     ecut=    45.00 Ry     beta= 0.10
     Davidson diagonalization with overlap
     ethr =  5.46E-08,  avg # of iterations =  2.1

     total cpu time spent up to now is     8533.4 secs

     total energy              =  -14693.99125548 Ry
     Harris-Foulkes estimate   =  -14693.99123904 Ry
     estimated scf accuracy    <       0.00012132 Ry

     total magnetization       =     0.00 Bohr mag/cell
     absolute magnetization    =    36.87 Bohr mag/cell

     iteration # 20     ecut=    45.00 Ry     beta= 0.10
     Davidson diagonalization with overlap
     ethr =  4.10E-08,  avg # of iterations =  1.0

     total cpu time spent up to now is     8864.1 secs

     total energy              =  -14693.99128800 Ry
     Harris-Foulkes estimate   =  -14693.99125821 Ry
     estimated scf accuracy    <       0.00011365 Ry

     total magnetization       =     0.00 Bohr mag/cell
     absolute magnetization    =    36.87 Bohr mag/cell

     iteration # 21     ecut=    45.00 Ry     beta= 0.10
     Davidson diagonalization with overlap
     ethr =  3.84E-08,  avg # of iterations =  1.3

     total cpu time spent up to now is     9207.1 secs

     total energy              =  -14693.99129832 Ry
     Harris-Foulkes estimate   =  -14693.99128956 Ry
     estimated scf accuracy    <       0.00007430 Ry

     total magnetization       =    -0.00 Bohr mag/cell
     absolute magnetization    =    36.87 Bohr mag/cell

     iteration # 22     ecut=    45.00 Ry     beta= 0.10
     Davidson diagonalization with overlap
     ethr =  2.51E-08,  avg # of iterations =  1.0

     total cpu time spent up to now is     9530.9 secs

     total energy              =  -14693.99130709 Ry
     Harris-Foulkes estimate   =  -14693.99130253 Ry
     estimated scf accuracy    <       0.00015257 Ry

     total magnetization       =    -0.00 Bohr mag/cell
     absolute magnetization    =    36.87 Bohr mag/cell

     iteration # 23     ecut=    45.00 Ry     beta= 0.10
     Davidson diagonalization with overlap
     ethr =  2.51E-08,  avg # of iterations =  1.2

     total cpu time spent up to now is     9857.5 secs

     total energy              =  -14693.99131097 Ry
     Harris-Foulkes estimate   =  -14693.99130883 Ry
     estimated scf accuracy    <       0.00002437 Ry

     total magnetization       =    -0.00 Bohr mag/cell
     absolute magnetization    =    36.87 Bohr mag/cell

     iteration # 24     ecut=    45.00 Ry     beta= 0.10
     Davidson diagonalization with overlap
     ethr =  8.23E-09,  avg # of iterations =  1.2

     total cpu time spent up to now is    10190.0 secs

     total energy              =  -14693.99131312 Ry
     Harris-Foulkes estimate   =  -14693.99131179 Ry
     estimated scf accuracy    <       0.00005938 Ry

     total magnetization       =    -0.00 Bohr mag/cell
     absolute magnetization    =    36.87 Bohr mag/cell

     iteration # 25     ecut=    45.00 Ry     beta= 0.10
     Davidson diagonalization with overlap
     ethr =  8.23E-09,  avg # of iterations =  1.0

     total cpu time spent up to now is    10523.2 secs

     total energy              =  -14693.99131544 Ry
     Harris-Foulkes estimate   =  -14693.99131416 Ry
     estimated scf accuracy    <       0.00002157 Ry

     total magnetization       =    -0.00 Bohr mag/cell
     absolute magnetization    =    36.88 Bohr mag/cell

     iteration # 26     ecut=    45.00 Ry     beta= 0.10
     Davidson diagonalization with overlap
     ethr =  7.29E-09,  avg # of iterations =  1.0

     total cpu time spent up to now is    10843.4 secs

     total energy              =  -14693.99131710 Ry
     Harris-Foulkes estimate   =  -14693.99131589 Ry
     estimated scf accuracy    <       0.00000747 Ry

     total magnetization       =    -0.00 Bohr mag/cell
     absolute magnetization    =    36.88 Bohr mag/cell

     iteration # 27     ecut=    45.00 Ry     beta= 0.10
     Davidson diagonalization with overlap
     ethr =  2.52E-09,  avg # of iterations =  1.2

     total cpu time spent up to now is    11181.5 secs

     total energy              =  -14693.99131843 Ry
     Harris-Foulkes estimate   =  -14693.99131762 Ry
     estimated scf accuracy    <       0.00000783 Ry

     total magnetization       =    -0.00 Bohr mag/cell
     absolute magnetization    =    36.88 Bohr mag/cell

     iteration # 28     ecut=    45.00 Ry     beta= 0.10
     Davidson diagonalization with overlap
     ethr =  2.52E-09,  avg # of iterations =  1.1

     total cpu time spent up to now is    11522.6 secs

     total energy              =  -14693.99131999 Ry
     Harris-Foulkes estimate   =  -14693.99131920 Ry
     estimated scf accuracy    <       0.00000856 Ry

     total magnetization       =     0.00 Bohr mag/cell
     absolute magnetization    =    36.88 Bohr mag/cell

     iteration # 29     ecut=    45.00 Ry     beta= 0.10
     Davidson diagonalization with overlap
     ethr =  2.52E-09,  avg # of iterations =  1.0

     total cpu time spent up to now is    11849.2 secs

     total energy              =  -14693.99132109 Ry
     Harris-Foulkes estimate   =  -14693.99132042 Ry
     estimated scf accuracy    <       0.00000506 Ry

     total magnetization       =     0.00 Bohr mag/cell
     absolute magnetization    =    36.88 Bohr mag/cell

     iteration # 30     ecut=    45.00 Ry     beta= 0.10
     Davidson diagonalization with overlap
     ethr =  1.71E-09,  avg # of iterations =  1.0

     total cpu time spent up to now is    12181.3 secs

     total energy              =  -14693.99132185 Ry
     Harris-Foulkes estimate   =  -14693.99132139 Ry
     estimated scf accuracy    <       0.00000560 Ry

     total magnetization       =     0.00 Bohr mag/cell
     absolute magnetization    =    36.88 Bohr mag/cell

     iteration # 31     ecut=    45.00 Ry     beta= 0.10
     Davidson diagonalization with overlap
     ethr =  1.71E-09,  avg # of iterations =  1.0

     total cpu time spent up to now is    12505.3 secs

     total energy              =  -14693.99132290 Ry
     Harris-Foulkes estimate   =  -14693.99132240 Ry
     estimated scf accuracy    <       0.00000236 Ry

     total magnetization       =     0.00 Bohr mag/cell
     absolute magnetization    =    36.88 Bohr mag/cell

     iteration # 32     ecut=    45.00 Ry     beta= 0.10
     Davidson diagonalization with overlap
     ethr =  7.96E-10,  avg # of iterations =  1.0

     total cpu time spent up to now is    12832.6 secs

     total energy              =  -14693.99132340 Ry
     Harris-Foulkes estimate   =  -14693.99132298 Ry
     estimated scf accuracy    <       0.00000374 Ry

     total magnetization       =     0.00 Bohr mag/cell
     absolute magnetization    =    36.88 Bohr mag/cell

     iteration # 33     ecut=    45.00 Ry     beta= 0.10
     Davidson diagonalization with overlap
     ethr =  7.96E-10,  avg # of iterations =  1.0

     total cpu time spent up to now is    13161.2 secs

     total energy              =  -14693.99132394 Ry
     Harris-Foulkes estimate   =  -14693.99132350 Ry
     estimated scf accuracy    <       0.00000228 Ry

     total magnetization       =     0.00 Bohr mag/cell
     absolute magnetization    =    36.88 Bohr mag/cell

     iteration # 34     ecut=    45.00 Ry     beta= 0.10
     Davidson diagonalization with overlap
     ethr =  7.69E-10,  avg # of iterations =  1.0
 
     Magnetic moment per site:
     atom:    1    charge:   13.5435    magn:    4.1994    constr:    0.0000
     atom:    2    charge:   13.5490    magn:    4.1669    constr:    0.0000
     atom:    3    charge:   13.5434    magn:   -4.1995    constr:    0.0000
     atom:    4    charge:   13.5490    magn:   -4.1669    constr:    0.0000
     atom:    5    charge:   13.5491    magn:    4.1669    constr:    0.0000
     atom:    6    charge:   13.5435    magn:    4.1996    constr:    0.0000
     atom:    7    charge:   13.5491    magn:   -4.1668    constr:    0.0000
     atom:    8    charge:   13.5436    magn:   -4.1995    constr:    0.0000
     atom:    9    charge:    9.0865    magn:    0.0293    constr:    0.0000
     atom:   10    charge:    9.0901    magn:   -0.0441    constr:    0.0000
     atom:   11    charge:    9.0865    magn:   -0.0294    constr:    0.0000
     atom:   12    charge:    9.0900    magn:    0.0440    constr:    0.0000
     atom:   13    charge:    9.0889    magn:    0.0344    constr:    0.0000
     atom:   14    charge:    9.0869    magn:    0.0289    constr:    0.0000
     atom:   15    charge:    9.0889    magn:   -0.0345    constr:    0.0000
     atom:   16    charge:    9.0870    magn:   -0.0289    constr:    0.0000
     atom:   17    charge:    9.0872    magn:    0.0288    constr:    0.0000
     atom:   18    charge:    9.0892    magn:    0.0345    constr:    0.0000
     atom:   19    charge:    9.0872    magn:   -0.0288    constr:    0.0000
     atom:   20    charge:    9.0892    magn:   -0.0345    constr:    0.0000
     atom:   21    charge:    9.0868    magn:    0.0293    constr:    0.0000
     atom:   22    charge:    9.0903    magn:    0.0441    constr:    0.0000
     atom:   23    charge:    9.0867    magn:   -0.0293    constr:    0.0000
     atom:   24    charge:    9.0903    magn:   -0.0441    constr:    0.0000

     total cpu time spent up to now is    13486.0 secs

     End of self-consistent calculation
 --- enter write_ns ---
 LDA+U parameters:
U(  1) =   3.1200   J(  1) =   0.7000   B(  1) =   0.0803
U(  2) =   3.1200   J(  2) =   0.7000   B(  2) =   0.0803
atom    1   Tr[ns(na)] (up, down, total) =   4.96723  0.76570  5.73293
   spin  1
    eigenvalues: 
  0.983  0.993  0.993  0.996  1.002
    eigenvectors:
  0.000  0.000  0.000  1.000  0.000
  0.000  0.378  0.622  0.000  0.000
  0.000  0.622  0.378  0.000  0.000
  0.000  0.000  0.000  0.000  1.000
  1.000  0.000  0.000  0.000  0.000
    occupations:
  0.996 -0.000 -0.000  0.000  0.000
 -0.000  0.993 -0.000  0.000  0.000
 -0.000 -0.000  0.993  0.000  0.000
  0.000  0.000  0.000  1.002 -0.000
  0.000  0.000  0.000 -0.000  0.983
   spin  2
    eigenvalues: 
  0.067  0.130  0.152  0.152  0.265
    eigenvectors:
  0.000  1.000  0.000  0.000  0.000
  0.000  0.000  0.254  0.746  0.000
  0.000  0.000  0.746  0.254  0.000
  1.000  0.000  0.000  0.000  0.000
  0.000  0.000  0.000  0.000  1.000
    occupations:
  0.130 -0.000 -0.000  0.000  0.000
 -0.000  0.152 -0.000  0.000  0.000
 -0.000 -0.000  0.152  0.000  0.000
  0.000  0.000  0.000  0.067 -0.000
  0.000  0.000  0.000 -0.000  0.265
atomic mag. moment =     4.201532
atom    2   Tr[ns(na)] (up, down, total) =   4.96542  0.79281  5.75823
   spin  1
    eigenvalues: 
  0.983  0.992  0.992  0.996  1.002
    eigenvectors:
  0.000  0.000  0.000  1.000  0.000
  0.000  0.288  0.712  0.000  0.000
  0.000  0.712  0.288  0.000  0.000
  0.000  0.000  0.000  0.000  1.000
  1.000  0.000  0.000  0.000  0.000
    occupations:
  0.996 -0.000 -0.000  0.000  0.000
 -0.000  0.992 -0.000  0.000  0.000
 -0.000 -0.000  0.992  0.000  0.000
  0.000  0.000  0.000  1.002 -0.000
  0.000  0.000  0.000 -0.000  0.983
   spin  2
    eigenvalues: 
  0.066  0.146  0.152  0.152  0.277
    eigenvectors:
  0.000  1.000  0.000  0.000  0.000
  0.000  0.000  0.324  0.676  0.000
  0.000  0.000  0.676  0.324  0.000
  1.000  0.000  0.000  0.000  0.000
  0.000  0.000  0.000  0.000  1.000
    occupations:
  0.146 -0.000 -0.000  0.000  0.000
 -0.000  0.152 -0.000  0.000  0.000
 -0.000 -0.000  0.152  0.000  0.000
  0.000  0.000  0.000  0.066 -0.000
  0.000  0.000  0.000 -0.000  0.277
atomic mag. moment =     4.172612
atom    3   Tr[ns(na)] (up, down, total) =   0.76559  4.96724  5.73283
   spin  1
    eigenvalues: 
  0.067  0.130  0.152  0.152  0.265
    eigenvectors:
  0.000  1.000  0.000  0.000  0.000
  0.000  0.000  0.297  0.703  0.000
  0.000  0.000  0.703  0.297  0.000
  1.000  0.000  0.000  0.000  0.000
  0.000  0.000  0.000  0.000  1.000
    occupations:
  0.130 -0.000 -0.000  0.000  0.000
 -0.000  0.152 -0.000  0.000  0.000
 -0.000 -0.000  0.152  0.000  0.000
  0.000  0.000  0.000  0.067 -0.000
  0.000  0.000  0.000 -0.000  0.265
   spin  2
    eigenvalues: 
  0.983  0.993  0.993  0.996  1.002
    eigenvectors:
  0.000  0.000  0.000  1.000  0.000
  0.000  0.238  0.762  0.000  0.000
  0.000  0.762  0.238  0.000  0.000
  0.000  0.000  0.000  0.000  1.000
  1.000  0.000  0.000  0.000  0.000
    occupations:
  0.996 -0.000 -0.000  0.000  0.000
 -0.000  0.993 -0.000  0.000  0.000
 -0.000 -0.000  0.993  0.000  0.000
  0.000  0.000  0.000  1.002 -0.000
  0.000  0.000  0.000 -0.000  0.983
atomic mag. moment =    -4.201646
atom    4   Tr[ns(na)] (up, down, total) =   0.79280  4.96544  5.75824
   spin  1
    eigenvalues: 
  0.066  0.146  0.152  0.152  0.277
    eigenvectors:
  0.000  1.000  0.000  0.000  0.000
  0.000  0.000  0.227  0.773  0.000
  0.000  0.000  0.773  0.227  0.000
  1.000  0.000  0.000  0.000  0.000
  0.000  0.000  0.000  0.000  1.000
    occupations:
  0.146 -0.000 -0.000  0.000  0.000
 -0.000  0.152 -0.000  0.000  0.000
 -0.000 -0.000  0.152  0.000  0.000
  0.000  0.000  0.000  0.066 -0.000
  0.000  0.000  0.000 -0.000  0.277
   spin  2
    eigenvalues: 
  0.983  0.992  0.992  0.996  1.002
    eigenvectors:
  0.000  0.000  0.000  1.000  0.000
  0.000  0.261  0.739  0.000  0.000
  0.000  0.739  0.261  0.000  0.000
  0.000  0.000  0.000  0.000  1.000
  1.000  0.000  0.000  0.000  0.000
    occupations:
  0.996 -0.000 -0.000  0.000  0.000
 -0.000  0.992 -0.000  0.000  0.000
 -0.000 -0.000  0.992  0.000  0.000
  0.000  0.000  0.000  1.002 -0.000
  0.000  0.000  0.000 -0.000  0.983
atomic mag. moment =    -4.172644
atom    5   Tr[ns(na)] (up, down, total) =   4.96541  0.79281  5.75822
   spin  1
    eigenvalues: 
  0.983  0.992  0.992  0.996  1.002
    eigenvectors:
  0.000  0.000  0.000  1.000  0.000
  0.000  0.363  0.637  0.000  0.000
  0.000  0.637  0.363  0.000  0.000
  0.000  0.000  0.000  0.000  1.000
  1.000  0.000  0.000  0.000  0.000
    occupations:
  0.996 -0.000 -0.000  0.000  0.000
 -0.000  0.992 -0.000  0.000  0.000
 -0.000 -0.000  0.992  0.000  0.000
  0.000  0.000  0.000  1.002 -0.000
  0.000  0.000  0.000 -0.000  0.983
   spin  2
    eigenvalues: 
  0.066  0.146  0.152  0.152  0.277
    eigenvectors:
  0.000  1.000  0.000  0.000  0.000
  0.000  0.000  0.268  0.732  0.000
  0.000  0.000  0.732  0.268  0.000
  1.000  0.000  0.000  0.000  0.000
  0.000  0.000  0.000  0.000  1.000
    occupations:
  0.146 -0.000 -0.000  0.000  0.000
 -0.000  0.152 -0.000  0.000  0.000
 -0.000 -0.000  0.152  0.000  0.000
  0.000  0.000  0.000  0.066 -0.000
  0.000  0.000  0.000 -0.000  0.277
atomic mag. moment =     4.172593
atom    6   Tr[ns(na)] (up, down, total) =   4.96724  0.76551  5.73275
   spin  1
    eigenvalues: 
  0.983  0.993  0.993  0.996  1.002
    eigenvectors:
  0.000  0.000  0.000  1.000  0.000
  0.000  0.319  0.681  0.000  0.000
  0.000  0.681  0.319  0.000  0.000
  0.000  0.000  0.000  0.000  1.000
  1.000  0.000  0.000  0.000  0.000
    occupations:
  0.996 -0.000 -0.000  0.000  0.000
 -0.000  0.993 -0.000  0.000  0.000
 -0.000 -0.000  0.993  0.000  0.000
  0.000  0.000  0.000  1.002 -0.000
  0.000  0.000  0.000 -0.000  0.983
   spin  2
    eigenvalues: 
  0.067  0.130  0.152  0.152  0.265
    eigenvectors:
  0.000  1.000  0.000  0.000  0.000
  0.000  0.000  0.280  0.720  0.000
  0.000  0.000  0.720  0.280  0.000
  1.000  0.000  0.000  0.000  0.000
  0.000  0.000  0.000  0.000  1.000
    occupations:
  0.130 -0.000 -0.000  0.000  0.000
 -0.000  0.152 -0.000  0.000  0.000
 -0.000 -0.000  0.152  0.000  0.000
  0.000  0.000  0.000  0.067 -0.000
  0.000  0.000  0.000 -0.000  0.265
atomic mag. moment =     4.201735
atom    7   Tr[ns(na)] (up, down, total) =   0.79279  4.96538  5.75818
   spin  1
    eigenvalues: 
  0.066  0.146  0.152  0.152  0.277
    eigenvectors:
  0.000  1.000  0.000  0.000  0.000
  0.000  0.000  0.369  0.631  0.000
  0.000  0.000  0.631  0.369  0.000
  1.000  0.000  0.000  0.000  0.000
  0.000  0.000  0.000  0.000  1.000
    occupations:
  0.146 -0.000 -0.000  0.000  0.000
 -0.000  0.152 -0.000  0.000  0.000
 -0.000 -0.000  0.152  0.000  0.000
  0.000  0.000  0.000  0.066 -0.000
  0.000  0.000  0.000 -0.000  0.277
   spin  2
    eigenvalues: 
  0.983  0.992  0.992  0.996  1.002
    eigenvectors:
  0.000  0.000  0.000  1.000  0.000
  0.000  0.326  0.674  0.000  0.000
  0.000  0.674  0.326  0.000  0.000
  0.000  0.000  0.000  0.000  1.000
  1.000  0.000  0.000  0.000  0.000
    occupations:
  0.996 -0.000 -0.000  0.000  0.000
 -0.000  0.992 -0.000  0.000  0.000
 -0.000 -0.000  0.992  0.000  0.000
  0.000  0.000  0.000  1.002 -0.000
  0.000  0.000  0.000 -0.000  0.983
atomic mag. moment =    -4.172590
atom    8   Tr[ns(na)] (up, down, total) =   0.76561  4.96723  5.73284
   spin  1
    eigenvalues: 
  0.067  0.130  0.152  0.152  0.265
    eigenvectors:
  0.000  1.000  0.000  0.000  0.000
  0.000  0.000  0.317  0.683  0.000
  0.000  0.000  0.683  0.317  0.000
  1.000  0.000  0.000  0.000  0.000
  0.000  0.000  0.000  0.000  1.000
    occupations:
  0.130 -0.000 -0.000  0.000  0.000
 -0.000  0.152 -0.000  0.000  0.000
 -0.000 -0.000  0.152  0.000  0.000
  0.000  0.000  0.000  0.067 -0.000
  0.000  0.000  0.000 -0.000  0.265
   spin  2
    eigenvalues: 
  0.983  0.993  0.993  0.996  1.002
    eigenvectors:
  0.000  0.000  0.000  1.000  0.000
  0.000  0.301  0.699  0.000  0.000
  0.000  0.699  0.301  0.000  0.000
  0.000  0.000  0.000  0.000  1.000
  1.000  0.000  0.000  0.000  0.000
    occupations:
  0.996 -0.000 -0.000  0.000  0.000
 -0.000  0.993 -0.000  0.000  0.000
 -0.000 -0.000  0.993  0.000  0.000
  0.000  0.000  0.000  1.002 -0.000
  0.000  0.000  0.000 -0.000  0.983
atomic mag. moment =    -4.201624
N of occupied +U levels =   45.964215
 --- exit write_ns ---

     Number of k-points >= 100: set verbosity='high' to print the bands.

     the Fermi energy is    15.5164 ev

!    total energy              =  -14693.99132571 Ry
     Harris-Foulkes estimate   =  -14693.99132396 Ry
     estimated scf accuracy    <       0.00000028 Ry

     total all-electron energy =   -626921.587048 Ry

     The total energy is the sum of the following terms:

     one-electron contribution =    -698.78253838 Ry
     hartree contribution      =     651.77709479 Ry
     xc contribution           =    -738.05353394 Ry
     ewald contribution        =   -2207.56121140 Ry
     Hubbard energy            =       0.47187764 Ry
     one-center paw contrib.   =  -11701.84301441 Ry

     total magnetization       =     0.00 Bohr mag/cell
     absolute magnetization    =    36.88 Bohr mag/cell

     convergence has been achieved in  34 iterations

     Writing output data file mnau2.save/
 
     init_run     :    189.48s CPU    193.98s WALL (       1 calls)
     electrons    :  12986.36s CPU  13284.87s WALL (       1 calls)

     Called by init_run:
     wfcinit      :    186.10s CPU    190.44s WALL (       1 calls)
     potinit      :      1.54s CPU      1.56s WALL (       1 calls)
     hinit0       :      1.07s CPU      1.16s WALL (       1 calls)

     Called by electrons:
     c_bands      :  11620.57s CPU  11864.48s WALL (      34 calls)
     sum_band     :   1316.06s CPU   1369.86s WALL (      34 calls)
     v_of_rho     :      3.43s CPU      3.46s WALL (      35 calls)
     newd         :     11.86s CPU     12.03s WALL (      35 calls)
     PAW_pot      :     34.58s CPU     34.91s WALL (      35 calls)
     mix_rho      :      0.76s CPU      0.83s WALL (      34 calls)

     Called by c_bands:
     init_us_2    :     38.78s CPU     39.17s WALL (   18900 calls)
     cegterg      :  11288.46s CPU  11524.61s WALL (    9181 calls)

     Called by sum_band:
     sum_band:bec :     16.31s CPU     16.44s WALL (    9180 calls)
     addusdens    :     18.84s CPU     19.00s WALL (      34 calls)

     Called by *egterg:
     h_psi        :   4619.16s CPU   4758.51s WALL (   28142 calls)
     s_psi        :    737.67s CPU    739.24s WALL (   28412 calls)
     g_psi        :      7.24s CPU      7.31s WALL (   18691 calls)
     cdiaghg      :   3410.21s CPU   3491.65s WALL (   27872 calls)

     Called by h_psi:
     h_psi:pot    :   4060.11s CPU   4194.94s WALL (   28142 calls)
     h_psi:calbec :   1059.54s CPU   1123.31s WALL (   28142 calls)
     vloc_psi     :   2272.97s CPU   2342.75s WALL (   28142 calls)
     add_vuspsi   :    727.10s CPU    728.52s WALL (   28142 calls)
     vhpsi        :    550.04s CPU    554.43s WALL (   28142 calls)

     General routines
     calbec       :   2051.54s CPU   2151.11s WALL (   74914 calls)
     fft          :      2.53s CPU      2.55s WALL (     871 calls)
     ffts         :      0.10s CPU      0.10s WALL (     138 calls)
     fftw         :   2671.41s CPU   2753.84s WALL ( 8507738 calls)
     interpolate  :      0.22s CPU      0.23s WALL (      70 calls)
     davcio       :      0.02s CPU      0.08s WALL (     270 calls)
 
     Parallel routines
     fft_scatt_xy :    165.43s CPU    170.11s WALL ( 8508747 calls)
     fft_scatt_yz :   1748.29s CPU   1802.39s WALL ( 8508747 calls)

     Hubbard U routines
     new_ns       :     65.91s CPU     70.80s WALL (      34 calls)
     vhpsi        :    550.04s CPU    554.43s WALL (   28142 calls)
 
     PWSCF        :     3h41m CPU       41h 3m WALL

      48h
 
   This run was terminated on:   5:17:16  19May2019            

=------------------------------------------------------------------------------=
   JOB DONE.
=------------------------------------------------------------------------------=
