
     Program PWSCF v.6.3MaX starts on 15May2019 at 18:48:35 

     This program is part of the open-source Quantum ESPRESSO suite
     for quantum simulation of materials; please cite
         "P. Giannozzi et al., J. Phys.:Condens. Matter 21 395502 (2009);
         "P. Giannozzi et al., J. Phys.:Condens. Matter 29 465901 (2017);
          URL http://www.quantum-espresso.org", 
     in publications or presentations arising from this work. More details at
     http://www.quantum-espresso.org/quote

     Parallel version (MPI), running on    32 processors

     MPI processes distributed on     2 nodes
     R & G space division:  proc/nbgrp/npool/nimage =      32
     Waiting for input...
     Reading input from standard input

     Current dimensions of program PWSCF are:
     Max number of different atomic species (ntypx) = 10
     Max number of k-points (npk) =  40000
     Max angular momentum in pseudopotentials (lmaxx) =  3
               file Mn.pbe-spn-kjpaw_psl.0.3.1.UPF: wavefunction(s)  3P 3D renormalized
               file Mn.pbe-spn-kjpaw_psl.0.3.1.UPF: wavefunction(s)  3P 3D renormalized
               file Au.pbe-dn-kjpaw_psl.0.1.UPF: wavefunction(s)  6S 6P 5D renormalized

     Subspace diagonalization in iterative solution of the eigenvalue problem:
     one sub-group per band group will be used
     scalapack distributed-memory algorithm (size of sub-group:  4*  4 procs)

 
     Parallelization info
     --------------------
     sticks:   dense  smooth     PW     G-vecs:    dense   smooth      PW
     Min          40      18      5                11328     3410     561
     Max          41      19      6                11369     3447     602
     Sum        1305     577    177               362981   109451   18573
 


     bravais-lattice index     =            0
     lattice parameter (alat)  =       6.3684  a.u.
     unit-cell volume          =    2685.0513 (a.u.)^3
     number of atoms/cell      =           24
     number of atomic types    =            3
     number of electrons       =       296.00
     number of Kohn-Sham states=          178
     kinetic-energy cutoff     =      45.0000  Ry
     charge density cutoff     =     400.0000  Ry
     convergence threshold     =      1.0E-06
     mixing beta               =       0.1000
     number of iterations used =            8  plain     mixing
     Exchange-correlation      = SLA PW PBX PBC ( 1  4  3  4 0 0)

     celldm(1)=   6.368377  celldm(2)=   0.000000  celldm(3)=   0.000000
     celldm(4)=   0.000000  celldm(5)=   0.000000  celldm(6)=   0.000000

     crystal axes: (cart. coord. in units of alat)
               a(1) = (   1.000000   0.000000   0.000000 )  
               a(2) = (   0.000000   1.000000   0.000000 )  
               a(3) = (   0.000000   0.000000  10.396000 )  

     reciprocal axes: (cart. coord. in units 2 pi/alat)
               b(1) = (  1.000000  0.000000  0.000000 )  
               b(2) = (  0.000000  1.000000  0.000000 )  
               b(3) = (  0.000000  0.000000  0.096191 )  


     PseudoPot. # 1 for Mn read from file:
     ./pseudo/Mn.pbe-spn-kjpaw_psl.0.3.1.UPF
     MD5 check sum: 7b43a3fb0e93e198b8dd8488d8cf503e
     Pseudo is Projector augmented-wave + core cor, Zval = 15.0
     Generated using "atomic" code by A. Dal Corso v.5.0.99 svn rev. 10869
     Shape of augmentation charge: PSQ
     Using radial grid of 1187 points,  6 beta functions with: 
                l(1) =   0
                l(2) =   0
                l(3) =   1
                l(4) =   1
                l(5) =   2
                l(6) =   2
     Q(r) pseudized with 0 coefficients 


     PseudoPot. # 2 for Mn read from file:
     ./pseudo/Mn.pbe-spn-kjpaw_psl.0.3.1.UPF
     MD5 check sum: 7b43a3fb0e93e198b8dd8488d8cf503e
     Pseudo is Projector augmented-wave + core cor, Zval = 15.0
     Generated using "atomic" code by A. Dal Corso v.5.0.99 svn rev. 10869
     Shape of augmentation charge: PSQ
     Using radial grid of 1187 points,  6 beta functions with: 
                l(1) =   0
                l(2) =   0
                l(3) =   1
                l(4) =   1
                l(5) =   2
                l(6) =   2
     Q(r) pseudized with 0 coefficients 


     PseudoPot. # 3 for Au read from file:
     ./pseudo/Au.pbe-dn-kjpaw_psl.0.1.UPF
     MD5 check sum: be11e2e8e535ebe2b3ccfb4f88f554cb
     Pseudo is Projector augmented-wave + core cor, Zval = 11.0
     Generated using "atomic" code by A. Dal Corso v.5.0.2 svn rev. 9415
     Shape of augmentation charge: PSQ
     Using radial grid of 1279 points,  6 beta functions with: 
                l(1) =   0
                l(2) =   0
                l(3) =   1
                l(4) =   1
                l(5) =   2
                l(6) =   2
     Q(r) pseudized with 0 coefficients 


     atomic species   valence    mass     pseudopotential
        Mn1           15.00    54.93800     Mn( 1.00)
        Mn2           15.00    54.93800     Mn( 1.00)
        Au            11.00   196.96600     Au( 1.00)

     Starting magnetic structure 
     atomic species   magnetization
        Mn1          0.800
        Mn2         -0.800
        Au           0.000


     Full LDA+U calculation (l_max = 2) with parameters (eV):
     U(  1) =   3.1200   J(  1) =   0.7000   B(  1) =   0.0803
     U(  2) =   3.1200   J(  2) =   0.7000   B(  2) =   0.0803



     16 Sym. Ops., with inversion, found ( 8 have fractional translation)



   Cartesian axes

     site n.     atom                  positions (alat units)
         1           Mn1 tau(   1) = (   0.0000000   0.0000000   0.0000000  )
         2           Mn1 tau(   2) = (   0.0000000   0.0000000   2.5990000  )
         3           Mn1 tau(   3) = (   0.0000000   0.0000000   5.1980000  )
         4           Mn1 tau(   4) = (   0.0000000   0.0000000   7.7970000  )
         5           Mn1 tau(   5) = (   0.5000000   0.5000000   1.2995000  )
         6           Mn1 tau(   6) = (   0.5000000   0.5000000   3.8985000  )
         7           Mn1 tau(   7) = (   0.5000000   0.5000000   6.4975000  )
         8           Mn2 tau(   8) = (   0.5000000   0.5000000   9.0965000  )
         9           Au  tau(   9) = (   0.5000000   0.5000000   2.1831600  )
        10           Au  tau(  10) = (   0.5000000   0.5000000   4.7821600  )
        11           Au  tau(  11) = (   0.5000000   0.5000000   7.3811600  )
        12           Au  tau(  12) = (   0.5000000   0.5000000   9.9801600  )
        13           Au  tau(  13) = (   0.5000000   0.5000000   0.4158400  )
        14           Au  tau(  14) = (   0.5000000   0.5000000   3.0148400  )
        15           Au  tau(  15) = (   0.5000000   0.5000000   5.6138400  )
        16           Au  tau(  16) = (   0.5000000   0.5000000   8.2128400  )
        17           Au  tau(  17) = (   0.0000000   0.0000000   0.8836600  )
        18           Au  tau(  18) = (   0.0000000   0.0000000   3.4826600  )
        19           Au  tau(  19) = (   0.0000000   0.0000000   6.0816600  )
        20           Au  tau(  20) = (   0.0000000   0.0000000   8.6806600  )
        21           Au  tau(  21) = (   0.0000000   0.0000000   1.7153400  )
        22           Au  tau(  22) = (   0.0000000   0.0000000   4.3143400  )
        23           Au  tau(  23) = (   0.0000000   0.0000000   6.9133400  )
        24           Au  tau(  24) = (   0.0000000   0.0000000   9.5123400  )

     number of k points=   135 (tetrahedron method)

     Number of k-points >= 100: set verbosity='high' to print them.

     Dense  grid:   362981 G-vectors     FFT dimensions: (  45,  45, 432)

     Smooth grid:   109451 G-vectors     FFT dimensions: (  27,  27, 288)

     Estimated max dynamical RAM per process >     439.54 MB

     Estimated total dynamical RAM >      13.74 GB
     Generating pointlists ...
     new r_m :   0.3384 (alat units)  2.1549 (a.u.) for type    1
     new r_m :   0.3384 (alat units)  2.1549 (a.u.) for type    2
     new r_m :   0.3384 (alat units)  2.1549 (a.u.) for type    3

     Check: negative/imaginary core charge=   -0.000006    0.000000

     Initial potential from superposition of free atoms

     starting charge  295.99426, renormalised to  296.00000
     Number of +U iterations with fixed ns =  0
     Starting occupations:
 --- enter write_ns ---
 LDA+U parameters:
U(  1) =   3.1200   J(  1) =   0.7000   B(  1) =   0.0803
U(  2) =   3.1200   J(  2) =   0.7000   B(  2) =   0.0803
atom    1   Tr[ns(na)] (up, down, total) =   5.00000  0.00000  5.00000
   spin  1
    eigenvalues: 
  1.000  1.000  1.000  1.000  1.000
    eigenvectors:
  1.000  0.000  0.000  0.000  0.000
  0.000  1.000  0.000  0.000  0.000
  0.000  0.000  1.000  0.000  0.000
  0.000  0.000  0.000  1.000  0.000
  0.000  0.000  0.000  0.000  1.000
    occupations:
  1.000  0.000  0.000  0.000  0.000
  0.000  1.000  0.000  0.000  0.000
  0.000  0.000  1.000  0.000  0.000
  0.000  0.000  0.000  1.000  0.000
  0.000  0.000  0.000  0.000  1.000
   spin  2
    eigenvalues: 
  0.000  0.000  0.000  0.000  0.000
    eigenvectors:
  1.000  0.000  0.000  0.000  0.000
  0.000  1.000  0.000  0.000  0.000
  0.000  0.000  1.000  0.000  0.000
  0.000  0.000  0.000  1.000  0.000
  0.000  0.000  0.000  0.000  1.000
    occupations:
  0.000  0.000  0.000  0.000  0.000
  0.000  0.000  0.000  0.000  0.000
  0.000  0.000  0.000  0.000  0.000
  0.000  0.000  0.000  0.000  0.000
  0.000  0.000  0.000  0.000  0.000
atomic mag. moment =     5.000000
atom    2   Tr[ns(na)] (up, down, total) =   5.00000  0.00000  5.00000
   spin  1
    eigenvalues: 
  1.000  1.000  1.000  1.000  1.000
    eigenvectors:
  1.000  0.000  0.000  0.000  0.000
  0.000  1.000  0.000  0.000  0.000
  0.000  0.000  1.000  0.000  0.000
  0.000  0.000  0.000  1.000  0.000
  0.000  0.000  0.000  0.000  1.000
    occupations:
  1.000  0.000  0.000  0.000  0.000
  0.000  1.000  0.000  0.000  0.000
  0.000  0.000  1.000  0.000  0.000
  0.000  0.000  0.000  1.000  0.000
  0.000  0.000  0.000  0.000  1.000
   spin  2
    eigenvalues: 
  0.000  0.000  0.000  0.000  0.000
    eigenvectors:
  1.000  0.000  0.000  0.000  0.000
  0.000  1.000  0.000  0.000  0.000
  0.000  0.000  1.000  0.000  0.000
  0.000  0.000  0.000  1.000  0.000
  0.000  0.000  0.000  0.000  1.000
    occupations:
  0.000  0.000  0.000  0.000  0.000
  0.000  0.000  0.000  0.000  0.000
  0.000  0.000  0.000  0.000  0.000
  0.000  0.000  0.000  0.000  0.000
  0.000  0.000  0.000  0.000  0.000
atomic mag. moment =     5.000000
atom    3   Tr[ns(na)] (up, down, total) =   5.00000  0.00000  5.00000
   spin  1
    eigenvalues: 
  1.000  1.000  1.000  1.000  1.000
    eigenvectors:
  1.000  0.000  0.000  0.000  0.000
  0.000  1.000  0.000  0.000  0.000
  0.000  0.000  1.000  0.000  0.000
  0.000  0.000  0.000  1.000  0.000
  0.000  0.000  0.000  0.000  1.000
    occupations:
  1.000  0.000  0.000  0.000  0.000
  0.000  1.000  0.000  0.000  0.000
  0.000  0.000  1.000  0.000  0.000
  0.000  0.000  0.000  1.000  0.000
  0.000  0.000  0.000  0.000  1.000
   spin  2
    eigenvalues: 
  0.000  0.000  0.000  0.000  0.000
    eigenvectors:
  1.000  0.000  0.000  0.000  0.000
  0.000  1.000  0.000  0.000  0.000
  0.000  0.000  1.000  0.000  0.000
  0.000  0.000  0.000  1.000  0.000
  0.000  0.000  0.000  0.000  1.000
    occupations:
  0.000  0.000  0.000  0.000  0.000
  0.000  0.000  0.000  0.000  0.000
  0.000  0.000  0.000  0.000  0.000
  0.000  0.000  0.000  0.000  0.000
  0.000  0.000  0.000  0.000  0.000
atomic mag. moment =     5.000000
atom    4   Tr[ns(na)] (up, down, total) =   5.00000  0.00000  5.00000
   spin  1
    eigenvalues: 
  1.000  1.000  1.000  1.000  1.000
    eigenvectors:
  1.000  0.000  0.000  0.000  0.000
  0.000  1.000  0.000  0.000  0.000
  0.000  0.000  1.000  0.000  0.000
  0.000  0.000  0.000  1.000  0.000
  0.000  0.000  0.000  0.000  1.000
    occupations:
  1.000  0.000  0.000  0.000  0.000
  0.000  1.000  0.000  0.000  0.000
  0.000  0.000  1.000  0.000  0.000
  0.000  0.000  0.000  1.000  0.000
  0.000  0.000  0.000  0.000  1.000
   spin  2
    eigenvalues: 
  0.000  0.000  0.000  0.000  0.000
    eigenvectors:
  1.000  0.000  0.000  0.000  0.000
  0.000  1.000  0.000  0.000  0.000
  0.000  0.000  1.000  0.000  0.000
  0.000  0.000  0.000  1.000  0.000
  0.000  0.000  0.000  0.000  1.000
    occupations:
  0.000  0.000  0.000  0.000  0.000
  0.000  0.000  0.000  0.000  0.000
  0.000  0.000  0.000  0.000  0.000
  0.000  0.000  0.000  0.000  0.000
  0.000  0.000  0.000  0.000  0.000
atomic mag. moment =     5.000000
atom    5   Tr[ns(na)] (up, down, total) =   5.00000  0.00000  5.00000
   spin  1
    eigenvalues: 
  1.000  1.000  1.000  1.000  1.000
    eigenvectors:
  1.000  0.000  0.000  0.000  0.000
  0.000  1.000  0.000  0.000  0.000
  0.000  0.000  1.000  0.000  0.000
  0.000  0.000  0.000  1.000  0.000
  0.000  0.000  0.000  0.000  1.000
    occupations:
  1.000  0.000  0.000  0.000  0.000
  0.000  1.000  0.000  0.000  0.000
  0.000  0.000  1.000  0.000  0.000
  0.000  0.000  0.000  1.000  0.000
  0.000  0.000  0.000  0.000  1.000
   spin  2
    eigenvalues: 
  0.000  0.000  0.000  0.000  0.000
    eigenvectors:
  1.000  0.000  0.000  0.000  0.000
  0.000  1.000  0.000  0.000  0.000
  0.000  0.000  1.000  0.000  0.000
  0.000  0.000  0.000  1.000  0.000
  0.000  0.000  0.000  0.000  1.000
    occupations:
  0.000  0.000  0.000  0.000  0.000
  0.000  0.000  0.000  0.000  0.000
  0.000  0.000  0.000  0.000  0.000
  0.000  0.000  0.000  0.000  0.000
  0.000  0.000  0.000  0.000  0.000
atomic mag. moment =     5.000000
atom    6   Tr[ns(na)] (up, down, total) =   5.00000  0.00000  5.00000
   spin  1
    eigenvalues: 
  1.000  1.000  1.000  1.000  1.000
    eigenvectors:
  1.000  0.000  0.000  0.000  0.000
  0.000  1.000  0.000  0.000  0.000
  0.000  0.000  1.000  0.000  0.000
  0.000  0.000  0.000  1.000  0.000
  0.000  0.000  0.000  0.000  1.000
    occupations:
  1.000  0.000  0.000  0.000  0.000
  0.000  1.000  0.000  0.000  0.000
  0.000  0.000  1.000  0.000  0.000
  0.000  0.000  0.000  1.000  0.000
  0.000  0.000  0.000  0.000  1.000
   spin  2
    eigenvalues: 
  0.000  0.000  0.000  0.000  0.000
    eigenvectors:
  1.000  0.000  0.000  0.000  0.000
  0.000  1.000  0.000  0.000  0.000
  0.000  0.000  1.000  0.000  0.000
  0.000  0.000  0.000  1.000  0.000
  0.000  0.000  0.000  0.000  1.000
    occupations:
  0.000  0.000  0.000  0.000  0.000
  0.000  0.000  0.000  0.000  0.000
  0.000  0.000  0.000  0.000  0.000
  0.000  0.000  0.000  0.000  0.000
  0.000  0.000  0.000  0.000  0.000
atomic mag. moment =     5.000000
atom    7   Tr[ns(na)] (up, down, total) =   5.00000  0.00000  5.00000
   spin  1
    eigenvalues: 
  1.000  1.000  1.000  1.000  1.000
    eigenvectors:
  1.000  0.000  0.000  0.000  0.000
  0.000  1.000  0.000  0.000  0.000
  0.000  0.000  1.000  0.000  0.000
  0.000  0.000  0.000  1.000  0.000
  0.000  0.000  0.000  0.000  1.000
    occupations:
  1.000  0.000  0.000  0.000  0.000
  0.000  1.000  0.000  0.000  0.000
  0.000  0.000  1.000  0.000  0.000
  0.000  0.000  0.000  1.000  0.000
  0.000  0.000  0.000  0.000  1.000
   spin  2
    eigenvalues: 
  0.000  0.000  0.000  0.000  0.000
    eigenvectors:
  1.000  0.000  0.000  0.000  0.000
  0.000  1.000  0.000  0.000  0.000
  0.000  0.000  1.000  0.000  0.000
  0.000  0.000  0.000  1.000  0.000
  0.000  0.000  0.000  0.000  1.000
    occupations:
  0.000  0.000  0.000  0.000  0.000
  0.000  0.000  0.000  0.000  0.000
  0.000  0.000  0.000  0.000  0.000
  0.000  0.000  0.000  0.000  0.000
  0.000  0.000  0.000  0.000  0.000
atomic mag. moment =     5.000000
atom    8   Tr[ns(na)] (up, down, total) =   0.00000  5.00000  5.00000
   spin  1
    eigenvalues: 
  0.000  0.000  0.000  0.000  0.000
    eigenvectors:
  1.000  0.000  0.000  0.000  0.000
  0.000  1.000  0.000  0.000  0.000
  0.000  0.000  1.000  0.000  0.000
  0.000  0.000  0.000  1.000  0.000
  0.000  0.000  0.000  0.000  1.000
    occupations:
  0.000  0.000  0.000  0.000  0.000
  0.000  0.000  0.000  0.000  0.000
  0.000  0.000  0.000  0.000  0.000
  0.000  0.000  0.000  0.000  0.000
  0.000  0.000  0.000  0.000  0.000
   spin  2
    eigenvalues: 
  1.000  1.000  1.000  1.000  1.000
    eigenvectors:
  1.000  0.000  0.000  0.000  0.000
  0.000  1.000  0.000  0.000  0.000
  0.000  0.000  1.000  0.000  0.000
  0.000  0.000  0.000  1.000  0.000
  0.000  0.000  0.000  0.000  1.000
    occupations:
  1.000  0.000  0.000  0.000  0.000
  0.000  1.000  0.000  0.000  0.000
  0.000  0.000  1.000  0.000  0.000
  0.000  0.000  0.000  1.000  0.000
  0.000  0.000  0.000  0.000  1.000
atomic mag. moment =    -5.000000
N of occupied +U levels =   40.000000
 --- exit write_ns ---
 Atomic wfc used for LDA+U Projector are NOT orthogonalized
     Starting wfcs are  224 randomized atomic wfcs
     Checking if some PAW data can be deallocated... 

     total cpu time spent up to now is      149.8 secs

     Self-consistent Calculation

     iteration #  1     ecut=    45.00 Ry     beta= 0.10
     Davidson diagonalization with overlap
     ethr =  1.00E-02,  avg # of iterations =  3.5
 --- enter write_ns ---
 LDA+U parameters:
U(  1) =   3.1200   J(  1) =   0.7000   B(  1) =   0.0803
U(  2) =   3.1200   J(  2) =   0.7000   B(  2) =   0.0803
atom    1   Tr[ns(na)] (up, down, total) =   5.01725  0.42436  5.44161
   spin  1
    eigenvalues: 
  1.002  1.003  1.003  1.004  1.004
    eigenvectors:
  0.000  0.000  0.000  1.000  0.000
  0.000  0.342  0.658  0.000  0.000
  0.000  0.658  0.342  0.000  0.000
  0.000  0.000  0.000  0.000  1.000
  1.000  0.000  0.000  0.000  0.000
    occupations:
  1.004 -0.000 -0.000  0.000  0.000
 -0.000  1.003 -0.000  0.000  0.000
 -0.000 -0.000  1.003  0.000  0.000
  0.000  0.000  0.000  1.004 -0.000
  0.000  0.000  0.000 -0.000  1.002
   spin  2
    eigenvalues: 
  0.055  0.074  0.085  0.085  0.126
    eigenvectors:
  0.000  1.000  0.000  0.000  0.000
  0.000  0.000  0.279  0.721  0.000
  0.000  0.000  0.721  0.279  0.000
  1.000  0.000  0.000  0.000  0.000
  0.000  0.000  0.000  0.000  1.000
    occupations:
  0.074 -0.000 -0.000  0.000  0.000
 -0.000  0.085 -0.000  0.000  0.000
 -0.000 -0.000  0.085  0.000  0.000
  0.000  0.000  0.000  0.055 -0.000
  0.000  0.000  0.000 -0.000  0.126
atomic mag. moment =     4.592892
atom    2   Tr[ns(na)] (up, down, total) =   5.01747  0.41732  5.43480
   spin  1
    eigenvalues: 
  1.003  1.003  1.003  1.004  1.004
    eigenvectors:
  0.000  0.000  0.000  1.000  0.000
  0.000  0.265  0.735  0.000  0.000
  0.000  0.735  0.265  0.000  0.000
  0.000  0.000  0.000  0.000  1.000
  1.000  0.000  0.000  0.000  0.000
    occupations:
  1.004 -0.000 -0.000  0.000  0.000
 -0.000  1.003 -0.000  0.000  0.000
 -0.000 -0.000  1.003  0.000  0.000
  0.000  0.000  0.000  1.004 -0.000
  0.000  0.000  0.000 -0.000  1.003
   spin  2
    eigenvalues: 
  0.054  0.074  0.085  0.085  0.119
    eigenvectors:
  0.000  1.000  0.000  0.000  0.000
  0.000  0.000  0.503  0.497  0.000
  0.000  0.000  0.497  0.503  0.000
  1.000  0.000  0.000  0.000  0.000
  0.000  0.000  0.000  0.000  1.000
    occupations:
  0.074 -0.000 -0.000  0.000  0.000
 -0.000  0.085 -0.000  0.000  0.000
 -0.000 -0.000  0.085  0.000  0.000
  0.000  0.000  0.000  0.054 -0.000
  0.000  0.000  0.000 -0.000  0.119
atomic mag. moment =     4.600153
atom    3   Tr[ns(na)] (up, down, total) =   5.01747  0.41732  5.43480
   spin  1
    eigenvalues: 
  1.003  1.003  1.003  1.004  1.004
    eigenvectors:
  0.000  0.000  0.000  1.000  0.000
  0.000  0.299  0.701  0.000  0.000
  0.000  0.701  0.299  0.000  0.000
  0.000  0.000  0.000  0.000  1.000
  1.000  0.000  0.000  0.000  0.000
    occupations:
  1.004 -0.000 -0.000  0.000  0.000
 -0.000  1.003 -0.000  0.000  0.000
 -0.000 -0.000  1.003  0.000  0.000
  0.000  0.000  0.000  1.004 -0.000
  0.000  0.000  0.000 -0.000  1.003
   spin  2
    eigenvalues: 
  0.054  0.074  0.085  0.085  0.119
    eigenvectors:
  0.000  1.000  0.000  0.000  0.000
  0.000  0.000  0.325  0.675  0.000
  0.000  0.000  0.675  0.325  0.000
  1.000  0.000  0.000  0.000  0.000
  0.000  0.000  0.000  0.000  1.000
    occupations:
  0.074 -0.000 -0.000  0.000  0.000
 -0.000  0.085 -0.000  0.000  0.000
 -0.000 -0.000  0.085  0.000  0.000
  0.000  0.000  0.000  0.054 -0.000
  0.000  0.000  0.000 -0.000  0.119
atomic mag. moment =     4.600153
atom    4   Tr[ns(na)] (up, down, total) =   5.01725  0.42436  5.44161
   spin  1
    eigenvalues: 
  1.002  1.003  1.003  1.004  1.004
    eigenvectors:
  0.000  0.000  0.000  1.000  0.000
  0.000  0.231  0.769  0.000  0.000
  0.000  0.769  0.231  0.000  0.000
  0.000  0.000  0.000  0.000  1.000
  1.000  0.000  0.000  0.000  0.000
    occupations:
  1.004 -0.000 -0.000  0.000  0.000
 -0.000  1.003 -0.000  0.000  0.000
 -0.000 -0.000  1.003  0.000  0.000
  0.000  0.000  0.000  1.004 -0.000
  0.000  0.000  0.000 -0.000  1.002
   spin  2
    eigenvalues: 
  0.055  0.074  0.085  0.085  0.126
    eigenvectors:
  0.000  1.000  0.000  0.000  0.000
  0.000  0.000  0.320  0.680  0.000
  0.000  0.000  0.680  0.320  0.000
  1.000  0.000  0.000  0.000  0.000
  0.000  0.000  0.000  0.000  1.000
    occupations:
  0.074 -0.000 -0.000  0.000  0.000
 -0.000  0.085 -0.000  0.000  0.000
 -0.000 -0.000  0.085  0.000  0.000
  0.000  0.000  0.000  0.055 -0.000
  0.000  0.000  0.000 -0.000  0.126
atomic mag. moment =     4.592892
atom    5   Tr[ns(na)] (up, down, total) =   5.01749  0.41787  5.43536
   spin  1
    eigenvalues: 
  1.003  1.003  1.003  1.004  1.004
    eigenvectors:
  0.000  0.000  0.000  1.000  0.000
  0.000  0.276  0.724  0.000  0.000
  0.000  0.724  0.276  0.000  0.000
  0.000  0.000  0.000  0.000  1.000
  1.000  0.000  0.000  0.000  0.000
    occupations:
  1.004 -0.000 -0.000  0.000  0.000
 -0.000  1.003 -0.000  0.000  0.000
 -0.000 -0.000  1.003  0.000  0.000
  0.000  0.000  0.000  1.004 -0.000
  0.000  0.000  0.000 -0.000  1.003
   spin  2
    eigenvalues: 
  0.055  0.075  0.085  0.085  0.118
    eigenvectors:
  0.000  1.000  0.000  0.000  0.000
  0.000  0.000  0.377  0.623  0.000
  0.000  0.000  0.623  0.377  0.000
  1.000  0.000  0.000  0.000  0.000
  0.000  0.000  0.000  0.000  1.000
    occupations:
  0.075 -0.000 -0.000  0.000  0.000
 -0.000  0.085 -0.000  0.000  0.000
 -0.000 -0.000  0.085  0.000  0.000
  0.000  0.000  0.000  0.055 -0.000
  0.000  0.000  0.000 -0.000  0.118
atomic mag. moment =     4.599615
atom    6   Tr[ns(na)] (up, down, total) =   5.01758  0.41660  5.43418
   spin  1
    eigenvalues: 
  1.003  1.003  1.003  1.004  1.004
    eigenvectors:
  0.000  0.000  0.000  1.000  0.000
  0.000  0.325  0.675  0.000  0.000
  0.000  0.675  0.325  0.000  0.000
  0.000  0.000  0.000  0.000  1.000
  1.000  0.000  0.000  0.000  0.000
    occupations:
  1.004 -0.000 -0.000  0.000  0.000
 -0.000  1.003 -0.000  0.000  0.000
 -0.000 -0.000  1.003  0.000  0.000
  0.000  0.000  0.000  1.004 -0.000
  0.000  0.000  0.000 -0.000  1.003
   spin  2
    eigenvalues: 
  0.055  0.074  0.085  0.085  0.119
    eigenvectors:
  0.000  1.000  0.000  0.000  0.000
  0.000  0.000  0.289  0.711  0.000
  0.000  0.000  0.711  0.289  0.000
  1.000  0.000  0.000  0.000  0.000
  0.000  0.000  0.000  0.000  1.000
    occupations:
  0.074 -0.000 -0.000  0.000  0.000
 -0.000  0.085 -0.000  0.000  0.000
 -0.000 -0.000  0.085  0.000  0.000
  0.000  0.000  0.000  0.055 -0.000
  0.000  0.000  0.000 -0.000  0.119
atomic mag. moment =     4.600977
atom    7   Tr[ns(na)] (up, down, total) =   5.01749  0.41787  5.43536
   spin  1
    eigenvalues: 
  1.003  1.003  1.003  1.004  1.004
    eigenvectors:
  0.000  0.000  0.000  1.000  0.000
  0.000  0.299  0.701  0.000  0.000
  0.000  0.701  0.299  0.000  0.000
  0.000  0.000  0.000  0.000  1.000
  1.000  0.000  0.000  0.000  0.000
    occupations:
  1.004 -0.000 -0.000  0.000  0.000
 -0.000  1.003 -0.000  0.000  0.000
 -0.000 -0.000  1.003  0.000  0.000
  0.000  0.000  0.000  1.004 -0.000
  0.000  0.000  0.000 -0.000  1.003
   spin  2
    eigenvalues: 
  0.055  0.075  0.085  0.085  0.118
    eigenvectors:
  0.000  1.000  0.000  0.000  0.000
  0.000  0.000  0.327  0.673  0.000
  0.000  0.000  0.673  0.327  0.000
  1.000  0.000  0.000  0.000  0.000
  0.000  0.000  0.000  0.000  1.000
    occupations:
  0.075 -0.000 -0.000  0.000  0.000
 -0.000  0.085 -0.000  0.000  0.000
 -0.000 -0.000  0.085  0.000  0.000
  0.000  0.000  0.000  0.055 -0.000
  0.000  0.000  0.000 -0.000  0.118
atomic mag. moment =     4.599615
atom    8   Tr[ns(na)] (up, down, total) =   0.42639  5.01737  5.44376
   spin  1
    eigenvalues: 
  0.056  0.076  0.083  0.083  0.128
    eigenvectors:
  0.000  1.000  0.000  0.000  0.000
  0.000  0.000  0.332  0.668  0.000
  0.000  0.000  0.668  0.332  0.000
  1.000  0.000  0.000  0.000  0.000
  0.000  0.000  0.000  0.000  1.000
    occupations:
  0.076 -0.000 -0.000  0.000  0.000
 -0.000  0.083 -0.000  0.000  0.000
 -0.000 -0.000  0.083  0.000  0.000
  0.000  0.000  0.000  0.056 -0.000
  0.000  0.000  0.000 -0.000  0.128
   spin  2
    eigenvalues: 
  1.003  1.003  1.003  1.004  1.004
    eigenvectors:
  0.000  0.000  0.000  1.000  0.000
  0.000  0.363  0.637  0.000  0.000
  0.000  0.637  0.363  0.000  0.000
  0.000  0.000  0.000  0.000  1.000
  1.000  0.000  0.000  0.000  0.000
    occupations:
  1.004 -0.000 -0.000  0.000  0.000
 -0.000  1.003 -0.000  0.000  0.000
 -0.000 -0.000  1.003  0.000  0.000
  0.000  0.000  0.000  1.004 -0.000
  0.000  0.000  0.000 -0.000  1.003
atomic mag. moment =    -4.590978
N of occupied +U levels =   43.501459
 --- exit write_ns ---

     total cpu time spent up to now is      554.1 secs

     total energy              =  -14687.23338390 Ry
     Harris-Foulkes estimate   =  -14685.77383930 Ry
     estimated scf accuracy    <      11.60710584 Ry

     total magnetization       =    30.15 Bohr mag/cell
     absolute magnetization    =    41.40 Bohr mag/cell

     iteration #  2     ecut=    45.00 Ry     beta= 0.10
     Davidson diagonalization with overlap
     ethr =  3.92E-03,  avg # of iterations =  1.0

     total cpu time spent up to now is      812.1 secs

     total energy              =  -14689.26060769 Ry
     Harris-Foulkes estimate   =  -14687.30924402 Ry
     estimated scf accuracy    <       9.75272687 Ry

     total magnetization       =    29.78 Bohr mag/cell
     absolute magnetization    =    41.05 Bohr mag/cell

     iteration #  3     ecut=    45.00 Ry     beta= 0.10
     Davidson diagonalization with overlap
     ethr =  3.29E-03,  avg # of iterations =  4.3

     total cpu time spent up to now is     1236.1 secs

     total energy              =  -14691.47536690 Ry
     Harris-Foulkes estimate   =  -14690.84006056 Ry
     estimated scf accuracy    <     164.93793056 Ry

     total magnetization       =    29.87 Bohr mag/cell
     absolute magnetization    =    40.33 Bohr mag/cell

     iteration #  4     ecut=    45.00 Ry     beta= 0.10
     Davidson diagonalization with overlap
     ethr =  3.29E-03,  avg # of iterations =  3.7

     total cpu time spent up to now is     1612.3 secs

     total energy              =  -14694.14085254 Ry
     Harris-Foulkes estimate   =  -14694.13656834 Ry
     estimated scf accuracy    <       4.06148539 Ry

     total magnetization       =    27.74 Bohr mag/cell
     absolute magnetization    =    38.29 Bohr mag/cell

     iteration #  5     ecut=    45.00 Ry     beta= 0.10
     Davidson diagonalization with overlap
     ethr =  1.37E-03,  avg # of iterations =  3.6

     total cpu time spent up to now is     1961.6 secs

     total energy              =  -14694.16909400 Ry
     Harris-Foulkes estimate   =  -14694.15686588 Ry
     estimated scf accuracy    <       4.10916931 Ry

     total magnetization       =    27.74 Bohr mag/cell
     absolute magnetization    =    38.29 Bohr mag/cell

     iteration #  6     ecut=    45.00 Ry     beta= 0.10
     Davidson diagonalization with overlap
     ethr =  1.37E-03,  avg # of iterations =  1.2

     total cpu time spent up to now is     2218.3 secs

     total energy              =  -14694.77973045 Ry
     Harris-Foulkes estimate   =  -14694.17225868 Ry
     estimated scf accuracy    <       4.21083273 Ry

     total magnetization       =    27.74 Bohr mag/cell
     absolute magnetization    =    38.26 Bohr mag/cell

     iteration #  7     ecut=    45.00 Ry     beta= 0.10
     Davidson diagonalization with overlap
     ethr =  1.37E-03,  avg # of iterations =  1.6

     total cpu time spent up to now is     2485.8 secs

     total energy              =  -14694.24818593 Ry
     Harris-Foulkes estimate   =  -14694.84919468 Ry
     estimated scf accuracy    <       4.68130941 Ry

     total magnetization       =    26.70 Bohr mag/cell
     absolute magnetization    =    37.20 Bohr mag/cell

     iteration #  8     ecut=    45.00 Ry     beta= 0.10
     Davidson diagonalization with overlap
     ethr =  1.37E-03,  avg # of iterations =  1.9

     total cpu time spent up to now is     2774.8 secs

     total energy              =  -14694.19808944 Ry
     Harris-Foulkes estimate   =  -14694.36882290 Ry
     estimated scf accuracy    <       3.19721476 Ry

     total magnetization       =    26.64 Bohr mag/cell
     absolute magnetization    =    37.47 Bohr mag/cell

     iteration #  9     ecut=    45.00 Ry     beta= 0.10
     Davidson diagonalization with overlap
     ethr =  1.08E-03,  avg # of iterations =  1.8

     total cpu time spent up to now is     3054.0 secs

     total energy              =  -14694.12420959 Ry
     Harris-Foulkes estimate   =  -14694.24482165 Ry
     estimated scf accuracy    <       2.17411662 Ry

     total magnetization       =    26.33 Bohr mag/cell
     absolute magnetization    =    37.46 Bohr mag/cell

     iteration # 10     ecut=    45.00 Ry     beta= 0.10
     Davidson diagonalization with overlap
     ethr =  7.34E-04,  avg # of iterations =  2.3

     total cpu time spent up to now is     3341.0 secs

     total energy              =  -14694.08161049 Ry
     Harris-Foulkes estimate   =  -14694.14550705 Ry
     estimated scf accuracy    <       1.30177537 Ry

     total magnetization       =    26.23 Bohr mag/cell
     absolute magnetization    =    37.49 Bohr mag/cell

     iteration # 11     ecut=    45.00 Ry     beta= 0.10
     Davidson diagonalization with overlap
     ethr =  4.40E-04,  avg # of iterations =  3.9

     total cpu time spent up to now is     3707.7 secs

     total energy              =  -14694.07598842 Ry
     Harris-Foulkes estimate   =  -14694.09904118 Ry
     estimated scf accuracy    <       0.88916474 Ry

     total magnetization       =    26.08 Bohr mag/cell
     absolute magnetization    =    37.38 Bohr mag/cell

     iteration # 12     ecut=    45.00 Ry     beta= 0.10
     Davidson diagonalization with overlap
     ethr =  3.00E-04,  avg # of iterations =  1.7

     total cpu time spent up to now is     4007.5 secs

     total energy              =  -14693.99513047 Ry
     Harris-Foulkes estimate   =  -14694.07862382 Ry
     estimated scf accuracy    <       0.71970358 Ry

     total magnetization       =    26.00 Bohr mag/cell
     absolute magnetization    =    37.32 Bohr mag/cell

     iteration # 13     ecut=    45.00 Ry     beta= 0.10
     Davidson diagonalization with overlap
     ethr =  2.43E-04,  avg # of iterations =  2.4

     total cpu time spent up to now is     4309.2 secs

     total energy              =  -14693.97732357 Ry
     Harris-Foulkes estimate   =  -14694.01510174 Ry
     estimated scf accuracy    <       0.27535257 Ry

     total magnetization       =    25.99 Bohr mag/cell
     absolute magnetization    =    37.19 Bohr mag/cell

     iteration # 14     ecut=    45.00 Ry     beta= 0.10
     Davidson diagonalization with overlap
     ethr =  9.30E-05,  avg # of iterations =  3.7

     total cpu time spent up to now is     4658.7 secs

     total energy              =  -14693.98242915 Ry
     Harris-Foulkes estimate   =  -14693.99198827 Ry
     estimated scf accuracy    <       0.04083601 Ry

     total magnetization       =    25.71 Bohr mag/cell
     absolute magnetization    =    36.93 Bohr mag/cell

     iteration # 15     ecut=    45.00 Ry     beta= 0.10
     Davidson diagonalization with overlap
     ethr =  1.38E-05,  avg # of iterations =  4.8

     total cpu time spent up to now is     5089.6 secs

     total energy              =  -14693.98733872 Ry
     Harris-Foulkes estimate   =  -14693.98833907 Ry
     estimated scf accuracy    <       0.02481335 Ry

     total magnetization       =    25.77 Bohr mag/cell
     absolute magnetization    =    36.95 Bohr mag/cell

     iteration # 16     ecut=    45.00 Ry     beta= 0.10
     Davidson diagonalization with overlap
     ethr =  8.38E-06,  avg # of iterations =  1.0

     total cpu time spent up to now is     5335.9 secs

     total energy              =  -14693.98807853 Ry
     Harris-Foulkes estimate   =  -14693.98777500 Ry
     estimated scf accuracy    <       0.00906119 Ry

     total magnetization       =    25.78 Bohr mag/cell
     absolute magnetization    =    36.95 Bohr mag/cell

     iteration # 17     ecut=    45.00 Ry     beta= 0.10
     Davidson diagonalization with overlap
     ethr =  3.06E-06,  avg # of iterations =  2.7

     total cpu time spent up to now is     5665.3 secs

     total energy              =  -14693.98901222 Ry
     Harris-Foulkes estimate   =  -14693.98902675 Ry
     estimated scf accuracy    <       0.00230833 Ry

     total magnetization       =    25.75 Bohr mag/cell
     absolute magnetization    =    36.92 Bohr mag/cell

     iteration # 18     ecut=    45.00 Ry     beta= 0.10
     Davidson diagonalization with overlap
     ethr =  7.80E-07,  avg # of iterations =  2.2

     total cpu time spent up to now is     5963.8 secs

     total energy              =  -14693.98931590 Ry
     Harris-Foulkes estimate   =  -14693.98918670 Ry
     estimated scf accuracy    <       0.00083869 Ry

     total magnetization       =    25.71 Bohr mag/cell
     absolute magnetization    =    36.88 Bohr mag/cell

     iteration # 19     ecut=    45.00 Ry     beta= 0.10
     Davidson diagonalization with overlap
     ethr =  2.83E-07,  avg # of iterations =  2.6

     total cpu time spent up to now is     6267.8 secs

     total energy              =  -14693.98942493 Ry
     Harris-Foulkes estimate   =  -14693.98936722 Ry
     estimated scf accuracy    <       0.00064354 Ry

     total magnetization       =    25.69 Bohr mag/cell
     absolute magnetization    =    36.86 Bohr mag/cell

     iteration # 20     ecut=    45.00 Ry     beta= 0.10
     Davidson diagonalization with overlap
     ethr =  2.17E-07,  avg # of iterations =  1.3

     total cpu time spent up to now is     6520.9 secs

     total energy              =  -14693.98949852 Ry
     Harris-Foulkes estimate   =  -14693.98946731 Ry
     estimated scf accuracy    <       0.00026326 Ry

     total magnetization       =    25.70 Bohr mag/cell
     absolute magnetization    =    36.87 Bohr mag/cell

     iteration # 21     ecut=    45.00 Ry     beta= 0.10
     Davidson diagonalization with overlap
     ethr =  8.89E-08,  avg # of iterations =  2.0

     total cpu time spent up to now is     6805.7 secs

     total energy              =  -14693.98953376 Ry
     Harris-Foulkes estimate   =  -14693.98950915 Ry
     estimated scf accuracy    <       0.00006458 Ry

     total magnetization       =    25.70 Bohr mag/cell
     absolute magnetization    =    36.87 Bohr mag/cell

     iteration # 22     ecut=    45.00 Ry     beta= 0.10
     Davidson diagonalization with overlap
     ethr =  2.18E-08,  avg # of iterations =  3.4

     total cpu time spent up to now is     7144.0 secs

     total energy              =  -14693.98954417 Ry
     Harris-Foulkes estimate   =  -14693.98953699 Ry
     estimated scf accuracy    <       0.00014470 Ry

     total magnetization       =    25.69 Bohr mag/cell
     absolute magnetization    =    36.87 Bohr mag/cell

     iteration # 23     ecut=    45.00 Ry     beta= 0.10
     Davidson diagonalization with overlap
     ethr =  2.18E-08,  avg # of iterations =  1.0

     total cpu time spent up to now is     7380.8 secs

     total energy              =  -14693.98955692 Ry
     Harris-Foulkes estimate   =  -14693.98954527 Ry
     estimated scf accuracy    <       0.00004055 Ry

     total magnetization       =    25.70 Bohr mag/cell
     absolute magnetization    =    36.87 Bohr mag/cell

     iteration # 24     ecut=    45.00 Ry     beta= 0.10
     Davidson diagonalization with overlap
     ethr =  1.37E-08,  avg # of iterations =  1.3

     total cpu time spent up to now is     7647.2 secs

     total energy              =  -14693.98956203 Ry
     Harris-Foulkes estimate   =  -14693.98955703 Ry
     estimated scf accuracy    <       0.00001787 Ry

     total magnetization       =    25.69 Bohr mag/cell
     absolute magnetization    =    36.87 Bohr mag/cell

     iteration # 25     ecut=    45.00 Ry     beta= 0.10
     Davidson diagonalization with overlap
     ethr =  6.04E-09,  avg # of iterations =  1.9

     total cpu time spent up to now is     7921.2 secs

     total energy              =  -14693.98956397 Ry
     Harris-Foulkes estimate   =  -14693.98956152 Ry
     estimated scf accuracy    <       0.00001080 Ry

     total magnetization       =    25.69 Bohr mag/cell
     absolute magnetization    =    36.87 Bohr mag/cell

     iteration # 26     ecut=    45.00 Ry     beta= 0.10
     Davidson diagonalization with overlap
     ethr =  3.65E-09,  avg # of iterations =  2.0

     total cpu time spent up to now is     8198.1 secs

     total energy              =  -14693.98956530 Ry
     Harris-Foulkes estimate   =  -14693.98956359 Ry
     estimated scf accuracy    <       0.00000379 Ry

     total magnetization       =    25.69 Bohr mag/cell
     absolute magnetization    =    36.87 Bohr mag/cell

     iteration # 27     ecut=    45.00 Ry     beta= 0.10
     Davidson diagonalization with overlap
     ethr =  1.28E-09,  avg # of iterations =  3.0

     total cpu time spent up to now is     8534.9 secs

     total energy              =  -14693.98956595 Ry
     Harris-Foulkes estimate   =  -14693.98956496 Ry
     estimated scf accuracy    <       0.00000102 Ry

     total magnetization       =    25.69 Bohr mag/cell
     absolute magnetization    =    36.87 Bohr mag/cell

     iteration # 28     ecut=    45.00 Ry     beta= 0.10
     Davidson diagonalization with overlap
     ethr =  3.43E-10,  avg # of iterations =  2.3
 
     Magnetic moment per site:
     atom:    1    charge:   13.5411    magn:    4.2179    constr:    0.0000
     atom:    2    charge:   13.5497    magn:    4.1629    constr:    0.0000
     atom:    3    charge:   13.5497    magn:    4.1629    constr:    0.0000
     atom:    4    charge:   13.5411    magn:    4.2179    constr:    0.0000
     atom:    5    charge:   13.5487    magn:    4.1677    constr:    0.0000
     atom:    6    charge:   13.5500    magn:    4.1583    constr:    0.0000
     atom:    7    charge:   13.5487    magn:    4.1677    constr:    0.0000
     atom:    8    charge:   13.5410    magn:   -4.2148    constr:    0.0000
     atom:    9    charge:    9.0864    magn:    0.0273    constr:    0.0000
     atom:   10    charge:    9.0866    magn:    0.0264    constr:    0.0000
     atom:   11    charge:    9.0894    magn:    0.0342    constr:    0.0000
     atom:   12    charge:    9.0902    magn:    0.0472    constr:    0.0000
     atom:   13    charge:    9.0894    magn:    0.0342    constr:    0.0000
     atom:   14    charge:    9.0866    magn:    0.0264    constr:    0.0000
     atom:   15    charge:    9.0864    magn:    0.0273    constr:    0.0000
     atom:   16    charge:    9.0902    magn:    0.0472    constr:    0.0000
     atom:   17    charge:    9.0885    magn:    0.0325    constr:    0.0000
     atom:   18    charge:    9.0873    magn:    0.0282    constr:    0.0000
     atom:   19    charge:    9.0877    magn:    0.0310    constr:    0.0000
     atom:   20    charge:    9.0915    magn:   -0.0429    constr:    0.0000
     atom:   21    charge:    9.0877    magn:    0.0310    constr:    0.0000
     atom:   22    charge:    9.0873    magn:    0.0282    constr:    0.0000
     atom:   23    charge:    9.0885    magn:    0.0325    constr:    0.0000
     atom:   24    charge:    9.0915    magn:   -0.0429    constr:    0.0000

     total cpu time spent up to now is     8833.1 secs

     End of self-consistent calculation
 --- enter write_ns ---
 LDA+U parameters:
U(  1) =   3.1200   J(  1) =   0.7000   B(  1) =   0.0803
U(  2) =   3.1200   J(  2) =   0.7000   B(  2) =   0.0803
atom    1   Tr[ns(na)] (up, down, total) =   4.96982  0.75093  5.72075
   spin  1
    eigenvalues: 
  0.984  0.993  0.993  0.997  1.002
    eigenvectors:
  0.000  0.000  0.000  1.000  0.000
  0.000  0.274  0.726  0.000  0.000
  0.000  0.726  0.274  0.000  0.000
  0.000  0.000  0.000  0.000  1.000
  1.000  0.000  0.000  0.000  0.000
    occupations:
  0.997 -0.000 -0.000  0.000  0.000
 -0.000  0.993 -0.000  0.000  0.000
 -0.000 -0.000  0.993  0.000  0.000
  0.000  0.000  0.000  1.002 -0.000
  0.000  0.000  0.000 -0.000  0.984
   spin  2
    eigenvalues: 
  0.067  0.118  0.154  0.154  0.257
    eigenvectors:
  0.000  1.000  0.000  0.000  0.000
  0.000  0.000  0.345  0.655  0.000
  0.000  0.000  0.655  0.345  0.000
  1.000  0.000  0.000  0.000  0.000
  0.000  0.000  0.000  0.000  1.000
    occupations:
  0.118 -0.000 -0.000  0.000  0.000
 -0.000  0.154 -0.000  0.000  0.000
 -0.000 -0.000  0.154  0.000  0.000
  0.000  0.000  0.000  0.067 -0.000
  0.000  0.000  0.000 -0.000  0.257
atomic mag. moment =     4.218896
atom    2   Tr[ns(na)] (up, down, total) =   4.96485  0.79552  5.76036
   spin  1
    eigenvalues: 
  0.983  0.992  0.992  0.997  1.002
    eigenvectors:
  0.000  0.000  0.000  1.000  0.000
  0.000  0.270  0.730  0.000  0.000
  0.000  0.730  0.270  0.000  0.000
  0.000  0.000  0.000  0.000  1.000
  1.000  0.000  0.000  0.000  0.000
    occupations:
  0.997 -0.000 -0.000  0.000  0.000
 -0.000  0.992 -0.000  0.000  0.000
 -0.000 -0.000  0.992  0.000  0.000
  0.000  0.000  0.000  1.002 -0.000
  0.000  0.000  0.000 -0.000  0.983
   spin  2
    eigenvalues: 
  0.066  0.149  0.152  0.152  0.278
    eigenvectors:
  0.000  1.000  0.000  0.000  0.000
  0.000  0.000  0.336  0.664  0.000
  0.000  0.000  0.664  0.336  0.000
  1.000  0.000  0.000  0.000  0.000
  0.000  0.000  0.000  0.000  1.000
    occupations:
  0.149 -0.000 -0.000  0.000  0.000
 -0.000  0.152 -0.000  0.000  0.000
 -0.000 -0.000  0.152  0.000  0.000
  0.000  0.000  0.000  0.066 -0.000
  0.000  0.000  0.000 -0.000  0.278
atomic mag. moment =     4.169328
atom    3   Tr[ns(na)] (up, down, total) =   4.96485  0.79552  5.76036
   spin  1
    eigenvalues: 
  0.983  0.992  0.992  0.997  1.002
    eigenvectors:
  0.000  0.000  0.000  1.000  0.000
  0.000  0.309  0.691  0.000  0.000
  0.000  0.691  0.309  0.000  0.000
  0.000  0.000  0.000  0.000  1.000
  1.000  0.000  0.000  0.000  0.000
    occupations:
  0.997 -0.000 -0.000  0.000  0.000
 -0.000  0.992 -0.000  0.000  0.000
 -0.000 -0.000  0.992  0.000  0.000
  0.000  0.000  0.000  1.002 -0.000
  0.000  0.000  0.000 -0.000  0.983
   spin  2
    eigenvalues: 
  0.066  0.149  0.152  0.152  0.278
    eigenvectors:
  0.000  1.000  0.000  0.000  0.000
  0.000  0.000  0.322  0.678  0.000
  0.000  0.000  0.678  0.322  0.000
  1.000  0.000  0.000  0.000  0.000
  0.000  0.000  0.000  0.000  1.000
    occupations:
  0.149 -0.000 -0.000  0.000  0.000
 -0.000  0.152 -0.000  0.000  0.000
 -0.000 -0.000  0.152  0.000  0.000
  0.000  0.000  0.000  0.066 -0.000
  0.000  0.000  0.000 -0.000  0.278
atomic mag. moment =     4.169328
atom    4   Tr[ns(na)] (up, down, total) =   4.96982  0.75093  5.72075
   spin  1
    eigenvalues: 
  0.984  0.993  0.993  0.997  1.002
    eigenvectors:
  0.000  0.000  0.000  1.000  0.000
  0.000  0.326  0.674  0.000  0.000
  0.000  0.674  0.326  0.000  0.000
  0.000  0.000  0.000  0.000  1.000
  1.000  0.000  0.000  0.000  0.000
    occupations:
  0.997 -0.000 -0.000  0.000  0.000
 -0.000  0.993 -0.000  0.000  0.000
 -0.000 -0.000  0.993  0.000  0.000
  0.000  0.000  0.000  1.002 -0.000
  0.000  0.000  0.000 -0.000  0.984
   spin  2
    eigenvalues: 
  0.067  0.118  0.154  0.154  0.257
    eigenvectors:
  0.000  1.000  0.000  0.000  0.000
  0.000  0.000  0.432  0.568  0.000
  0.000  0.000  0.568  0.432  0.000
  1.000  0.000  0.000  0.000  0.000
  0.000  0.000  0.000  0.000  1.000
    occupations:
  0.118 -0.000 -0.000  0.000  0.000
 -0.000  0.154 -0.000  0.000  0.000
 -0.000 -0.000  0.154  0.000  0.000
  0.000  0.000  0.000  0.067 -0.000
  0.000  0.000  0.000 -0.000  0.257
atomic mag. moment =     4.218896
atom    5   Tr[ns(na)] (up, down, total) =   4.96545  0.79203  5.75748
   spin  1
    eigenvalues: 
  0.983  0.992  0.992  0.996  1.002
    eigenvectors:
  0.000  0.000  0.000  1.000  0.000
  0.000  0.284  0.716  0.000  0.000
  0.000  0.716  0.284  0.000  0.000
  0.000  0.000  0.000  0.000  1.000
  1.000  0.000  0.000  0.000  0.000
    occupations:
  0.996 -0.000 -0.000  0.000  0.000
 -0.000  0.992 -0.000  0.000  0.000
 -0.000 -0.000  0.992  0.000  0.000
  0.000  0.000  0.000  1.002 -0.000
  0.000  0.000  0.000 -0.000  0.983
   spin  2
    eigenvalues: 
  0.066  0.142  0.153  0.153  0.278
    eigenvectors:
  0.000  1.000  0.000  0.000  0.000
  0.000  0.000  0.275  0.725  0.000
  0.000  0.000  0.725  0.275  0.000
  1.000  0.000  0.000  0.000  0.000
  0.000  0.000  0.000  0.000  1.000
    occupations:
  0.142 -0.000 -0.000  0.000  0.000
 -0.000  0.153 -0.000  0.000  0.000
 -0.000 -0.000  0.153  0.000  0.000
  0.000  0.000  0.000  0.066 -0.000
  0.000  0.000  0.000 -0.000  0.278
atomic mag. moment =     4.173423
atom    6   Tr[ns(na)] (up, down, total) =   4.96396  0.79888  5.76284
   spin  1
    eigenvalues: 
  0.983  0.992  0.992  0.996  1.002
    eigenvectors:
  0.000  0.000  0.000  1.000  0.000
  0.000  0.320  0.680  0.000  0.000
  0.000  0.680  0.320  0.000  0.000
  0.000  0.000  0.000  0.000  1.000
  1.000  0.000  0.000  0.000  0.000
    occupations:
  0.996 -0.000 -0.000  0.000  0.000
 -0.000  0.992 -0.000  0.000  0.000
 -0.000 -0.000  0.992  0.000  0.000
  0.000  0.000  0.000  1.002 -0.000
  0.000  0.000  0.000 -0.000  0.983
   spin  2
    eigenvalues: 
  0.066  0.151  0.151  0.151  0.279
    eigenvectors:
  0.000  1.000  0.000  0.000  0.000
  0.000  0.000  0.314  0.686  0.000
  0.000  0.000  0.686  0.314  0.000
  1.000  0.000  0.000  0.000  0.000
  0.000  0.000  0.000  0.000  1.000
    occupations:
  0.151 -0.000 -0.000  0.000  0.000
 -0.000  0.151 -0.000  0.000  0.000
 -0.000 -0.000  0.151  0.000  0.000
  0.000  0.000  0.000  0.066 -0.000
  0.000  0.000  0.000 -0.000  0.279
atomic mag. moment =     4.165080
atom    7   Tr[ns(na)] (up, down, total) =   4.96545  0.79203  5.75748
   spin  1
    eigenvalues: 
  0.983  0.992  0.992  0.996  1.002
    eigenvectors:
  0.000  0.000  0.000  1.000  0.000
  0.000  0.319  0.681  0.000  0.000
  0.000  0.681  0.319  0.000  0.000
  0.000  0.000  0.000  0.000  1.000
  1.000  0.000  0.000  0.000  0.000
    occupations:
  0.996 -0.000 -0.000  0.000  0.000
 -0.000  0.992 -0.000  0.000  0.000
 -0.000 -0.000  0.992  0.000  0.000
  0.000  0.000  0.000  1.002 -0.000
  0.000  0.000  0.000 -0.000  0.983
   spin  2
    eigenvalues: 
  0.066  0.142  0.153  0.153  0.278
    eigenvectors:
  0.000  1.000  0.000  0.000  0.000
  0.000  0.000  0.388  0.612  0.000
  0.000  0.000  0.612  0.388  0.000
  1.000  0.000  0.000  0.000  0.000
  0.000  0.000  0.000  0.000  1.000
    occupations:
  0.142 -0.000 -0.000  0.000  0.000
 -0.000  0.153 -0.000  0.000  0.000
 -0.000 -0.000  0.153  0.000  0.000
  0.000  0.000  0.000  0.066 -0.000
  0.000  0.000  0.000 -0.000  0.278
atomic mag. moment =     4.173423
atom    8   Tr[ns(na)] (up, down, total) =   0.75342  4.96755  5.72096
   spin  1
    eigenvalues: 
  0.067  0.125  0.151  0.151  0.260
    eigenvectors:
  0.000  1.000  0.000  0.000  0.000
  0.000  0.000  0.284  0.716  0.000
  0.000  0.000  0.716  0.284  0.000
  1.000  0.000  0.000  0.000  0.000
  0.000  0.000  0.000  0.000  1.000
    occupations:
  0.125 -0.000 -0.000  0.000  0.000
 -0.000  0.151 -0.000  0.000  0.000
 -0.000 -0.000  0.151  0.000  0.000
  0.000  0.000  0.000  0.067 -0.000
  0.000  0.000  0.000 -0.000  0.260
   spin  2
    eigenvalues: 
  0.984  0.993  0.993  0.995  1.002
    eigenvectors:
  0.000  0.000  0.000  1.000  0.000
  0.000  0.299  0.701  0.000  0.000
  0.000  0.701  0.299  0.000  0.000
  0.000  0.000  0.000  0.000  1.000
  1.000  0.000  0.000  0.000  0.000
    occupations:
  0.995 -0.000 -0.000  0.000  0.000
 -0.000  0.993 -0.000  0.000  0.000
 -0.000 -0.000  0.993  0.000  0.000
  0.000  0.000  0.000  1.002 -0.000
  0.000  0.000  0.000 -0.000  0.984
atomic mag. moment =    -4.214131
N of occupied +U levels =   45.961002
 --- exit write_ns ---

     Number of k-points >= 100: set verbosity='high' to print the bands.

     the Fermi energy is    15.5108 ev

!    total energy              =  -14693.98957023 Ry
     Harris-Foulkes estimate   =  -14693.98956579 Ry
     estimated scf accuracy    <       0.00000056 Ry

     total all-electron energy =   -626921.585292 Ry

     The total energy is the sum of the following terms:

     one-electron contribution =    -698.79280165 Ry
     hartree contribution      =     651.79354665 Ry
     xc contribution           =    -738.05768822 Ry
     ewald contribution        =   -2207.56121140 Ry
     Hubbard energy            =       0.47145756 Ry
     one-center paw contrib.   =  -11701.84287316 Ry

     total magnetization       =    25.69 Bohr mag/cell
     absolute magnetization    =    36.87 Bohr mag/cell

     convergence has been achieved in  28 iterations

     Writing output data file mnau2.save/
 
     init_run     :    135.61s CPU    138.71s WALL (       1 calls)
     electrons    :   8463.61s CPU   8683.54s WALL (       1 calls)

     Called by init_run:
     wfcinit      :    131.84s CPU    134.77s WALL (       1 calls)
     potinit      :      1.60s CPU      1.65s WALL (       1 calls)
     hinit0       :      1.30s CPU      1.37s WALL (       1 calls)

     Called by electrons:
     c_bands      :   7512.74s CPU   7705.00s WALL (      28 calls)
     sum_band     :    928.97s CPU    955.16s WALL (      28 calls)
     v_of_rho     :      2.43s CPU      2.45s WALL (      29 calls)
     newd         :      8.37s CPU      8.76s WALL (      29 calls)
     PAW_pot      :     11.54s CPU     11.66s WALL (      29 calls)
     mix_rho      :      0.52s CPU      1.29s WALL (      28 calls)

     Called by c_bands:
     init_us_2    :     17.27s CPU     17.42s WALL (   15660 calls)
     cegterg      :   7310.97s CPU   7500.88s WALL (    7560 calls)

     Called by sum_band:
     sum_band:bec :     10.51s CPU     10.59s WALL (    7560 calls)
     addusdens    :     10.43s CPU     10.52s WALL (      28 calls)

     Called by *egterg:
     h_psi        :   3253.44s CPU   3344.79s WALL (   26259 calls)
     s_psi        :    402.62s CPU    404.68s WALL (   26529 calls)
     g_psi        :      4.96s CPU      5.00s WALL (   18429 calls)
     cdiaghg      :   2628.76s CPU   2718.83s WALL (   25989 calls)

     Called by h_psi:
     h_psi:pot    :   3045.82s CPU   3135.48s WALL (   26259 calls)
     h_psi:calbec :    458.20s CPU    486.66s WALL (   26259 calls)
     vloc_psi     :   2195.94s CPU   2255.77s WALL (   26259 calls)
     add_vuspsi   :    391.28s CPU    392.74s WALL (   26259 calls)
     vhpsi        :    201.86s CPU    203.50s WALL (   26259 calls)

     General routines
     calbec       :    841.17s CPU    884.72s WALL (   67908 calls)
     fft          :      2.33s CPU      2.43s WALL (     721 calls)
     ffts         :      0.11s CPU      0.13s WALL (     114 calls)
     fftw         :   2633.65s CPU   2704.03s WALL ( 7014530 calls)
     interpolate  :      0.19s CPU      0.21s WALL (      58 calls)
     davcio       :      0.01s CPU      0.07s WALL (     270 calls)
 
     Parallel routines
     fft_scatt_xy :    118.80s CPU    121.27s WALL ( 7015365 calls)
     fft_scatt_yz :   1989.84s CPU   2046.10s WALL ( 7015365 calls)

     Hubbard U routines
     new_ns       :     30.59s CPU     31.15s WALL (      28 calls)
     vhpsi        :    201.86s CPU    203.50s WALL (   26259 calls)
 
     PWSCF        :     2h24m CPU       24h 2m WALL

      29h
 
   This run was terminated on:  21:17:38  15May2019            

=------------------------------------------------------------------------------=
   JOB DONE.
=------------------------------------------------------------------------------=
