
     Program PWSCF v.6.3MaX starts on 15May2019 at 23:32:53 

     This program is part of the open-source Quantum ESPRESSO suite
     for quantum simulation of materials; please cite
         "P. Giannozzi et al., J. Phys.:Condens. Matter 21 395502 (2009);
         "P. Giannozzi et al., J. Phys.:Condens. Matter 29 465901 (2017);
          URL http://www.quantum-espresso.org", 
     in publications or presentations arising from this work. More details at
     http://www.quantum-espresso.org/quote

     Parallel version (MPI), running on    32 processors

     MPI processes distributed on     2 nodes
     R & G space division:  proc/nbgrp/npool/nimage =      32
     Waiting for input...
     Reading input from standard input

     Current dimensions of program PWSCF are:
     Max number of different atomic species (ntypx) = 10
     Max number of k-points (npk) =  40000
     Max angular momentum in pseudopotentials (lmaxx) =  3
               file Mn.pbe-spn-kjpaw_psl.0.3.1.UPF: wavefunction(s)  3P 3D renormalized
               file Mn.pbe-spn-kjpaw_psl.0.3.1.UPF: wavefunction(s)  3P 3D renormalized
               file Au.pbe-dn-kjpaw_psl.0.1.UPF: wavefunction(s)  6S 6P 5D renormalized

     Subspace diagonalization in iterative solution of the eigenvalue problem:
     one sub-group per band group will be used
     scalapack distributed-memory algorithm (size of sub-group:  4*  4 procs)

     Found symmetry operation: I + (  0.0000  0.0000 -0.5000)
     This is a supercell, fractional translations are disabled
 
     Parallelization info
     --------------------
     sticks:   dense  smooth     PW     G-vecs:    dense   smooth      PW
     Min          40      18      5                11328     3410     561
     Max          41      19      6                11369     3447     602
     Sum        1305     577    177               362981   109451   18573
 


     bravais-lattice index     =            0
     lattice parameter (alat)  =       6.3684  a.u.
     unit-cell volume          =    2685.0513 (a.u.)^3
     number of atoms/cell      =           24
     number of atomic types    =            3
     number of electrons       =       296.00
     number of Kohn-Sham states=          178
     kinetic-energy cutoff     =      45.0000  Ry
     charge density cutoff     =     400.0000  Ry
     convergence threshold     =      1.0E-06
     mixing beta               =       0.1000
     number of iterations used =            8  plain     mixing
     Exchange-correlation      = SLA PW PBX PBC ( 1  4  3  4 0 0)

     celldm(1)=   6.368377  celldm(2)=   0.000000  celldm(3)=   0.000000
     celldm(4)=   0.000000  celldm(5)=   0.000000  celldm(6)=   0.000000

     crystal axes: (cart. coord. in units of alat)
               a(1) = (   1.000000   0.000000   0.000000 )  
               a(2) = (   0.000000   1.000000   0.000000 )  
               a(3) = (   0.000000   0.000000  10.396000 )  

     reciprocal axes: (cart. coord. in units 2 pi/alat)
               b(1) = (  1.000000  0.000000  0.000000 )  
               b(2) = (  0.000000  1.000000  0.000000 )  
               b(3) = (  0.000000  0.000000  0.096191 )  


     PseudoPot. # 1 for Mn read from file:
     ./pseudo/Mn.pbe-spn-kjpaw_psl.0.3.1.UPF
     MD5 check sum: 7b43a3fb0e93e198b8dd8488d8cf503e
     Pseudo is Projector augmented-wave + core cor, Zval = 15.0
     Generated using "atomic" code by A. Dal Corso v.5.0.99 svn rev. 10869
     Shape of augmentation charge: PSQ
     Using radial grid of 1187 points,  6 beta functions with: 
                l(1) =   0
                l(2) =   0
                l(3) =   1
                l(4) =   1
                l(5) =   2
                l(6) =   2
     Q(r) pseudized with 0 coefficients 


     PseudoPot. # 2 for Mn read from file:
     ./pseudo/Mn.pbe-spn-kjpaw_psl.0.3.1.UPF
     MD5 check sum: 7b43a3fb0e93e198b8dd8488d8cf503e
     Pseudo is Projector augmented-wave + core cor, Zval = 15.0
     Generated using "atomic" code by A. Dal Corso v.5.0.99 svn rev. 10869
     Shape of augmentation charge: PSQ
     Using radial grid of 1187 points,  6 beta functions with: 
                l(1) =   0
                l(2) =   0
                l(3) =   1
                l(4) =   1
                l(5) =   2
                l(6) =   2
     Q(r) pseudized with 0 coefficients 


     PseudoPot. # 3 for Au read from file:
     ./pseudo/Au.pbe-dn-kjpaw_psl.0.1.UPF
     MD5 check sum: be11e2e8e535ebe2b3ccfb4f88f554cb
     Pseudo is Projector augmented-wave + core cor, Zval = 11.0
     Generated using "atomic" code by A. Dal Corso v.5.0.2 svn rev. 9415
     Shape of augmentation charge: PSQ
     Using radial grid of 1279 points,  6 beta functions with: 
                l(1) =   0
                l(2) =   0
                l(3) =   1
                l(4) =   1
                l(5) =   2
                l(6) =   2
     Q(r) pseudized with 0 coefficients 


     atomic species   valence    mass     pseudopotential
        Mn1           15.00    54.93800     Mn( 1.00)
        Mn2           15.00    54.93800     Mn( 1.00)
        Au            11.00   196.96600     Au( 1.00)

     Starting magnetic structure 
     atomic species   magnetization
        Mn1          0.800
        Mn2         -0.800
        Au           0.000


     Full LDA+U calculation (l_max = 2) with parameters (eV):
     U(  1) =   3.1200   J(  1) =   0.7000   B(  1) =   0.0803
     U(  2) =   3.1200   J(  2) =   0.7000   B(  2) =   0.0803



      8 Sym. Ops. (no inversion) found



   Cartesian axes

     site n.     atom                  positions (alat units)
         1           Mn1 tau(   1) = (   0.0000000   0.0000000   0.0000000  )
         2           Mn1 tau(   2) = (   0.0000000   0.0000000   2.5990000  )
         3           Mn1 tau(   3) = (   0.0000000   0.0000000   5.1980000  )
         4           Mn1 tau(   4) = (   0.0000000   0.0000000   7.7970000  )
         5           Mn1 tau(   5) = (   0.5000000   0.5000000   1.2995000  )
         6           Mn2 tau(   6) = (   0.5000000   0.5000000   3.8985000  )
         7           Mn1 tau(   7) = (   0.5000000   0.5000000   6.4975000  )
         8           Mn2 tau(   8) = (   0.5000000   0.5000000   9.0965000  )
         9           Au  tau(   9) = (   0.5000000   0.5000000   2.1831600  )
        10           Au  tau(  10) = (   0.5000000   0.5000000   4.7821600  )
        11           Au  tau(  11) = (   0.5000000   0.5000000   7.3811600  )
        12           Au  tau(  12) = (   0.5000000   0.5000000   9.9801600  )
        13           Au  tau(  13) = (   0.5000000   0.5000000   0.4158400  )
        14           Au  tau(  14) = (   0.5000000   0.5000000   3.0148400  )
        15           Au  tau(  15) = (   0.5000000   0.5000000   5.6138400  )
        16           Au  tau(  16) = (   0.5000000   0.5000000   8.2128400  )
        17           Au  tau(  17) = (   0.0000000   0.0000000   0.8836600  )
        18           Au  tau(  18) = (   0.0000000   0.0000000   3.4826600  )
        19           Au  tau(  19) = (   0.0000000   0.0000000   6.0816600  )
        20           Au  tau(  20) = (   0.0000000   0.0000000   8.6806600  )
        21           Au  tau(  21) = (   0.0000000   0.0000000   1.7153400  )
        22           Au  tau(  22) = (   0.0000000   0.0000000   4.3143400  )
        23           Au  tau(  23) = (   0.0000000   0.0000000   6.9133400  )
        24           Au  tau(  24) = (   0.0000000   0.0000000   9.5123400  )

     number of k points=   135 (tetrahedron method)

     Number of k-points >= 100: set verbosity='high' to print them.

     Dense  grid:   362981 G-vectors     FFT dimensions: (  45,  45, 432)

     Smooth grid:   109451 G-vectors     FFT dimensions: (  27,  27, 288)

     Estimated max dynamical RAM per process >     439.54 MB

     Estimated total dynamical RAM >      13.74 GB
     Generating pointlists ...
     new r_m :   0.3384 (alat units)  2.1549 (a.u.) for type    1
     new r_m :   0.3384 (alat units)  2.1549 (a.u.) for type    2
     new r_m :   0.3384 (alat units)  2.1549 (a.u.) for type    3

     Check: negative/imaginary core charge=   -0.000006    0.000000

     Initial potential from superposition of free atoms

     starting charge  295.99426, renormalised to  296.00000
     Number of +U iterations with fixed ns =  0
     Starting occupations:
 --- enter write_ns ---
 LDA+U parameters:
U(  1) =   3.1200   J(  1) =   0.7000   B(  1) =   0.0803
U(  2) =   3.1200   J(  2) =   0.7000   B(  2) =   0.0803
atom    1   Tr[ns(na)] (up, down, total) =   5.00000  0.00000  5.00000
   spin  1
    eigenvalues: 
  1.000  1.000  1.000  1.000  1.000
    eigenvectors:
  1.000  0.000  0.000  0.000  0.000
  0.000  1.000  0.000  0.000  0.000
  0.000  0.000  1.000  0.000  0.000
  0.000  0.000  0.000  1.000  0.000
  0.000  0.000  0.000  0.000  1.000
    occupations:
  1.000  0.000  0.000  0.000  0.000
  0.000  1.000  0.000  0.000  0.000
  0.000  0.000  1.000  0.000  0.000
  0.000  0.000  0.000  1.000  0.000
  0.000  0.000  0.000  0.000  1.000
   spin  2
    eigenvalues: 
  0.000  0.000  0.000  0.000  0.000
    eigenvectors:
  1.000  0.000  0.000  0.000  0.000
  0.000  1.000  0.000  0.000  0.000
  0.000  0.000  1.000  0.000  0.000
  0.000  0.000  0.000  1.000  0.000
  0.000  0.000  0.000  0.000  1.000
    occupations:
  0.000  0.000  0.000  0.000  0.000
  0.000  0.000  0.000  0.000  0.000
  0.000  0.000  0.000  0.000  0.000
  0.000  0.000  0.000  0.000  0.000
  0.000  0.000  0.000  0.000  0.000
atomic mag. moment =     5.000000
atom    2   Tr[ns(na)] (up, down, total) =   5.00000  0.00000  5.00000
   spin  1
    eigenvalues: 
  1.000  1.000  1.000  1.000  1.000
    eigenvectors:
  1.000  0.000  0.000  0.000  0.000
  0.000  1.000  0.000  0.000  0.000
  0.000  0.000  1.000  0.000  0.000
  0.000  0.000  0.000  1.000  0.000
  0.000  0.000  0.000  0.000  1.000
    occupations:
  1.000  0.000  0.000  0.000  0.000
  0.000  1.000  0.000  0.000  0.000
  0.000  0.000  1.000  0.000  0.000
  0.000  0.000  0.000  1.000  0.000
  0.000  0.000  0.000  0.000  1.000
   spin  2
    eigenvalues: 
  0.000  0.000  0.000  0.000  0.000
    eigenvectors:
  1.000  0.000  0.000  0.000  0.000
  0.000  1.000  0.000  0.000  0.000
  0.000  0.000  1.000  0.000  0.000
  0.000  0.000  0.000  1.000  0.000
  0.000  0.000  0.000  0.000  1.000
    occupations:
  0.000  0.000  0.000  0.000  0.000
  0.000  0.000  0.000  0.000  0.000
  0.000  0.000  0.000  0.000  0.000
  0.000  0.000  0.000  0.000  0.000
  0.000  0.000  0.000  0.000  0.000
atomic mag. moment =     5.000000
atom    3   Tr[ns(na)] (up, down, total) =   5.00000  0.00000  5.00000
   spin  1
    eigenvalues: 
  1.000  1.000  1.000  1.000  1.000
    eigenvectors:
  1.000  0.000  0.000  0.000  0.000
  0.000  1.000  0.000  0.000  0.000
  0.000  0.000  1.000  0.000  0.000
  0.000  0.000  0.000  1.000  0.000
  0.000  0.000  0.000  0.000  1.000
    occupations:
  1.000  0.000  0.000  0.000  0.000
  0.000  1.000  0.000  0.000  0.000
  0.000  0.000  1.000  0.000  0.000
  0.000  0.000  0.000  1.000  0.000
  0.000  0.000  0.000  0.000  1.000
   spin  2
    eigenvalues: 
  0.000  0.000  0.000  0.000  0.000
    eigenvectors:
  1.000  0.000  0.000  0.000  0.000
  0.000  1.000  0.000  0.000  0.000
  0.000  0.000  1.000  0.000  0.000
  0.000  0.000  0.000  1.000  0.000
  0.000  0.000  0.000  0.000  1.000
    occupations:
  0.000  0.000  0.000  0.000  0.000
  0.000  0.000  0.000  0.000  0.000
  0.000  0.000  0.000  0.000  0.000
  0.000  0.000  0.000  0.000  0.000
  0.000  0.000  0.000  0.000  0.000
atomic mag. moment =     5.000000
atom    4   Tr[ns(na)] (up, down, total) =   5.00000  0.00000  5.00000
   spin  1
    eigenvalues: 
  1.000  1.000  1.000  1.000  1.000
    eigenvectors:
  1.000  0.000  0.000  0.000  0.000
  0.000  1.000  0.000  0.000  0.000
  0.000  0.000  1.000  0.000  0.000
  0.000  0.000  0.000  1.000  0.000
  0.000  0.000  0.000  0.000  1.000
    occupations:
  1.000  0.000  0.000  0.000  0.000
  0.000  1.000  0.000  0.000  0.000
  0.000  0.000  1.000  0.000  0.000
  0.000  0.000  0.000  1.000  0.000
  0.000  0.000  0.000  0.000  1.000
   spin  2
    eigenvalues: 
  0.000  0.000  0.000  0.000  0.000
    eigenvectors:
  1.000  0.000  0.000  0.000  0.000
  0.000  1.000  0.000  0.000  0.000
  0.000  0.000  1.000  0.000  0.000
  0.000  0.000  0.000  1.000  0.000
  0.000  0.000  0.000  0.000  1.000
    occupations:
  0.000  0.000  0.000  0.000  0.000
  0.000  0.000  0.000  0.000  0.000
  0.000  0.000  0.000  0.000  0.000
  0.000  0.000  0.000  0.000  0.000
  0.000  0.000  0.000  0.000  0.000
atomic mag. moment =     5.000000
atom    5   Tr[ns(na)] (up, down, total) =   5.00000  0.00000  5.00000
   spin  1
    eigenvalues: 
  1.000  1.000  1.000  1.000  1.000
    eigenvectors:
  1.000  0.000  0.000  0.000  0.000
  0.000  1.000  0.000  0.000  0.000
  0.000  0.000  1.000  0.000  0.000
  0.000  0.000  0.000  1.000  0.000
  0.000  0.000  0.000  0.000  1.000
    occupations:
  1.000  0.000  0.000  0.000  0.000
  0.000  1.000  0.000  0.000  0.000
  0.000  0.000  1.000  0.000  0.000
  0.000  0.000  0.000  1.000  0.000
  0.000  0.000  0.000  0.000  1.000
   spin  2
    eigenvalues: 
  0.000  0.000  0.000  0.000  0.000
    eigenvectors:
  1.000  0.000  0.000  0.000  0.000
  0.000  1.000  0.000  0.000  0.000
  0.000  0.000  1.000  0.000  0.000
  0.000  0.000  0.000  1.000  0.000
  0.000  0.000  0.000  0.000  1.000
    occupations:
  0.000  0.000  0.000  0.000  0.000
  0.000  0.000  0.000  0.000  0.000
  0.000  0.000  0.000  0.000  0.000
  0.000  0.000  0.000  0.000  0.000
  0.000  0.000  0.000  0.000  0.000
atomic mag. moment =     5.000000
atom    6   Tr[ns(na)] (up, down, total) =   0.00000  5.00000  5.00000
   spin  1
    eigenvalues: 
  0.000  0.000  0.000  0.000  0.000
    eigenvectors:
  1.000  0.000  0.000  0.000  0.000
  0.000  1.000  0.000  0.000  0.000
  0.000  0.000  1.000  0.000  0.000
  0.000  0.000  0.000  1.000  0.000
  0.000  0.000  0.000  0.000  1.000
    occupations:
  0.000  0.000  0.000  0.000  0.000
  0.000  0.000  0.000  0.000  0.000
  0.000  0.000  0.000  0.000  0.000
  0.000  0.000  0.000  0.000  0.000
  0.000  0.000  0.000  0.000  0.000
   spin  2
    eigenvalues: 
  1.000  1.000  1.000  1.000  1.000
    eigenvectors:
  1.000  0.000  0.000  0.000  0.000
  0.000  1.000  0.000  0.000  0.000
  0.000  0.000  1.000  0.000  0.000
  0.000  0.000  0.000  1.000  0.000
  0.000  0.000  0.000  0.000  1.000
    occupations:
  1.000  0.000  0.000  0.000  0.000
  0.000  1.000  0.000  0.000  0.000
  0.000  0.000  1.000  0.000  0.000
  0.000  0.000  0.000  1.000  0.000
  0.000  0.000  0.000  0.000  1.000
atomic mag. moment =    -5.000000
atom    7   Tr[ns(na)] (up, down, total) =   5.00000  0.00000  5.00000
   spin  1
    eigenvalues: 
  1.000  1.000  1.000  1.000  1.000
    eigenvectors:
  1.000  0.000  0.000  0.000  0.000
  0.000  1.000  0.000  0.000  0.000
  0.000  0.000  1.000  0.000  0.000
  0.000  0.000  0.000  1.000  0.000
  0.000  0.000  0.000  0.000  1.000
    occupations:
  1.000  0.000  0.000  0.000  0.000
  0.000  1.000  0.000  0.000  0.000
  0.000  0.000  1.000  0.000  0.000
  0.000  0.000  0.000  1.000  0.000
  0.000  0.000  0.000  0.000  1.000
   spin  2
    eigenvalues: 
  0.000  0.000  0.000  0.000  0.000
    eigenvectors:
  1.000  0.000  0.000  0.000  0.000
  0.000  1.000  0.000  0.000  0.000
  0.000  0.000  1.000  0.000  0.000
  0.000  0.000  0.000  1.000  0.000
  0.000  0.000  0.000  0.000  1.000
    occupations:
  0.000  0.000  0.000  0.000  0.000
  0.000  0.000  0.000  0.000  0.000
  0.000  0.000  0.000  0.000  0.000
  0.000  0.000  0.000  0.000  0.000
  0.000  0.000  0.000  0.000  0.000
atomic mag. moment =     5.000000
atom    8   Tr[ns(na)] (up, down, total) =   0.00000  5.00000  5.00000
   spin  1
    eigenvalues: 
  0.000  0.000  0.000  0.000  0.000
    eigenvectors:
  1.000  0.000  0.000  0.000  0.000
  0.000  1.000  0.000  0.000  0.000
  0.000  0.000  1.000  0.000  0.000
  0.000  0.000  0.000  1.000  0.000
  0.000  0.000  0.000  0.000  1.000
    occupations:
  0.000  0.000  0.000  0.000  0.000
  0.000  0.000  0.000  0.000  0.000
  0.000  0.000  0.000  0.000  0.000
  0.000  0.000  0.000  0.000  0.000
  0.000  0.000  0.000  0.000  0.000
   spin  2
    eigenvalues: 
  1.000  1.000  1.000  1.000  1.000
    eigenvectors:
  1.000  0.000  0.000  0.000  0.000
  0.000  1.000  0.000  0.000  0.000
  0.000  0.000  1.000  0.000  0.000
  0.000  0.000  0.000  1.000  0.000
  0.000  0.000  0.000  0.000  1.000
    occupations:
  1.000  0.000  0.000  0.000  0.000
  0.000  1.000  0.000  0.000  0.000
  0.000  0.000  1.000  0.000  0.000
  0.000  0.000  0.000  1.000  0.000
  0.000  0.000  0.000  0.000  1.000
atomic mag. moment =    -5.000000
N of occupied +U levels =   40.000000
 --- exit write_ns ---
 Atomic wfc used for LDA+U Projector are NOT orthogonalized
     Starting wfcs are  224 randomized atomic wfcs
     Checking if some PAW data can be deallocated... 

     total cpu time spent up to now is      146.5 secs

     Self-consistent Calculation

     iteration #  1     ecut=    45.00 Ry     beta= 0.10
     Davidson diagonalization with overlap
     ethr =  1.00E-02,  avg # of iterations =  3.7
 --- enter write_ns ---
 LDA+U parameters:
U(  1) =   3.1200   J(  1) =   0.7000   B(  1) =   0.0803
U(  2) =   3.1200   J(  2) =   0.7000   B(  2) =   0.0803
atom    1   Tr[ns(na)] (up, down, total) =   5.01731  0.42215  5.43946
   spin  1
    eigenvalues: 
  1.002  1.003  1.003  1.004  1.004
    eigenvectors:
  0.000  0.000  0.000  1.000  0.000
  0.000  0.261  0.739  0.000  0.000
  0.000  0.739  0.261  0.000  0.000
  0.000  0.000  0.000  0.000  1.000
  1.000  0.000  0.000  0.000  0.000
    occupations:
  1.004 -0.000 -0.000  0.000  0.000
 -0.000  1.003 -0.000  0.000  0.000
 -0.000 -0.000  1.003  0.000  0.000
  0.000  0.000  0.000  1.004 -0.000
  0.000  0.000  0.000 -0.000  1.002
   spin  2
    eigenvalues: 
  0.055  0.074  0.084  0.084  0.125
    eigenvectors:
  0.000  1.000  0.000  0.000  0.000
  0.000  0.000  0.309  0.691  0.000
  0.000  0.000  0.691  0.309  0.000
  1.000  0.000  0.000  0.000  0.000
  0.000  0.000  0.000  0.000  1.000
    occupations:
  0.074 -0.000 -0.000  0.000  0.000
 -0.000  0.084 -0.000  0.000  0.000
 -0.000 -0.000  0.084  0.000  0.000
  0.000  0.000  0.000  0.055 -0.000
  0.000  0.000  0.000 -0.000  0.125
atomic mag. moment =     4.595163
atom    2   Tr[ns(na)] (up, down, total) =   5.01737  0.42264  5.44001
   spin  1
    eigenvalues: 
  1.003  1.003  1.003  1.004  1.004
    eigenvectors:
  0.000  0.000  0.000  1.000  0.000
  0.000  0.322  0.678  0.000  0.000
  0.000  0.678  0.322  0.000  0.000
  0.000  0.000  0.000  0.000  1.000
  1.000  0.000  0.000  0.000  0.000
    occupations:
  1.004 -0.000 -0.000  0.000  0.000
 -0.000  1.003 -0.000  0.000  0.000
 -0.000 -0.000  1.003  0.000  0.000
  0.000  0.000  0.000  1.004 -0.000
  0.000  0.000  0.000 -0.000  1.003
   spin  2
    eigenvalues: 
  0.055  0.074  0.084  0.084  0.125
    eigenvectors:
  0.000  1.000  0.000  0.000  0.000
  0.000  0.000  0.338  0.662  0.000
  0.000  0.000  0.662  0.338  0.000
  1.000  0.000  0.000  0.000  0.000
  0.000  0.000  0.000  0.000  1.000
    occupations:
  0.074 -0.000 -0.000  0.000  0.000
 -0.000  0.084 -0.000  0.000  0.000
 -0.000 -0.000  0.084  0.000  0.000
  0.000  0.000  0.000  0.055 -0.000
  0.000  0.000  0.000 -0.000  0.125
atomic mag. moment =     4.594725
atom    3   Tr[ns(na)] (up, down, total) =   5.01734  0.42330  5.44064
   spin  1
    eigenvalues: 
  1.003  1.003  1.003  1.004  1.004
    eigenvectors:
  0.000  0.000  0.000  1.000  0.000
  0.000  0.309  0.691  0.000  0.000
  0.000  0.691  0.309  0.000  0.000
  0.000  0.000  0.000  0.000  1.000
  1.000  0.000  0.000  0.000  0.000
    occupations:
  1.004 -0.000 -0.000  0.000  0.000
 -0.000  1.003 -0.000  0.000  0.000
 -0.000 -0.000  1.003  0.000  0.000
  0.000  0.000  0.000  1.004 -0.000
  0.000  0.000  0.000 -0.000  1.003
   spin  2
    eigenvalues: 
  0.055  0.074  0.084  0.084  0.126
    eigenvectors:
  0.000  1.000  0.000  0.000  0.000
  0.000  0.000  0.407  0.593  0.000
  0.000  0.000  0.593  0.407  0.000
  1.000  0.000  0.000  0.000  0.000
  0.000  0.000  0.000  0.000  1.000
    occupations:
  0.074 -0.000 -0.000  0.000  0.000
 -0.000  0.084 -0.000  0.000  0.000
 -0.000 -0.000  0.084  0.000  0.000
  0.000  0.000  0.000  0.055 -0.000
  0.000  0.000  0.000 -0.000  0.126
atomic mag. moment =     4.594048
atom    4   Tr[ns(na)] (up, down, total) =   5.01723  0.42260  5.43983
   spin  1
    eigenvalues: 
  1.002  1.003  1.003  1.004  1.004
    eigenvectors:
  0.000  0.000  0.000  1.000  0.000
  0.000  0.271  0.729  0.000  0.000
  0.000  0.729  0.271  0.000  0.000
  0.000  0.000  0.000  0.000  1.000
  1.000  0.000  0.000  0.000  0.000
    occupations:
  1.004 -0.000 -0.000  0.000  0.000
 -0.000  1.003 -0.000  0.000  0.000
 -0.000 -0.000  1.003  0.000  0.000
  0.000  0.000  0.000  1.004 -0.000
  0.000  0.000  0.000 -0.000  1.002
   spin  2
    eigenvalues: 
  0.055  0.074  0.084  0.084  0.125
    eigenvectors:
  0.000  1.000  0.000  0.000  0.000
  0.000  0.000  0.375  0.625  0.000
  0.000  0.000  0.625  0.375  0.000
  1.000  0.000  0.000  0.000  0.000
  0.000  0.000  0.000  0.000  1.000
    occupations:
  0.074 -0.000 -0.000  0.000  0.000
 -0.000  0.084 -0.000  0.000  0.000
 -0.000 -0.000  0.084  0.000  0.000
  0.000  0.000  0.000  0.055 -0.000
  0.000  0.000  0.000 -0.000  0.125
atomic mag. moment =     4.594625
atom    5   Tr[ns(na)] (up, down, total) =   5.01752  0.41799  5.43551
   spin  1
    eigenvalues: 
  1.003  1.003  1.003  1.004  1.004
    eigenvectors:
  0.000  0.000  0.000  1.000  0.000
  0.000  0.264  0.736  0.000  0.000
  0.000  0.736  0.264  0.000  0.000
  0.000  0.000  0.000  0.000  1.000
  1.000  0.000  0.000  0.000  0.000
    occupations:
  1.004 -0.000 -0.000  0.000  0.000
 -0.000  1.003 -0.000  0.000  0.000
 -0.000 -0.000  1.003  0.000  0.000
  0.000  0.000  0.000  1.004 -0.000
  0.000  0.000  0.000 -0.000  1.003
   spin  2
    eigenvalues: 
  0.055  0.076  0.085  0.085  0.116
    eigenvectors:
  0.000  1.000  0.000  0.000  0.000
  0.000  0.000  0.258  0.742  0.000
  0.000  0.000  0.742  0.258  0.000
  1.000  0.000  0.000  0.000  0.000
  0.000  0.000  0.000  0.000  1.000
    occupations:
  0.076 -0.000 -0.000  0.000  0.000
 -0.000  0.085 -0.000  0.000  0.000
 -0.000 -0.000  0.085  0.000  0.000
  0.000  0.000  0.000  0.055 -0.000
  0.000  0.000  0.000 -0.000  0.116
atomic mag. moment =     4.599527
atom    6   Tr[ns(na)] (up, down, total) =   0.42703  5.01749  5.44452
   spin  1
    eigenvalues: 
  0.056  0.076  0.083  0.083  0.129
    eigenvectors:
  0.000  1.000  0.000  0.000  0.000
  0.000  0.000  0.314  0.686  0.000
  0.000  0.000  0.686  0.314  0.000
  1.000  0.000  0.000  0.000  0.000
  0.000  0.000  0.000  0.000  1.000
    occupations:
  0.076 -0.000 -0.000  0.000  0.000
 -0.000  0.083 -0.000  0.000  0.000
 -0.000 -0.000  0.083  0.000  0.000
  0.000  0.000  0.000  0.056 -0.000
  0.000  0.000  0.000 -0.000  0.129
   spin  2
    eigenvalues: 
  1.003  1.003  1.003  1.004  1.004
    eigenvectors:
  0.000  0.000  0.000  1.000  0.000
  0.000  0.303  0.697  0.000  0.000
  0.000  0.697  0.303  0.000  0.000
  0.000  0.000  0.000  0.000  1.000
  1.000  0.000  0.000  0.000  0.000
    occupations:
  1.004 -0.000 -0.000  0.000  0.000
 -0.000  1.003 -0.000  0.000  0.000
 -0.000 -0.000  1.003  0.000  0.000
  0.000  0.000  0.000  1.004 -0.000
  0.000  0.000  0.000 -0.000  1.003
atomic mag. moment =    -4.590454
atom    7   Tr[ns(na)] (up, down, total) =   5.01753  0.41722  5.43475
   spin  1
    eigenvalues: 
  1.003  1.003  1.003  1.004  1.004
    eigenvectors:
  0.000  0.000  0.000  1.000  0.000
  0.000  0.297  0.703  0.000  0.000
  0.000  0.703  0.297  0.000  0.000
  0.000  0.000  0.000  0.000  1.000
  1.000  0.000  0.000  0.000  0.000
    occupations:
  1.004 -0.000 -0.000  0.000  0.000
 -0.000  1.003 -0.000  0.000  0.000
 -0.000 -0.000  1.003  0.000  0.000
  0.000  0.000  0.000  1.004 -0.000
  0.000  0.000  0.000 -0.000  1.003
   spin  2
    eigenvalues: 
  0.055  0.076  0.085  0.085  0.116
    eigenvectors:
  0.000  1.000  0.000  0.000  0.000
  0.000  0.000  0.330  0.670  0.000
  0.000  0.000  0.670  0.330  0.000
  1.000  0.000  0.000  0.000  0.000
  0.000  0.000  0.000  0.000  1.000
    occupations:
  0.076 -0.000 -0.000  0.000  0.000
 -0.000  0.085 -0.000  0.000  0.000
 -0.000 -0.000  0.085  0.000  0.000
  0.000  0.000  0.000  0.055 -0.000
  0.000  0.000  0.000 -0.000  0.116
atomic mag. moment =     4.600301
atom    8   Tr[ns(na)] (up, down, total) =   0.42722  5.01734  5.44456
   spin  1
    eigenvalues: 
  0.056  0.076  0.083  0.083  0.129
    eigenvectors:
  0.000  1.000  0.000  0.000  0.000
  0.000  0.000  0.329  0.671  0.000
  0.000  0.000  0.671  0.329  0.000
  1.000  0.000  0.000  0.000  0.000
  0.000  0.000  0.000  0.000  1.000
    occupations:
  0.076 -0.000 -0.000  0.000  0.000
 -0.000  0.083 -0.000  0.000  0.000
 -0.000 -0.000  0.083  0.000  0.000
  0.000  0.000  0.000  0.056 -0.000
  0.000  0.000  0.000 -0.000  0.129
   spin  2
    eigenvalues: 
  1.003  1.003  1.003  1.004  1.004
    eigenvectors:
  0.000  0.000  0.000  1.000  0.000
  0.000  0.262  0.738  0.000  0.000
  0.000  0.738  0.262  0.000  0.000
  0.000  0.000  0.000  0.000  1.000
  1.000  0.000  0.000  0.000  0.000
    occupations:
  1.004 -0.000 -0.000  0.000  0.000
 -0.000  1.003 -0.000  0.000  0.000
 -0.000 -0.000  1.003  0.000  0.000
  0.000  0.000  0.000  1.004 -0.000
  0.000  0.000  0.000 -0.000  1.003
atomic mag. moment =    -4.590127
N of occupied +U levels =   43.519268
 --- exit write_ns ---

     total cpu time spent up to now is      544.9 secs

     total energy              =  -14687.24068129 Ry
     Harris-Foulkes estimate   =  -14685.78304637 Ry
     estimated scf accuracy    <      11.62057954 Ry

     total magnetization       =    20.06 Bohr mag/cell
     absolute magnetization    =    41.42 Bohr mag/cell

     iteration #  2     ecut=    45.00 Ry     beta= 0.10
     Davidson diagonalization with overlap
     ethr =  3.93E-03,  avg # of iterations =  1.0

     total cpu time spent up to now is      819.4 secs

     total energy              =  -14692.53148127 Ry
     Harris-Foulkes estimate   =  -14687.31265278 Ry
     estimated scf accuracy    <       9.34635124 Ry

     total magnetization       =    19.83 Bohr mag/cell
     absolute magnetization    =    41.10 Bohr mag/cell

     iteration #  3     ecut=    45.00 Ry     beta= 0.10
     Davidson diagonalization with overlap
     ethr =  3.16E-03,  avg # of iterations =  2.4

     total cpu time spent up to now is     1154.2 secs

     total energy              =  -14693.68758742 Ry
     Harris-Foulkes estimate   =  -14694.09565023 Ry
     estimated scf accuracy    <      28.62467165 Ry

     total magnetization       =    18.50 Bohr mag/cell
     absolute magnetization    =    38.42 Bohr mag/cell

     iteration #  4     ecut=    45.00 Ry     beta= 0.10
     Davidson diagonalization with overlap
     ethr =  3.16E-03,  avg # of iterations =  1.2

     total cpu time spent up to now is     1410.4 secs

     total energy              =  -14694.06390067 Ry
     Harris-Foulkes estimate   =  -14693.92428566 Ry
     estimated scf accuracy    <       3.55654164 Ry

     total magnetization       =    18.63 Bohr mag/cell
     absolute magnetization    =    38.57 Bohr mag/cell

     iteration #  5     ecut=    45.00 Ry     beta= 0.10
     Davidson diagonalization with overlap
     ethr =  1.20E-03,  avg # of iterations =  1.3

     total cpu time spent up to now is     1673.9 secs

     total energy              =  -14693.58129495 Ry
     Harris-Foulkes estimate   =  -14694.07363854 Ry
     estimated scf accuracy    <       4.11014146 Ry

     total magnetization       =    18.59 Bohr mag/cell
     absolute magnetization    =    38.44 Bohr mag/cell

     iteration #  6     ecut=    45.00 Ry     beta= 0.10
     Davidson diagonalization with overlap
     ethr =  1.20E-03,  avg # of iterations =  2.2

     total cpu time spent up to now is     1969.9 secs

     total energy              =  -14692.84791373 Ry
     Harris-Foulkes estimate   =  -14693.75942197 Ry
     estimated scf accuracy    <      14.53410772 Ry

     total magnetization       =    18.64 Bohr mag/cell
     absolute magnetization    =    38.68 Bohr mag/cell

     iteration #  7     ecut=    45.00 Ry     beta= 0.10
     Davidson diagonalization with overlap
     ethr =  1.20E-03,  avg # of iterations =  3.8

     total cpu time spent up to now is     2471.4 secs

     total energy              =  -14693.46615672 Ry
     Harris-Foulkes estimate   =  -14694.20857217 Ry
     estimated scf accuracy    <       7.42735068 Ry

     total magnetization       =    17.80 Bohr mag/cell
     absolute magnetization    =    36.53 Bohr mag/cell

     iteration #  8     ecut=    45.00 Ry     beta= 0.10
     Davidson diagonalization with overlap
     ethr =  1.20E-03,  avg # of iterations =  2.2

     total cpu time spent up to now is     2781.3 secs

     total energy              =  -14693.97834938 Ry
     Harris-Foulkes estimate   =  -14693.96425834 Ry
     estimated scf accuracy    <       0.24564032 Ry

     total magnetization       =    17.67 Bohr mag/cell
     absolute magnetization    =    37.40 Bohr mag/cell

     iteration #  9     ecut=    45.00 Ry     beta= 0.10
     Davidson diagonalization with overlap
     ethr =  8.30E-05,  avg # of iterations =  4.3

     total cpu time spent up to now is     3186.8 secs

     total energy              =  -14694.00822205 Ry
     Harris-Foulkes estimate   =  -14694.00269870 Ry
     estimated scf accuracy    <       0.32762849 Ry

     total magnetization       =    17.56 Bohr mag/cell
     absolute magnetization    =    37.10 Bohr mag/cell

     iteration # 10     ecut=    45.00 Ry     beta= 0.10
     Davidson diagonalization with overlap
     ethr =  8.30E-05,  avg # of iterations =  1.2

     total cpu time spent up to now is     3454.6 secs

     total energy              =  -14693.95629194 Ry
     Harris-Foulkes estimate   =  -14694.01415194 Ry
     estimated scf accuracy    <       0.43622828 Ry

     total magnetization       =    17.53 Bohr mag/cell
     absolute magnetization    =    36.98 Bohr mag/cell

     iteration # 11     ecut=    45.00 Ry     beta= 0.10
     Davidson diagonalization with overlap
     ethr =  8.30E-05,  avg # of iterations =  2.2

     total cpu time spent up to now is     3763.0 secs

     total energy              =  -14693.97802913 Ry
     Harris-Foulkes estimate   =  -14693.98073265 Ry
     estimated scf accuracy    <       0.04138556 Ry

     total magnetization       =    17.54 Bohr mag/cell
     absolute magnetization    =    37.14 Bohr mag/cell

     iteration # 12     ecut=    45.00 Ry     beta= 0.10
     Davidson diagonalization with overlap
     ethr =  1.40E-05,  avg # of iterations =  6.0

     total cpu time spent up to now is     4223.0 secs

     total energy              =  -14693.98248351 Ry
     Harris-Foulkes estimate   =  -14693.98120752 Ry
     estimated scf accuracy    <       0.00820793 Ry

     total magnetization       =    17.53 Bohr mag/cell
     absolute magnetization    =    37.17 Bohr mag/cell

     iteration # 13     ecut=    45.00 Ry     beta= 0.10
     Davidson diagonalization with overlap
     c_bands:  1 eigenvalues not converged
     ethr =  2.77E-06,  avg # of iterations =  3.1

     total cpu time spent up to now is     4558.6 secs

     total energy              =  -14693.98437757 Ry
     Harris-Foulkes estimate   =  -14693.98285238 Ry
     estimated scf accuracy    <       0.00515063 Ry

     total magnetization       =    17.50 Bohr mag/cell
     absolute magnetization    =    37.13 Bohr mag/cell

     iteration # 14     ecut=    45.00 Ry     beta= 0.10
     Davidson diagonalization with overlap
     c_bands:  1 eigenvalues not converged
     ethr =  1.74E-06,  avg # of iterations =  5.2

     total cpu time spent up to now is     4995.1 secs

     total energy              =  -14693.98488746 Ry
     Harris-Foulkes estimate   =  -14693.98494912 Ry
     estimated scf accuracy    <       0.04945269 Ry

     total magnetization       =    17.48 Bohr mag/cell
     absolute magnetization    =    37.13 Bohr mag/cell

     iteration # 15     ecut=    45.00 Ry     beta= 0.10
     Davidson diagonalization with overlap
     ethr =  1.74E-06,  avg # of iterations =  4.8

     total cpu time spent up to now is     5404.6 secs

     total energy              =  -14693.98584318 Ry
     Harris-Foulkes estimate   =  -14693.98549481 Ry
     estimated scf accuracy    <       0.00168113 Ry

     total magnetization       =    17.46 Bohr mag/cell
     absolute magnetization    =    37.10 Bohr mag/cell

     iteration # 16     ecut=    45.00 Ry     beta= 0.10
     Davidson diagonalization with overlap
     ethr =  5.68E-07,  avg # of iterations =  1.7

     total cpu time spent up to now is     5701.3 secs

     total energy              =  -14693.98602581 Ry
     Harris-Foulkes estimate   =  -14693.98594748 Ry
     estimated scf accuracy    <       0.00162327 Ry

     total magnetization       =    17.45 Bohr mag/cell
     absolute magnetization    =    37.10 Bohr mag/cell

     iteration # 17     ecut=    45.00 Ry     beta= 0.10
     Davidson diagonalization with overlap
     ethr =  5.48E-07,  avg # of iterations =  1.0

     total cpu time spent up to now is     5961.2 secs

     total energy              =  -14693.98609397 Ry
     Harris-Foulkes estimate   =  -14693.98608897 Ry
     estimated scf accuracy    <       0.00142305 Ry

     total magnetization       =    17.46 Bohr mag/cell
     absolute magnetization    =    37.11 Bohr mag/cell

     iteration # 18     ecut=    45.00 Ry     beta= 0.10
     Davidson diagonalization with overlap
     ethr =  4.81E-07,  avg # of iterations =  1.0

     total cpu time spent up to now is     6214.8 secs

     total energy              =  -14693.98614736 Ry
     Harris-Foulkes estimate   =  -14693.98611901 Ry
     estimated scf accuracy    <       0.00018927 Ry

     total magnetization       =    17.46 Bohr mag/cell
     absolute magnetization    =    37.11 Bohr mag/cell

     iteration # 19     ecut=    45.00 Ry     beta= 0.10
     Davidson diagonalization with overlap
     ethr =  6.39E-08,  avg # of iterations =  1.8

     total cpu time spent up to now is     6497.8 secs

     total energy              =  -14693.98618002 Ry
     Harris-Foulkes estimate   =  -14693.98615684 Ry
     estimated scf accuracy    <       0.00032808 Ry

     total magnetization       =    17.45 Bohr mag/cell
     absolute magnetization    =    37.10 Bohr mag/cell

     iteration # 20     ecut=    45.00 Ry     beta= 0.10
     Davidson diagonalization with overlap
     ethr =  6.39E-08,  avg # of iterations =  1.0

     total cpu time spent up to now is     6746.4 secs

     total energy              =  -14693.98622031 Ry
     Harris-Foulkes estimate   =  -14693.98618738 Ry
     estimated scf accuracy    <       0.00016219 Ry

     total magnetization       =    17.45 Bohr mag/cell
     absolute magnetization    =    37.10 Bohr mag/cell

     iteration # 21     ecut=    45.00 Ry     beta= 0.10
     Davidson diagonalization with overlap
     ethr =  5.48E-08,  avg # of iterations =  1.2

     total cpu time spent up to now is     6998.3 secs

     total energy              =  -14693.98624440 Ry
     Harris-Foulkes estimate   =  -14693.98623146 Ry
     estimated scf accuracy    <       0.00024607 Ry

     total magnetization       =    17.45 Bohr mag/cell
     absolute magnetization    =    37.10 Bohr mag/cell

     iteration # 22     ecut=    45.00 Ry     beta= 0.10
     Davidson diagonalization with overlap
     ethr =  5.48E-08,  avg # of iterations =  1.3

     total cpu time spent up to now is     7257.4 secs

     total energy              =  -14693.98625377 Ry
     Harris-Foulkes estimate   =  -14693.98625098 Ry
     estimated scf accuracy    <       0.00022877 Ry

     total magnetization       =    17.44 Bohr mag/cell
     absolute magnetization    =    37.09 Bohr mag/cell

     iteration # 23     ecut=    45.00 Ry     beta= 0.10
     Davidson diagonalization with overlap
     ethr =  5.48E-08,  avg # of iterations =  1.0

     total cpu time spent up to now is     7503.6 secs

     total energy              =  -14693.98625944 Ry
     Harris-Foulkes estimate   =  -14693.98625685 Ry
     estimated scf accuracy    <       0.00011174 Ry

     total magnetization       =    17.44 Bohr mag/cell
     absolute magnetization    =    37.09 Bohr mag/cell

     iteration # 24     ecut=    45.00 Ry     beta= 0.10
     Davidson diagonalization with overlap
     ethr =  3.77E-08,  avg # of iterations =  1.0

     total cpu time spent up to now is     7753.9 secs

     total energy              =  -14693.98626407 Ry
     Harris-Foulkes estimate   =  -14693.98626022 Ry
     estimated scf accuracy    <       0.00008781 Ry

     total magnetization       =    17.44 Bohr mag/cell
     absolute magnetization    =    37.09 Bohr mag/cell

     iteration # 25     ecut=    45.00 Ry     beta= 0.10
     Davidson diagonalization with overlap
     ethr =  2.97E-08,  avg # of iterations =  1.1

     total cpu time spent up to now is     8011.6 secs

     total energy              =  -14693.98626568 Ry
     Harris-Foulkes estimate   =  -14693.98626523 Ry
     estimated scf accuracy    <       0.00009255 Ry

     total magnetization       =    17.44 Bohr mag/cell
     absolute magnetization    =    37.09 Bohr mag/cell

     iteration # 26     ecut=    45.00 Ry     beta= 0.10
     Davidson diagonalization with overlap
     ethr =  2.97E-08,  avg # of iterations =  1.0

     total cpu time spent up to now is     8282.1 secs

     total energy              =  -14693.98626808 Ry
     Harris-Foulkes estimate   =  -14693.98626655 Ry
     estimated scf accuracy    <       0.00004026 Ry

     total magnetization       =    17.44 Bohr mag/cell
     absolute magnetization    =    37.09 Bohr mag/cell

     iteration # 27     ecut=    45.00 Ry     beta= 0.10
     Davidson diagonalization with overlap
     ethr =  1.36E-08,  avg # of iterations =  1.0

     total cpu time spent up to now is     8529.8 secs

     total energy              =  -14693.98626899 Ry
     Harris-Foulkes estimate   =  -14693.98626836 Ry
     estimated scf accuracy    <       0.00006098 Ry

     total magnetization       =    17.44 Bohr mag/cell
     absolute magnetization    =    37.09 Bohr mag/cell

     iteration # 28     ecut=    45.00 Ry     beta= 0.10
     Davidson diagonalization with overlap
     ethr =  1.36E-08,  avg # of iterations =  1.0

     total cpu time spent up to now is     8779.4 secs

     total energy              =  -14693.98626979 Ry
     Harris-Foulkes estimate   =  -14693.98626920 Ry
     estimated scf accuracy    <       0.00004150 Ry

     total magnetization       =    17.44 Bohr mag/cell
     absolute magnetization    =    37.09 Bohr mag/cell

     iteration # 29     ecut=    45.00 Ry     beta= 0.10
     Davidson diagonalization with overlap
     ethr =  1.36E-08,  avg # of iterations =  1.0

     total cpu time spent up to now is     9039.0 secs

     total energy              =  -14693.98627066 Ry
     Harris-Foulkes estimate   =  -14693.98627015 Ry
     estimated scf accuracy    <       0.00005956 Ry

     total magnetization       =    17.44 Bohr mag/cell
     absolute magnetization    =    37.09 Bohr mag/cell

     iteration # 30     ecut=    45.00 Ry     beta= 0.10
     Davidson diagonalization with overlap
     ethr =  1.36E-08,  avg # of iterations =  1.0

     total cpu time spent up to now is     9292.5 secs

     total energy              =  -14693.98627100 Ry
     Harris-Foulkes estimate   =  -14693.98627075 Ry
     estimated scf accuracy    <       0.00004371 Ry

     total magnetization       =    17.44 Bohr mag/cell
     absolute magnetization    =    37.09 Bohr mag/cell

     iteration # 31     ecut=    45.00 Ry     beta= 0.10
     Davidson diagonalization with overlap
     ethr =  1.36E-08,  avg # of iterations =  1.0

     total cpu time spent up to now is     9546.7 secs

     total energy              =  -14693.98627155 Ry
     Harris-Foulkes estimate   =  -14693.98627119 Ry
     estimated scf accuracy    <       0.00007870 Ry

     total magnetization       =    17.44 Bohr mag/cell
     absolute magnetization    =    37.09 Bohr mag/cell

     iteration # 32     ecut=    45.00 Ry     beta= 0.10
     Davidson diagonalization with overlap
     ethr =  1.36E-08,  avg # of iterations =  1.0

     total cpu time spent up to now is     9794.5 secs

     total energy              =  -14693.98627197 Ry
     Harris-Foulkes estimate   =  -14693.98627165 Ry
     estimated scf accuracy    <       0.00005913 Ry

     total magnetization       =    17.44 Bohr mag/cell
     absolute magnetization    =    37.09 Bohr mag/cell

     iteration # 33     ecut=    45.00 Ry     beta= 0.10
     Davidson diagonalization with overlap
     ethr =  1.36E-08,  avg # of iterations =  1.0

     total cpu time spent up to now is    10048.3 secs

     total energy              =  -14693.98627239 Ry
     Harris-Foulkes estimate   =  -14693.98627210 Ry
     estimated scf accuracy    <       0.00002931 Ry

     total magnetization       =    17.44 Bohr mag/cell
     absolute magnetization    =    37.09 Bohr mag/cell

     iteration # 34     ecut=    45.00 Ry     beta= 0.10
     Davidson diagonalization with overlap
     ethr =  9.90E-09,  avg # of iterations =  1.0

     total cpu time spent up to now is    10305.0 secs

     total energy              =  -14693.98627277 Ry
     Harris-Foulkes estimate   =  -14693.98627252 Ry
     estimated scf accuracy    <       0.00004140 Ry

     total magnetization       =    17.44 Bohr mag/cell
     absolute magnetization    =    37.09 Bohr mag/cell

     iteration # 35     ecut=    45.00 Ry     beta= 0.10
     Davidson diagonalization with overlap
     ethr =  9.90E-09,  avg # of iterations =  1.0

     total cpu time spent up to now is    10553.2 secs

     total energy              =  -14693.98627319 Ry
     Harris-Foulkes estimate   =  -14693.98627288 Ry
     estimated scf accuracy    <       0.00002559 Ry

     total magnetization       =    17.44 Bohr mag/cell
     absolute magnetization    =    37.09 Bohr mag/cell

     iteration # 36     ecut=    45.00 Ry     beta= 0.10
     Davidson diagonalization with overlap
     ethr =  8.65E-09,  avg # of iterations =  1.0

     total cpu time spent up to now is    10817.0 secs

     total energy              =  -14693.98627351 Ry
     Harris-Foulkes estimate   =  -14693.98627320 Ry
     estimated scf accuracy    <       0.00000659 Ry

     total magnetization       =    17.44 Bohr mag/cell
     absolute magnetization    =    37.09 Bohr mag/cell

     iteration # 37     ecut=    45.00 Ry     beta= 0.10
     Davidson diagonalization with overlap
     ethr =  2.23E-09,  avg # of iterations =  1.0

     total cpu time spent up to now is    11065.4 secs

     total energy              =  -14693.98627377 Ry
     Harris-Foulkes estimate   =  -14693.98627351 Ry
     estimated scf accuracy    <       0.00001280 Ry

     total magnetization       =    17.44 Bohr mag/cell
     absolute magnetization    =    37.09 Bohr mag/cell

     iteration # 38     ecut=    45.00 Ry     beta= 0.10
     Davidson diagonalization with overlap
     ethr =  2.23E-09,  avg # of iterations =  1.0

     total cpu time spent up to now is    11318.7 secs

     total energy              =  -14693.98627404 Ry
     Harris-Foulkes estimate   =  -14693.98627379 Ry
     estimated scf accuracy    <       0.00001553 Ry

     total magnetization       =    17.44 Bohr mag/cell
     absolute magnetization    =    37.09 Bohr mag/cell

     iteration # 39     ecut=    45.00 Ry     beta= 0.10
     Davidson diagonalization with overlap
     ethr =  2.23E-09,  avg # of iterations =  1.0

     total cpu time spent up to now is    11569.0 secs

     total energy              =  -14693.98627422 Ry
     Harris-Foulkes estimate   =  -14693.98627403 Ry
     estimated scf accuracy    <       0.00003049 Ry

     total magnetization       =    17.44 Bohr mag/cell
     absolute magnetization    =    37.09 Bohr mag/cell

     iteration # 40     ecut=    45.00 Ry     beta= 0.10
     Davidson diagonalization with overlap
     ethr =  2.23E-09,  avg # of iterations =  1.0

     total cpu time spent up to now is    11819.2 secs

     total energy              =  -14693.98627437 Ry
     Harris-Foulkes estimate   =  -14693.98627423 Ry
     estimated scf accuracy    <       0.00003091 Ry

     total magnetization       =    17.44 Bohr mag/cell
     absolute magnetization    =    37.09 Bohr mag/cell

     iteration # 41     ecut=    45.00 Ry     beta= 0.10
     Davidson diagonalization with overlap
     ethr =  2.23E-09,  avg # of iterations =  1.0

     total cpu time spent up to now is    12074.4 secs

     total energy              =  -14693.98627455 Ry
     Harris-Foulkes estimate   =  -14693.98627440 Ry
     estimated scf accuracy    <       0.00001124 Ry

     total magnetization       =    17.44 Bohr mag/cell
     absolute magnetization    =    37.09 Bohr mag/cell

     iteration # 42     ecut=    45.00 Ry     beta= 0.10
     Davidson diagonalization with overlap
     ethr =  2.23E-09,  avg # of iterations =  1.0

     total cpu time spent up to now is    12324.6 secs

     total energy              =  -14693.98627465 Ry
     Harris-Foulkes estimate   =  -14693.98627452 Ry
     estimated scf accuracy    <       0.00000135 Ry

     total magnetization       =    17.44 Bohr mag/cell
     absolute magnetization    =    37.09 Bohr mag/cell

     iteration # 43     ecut=    45.00 Ry     beta= 0.10
     Davidson diagonalization with overlap
     ethr =  4.56E-10,  avg # of iterations =  1.0

     total cpu time spent up to now is    12574.5 secs

     total energy              =  -14693.98627477 Ry
     Harris-Foulkes estimate   =  -14693.98627466 Ry
     estimated scf accuracy    <       0.00000242 Ry

     total magnetization       =    17.44 Bohr mag/cell
     absolute magnetization    =    37.09 Bohr mag/cell

     iteration # 44     ecut=    45.00 Ry     beta= 0.10
     Davidson diagonalization with overlap
     ethr =  4.56E-10,  avg # of iterations =  1.0

     total cpu time spent up to now is    12831.7 secs

     total energy              =  -14693.98627489 Ry
     Harris-Foulkes estimate   =  -14693.98627478 Ry
     estimated scf accuracy    <       0.00000862 Ry

     total magnetization       =    17.44 Bohr mag/cell
     absolute magnetization    =    37.09 Bohr mag/cell

     iteration # 45     ecut=    45.00 Ry     beta= 0.10
     Davidson diagonalization with overlap
     ethr =  4.56E-10,  avg # of iterations =  1.0

     total cpu time spent up to now is    13081.8 secs

     total energy              =  -14693.98627496 Ry
     Harris-Foulkes estimate   =  -14693.98627490 Ry
     estimated scf accuracy    <       0.00002789 Ry

     total magnetization       =    17.44 Bohr mag/cell
     absolute magnetization    =    37.09 Bohr mag/cell

     iteration # 46     ecut=    45.00 Ry     beta= 0.10
     Davidson diagonalization with overlap
     ethr =  4.56E-10,  avg # of iterations =  1.0

     total cpu time spent up to now is    13329.3 secs

     total energy              =  -14693.98627504 Ry
     Harris-Foulkes estimate   =  -14693.98627498 Ry
     estimated scf accuracy    <       0.00002277 Ry

     total magnetization       =    17.44 Bohr mag/cell
     absolute magnetization    =    37.09 Bohr mag/cell

     iteration # 47     ecut=    45.00 Ry     beta= 0.10
     Davidson diagonalization with overlap
     ethr =  4.56E-10,  avg # of iterations =  1.0

     total cpu time spent up to now is    13576.5 secs

     total energy              =  -14693.98627495 Ry
     Harris-Foulkes estimate   =  -14693.98627507 Ry
     estimated scf accuracy    <       0.00003417 Ry

     total magnetization       =    17.44 Bohr mag/cell
     absolute magnetization    =    37.09 Bohr mag/cell

     iteration # 48     ecut=    45.00 Ry     beta= 0.10
     Davidson diagonalization with overlap
     ethr =  4.56E-10,  avg # of iterations =  1.1

     total cpu time spent up to now is    13827.1 secs

     total energy              =  -14693.98627494 Ry
     Harris-Foulkes estimate   =  -14693.98627505 Ry
     estimated scf accuracy    <       0.00000278 Ry

     total magnetization       =    17.44 Bohr mag/cell
     absolute magnetization    =    37.09 Bohr mag/cell

     iteration # 49     ecut=    45.00 Ry     beta= 0.10
     Davidson diagonalization with overlap
     ethr =  4.56E-10,  avg # of iterations =  1.1

     total cpu time spent up to now is    14080.4 secs

     total energy              =  -14693.98627522 Ry
     Harris-Foulkes estimate   =  -14693.98627501 Ry
     estimated scf accuracy    <       0.00001743 Ry

     total magnetization       =    17.44 Bohr mag/cell
     absolute magnetization    =    37.09 Bohr mag/cell

     iteration # 50     ecut=    45.00 Ry     beta= 0.10
     Davidson diagonalization with overlap
     ethr =  4.56E-10,  avg # of iterations =  1.1

     total cpu time spent up to now is    14331.3 secs

     total energy              =  -14693.98627527 Ry
     Harris-Foulkes estimate   =  -14693.98627523 Ry
     estimated scf accuracy    <       0.00000762 Ry

     total magnetization       =    17.44 Bohr mag/cell
     absolute magnetization    =    37.09 Bohr mag/cell

     iteration # 51     ecut=    45.00 Ry     beta= 0.10
     Davidson diagonalization with overlap
     ethr =  4.56E-10,  avg # of iterations =  1.0

     total cpu time spent up to now is    14585.0 secs

     total energy              =  -14693.98627532 Ry
     Harris-Foulkes estimate   =  -14693.98627527 Ry
     estimated scf accuracy    <       0.00000835 Ry

     total magnetization       =    17.44 Bohr mag/cell
     absolute magnetization    =    37.09 Bohr mag/cell

     iteration # 52     ecut=    45.00 Ry     beta= 0.10
     Davidson diagonalization with overlap
     ethr =  4.56E-10,  avg # of iterations =  1.0

     total cpu time spent up to now is    14831.9 secs

     total energy              =  -14693.98627532 Ry
     Harris-Foulkes estimate   =  -14693.98627540 Ry
     estimated scf accuracy    <       0.00001532 Ry

     total magnetization       =    17.44 Bohr mag/cell
     absolute magnetization    =    37.09 Bohr mag/cell

     iteration # 53     ecut=    45.00 Ry     beta= 0.10
     Davidson diagonalization with overlap
     ethr =  4.56E-10,  avg # of iterations =  1.1

     total cpu time spent up to now is    15082.7 secs

     total energy              =  -14693.98627540 Ry
     Harris-Foulkes estimate   =  -14693.98627534 Ry
     estimated scf accuracy    <       0.00000973 Ry

     total magnetization       =    17.44 Bohr mag/cell
     absolute magnetization    =    37.09 Bohr mag/cell

     iteration # 54     ecut=    45.00 Ry     beta= 0.10
     Davidson diagonalization with overlap
     ethr =  4.56E-10,  avg # of iterations =  1.0

     total cpu time spent up to now is    15333.1 secs

     total energy              =  -14693.98627541 Ry
     Harris-Foulkes estimate   =  -14693.98627541 Ry
     estimated scf accuracy    <       0.00001588 Ry

     total magnetization       =    17.44 Bohr mag/cell
     absolute magnetization    =    37.09 Bohr mag/cell

     iteration # 55     ecut=    45.00 Ry     beta= 0.10
     Davidson diagonalization with overlap
     ethr =  4.56E-10,  avg # of iterations =  1.0

     total cpu time spent up to now is    15582.6 secs

     total energy              =  -14693.98627546 Ry
     Harris-Foulkes estimate   =  -14693.98627541 Ry
     estimated scf accuracy    <       0.00000114 Ry

     total magnetization       =    17.44 Bohr mag/cell
     absolute magnetization    =    37.09 Bohr mag/cell

     iteration # 56     ecut=    45.00 Ry     beta= 0.10
     Davidson diagonalization with overlap
     ethr =  3.86E-10,  avg # of iterations =  1.0

     total cpu time spent up to now is    15834.5 secs

     total energy              =  -14693.98627550 Ry
     Harris-Foulkes estimate   =  -14693.98627547 Ry
     estimated scf accuracy    <       0.00000146 Ry

     total magnetization       =    17.44 Bohr mag/cell
     absolute magnetization    =    37.09 Bohr mag/cell

     iteration # 57     ecut=    45.00 Ry     beta= 0.10
     Davidson diagonalization with overlap
     ethr =  3.86E-10,  avg # of iterations =  1.1

     total cpu time spent up to now is    16084.0 secs

     total energy              =  -14693.98627548 Ry
     Harris-Foulkes estimate   =  -14693.98627546 Ry
     estimated scf accuracy    <       0.00000166 Ry

     total magnetization       =    17.44 Bohr mag/cell
     absolute magnetization    =    37.09 Bohr mag/cell

     iteration # 58     ecut=    45.00 Ry     beta= 0.10
     Davidson diagonalization with overlap
     ethr =  3.86E-10,  avg # of iterations =  1.0

     total cpu time spent up to now is    16330.1 secs

     total energy              =  -14693.98627552 Ry
     Harris-Foulkes estimate   =  -14693.98627542 Ry
     estimated scf accuracy    <       0.00000115 Ry

     total magnetization       =    17.44 Bohr mag/cell
     absolute magnetization    =    37.09 Bohr mag/cell

     iteration # 59     ecut=    45.00 Ry     beta= 0.10
     Davidson diagonalization with overlap
     ethr =  3.86E-10,  avg # of iterations =  1.0
 
     Magnetic moment per site:
     atom:    1    charge:   13.5409    magn:    4.2222    constr:    0.0000
     atom:    2    charge:   13.5408    magn:    4.2225    constr:    0.0000
     atom:    3    charge:   13.5408    magn:    4.2225    constr:    0.0000
     atom:    4    charge:   13.5409    magn:    4.2222    constr:    0.0000
     atom:    5    charge:   13.5473    magn:    4.1766    constr:    0.0000
     atom:    6    charge:   13.5414    magn:   -4.2128    constr:    0.0000
     atom:    7    charge:   13.5473    magn:    4.1765    constr:    0.0000
     atom:    8    charge:   13.5414    magn:   -4.2141    constr:    0.0000
     atom:    9    charge:    9.0887    magn:    0.0364    constr:    0.0000
     atom:   10    charge:    9.0898    magn:    0.0481    constr:    0.0000
     atom:   11    charge:    9.0887    magn:    0.0363    constr:    0.0000
     atom:   12    charge:    9.0899    magn:    0.0477    constr:    0.0000
     atom:   13    charge:    9.0887    magn:    0.0363    constr:    0.0000
     atom:   14    charge:    9.0898    magn:    0.0481    constr:    0.0000
     atom:   15    charge:    9.0887    magn:    0.0363    constr:    0.0000
     atom:   16    charge:    9.0900    magn:    0.0477    constr:    0.0000
     atom:   17    charge:    9.0890    magn:    0.0398    constr:    0.0000
     atom:   18    charge:    9.0915    magn:   -0.0400    constr:    0.0000
     atom:   19    charge:    9.0889    magn:    0.0397    constr:    0.0000
     atom:   20    charge:    9.0916    magn:   -0.0402    constr:    0.0000
     atom:   21    charge:    9.0890    magn:    0.0398    constr:    0.0000
     atom:   22    charge:    9.0915    magn:   -0.0400    constr:    0.0000
     atom:   23    charge:    9.0890    magn:    0.0397    constr:    0.0000
     atom:   24    charge:    9.0916    magn:   -0.0402    constr:    0.0000

     total cpu time spent up to now is    16575.8 secs

     End of self-consistent calculation
 --- enter write_ns ---
 LDA+U parameters:
U(  1) =   3.1200   J(  1) =   0.7000   B(  1) =   0.0803
U(  2) =   3.1200   J(  2) =   0.7000   B(  2) =   0.0803
atom    1   Tr[ns(na)] (up, down, total) =   4.97036  0.74794  5.71830
   spin  1
    eigenvalues: 
  0.984  0.993  0.993  0.998  1.002
    eigenvectors:
  0.000  0.000  0.000  1.000  0.000
  0.000  0.334  0.666  0.000  0.000
  0.000  0.666  0.334  0.000  0.000
  0.000  0.000  0.000  0.000  1.000
  1.000  0.000  0.000  0.000  0.000
    occupations:
  0.998 -0.000 -0.000  0.000  0.000
 -0.000  0.993 -0.000  0.000  0.000
 -0.000 -0.000  0.993  0.000  0.000
  0.000  0.000  0.000  1.002 -0.000
  0.000  0.000  0.000 -0.000  0.984
   spin  2
    eigenvalues: 
  0.067  0.120  0.152  0.152  0.256
    eigenvectors:
  0.000  1.000  0.000  0.000  0.000
  0.000  0.000  0.281  0.719  0.000
  0.000  0.000  0.719  0.281  0.000
  1.000  0.000  0.000  0.000  0.000
  0.000  0.000  0.000  0.000  1.000
    occupations:
  0.120 -0.000 -0.000  0.000  0.000
 -0.000  0.152 -0.000  0.000  0.000
 -0.000 -0.000  0.152  0.000  0.000
  0.000  0.000  0.000  0.067 -0.000
  0.000  0.000  0.000 -0.000  0.256
atomic mag. moment =     4.222419
atom    2   Tr[ns(na)] (up, down, total) =   4.97036  0.74768  5.71805
   spin  1
    eigenvalues: 
  0.984  0.993  0.993  0.998  1.002
    eigenvectors:
  0.000  0.000  0.000  1.000  0.000
  0.000  0.266  0.734  0.000  0.000
  0.000  0.734  0.266  0.000  0.000
  0.000  0.000  0.000  0.000  1.000
  1.000  0.000  0.000  0.000  0.000
    occupations:
  0.998 -0.000 -0.000  0.000  0.000
 -0.000  0.993 -0.000  0.000  0.000
 -0.000 -0.000  0.993  0.000  0.000
  0.000  0.000  0.000  1.002 -0.000
  0.000  0.000  0.000 -0.000  0.984
   spin  2
    eigenvalues: 
  0.067  0.120  0.152  0.152  0.256
    eigenvectors:
  0.000  1.000  0.000  0.000  0.000
  0.000  0.000  0.399  0.601  0.000
  0.000  0.000  0.601  0.399  0.000
  1.000  0.000  0.000  0.000  0.000
  0.000  0.000  0.000  0.000  1.000
    occupations:
  0.120 -0.000 -0.000  0.000  0.000
 -0.000  0.152 -0.000  0.000  0.000
 -0.000 -0.000  0.152  0.000  0.000
  0.000  0.000  0.000  0.067 -0.000
  0.000  0.000  0.000 -0.000  0.256
atomic mag. moment =     4.222680
atom    3   Tr[ns(na)] (up, down, total) =   4.97036  0.74765  5.71801
   spin  1
    eigenvalues: 
  0.984  0.993  0.993  0.998  1.002
    eigenvectors:
  0.000  0.000  0.000  1.000  0.000
  0.000  0.291  0.709  0.000  0.000
  0.000  0.709  0.291  0.000  0.000
  0.000  0.000  0.000  0.000  1.000
  1.000  0.000  0.000  0.000  0.000
    occupations:
  0.998 -0.000 -0.000  0.000  0.000
 -0.000  0.993 -0.000  0.000  0.000
 -0.000 -0.000  0.993  0.000  0.000
  0.000  0.000  0.000  1.002 -0.000
  0.000  0.000  0.000 -0.000  0.984
   spin  2
    eigenvalues: 
  0.067  0.120  0.152  0.152  0.256
    eigenvectors:
  0.000  1.000  0.000  0.000  0.000
  0.000  0.000  0.327  0.673  0.000
  0.000  0.000  0.673  0.327  0.000
  1.000  0.000  0.000  0.000  0.000
  0.000  0.000  0.000  0.000  1.000
    occupations:
  0.120 -0.000 -0.000  0.000  0.000
 -0.000  0.152 -0.000  0.000  0.000
 -0.000 -0.000  0.152  0.000  0.000
  0.000  0.000  0.000  0.067 -0.000
  0.000  0.000  0.000 -0.000  0.256
atomic mag. moment =     4.222717
atom    4   Tr[ns(na)] (up, down, total) =   4.97036  0.74791  5.71827
   spin  1
    eigenvalues: 
  0.984  0.993  0.993  0.998  1.002
    eigenvectors:
  0.000  0.000  0.000  1.000  0.000
  0.000  0.274  0.726  0.000  0.000
  0.000  0.726  0.274  0.000  0.000
  0.000  0.000  0.000  0.000  1.000
  1.000  0.000  0.000  0.000  0.000
    occupations:
  0.998 -0.000 -0.000  0.000  0.000
 -0.000  0.993 -0.000  0.000  0.000
 -0.000 -0.000  0.993  0.000  0.000
  0.000  0.000  0.000  1.002 -0.000
  0.000  0.000  0.000 -0.000  0.984
   spin  2
    eigenvalues: 
  0.067  0.120  0.152  0.152  0.256
    eigenvectors:
  0.000  1.000  0.000  0.000  0.000
  0.000  0.000  0.312  0.688  0.000
  0.000  0.000  0.688  0.312  0.000
  1.000  0.000  0.000  0.000  0.000
  0.000  0.000  0.000  0.000  1.000
    occupations:
  0.120 -0.000 -0.000  0.000  0.000
 -0.000  0.152 -0.000  0.000  0.000
 -0.000 -0.000  0.152  0.000  0.000
  0.000  0.000  0.000  0.067 -0.000
  0.000  0.000  0.000 -0.000  0.256
atomic mag. moment =     4.222449
atom    5   Tr[ns(na)] (up, down, total) =   4.96663  0.78537  5.75200
   spin  1
    eigenvalues: 
  0.983  0.993  0.993  0.996  1.002
    eigenvectors:
  0.000  0.000  0.000  1.000  0.000
  0.000  0.318  0.682  0.000  0.000
  0.000  0.682  0.318  0.000  0.000
  0.000  0.000  0.000  0.000  1.000
  1.000  0.000  0.000  0.000  0.000
    occupations:
  0.996 -0.000 -0.000  0.000  0.000
 -0.000  0.993 -0.000  0.000  0.000
 -0.000 -0.000  0.993  0.000  0.000
  0.000  0.000  0.000  1.002 -0.000
  0.000  0.000  0.000 -0.000  0.983
   spin  2
    eigenvalues: 
  0.065  0.137  0.153  0.153  0.277
    eigenvectors:
  0.000  1.000  0.000  0.000  0.000
  0.000  0.000  0.279  0.721  0.000
  0.000  0.000  0.721  0.279  0.000
  1.000  0.000  0.000  0.000  0.000
  0.000  0.000  0.000  0.000  1.000
    occupations:
  0.137 -0.000 -0.000  0.000  0.000
 -0.000  0.153 -0.000  0.000  0.000
 -0.000 -0.000  0.153  0.000  0.000
  0.000  0.000  0.000  0.065 -0.000
  0.000  0.000  0.000 -0.000  0.277
atomic mag. moment =     4.181261
atom    6   Tr[ns(na)] (up, down, total) =   0.75546  4.96728  5.72274
   spin  1
    eigenvalues: 
  0.067  0.130  0.150  0.150  0.258
    eigenvectors:
  0.000  1.000  0.000  0.000  0.000
  0.000  0.000  0.272  0.728  0.000
  0.000  0.000  0.728  0.272  0.000
  1.000  0.000  0.000  0.000  0.000
  0.000  0.000  0.000  0.000  1.000
    occupations:
  0.130 -0.000 -0.000  0.000  0.000
 -0.000  0.150 -0.000  0.000  0.000
 -0.000 -0.000  0.150  0.000  0.000
  0.000  0.000  0.000  0.067 -0.000
  0.000  0.000  0.000 -0.000  0.258
   spin  2
    eigenvalues: 
  0.983  0.993  0.993  0.995  1.002
    eigenvectors:
  0.000  0.000  0.000  1.000  0.000
  0.000  0.327  0.673  0.000  0.000
  0.000  0.673  0.327  0.000  0.000
  0.000  0.000  0.000  0.000  1.000
  1.000  0.000  0.000  0.000  0.000
    occupations:
  0.995 -0.000 -0.000  0.000  0.000
 -0.000  0.993 -0.000  0.000  0.000
 -0.000 -0.000  0.993  0.000  0.000
  0.000  0.000  0.000  1.002 -0.000
  0.000  0.000  0.000 -0.000  0.983
atomic mag. moment =    -4.211816
atom    7   Tr[ns(na)] (up, down, total) =   4.96662  0.78542  5.75204
   spin  1
    eigenvalues: 
  0.983  0.993  0.993  0.996  1.002
    eigenvectors:
  0.000  0.000  0.000  1.000  0.000
  0.000  0.376  0.624  0.000  0.000
  0.000  0.624  0.376  0.000  0.000
  0.000  0.000  0.000  0.000  1.000
  1.000  0.000  0.000  0.000  0.000
    occupations:
  0.996 -0.000 -0.000  0.000  0.000
 -0.000  0.993 -0.000  0.000  0.000
 -0.000 -0.000  0.993  0.000  0.000
  0.000  0.000  0.000  1.002 -0.000
  0.000  0.000  0.000 -0.000  0.983
   spin  2
    eigenvalues: 
  0.065  0.136  0.154  0.154  0.276
    eigenvectors:
  0.000  1.000  0.000  0.000  0.000
  0.000  0.000  0.337  0.663  0.000
  0.000  0.000  0.663  0.337  0.000
  1.000  0.000  0.000  0.000  0.000
  0.000  0.000  0.000  0.000  1.000
    occupations:
  0.136 -0.000 -0.000  0.000  0.000
 -0.000  0.154 -0.000  0.000  0.000
 -0.000 -0.000  0.154  0.000  0.000
  0.000  0.000  0.000  0.065 -0.000
  0.000  0.000  0.000 -0.000  0.276
atomic mag. moment =     4.181197
atom    8   Tr[ns(na)] (up, down, total) =   0.75471  4.96744  5.72215
   spin  1
    eigenvalues: 
  0.067  0.129  0.151  0.151  0.257
    eigenvectors:
  0.000  1.000  0.000  0.000  0.000
  0.000  0.000  0.353  0.647  0.000
  0.000  0.000  0.647  0.353  0.000
  1.000  0.000  0.000  0.000  0.000
  0.000  0.000  0.000  0.000  1.000
    occupations:
  0.129 -0.000 -0.000  0.000  0.000
 -0.000  0.151 -0.000  0.000  0.000
 -0.000 -0.000  0.151  0.000  0.000
  0.000  0.000  0.000  0.067 -0.000
  0.000  0.000  0.000 -0.000  0.257
   spin  2
    eigenvalues: 
  0.983  0.993  0.993  0.995  1.002
    eigenvectors:
  0.000  0.000  0.000  1.000  0.000
  0.000  0.271  0.729  0.000  0.000
  0.000  0.729  0.271  0.000  0.000
  0.000  0.000  0.000  0.000  1.000
  1.000  0.000  0.000  0.000  0.000
    occupations:
  0.995 -0.000 -0.000  0.000  0.000
 -0.000  0.993 -0.000  0.000  0.000
 -0.000 -0.000  0.993  0.000  0.000
  0.000  0.000  0.000  1.002 -0.000
  0.000  0.000  0.000 -0.000  0.983
atomic mag. moment =    -4.212722
N of occupied +U levels =   45.821544
 --- exit write_ns ---

     Number of k-points >= 100: set verbosity='high' to print the bands.

     the Fermi energy is    15.5575 ev

!    total energy              =  -14693.98627510 Ry
     Harris-Foulkes estimate   =  -14693.98627559 Ry
     estimated scf accuracy    <       0.00000077 Ry

     total all-electron energy =   -626921.581997 Ry

     The total energy is the sum of the following terms:

     one-electron contribution =    -698.59026342 Ry
     hartree contribution      =     651.64648692 Ry
     xc contribution           =    -738.08373563 Ry
     ewald contribution        =   -2207.56121140 Ry
     Hubbard energy            =       0.46189203 Ry
     one-center paw contrib.   =  -11701.85944360 Ry

     total magnetization       =    17.44 Bohr mag/cell
     absolute magnetization    =    37.09 Bohr mag/cell

     convergence has been achieved in  59 iterations

     Writing output data file mnau2.save/
 
     init_run     :    136.39s CPU    140.05s WALL (       1 calls)
     electrons    :  15993.00s CPU  16429.76s WALL (       1 calls)

     Called by init_run:
     wfcinit      :    134.20s CPU    137.54s WALL (       1 calls)
     potinit      :      0.88s CPU      0.91s WALL (       1 calls)
     hinit0       :      0.76s CPU      0.97s WALL (       1 calls)

     Called by electrons:
     c_bands      :  13995.51s CPU  14342.90s WALL (      59 calls)
     sum_band     :   1955.08s CPU   2042.72s WALL (      59 calls)
     v_of_rho     :      5.06s CPU      5.12s WALL (      60 calls)
     newd         :     15.03s CPU     15.34s WALL (      60 calls)
     PAW_pot      :     21.55s CPU     21.75s WALL (      60 calls)
     mix_rho      :      0.90s CPU      1.04s WALL (      59 calls)

     Called by c_bands:
     init_us_2    :     37.21s CPU     37.97s WALL (   32400 calls)
     cegterg      :  13585.57s CPU  13922.35s WALL (   15930 calls)

     Called by sum_band:
     sum_band:bec :     22.95s CPU     23.14s WALL (   15930 calls)
     addusdens    :     23.11s CPU     23.42s WALL (      59 calls)

     Called by *egterg:
     h_psi        :   6860.73s CPU   7063.31s WALL (   40856 calls)
     s_psi        :    923.36s CPU    927.15s WALL (   41126 calls)
     g_psi        :     10.28s CPU     10.38s WALL (   24656 calls)
     cdiaghg      :   3680.19s CPU   3797.03s WALL (   40586 calls)

     Called by h_psi:
     h_psi:pot    :   6455.21s CPU   6654.62s WALL (   40856 calls)
     h_psi:calbec :    951.96s CPU   1020.21s WALL (   40856 calls)
     vloc_psi     :   4584.45s CPU   4713.57s WALL (   40856 calls)
     add_vuspsi   :    918.09s CPU    920.34s WALL (   40856 calls)
     vhpsi        :    393.33s CPU    396.27s WALL (   40856 calls)

     General routines
     calbec       :   1663.81s CPU   1772.71s WALL (  113842 calls)
     fft          :      3.55s CPU      3.77s WALL (    1496 calls)
     ffts         :      0.21s CPU      0.24s WALL (     238 calls)
     fftw         :   5501.17s CPU   5668.13s WALL (14528834 calls)
     interpolate  :      0.38s CPU      0.41s WALL (     120 calls)
     davcio       :      0.02s CPU      0.07s WALL (     270 calls)
 
     Parallel routines
     fft_scatt_xy :    247.42s CPU    253.04s WALL (14530568 calls)
     fft_scatt_yz :   4161.82s CPU   4296.58s WALL (14530568 calls)

     Hubbard U routines
     new_ns       :     59.31s CPU     65.32s WALL (      59 calls)
     vhpsi        :    393.33s CPU    396.27s WALL (   40856 calls)
 
     PWSCF        :     4h30m CPU       30h 4m WALL

      39h
 
   This run was terminated on:   4:12:31  16May2019            

=------------------------------------------------------------------------------=
   JOB DONE.
=------------------------------------------------------------------------------=
