
     Program PWSCF v.6.3MaX starts on 13Apr2019 at 10:55: 3 

     This program is part of the open-source Quantum ESPRESSO suite
     for quantum simulation of materials; please cite
         "P. Giannozzi et al., J. Phys.:Condens. Matter 21 395502 (2009);
         "P. Giannozzi et al., J. Phys.:Condens. Matter 29 465901 (2017);
          URL http://www.quantum-espresso.org", 
     in publications or presentations arising from this work. More details at
     http://www.quantum-espresso.org/quote

     Parallel version (MPI), running on    32 processors

     MPI processes distributed on     2 nodes
     R & G space division:  proc/nbgrp/npool/nimage =      32
     Waiting for input...
     Reading input from standard input

     Current dimensions of program PWSCF are:
     Max number of different atomic species (ntypx) = 10
     Max number of k-points (npk) =  40000
     Max angular momentum in pseudopotentials (lmaxx) =  3
               file Mn.pbe-spn-kjpaw_psl.0.3.1.UPF: wavefunction(s)  3P 3D renormalized
               file Mn.pbe-spn-kjpaw_psl.0.3.1.UPF: wavefunction(s)  3P 3D renormalized
               file Au.pbe-dn-kjpaw_psl.0.1.UPF: wavefunction(s)  6S 6P 5D renormalized

     Subspace diagonalization in iterative solution of the eigenvalue problem:
     one sub-group per band group will be used
     scalapack distributed-memory algorithm (size of sub-group:  4*  4 procs)

 
     Parallelization info
     --------------------
     sticks:   dense  smooth     PW     G-vecs:    dense   smooth      PW
     Min          41      18      5                11487     3460     563
     Max          42      19      6                11527     3505     606
     Sum        1313     593    177               368373   111379   18691
 


     bravais-lattice index     =            0
     lattice parameter (alat)  =       6.4153  a.u.
     unit-cell volume          =    2724.7774 (a.u.)^3
     number of atoms/cell      =           24
     number of atomic types    =            3
     number of electrons       =       296.00
     number of Kohn-Sham states=          178
     kinetic-energy cutoff     =      45.0000  Ry
     charge density cutoff     =     400.0000  Ry
     convergence threshold     =      1.0E-06
     mixing beta               =       0.1000
     number of iterations used =            8  plain     mixing
     Exchange-correlation      = SLA PW PBX PBC ( 1  4  3  4 0 0)

     celldm(1)=   6.415315  celldm(2)=   0.000000  celldm(3)=   0.000000
     celldm(4)=   0.000000  celldm(5)=   0.000000  celldm(6)=   0.000000

     crystal axes: (cart. coord. in units of alat)
               a(1) = (   1.000000   0.000000   0.000000 )  
               a(2) = (   0.000000   1.000000   0.000000 )  
               a(3) = (   0.000000   0.000000  10.319937 )  

     reciprocal axes: (cart. coord. in units 2 pi/alat)
               b(1) = (  1.000000  0.000000  0.000000 )  
               b(2) = (  0.000000  1.000000  0.000000 )  
               b(3) = (  0.000000  0.000000  0.096900 )  


     PseudoPot. # 1 for Mn read from file:
     ./pseudo/Mn.pbe-spn-kjpaw_psl.0.3.1.UPF
     MD5 check sum: 7b43a3fb0e93e198b8dd8488d8cf503e
     Pseudo is Projector augmented-wave + core cor, Zval = 15.0
     Generated using "atomic" code by A. Dal Corso v.5.0.99 svn rev. 10869
     Shape of augmentation charge: PSQ
     Using radial grid of 1187 points,  6 beta functions with: 
                l(1) =   0
                l(2) =   0
                l(3) =   1
                l(4) =   1
                l(5) =   2
                l(6) =   2
     Q(r) pseudized with 0 coefficients 


     PseudoPot. # 2 for Mn read from file:
     ./pseudo/Mn.pbe-spn-kjpaw_psl.0.3.1.UPF
     MD5 check sum: 7b43a3fb0e93e198b8dd8488d8cf503e
     Pseudo is Projector augmented-wave + core cor, Zval = 15.0
     Generated using "atomic" code by A. Dal Corso v.5.0.99 svn rev. 10869
     Shape of augmentation charge: PSQ
     Using radial grid of 1187 points,  6 beta functions with: 
                l(1) =   0
                l(2) =   0
                l(3) =   1
                l(4) =   1
                l(5) =   2
                l(6) =   2
     Q(r) pseudized with 0 coefficients 


     PseudoPot. # 3 for Au read from file:
     ./pseudo/Au.pbe-dn-kjpaw_psl.0.1.UPF
     MD5 check sum: be11e2e8e535ebe2b3ccfb4f88f554cb
     Pseudo is Projector augmented-wave + core cor, Zval = 11.0
     Generated using "atomic" code by A. Dal Corso v.5.0.2 svn rev. 9415
     Shape of augmentation charge: PSQ
     Using radial grid of 1279 points,  6 beta functions with: 
                l(1) =   0
                l(2) =   0
                l(3) =   1
                l(4) =   1
                l(5) =   2
                l(6) =   2
     Q(r) pseudized with 0 coefficients 


     atomic species   valence    mass     pseudopotential
        Mn1           15.00    54.93800     Mn( 1.00)
        Mn2           15.00    54.93800     Mn( 1.00)
        Au            11.00   196.96600     Au( 1.00)

     Starting magnetic structure 
     atomic species   magnetization
        Mn1          0.800
        Mn2         -0.800
        Au           0.000


     Full LDA+U calculation (l_max = 2) with parameters (eV):
     U(  1) =   3.1200   J(  1) =   0.7000   B(  1) =   0.0803
     U(  2) =   3.1200   J(  2) =   0.7000   B(  2) =   0.0803



      8 Sym. Ops. (no inversion) found
          (note:  8 additional sym.ops. were found but ignored
           their fractional translations are incommensurate with FFT grid)


   Cartesian axes

     site n.     atom                  positions (alat units)
         1           Mn1 tau(   1) = (   0.0000000   0.0000000   0.0000000  )
         2           Mn1 tau(   2) = (   0.5000000   0.5000000   1.2899921  )
         3           Mn2 tau(   3) = (   0.0000000   0.0000000   2.5799843  )
         4           Mn1 tau(   4) = (   0.5000000   0.5000000   3.8699764  )
         5           Mn2 tau(   5) = (   0.0000000   0.0000000   5.1599686  )
         6           Mn2 tau(   6) = (   0.5000000   0.5000000   6.4499607  )
         7           Mn1 tau(   7) = (   0.0000000   0.0000000   7.7399528  )
         8           Mn2 tau(   8) = (   0.5000000   0.5000000   9.0299450  )
         9           Au  tau(   9) = (   0.5000000   0.5000000   0.4127975  )
        10           Au  tau(  10) = (   0.0000000   0.0000000   0.8771947  )
        11           Au  tau(  11) = (   0.0000000   0.0000000   1.7027896  )
        12           Au  tau(  12) = (   0.5000000   0.5000000   2.1671868  )
        13           Au  tau(  13) = (   0.5000000   0.5000000   2.9927818  )
        14           Au  tau(  14) = (   0.0000000   0.0000000   3.4571789  )
        15           Au  tau(  15) = (   0.0000000   0.0000000   4.2827739  )
        16           Au  tau(  16) = (   0.5000000   0.5000000   4.7471711  )
        17           Au  tau(  17) = (   0.5000000   0.5000000   5.5727660  )
        18           Au  tau(  18) = (   0.0000000   0.0000000   6.0371632  )
        19           Au  tau(  19) = (   0.0000000   0.0000000   6.8627582  )
        20           Au  tau(  20) = (   0.5000000   0.5000000   7.3271553  )
        21           Au  tau(  21) = (   0.5000000   0.5000000   8.1527503  )
        22           Au  tau(  22) = (   0.0000000   0.0000000   8.6171475  )
        23           Au  tau(  23) = (   0.0000000   0.0000000   9.4427424  )
        24           Au  tau(  24) = (   0.5000000   0.5000000   9.9071396  )

     number of k points=   135 (tetrahedron method)

     Number of k-points >= 100: set verbosity='high' to print them.

     Dense  grid:   368373 G-vectors     FFT dimensions: (  45,  45, 432)

     Smooth grid:   111379 G-vectors     FFT dimensions: (  27,  27, 288)

     Estimated max dynamical RAM per process >     446.67 MB

     Estimated total dynamical RAM >      13.96 GB
     Generating pointlists ...
     new r_m :   0.3377 (alat units)  2.1668 (a.u.) for type    1
     new r_m :   0.3377 (alat units)  2.1668 (a.u.) for type    2
     new r_m :   0.3377 (alat units)  2.1668 (a.u.) for type    3

     Check: negative/imaginary core charge=   -0.000006    0.000000

     Initial potential from superposition of free atoms

     starting charge  295.99426, renormalised to  296.00000
     Number of +U iterations with fixed ns =  0
     Starting occupations:
 --- enter write_ns ---
 LDA+U parameters:
U(  1) =   3.1200   J(  1) =   0.7000   B(  1) =   0.0803
U(  2) =   3.1200   J(  2) =   0.7000   B(  2) =   0.0803
atom    1   Tr[ns(na)] (up, down, total) =   5.00000  0.00000  5.00000
   spin  1
    eigenvalues: 
  1.000  1.000  1.000  1.000  1.000
    eigenvectors:
  1.000  0.000  0.000  0.000  0.000
  0.000  1.000  0.000  0.000  0.000
  0.000  0.000  1.000  0.000  0.000
  0.000  0.000  0.000  1.000  0.000
  0.000  0.000  0.000  0.000  1.000
    occupations:
  1.000  0.000  0.000  0.000  0.000
  0.000  1.000  0.000  0.000  0.000
  0.000  0.000  1.000  0.000  0.000
  0.000  0.000  0.000  1.000  0.000
  0.000  0.000  0.000  0.000  1.000
   spin  2
    eigenvalues: 
  0.000  0.000  0.000  0.000  0.000
    eigenvectors:
  1.000  0.000  0.000  0.000  0.000
  0.000  1.000  0.000  0.000  0.000
  0.000  0.000  1.000  0.000  0.000
  0.000  0.000  0.000  1.000  0.000
  0.000  0.000  0.000  0.000  1.000
    occupations:
  0.000  0.000  0.000  0.000  0.000
  0.000  0.000  0.000  0.000  0.000
  0.000  0.000  0.000  0.000  0.000
  0.000  0.000  0.000  0.000  0.000
  0.000  0.000  0.000  0.000  0.000
atomic mag. moment =     5.000000
atom    2   Tr[ns(na)] (up, down, total) =   5.00000  0.00000  5.00000
   spin  1
    eigenvalues: 
  1.000  1.000  1.000  1.000  1.000
    eigenvectors:
  1.000  0.000  0.000  0.000  0.000
  0.000  1.000  0.000  0.000  0.000
  0.000  0.000  1.000  0.000  0.000
  0.000  0.000  0.000  1.000  0.000
  0.000  0.000  0.000  0.000  1.000
    occupations:
  1.000  0.000  0.000  0.000  0.000
  0.000  1.000  0.000  0.000  0.000
  0.000  0.000  1.000  0.000  0.000
  0.000  0.000  0.000  1.000  0.000
  0.000  0.000  0.000  0.000  1.000
   spin  2
    eigenvalues: 
  0.000  0.000  0.000  0.000  0.000
    eigenvectors:
  1.000  0.000  0.000  0.000  0.000
  0.000  1.000  0.000  0.000  0.000
  0.000  0.000  1.000  0.000  0.000
  0.000  0.000  0.000  1.000  0.000
  0.000  0.000  0.000  0.000  1.000
    occupations:
  0.000  0.000  0.000  0.000  0.000
  0.000  0.000  0.000  0.000  0.000
  0.000  0.000  0.000  0.000  0.000
  0.000  0.000  0.000  0.000  0.000
  0.000  0.000  0.000  0.000  0.000
atomic mag. moment =     5.000000
atom    3   Tr[ns(na)] (up, down, total) =   0.00000  5.00000  5.00000
   spin  1
    eigenvalues: 
  0.000  0.000  0.000  0.000  0.000
    eigenvectors:
  1.000  0.000  0.000  0.000  0.000
  0.000  1.000  0.000  0.000  0.000
  0.000  0.000  1.000  0.000  0.000
  0.000  0.000  0.000  1.000  0.000
  0.000  0.000  0.000  0.000  1.000
    occupations:
  0.000  0.000  0.000  0.000  0.000
  0.000  0.000  0.000  0.000  0.000
  0.000  0.000  0.000  0.000  0.000
  0.000  0.000  0.000  0.000  0.000
  0.000  0.000  0.000  0.000  0.000
   spin  2
    eigenvalues: 
  1.000  1.000  1.000  1.000  1.000
    eigenvectors:
  1.000  0.000  0.000  0.000  0.000
  0.000  1.000  0.000  0.000  0.000
  0.000  0.000  1.000  0.000  0.000
  0.000  0.000  0.000  1.000  0.000
  0.000  0.000  0.000  0.000  1.000
    occupations:
  1.000  0.000  0.000  0.000  0.000
  0.000  1.000  0.000  0.000  0.000
  0.000  0.000  1.000  0.000  0.000
  0.000  0.000  0.000  1.000  0.000
  0.000  0.000  0.000  0.000  1.000
atomic mag. moment =    -5.000000
atom    4   Tr[ns(na)] (up, down, total) =   5.00000  0.00000  5.00000
   spin  1
    eigenvalues: 
  1.000  1.000  1.000  1.000  1.000
    eigenvectors:
  1.000  0.000  0.000  0.000  0.000
  0.000  1.000  0.000  0.000  0.000
  0.000  0.000  1.000  0.000  0.000
  0.000  0.000  0.000  1.000  0.000
  0.000  0.000  0.000  0.000  1.000
    occupations:
  1.000  0.000  0.000  0.000  0.000
  0.000  1.000  0.000  0.000  0.000
  0.000  0.000  1.000  0.000  0.000
  0.000  0.000  0.000  1.000  0.000
  0.000  0.000  0.000  0.000  1.000
   spin  2
    eigenvalues: 
  0.000  0.000  0.000  0.000  0.000
    eigenvectors:
  1.000  0.000  0.000  0.000  0.000
  0.000  1.000  0.000  0.000  0.000
  0.000  0.000  1.000  0.000  0.000
  0.000  0.000  0.000  1.000  0.000
  0.000  0.000  0.000  0.000  1.000
    occupations:
  0.000  0.000  0.000  0.000  0.000
  0.000  0.000  0.000  0.000  0.000
  0.000  0.000  0.000  0.000  0.000
  0.000  0.000  0.000  0.000  0.000
  0.000  0.000  0.000  0.000  0.000
atomic mag. moment =     5.000000
atom    5   Tr[ns(na)] (up, down, total) =   0.00000  5.00000  5.00000
   spin  1
    eigenvalues: 
  0.000  0.000  0.000  0.000  0.000
    eigenvectors:
  1.000  0.000  0.000  0.000  0.000
  0.000  1.000  0.000  0.000  0.000
  0.000  0.000  1.000  0.000  0.000
  0.000  0.000  0.000  1.000  0.000
  0.000  0.000  0.000  0.000  1.000
    occupations:
  0.000  0.000  0.000  0.000  0.000
  0.000  0.000  0.000  0.000  0.000
  0.000  0.000  0.000  0.000  0.000
  0.000  0.000  0.000  0.000  0.000
  0.000  0.000  0.000  0.000  0.000
   spin  2
    eigenvalues: 
  1.000  1.000  1.000  1.000  1.000
    eigenvectors:
  1.000  0.000  0.000  0.000  0.000
  0.000  1.000  0.000  0.000  0.000
  0.000  0.000  1.000  0.000  0.000
  0.000  0.000  0.000  1.000  0.000
  0.000  0.000  0.000  0.000  1.000
    occupations:
  1.000  0.000  0.000  0.000  0.000
  0.000  1.000  0.000  0.000  0.000
  0.000  0.000  1.000  0.000  0.000
  0.000  0.000  0.000  1.000  0.000
  0.000  0.000  0.000  0.000  1.000
atomic mag. moment =    -5.000000
atom    6   Tr[ns(na)] (up, down, total) =   0.00000  5.00000  5.00000
   spin  1
    eigenvalues: 
  0.000  0.000  0.000  0.000  0.000
    eigenvectors:
  1.000  0.000  0.000  0.000  0.000
  0.000  1.000  0.000  0.000  0.000
  0.000  0.000  1.000  0.000  0.000
  0.000  0.000  0.000  1.000  0.000
  0.000  0.000  0.000  0.000  1.000
    occupations:
  0.000  0.000  0.000  0.000  0.000
  0.000  0.000  0.000  0.000  0.000
  0.000  0.000  0.000  0.000  0.000
  0.000  0.000  0.000  0.000  0.000
  0.000  0.000  0.000  0.000  0.000
   spin  2
    eigenvalues: 
  1.000  1.000  1.000  1.000  1.000
    eigenvectors:
  1.000  0.000  0.000  0.000  0.000
  0.000  1.000  0.000  0.000  0.000
  0.000  0.000  1.000  0.000  0.000
  0.000  0.000  0.000  1.000  0.000
  0.000  0.000  0.000  0.000  1.000
    occupations:
  1.000  0.000  0.000  0.000  0.000
  0.000  1.000  0.000  0.000  0.000
  0.000  0.000  1.000  0.000  0.000
  0.000  0.000  0.000  1.000  0.000
  0.000  0.000  0.000  0.000  1.000
atomic mag. moment =    -5.000000
atom    7   Tr[ns(na)] (up, down, total) =   5.00000  0.00000  5.00000
   spin  1
    eigenvalues: 
  1.000  1.000  1.000  1.000  1.000
    eigenvectors:
  1.000  0.000  0.000  0.000  0.000
  0.000  1.000  0.000  0.000  0.000
  0.000  0.000  1.000  0.000  0.000
  0.000  0.000  0.000  1.000  0.000
  0.000  0.000  0.000  0.000  1.000
    occupations:
  1.000  0.000  0.000  0.000  0.000
  0.000  1.000  0.000  0.000  0.000
  0.000  0.000  1.000  0.000  0.000
  0.000  0.000  0.000  1.000  0.000
  0.000  0.000  0.000  0.000  1.000
   spin  2
    eigenvalues: 
  0.000  0.000  0.000  0.000  0.000
    eigenvectors:
  1.000  0.000  0.000  0.000  0.000
  0.000  1.000  0.000  0.000  0.000
  0.000  0.000  1.000  0.000  0.000
  0.000  0.000  0.000  1.000  0.000
  0.000  0.000  0.000  0.000  1.000
    occupations:
  0.000  0.000  0.000  0.000  0.000
  0.000  0.000  0.000  0.000  0.000
  0.000  0.000  0.000  0.000  0.000
  0.000  0.000  0.000  0.000  0.000
  0.000  0.000  0.000  0.000  0.000
atomic mag. moment =     5.000000
atom    8   Tr[ns(na)] (up, down, total) =   0.00000  5.00000  5.00000
   spin  1
    eigenvalues: 
  0.000  0.000  0.000  0.000  0.000
    eigenvectors:
  1.000  0.000  0.000  0.000  0.000
  0.000  1.000  0.000  0.000  0.000
  0.000  0.000  1.000  0.000  0.000
  0.000  0.000  0.000  1.000  0.000
  0.000  0.000  0.000  0.000  1.000
    occupations:
  0.000  0.000  0.000  0.000  0.000
  0.000  0.000  0.000  0.000  0.000
  0.000  0.000  0.000  0.000  0.000
  0.000  0.000  0.000  0.000  0.000
  0.000  0.000  0.000  0.000  0.000
   spin  2
    eigenvalues: 
  1.000  1.000  1.000  1.000  1.000
    eigenvectors:
  1.000  0.000  0.000  0.000  0.000
  0.000  1.000  0.000  0.000  0.000
  0.000  0.000  1.000  0.000  0.000
  0.000  0.000  0.000  1.000  0.000
  0.000  0.000  0.000  0.000  1.000
    occupations:
  1.000  0.000  0.000  0.000  0.000
  0.000  1.000  0.000  0.000  0.000
  0.000  0.000  1.000  0.000  0.000
  0.000  0.000  0.000  1.000  0.000
  0.000  0.000  0.000  0.000  1.000
atomic mag. moment =    -5.000000
N of occupied +U levels =   40.000000
 --- exit write_ns ---
 Atomic wfc used for LDA+U Projector are NOT orthogonalized
     Starting wfcs are  224 randomized atomic wfcs
     Checking if some PAW data can be deallocated... 

     total cpu time spent up to now is      239.7 secs

     Self-consistent Calculation

     iteration #  1     ecut=    45.00 Ry     beta= 0.10
     Davidson diagonalization with overlap
     ethr =  1.00E-02,  avg # of iterations =  3.9
 --- enter write_ns ---
 LDA+U parameters:
U(  1) =   3.1200   J(  1) =   0.7000   B(  1) =   0.0803
U(  2) =   3.1200   J(  2) =   0.7000   B(  2) =   0.0803
atom    1   Tr[ns(na)] (up, down, total) =   5.01743  0.40782  5.42525
   spin  1
    eigenvalues: 
  1.003  1.003  1.003  1.004  1.004
    eigenvectors:
  0.000  0.000  0.000  1.000  0.000
  0.000  0.329  0.671  0.000  0.000
  0.000  0.671  0.329  0.000  0.000
  0.000  0.000  0.000  0.000  1.000
  1.000  0.000  0.000  0.000  0.000
    occupations:
  1.004 -0.000 -0.000  0.000  0.000
 -0.000  1.003 -0.000  0.000  0.000
 -0.000 -0.000  1.003  0.000  0.000
  0.000  0.000  0.000  1.004 -0.000
  0.000  0.000  0.000 -0.000  1.003
   spin  2
    eigenvalues: 
  0.053  0.073  0.082  0.082  0.119
    eigenvectors:
  0.000  1.000  0.000  0.000  0.000
  0.000  0.000  0.450  0.550  0.000
  0.000  0.000  0.550  0.450  0.000
  1.000  0.000  0.000  0.000  0.000
  0.000  0.000  0.000  0.000  1.000
    occupations:
  0.073 -0.000 -0.000  0.000  0.000
 -0.000  0.082 -0.000  0.000  0.000
 -0.000 -0.000  0.082  0.000  0.000
  0.000  0.000  0.000  0.053 -0.000
  0.000  0.000  0.000 -0.000  0.119
atomic mag. moment =     4.609614
atom    2   Tr[ns(na)] (up, down, total) =   5.01750  0.40802  5.42551
   spin  1
    eigenvalues: 
  1.003  1.003  1.003  1.004  1.004
    eigenvectors:
  0.000  0.000  0.000  1.000  0.000
  0.000  0.328  0.672  0.000  0.000
  0.000  0.672  0.328  0.000  0.000
  0.000  0.000  0.000  0.000  1.000
  1.000  0.000  0.000  0.000  0.000
    occupations:
  1.004 -0.000 -0.000  0.000  0.000
 -0.000  1.003 -0.000  0.000  0.000
 -0.000 -0.000  1.003  0.000  0.000
  0.000  0.000  0.000  1.004 -0.000
  0.000  0.000  0.000 -0.000  1.003
   spin  2
    eigenvalues: 
  0.053  0.073  0.082  0.082  0.119
    eigenvectors:
  0.000  1.000  0.000  0.000  0.000
  0.000  0.000  0.337  0.663  0.000
  0.000  0.000  0.663  0.337  0.000
  1.000  0.000  0.000  0.000  0.000
  0.000  0.000  0.000  0.000  1.000
    occupations:
  0.073 -0.000 -0.000  0.000  0.000
 -0.000  0.082 -0.000  0.000  0.000
 -0.000 -0.000  0.082  0.000  0.000
  0.000  0.000  0.000  0.053 -0.000
  0.000  0.000  0.000 -0.000  0.119
atomic mag. moment =     4.609480
atom    3   Tr[ns(na)] (up, down, total) =   0.40953  5.01735  5.42688
   spin  1
    eigenvalues: 
  0.053  0.073  0.080  0.080  0.124
    eigenvectors:
  0.000  1.000  0.000  0.000  0.000
  0.000  0.000  0.392  0.608  0.000
  0.000  0.000  0.608  0.392  0.000
  1.000  0.000  0.000  0.000  0.000
  0.000  0.000  0.000  0.000  1.000
    occupations:
  0.073 -0.000 -0.000  0.000  0.000
 -0.000  0.080 -0.000  0.000  0.000
 -0.000 -0.000  0.080  0.000  0.000
  0.000  0.000  0.000  0.053 -0.000
  0.000  0.000  0.000 -0.000  0.124
   spin  2
    eigenvalues: 
  1.003  1.003  1.003  1.004  1.004
    eigenvectors:
  0.000  0.000  0.000  1.000  0.000
  0.000  0.305  0.695  0.000  0.000
  0.000  0.695  0.305  0.000  0.000
  0.000  0.000  0.000  0.000  1.000
  1.000  0.000  0.000  0.000  0.000
    occupations:
  1.004 -0.000 -0.000  0.000  0.000
 -0.000  1.003 -0.000  0.000  0.000
 -0.000 -0.000  1.003  0.000  0.000
  0.000  0.000  0.000  1.004 -0.000
  0.000  0.000  0.000 -0.000  1.003
atomic mag. moment =    -4.607818
atom    4   Tr[ns(na)] (up, down, total) =   5.01723  0.40952  5.42676
   spin  1
    eigenvalues: 
  1.003  1.003  1.003  1.004  1.004
    eigenvectors:
  0.000  0.000  0.000  1.000  0.000
  0.000  0.253  0.747  0.000  0.000
  0.000  0.747  0.253  0.000  0.000
  0.000  0.000  0.000  0.000  1.000
  1.000  0.000  0.000  0.000  0.000
    occupations:
  1.004 -0.000 -0.000  0.000  0.000
 -0.000  1.003 -0.000  0.000  0.000
 -0.000 -0.000  1.003  0.000  0.000
  0.000  0.000  0.000  1.004 -0.000
  0.000  0.000  0.000 -0.000  1.003
   spin  2
    eigenvalues: 
  0.053  0.073  0.080  0.080  0.124
    eigenvectors:
  0.000  1.000  0.000  0.000  0.000
  0.000  0.000  0.340  0.660  0.000
  0.000  0.000  0.660  0.340  0.000
  1.000  0.000  0.000  0.000  0.000
  0.000  0.000  0.000  0.000  1.000
    occupations:
  0.073 -0.000 -0.000  0.000  0.000
 -0.000  0.080 -0.000  0.000  0.000
 -0.000 -0.000  0.080  0.000  0.000
  0.000  0.000  0.000  0.053 -0.000
  0.000  0.000  0.000 -0.000  0.124
atomic mag. moment =     4.607712
atom    5   Tr[ns(na)] (up, down, total) =   0.40895  5.01749  5.42644
   spin  1
    eigenvalues: 
  0.053  0.073  0.082  0.082  0.119
    eigenvectors:
  0.000  1.000  0.000  0.000  0.000
  0.000  0.000  0.483  0.517  0.000
  0.000  0.000  0.517  0.483  0.000
  1.000  0.000  0.000  0.000  0.000
  0.000  0.000  0.000  0.000  1.000
    occupations:
  0.073 -0.000 -0.000  0.000  0.000
 -0.000  0.082 -0.000  0.000  0.000
 -0.000 -0.000  0.082  0.000  0.000
  0.000  0.000  0.000  0.053 -0.000
  0.000  0.000  0.000 -0.000  0.119
   spin  2
    eigenvalues: 
  1.003  1.003  1.003  1.004  1.004
    eigenvectors:
  0.000  0.000  0.000  1.000  0.000
  0.000  0.305  0.695  0.000  0.000
  0.000  0.695  0.305  0.000  0.000
  0.000  0.000  0.000  0.000  1.000
  1.000  0.000  0.000  0.000  0.000
    occupations:
  1.004 -0.000 -0.000  0.000  0.000
 -0.000  1.003 -0.000  0.000  0.000
 -0.000 -0.000  1.003  0.000  0.000
  0.000  0.000  0.000  1.004 -0.000
  0.000  0.000  0.000 -0.000  1.003
atomic mag. moment =    -4.608537
atom    6   Tr[ns(na)] (up, down, total) =   0.40808  5.01759  5.42567
   spin  1
    eigenvalues: 
  0.053  0.073  0.082  0.082  0.119
    eigenvectors:
  0.000  1.000  0.000  0.000  0.000
  0.000  0.000  0.388  0.612  0.000
  0.000  0.000  0.612  0.388  0.000
  1.000  0.000  0.000  0.000  0.000
  0.000  0.000  0.000  0.000  1.000
    occupations:
  0.073 -0.000 -0.000  0.000  0.000
 -0.000  0.082 -0.000  0.000  0.000
 -0.000 -0.000  0.082  0.000  0.000
  0.000  0.000  0.000  0.053 -0.000
  0.000  0.000  0.000 -0.000  0.119
   spin  2
    eigenvalues: 
  1.003  1.003  1.003  1.004  1.004
    eigenvectors:
  0.000  0.000  0.000  1.000  0.000
  0.000  0.280  0.720  0.000  0.000
  0.000  0.720  0.280  0.000  0.000
  0.000  0.000  0.000  0.000  1.000
  1.000  0.000  0.000  0.000  0.000
    occupations:
  1.004 -0.000 -0.000  0.000  0.000
 -0.000  1.003 -0.000  0.000  0.000
 -0.000 -0.000  1.003  0.000  0.000
  0.000  0.000  0.000  1.004 -0.000
  0.000  0.000  0.000 -0.000  1.003
atomic mag. moment =    -4.609515
atom    7   Tr[ns(na)] (up, down, total) =   5.01736  0.40936  5.42672
   spin  1
    eigenvalues: 
  1.003  1.003  1.003  1.004  1.004
    eigenvectors:
  0.000  0.000  0.000  1.000  0.000
  0.000  0.279  0.721  0.000  0.000
  0.000  0.721  0.279  0.000  0.000
  0.000  0.000  0.000  0.000  1.000
  1.000  0.000  0.000  0.000  0.000
    occupations:
  1.004 -0.000 -0.000  0.000  0.000
 -0.000  1.003 -0.000  0.000  0.000
 -0.000 -0.000  1.003  0.000  0.000
  0.000  0.000  0.000  1.004 -0.000
  0.000  0.000  0.000 -0.000  1.003
   spin  2
    eigenvalues: 
  0.053  0.073  0.080  0.080  0.124
    eigenvectors:
  0.000  1.000  0.000  0.000  0.000
  0.000  0.000  0.437  0.563  0.000
  0.000  0.000  0.563  0.437  0.000
  1.000  0.000  0.000  0.000  0.000
  0.000  0.000  0.000  0.000  1.000
    occupations:
  0.073 -0.000 -0.000  0.000  0.000
 -0.000  0.080 -0.000  0.000  0.000
 -0.000 -0.000  0.080  0.000  0.000
  0.000  0.000  0.000  0.053 -0.000
  0.000  0.000  0.000 -0.000  0.124
atomic mag. moment =     4.607997
atom    8   Tr[ns(na)] (up, down, total) =   0.40991  5.01731  5.42722
   spin  1
    eigenvalues: 
  0.053  0.073  0.080  0.080  0.124
    eigenvectors:
  0.000  1.000  0.000  0.000  0.000
  0.000  0.000  0.424  0.576  0.000
  0.000  0.000  0.576  0.424  0.000
  1.000  0.000  0.000  0.000  0.000
  0.000  0.000  0.000  0.000  1.000
    occupations:
  0.073 -0.000 -0.000  0.000  0.000
 -0.000  0.080 -0.000  0.000  0.000
 -0.000 -0.000  0.080  0.000  0.000
  0.000  0.000  0.000  0.053 -0.000
  0.000  0.000  0.000 -0.000  0.124
   spin  2
    eigenvalues: 
  1.003  1.003  1.003  1.004  1.004
    eigenvectors:
  0.000  0.000  0.000  1.000  0.000
  0.000  0.334  0.666  0.000  0.000
  0.000  0.666  0.334  0.000  0.000
  0.000  0.000  0.000  0.000  1.000
  1.000  0.000  0.000  0.000  0.000
    occupations:
  1.004 -0.000 -0.000  0.000  0.000
 -0.000  1.003 -0.000  0.000  0.000
 -0.000 -0.000  1.003  0.000  0.000
  0.000  0.000  0.000  1.004 -0.000
  0.000  0.000  0.000 -0.000  1.003
atomic mag. moment =    -4.607396
N of occupied +U levels =   43.410449
 --- exit write_ns ---

     total cpu time spent up to now is      940.1 secs

     total energy              =  -14687.28059951 Ry
     Harris-Foulkes estimate   =  -14685.82178638 Ry
     estimated scf accuracy    <      11.57122900 Ry

     total magnetization       =     0.00 Bohr mag/cell
     absolute magnetization    =    41.58 Bohr mag/cell

     iteration #  2     ecut=    45.00 Ry     beta= 0.10
     Davidson diagonalization with overlap
     ethr =  3.91E-03,  avg # of iterations =  1.0

     total cpu time spent up to now is     1361.6 secs

     total energy              =  -14692.57032056 Ry
     Harris-Foulkes estimate   =  -14687.35329832 Ry
     estimated scf accuracy    <       9.31470288 Ry

     total magnetization       =    -0.00 Bohr mag/cell
     absolute magnetization    =    41.27 Bohr mag/cell

     iteration #  3     ecut=    45.00 Ry     beta= 0.10
     Davidson diagonalization with overlap
     ethr =  3.15E-03,  avg # of iterations =  2.5

     total cpu time spent up to now is     1938.6 secs

     total energy              =  -14693.65840707 Ry
     Harris-Foulkes estimate   =  -14694.21304455 Ry
     estimated scf accuracy    <      39.93511756 Ry

     total magnetization       =     0.09 Bohr mag/cell
     absolute magnetization    =    38.59 Bohr mag/cell

     iteration #  4     ecut=    45.00 Ry     beta= 0.10
     Davidson diagonalization with overlap
     ethr =  3.15E-03,  avg # of iterations =  1.5

     total cpu time spent up to now is     2378.3 secs

     total energy              =  -14695.22416525 Ry
     Harris-Foulkes estimate   =  -14693.99378832 Ry
     estimated scf accuracy    <       3.52894862 Ry

     total magnetization       =     0.01 Bohr mag/cell
     absolute magnetization    =    38.74 Bohr mag/cell

     iteration #  5     ecut=    45.00 Ry     beta= 0.10
     Davidson diagonalization with overlap
     ethr =  1.19E-03,  avg # of iterations =  2.6

     total cpu time spent up to now is     2920.0 secs

     total energy              =  -14692.46463495 Ry
     Harris-Foulkes estimate   =  -14695.51944870 Ry
     estimated scf accuracy    <       8.95976849 Ry

     total magnetization       =    -0.02 Bohr mag/cell
     absolute magnetization    =    37.28 Bohr mag/cell

     iteration #  6     ecut=    45.00 Ry     beta= 0.10
     Davidson diagonalization with overlap
     ethr =  1.19E-03,  avg # of iterations =  4.3

     total cpu time spent up to now is     3877.3 secs

     total energy              =  -14693.80023942 Ry
     Harris-Foulkes estimate   =  -14693.84040783 Ry
     estimated scf accuracy    <       3.52626670 Ry

     total magnetization       =    -0.06 Bohr mag/cell
     absolute magnetization    =    38.35 Bohr mag/cell

     iteration #  7     ecut=    45.00 Ry     beta= 0.10
     Davidson diagonalization with overlap
     ethr =  1.19E-03,  avg # of iterations =  3.4

     total cpu time spent up to now is     4443.1 secs

     total energy              =  -14693.85360157 Ry
     Harris-Foulkes estimate   =  -14694.01178669 Ry
     estimated scf accuracy    <      10.24913769 Ry

     total magnetization       =     0.16 Bohr mag/cell
     absolute magnetization    =    37.95 Bohr mag/cell

     iteration #  8     ecut=    45.00 Ry     beta= 0.10
     Davidson diagonalization with overlap
     ethr =  1.19E-03,  avg # of iterations =  1.4

     total cpu time spent up to now is     4884.2 secs

     total energy              =  -14693.97851252 Ry
     Harris-Foulkes estimate   =  -14693.96758038 Ry
     estimated scf accuracy    <       0.13356870 Ry

     total magnetization       =    -0.01 Bohr mag/cell
     absolute magnetization    =    37.97 Bohr mag/cell

     iteration #  9     ecut=    45.00 Ry     beta= 0.10
     Davidson diagonalization with overlap
     ethr =  4.51E-05,  avg # of iterations =  4.8

     total cpu time spent up to now is     5737.3 secs

     total energy              =  -14694.01292354 Ry
     Harris-Foulkes estimate   =  -14694.01769846 Ry
     estimated scf accuracy    <       0.20416873 Ry

     total magnetization       =     0.00 Bohr mag/cell
     absolute magnetization    =    37.33 Bohr mag/cell

     iteration # 10     ecut=    45.00 Ry     beta= 0.10
     Davidson diagonalization with overlap
     ethr =  4.51E-05,  avg # of iterations =  1.0

     total cpu time spent up to now is     6151.0 secs

     total energy              =  -14693.95782120 Ry
     Harris-Foulkes estimate   =  -14694.01352192 Ry
     estimated scf accuracy    <       0.16768173 Ry

     total magnetization       =     0.00 Bohr mag/cell
     absolute magnetization    =    37.33 Bohr mag/cell

     iteration # 11     ecut=    45.00 Ry     beta= 0.10
     Davidson diagonalization with overlap
     ethr =  4.51E-05,  avg # of iterations =  3.1

     total cpu time spent up to now is     6823.0 secs

     total energy              =  -14693.98365455 Ry
     Harris-Foulkes estimate   =  -14693.99767978 Ry
     estimated scf accuracy    <       0.04073297 Ry

     total magnetization       =     0.00 Bohr mag/cell
     absolute magnetization    =    37.45 Bohr mag/cell

     iteration # 12     ecut=    45.00 Ry     beta= 0.10
     Davidson diagonalization with overlap
     ethr =  1.38E-05,  avg # of iterations =  3.0

     total cpu time spent up to now is     7528.3 secs

     total energy              =  -14693.99712806 Ry
     Harris-Foulkes estimate   =  -14693.99734166 Ry
     estimated scf accuracy    <       0.03508547 Ry

     total magnetization       =    -0.00 Bohr mag/cell
     absolute magnetization    =    37.49 Bohr mag/cell

     iteration # 13     ecut=    45.00 Ry     beta= 0.10
     Davidson diagonalization with overlap
     ethr =  1.19E-05,  avg # of iterations =  1.2

     total cpu time spent up to now is     7952.2 secs

     total energy              =  -14693.99927519 Ry
     Harris-Foulkes estimate   =  -14693.99877540 Ry
     estimated scf accuracy    <       0.00777838 Ry

     total magnetization       =     0.00 Bohr mag/cell
     absolute magnetization    =    37.44 Bohr mag/cell

     iteration # 14     ecut=    45.00 Ry     beta= 0.10
     Davidson diagonalization with overlap
     ethr =  2.63E-06,  avg # of iterations =  2.5

     total cpu time spent up to now is     8493.1 secs

     total energy              =  -14694.00051982 Ry
     Harris-Foulkes estimate   =  -14693.99993888 Ry
     estimated scf accuracy    <       0.00254930 Ry

     total magnetization       =    -0.00 Bohr mag/cell
     absolute magnetization    =    37.42 Bohr mag/cell

     iteration # 15     ecut=    45.00 Ry     beta= 0.10
     Davidson diagonalization with overlap
     ethr =  8.61E-07,  avg # of iterations =  1.4

     total cpu time spent up to now is     8947.5 secs

     total energy              =  -14694.00068480 Ry
     Harris-Foulkes estimate   =  -14694.00067389 Ry
     estimated scf accuracy    <       0.00202033 Ry

     total magnetization       =     0.00 Bohr mag/cell
     absolute magnetization    =    37.39 Bohr mag/cell

     iteration # 16     ecut=    45.00 Ry     beta= 0.10
     Davidson diagonalization with overlap
     ethr =  6.83E-07,  avg # of iterations =  1.1

     total cpu time spent up to now is     9365.6 secs

     total energy              =  -14694.00083477 Ry
     Harris-Foulkes estimate   =  -14694.00077096 Ry
     estimated scf accuracy    <       0.00265114 Ry

     total magnetization       =    -0.00 Bohr mag/cell
     absolute magnetization    =    37.38 Bohr mag/cell

     iteration # 17     ecut=    45.00 Ry     beta= 0.10
     Davidson diagonalization with overlap
     ethr =  6.83E-07,  avg # of iterations =  1.0

     total cpu time spent up to now is     9804.4 secs

     total energy              =  -14694.00084208 Ry
     Harris-Foulkes estimate   =  -14694.00089316 Ry
     estimated scf accuracy    <       0.00376501 Ry

     total magnetization       =     0.00 Bohr mag/cell
     absolute magnetization    =    37.38 Bohr mag/cell

     iteration # 18     ecut=    45.00 Ry     beta= 0.10
     Davidson diagonalization with overlap
     ethr =  6.83E-07,  avg # of iterations =  1.0

     total cpu time spent up to now is    10306.6 secs

     total energy              =  -14694.00091332 Ry
     Harris-Foulkes estimate   =  -14694.00089566 Ry
     estimated scf accuracy    <       0.00060345 Ry

     total magnetization       =    -0.00 Bohr mag/cell
     absolute magnetization    =    37.38 Bohr mag/cell

     iteration # 19     ecut=    45.00 Ry     beta= 0.10
     Davidson diagonalization with overlap
     ethr =  2.04E-07,  avg # of iterations =  1.0

     total cpu time spent up to now is    10802.4 secs

     total energy              =  -14694.00098344 Ry
     Harris-Foulkes estimate   =  -14694.00093275 Ry
     estimated scf accuracy    <       0.00024414 Ry

     total magnetization       =     0.00 Bohr mag/cell
     absolute magnetization    =    37.38 Bohr mag/cell

     iteration # 20     ecut=    45.00 Ry     beta= 0.10
     Davidson diagonalization with overlap
     ethr =  8.25E-08,  avg # of iterations =  1.3

     total cpu time spent up to now is    11315.6 secs

     total energy              =  -14694.00101656 Ry
     Harris-Foulkes estimate   =  -14694.00099079 Ry
     estimated scf accuracy    <       0.00007869 Ry

     total magnetization       =    -0.00 Bohr mag/cell
     absolute magnetization    =    37.38 Bohr mag/cell

     iteration # 21     ecut=    45.00 Ry     beta= 0.10
     Davidson diagonalization with overlap
     ethr =  2.66E-08,  avg # of iterations =  2.9

     total cpu time spent up to now is    11815.7 secs

     total energy              =  -14694.00102543 Ry
     Harris-Foulkes estimate   =  -14694.00102397 Ry
     estimated scf accuracy    <       0.00030085 Ry

     total magnetization       =     0.00 Bohr mag/cell
     absolute magnetization    =    37.37 Bohr mag/cell

     iteration # 22     ecut=    45.00 Ry     beta= 0.10
     Davidson diagonalization with overlap
     ethr =  2.66E-08,  avg # of iterations =  1.0

     total cpu time spent up to now is    12180.9 secs

     total energy              =  -14694.00104363 Ry
     Harris-Foulkes estimate   =  -14694.00103347 Ry
     estimated scf accuracy    <       0.00009198 Ry

     total magnetization       =    -0.00 Bohr mag/cell
     absolute magnetization    =    37.37 Bohr mag/cell

     iteration # 23     ecut=    45.00 Ry     beta= 0.10
     Davidson diagonalization with overlap
     ethr =  2.66E-08,  avg # of iterations =  1.5

     total cpu time spent up to now is    12598.5 secs

     total energy              =  -14694.00105052 Ry
     Harris-Foulkes estimate   =  -14694.00104988 Ry
     estimated scf accuracy    <       0.00019589 Ry

     total magnetization       =     0.00 Bohr mag/cell
     absolute magnetization    =    37.36 Bohr mag/cell

     iteration # 24     ecut=    45.00 Ry     beta= 0.10
     Davidson diagonalization with overlap
     ethr =  2.66E-08,  avg # of iterations =  1.0

     total cpu time spent up to now is    12957.7 secs

     total energy              =  -14694.00105543 Ry
     Harris-Foulkes estimate   =  -14694.00105373 Ry
     estimated scf accuracy    <       0.00009441 Ry

     total magnetization       =    -0.00 Bohr mag/cell
     absolute magnetization    =    37.36 Bohr mag/cell

     iteration # 25     ecut=    45.00 Ry     beta= 0.10
     Davidson diagonalization with overlap
     ethr =  2.66E-08,  avg # of iterations =  1.0

     total cpu time spent up to now is    13323.3 secs

     total energy              =  -14694.00105705 Ry
     Harris-Foulkes estimate   =  -14694.00105624 Ry
     estimated scf accuracy    <       0.00005259 Ry

     total magnetization       =    -0.00 Bohr mag/cell
     absolute magnetization    =    37.36 Bohr mag/cell

     iteration # 26     ecut=    45.00 Ry     beta= 0.10
     Davidson diagonalization with overlap
     ethr =  1.78E-08,  avg # of iterations =  1.0

     total cpu time spent up to now is    13681.7 secs

     total energy              =  -14694.00105863 Ry
     Harris-Foulkes estimate   =  -14694.00105797 Ry
     estimated scf accuracy    <       0.00005233 Ry

     total magnetization       =     0.00 Bohr mag/cell
     absolute magnetization    =    37.36 Bohr mag/cell

     iteration # 27     ecut=    45.00 Ry     beta= 0.10
     Davidson diagonalization with overlap
     ethr =  1.77E-08,  avg # of iterations =  1.0

     total cpu time spent up to now is    14089.9 secs

     total energy              =  -14694.00105991 Ry
     Harris-Foulkes estimate   =  -14694.00105924 Ry
     estimated scf accuracy    <       0.00004222 Ry

     total magnetization       =     0.00 Bohr mag/cell
     absolute magnetization    =    37.36 Bohr mag/cell

     iteration # 28     ecut=    45.00 Ry     beta= 0.10
     Davidson diagonalization with overlap
     ethr =  1.43E-08,  avg # of iterations =  1.0

     total cpu time spent up to now is    14453.0 secs

     total energy              =  -14694.00106087 Ry
     Harris-Foulkes estimate   =  -14694.00106020 Ry
     estimated scf accuracy    <       0.00001895 Ry

     total magnetization       =    -0.00 Bohr mag/cell
     absolute magnetization    =    37.36 Bohr mag/cell

     iteration # 29     ecut=    45.00 Ry     beta= 0.10
     Davidson diagonalization with overlap
     ethr =  6.40E-09,  avg # of iterations =  1.0

     total cpu time spent up to now is    14818.5 secs

     total energy              =  -14694.00106164 Ry
     Harris-Foulkes estimate   =  -14694.00106114 Ry
     estimated scf accuracy    <       0.00002372 Ry

     total magnetization       =     0.00 Bohr mag/cell
     absolute magnetization    =    37.37 Bohr mag/cell

     iteration # 30     ecut=    45.00 Ry     beta= 0.10
     Davidson diagonalization with overlap
     ethr =  6.40E-09,  avg # of iterations =  1.0

     total cpu time spent up to now is    15201.0 secs

     total energy              =  -14694.00106231 Ry
     Harris-Foulkes estimate   =  -14694.00106181 Ry
     estimated scf accuracy    <       0.00003246 Ry

     total magnetization       =     0.00 Bohr mag/cell
     absolute magnetization    =    37.37 Bohr mag/cell

     iteration # 31     ecut=    45.00 Ry     beta= 0.10
     Davidson diagonalization with overlap
     ethr =  6.40E-09,  avg # of iterations =  1.0

     total cpu time spent up to now is    15618.0 secs

     total energy              =  -14694.00106304 Ry
     Harris-Foulkes estimate   =  -14694.00106246 Ry
     estimated scf accuracy    <       0.00000395 Ry

     total magnetization       =    -0.00 Bohr mag/cell
     absolute magnetization    =    37.37 Bohr mag/cell

     iteration # 32     ecut=    45.00 Ry     beta= 0.10
     Davidson diagonalization with overlap
     ethr =  1.33E-09,  avg # of iterations =  1.0

     total cpu time spent up to now is    16015.7 secs

     total energy              =  -14694.00106352 Ry
     Harris-Foulkes estimate   =  -14694.00106306 Ry
     estimated scf accuracy    <       0.00002014 Ry

     total magnetization       =    -0.00 Bohr mag/cell
     absolute magnetization    =    37.37 Bohr mag/cell

     iteration # 33     ecut=    45.00 Ry     beta= 0.10
     Davidson diagonalization with overlap
     ethr =  1.33E-09,  avg # of iterations =  1.0

     total cpu time spent up to now is    16397.5 secs

     total energy              =  -14694.00106408 Ry
     Harris-Foulkes estimate   =  -14694.00106360 Ry
     estimated scf accuracy    <       0.00000236 Ry

     total magnetization       =    -0.00 Bohr mag/cell
     absolute magnetization    =    37.37 Bohr mag/cell

     iteration # 34     ecut=    45.00 Ry     beta= 0.10
     Davidson diagonalization with overlap
     ethr =  7.97E-10,  avg # of iterations =  1.1

     total cpu time spent up to now is    16782.0 secs

     total energy              =  -14694.00106460 Ry
     Harris-Foulkes estimate   =  -14694.00106409 Ry
     estimated scf accuracy    <       0.00001403 Ry

     total magnetization       =    -0.00 Bohr mag/cell
     absolute magnetization    =    37.37 Bohr mag/cell

     iteration # 35     ecut=    45.00 Ry     beta= 0.10
     Davidson diagonalization with overlap
     ethr =  7.97E-10,  avg # of iterations =  1.1

     total cpu time spent up to now is    17146.7 secs

     total energy              =  -14694.00106481 Ry
     Harris-Foulkes estimate   =  -14694.00106456 Ry
     estimated scf accuracy    <       0.00003513 Ry

     total magnetization       =     0.00 Bohr mag/cell
     absolute magnetization    =    37.37 Bohr mag/cell

     iteration # 36     ecut=    45.00 Ry     beta= 0.10
     Davidson diagonalization with overlap
     ethr =  7.97E-10,  avg # of iterations =  1.0

     total cpu time spent up to now is    17502.2 secs

     total energy              =  -14694.00106528 Ry
     Harris-Foulkes estimate   =  -14694.00106499 Ry
     estimated scf accuracy    <       0.00000973 Ry

     total magnetization       =    -0.00 Bohr mag/cell
     absolute magnetization    =    37.37 Bohr mag/cell

     iteration # 37     ecut=    45.00 Ry     beta= 0.10
     Davidson diagonalization with overlap
     ethr =  7.97E-10,  avg # of iterations =  1.0

     total cpu time spent up to now is    17876.0 secs

     total energy              =  -14694.00106556 Ry
     Harris-Foulkes estimate   =  -14694.00106530 Ry
     estimated scf accuracy    <       0.00000609 Ry

     total magnetization       =    -0.00 Bohr mag/cell
     absolute magnetization    =    37.37 Bohr mag/cell

     iteration # 38     ecut=    45.00 Ry     beta= 0.10
     Davidson diagonalization with overlap
     ethr =  7.97E-10,  avg # of iterations =  1.0

     total cpu time spent up to now is    18242.9 secs

     total energy              =  -14694.00106577 Ry
     Harris-Foulkes estimate   =  -14694.00106556 Ry
     estimated scf accuracy    <       0.00000454 Ry

     total magnetization       =    -0.00 Bohr mag/cell
     absolute magnetization    =    37.37 Bohr mag/cell

     iteration # 39     ecut=    45.00 Ry     beta= 0.10
     Davidson diagonalization with overlap
     ethr =  7.97E-10,  avg # of iterations =  1.0

     total cpu time spent up to now is    18649.1 secs

     total energy              =  -14694.00106598 Ry
     Harris-Foulkes estimate   =  -14694.00106576 Ry
     estimated scf accuracy    <       0.00001211 Ry

     total magnetization       =     0.00 Bohr mag/cell
     absolute magnetization    =    37.37 Bohr mag/cell

     iteration # 40     ecut=    45.00 Ry     beta= 0.10
     Davidson diagonalization with overlap
     ethr =  7.97E-10,  avg # of iterations =  1.0

     total cpu time spent up to now is    19000.2 secs

     total energy              =  -14694.00106616 Ry
     Harris-Foulkes estimate   =  -14694.00106597 Ry
     estimated scf accuracy    <       0.00002360 Ry

     total magnetization       =     0.00 Bohr mag/cell
     absolute magnetization    =    37.37 Bohr mag/cell

     iteration # 41     ecut=    45.00 Ry     beta= 0.10
     Davidson diagonalization with overlap
     ethr =  7.97E-10,  avg # of iterations =  1.0

     total cpu time spent up to now is    19355.3 secs

     total energy              =  -14694.00106634 Ry
     Harris-Foulkes estimate   =  -14694.00106618 Ry
     estimated scf accuracy    <       0.00001598 Ry

     total magnetization       =     0.00 Bohr mag/cell
     absolute magnetization    =    37.37 Bohr mag/cell

     iteration # 42     ecut=    45.00 Ry     beta= 0.10
     Davidson diagonalization with overlap
     ethr =  7.97E-10,  avg # of iterations =  1.0

     total cpu time spent up to now is    19728.2 secs

     total energy              =  -14694.00106657 Ry
     Harris-Foulkes estimate   =  -14694.00106642 Ry
     estimated scf accuracy    <       0.00000503 Ry

     total magnetization       =     0.00 Bohr mag/cell
     absolute magnetization    =    37.37 Bohr mag/cell

     iteration # 43     ecut=    45.00 Ry     beta= 0.10
     Davidson diagonalization with overlap
     ethr =  7.97E-10,  avg # of iterations =  1.0

     total cpu time spent up to now is    20078.6 secs

     total energy              =  -14694.00106676 Ry
     Harris-Foulkes estimate   =  -14694.00106659 Ry
     estimated scf accuracy    <       0.00000437 Ry

     total magnetization       =     0.00 Bohr mag/cell
     absolute magnetization    =    37.37 Bohr mag/cell

     iteration # 44     ecut=    45.00 Ry     beta= 0.10
     Davidson diagonalization with overlap
     ethr =  7.97E-10,  avg # of iterations =  1.0

     total cpu time spent up to now is    20438.1 secs

     total energy              =  -14694.00106676 Ry
     Harris-Foulkes estimate   =  -14694.00106667 Ry
     estimated scf accuracy    <       0.00000820 Ry

     total magnetization       =     0.00 Bohr mag/cell
     absolute magnetization    =    37.37 Bohr mag/cell

     iteration # 45     ecut=    45.00 Ry     beta= 0.10
     Davidson diagonalization with overlap
     ethr =  7.97E-10,  avg # of iterations =  1.0

     total cpu time spent up to now is    20796.7 secs

     total energy              =  -14694.00106701 Ry
     Harris-Foulkes estimate   =  -14694.00106686 Ry
     estimated scf accuracy    <       0.00000662 Ry

     total magnetization       =     0.00 Bohr mag/cell
     absolute magnetization    =    37.37 Bohr mag/cell

     iteration # 46     ecut=    45.00 Ry     beta= 0.10
     Davidson diagonalization with overlap
     ethr =  7.97E-10,  avg # of iterations =  1.0

     total cpu time spent up to now is    21144.6 secs

     total energy              =  -14694.00106718 Ry
     Harris-Foulkes estimate   =  -14694.00106707 Ry
     estimated scf accuracy    <       0.00000863 Ry

     total magnetization       =     0.00 Bohr mag/cell
     absolute magnetization    =    37.37 Bohr mag/cell

     iteration # 47     ecut=    45.00 Ry     beta= 0.10
     Davidson diagonalization with overlap
     ethr =  7.97E-10,  avg # of iterations =  1.0

     total cpu time spent up to now is    21522.7 secs

     total energy              =  -14694.00106711 Ry
     Harris-Foulkes estimate   =  -14694.00106715 Ry
     estimated scf accuracy    <       0.00001029 Ry

     total magnetization       =     0.00 Bohr mag/cell
     absolute magnetization    =    37.37 Bohr mag/cell

     iteration # 48     ecut=    45.00 Ry     beta= 0.10
     Davidson diagonalization with overlap
     ethr =  7.97E-10,  avg # of iterations =  1.0
 
     Magnetic moment per site:
     atom:    1    charge:   13.5464    magn:    4.2420    constr:    0.0000
     atom:    2    charge:   13.5466    magn:    4.2418    constr:    0.0000
     atom:    3    charge:   13.5444    magn:   -4.2580    constr:    0.0000
     atom:    4    charge:   13.5446    magn:    4.2581    constr:    0.0000
     atom:    5    charge:   13.5465    magn:   -4.2417    constr:    0.0000
     atom:    6    charge:   13.5466    magn:   -4.2420    constr:    0.0000
     atom:    7    charge:   13.5444    magn:    4.2580    constr:    0.0000
     atom:    8    charge:   13.5445    magn:   -4.2581    constr:    0.0000
     atom:    9    charge:    9.1228    magn:    0.0352    constr:    0.0000
     atom:   10    charge:    9.1229    magn:    0.0351    constr:    0.0000
     atom:   11    charge:    9.1239    magn:    0.0418    constr:    0.0000
     atom:   12    charge:    9.1235    magn:   -0.0407    constr:    0.0000
     atom:   13    charge:    9.1241    magn:   -0.0418    constr:    0.0000
     atom:   14    charge:    9.1242    magn:    0.0419    constr:    0.0000
     atom:   15    charge:    9.1236    magn:    0.0408    constr:    0.0000
     atom:   16    charge:    9.1238    magn:   -0.0417    constr:    0.0000
     atom:   17    charge:    9.1228    magn:   -0.0351    constr:    0.0000
     atom:   18    charge:    9.1230    magn:   -0.0352    constr:    0.0000
     atom:   19    charge:    9.1239    magn:   -0.0418    constr:    0.0000
     atom:   20    charge:    9.1235    magn:    0.0407    constr:    0.0000
     atom:   21    charge:    9.1241    magn:    0.0419    constr:    0.0000
     atom:   22    charge:    9.1242    magn:   -0.0419    constr:    0.0000
     atom:   23    charge:    9.1236    magn:   -0.0408    constr:    0.0000
     atom:   24    charge:    9.1237    magn:    0.0418    constr:    0.0000

     total cpu time spent up to now is    21895.2 secs

     End of self-consistent calculation
 --- enter write_ns ---
 LDA+U parameters:
U(  1) =   3.1200   J(  1) =   0.7000   B(  1) =   0.0803
U(  2) =   3.1200   J(  2) =   0.7000   B(  2) =   0.0803
atom    1   Tr[ns(na)] (up, down, total) =   4.97277  0.73096  5.70373
   spin  1
    eigenvalues: 
  0.985  0.994  0.994  0.997  1.002
    eigenvectors:
  0.000  0.000  0.000  1.000  0.000
  0.000  0.282  0.718  0.000  0.000
  0.000  0.718  0.282  0.000  0.000
  0.000  0.000  0.000  0.000  1.000
  1.000  0.000  0.000  0.000  0.000
    occupations:
  0.997 -0.000 -0.000  0.000  0.000
 -0.000  0.994 -0.000  0.000  0.000
 -0.000 -0.000  0.994  0.000  0.000
  0.000  0.000  0.000  1.002 -0.000
  0.000  0.000  0.000 -0.000  0.985
   spin  2
    eigenvalues: 
  0.065  0.121  0.147  0.147  0.250
    eigenvectors:
  0.000  1.000  0.000  0.000  0.000
  0.000  0.000  0.309  0.691  0.000
  0.000  0.000  0.691  0.309  0.000
  1.000  0.000  0.000  0.000  0.000
  0.000  0.000  0.000  0.000  1.000
    occupations:
  0.121 -0.000 -0.000  0.000  0.000
 -0.000  0.147 -0.000  0.000  0.000
 -0.000 -0.000  0.147  0.000  0.000
  0.000  0.000  0.000  0.065 -0.000
  0.000  0.000  0.000 -0.000  0.250
atomic mag. moment =     4.241809
atom    2   Tr[ns(na)] (up, down, total) =   4.97273  0.73117  5.70390
   spin  1
    eigenvalues: 
  0.985  0.994  0.994  0.997  1.002
    eigenvectors:
  0.000  0.000  0.000  1.000  0.000
  0.000  0.270  0.730  0.000  0.000
  0.000  0.730  0.270  0.000  0.000
  0.000  0.000  0.000  0.000  1.000
  1.000  0.000  0.000  0.000  0.000
    occupations:
  0.997 -0.000 -0.000  0.000  0.000
 -0.000  0.994 -0.000  0.000  0.000
 -0.000 -0.000  0.994  0.000  0.000
  0.000  0.000  0.000  1.002 -0.000
  0.000  0.000  0.000 -0.000  0.985
   spin  2
    eigenvalues: 
  0.065  0.121  0.147  0.147  0.251
    eigenvectors:
  0.000  1.000  0.000  0.000  0.000
  0.000  0.000  0.318  0.682  0.000
  0.000  0.000  0.682  0.318  0.000
  1.000  0.000  0.000  0.000  0.000
  0.000  0.000  0.000  0.000  1.000
    occupations:
  0.121 -0.000 -0.000  0.000  0.000
 -0.000  0.147 -0.000  0.000  0.000
 -0.000 -0.000  0.147  0.000  0.000
  0.000  0.000  0.000  0.065 -0.000
  0.000  0.000  0.000 -0.000  0.251
atomic mag. moment =     4.241561
atom    3   Tr[ns(na)] (up, down, total) =   0.71880  4.97266  5.69146
   spin  1
    eigenvalues: 
  0.065  0.118  0.145  0.145  0.245
    eigenvectors:
  0.000  1.000  0.000  0.000  0.000
  0.000  0.000  0.389  0.611  0.000
  0.000  0.000  0.611  0.389  0.000
  1.000  0.000  0.000  0.000  0.000
  0.000  0.000  0.000  0.000  1.000
    occupations:
  0.118 -0.000 -0.000  0.000  0.000
 -0.000  0.145 -0.000  0.000  0.000
 -0.000 -0.000  0.145  0.000  0.000
  0.000  0.000  0.000  0.065 -0.000
  0.000  0.000  0.000 -0.000  0.245
   spin  2
    eigenvalues: 
  0.985  0.994  0.994  0.997  1.003
    eigenvectors:
  0.000  0.000  0.000  1.000  0.000
  0.000  0.315  0.685  0.000  0.000
  0.000  0.685  0.315  0.000  0.000
  0.000  0.000  0.000  0.000  1.000
  1.000  0.000  0.000  0.000  0.000
    occupations:
  0.997 -0.000 -0.000  0.000  0.000
 -0.000  0.994 -0.000  0.000  0.000
 -0.000 -0.000  0.994  0.000  0.000
  0.000  0.000  0.000  1.003 -0.000
  0.000  0.000  0.000 -0.000  0.985
atomic mag. moment =    -4.253855
atom    4   Tr[ns(na)] (up, down, total) =   4.97268  0.71879  5.69147
   spin  1
    eigenvalues: 
  0.985  0.994  0.994  0.997  1.003
    eigenvectors:
  0.000  0.000  0.000  1.000  0.000
  0.000  0.308  0.692  0.000  0.000
  0.000  0.692  0.308  0.000  0.000
  0.000  0.000  0.000  0.000  1.000
  1.000  0.000  0.000  0.000  0.000
    occupations:
  0.997 -0.000 -0.000  0.000  0.000
 -0.000  0.994 -0.000  0.000  0.000
 -0.000 -0.000  0.994  0.000  0.000
  0.000  0.000  0.000  1.003 -0.000
  0.000  0.000  0.000 -0.000  0.985
   spin  2
    eigenvalues: 
  0.065  0.118  0.145  0.145  0.245
    eigenvectors:
  0.000  1.000  0.000  0.000  0.000
  0.000  0.000  0.282  0.718  0.000
  0.000  0.000  0.718  0.282  0.000
  1.000  0.000  0.000  0.000  0.000
  0.000  0.000  0.000  0.000  1.000
    occupations:
  0.118 -0.000 -0.000  0.000  0.000
 -0.000  0.145 -0.000  0.000  0.000
 -0.000 -0.000  0.145  0.000  0.000
  0.000  0.000  0.000  0.065 -0.000
  0.000  0.000  0.000 -0.000  0.245
atomic mag. moment =     4.253894
atom    5   Tr[ns(na)] (up, down, total) =   0.73127  4.97273  5.70400
   spin  1
    eigenvalues: 
  0.065  0.121  0.147  0.147  0.251
    eigenvectors:
  0.000  1.000  0.000  0.000  0.000
  0.000  0.000  0.323  0.677  0.000
  0.000  0.000  0.677  0.323  0.000
  1.000  0.000  0.000  0.000  0.000
  0.000  0.000  0.000  0.000  1.000
    occupations:
  0.121 -0.000 -0.000  0.000  0.000
 -0.000  0.147 -0.000  0.000  0.000
 -0.000 -0.000  0.147  0.000  0.000
  0.000  0.000  0.000  0.065 -0.000
  0.000  0.000  0.000 -0.000  0.251
   spin  2
    eigenvalues: 
  0.985  0.994  0.994  0.997  1.002
    eigenvectors:
  0.000  0.000  0.000  1.000  0.000
  0.000  0.273  0.727  0.000  0.000
  0.000  0.727  0.273  0.000  0.000
  0.000  0.000  0.000  0.000  1.000
  1.000  0.000  0.000  0.000  0.000
    occupations:
  0.997 -0.000 -0.000  0.000  0.000
 -0.000  0.994 -0.000  0.000  0.000
 -0.000 -0.000  0.994  0.000  0.000
  0.000  0.000  0.000  1.002 -0.000
  0.000  0.000  0.000 -0.000  0.985
atomic mag. moment =    -4.241459
atom    6   Tr[ns(na)] (up, down, total) =   0.73099  4.97279  5.70378
   spin  1
    eigenvalues: 
  0.065  0.121  0.147  0.147  0.250
    eigenvectors:
  0.000  1.000  0.000  0.000  0.000
  0.000  0.000  0.268  0.732  0.000
  0.000  0.000  0.732  0.268  0.000
  1.000  0.000  0.000  0.000  0.000
  0.000  0.000  0.000  0.000  1.000
    occupations:
  0.121 -0.000 -0.000  0.000  0.000
 -0.000  0.147 -0.000  0.000  0.000
 -0.000 -0.000  0.147  0.000  0.000
  0.000  0.000  0.000  0.065 -0.000
  0.000  0.000  0.000 -0.000  0.250
   spin  2
    eigenvalues: 
  0.985  0.994  0.994  0.997  1.002
    eigenvectors:
  0.000  0.000  0.000  1.000  0.000
  0.000  0.286  0.714  0.000  0.000
  0.000  0.714  0.286  0.000  0.000
  0.000  0.000  0.000  0.000  1.000
  1.000  0.000  0.000  0.000  0.000
    occupations:
  0.997 -0.000 -0.000  0.000  0.000
 -0.000  0.994 -0.000  0.000  0.000
 -0.000 -0.000  0.994  0.000  0.000
  0.000  0.000  0.000  1.002 -0.000
  0.000  0.000  0.000 -0.000  0.985
atomic mag. moment =    -4.241797
atom    7   Tr[ns(na)] (up, down, total) =   4.97266  0.71872  5.69138
   spin  1
    eigenvalues: 
  0.985  0.994  0.994  0.997  1.003
    eigenvectors:
  0.000  0.000  0.000  1.000  0.000
  0.000  0.380  0.620  0.000  0.000
  0.000  0.620  0.380  0.000  0.000
  0.000  0.000  0.000  0.000  1.000
  1.000  0.000  0.000  0.000  0.000
    occupations:
  0.997 -0.000 -0.000  0.000  0.000
 -0.000  0.994 -0.000  0.000  0.000
 -0.000 -0.000  0.994  0.000  0.000
  0.000  0.000  0.000  1.003 -0.000
  0.000  0.000  0.000 -0.000  0.985
   spin  2
    eigenvalues: 
  0.065  0.118  0.145  0.145  0.245
    eigenvectors:
  0.000  1.000  0.000  0.000  0.000
  0.000  0.000  0.296  0.704  0.000
  0.000  0.000  0.704  0.296  0.000
  1.000  0.000  0.000  0.000  0.000
  0.000  0.000  0.000  0.000  1.000
    occupations:
  0.118 -0.000 -0.000  0.000  0.000
 -0.000  0.145 -0.000  0.000  0.000
 -0.000 -0.000  0.145  0.000  0.000
  0.000  0.000  0.000  0.065 -0.000
  0.000  0.000  0.000 -0.000  0.245
atomic mag. moment =     4.253939
atom    8   Tr[ns(na)] (up, down, total) =   0.71865  4.97268  5.69133
   spin  1
    eigenvalues: 
  0.065  0.118  0.145  0.145  0.245
    eigenvectors:
  0.000  1.000  0.000  0.000  0.000
  0.000  0.000  0.312  0.688  0.000
  0.000  0.000  0.688  0.312  0.000
  1.000  0.000  0.000  0.000  0.000
  0.000  0.000  0.000  0.000  1.000
    occupations:
  0.118 -0.000 -0.000  0.000  0.000
 -0.000  0.145 -0.000  0.000  0.000
 -0.000 -0.000  0.145  0.000  0.000
  0.000  0.000  0.000  0.065 -0.000
  0.000  0.000  0.000 -0.000  0.245
   spin  2
    eigenvalues: 
  0.985  0.994  0.994  0.997  1.003
    eigenvectors:
  0.000  0.000  0.000  1.000  0.000
  0.000  0.355  0.645  0.000  0.000
  0.000  0.645  0.355  0.000  0.000
  0.000  0.000  0.000  0.000  1.000
  1.000  0.000  0.000  0.000  0.000
    occupations:
  0.997 -0.000 -0.000  0.000  0.000
 -0.000  0.994 -0.000  0.000  0.000
 -0.000 -0.000  0.994  0.000  0.000
  0.000  0.000  0.000  1.003 -0.000
  0.000  0.000  0.000 -0.000  0.985
atomic mag. moment =    -4.254030
N of occupied +U levels =   45.581050
 --- exit write_ns ---

     Number of k-points >= 100: set verbosity='high' to print the bands.

     the Fermi energy is    15.2961 ev

!    total energy              =  -14694.00106721 Ry
     Harris-Foulkes estimate   =  -14694.00106725 Ry
     estimated scf accuracy    <       0.00000088 Ry

     total all-electron energy =   -626921.596789 Ry

     The total energy is the sum of the following terms:

     one-electron contribution =    -714.34685784 Ry
     hartree contribution      =     656.42914487 Ry
     xc contribution           =    -737.88724815 Ry
     ewald contribution        =   -2196.78933708 Ry
     Hubbard energy            =       0.44414149 Ry
     one-center paw contrib.   =  -11701.85091050 Ry

     total magnetization       =     0.00 Bohr mag/cell
     absolute magnetization    =    37.37 Bohr mag/cell

     convergence has been achieved in  48 iterations

     Writing output data file mnau2.save/
 
     init_run     :    225.76s CPU    231.54s WALL (       1 calls)
     electrons    :  21188.09s CPU  21655.84s WALL (       1 calls)

     Called by init_run:
     wfcinit      :    222.07s CPU    227.63s WALL (       1 calls)
     potinit      :      1.65s CPU      1.76s WALL (       1 calls)
     hinit0       :      1.25s CPU      1.30s WALL (       1 calls)

     Called by electrons:
     c_bands      :  18532.94s CPU  18924.27s WALL (      48 calls)
     sum_band     :   2577.06s CPU   2651.45s WALL (      48 calls)
     v_of_rho     :      5.51s CPU      5.58s WALL (      49 calls)
     newd         :     18.65s CPU     19.01s WALL (      49 calls)
     PAW_pot      :     53.03s CPU     54.12s WALL (      49 calls)
     mix_rho      :      1.51s CPU      1.62s WALL (      48 calls)

     Called by c_bands:
     init_us_2    :     32.50s CPU     32.83s WALL (   26460 calls)
     cegterg      :  18071.91s CPU  18453.99s WALL (   12960 calls)

     Called by sum_band:
     sum_band:bec :     21.03s CPU     21.15s WALL (   12960 calls)
     addusdens    :     20.21s CPU     20.46s WALL (      48 calls)

     Called by *egterg:
     h_psi        :   9299.30s CPU   9525.19s WALL (   33179 calls)
     s_psi        :    893.34s CPU    894.86s WALL (   33449 calls)
     g_psi        :      9.76s CPU      9.88s WALL (   19949 calls)
     cdiaghg      :   4082.00s CPU   4183.23s WALL (   32909 calls)

     Called by h_psi:
     h_psi:pot    :   8337.84s CPU   8545.02s WALL (   33179 calls)
     h_psi:calbec :   1503.92s CPU   1561.90s WALL (   33179 calls)
     vloc_psi     :   5953.05s CPU   6100.88s WALL (   33179 calls)
     add_vuspsi   :    880.23s CPU    881.78s WALL (   33179 calls)
     vhpsi        :    950.71s CPU    969.24s WALL (   33179 calls)

     General routines
     calbec       :   3108.75s CPU   3215.00s WALL (   92548 calls)
     fft          :      5.04s CPU      5.14s WALL (    1221 calls)
     ffts         :      0.41s CPU      0.42s WALL (     194 calls)
     fftw         :   7238.06s CPU   7420.53s WALL (12034846 calls)
     interpolate  :      0.58s CPU      0.59s WALL (      98 calls)
     davcio       :      0.01s CPU      1.92s WALL (     270 calls)
 
     Parallel routines
     fft_scatt_xy :    232.98s CPU    237.61s WALL (12036261 calls)
     fft_scatt_yz :   5949.77s CPU   6104.20s WALL (12036261 calls)

     Hubbard U routines
     new_ns       :    104.16s CPU    110.27s WALL (      48 calls)
     vhpsi        :    950.71s CPU    969.24s WALL (   33179 calls)
 
     PWSCF        :     5h58m CPU       58h 6m WALL

       7h
 
   This run was terminated on:  17: 2:52  13Apr2019            

=------------------------------------------------------------------------------=
   JOB DONE.
=------------------------------------------------------------------------------=
