
     Program PWSCF v.6.3MaX starts on 10Apr2019 at 13:48:31 

     This program is part of the open-source Quantum ESPRESSO suite
     for quantum simulation of materials; please cite
         "P. Giannozzi et al., J. Phys.:Condens. Matter 21 395502 (2009);
         "P. Giannozzi et al., J. Phys.:Condens. Matter 29 465901 (2017);
          URL http://www.quantum-espresso.org", 
     in publications or presentations arising from this work. More details at
     http://www.quantum-espresso.org/quote

     Parallel version (MPI), running on    32 processors

     MPI processes distributed on     2 nodes
     R & G space division:  proc/nbgrp/npool/nimage =      32
     Waiting for input...
     Reading input from standard input

     Current dimensions of program PWSCF are:
     Max number of different atomic species (ntypx) = 10
     Max number of k-points (npk) =  40000
     Max angular momentum in pseudopotentials (lmaxx) =  3
               file Mn.pbe-spn-kjpaw_psl.0.3.1.UPF: wavefunction(s)  3P 3D renormalized
               file Au.pbe-dn-kjpaw_psl.0.1.UPF: wavefunction(s)  6S 6P 5D renormalized

     Subspace diagonalization in iterative solution of the eigenvalue problem:
     one sub-group per band group will be used
     scalapack distributed-memory algorithm (size of sub-group:  4*  4 procs)

     Found symmetry operation: I + ( -0.5000 -0.5000  0.1250)
     This is a supercell, fractional translations are disabled
 
     Parallelization info
     --------------------
     sticks:   dense  smooth     PW     G-vecs:    dense   smooth      PW
     Min          41      18      5                11487     3460     563
     Max          42      19      6                11527     3505     606
     Sum        1313     593    177               368373   111379   18691
 


     bravais-lattice index     =            0
     lattice parameter (alat)  =       6.4153  a.u.
     unit-cell volume          =    2724.7774 (a.u.)^3
     number of atoms/cell      =           24
     number of atomic types    =            2
     number of electrons       =       296.00
     number of Kohn-Sham states=          178
     kinetic-energy cutoff     =      45.0000  Ry
     charge density cutoff     =     400.0000  Ry
     convergence threshold     =      1.0E-06
     mixing beta               =       0.1000
     number of iterations used =            8  plain     mixing
     Exchange-correlation      = SLA PW PBX PBC ( 1  4  3  4 0 0)

     celldm(1)=   6.415315  celldm(2)=   0.000000  celldm(3)=   0.000000
     celldm(4)=   0.000000  celldm(5)=   0.000000  celldm(6)=   0.000000

     crystal axes: (cart. coord. in units of alat)
               a(1) = (   1.000000   0.000000   0.000000 )  
               a(2) = (   0.000000   1.000000   0.000000 )  
               a(3) = (   0.000000   0.000000  10.319937 )  

     reciprocal axes: (cart. coord. in units 2 pi/alat)
               b(1) = (  1.000000  0.000000  0.000000 )  
               b(2) = (  0.000000  1.000000  0.000000 )  
               b(3) = (  0.000000  0.000000  0.096900 )  


     PseudoPot. # 1 for Mn read from file:
     ./pseudo/Mn.pbe-spn-kjpaw_psl.0.3.1.UPF
     MD5 check sum: 7b43a3fb0e93e198b8dd8488d8cf503e
     Pseudo is Projector augmented-wave + core cor, Zval = 15.0
     Generated using "atomic" code by A. Dal Corso v.5.0.99 svn rev. 10869
     Shape of augmentation charge: PSQ
     Using radial grid of 1187 points,  6 beta functions with: 
                l(1) =   0
                l(2) =   0
                l(3) =   1
                l(4) =   1
                l(5) =   2
                l(6) =   2
     Q(r) pseudized with 0 coefficients 


     PseudoPot. # 2 for Au read from file:
     ./pseudo/Au.pbe-dn-kjpaw_psl.0.1.UPF
     MD5 check sum: be11e2e8e535ebe2b3ccfb4f88f554cb
     Pseudo is Projector augmented-wave + core cor, Zval = 11.0
     Generated using "atomic" code by A. Dal Corso v.5.0.2 svn rev. 9415
     Shape of augmentation charge: PSQ
     Using radial grid of 1279 points,  6 beta functions with: 
                l(1) =   0
                l(2) =   0
                l(3) =   1
                l(4) =   1
                l(5) =   2
                l(6) =   2
     Q(r) pseudized with 0 coefficients 


     atomic species   valence    mass     pseudopotential
        Mn            15.00    54.93800     Mn( 1.00)
        Au            11.00   196.96600     Au( 1.00)

     Starting magnetic structure 
     atomic species   magnetization
        Mn           0.800
        Au           0.000


     Full LDA+U calculation (l_max = 2) with parameters (eV):
     U(  1) =   3.1200   J(  1) =   0.7000   B(  1) =   0.0803



     16 Sym. Ops., with inversion, found



   Cartesian axes

     site n.     atom                  positions (alat units)
         1           Mn  tau(   1) = (   0.0000000   0.0000000   0.0000000  )
         2           Mn  tau(   2) = (   0.5000000   0.5000000   1.2899921  )
         3           Mn  tau(   3) = (   0.0000000   0.0000000   2.5799843  )
         4           Mn  tau(   4) = (   0.5000000   0.5000000   3.8699764  )
         5           Mn  tau(   5) = (   0.0000000   0.0000000   5.1599686  )
         6           Mn  tau(   6) = (   0.5000000   0.5000000   6.4499607  )
         7           Mn  tau(   7) = (   0.0000000   0.0000000   7.7399528  )
         8           Mn  tau(   8) = (   0.5000000   0.5000000   9.0299450  )
         9           Au  tau(   9) = (   0.5000000   0.5000000   0.4127975  )
        10           Au  tau(  10) = (   0.0000000   0.0000000   0.8771947  )
        11           Au  tau(  11) = (   0.0000000   0.0000000   1.7027896  )
        12           Au  tau(  12) = (   0.5000000   0.5000000   2.1671868  )
        13           Au  tau(  13) = (   0.5000000   0.5000000   2.9927818  )
        14           Au  tau(  14) = (   0.0000000   0.0000000   3.4571789  )
        15           Au  tau(  15) = (   0.0000000   0.0000000   4.2827739  )
        16           Au  tau(  16) = (   0.5000000   0.5000000   4.7471711  )
        17           Au  tau(  17) = (   0.5000000   0.5000000   5.5727660  )
        18           Au  tau(  18) = (   0.0000000   0.0000000   6.0371632  )
        19           Au  tau(  19) = (   0.0000000   0.0000000   6.8627582  )
        20           Au  tau(  20) = (   0.5000000   0.5000000   7.3271553  )
        21           Au  tau(  21) = (   0.5000000   0.5000000   8.1527503  )
        22           Au  tau(  22) = (   0.0000000   0.0000000   8.6171475  )
        23           Au  tau(  23) = (   0.0000000   0.0000000   9.4427424  )
        24           Au  tau(  24) = (   0.5000000   0.5000000   9.9071396  )

     number of k points=   135 (tetrahedron method)

     Number of k-points >= 100: set verbosity='high' to print them.

     Dense  grid:   368373 G-vectors     FFT dimensions: (  45,  45, 432)

     Smooth grid:   111379 G-vectors     FFT dimensions: (  27,  27, 288)

     Estimated max dynamical RAM per process >     444.68 MB

     Estimated total dynamical RAM >      13.90 GB
     Generating pointlists ...
     new r_m :   0.3377 (alat units)  2.1668 (a.u.) for type    1
     new r_m :   0.3377 (alat units)  2.1668 (a.u.) for type    2

     Check: negative/imaginary core charge=   -0.000006    0.000000

     Initial potential from superposition of free atoms

     starting charge  295.99426, renormalised to  296.00000
     Number of +U iterations with fixed ns =  0
     Starting occupations:
 --- enter write_ns ---
 LDA+U parameters:
U(  1) =   3.1200   J(  1) =   0.7000   B(  1) =   0.0803
atom    1   Tr[ns(na)] (up, down, total) =   5.00000  0.00000  5.00000
   spin  1
    eigenvalues: 
  1.000  1.000  1.000  1.000  1.000
    eigenvectors:
  1.000  0.000  0.000  0.000  0.000
  0.000  1.000  0.000  0.000  0.000
  0.000  0.000  1.000  0.000  0.000
  0.000  0.000  0.000  1.000  0.000
  0.000  0.000  0.000  0.000  1.000
    occupations:
  1.000  0.000  0.000  0.000  0.000
  0.000  1.000  0.000  0.000  0.000
  0.000  0.000  1.000  0.000  0.000
  0.000  0.000  0.000  1.000  0.000
  0.000  0.000  0.000  0.000  1.000
   spin  2
    eigenvalues: 
  0.000  0.000  0.000  0.000  0.000
    eigenvectors:
  1.000  0.000  0.000  0.000  0.000
  0.000  1.000  0.000  0.000  0.000
  0.000  0.000  1.000  0.000  0.000
  0.000  0.000  0.000  1.000  0.000
  0.000  0.000  0.000  0.000  1.000
    occupations:
  0.000  0.000  0.000  0.000  0.000
  0.000  0.000  0.000  0.000  0.000
  0.000  0.000  0.000  0.000  0.000
  0.000  0.000  0.000  0.000  0.000
  0.000  0.000  0.000  0.000  0.000
atomic mag. moment =     5.000000
atom    2   Tr[ns(na)] (up, down, total) =   5.00000  0.00000  5.00000
   spin  1
    eigenvalues: 
  1.000  1.000  1.000  1.000  1.000
    eigenvectors:
  1.000  0.000  0.000  0.000  0.000
  0.000  1.000  0.000  0.000  0.000
  0.000  0.000  1.000  0.000  0.000
  0.000  0.000  0.000  1.000  0.000
  0.000  0.000  0.000  0.000  1.000
    occupations:
  1.000  0.000  0.000  0.000  0.000
  0.000  1.000  0.000  0.000  0.000
  0.000  0.000  1.000  0.000  0.000
  0.000  0.000  0.000  1.000  0.000
  0.000  0.000  0.000  0.000  1.000
   spin  2
    eigenvalues: 
  0.000  0.000  0.000  0.000  0.000
    eigenvectors:
  1.000  0.000  0.000  0.000  0.000
  0.000  1.000  0.000  0.000  0.000
  0.000  0.000  1.000  0.000  0.000
  0.000  0.000  0.000  1.000  0.000
  0.000  0.000  0.000  0.000  1.000
    occupations:
  0.000  0.000  0.000  0.000  0.000
  0.000  0.000  0.000  0.000  0.000
  0.000  0.000  0.000  0.000  0.000
  0.000  0.000  0.000  0.000  0.000
  0.000  0.000  0.000  0.000  0.000
atomic mag. moment =     5.000000
atom    3   Tr[ns(na)] (up, down, total) =   5.00000  0.00000  5.00000
   spin  1
    eigenvalues: 
  1.000  1.000  1.000  1.000  1.000
    eigenvectors:
  1.000  0.000  0.000  0.000  0.000
  0.000  1.000  0.000  0.000  0.000
  0.000  0.000  1.000  0.000  0.000
  0.000  0.000  0.000  1.000  0.000
  0.000  0.000  0.000  0.000  1.000
    occupations:
  1.000  0.000  0.000  0.000  0.000
  0.000  1.000  0.000  0.000  0.000
  0.000  0.000  1.000  0.000  0.000
  0.000  0.000  0.000  1.000  0.000
  0.000  0.000  0.000  0.000  1.000
   spin  2
    eigenvalues: 
  0.000  0.000  0.000  0.000  0.000
    eigenvectors:
  1.000  0.000  0.000  0.000  0.000
  0.000  1.000  0.000  0.000  0.000
  0.000  0.000  1.000  0.000  0.000
  0.000  0.000  0.000  1.000  0.000
  0.000  0.000  0.000  0.000  1.000
    occupations:
  0.000  0.000  0.000  0.000  0.000
  0.000  0.000  0.000  0.000  0.000
  0.000  0.000  0.000  0.000  0.000
  0.000  0.000  0.000  0.000  0.000
  0.000  0.000  0.000  0.000  0.000
atomic mag. moment =     5.000000
atom    4   Tr[ns(na)] (up, down, total) =   5.00000  0.00000  5.00000
   spin  1
    eigenvalues: 
  1.000  1.000  1.000  1.000  1.000
    eigenvectors:
  1.000  0.000  0.000  0.000  0.000
  0.000  1.000  0.000  0.000  0.000
  0.000  0.000  1.000  0.000  0.000
  0.000  0.000  0.000  1.000  0.000
  0.000  0.000  0.000  0.000  1.000
    occupations:
  1.000  0.000  0.000  0.000  0.000
  0.000  1.000  0.000  0.000  0.000
  0.000  0.000  1.000  0.000  0.000
  0.000  0.000  0.000  1.000  0.000
  0.000  0.000  0.000  0.000  1.000
   spin  2
    eigenvalues: 
  0.000  0.000  0.000  0.000  0.000
    eigenvectors:
  1.000  0.000  0.000  0.000  0.000
  0.000  1.000  0.000  0.000  0.000
  0.000  0.000  1.000  0.000  0.000
  0.000  0.000  0.000  1.000  0.000
  0.000  0.000  0.000  0.000  1.000
    occupations:
  0.000  0.000  0.000  0.000  0.000
  0.000  0.000  0.000  0.000  0.000
  0.000  0.000  0.000  0.000  0.000
  0.000  0.000  0.000  0.000  0.000
  0.000  0.000  0.000  0.000  0.000
atomic mag. moment =     5.000000
atom    5   Tr[ns(na)] (up, down, total) =   5.00000  0.00000  5.00000
   spin  1
    eigenvalues: 
  1.000  1.000  1.000  1.000  1.000
    eigenvectors:
  1.000  0.000  0.000  0.000  0.000
  0.000  1.000  0.000  0.000  0.000
  0.000  0.000  1.000  0.000  0.000
  0.000  0.000  0.000  1.000  0.000
  0.000  0.000  0.000  0.000  1.000
    occupations:
  1.000  0.000  0.000  0.000  0.000
  0.000  1.000  0.000  0.000  0.000
  0.000  0.000  1.000  0.000  0.000
  0.000  0.000  0.000  1.000  0.000
  0.000  0.000  0.000  0.000  1.000
   spin  2
    eigenvalues: 
  0.000  0.000  0.000  0.000  0.000
    eigenvectors:
  1.000  0.000  0.000  0.000  0.000
  0.000  1.000  0.000  0.000  0.000
  0.000  0.000  1.000  0.000  0.000
  0.000  0.000  0.000  1.000  0.000
  0.000  0.000  0.000  0.000  1.000
    occupations:
  0.000  0.000  0.000  0.000  0.000
  0.000  0.000  0.000  0.000  0.000
  0.000  0.000  0.000  0.000  0.000
  0.000  0.000  0.000  0.000  0.000
  0.000  0.000  0.000  0.000  0.000
atomic mag. moment =     5.000000
atom    6   Tr[ns(na)] (up, down, total) =   5.00000  0.00000  5.00000
   spin  1
    eigenvalues: 
  1.000  1.000  1.000  1.000  1.000
    eigenvectors:
  1.000  0.000  0.000  0.000  0.000
  0.000  1.000  0.000  0.000  0.000
  0.000  0.000  1.000  0.000  0.000
  0.000  0.000  0.000  1.000  0.000
  0.000  0.000  0.000  0.000  1.000
    occupations:
  1.000  0.000  0.000  0.000  0.000
  0.000  1.000  0.000  0.000  0.000
  0.000  0.000  1.000  0.000  0.000
  0.000  0.000  0.000  1.000  0.000
  0.000  0.000  0.000  0.000  1.000
   spin  2
    eigenvalues: 
  0.000  0.000  0.000  0.000  0.000
    eigenvectors:
  1.000  0.000  0.000  0.000  0.000
  0.000  1.000  0.000  0.000  0.000
  0.000  0.000  1.000  0.000  0.000
  0.000  0.000  0.000  1.000  0.000
  0.000  0.000  0.000  0.000  1.000
    occupations:
  0.000  0.000  0.000  0.000  0.000
  0.000  0.000  0.000  0.000  0.000
  0.000  0.000  0.000  0.000  0.000
  0.000  0.000  0.000  0.000  0.000
  0.000  0.000  0.000  0.000  0.000
atomic mag. moment =     5.000000
atom    7   Tr[ns(na)] (up, down, total) =   5.00000  0.00000  5.00000
   spin  1
    eigenvalues: 
  1.000  1.000  1.000  1.000  1.000
    eigenvectors:
  1.000  0.000  0.000  0.000  0.000
  0.000  1.000  0.000  0.000  0.000
  0.000  0.000  1.000  0.000  0.000
  0.000  0.000  0.000  1.000  0.000
  0.000  0.000  0.000  0.000  1.000
    occupations:
  1.000  0.000  0.000  0.000  0.000
  0.000  1.000  0.000  0.000  0.000
  0.000  0.000  1.000  0.000  0.000
  0.000  0.000  0.000  1.000  0.000
  0.000  0.000  0.000  0.000  1.000
   spin  2
    eigenvalues: 
  0.000  0.000  0.000  0.000  0.000
    eigenvectors:
  1.000  0.000  0.000  0.000  0.000
  0.000  1.000  0.000  0.000  0.000
  0.000  0.000  1.000  0.000  0.000
  0.000  0.000  0.000  1.000  0.000
  0.000  0.000  0.000  0.000  1.000
    occupations:
  0.000  0.000  0.000  0.000  0.000
  0.000  0.000  0.000  0.000  0.000
  0.000  0.000  0.000  0.000  0.000
  0.000  0.000  0.000  0.000  0.000
  0.000  0.000  0.000  0.000  0.000
atomic mag. moment =     5.000000
atom    8   Tr[ns(na)] (up, down, total) =   5.00000  0.00000  5.00000
   spin  1
    eigenvalues: 
  1.000  1.000  1.000  1.000  1.000
    eigenvectors:
  1.000  0.000  0.000  0.000  0.000
  0.000  1.000  0.000  0.000  0.000
  0.000  0.000  1.000  0.000  0.000
  0.000  0.000  0.000  1.000  0.000
  0.000  0.000  0.000  0.000  1.000
    occupations:
  1.000  0.000  0.000  0.000  0.000
  0.000  1.000  0.000  0.000  0.000
  0.000  0.000  1.000  0.000  0.000
  0.000  0.000  0.000  1.000  0.000
  0.000  0.000  0.000  0.000  1.000
   spin  2
    eigenvalues: 
  0.000  0.000  0.000  0.000  0.000
    eigenvectors:
  1.000  0.000  0.000  0.000  0.000
  0.000  1.000  0.000  0.000  0.000
  0.000  0.000  1.000  0.000  0.000
  0.000  0.000  0.000  1.000  0.000
  0.000  0.000  0.000  0.000  1.000
    occupations:
  0.000  0.000  0.000  0.000  0.000
  0.000  0.000  0.000  0.000  0.000
  0.000  0.000  0.000  0.000  0.000
  0.000  0.000  0.000  0.000  0.000
  0.000  0.000  0.000  0.000  0.000
atomic mag. moment =     5.000000
N of occupied +U levels =   40.000000
 --- exit write_ns ---
 Atomic wfc used for LDA+U Projector are NOT orthogonalized
     Starting wfcs are  224 randomized atomic wfcs
     Checking if some PAW data can be deallocated... 

     total cpu time spent up to now is      250.1 secs

     Self-consistent Calculation

     iteration #  1     ecut=    45.00 Ry     beta= 0.10
     Davidson diagonalization with overlap
     ethr =  1.00E-02,  avg # of iterations =  3.1
 --- enter write_ns ---
 LDA+U parameters:
U(  1) =   3.1200   J(  1) =   0.7000   B(  1) =   0.0803
atom    1   Tr[ns(na)] (up, down, total) =   5.01747  0.40267  5.42014
   spin  1
    eigenvalues: 
  1.003  1.003  1.003  1.004  1.004
    eigenvectors:
  0.000  0.000  0.000  1.000  0.000
  0.000  0.216  0.784  0.000  0.000
  0.000  0.784  0.216  0.000  0.000
  0.000  0.000  0.000  0.000  1.000
  1.000  0.000  0.000  0.000  0.000
    occupations:
  1.004 -0.000 -0.000  0.000  0.000
 -0.000  1.003 -0.000  0.000  0.000
 -0.000 -0.000  1.003  0.000  0.000
  0.000  0.000  0.000  1.004 -0.000
  0.000  0.000  0.000 -0.000  1.003
   spin  2
    eigenvalues: 
  0.053  0.073  0.081  0.081  0.115
    eigenvectors:
  0.000  1.000  0.000  0.000  0.000
  0.000  0.000  0.275  0.725  0.000
  0.000  0.000  0.725  0.275  0.000
  1.000  0.000  0.000  0.000  0.000
  0.000  0.000  0.000  0.000  1.000
    occupations:
  0.073 -0.000 -0.000  0.000  0.000
 -0.000  0.081 -0.000  0.000  0.000
 -0.000 -0.000  0.081  0.000  0.000
  0.000  0.000  0.000  0.053 -0.000
  0.000  0.000  0.000 -0.000  0.115
atomic mag. moment =     4.614804
atom    2   Tr[ns(na)] (up, down, total) =   5.01751  0.40341  5.42093
   spin  1
    eigenvalues: 
  1.003  1.003  1.003  1.004  1.004
    eigenvectors:
  0.000  0.000  0.000  1.000  0.000
  0.000  0.327  0.673  0.000  0.000
  0.000  0.673  0.327  0.000  0.000
  0.000  0.000  0.000  0.000  1.000
  1.000  0.000  0.000  0.000  0.000
    occupations:
  1.004 -0.000 -0.000  0.000  0.000
 -0.000  1.003 -0.000  0.000  0.000
 -0.000 -0.000  1.003  0.000  0.000
  0.000  0.000  0.000  1.004 -0.000
  0.000  0.000  0.000 -0.000  1.003
   spin  2
    eigenvalues: 
  0.052  0.073  0.081  0.081  0.115
    eigenvectors:
  0.000  1.000  0.000  0.000  0.000
  0.000  0.000  0.267  0.733  0.000
  0.000  0.000  0.733  0.267  0.000
  1.000  0.000  0.000  0.000  0.000
  0.000  0.000  0.000  0.000  1.000
    occupations:
  0.073 -0.000 -0.000  0.000  0.000
 -0.000  0.081 -0.000  0.000  0.000
 -0.000 -0.000  0.081  0.000  0.000
  0.000  0.000  0.000  0.052 -0.000
  0.000  0.000  0.000 -0.000  0.115
atomic mag. moment =     4.614098
atom    3   Tr[ns(na)] (up, down, total) =   5.01752  0.40367  5.42119
   spin  1
    eigenvalues: 
  1.003  1.003  1.003  1.004  1.004
    eigenvectors:
  0.000  0.000  0.000  1.000  0.000
  0.000  0.226  0.774  0.000  0.000
  0.000  0.774  0.226  0.000  0.000
  0.000  0.000  0.000  0.000  1.000
  1.000  0.000  0.000  0.000  0.000
    occupations:
  1.004 -0.000 -0.000  0.000  0.000
 -0.000  1.003 -0.000  0.000  0.000
 -0.000 -0.000  1.003  0.000  0.000
  0.000  0.000  0.000  1.004 -0.000
  0.000  0.000  0.000 -0.000  1.003
   spin  2
    eigenvalues: 
  0.053  0.073  0.081  0.081  0.115
    eigenvectors:
  0.000  1.000  0.000  0.000  0.000
  0.000  0.000  0.260  0.740  0.000
  0.000  0.000  0.740  0.260  0.000
  1.000  0.000  0.000  0.000  0.000
  0.000  0.000  0.000  0.000  1.000
    occupations:
  0.073 -0.000 -0.000  0.000  0.000
 -0.000  0.081 -0.000  0.000  0.000
 -0.000 -0.000  0.081  0.000  0.000
  0.000  0.000  0.000  0.053 -0.000
  0.000  0.000  0.000 -0.000  0.115
atomic mag. moment =     4.613848
atom    4   Tr[ns(na)] (up, down, total) =   5.01751  0.40321  5.42072
   spin  1
    eigenvalues: 
  1.003  1.003  1.003  1.004  1.004
    eigenvectors:
  0.000  0.000  0.000  1.000  0.000
  0.000  0.415  0.585  0.000  0.000
  0.000  0.585  0.415  0.000  0.000
  0.000  0.000  0.000  0.000  1.000
  1.000  0.000  0.000  0.000  0.000
    occupations:
  1.004 -0.000 -0.000  0.000  0.000
 -0.000  1.003 -0.000  0.000  0.000
 -0.000 -0.000  1.003  0.000  0.000
  0.000  0.000  0.000  1.004 -0.000
  0.000  0.000  0.000 -0.000  1.003
   spin  2
    eigenvalues: 
  0.053  0.073  0.081  0.081  0.115
    eigenvectors:
  0.000  1.000  0.000  0.000  0.000
  0.000  0.000  0.310  0.690  0.000
  0.000  0.000  0.690  0.310  0.000
  1.000  0.000  0.000  0.000  0.000
  0.000  0.000  0.000  0.000  1.000
    occupations:
  0.073 -0.000 -0.000  0.000  0.000
 -0.000  0.081 -0.000  0.000  0.000
 -0.000 -0.000  0.081  0.000  0.000
  0.000  0.000  0.000  0.053 -0.000
  0.000  0.000  0.000 -0.000  0.115
atomic mag. moment =     4.614306
atom    5   Tr[ns(na)] (up, down, total) =   5.01752  0.40384  5.42137
   spin  1
    eigenvalues: 
  1.003  1.003  1.003  1.004  1.004
    eigenvectors:
  0.000  0.000  0.000  1.000  0.000
  0.000  0.345  0.655  0.000  0.000
  0.000  0.655  0.345  0.000  0.000
  0.000  0.000  0.000  0.000  1.000
  1.000  0.000  0.000  0.000  0.000
    occupations:
  1.004 -0.000 -0.000  0.000  0.000
 -0.000  1.003 -0.000  0.000  0.000
 -0.000 -0.000  1.003  0.000  0.000
  0.000  0.000  0.000  1.004 -0.000
  0.000  0.000  0.000 -0.000  1.003
   spin  2
    eigenvalues: 
  0.053  0.073  0.082  0.082  0.115
    eigenvectors:
  0.000  1.000  0.000  0.000  0.000
  0.000  0.000  0.296  0.704  0.000
  0.000  0.000  0.704  0.296  0.000
  1.000  0.000  0.000  0.000  0.000
  0.000  0.000  0.000  0.000  1.000
    occupations:
  0.073 -0.000 -0.000  0.000  0.000
 -0.000  0.082 -0.000  0.000  0.000
 -0.000 -0.000  0.082  0.000  0.000
  0.000  0.000  0.000  0.053 -0.000
  0.000  0.000  0.000 -0.000  0.115
atomic mag. moment =     4.613682
atom    6   Tr[ns(na)] (up, down, total) =   5.01751  0.40321  5.42072
   spin  1
    eigenvalues: 
  1.003  1.003  1.003  1.004  1.004
    eigenvectors:
  0.000  0.000  0.000  1.000  0.000
  0.000  0.327  0.673  0.000  0.000
  0.000  0.673  0.327  0.000  0.000
  0.000  0.000  0.000  0.000  1.000
  1.000  0.000  0.000  0.000  0.000
    occupations:
  1.004 -0.000 -0.000  0.000  0.000
 -0.000  1.003 -0.000  0.000  0.000
 -0.000 -0.000  1.003  0.000  0.000
  0.000  0.000  0.000  1.004 -0.000
  0.000  0.000  0.000 -0.000  1.003
   spin  2
    eigenvalues: 
  0.053  0.073  0.081  0.081  0.115
    eigenvectors:
  0.000  1.000  0.000  0.000  0.000
  0.000  0.000  0.333  0.667  0.000
  0.000  0.000  0.667  0.333  0.000
  1.000  0.000  0.000  0.000  0.000
  0.000  0.000  0.000  0.000  1.000
    occupations:
  0.073 -0.000 -0.000  0.000  0.000
 -0.000  0.081 -0.000  0.000  0.000
 -0.000 -0.000  0.081  0.000  0.000
  0.000  0.000  0.000  0.053 -0.000
  0.000  0.000  0.000 -0.000  0.115
atomic mag. moment =     4.614306
atom    7   Tr[ns(na)] (up, down, total) =   5.01752  0.40367  5.42119
   spin  1
    eigenvalues: 
  1.003  1.003  1.003  1.004  1.004
    eigenvectors:
  0.000  0.000  0.000  1.000  0.000
  0.000  0.236  0.764  0.000  0.000
  0.000  0.764  0.236  0.000  0.000
  0.000  0.000  0.000  0.000  1.000
  1.000  0.000  0.000  0.000  0.000
    occupations:
  1.004 -0.000 -0.000  0.000  0.000
 -0.000  1.003 -0.000  0.000  0.000
 -0.000 -0.000  1.003  0.000  0.000
  0.000  0.000  0.000  1.004 -0.000
  0.000  0.000  0.000 -0.000  1.003
   spin  2
    eigenvalues: 
  0.053  0.073  0.081  0.081  0.115
    eigenvectors:
  0.000  1.000  0.000  0.000  0.000
  0.000  0.000  0.317  0.683  0.000
  0.000  0.000  0.683  0.317  0.000
  1.000  0.000  0.000  0.000  0.000
  0.000  0.000  0.000  0.000  1.000
    occupations:
  0.073 -0.000 -0.000  0.000  0.000
 -0.000  0.081 -0.000  0.000  0.000
 -0.000 -0.000  0.081  0.000  0.000
  0.000  0.000  0.000  0.053 -0.000
  0.000  0.000  0.000 -0.000  0.115
atomic mag. moment =     4.613848
atom    8   Tr[ns(na)] (up, down, total) =   5.01751  0.40341  5.42093
   spin  1
    eigenvalues: 
  1.003  1.003  1.003  1.004  1.004
    eigenvectors:
  0.000  0.000  0.000  1.000  0.000
  0.000  0.315  0.685  0.000  0.000
  0.000  0.685  0.315  0.000  0.000
  0.000  0.000  0.000  0.000  1.000
  1.000  0.000  0.000  0.000  0.000
    occupations:
  1.004 -0.000 -0.000  0.000  0.000
 -0.000  1.003 -0.000  0.000  0.000
 -0.000 -0.000  1.003  0.000  0.000
  0.000  0.000  0.000  1.004 -0.000
  0.000  0.000  0.000 -0.000  1.003
   spin  2
    eigenvalues: 
  0.052  0.073  0.081  0.081  0.115
    eigenvectors:
  0.000  1.000  0.000  0.000  0.000
  0.000  0.000  0.339  0.661  0.000
  0.000  0.000  0.661  0.339  0.000
  1.000  0.000  0.000  0.000  0.000
  0.000  0.000  0.000  0.000  1.000
    occupations:
  0.073 -0.000 -0.000  0.000  0.000
 -0.000  0.081 -0.000  0.000  0.000
 -0.000 -0.000  0.081  0.000  0.000
  0.000  0.000  0.000  0.052 -0.000
  0.000  0.000  0.000 -0.000  0.115
atomic mag. moment =     4.614098
N of occupied +U levels =   43.367194
 --- exit write_ns ---

     total cpu time spent up to now is      972.0 secs

     total energy              =  -14687.26313092 Ry
     Harris-Foulkes estimate   =  -14685.79738970 Ry
     estimated scf accuracy    <      11.52038419 Ry

     total magnetization       =    40.36 Bohr mag/cell
     absolute magnetization    =    41.45 Bohr mag/cell

     iteration #  2     ecut=    45.00 Ry     beta= 0.10
     Davidson diagonalization with overlap
     ethr =  3.89E-03,  avg # of iterations =  1.0

     total cpu time spent up to now is     1381.2 secs

     total energy              =  -14692.54326129 Ry
     Harris-Foulkes estimate   =  -14687.33438756 Ry
     estimated scf accuracy    <       9.29704489 Ry

     total magnetization       =    39.93 Bohr mag/cell
     absolute magnetization    =    41.18 Bohr mag/cell

     iteration #  3     ecut=    45.00 Ry     beta= 0.10
     Davidson diagonalization with overlap
     ethr =  3.14E-03,  avg # of iterations =  2.7

     total cpu time spent up to now is     1977.0 secs

     total energy              =  -14693.62410965 Ry
     Harris-Foulkes estimate   =  -14694.39872347 Ry
     estimated scf accuracy    <      57.05471529 Ry

     total magnetization       =    37.51 Bohr mag/cell
     absolute magnetization    =    38.42 Bohr mag/cell

     iteration #  4     ecut=    45.00 Ry     beta= 0.10
     Davidson diagonalization with overlap
     ethr =  3.14E-03,  avg # of iterations =  1.9

     total cpu time spent up to now is     2438.1 secs

     total energy              =  -14696.06230807 Ry
     Harris-Foulkes estimate   =  -14694.09187329 Ry
     estimated scf accuracy    <       3.97393932 Ry

     total magnetization       =    37.13 Bohr mag/cell
     absolute magnetization    =    38.42 Bohr mag/cell

     iteration #  5     ecut=    45.00 Ry     beta= 0.10
     Davidson diagonalization with overlap
     ethr =  1.34E-03,  avg # of iterations =  2.6

     total cpu time spent up to now is     2993.0 secs

     total energy              =  -14692.70519653 Ry
     Harris-Foulkes estimate   =  -14696.78087379 Ry
     estimated scf accuracy    <      16.18526554 Ry

     total magnetization       =    33.98 Bohr mag/cell
     absolute magnetization    =    35.14 Bohr mag/cell

     iteration #  6     ecut=    45.00 Ry     beta= 0.10
     Davidson diagonalization with overlap
     ethr =  1.34E-03,  avg # of iterations =  3.4

     total cpu time spent up to now is     3807.9 secs

     total energy              =  -14693.89436209 Ry
     Harris-Foulkes estimate   =  -14694.05184978 Ry
     estimated scf accuracy    <       1.50089054 Ry

     total magnetization       =    36.50 Bohr mag/cell
     absolute magnetization    =    38.04 Bohr mag/cell

     iteration #  7     ecut=    45.00 Ry     beta= 0.10
     Davidson diagonalization with overlap
     ethr =  5.07E-04,  avg # of iterations =  2.2

     total cpu time spent up to now is     4301.4 secs

     total energy              =  -14693.89069745 Ry
     Harris-Foulkes estimate   =  -14693.96547156 Ry
     estimated scf accuracy    <       0.38190796 Ry

     total magnetization       =    36.01 Bohr mag/cell
     absolute magnetization    =    37.80 Bohr mag/cell

     iteration #  8     ecut=    45.00 Ry     beta= 0.10
     Davidson diagonalization with overlap
     ethr =  1.29E-04,  avg # of iterations =  3.6

     total cpu time spent up to now is     5073.9 secs

     total energy              =  -14694.02917161 Ry
     Harris-Foulkes estimate   =  -14694.02478633 Ry
     estimated scf accuracy    <       0.27973006 Ry

     total magnetization       =    34.67 Bohr mag/cell
     absolute magnetization    =    36.91 Bohr mag/cell

     iteration #  9     ecut=    45.00 Ry     beta= 0.10
     Davidson diagonalization with overlap
     ethr =  9.45E-05,  avg # of iterations =  1.0

     total cpu time spent up to now is     5497.0 secs

     total energy              =  -14694.02114201 Ry
     Harris-Foulkes estimate   =  -14694.03191443 Ry
     estimated scf accuracy    <       0.44593477 Ry

     total magnetization       =    34.78 Bohr mag/cell
     absolute magnetization    =    36.96 Bohr mag/cell

     iteration # 10     ecut=    45.00 Ry     beta= 0.10
     Davidson diagonalization with overlap
     ethr =  9.45E-05,  avg # of iterations =  1.0

     total cpu time spent up to now is     5906.9 secs

     total energy              =  -14693.99664021 Ry
     Harris-Foulkes estimate   =  -14694.02483737 Ry
     estimated scf accuracy    <       0.39539546 Ry

     total magnetization       =    34.66 Bohr mag/cell
     absolute magnetization    =    36.92 Bohr mag/cell

     iteration # 11     ecut=    45.00 Ry     beta= 0.10
     Davidson diagonalization with overlap
     ethr =  9.45E-05,  avg # of iterations =  1.3

     total cpu time spent up to now is     6338.3 secs

     total energy              =  -14694.00648684 Ry
     Harris-Foulkes estimate   =  -14694.00692872 Ry
     estimated scf accuracy    <       0.06368526 Ry

     total magnetization       =    34.66 Bohr mag/cell
     absolute magnetization    =    36.99 Bohr mag/cell

     iteration # 12     ecut=    45.00 Ry     beta= 0.10
     Davidson diagonalization with overlap
     ethr =  2.15E-05,  avg # of iterations =  1.3

     total cpu time spent up to now is     6782.5 secs

     total energy              =  -14694.00733413 Ry
     Harris-Foulkes estimate   =  -14694.00778624 Ry
     estimated scf accuracy    <       0.03034908 Ry

     total magnetization       =    34.58 Bohr mag/cell
     absolute magnetization    =    36.95 Bohr mag/cell

     iteration # 13     ecut=    45.00 Ry     beta= 0.10
     Davidson diagonalization with overlap
     ethr =  1.03E-05,  avg # of iterations =  2.0

     total cpu time spent up to now is     7281.0 secs

     total energy              =  -14694.00799620 Ry
     Harris-Foulkes estimate   =  -14694.00797252 Ry
     estimated scf accuracy    <       0.01537527 Ry

     total magnetization       =    34.55 Bohr mag/cell
     absolute magnetization    =    36.95 Bohr mag/cell

     iteration # 14     ecut=    45.00 Ry     beta= 0.10
     Davidson diagonalization with overlap
     ethr =  5.19E-06,  avg # of iterations =  3.3

     total cpu time spent up to now is     7910.6 secs

     total energy              =  -14694.01067767 Ry
     Harris-Foulkes estimate   =  -14694.01011202 Ry
     estimated scf accuracy    <       0.00104883 Ry

     total magnetization       =    34.43 Bohr mag/cell
     absolute magnetization    =    36.89 Bohr mag/cell

     iteration # 15     ecut=    45.00 Ry     beta= 0.10
     Davidson diagonalization with overlap
     ethr =  3.54E-07,  avg # of iterations =  3.1

     total cpu time spent up to now is     8480.7 secs

     total energy              =  -14694.01108850 Ry
     Harris-Foulkes estimate   =  -14694.01084221 Ry
     estimated scf accuracy    <       0.00053665 Ry

     total magnetization       =    34.33 Bohr mag/cell
     absolute magnetization    =    36.84 Bohr mag/cell

     iteration # 16     ecut=    45.00 Ry     beta= 0.10
     Davidson diagonalization with overlap
     ethr =  1.81E-07,  avg # of iterations =  1.7

     total cpu time spent up to now is     8945.7 secs

     total energy              =  -14694.01113649 Ry
     Harris-Foulkes estimate   =  -14694.01111814 Ry
     estimated scf accuracy    <       0.00029496 Ry

     total magnetization       =    34.29 Bohr mag/cell
     absolute magnetization    =    36.84 Bohr mag/cell

     iteration # 17     ecut=    45.00 Ry     beta= 0.10
     Davidson diagonalization with overlap
     ethr =  9.96E-08,  avg # of iterations =  1.2

     total cpu time spent up to now is     9375.0 secs

     total energy              =  -14694.01116708 Ry
     Harris-Foulkes estimate   =  -14694.01115168 Ry
     estimated scf accuracy    <       0.00039467 Ry

     total magnetization       =    34.29 Bohr mag/cell
     absolute magnetization    =    36.84 Bohr mag/cell

     iteration # 18     ecut=    45.00 Ry     beta= 0.10
     Davidson diagonalization with overlap
     ethr =  9.96E-08,  avg # of iterations =  1.1

     total cpu time spent up to now is     9790.4 secs

     total energy              =  -14694.01118862 Ry
     Harris-Foulkes estimate   =  -14694.01117791 Ry
     estimated scf accuracy    <       0.00032221 Ry

     total magnetization       =    34.30 Bohr mag/cell
     absolute magnetization    =    36.85 Bohr mag/cell

     iteration # 19     ecut=    45.00 Ry     beta= 0.10
     Davidson diagonalization with overlap
     ethr =  9.96E-08,  avg # of iterations =  1.0

     total cpu time spent up to now is    10207.6 secs

     total energy              =  -14694.01121715 Ry
     Harris-Foulkes estimate   =  -14694.01119366 Ry
     estimated scf accuracy    <       0.00033776 Ry

     total magnetization       =    34.29 Bohr mag/cell
     absolute magnetization    =    36.85 Bohr mag/cell

     iteration # 20     ecut=    45.00 Ry     beta= 0.10
     Davidson diagonalization with overlap
     ethr =  9.96E-08,  avg # of iterations =  1.2

     total cpu time spent up to now is    10631.8 secs

     total energy              =  -14694.01122699 Ry
     Harris-Foulkes estimate   =  -14694.01122036 Ry
     estimated scf accuracy    <       0.00005126 Ry

     total magnetization       =    34.27 Bohr mag/cell
     absolute magnetization    =    36.85 Bohr mag/cell

     iteration # 21     ecut=    45.00 Ry     beta= 0.10
     Davidson diagonalization with overlap
     ethr =  1.73E-08,  avg # of iterations =  1.6

     total cpu time spent up to now is    11077.1 secs

     total energy              =  -14694.01123013 Ry
     Harris-Foulkes estimate   =  -14694.01122941 Ry
     estimated scf accuracy    <       0.00017559 Ry

     total magnetization       =    34.27 Bohr mag/cell
     absolute magnetization    =    36.85 Bohr mag/cell

     iteration # 22     ecut=    45.00 Ry     beta= 0.10
     Davidson diagonalization with overlap
     ethr =  1.73E-08,  avg # of iterations =  1.0

     total cpu time spent up to now is    11485.4 secs

     total energy              =  -14694.01123430 Ry
     Harris-Foulkes estimate   =  -14694.01123106 Ry
     estimated scf accuracy    <       0.00009513 Ry

     total magnetization       =    34.27 Bohr mag/cell
     absolute magnetization    =    36.85 Bohr mag/cell

     iteration # 23     ecut=    45.00 Ry     beta= 0.10
     Davidson diagonalization with overlap
     ethr =  1.73E-08,  avg # of iterations =  1.0

     total cpu time spent up to now is    11897.6 secs

     total energy              =  -14694.01123591 Ry
     Harris-Foulkes estimate   =  -14694.01123425 Ry
     estimated scf accuracy    <       0.00009020 Ry

     total magnetization       =    34.27 Bohr mag/cell
     absolute magnetization    =    36.85 Bohr mag/cell

     iteration # 24     ecut=    45.00 Ry     beta= 0.10
     Davidson diagonalization with overlap
     ethr =  1.73E-08,  avg # of iterations =  1.0

     total cpu time spent up to now is    12303.6 secs

     total energy              =  -14694.01123667 Ry
     Harris-Foulkes estimate   =  -14694.01123553 Ry
     estimated scf accuracy    <       0.00001440 Ry

     total magnetization       =    34.26 Bohr mag/cell
     absolute magnetization    =    36.85 Bohr mag/cell

     iteration # 25     ecut=    45.00 Ry     beta= 0.10
     Davidson diagonalization with overlap
     ethr =  4.87E-09,  avg # of iterations =  1.1

     total cpu time spent up to now is    12719.4 secs

     total energy              =  -14694.01123680 Ry
     Harris-Foulkes estimate   =  -14694.01123669 Ry
     estimated scf accuracy    <       0.00013175 Ry

     total magnetization       =    34.26 Bohr mag/cell
     absolute magnetization    =    36.85 Bohr mag/cell

     iteration # 26     ecut=    45.00 Ry     beta= 0.10
     Davidson diagonalization with overlap
     ethr =  4.87E-09,  avg # of iterations =  1.1

     total cpu time spent up to now is    13141.1 secs

     total energy              =  -14694.01123731 Ry
     Harris-Foulkes estimate   =  -14694.01123753 Ry
     estimated scf accuracy    <       0.00021414 Ry

     total magnetization       =    34.26 Bohr mag/cell
     absolute magnetization    =    36.85 Bohr mag/cell

     iteration # 27     ecut=    45.00 Ry     beta= 0.10
     Davidson diagonalization with overlap
     ethr =  4.87E-09,  avg # of iterations =  1.0

     total cpu time spent up to now is    13570.1 secs

     total energy              =  -14694.01123801 Ry
     Harris-Foulkes estimate   =  -14694.01123763 Ry
     estimated scf accuracy    <       0.00013292 Ry

     total magnetization       =    34.26 Bohr mag/cell
     absolute magnetization    =    36.85 Bohr mag/cell

     iteration # 28     ecut=    45.00 Ry     beta= 0.10
     Davidson diagonalization with overlap
     ethr =  4.87E-09,  avg # of iterations =  1.0

     total cpu time spent up to now is    14019.1 secs

     total energy              =  -14694.01123884 Ry
     Harris-Foulkes estimate   =  -14694.01123835 Ry
     estimated scf accuracy    <       0.00007357 Ry

     total magnetization       =    34.26 Bohr mag/cell
     absolute magnetization    =    36.85 Bohr mag/cell

     iteration # 29     ecut=    45.00 Ry     beta= 0.10
     Davidson diagonalization with overlap
     ethr =  4.87E-09,  avg # of iterations =  1.0

     total cpu time spent up to now is    14539.5 secs

     total energy              =  -14694.01123931 Ry
     Harris-Foulkes estimate   =  -14694.01123891 Ry
     estimated scf accuracy    <       0.00001039 Ry

     total magnetization       =    34.26 Bohr mag/cell
     absolute magnetization    =    36.85 Bohr mag/cell

     iteration # 30     ecut=    45.00 Ry     beta= 0.10
     Davidson diagonalization with overlap
     ethr =  3.51E-09,  avg # of iterations =  1.0

     total cpu time spent up to now is    15007.5 secs

     total energy              =  -14694.01123952 Ry
     Harris-Foulkes estimate   =  -14694.01123940 Ry
     estimated scf accuracy    <       0.00007706 Ry

     total magnetization       =    34.26 Bohr mag/cell
     absolute magnetization    =    36.85 Bohr mag/cell

     iteration # 31     ecut=    45.00 Ry     beta= 0.10
     Davidson diagonalization with overlap
     ethr =  3.51E-09,  avg # of iterations =  1.0

     total cpu time spent up to now is    15421.0 secs

     total energy              =  -14694.01124010 Ry
     Harris-Foulkes estimate   =  -14694.01123983 Ry
     estimated scf accuracy    <       0.00000445 Ry

     total magnetization       =    34.26 Bohr mag/cell
     absolute magnetization    =    36.85 Bohr mag/cell

     iteration # 32     ecut=    45.00 Ry     beta= 0.10
     Davidson diagonalization with overlap
     ethr =  1.50E-09,  avg # of iterations =  1.0

     total cpu time spent up to now is    15828.4 secs

     total energy              =  -14694.01124055 Ry
     Harris-Foulkes estimate   =  -14694.01124028 Ry
     estimated scf accuracy    <       0.00000495 Ry

     total magnetization       =    34.26 Bohr mag/cell
     absolute magnetization    =    36.85 Bohr mag/cell

     iteration # 33     ecut=    45.00 Ry     beta= 0.10
     Davidson diagonalization with overlap
     ethr =  1.50E-09,  avg # of iterations =  1.0

     total cpu time spent up to now is    16241.9 secs

     total energy              =  -14694.01124069 Ry
     Harris-Foulkes estimate   =  -14694.01124049 Ry
     estimated scf accuracy    <       0.00000380 Ry

     total magnetization       =    34.26 Bohr mag/cell
     absolute magnetization    =    36.85 Bohr mag/cell

     iteration # 34     ecut=    45.00 Ry     beta= 0.10
     Davidson diagonalization with overlap
     ethr =  1.28E-09,  avg # of iterations =  1.0

     total cpu time spent up to now is    16654.6 secs

     total energy              =  -14694.01124102 Ry
     Harris-Foulkes estimate   =  -14694.01124081 Ry
     estimated scf accuracy    <       0.00000869 Ry

     total magnetization       =    34.26 Bohr mag/cell
     absolute magnetization    =    36.86 Bohr mag/cell

     iteration # 35     ecut=    45.00 Ry     beta= 0.10
     Davidson diagonalization with overlap
     ethr =  1.28E-09,  avg # of iterations =  1.0

     total cpu time spent up to now is    17064.2 secs

     total energy              =  -14694.01124097 Ry
     Harris-Foulkes estimate   =  -14694.01124087 Ry
     estimated scf accuracy    <       0.00004127 Ry

     total magnetization       =    34.26 Bohr mag/cell
     absolute magnetization    =    36.86 Bohr mag/cell

     iteration # 36     ecut=    45.00 Ry     beta= 0.10
     Davidson diagonalization with overlap
     ethr =  1.28E-09,  avg # of iterations =  1.0

     total cpu time spent up to now is    17477.9 secs

     total energy              =  -14694.01124124 Ry
     Harris-Foulkes estimate   =  -14694.01124107 Ry
     estimated scf accuracy    <       0.00000466 Ry

     total magnetization       =    34.26 Bohr mag/cell
     absolute magnetization    =    36.86 Bohr mag/cell

     iteration # 37     ecut=    45.00 Ry     beta= 0.10
     Davidson diagonalization with overlap
     ethr =  1.28E-09,  avg # of iterations =  1.0

     total cpu time spent up to now is    17891.6 secs

     total energy              =  -14694.01124133 Ry
     Harris-Foulkes estimate   =  -14694.01124119 Ry
     estimated scf accuracy    <       0.00000998 Ry

     total magnetization       =    34.26 Bohr mag/cell
     absolute magnetization    =    36.86 Bohr mag/cell

     iteration # 38     ecut=    45.00 Ry     beta= 0.10
     Davidson diagonalization with overlap
     ethr =  1.28E-09,  avg # of iterations =  1.0

     total cpu time spent up to now is    18305.4 secs

     total energy              =  -14694.01124138 Ry
     Harris-Foulkes estimate   =  -14694.01124129 Ry
     estimated scf accuracy    <       0.00001060 Ry

     total magnetization       =    34.26 Bohr mag/cell
     absolute magnetization    =    36.86 Bohr mag/cell

     iteration # 39     ecut=    45.00 Ry     beta= 0.10
     Davidson diagonalization with overlap
     ethr =  1.28E-09,  avg # of iterations =  1.0

     total cpu time spent up to now is    18720.1 secs

     total energy              =  -14694.01124157 Ry
     Harris-Foulkes estimate   =  -14694.01124146 Ry
     estimated scf accuracy    <       0.00000546 Ry

     total magnetization       =    34.26 Bohr mag/cell
     absolute magnetization    =    36.86 Bohr mag/cell

     iteration # 40     ecut=    45.00 Ry     beta= 0.10
     Davidson diagonalization with overlap
     ethr =  1.28E-09,  avg # of iterations =  1.0

     total cpu time spent up to now is    19135.2 secs

     total energy              =  -14694.01124168 Ry
     Harris-Foulkes estimate   =  -14694.01124159 Ry
     estimated scf accuracy    <       0.00000567 Ry

     total magnetization       =    34.26 Bohr mag/cell
     absolute magnetization    =    36.86 Bohr mag/cell

     iteration # 41     ecut=    45.00 Ry     beta= 0.10
     Davidson diagonalization with overlap
     ethr =  1.28E-09,  avg # of iterations =  1.0

     total cpu time spent up to now is    19549.7 secs

     total energy              =  -14694.01124164 Ry
     Harris-Foulkes estimate   =  -14694.01124156 Ry
     estimated scf accuracy    <       0.00002592 Ry

     total magnetization       =    34.26 Bohr mag/cell
     absolute magnetization    =    36.86 Bohr mag/cell

     iteration # 42     ecut=    45.00 Ry     beta= 0.10
     Davidson diagonalization with overlap
     ethr =  1.28E-09,  avg # of iterations =  1.0

     total cpu time spent up to now is    19968.7 secs

     total energy              =  -14694.01124175 Ry
     Harris-Foulkes estimate   =  -14694.01124169 Ry
     estimated scf accuracy    <       0.00002648 Ry

     total magnetization       =    34.26 Bohr mag/cell
     absolute magnetization    =    36.86 Bohr mag/cell

     iteration # 43     ecut=    45.00 Ry     beta= 0.10
     Davidson diagonalization with overlap
     ethr =  1.28E-09,  avg # of iterations =  1.0

     total cpu time spent up to now is    20429.0 secs

     total energy              =  -14694.01124184 Ry
     Harris-Foulkes estimate   =  -14694.01124179 Ry
     estimated scf accuracy    <       0.00001091 Ry

     total magnetization       =    34.26 Bohr mag/cell
     absolute magnetization    =    36.86 Bohr mag/cell

     iteration # 44     ecut=    45.00 Ry     beta= 0.10
     Davidson diagonalization with overlap
     ethr =  1.28E-09,  avg # of iterations =  1.0

     total cpu time spent up to now is    20853.9 secs

     total energy              =  -14694.01124189 Ry
     Harris-Foulkes estimate   =  -14694.01124184 Ry
     estimated scf accuracy    <       0.00000993 Ry

     total magnetization       =    34.26 Bohr mag/cell
     absolute magnetization    =    36.86 Bohr mag/cell

     iteration # 45     ecut=    45.00 Ry     beta= 0.10
     Davidson diagonalization with overlap
     ethr =  1.28E-09,  avg # of iterations =  1.0

     total cpu time spent up to now is    21266.6 secs

     total energy              =  -14694.01124176 Ry
     Harris-Foulkes estimate   =  -14694.01124189 Ry
     estimated scf accuracy    <       0.00000504 Ry

     total magnetization       =    34.26 Bohr mag/cell
     absolute magnetization    =    36.86 Bohr mag/cell

     iteration # 46     ecut=    45.00 Ry     beta= 0.10
     Davidson diagonalization with overlap
     ethr =  1.28E-09,  avg # of iterations =  1.0

     total cpu time spent up to now is    21674.0 secs

     total energy              =  -14694.01124201 Ry
     Harris-Foulkes estimate   =  -14694.01124199 Ry
     estimated scf accuracy    <       0.00002633 Ry

     total magnetization       =    34.26 Bohr mag/cell
     absolute magnetization    =    36.86 Bohr mag/cell

     iteration # 47     ecut=    45.00 Ry     beta= 0.10
     Davidson diagonalization with overlap
     ethr =  1.28E-09,  avg # of iterations =  1.0

     total cpu time spent up to now is    22089.6 secs

     total energy              =  -14694.01124194 Ry
     Harris-Foulkes estimate   =  -14694.01124188 Ry
     estimated scf accuracy    <       0.00000942 Ry

     total magnetization       =    34.26 Bohr mag/cell
     absolute magnetization    =    36.86 Bohr mag/cell

     iteration # 48     ecut=    45.00 Ry     beta= 0.10
     Davidson diagonalization with overlap
     ethr =  1.28E-09,  avg # of iterations =  1.0

     total cpu time spent up to now is    22502.7 secs

     total energy              =  -14694.01124168 Ry
     Harris-Foulkes estimate   =  -14694.01124190 Ry
     estimated scf accuracy    <       0.00000933 Ry

     total magnetization       =    34.26 Bohr mag/cell
     absolute magnetization    =    36.86 Bohr mag/cell

     iteration # 49     ecut=    45.00 Ry     beta= 0.10
     Davidson diagonalization with overlap
     ethr =  1.28E-09,  avg # of iterations =  1.0

     total cpu time spent up to now is    22909.8 secs

     total energy              =  -14694.01124208 Ry
     Harris-Foulkes estimate   =  -14694.01124216 Ry
     estimated scf accuracy    <       0.00002783 Ry

     total magnetization       =    34.26 Bohr mag/cell
     absolute magnetization    =    36.86 Bohr mag/cell

     iteration # 50     ecut=    45.00 Ry     beta= 0.10
     Davidson diagonalization with overlap
     ethr =  1.28E-09,  avg # of iterations =  1.0

     total cpu time spent up to now is    23324.0 secs

     total energy              =  -14694.01124221 Ry
     Harris-Foulkes estimate   =  -14694.01124221 Ry
     estimated scf accuracy    <       0.00001036 Ry

     total magnetization       =    34.26 Bohr mag/cell
     absolute magnetization    =    36.86 Bohr mag/cell

     iteration # 51     ecut=    45.00 Ry     beta= 0.10
     Davidson diagonalization with overlap
     ethr =  1.28E-09,  avg # of iterations =  1.0

     total cpu time spent up to now is    23789.7 secs

     total energy              =  -14694.01124220 Ry
     Harris-Foulkes estimate   =  -14694.01124222 Ry
     estimated scf accuracy    <       0.00002618 Ry

     total magnetization       =    34.26 Bohr mag/cell
     absolute magnetization    =    36.86 Bohr mag/cell

     iteration # 52     ecut=    45.00 Ry     beta= 0.10
     Davidson diagonalization with overlap
     ethr =  1.28E-09,  avg # of iterations =  1.0

     total cpu time spent up to now is    24298.3 secs

     total energy              =  -14694.01124232 Ry
     Harris-Foulkes estimate   =  -14694.01124223 Ry
     estimated scf accuracy    <       0.00002930 Ry

     total magnetization       =    34.26 Bohr mag/cell
     absolute magnetization    =    36.86 Bohr mag/cell

     iteration # 53     ecut=    45.00 Ry     beta= 0.10
     Davidson diagonalization with overlap
     ethr =  1.28E-09,  avg # of iterations =  1.0

     total cpu time spent up to now is    24735.2 secs

     total energy              =  -14694.01124225 Ry
     Harris-Foulkes estimate   =  -14694.01124220 Ry
     estimated scf accuracy    <       0.00000864 Ry

     total magnetization       =    34.26 Bohr mag/cell
     absolute magnetization    =    36.86 Bohr mag/cell

     iteration # 54     ecut=    45.00 Ry     beta= 0.10
     Davidson diagonalization with overlap
     ethr =  1.28E-09,  avg # of iterations =  1.0

     total cpu time spent up to now is    25238.3 secs

     total energy              =  -14694.01124227 Ry
     Harris-Foulkes estimate   =  -14694.01124213 Ry
     estimated scf accuracy    <       0.00002184 Ry

     total magnetization       =    34.26 Bohr mag/cell
     absolute magnetization    =    36.86 Bohr mag/cell

     iteration # 55     ecut=    45.00 Ry     beta= 0.10
     Davidson diagonalization with overlap
     ethr =  1.28E-09,  avg # of iterations =  1.0

     total cpu time spent up to now is    25648.5 secs

     total energy              =  -14694.01124207 Ry
     Harris-Foulkes estimate   =  -14694.01124203 Ry
     estimated scf accuracy    <       0.00000111 Ry

     total magnetization       =    34.26 Bohr mag/cell
     absolute magnetization    =    36.86 Bohr mag/cell

     iteration # 56     ecut=    45.00 Ry     beta= 0.10
     Davidson diagonalization with overlap
     ethr =  3.75E-10,  avg # of iterations =  1.0

     total cpu time spent up to now is    26053.4 secs

     total energy              =  -14694.01124190 Ry
     Harris-Foulkes estimate   =  -14694.01124189 Ry
     estimated scf accuracy    <       0.00000326 Ry

     total magnetization       =    34.26 Bohr mag/cell
     absolute magnetization    =    36.86 Bohr mag/cell

     iteration # 57     ecut=    45.00 Ry     beta= 0.10
     Davidson diagonalization with overlap
     ethr =  3.75E-10,  avg # of iterations =  1.0

     total cpu time spent up to now is    26466.3 secs

     total energy              =  -14694.01124197 Ry
     Harris-Foulkes estimate   =  -14694.01124191 Ry
     estimated scf accuracy    <       0.00000347 Ry

     total magnetization       =    34.26 Bohr mag/cell
     absolute magnetization    =    36.86 Bohr mag/cell

     iteration # 58     ecut=    45.00 Ry     beta= 0.10
     Davidson diagonalization with overlap
     ethr =  3.75E-10,  avg # of iterations =  1.0

     total cpu time spent up to now is    26873.7 secs

     total energy              =  -14694.01124184 Ry
     Harris-Foulkes estimate   =  -14694.01124193 Ry
     estimated scf accuracy    <       0.00000448 Ry

     total magnetization       =    34.26 Bohr mag/cell
     absolute magnetization    =    36.86 Bohr mag/cell

     iteration # 59     ecut=    45.00 Ry     beta= 0.10
     Davidson diagonalization with overlap
     ethr =  3.75E-10,  avg # of iterations =  1.0

     total cpu time spent up to now is    27280.3 secs

     total energy              =  -14694.01124197 Ry
     Harris-Foulkes estimate   =  -14694.01124198 Ry
     estimated scf accuracy    <       0.00001396 Ry

     total magnetization       =    34.26 Bohr mag/cell
     absolute magnetization    =    36.86 Bohr mag/cell

     iteration # 60     ecut=    45.00 Ry     beta= 0.10
     Davidson diagonalization with overlap
     ethr =  3.75E-10,  avg # of iterations =  1.0

     total cpu time spent up to now is    27705.1 secs

     total energy              =  -14694.01124164 Ry
     Harris-Foulkes estimate   =  -14694.01124187 Ry
     estimated scf accuracy    <       0.00000318 Ry

     total magnetization       =    34.26 Bohr mag/cell
     absolute magnetization    =    36.86 Bohr mag/cell

     iteration # 61     ecut=    45.00 Ry     beta= 0.10
     Davidson diagonalization with overlap
     ethr =  3.75E-10,  avg # of iterations =  1.5

     total cpu time spent up to now is    28139.3 secs

     total energy              =  -14694.01124205 Ry
     Harris-Foulkes estimate   =  -14694.01124196 Ry
     estimated scf accuracy    <       0.00002054 Ry

     total magnetization       =    34.26 Bohr mag/cell
     absolute magnetization    =    36.86 Bohr mag/cell

     iteration # 62     ecut=    45.00 Ry     beta= 0.10
     Davidson diagonalization with overlap
     ethr =  3.75E-10,  avg # of iterations =  1.0

     total cpu time spent up to now is    28545.1 secs

     total energy              =  -14694.01124184 Ry
     Harris-Foulkes estimate   =  -14694.01124182 Ry
     estimated scf accuracy    <       0.00001526 Ry

     total magnetization       =    34.26 Bohr mag/cell
     absolute magnetization    =    36.86 Bohr mag/cell

     iteration # 63     ecut=    45.00 Ry     beta= 0.10
     Davidson diagonalization with overlap
     ethr =  3.75E-10,  avg # of iterations =  1.0

     total cpu time spent up to now is    28955.5 secs

     total energy              =  -14694.01124145 Ry
     Harris-Foulkes estimate   =  -14694.01124151 Ry
     estimated scf accuracy    <       0.00000807 Ry

     total magnetization       =    34.26 Bohr mag/cell
     absolute magnetization    =    36.86 Bohr mag/cell

     iteration # 64     ecut=    45.00 Ry     beta= 0.10
     Davidson diagonalization with overlap
     ethr =  3.75E-10,  avg # of iterations =  1.0

     total cpu time spent up to now is    29357.8 secs

     total energy              =  -14694.01124147 Ry
     Harris-Foulkes estimate   =  -14694.01124144 Ry
     estimated scf accuracy    <       0.00000556 Ry

     total magnetization       =    34.26 Bohr mag/cell
     absolute magnetization    =    36.86 Bohr mag/cell

     iteration # 65     ecut=    45.00 Ry     beta= 0.10
     Davidson diagonalization with overlap
     ethr =  3.75E-10,  avg # of iterations =  1.0

     total cpu time spent up to now is    29761.5 secs

     total energy              =  -14694.01124119 Ry
     Harris-Foulkes estimate   =  -14694.01124136 Ry
     estimated scf accuracy    <       0.00000571 Ry

     total magnetization       =    34.26 Bohr mag/cell
     absolute magnetization    =    36.86 Bohr mag/cell

     iteration # 66     ecut=    45.00 Ry     beta= 0.10
     Davidson diagonalization with overlap
     ethr =  3.75E-10,  avg # of iterations =  1.0

     total cpu time spent up to now is    30165.6 secs

     total energy              =  -14694.01124121 Ry
     Harris-Foulkes estimate   =  -14694.01124120 Ry
     estimated scf accuracy    <       0.00000132 Ry

     total magnetization       =    34.26 Bohr mag/cell
     absolute magnetization    =    36.86 Bohr mag/cell

     iteration # 67     ecut=    45.00 Ry     beta= 0.10
     Davidson diagonalization with overlap
     ethr =  3.75E-10,  avg # of iterations =  1.0

     total cpu time spent up to now is    30566.2 secs

     total energy              =  -14694.01124129 Ry
     Harris-Foulkes estimate   =  -14694.01124130 Ry
     estimated scf accuracy    <       0.00000167 Ry

     total magnetization       =    34.26 Bohr mag/cell
     absolute magnetization    =    36.86 Bohr mag/cell

     iteration # 68     ecut=    45.00 Ry     beta= 0.10
     Davidson diagonalization with overlap
     ethr =  3.75E-10,  avg # of iterations =  1.0

     total cpu time spent up to now is    30969.5 secs

     total energy              =  -14694.01124128 Ry
     Harris-Foulkes estimate   =  -14694.01124127 Ry
     estimated scf accuracy    <       0.00000129 Ry

     total magnetization       =    34.26 Bohr mag/cell
     absolute magnetization    =    36.86 Bohr mag/cell

     iteration # 69     ecut=    45.00 Ry     beta= 0.10
     Davidson diagonalization with overlap
     ethr =  3.75E-10,  avg # of iterations =  1.0
 
     Magnetic moment per site:
     atom:    1    charge:   13.5539    magn:    4.1927    constr:    0.0000
     atom:    2    charge:   13.5540    magn:    4.1924    constr:    0.0000
     atom:    3    charge:   13.5542    magn:    4.1913    constr:    0.0000
     atom:    4    charge:   13.5545    magn:    4.1902    constr:    0.0000
     atom:    5    charge:   13.5545    magn:    4.1900    constr:    0.0000
     atom:    6    charge:   13.5545    magn:    4.1902    constr:    0.0000
     atom:    7    charge:   13.5542    magn:    4.1913    constr:    0.0000
     atom:    8    charge:   13.5540    magn:    4.1924    constr:    0.0000
     atom:    9    charge:    9.1203    magn:    0.0258    constr:    0.0000
     atom:   10    charge:    9.1205    magn:    0.0257    constr:    0.0000
     atom:   11    charge:    9.1204    magn:    0.0255    constr:    0.0000
     atom:   12    charge:    9.1203    magn:    0.0253    constr:    0.0000
     atom:   13    charge:    9.1203    magn:    0.0252    constr:    0.0000
     atom:   14    charge:    9.1203    magn:    0.0253    constr:    0.0000
     atom:   15    charge:    9.1203    magn:    0.0253    constr:    0.0000
     atom:   16    charge:    9.1202    magn:    0.0251    constr:    0.0000
     atom:   17    charge:    9.1202    magn:    0.0251    constr:    0.0000
     atom:   18    charge:    9.1203    magn:    0.0253    constr:    0.0000
     atom:   19    charge:    9.1203    magn:    0.0253    constr:    0.0000
     atom:   20    charge:    9.1203    magn:    0.0252    constr:    0.0000
     atom:   21    charge:    9.1203    magn:    0.0253    constr:    0.0000
     atom:   22    charge:    9.1204    magn:    0.0255    constr:    0.0000
     atom:   23    charge:    9.1205    magn:    0.0257    constr:    0.0000
     atom:   24    charge:    9.1203    magn:    0.0258    constr:    0.0000

     total cpu time spent up to now is    31368.2 secs

     End of self-consistent calculation
 --- enter write_ns ---
 LDA+U parameters:
U(  1) =   3.1200   J(  1) =   0.7000   B(  1) =   0.0803
atom    1   Tr[ns(na)] (up, down, total) =   4.96835  0.76954  5.73789
   spin  1
    eigenvalues: 
  0.984  0.993  0.993  0.996  1.002
    eigenvectors:
  0.000  0.000  0.000  1.000  0.000
  0.000  0.370  0.630  0.000  0.000
  0.000  0.630  0.370  0.000  0.000
  0.000  0.000  0.000  0.000  1.000
  1.000  0.000  0.000  0.000  0.000
    occupations:
  0.996 -0.000 -0.000  0.000  0.000
 -0.000  0.993 -0.000  0.000  0.000
 -0.000 -0.000  0.993  0.000  0.000
  0.000  0.000  0.000  1.002 -0.000
  0.000  0.000  0.000 -0.000  0.984
   spin  2
    eigenvalues: 
  0.064  0.141  0.149  0.149  0.267
    eigenvectors:
  0.000  1.000  0.000  0.000  0.000
  0.000  0.000  0.314  0.686  0.000
  0.000  0.000  0.686  0.314  0.000
  1.000  0.000  0.000  0.000  0.000
  0.000  0.000  0.000  0.000  1.000
    occupations:
  0.141 -0.000 -0.000  0.000  0.000
 -0.000  0.149 -0.000  0.000  0.000
 -0.000 -0.000  0.149  0.000  0.000
  0.000  0.000  0.000  0.064 -0.000
  0.000  0.000  0.000 -0.000  0.267
atomic mag. moment =     4.198804
atom    2   Tr[ns(na)] (up, down, total) =   4.96827  0.76972  5.73800
   spin  1
    eigenvalues: 
  0.984  0.993  0.993  0.997  1.002
    eigenvectors:
  0.000  0.000  0.000  1.000  0.000
  0.000  0.335  0.665  0.000  0.000
  0.000  0.665  0.335  0.000  0.000
  0.000  0.000  0.000  0.000  1.000
  1.000  0.000  0.000  0.000  0.000
    occupations:
  0.997 -0.000 -0.000  0.000  0.000
 -0.000  0.993 -0.000  0.000  0.000
 -0.000 -0.000  0.993  0.000  0.000
  0.000  0.000  0.000  1.002 -0.000
  0.000  0.000  0.000 -0.000  0.984
   spin  2
    eigenvalues: 
  0.064  0.142  0.148  0.148  0.267
    eigenvectors:
  0.000  1.000  0.000  0.000  0.000
  0.000  0.000  0.310  0.690  0.000
  0.000  0.000  0.690  0.310  0.000
  1.000  0.000  0.000  0.000  0.000
  0.000  0.000  0.000  0.000  1.000
    occupations:
  0.142 -0.000 -0.000  0.000  0.000
 -0.000  0.148 -0.000  0.000  0.000
 -0.000 -0.000  0.148  0.000  0.000
  0.000  0.000  0.000  0.064 -0.000
  0.000  0.000  0.000 -0.000  0.267
atomic mag. moment =     4.198552
atom    3   Tr[ns(na)] (up, down, total) =   4.96818  0.77069  5.73888
   spin  1
    eigenvalues: 
  0.984  0.993  0.993  0.996  1.002
    eigenvectors:
  0.000  0.000  0.000  1.000  0.000
  0.000  0.366  0.634  0.000  0.000
  0.000  0.634  0.366  0.000  0.000
  0.000  0.000  0.000  0.000  1.000
  1.000  0.000  0.000  0.000  0.000
    occupations:
  0.996 -0.000 -0.000  0.000  0.000
 -0.000  0.993 -0.000  0.000  0.000
 -0.000 -0.000  0.993  0.000  0.000
  0.000  0.000  0.000  1.002 -0.000
  0.000  0.000  0.000 -0.000  0.984
   spin  2
    eigenvalues: 
  0.064  0.142  0.148  0.148  0.268
    eigenvectors:
  0.000  1.000  0.000  0.000  0.000
  0.000  0.000  0.448  0.552  0.000
  0.000  0.000  0.552  0.448  0.000
  1.000  0.000  0.000  0.000  0.000
  0.000  0.000  0.000  0.000  1.000
    occupations:
  0.142 -0.000 -0.000  0.000  0.000
 -0.000  0.148 -0.000  0.000  0.000
 -0.000 -0.000  0.148  0.000  0.000
  0.000  0.000  0.000  0.064 -0.000
  0.000  0.000  0.000 -0.000  0.268
atomic mag. moment =     4.197489
atom    4   Tr[ns(na)] (up, down, total) =   4.96804  0.77165  5.73969
   spin  1
    eigenvalues: 
  0.984  0.993  0.993  0.996  1.002
    eigenvectors:
  0.000  0.000  0.000  1.000  0.000
  0.000  0.315  0.685  0.000  0.000
  0.000  0.685  0.315  0.000  0.000
  0.000  0.000  0.000  0.000  1.000
  1.000  0.000  0.000  0.000  0.000
    occupations:
  0.996 -0.000 -0.000  0.000  0.000
 -0.000  0.993 -0.000  0.000  0.000
 -0.000 -0.000  0.993  0.000  0.000
  0.000  0.000  0.000  1.002 -0.000
  0.000  0.000  0.000 -0.000  0.984
   spin  2
    eigenvalues: 
  0.064  0.143  0.148  0.148  0.268
    eigenvectors:
  0.000  1.000  0.000  0.000  0.000
  0.000  0.000  0.307  0.693  0.000
  0.000  0.000  0.693  0.307  0.000
  1.000  0.000  0.000  0.000  0.000
  0.000  0.000  0.000  0.000  1.000
    occupations:
  0.143 -0.000 -0.000  0.000  0.000
 -0.000  0.148 -0.000  0.000  0.000
 -0.000 -0.000  0.148  0.000  0.000
  0.000  0.000  0.000  0.064 -0.000
  0.000  0.000  0.000 -0.000  0.268
atomic mag. moment =     4.196396
atom    5   Tr[ns(na)] (up, down, total) =   4.96808  0.77184  5.73992
   spin  1
    eigenvalues: 
  0.984  0.993  0.993  0.996  1.002
    eigenvectors:
  0.000  0.000  0.000  1.000  0.000
  0.000  0.272  0.728  0.000  0.000
  0.000  0.728  0.272  0.000  0.000
  0.000  0.000  0.000  0.000  1.000
  1.000  0.000  0.000  0.000  0.000
    occupations:
  0.996 -0.000 -0.000  0.000  0.000
 -0.000  0.993 -0.000  0.000  0.000
 -0.000 -0.000  0.993  0.000  0.000
  0.000  0.000  0.000  1.002 -0.000
  0.000  0.000  0.000 -0.000  0.984
   spin  2
    eigenvalues: 
  0.064  0.143  0.148  0.148  0.268
    eigenvectors:
  0.000  1.000  0.000  0.000  0.000
  0.000  0.000  0.349  0.651  0.000
  0.000  0.000  0.651  0.349  0.000
  1.000  0.000  0.000  0.000  0.000
  0.000  0.000  0.000  0.000  1.000
    occupations:
  0.143 -0.000 -0.000  0.000  0.000
 -0.000  0.148 -0.000  0.000  0.000
 -0.000 -0.000  0.148  0.000  0.000
  0.000  0.000  0.000  0.064 -0.000
  0.000  0.000  0.000 -0.000  0.268
atomic mag. moment =     4.196240
atom    6   Tr[ns(na)] (up, down, total) =   4.96804  0.77165  5.73969
   spin  1
    eigenvalues: 
  0.984  0.993  0.993  0.996  1.002
    eigenvectors:
  0.000  0.000  0.000  1.000  0.000
  0.000  0.315  0.685  0.000  0.000
  0.000  0.685  0.315  0.000  0.000
  0.000  0.000  0.000  0.000  1.000
  1.000  0.000  0.000  0.000  0.000
    occupations:
  0.996 -0.000 -0.000  0.000  0.000
 -0.000  0.993 -0.000  0.000  0.000
 -0.000 -0.000  0.993  0.000  0.000
  0.000  0.000  0.000  1.002 -0.000
  0.000  0.000  0.000 -0.000  0.984
   spin  2
    eigenvalues: 
  0.064  0.143  0.148  0.148  0.268
    eigenvectors:
  0.000  1.000  0.000  0.000  0.000
  0.000  0.000  0.310  0.690  0.000
  0.000  0.000  0.690  0.310  0.000
  1.000  0.000  0.000  0.000  0.000
  0.000  0.000  0.000  0.000  1.000
    occupations:
  0.143 -0.000 -0.000  0.000  0.000
 -0.000  0.148 -0.000  0.000  0.000
 -0.000 -0.000  0.148  0.000  0.000
  0.000  0.000  0.000  0.064 -0.000
  0.000  0.000  0.000 -0.000  0.268
atomic mag. moment =     4.196396
atom    7   Tr[ns(na)] (up, down, total) =   4.96818  0.77069  5.73888
   spin  1
    eigenvalues: 
  0.984  0.993  0.993  0.996  1.002
    eigenvectors:
  0.000  0.000  0.000  1.000  0.000
  0.000  0.313  0.687  0.000  0.000
  0.000  0.687  0.313  0.000  0.000
  0.000  0.000  0.000  0.000  1.000
  1.000  0.000  0.000  0.000  0.000
    occupations:
  0.996 -0.000 -0.000  0.000  0.000
 -0.000  0.993 -0.000  0.000  0.000
 -0.000 -0.000  0.993  0.000  0.000
  0.000  0.000  0.000  1.002 -0.000
  0.000  0.000  0.000 -0.000  0.984
   spin  2
    eigenvalues: 
  0.064  0.142  0.148  0.148  0.268
    eigenvectors:
  0.000  1.000  0.000  0.000  0.000
  0.000  0.000  0.372  0.628  0.000
  0.000  0.000  0.628  0.372  0.000
  1.000  0.000  0.000  0.000  0.000
  0.000  0.000  0.000  0.000  1.000
    occupations:
  0.142 -0.000 -0.000  0.000  0.000
 -0.000  0.148 -0.000  0.000  0.000
 -0.000 -0.000  0.148  0.000  0.000
  0.000  0.000  0.000  0.064 -0.000
  0.000  0.000  0.000 -0.000  0.268
atomic mag. moment =     4.197489
atom    8   Tr[ns(na)] (up, down, total) =   4.96827  0.76972  5.73800
   spin  1
    eigenvalues: 
  0.984  0.993  0.993  0.997  1.002
    eigenvectors:
  0.000  0.000  0.000  1.000  0.000
  0.000  0.330  0.670  0.000  0.000
  0.000  0.670  0.330  0.000  0.000
  0.000  0.000  0.000  0.000  1.000
  1.000  0.000  0.000  0.000  0.000
    occupations:
  0.997 -0.000 -0.000  0.000  0.000
 -0.000  0.993 -0.000  0.000  0.000
 -0.000 -0.000  0.993  0.000  0.000
  0.000  0.000  0.000  1.002 -0.000
  0.000  0.000  0.000 -0.000  0.984
   spin  2
    eigenvalues: 
  0.064  0.142  0.148  0.148  0.267
    eigenvectors:
  0.000  1.000  0.000  0.000  0.000
  0.000  0.000  0.335  0.665  0.000
  0.000  0.000  0.665  0.335  0.000
  1.000  0.000  0.000  0.000  0.000
  0.000  0.000  0.000  0.000  1.000
    occupations:
  0.142 -0.000 -0.000  0.000  0.000
 -0.000  0.148 -0.000  0.000  0.000
 -0.000 -0.000  0.148  0.000  0.000
  0.000  0.000  0.000  0.064 -0.000
  0.000  0.000  0.000 -0.000  0.267
atomic mag. moment =     4.198552
N of occupied +U levels =   45.910937
 --- exit write_ns ---

     Number of k-points >= 100: set verbosity='high' to print the bands.

     the Fermi energy is    15.1721 ev

!    total energy              =  -14694.01124081 Ry
     Harris-Foulkes estimate   =  -14694.01124130 Ry
     estimated scf accuracy    <       0.00000065 Ry

     total all-electron energy =   -626921.606963 Ry

     The total energy is the sum of the following terms:

     one-electron contribution =    -714.83781799 Ry
     hartree contribution      =     656.79123707 Ry
     xc contribution           =    -737.82989480 Ry
     ewald contribution        =   -2196.78933708 Ry
     Hubbard energy            =       0.46685971 Ry
     one-center paw contrib.   =  -11701.81228772 Ry

     total magnetization       =    34.26 Bohr mag/cell
     absolute magnetization    =    36.86 Bohr mag/cell

     convergence has been achieved in  69 iterations

     Writing output data file mnau2.save/
 
     init_run     :    236.30s CPU    242.48s WALL (       1 calls)
     electrons    :  30420.75s CPU  31118.43s WALL (       1 calls)

     Called by init_run:
     wfcinit      :    232.33s CPU    238.24s WALL (       1 calls)
     potinit      :      2.11s CPU      2.21s WALL (       1 calls)
     hinit0       :      1.00s CPU      1.10s WALL (       1 calls)

     Called by electrons:
     c_bands      :  26528.78s CPU  27105.84s WALL (      69 calls)
     sum_band     :   3784.99s CPU   3902.52s WALL (      69 calls)
     v_of_rho     :      8.19s CPU      8.29s WALL (      70 calls)
     newd         :     20.18s CPU     20.62s WALL (      70 calls)
     PAW_pot      :     76.94s CPU     78.70s WALL (      70 calls)
     mix_rho      :      2.20s CPU      2.44s WALL (      69 calls)

     Called by c_bands:
     init_us_2    :     49.37s CPU     49.84s WALL (   37800 calls)
     cegterg      :  25829.74s CPU  26391.89s WALL (   18630 calls)

     Called by sum_band:
     sum_band:bec :     36.39s CPU     36.57s WALL (   18630 calls)
     addusdens    :     23.62s CPU     24.10s WALL (      69 calls)

     Called by *egterg:
     h_psi        :  13431.33s CPU  13796.79s WALL (   43193 calls)
     s_psi        :   1488.00s CPU   1491.14s WALL (   43463 calls)
     g_psi        :     14.67s CPU     14.85s WALL (   24293 calls)
     cdiaghg      :   5455.15s CPU   5572.74s WALL (   42923 calls)

     Called by h_psi:
     h_psi:pot    :  12183.04s CPU  12523.84s WALL (   43193 calls)
     h_psi:calbec :   2206.28s CPU   2291.29s WALL (   43193 calls)
     vloc_psi     :   8498.28s CPU   8751.18s WALL (   43193 calls)
     add_vuspsi   :   1477.60s CPU   1480.70s WALL (   43193 calls)
     vhpsi        :   1232.03s CPU   1256.36s WALL (   43193 calls)

     General routines
     calbec       :   4397.78s CPU   4551.26s WALL (  123916 calls)
     fft          :      7.31s CPU      7.65s WALL (    1746 calls)
     ffts         :      0.55s CPU      0.60s WALL (     278 calls)
     fftw         :  10294.84s CPU  10601.42s WALL (16991822 calls)
     interpolate  :      0.80s CPU      0.86s WALL (     140 calls)
     davcio       :      0.05s CPU      1.41s WALL (     270 calls)
 
     Parallel routines
     fft_scatt_xy :    380.38s CPU    388.44s WALL (16993846 calls)
     fft_scatt_yz :   8155.17s CPU   8412.26s WALL (16993846 calls)

     Hubbard U routines
     new_ns       :    159.91s CPU    170.55s WALL (      69 calls)
     vhpsi        :   1232.03s CPU   1256.36s WALL (   43193 calls)
 
     PWSCF        :     8h31m CPU       31h 8m WALL

      45h
 
   This run was terminated on:  22:33:41  10Apr2019            

=------------------------------------------------------------------------------=
   JOB DONE.
=------------------------------------------------------------------------------=
