
     Program PWSCF v.6.3MaX starts on 29Mar2019 at 18:17:34 

     This program is part of the open-source Quantum ESPRESSO suite
     for quantum simulation of materials; please cite
         "P. Giannozzi et al., J. Phys.:Condens. Matter 21 395502 (2009);
         "P. Giannozzi et al., J. Phys.:Condens. Matter 29 465901 (2017);
          URL http://www.quantum-espresso.org", 
     in publications or presentations arising from this work. More details at
     http://www.quantum-espresso.org/quote

     Parallel version (MPI), running on    32 processors

     MPI processes distributed on     2 nodes
     R & G space division:  proc/nbgrp/npool/nimage =      32
     Waiting for input...
     Reading input from standard input

     Current dimensions of program PWSCF are:
     Max number of different atomic species (ntypx) = 10
     Max number of k-points (npk) =  40000
     Max angular momentum in pseudopotentials (lmaxx) =  3
     Message from routine read_upf::
     Pseudo file ./pseudo/Mn.pbe-spn-kjpaw_psl.0.3.1.UPF has been successfully fixed on the fly.
To avoid this message in the future you can permanently fix 
 your pseudo files following instructions given in: 
https://gitlab.com/QEF/q-e/blob/master/upftools/how_to_fix_upf.md
               file Mn.pbe-spn-kjpaw_psl.0.3.1.UPF: wavefunction(s)  3P 3D renormalized
     Message from routine read_upf::
     Pseudo file ./pseudo/Mn.pbe-spn-kjpaw_psl.0.3.1.UPF has been successfully fixed on the fly.
To avoid this message in the future you can permanently fix 
 your pseudo files following instructions given in: 
https://gitlab.com/QEF/q-e/blob/master/upftools/how_to_fix_upf.md
               file Mn.pbe-spn-kjpaw_psl.0.3.1.UPF: wavefunction(s)  3P 3D renormalized
     Message from routine read_upf::
     Pseudo file ./pseudo/Au.pbe-dn-kjpaw_psl.0.1.UPF has been successfully fixed on the fly.
To avoid this message in the future you can permanently fix 
 your pseudo files following instructions given in: 
https://gitlab.com/QEF/q-e/blob/master/upftools/how_to_fix_upf.md
               file Au.pbe-dn-kjpaw_psl.0.1.UPF: wavefunction(s)  6S 6P 5D renormalized

     Subspace diagonalization in iterative solution of the eigenvalue problem:
     one sub-group per band group will be used
     scalapack distributed-memory algorithm (size of sub-group:  4*  4 procs)

     Found symmetry operation: I + (  0.0000  0.0000 -0.5000)
     This is a supercell, fractional translations are disabled
 
     Parallelization info
     --------------------
     sticks:   dense  smooth     PW     G-vecs:    dense   smooth      PW
     Min          41      18      5                11647     3506     571
     Max          42      19      6                11691     3549     614
     Sum        1313     593    177               373547   112863   18983
 


     bravais-lattice index     =            0
     lattice parameter (alat)  =       6.4153  a.u.
     unit-cell volume          =    2762.7331 (a.u.)^3
     number of atoms/cell      =           24
     number of atomic types    =            3
     number of electrons       =       296.00
     number of Kohn-Sham states=          178
     kinetic-energy cutoff     =      45.0000  Ry
     charge density cutoff     =     400.0000  Ry
     convergence threshold     =      1.0E-06
     mixing beta               =       0.1000
     number of iterations used =            8  plain     mixing
     Exchange-correlation      = SLA PW PBX PBC ( 1  4  3  4 0 0)

     celldm(1)=   6.415315  celldm(2)=   0.000000  celldm(3)=   0.000000
     celldm(4)=   0.000000  celldm(5)=   0.000000  celldm(6)=   0.000000

     crystal axes: (cart. coord. in units of alat)
               a(1) = (   1.000000   0.000000   0.000000 )  
               a(2) = (   0.000000   1.000000   0.000000 )  
               a(3) = (   0.000000   0.000000  10.463692 )  

     reciprocal axes: (cart. coord. in units 2 pi/alat)
               b(1) = (  1.000000  0.000000  0.000000 )  
               b(2) = (  0.000000  1.000000  0.000000 )  
               b(3) = (  0.000000  0.000000  0.095569 )  


     PseudoPot. # 1 for Mn read from file:
     ./pseudo/Mn.pbe-spn-kjpaw_psl.0.3.1.UPF
     MD5 check sum: 7eef95dd2aae66803482eea66ebeebf1
     Pseudo is Projector augmented-wave + core cor, Zval = 15.0
     Generated using "atomic" code by A. Dal Corso v.5.0.99 svn rev. 10869
     Shape of augmentation charge: PSQ
     Using radial grid of 1187 points,  6 beta functions with: 
                l(1) =   0
                l(2) =   0
                l(3) =   1
                l(4) =   1
                l(5) =   2
                l(6) =   2
     Q(r) pseudized with 0 coefficients 


     PseudoPot. # 2 for Mn read from file:
     ./pseudo/Mn.pbe-spn-kjpaw_psl.0.3.1.UPF
     MD5 check sum: 7eef95dd2aae66803482eea66ebeebf1
     Pseudo is Projector augmented-wave + core cor, Zval = 15.0
     Generated using "atomic" code by A. Dal Corso v.5.0.99 svn rev. 10869
     Shape of augmentation charge: PSQ
     Using radial grid of 1187 points,  6 beta functions with: 
                l(1) =   0
                l(2) =   0
                l(3) =   1
                l(4) =   1
                l(5) =   2
                l(6) =   2
     Q(r) pseudized with 0 coefficients 


     PseudoPot. # 3 for Au read from file:
     ./pseudo/Au.pbe-dn-kjpaw_psl.0.1.UPF
     MD5 check sum: 5c9b92683623e7ae2ab3f8e525febab6
     Pseudo is Projector augmented-wave + core cor, Zval = 11.0
     Generated using "atomic" code by A. Dal Corso v.5.0.2 svn rev. 9415
     Shape of augmentation charge: PSQ
     Using radial grid of 1279 points,  6 beta functions with: 
                l(1) =   0
                l(2) =   0
                l(3) =   1
                l(4) =   1
                l(5) =   2
                l(6) =   2
     Q(r) pseudized with 0 coefficients 


     atomic species   valence    mass     pseudopotential
        Mn1           15.00    54.93800     Mn( 1.00)
        Mn2           15.00    54.93800     Mn( 1.00)
        Au            11.00   196.96600     Au( 1.00)

     Starting magnetic structure 
     atomic species   magnetization
        Mn1          0.800
        Mn2         -0.800
        Au           0.000


     Full LDA+U calculation (l_max = 2) with parameters (eV):
     U(  1) =   3.1200   J(  1) =   0.7000   B(  1) =   0.0803
     U(  2) =   3.1200   J(  2) =   0.7000   B(  2) =   0.0803



      8 Sym. Ops. (no inversion) found



   Cartesian axes

     site n.     atom                  positions (alat units)
         1           Mn1 tau(   1) = (   0.0000000   0.0000000   0.0000000  )
         2           Mn1 tau(   2) = (   0.5000000   0.5000000   1.3079615  )
         3           Mn1 tau(   3) = (   0.0000000   0.0000000   2.6159231  )
         4           Mn2 tau(   4) = (   0.5000000   0.5000000   3.9238846  )
         5           Mn1 tau(   5) = (   0.0000000   0.0000000   5.2318461  )
         6           Mn1 tau(   6) = (   0.5000000   0.5000000   6.5398077  )
         7           Mn1 tau(   7) = (   0.0000000   0.0000000   7.8477692  )
         8           Mn2 tau(   8) = (   0.5000000   0.5000000   9.1557307  )
         9           Au  tau(   9) = (   0.5000000   0.5000000   0.4185477  )
        10           Au  tau(  10) = (   0.0000000   0.0000000   0.8894138  )
        11           Au  tau(  11) = (   0.0000000   0.0000000   1.7265092  )
        12           Au  tau(  12) = (   0.5000000   0.5000000   2.1973754  )
        13           Au  tau(  13) = (   0.5000000   0.5000000   3.0344708  )
        14           Au  tau(  14) = (   0.0000000   0.0000000   3.5053369  )
        15           Au  tau(  15) = (   0.0000000   0.0000000   4.3424323  )
        16           Au  tau(  16) = (   0.5000000   0.5000000   4.8132984  )
        17           Au  tau(  17) = (   0.5000000   0.5000000   5.6503938  )
        18           Au  tau(  18) = (   0.0000000   0.0000000   6.1212600  )
        19           Au  tau(  19) = (   0.0000000   0.0000000   6.9583554  )
        20           Au  tau(  20) = (   0.5000000   0.5000000   7.4292215  )
        21           Au  tau(  21) = (   0.5000000   0.5000000   8.2663169  )
        22           Au  tau(  22) = (   0.0000000   0.0000000   8.7371830  )
        23           Au  tau(  23) = (   0.0000000   0.0000000   9.5742784  )
        24           Au  tau(  24) = (   0.5000000   0.5000000  10.0451446  )

     number of k points=    40 (tetrahedron method)
                       cart. coord. in units 2pi/alat
        k(    1) = (   0.0000000   0.0000000   0.0000000), wk =   0.0046296
        k(    2) = (   0.0000000   0.0000000   0.0159281), wk =   0.0092593
        k(    3) = (   0.0000000   0.0000000   0.0318562), wk =   0.0092593
        k(    4) = (   0.0000000   0.0000000  -0.0477843), wk =   0.0046296
        k(    5) = (   0.0000000   0.1666667   0.0000000), wk =   0.0185185
        k(    6) = (   0.0000000   0.1666667   0.0159281), wk =   0.0370370
        k(    7) = (   0.0000000   0.1666667   0.0318562), wk =   0.0370370
        k(    8) = (   0.0000000   0.1666667  -0.0477843), wk =   0.0185185
        k(    9) = (   0.0000000   0.3333333   0.0000000), wk =   0.0185185
        k(   10) = (   0.0000000   0.3333333   0.0159281), wk =   0.0370370
        k(   11) = (   0.0000000   0.3333333   0.0318562), wk =   0.0370370
        k(   12) = (   0.0000000   0.3333333  -0.0477843), wk =   0.0185185
        k(   13) = (   0.0000000  -0.5000000   0.0000000), wk =   0.0092593
        k(   14) = (   0.0000000  -0.5000000   0.0159281), wk =   0.0185185
        k(   15) = (   0.0000000  -0.5000000   0.0318562), wk =   0.0185185
        k(   16) = (   0.0000000  -0.5000000  -0.0477843), wk =   0.0092593
        k(   17) = (   0.1666667   0.1666667   0.0000000), wk =   0.0185185
        k(   18) = (   0.1666667   0.1666667   0.0159281), wk =   0.0370370
        k(   19) = (   0.1666667   0.1666667   0.0318562), wk =   0.0370370
        k(   20) = (   0.1666667   0.1666667  -0.0477843), wk =   0.0185185
        k(   21) = (   0.1666667   0.3333333   0.0000000), wk =   0.0370370
        k(   22) = (   0.1666667   0.3333333   0.0159281), wk =   0.0740741
        k(   23) = (   0.1666667   0.3333333   0.0318562), wk =   0.0740741
        k(   24) = (   0.1666667   0.3333333  -0.0477843), wk =   0.0370370
        k(   25) = (   0.1666667  -0.5000000   0.0000000), wk =   0.0185185
        k(   26) = (   0.1666667  -0.5000000   0.0159281), wk =   0.0370370
        k(   27) = (   0.1666667  -0.5000000   0.0318562), wk =   0.0370370
        k(   28) = (   0.1666667  -0.5000000  -0.0477843), wk =   0.0185185
        k(   29) = (   0.3333333   0.3333333   0.0000000), wk =   0.0185185
        k(   30) = (   0.3333333   0.3333333   0.0159281), wk =   0.0370370
        k(   31) = (   0.3333333   0.3333333   0.0318562), wk =   0.0370370
        k(   32) = (   0.3333333   0.3333333  -0.0477843), wk =   0.0185185
        k(   33) = (   0.3333333  -0.5000000   0.0000000), wk =   0.0185185
        k(   34) = (   0.3333333  -0.5000000   0.0159281), wk =   0.0370370
        k(   35) = (   0.3333333  -0.5000000   0.0318562), wk =   0.0370370
        k(   36) = (   0.3333333  -0.5000000  -0.0477843), wk =   0.0185185
        k(   37) = (  -0.5000000  -0.5000000   0.0000000), wk =   0.0046296
        k(   38) = (  -0.5000000  -0.5000000   0.0159281), wk =   0.0092593
        k(   39) = (  -0.5000000  -0.5000000   0.0318562), wk =   0.0092593
        k(   40) = (  -0.5000000  -0.5000000  -0.0477843), wk =   0.0046296

     Dense  grid:   373547 G-vectors     FFT dimensions: (  45,  45, 432)

     Smooth grid:   112863 G-vectors     FFT dimensions: (  27,  27, 288)

     Estimated max dynamical RAM per process >     174.65 MB

     Estimated total dynamical RAM >       5.46 GB
     Generating pointlists ...
     new r_m :   0.3389 (alat units)  2.1745 (a.u.) for type    1
     new r_m :   0.3389 (alat units)  2.1745 (a.u.) for type    2
     new r_m :   0.3389 (alat units)  2.1745 (a.u.) for type    3

     Check: negative/imaginary core charge=   -0.000006    0.000000

     Initial potential from superposition of free atoms

     starting charge  295.99426, renormalised to  296.00000
     Number of +U iterations with fixed ns =  0
     Starting occupations:
 --- enter write_ns ---
 LDA+U parameters:
U(  1) =   3.1200   J(  1) =   0.7000   B(  1) =   0.0803
U(  2) =   3.1200   J(  2) =   0.7000   B(  2) =   0.0803
atom    1   Tr[ns(na)] (up, down, total) =   5.00000  0.00000  5.00000
   spin  1
    eigenvalues: 
  1.000  1.000  1.000  1.000  1.000
    eigenvectors:
  1.000  0.000  0.000  0.000  0.000
  0.000  1.000  0.000  0.000  0.000
  0.000  0.000  1.000  0.000  0.000
  0.000  0.000  0.000  1.000  0.000
  0.000  0.000  0.000  0.000  1.000
    occupations:
  1.000  0.000  0.000  0.000  0.000
  0.000  1.000  0.000  0.000  0.000
  0.000  0.000  1.000  0.000  0.000
  0.000  0.000  0.000  1.000  0.000
  0.000  0.000  0.000  0.000  1.000
   spin  2
    eigenvalues: 
  0.000  0.000  0.000  0.000  0.000
    eigenvectors:
  1.000  0.000  0.000  0.000  0.000
  0.000  1.000  0.000  0.000  0.000
  0.000  0.000  1.000  0.000  0.000
  0.000  0.000  0.000  1.000  0.000
  0.000  0.000  0.000  0.000  1.000
    occupations:
  0.000  0.000  0.000  0.000  0.000
  0.000  0.000  0.000  0.000  0.000
  0.000  0.000  0.000  0.000  0.000
  0.000  0.000  0.000  0.000  0.000
  0.000  0.000  0.000  0.000  0.000
atomic mag. moment =     5.000000
atom    2   Tr[ns(na)] (up, down, total) =   5.00000  0.00000  5.00000
   spin  1
    eigenvalues: 
  1.000  1.000  1.000  1.000  1.000
    eigenvectors:
  1.000  0.000  0.000  0.000  0.000
  0.000  1.000  0.000  0.000  0.000
  0.000  0.000  1.000  0.000  0.000
  0.000  0.000  0.000  1.000  0.000
  0.000  0.000  0.000  0.000  1.000
    occupations:
  1.000  0.000  0.000  0.000  0.000
  0.000  1.000  0.000  0.000  0.000
  0.000  0.000  1.000  0.000  0.000
  0.000  0.000  0.000  1.000  0.000
  0.000  0.000  0.000  0.000  1.000
   spin  2
    eigenvalues: 
  0.000  0.000  0.000  0.000  0.000
    eigenvectors:
  1.000  0.000  0.000  0.000  0.000
  0.000  1.000  0.000  0.000  0.000
  0.000  0.000  1.000  0.000  0.000
  0.000  0.000  0.000  1.000  0.000
  0.000  0.000  0.000  0.000  1.000
    occupations:
  0.000  0.000  0.000  0.000  0.000
  0.000  0.000  0.000  0.000  0.000
  0.000  0.000  0.000  0.000  0.000
  0.000  0.000  0.000  0.000  0.000
  0.000  0.000  0.000  0.000  0.000
atomic mag. moment =     5.000000
atom    3   Tr[ns(na)] (up, down, total) =   5.00000  0.00000  5.00000
   spin  1
    eigenvalues: 
  1.000  1.000  1.000  1.000  1.000
    eigenvectors:
  1.000  0.000  0.000  0.000  0.000
  0.000  1.000  0.000  0.000  0.000
  0.000  0.000  1.000  0.000  0.000
  0.000  0.000  0.000  1.000  0.000
  0.000  0.000  0.000  0.000  1.000
    occupations:
  1.000  0.000  0.000  0.000  0.000
  0.000  1.000  0.000  0.000  0.000
  0.000  0.000  1.000  0.000  0.000
  0.000  0.000  0.000  1.000  0.000
  0.000  0.000  0.000  0.000  1.000
   spin  2
    eigenvalues: 
  0.000  0.000  0.000  0.000  0.000
    eigenvectors:
  1.000  0.000  0.000  0.000  0.000
  0.000  1.000  0.000  0.000  0.000
  0.000  0.000  1.000  0.000  0.000
  0.000  0.000  0.000  1.000  0.000
  0.000  0.000  0.000  0.000  1.000
    occupations:
  0.000  0.000  0.000  0.000  0.000
  0.000  0.000  0.000  0.000  0.000
  0.000  0.000  0.000  0.000  0.000
  0.000  0.000  0.000  0.000  0.000
  0.000  0.000  0.000  0.000  0.000
atomic mag. moment =     5.000000
atom    4   Tr[ns(na)] (up, down, total) =   0.00000  5.00000  5.00000
   spin  1
    eigenvalues: 
  0.000  0.000  0.000  0.000  0.000
    eigenvectors:
  1.000  0.000  0.000  0.000  0.000
  0.000  1.000  0.000  0.000  0.000
  0.000  0.000  1.000  0.000  0.000
  0.000  0.000  0.000  1.000  0.000
  0.000  0.000  0.000  0.000  1.000
    occupations:
  0.000  0.000  0.000  0.000  0.000
  0.000  0.000  0.000  0.000  0.000
  0.000  0.000  0.000  0.000  0.000
  0.000  0.000  0.000  0.000  0.000
  0.000  0.000  0.000  0.000  0.000
   spin  2
    eigenvalues: 
  1.000  1.000  1.000  1.000  1.000
    eigenvectors:
  1.000  0.000  0.000  0.000  0.000
  0.000  1.000  0.000  0.000  0.000
  0.000  0.000  1.000  0.000  0.000
  0.000  0.000  0.000  1.000  0.000
  0.000  0.000  0.000  0.000  1.000
    occupations:
  1.000  0.000  0.000  0.000  0.000
  0.000  1.000  0.000  0.000  0.000
  0.000  0.000  1.000  0.000  0.000
  0.000  0.000  0.000  1.000  0.000
  0.000  0.000  0.000  0.000  1.000
atomic mag. moment =    -5.000000
atom    5   Tr[ns(na)] (up, down, total) =   5.00000  0.00000  5.00000
   spin  1
    eigenvalues: 
  1.000  1.000  1.000  1.000  1.000
    eigenvectors:
  1.000  0.000  0.000  0.000  0.000
  0.000  1.000  0.000  0.000  0.000
  0.000  0.000  1.000  0.000  0.000
  0.000  0.000  0.000  1.000  0.000
  0.000  0.000  0.000  0.000  1.000
    occupations:
  1.000  0.000  0.000  0.000  0.000
  0.000  1.000  0.000  0.000  0.000
  0.000  0.000  1.000  0.000  0.000
  0.000  0.000  0.000  1.000  0.000
  0.000  0.000  0.000  0.000  1.000
   spin  2
    eigenvalues: 
  0.000  0.000  0.000  0.000  0.000
    eigenvectors:
  1.000  0.000  0.000  0.000  0.000
  0.000  1.000  0.000  0.000  0.000
  0.000  0.000  1.000  0.000  0.000
  0.000  0.000  0.000  1.000  0.000
  0.000  0.000  0.000  0.000  1.000
    occupations:
  0.000  0.000  0.000  0.000  0.000
  0.000  0.000  0.000  0.000  0.000
  0.000  0.000  0.000  0.000  0.000
  0.000  0.000  0.000  0.000  0.000
  0.000  0.000  0.000  0.000  0.000
atomic mag. moment =     5.000000
atom    6   Tr[ns(na)] (up, down, total) =   5.00000  0.00000  5.00000
   spin  1
    eigenvalues: 
  1.000  1.000  1.000  1.000  1.000
    eigenvectors:
  1.000  0.000  0.000  0.000  0.000
  0.000  1.000  0.000  0.000  0.000
  0.000  0.000  1.000  0.000  0.000
  0.000  0.000  0.000  1.000  0.000
  0.000  0.000  0.000  0.000  1.000
    occupations:
  1.000  0.000  0.000  0.000  0.000
  0.000  1.000  0.000  0.000  0.000
  0.000  0.000  1.000  0.000  0.000
  0.000  0.000  0.000  1.000  0.000
  0.000  0.000  0.000  0.000  1.000
   spin  2
    eigenvalues: 
  0.000  0.000  0.000  0.000  0.000
    eigenvectors:
  1.000  0.000  0.000  0.000  0.000
  0.000  1.000  0.000  0.000  0.000
  0.000  0.000  1.000  0.000  0.000
  0.000  0.000  0.000  1.000  0.000
  0.000  0.000  0.000  0.000  1.000
    occupations:
  0.000  0.000  0.000  0.000  0.000
  0.000  0.000  0.000  0.000  0.000
  0.000  0.000  0.000  0.000  0.000
  0.000  0.000  0.000  0.000  0.000
  0.000  0.000  0.000  0.000  0.000
atomic mag. moment =     5.000000
atom    7   Tr[ns(na)] (up, down, total) =   5.00000  0.00000  5.00000
   spin  1
    eigenvalues: 
  1.000  1.000  1.000  1.000  1.000
    eigenvectors:
  1.000  0.000  0.000  0.000  0.000
  0.000  1.000  0.000  0.000  0.000
  0.000  0.000  1.000  0.000  0.000
  0.000  0.000  0.000  1.000  0.000
  0.000  0.000  0.000  0.000  1.000
    occupations:
  1.000  0.000  0.000  0.000  0.000
  0.000  1.000  0.000  0.000  0.000
  0.000  0.000  1.000  0.000  0.000
  0.000  0.000  0.000  1.000  0.000
  0.000  0.000  0.000  0.000  1.000
   spin  2
    eigenvalues: 
  0.000  0.000  0.000  0.000  0.000
    eigenvectors:
  1.000  0.000  0.000  0.000  0.000
  0.000  1.000  0.000  0.000  0.000
  0.000  0.000  1.000  0.000  0.000
  0.000  0.000  0.000  1.000  0.000
  0.000  0.000  0.000  0.000  1.000
    occupations:
  0.000  0.000  0.000  0.000  0.000
  0.000  0.000  0.000  0.000  0.000
  0.000  0.000  0.000  0.000  0.000
  0.000  0.000  0.000  0.000  0.000
  0.000  0.000  0.000  0.000  0.000
atomic mag. moment =     5.000000
atom    8   Tr[ns(na)] (up, down, total) =   0.00000  5.00000  5.00000
   spin  1
    eigenvalues: 
  0.000  0.000  0.000  0.000  0.000
    eigenvectors:
  1.000  0.000  0.000  0.000  0.000
  0.000  1.000  0.000  0.000  0.000
  0.000  0.000  1.000  0.000  0.000
  0.000  0.000  0.000  1.000  0.000
  0.000  0.000  0.000  0.000  1.000
    occupations:
  0.000  0.000  0.000  0.000  0.000
  0.000  0.000  0.000  0.000  0.000
  0.000  0.000  0.000  0.000  0.000
  0.000  0.000  0.000  0.000  0.000
  0.000  0.000  0.000  0.000  0.000
   spin  2
    eigenvalues: 
  1.000  1.000  1.000  1.000  1.000
    eigenvectors:
  1.000  0.000  0.000  0.000  0.000
  0.000  1.000  0.000  0.000  0.000
  0.000  0.000  1.000  0.000  0.000
  0.000  0.000  0.000  1.000  0.000
  0.000  0.000  0.000  0.000  1.000
    occupations:
  1.000  0.000  0.000  0.000  0.000
  0.000  1.000  0.000  0.000  0.000
  0.000  0.000  1.000  0.000  0.000
  0.000  0.000  0.000  1.000  0.000
  0.000  0.000  0.000  0.000  1.000
atomic mag. moment =    -5.000000
N of occupied +U levels =   40.000000
 --- exit write_ns ---
 Atomic wfc used for LDA+U Projector are NOT orthogonalized
     Starting wfcs are  224 randomized atomic wfcs
     Checking if some PAW data can be deallocated... 

     total cpu time spent up to now is       28.7 secs

     Self-consistent Calculation

     iteration #  1     ecut=    45.00 Ry     beta= 0.10
     Davidson diagonalization with overlap
     ethr =  1.00E-02,  avg # of iterations =  4.1
 --- enter write_ns ---
 LDA+U parameters:
U(  1) =   3.1200   J(  1) =   0.7000   B(  1) =   0.0803
U(  2) =   3.1200   J(  2) =   0.7000   B(  2) =   0.0803
atom    1   Tr[ns(na)] (up, down, total) =   5.01744  0.39323  5.41067
   spin  1
    eigenvalues: 
  1.003  1.003  1.003  1.004  1.004
    eigenvectors:
  0.000  0.000  0.000  1.000  0.000
  0.000  0.299  0.701  0.000  0.000
  0.000  0.701  0.299  0.000  0.000
  0.000  0.000  0.000  0.000  1.000
  1.000  0.000  0.000  0.000  0.000
    occupations:
  1.004 -0.000 -0.000  0.000  0.000
 -0.000  1.003 -0.000  0.000  0.000
 -0.000 -0.000  1.003  0.000  0.000
  0.000  0.000  0.000  1.004 -0.000
  0.000  0.000  0.000 -0.000  1.003
   spin  2
    eigenvalues: 
  0.051  0.069  0.079  0.079  0.116
    eigenvectors:
  0.000  1.000  0.000  0.000  0.000
  0.000  0.000  0.381  0.619  0.000
  0.000  0.000  0.619  0.381  0.000
  1.000  0.000  0.000  0.000  0.000
  0.000  0.000  0.000  0.000  1.000
    occupations:
  0.069 -0.000 -0.000  0.000  0.000
 -0.000  0.079 -0.000  0.000  0.000
 -0.000 -0.000  0.079  0.000  0.000
  0.000  0.000  0.000  0.051 -0.000
  0.000  0.000  0.000 -0.000  0.116
atomic mag. moment =     4.624205
atom    2   Tr[ns(na)] (up, down, total) =   5.01762  0.38967  5.40729
   spin  1
    eigenvalues: 
  1.003  1.003  1.003  1.004  1.004
    eigenvectors:
  0.000  0.000  0.000  1.000  0.000
  0.000  0.317  0.683  0.000  0.000
  0.000  0.683  0.317  0.000  0.000
  0.000  0.000  0.000  0.000  1.000
  1.000  0.000  0.000  0.000  0.000
    occupations:
  1.004 -0.000 -0.000  0.000  0.000
 -0.000  1.003 -0.000  0.000  0.000
 -0.000 -0.000  1.003  0.000  0.000
  0.000  0.000  0.000  1.004 -0.000
  0.000  0.000  0.000 -0.000  1.003
   spin  2
    eigenvalues: 
  0.051  0.071  0.079  0.079  0.110
    eigenvectors:
  0.000  1.000  0.000  0.000  0.000
  0.000  0.000  0.367  0.633  0.000
  0.000  0.000  0.633  0.367  0.000
  1.000  0.000  0.000  0.000  0.000
  0.000  0.000  0.000  0.000  1.000
    occupations:
  0.071 -0.000 -0.000  0.000  0.000
 -0.000  0.079 -0.000  0.000  0.000
 -0.000 -0.000  0.079  0.000  0.000
  0.000  0.000  0.000  0.051 -0.000
  0.000  0.000  0.000 -0.000  0.110
atomic mag. moment =     4.627947
atom    3   Tr[ns(na)] (up, down, total) =   5.01748  0.39463  5.41211
   spin  1
    eigenvalues: 
  1.003  1.003  1.003  1.004  1.004
    eigenvectors:
  0.000  0.000  0.000  1.000  0.000
  0.000  0.318  0.682  0.000  0.000
  0.000  0.682  0.318  0.000  0.000
  0.000  0.000  0.000  0.000  1.000
  1.000  0.000  0.000  0.000  0.000
    occupations:
  1.004 -0.000 -0.000  0.000  0.000
 -0.000  1.003 -0.000  0.000  0.000
 -0.000 -0.000  1.003  0.000  0.000
  0.000  0.000  0.000  1.004 -0.000
  0.000  0.000  0.000 -0.000  1.003
   spin  2
    eigenvalues: 
  0.051  0.069  0.079  0.079  0.117
    eigenvectors:
  0.000  1.000  0.000  0.000  0.000
  0.000  0.000  0.295  0.705  0.000
  0.000  0.000  0.705  0.295  0.000
  1.000  0.000  0.000  0.000  0.000
  0.000  0.000  0.000  0.000  1.000
    occupations:
  0.069 -0.000 -0.000  0.000  0.000
 -0.000  0.079 -0.000  0.000  0.000
 -0.000 -0.000  0.079  0.000  0.000
  0.000  0.000  0.000  0.051 -0.000
  0.000  0.000  0.000 -0.000  0.117
atomic mag. moment =     4.622843
atom    4   Tr[ns(na)] (up, down, total) =   0.40259  5.01741  5.42001
   spin  1
    eigenvalues: 
  0.052  0.070  0.078  0.078  0.123
    eigenvectors:
  0.000  1.000  0.000  0.000  0.000
  0.000  0.000  0.322  0.678  0.000
  0.000  0.000  0.678  0.322  0.000
  1.000  0.000  0.000  0.000  0.000
  0.000  0.000  0.000  0.000  1.000
    occupations:
  0.070 -0.000 -0.000  0.000  0.000
 -0.000  0.078 -0.000  0.000  0.000
 -0.000 -0.000  0.078  0.000  0.000
  0.000  0.000  0.000  0.052 -0.000
  0.000  0.000  0.000 -0.000  0.123
   spin  2
    eigenvalues: 
  1.003  1.003  1.003  1.004  1.004
    eigenvectors:
  0.000  0.000  0.000  1.000  0.000
  0.000  0.315  0.685  0.000  0.000
  0.000  0.685  0.315  0.000  0.000
  0.000  0.000  0.000  0.000  1.000
  1.000  0.000  0.000  0.000  0.000
    occupations:
  1.004 -0.000 -0.000  0.000  0.000
 -0.000  1.003 -0.000  0.000  0.000
 -0.000 -0.000  1.003  0.000  0.000
  0.000  0.000  0.000  1.004 -0.000
  0.000  0.000  0.000 -0.000  1.003
atomic mag. moment =    -4.614821
atom    5   Tr[ns(na)] (up, down, total) =   5.01749  0.39418  5.41167
   spin  1
    eigenvalues: 
  1.003  1.003  1.003  1.004  1.004
    eigenvectors:
  0.000  0.000  0.000  1.000  0.000
  0.000  0.258  0.742  0.000  0.000
  0.000  0.742  0.258  0.000  0.000
  0.000  0.000  0.000  0.000  1.000
  1.000  0.000  0.000  0.000  0.000
    occupations:
  1.004 -0.000 -0.000  0.000  0.000
 -0.000  1.003 -0.000  0.000  0.000
 -0.000 -0.000  1.003  0.000  0.000
  0.000  0.000  0.000  1.004 -0.000
  0.000  0.000  0.000 -0.000  1.003
   spin  2
    eigenvalues: 
  0.051  0.069  0.079  0.079  0.116
    eigenvectors:
  0.000  1.000  0.000  0.000  0.000
  0.000  0.000  0.422  0.578  0.000
  0.000  0.000  0.578  0.422  0.000
  1.000  0.000  0.000  0.000  0.000
  0.000  0.000  0.000  0.000  1.000
    occupations:
  0.069 -0.000 -0.000  0.000  0.000
 -0.000  0.079 -0.000  0.000  0.000
 -0.000 -0.000  0.079  0.000  0.000
  0.000  0.000  0.000  0.051 -0.000
  0.000  0.000  0.000 -0.000  0.116
atomic mag. moment =     4.623310
atom    6   Tr[ns(na)] (up, down, total) =   5.01771  0.38930  5.40701
   spin  1
    eigenvalues: 
  1.003  1.003  1.003  1.004  1.004
    eigenvectors:
  0.000  0.000  0.000  1.000  0.000
  0.000  0.324  0.676  0.000  0.000
  0.000  0.676  0.324  0.000  0.000
  0.000  0.000  0.000  0.000  1.000
  1.000  0.000  0.000  0.000  0.000
    occupations:
  1.004 -0.000 -0.000  0.000  0.000
 -0.000  1.003 -0.000  0.000  0.000
 -0.000 -0.000  1.003  0.000  0.000
  0.000  0.000  0.000  1.004 -0.000
  0.000  0.000  0.000 -0.000  1.003
   spin  2
    eigenvalues: 
  0.051  0.070  0.079  0.079  0.110
    eigenvectors:
  0.000  1.000  0.000  0.000  0.000
  0.000  0.000  0.389  0.611  0.000
  0.000  0.000  0.611  0.389  0.000
  1.000  0.000  0.000  0.000  0.000
  0.000  0.000  0.000  0.000  1.000
    occupations:
  0.070 -0.000 -0.000  0.000  0.000
 -0.000  0.079 -0.000  0.000  0.000
 -0.000 -0.000  0.079  0.000  0.000
  0.000  0.000  0.000  0.051 -0.000
  0.000  0.000  0.000 -0.000  0.110
atomic mag. moment =     4.628402
atom    7   Tr[ns(na)] (up, down, total) =   5.01750  0.39329  5.41079
   spin  1
    eigenvalues: 
  1.003  1.003  1.003  1.004  1.004
    eigenvectors:
  0.000  0.000  0.000  1.000  0.000
  0.000  0.270  0.730  0.000  0.000
  0.000  0.730  0.270  0.000  0.000
  0.000  0.000  0.000  0.000  1.000
  1.000  0.000  0.000  0.000  0.000
    occupations:
  1.004 -0.000 -0.000  0.000  0.000
 -0.000  1.003 -0.000  0.000  0.000
 -0.000 -0.000  1.003  0.000  0.000
  0.000  0.000  0.000  1.004 -0.000
  0.000  0.000  0.000 -0.000  1.003
   spin  2
    eigenvalues: 
  0.051  0.069  0.079  0.079  0.116
    eigenvectors:
  0.000  1.000  0.000  0.000  0.000
  0.000  0.000  0.340  0.660  0.000
  0.000  0.000  0.660  0.340  0.000
  1.000  0.000  0.000  0.000  0.000
  0.000  0.000  0.000  0.000  1.000
    occupations:
  0.069 -0.000 -0.000  0.000  0.000
 -0.000  0.079 -0.000  0.000  0.000
 -0.000 -0.000  0.079  0.000  0.000
  0.000  0.000  0.000  0.051 -0.000
  0.000  0.000  0.000 -0.000  0.116
atomic mag. moment =     4.624206
atom    8   Tr[ns(na)] (up, down, total) =   0.40240  5.01751  5.41991
   spin  1
    eigenvalues: 
  0.052  0.070  0.078  0.078  0.123
    eigenvectors:
  0.000  1.000  0.000  0.000  0.000
  0.000  0.000  0.336  0.664  0.000
  0.000  0.000  0.664  0.336  0.000
  1.000  0.000  0.000  0.000  0.000
  0.000  0.000  0.000  0.000  1.000
    occupations:
  0.070 -0.000 -0.000  0.000  0.000
 -0.000  0.078 -0.000  0.000  0.000
 -0.000 -0.000  0.078  0.000  0.000
  0.000  0.000  0.000  0.052 -0.000
  0.000  0.000  0.000 -0.000  0.123
   spin  2
    eigenvalues: 
  1.003  1.003  1.003  1.004  1.004
    eigenvectors:
  0.000  0.000  0.000  1.000  0.000
  0.000  0.279  0.721  0.000  0.000
  0.000  0.721  0.279  0.000  0.000
  0.000  0.000  0.000  0.000  1.000
  1.000  0.000  0.000  0.000  0.000
    occupations:
  1.004 -0.000 -0.000  0.000  0.000
 -0.000  1.003 -0.000  0.000  0.000
 -0.000 -0.000  1.003  0.000  0.000
  0.000  0.000  0.000  1.004 -0.000
  0.000  0.000  0.000 -0.000  1.003
atomic mag. moment =    -4.615108
N of occupied +U levels =   43.299468
 --- exit write_ns ---

     total cpu time spent up to now is      108.0 secs

     total energy              =  -14687.30088732 Ry
     Harris-Foulkes estimate   =  -14685.83940606 Ry
     estimated scf accuracy    <      11.50090089 Ry

     total magnetization       =    20.39 Bohr mag/cell
     absolute magnetization    =    41.73 Bohr mag/cell

     iteration #  2     ecut=    45.00 Ry     beta= 0.10
     Davidson diagonalization with overlap
     ethr =  3.89E-03,  avg # of iterations =  1.0

     total cpu time spent up to now is      150.4 secs

     total energy              =  -14691.59234074 Ry
     Harris-Foulkes estimate   =  -14687.37410995 Ry
     estimated scf accuracy    <       9.34102835 Ry

     total magnetization       =    20.15 Bohr mag/cell
     absolute magnetization    =    41.40 Bohr mag/cell

     iteration #  3     ecut=    45.00 Ry     beta= 0.10
     Davidson diagonalization with overlap
     ethr =  3.16E-03,  avg # of iterations =  5.7

     total cpu time spent up to now is      234.6 secs

     total energy              =  -14691.19364257 Ry
     Harris-Foulkes estimate   =  -14694.04118763 Ry
     estimated scf accuracy    <     287.64023938 Ry

     total magnetization       =    21.06 Bohr mag/cell
     absolute magnetization    =    38.43 Bohr mag/cell

     iteration #  4     ecut=    45.00 Ry     beta= 0.10
     Davidson diagonalization with overlap
     ethr =  3.16E-03,  avg # of iterations =  4.6

     total cpu time spent up to now is      304.2 secs

     total energy              =  -14694.45141088 Ry
     Harris-Foulkes estimate   =  -14694.13099249 Ry
     estimated scf accuracy    <       3.65454408 Ry

     total magnetization       =    18.61 Bohr mag/cell
     absolute magnetization    =    38.69 Bohr mag/cell

     iteration #  5     ecut=    45.00 Ry     beta= 0.10
     Davidson diagonalization with overlap
     ethr =  1.23E-03,  avg # of iterations =  4.1

     total cpu time spent up to now is      368.2 secs

     total energy              =  -14694.40680206 Ry
     Harris-Foulkes estimate   =  -14694.48342573 Ry
     estimated scf accuracy    <       5.51587672 Ry

     total magnetization       =    18.47 Bohr mag/cell
     absolute magnetization    =    38.40 Bohr mag/cell

     iteration #  6     ecut=    45.00 Ry     beta= 0.10
     Davidson diagonalization with overlap
     ethr =  1.23E-03,  avg # of iterations =  1.2

     total cpu time spent up to now is      411.9 secs

     total energy              =  -14693.34633645 Ry
     Harris-Foulkes estimate   =  -14694.41266847 Ry
     estimated scf accuracy    <       6.39543536 Ry

     total magnetization       =    18.49 Bohr mag/cell
     absolute magnetization    =    38.45 Bohr mag/cell

     iteration #  7     ecut=    45.00 Ry     beta= 0.10
     Davidson diagonalization with overlap
     ethr =  1.23E-03,  avg # of iterations =  3.4

     total cpu time spent up to now is      471.3 secs

     total energy              =  -14693.69859388 Ry
     Harris-Foulkes estimate   =  -14693.64084089 Ry
     estimated scf accuracy    <       2.97275118 Ry

     total magnetization       =    18.75 Bohr mag/cell
     absolute magnetization    =    38.92 Bohr mag/cell

     iteration #  8     ecut=    45.00 Ry     beta= 0.10
     Davidson diagonalization with overlap
     ethr =  1.00E-03,  avg # of iterations =  4.7

     total cpu time spent up to now is      546.1 secs

     total energy              =  -14693.97689784 Ry
     Harris-Foulkes estimate   =  -14694.05380443 Ry
     estimated scf accuracy    <       0.66882377 Ry

     total magnetization       =    17.73 Bohr mag/cell
     absolute magnetization    =    37.33 Bohr mag/cell

     iteration #  9     ecut=    45.00 Ry     beta= 0.10
     Davidson diagonalization with overlap
     ethr =  2.26E-04,  avg # of iterations =  1.9

     total cpu time spent up to now is      594.5 secs

     total energy              =  -14694.00669761 Ry
     Harris-Foulkes estimate   =  -14694.00733814 Ry
     estimated scf accuracy    <       0.15307986 Ry

     total magnetization       =    17.74 Bohr mag/cell
     absolute magnetization    =    37.54 Bohr mag/cell

     iteration # 10     ecut=    45.00 Ry     beta= 0.10
     Davidson diagonalization with overlap
     ethr =  5.17E-05,  avg # of iterations =  2.3

     total cpu time spent up to now is      645.9 secs

     total energy              =  -14693.99156738 Ry
     Harris-Foulkes estimate   =  -14694.01380078 Ry
     estimated scf accuracy    <       0.12848744 Ry

     total magnetization       =    17.62 Bohr mag/cell
     absolute magnetization    =    37.42 Bohr mag/cell

     iteration # 11     ecut=    45.00 Ry     beta= 0.10
     Davidson diagonalization with overlap
     ethr =  4.34E-05,  avg # of iterations =  3.3

     total cpu time spent up to now is      709.0 secs

     total energy              =  -14694.00565762 Ry
     Harris-Foulkes estimate   =  -14694.01090524 Ry
     estimated scf accuracy    <       0.06196413 Ry

     total magnetization       =    17.62 Bohr mag/cell
     absolute magnetization    =    37.52 Bohr mag/cell

     iteration # 12     ecut=    45.00 Ry     beta= 0.10
     Davidson diagonalization with overlap
     ethr =  2.09E-05,  avg # of iterations =  2.2

     total cpu time spent up to now is      759.3 secs

     total energy              =  -14694.01226708 Ry
     Harris-Foulkes estimate   =  -14694.01207656 Ry
     estimated scf accuracy    <       0.02378377 Ry

     total magnetization       =    17.56 Bohr mag/cell
     absolute magnetization    =    37.41 Bohr mag/cell

     iteration # 13     ecut=    45.00 Ry     beta= 0.10
     Davidson diagonalization with overlap
     ethr =  8.04E-06,  avg # of iterations =  1.8

     total cpu time spent up to now is      806.5 secs

     total energy              =  -14694.01571015 Ry
     Harris-Foulkes estimate   =  -14694.01335444 Ry
     estimated scf accuracy    <       0.00861589 Ry

     total magnetization       =    17.53 Bohr mag/cell
     absolute magnetization    =    37.41 Bohr mag/cell

     iteration # 14     ecut=    45.00 Ry     beta= 0.10
     Davidson diagonalization with overlap
     c_bands:  5 eigenvalues not converged
     c_bands:  4 eigenvalues not converged
     ethr =  2.91E-06,  avg # of iterations =  5.0

     total cpu time spent up to now is      882.7 secs

     total energy              =  -14694.01621553 Ry
     Harris-Foulkes estimate   =  -14694.01645649 Ry
     estimated scf accuracy    <       0.01639871 Ry

     total magnetization       =    17.50 Bohr mag/cell
     absolute magnetization    =    37.39 Bohr mag/cell

     iteration # 15     ecut=    45.00 Ry     beta= 0.10
     Davidson diagonalization with overlap
     ethr =  2.91E-06,  avg # of iterations =  1.8

     total cpu time spent up to now is      930.8 secs

     total energy              =  -14694.01667402 Ry
     Harris-Foulkes estimate   =  -14694.01660021 Ry
     estimated scf accuracy    <       0.00457581 Ry

     total magnetization       =    17.48 Bohr mag/cell
     absolute magnetization    =    37.37 Bohr mag/cell

     iteration # 16     ecut=    45.00 Ry     beta= 0.10
     Davidson diagonalization with overlap
     ethr =  1.55E-06,  avg # of iterations =  2.0

     total cpu time spent up to now is      980.3 secs

     total energy              =  -14694.01691454 Ry
     Harris-Foulkes estimate   =  -14694.01684356 Ry
     estimated scf accuracy    <       0.00903186 Ry

     total magnetization       =    17.47 Bohr mag/cell
     absolute magnetization    =    37.37 Bohr mag/cell

     iteration # 17     ecut=    45.00 Ry     beta= 0.10
     Davidson diagonalization with overlap
     ethr =  1.55E-06,  avg # of iterations =  1.0

     total cpu time spent up to now is     1022.6 secs

     total energy              =  -14694.01709962 Ry
     Harris-Foulkes estimate   =  -14694.01699243 Ry
     estimated scf accuracy    <       0.00075055 Ry

     total magnetization       =    17.46 Bohr mag/cell
     absolute magnetization    =    37.37 Bohr mag/cell

     iteration # 18     ecut=    45.00 Ry     beta= 0.10
     Davidson diagonalization with overlap
     ethr =  2.54E-07,  avg # of iterations =  2.8

     total cpu time spent up to now is     1078.2 secs

     total energy              =  -14694.01714370 Ry
     Harris-Foulkes estimate   =  -14694.01712279 Ry
     estimated scf accuracy    <       0.00060019 Ry

     total magnetization       =    17.45 Bohr mag/cell
     absolute magnetization    =    37.36 Bohr mag/cell

     iteration # 19     ecut=    45.00 Ry     beta= 0.10
     Davidson diagonalization with overlap
     ethr =  2.03E-07,  avg # of iterations =  1.0

     total cpu time spent up to now is     1120.4 secs

     total energy              =  -14694.01719165 Ry
     Harris-Foulkes estimate   =  -14694.01715327 Ry
     estimated scf accuracy    <       0.00036143 Ry

     total magnetization       =    17.45 Bohr mag/cell
     absolute magnetization    =    37.36 Bohr mag/cell

     iteration # 20     ecut=    45.00 Ry     beta= 0.10
     Davidson diagonalization with overlap
     ethr =  1.22E-07,  avg # of iterations =  1.2

     total cpu time spent up to now is     1163.7 secs

     total energy              =  -14694.01721498 Ry
     Harris-Foulkes estimate   =  -14694.01719732 Ry
     estimated scf accuracy    <       0.00105035 Ry

     total magnetization       =    17.44 Bohr mag/cell
     absolute magnetization    =    37.35 Bohr mag/cell

     iteration # 21     ecut=    45.00 Ry     beta= 0.10
     Davidson diagonalization with overlap
     ethr =  1.22E-07,  avg # of iterations =  1.3

     total cpu time spent up to now is     1208.0 secs

     total energy              =  -14694.01721473 Ry
     Harris-Foulkes estimate   =  -14694.01721145 Ry
     estimated scf accuracy    <       0.00013619 Ry

     total magnetization       =    17.44 Bohr mag/cell
     absolute magnetization    =    37.35 Bohr mag/cell

     iteration # 22     ecut=    45.00 Ry     beta= 0.10
     Davidson diagonalization with overlap
     ethr =  4.60E-08,  avg # of iterations =  1.0

     total cpu time spent up to now is     1250.2 secs

     total energy              =  -14694.01722137 Ry
     Harris-Foulkes estimate   =  -14694.01721659 Ry
     estimated scf accuracy    <       0.00003018 Ry

     total magnetization       =    17.43 Bohr mag/cell
     absolute magnetization    =    37.35 Bohr mag/cell

     iteration # 23     ecut=    45.00 Ry     beta= 0.10
     Davidson diagonalization with overlap
     ethr =  1.02E-08,  avg # of iterations =  1.8

     total cpu time spent up to now is     1297.9 secs

     total energy              =  -14694.01722269 Ry
     Harris-Foulkes estimate   =  -14694.01722006 Ry
     estimated scf accuracy    <       0.00005128 Ry

     total magnetization       =    17.43 Bohr mag/cell
     absolute magnetization    =    37.35 Bohr mag/cell

     iteration # 24     ecut=    45.00 Ry     beta= 0.10
     Davidson diagonalization with overlap
     ethr =  1.02E-08,  avg # of iterations =  1.1

     total cpu time spent up to now is     1340.8 secs

     total energy              =  -14694.01722432 Ry
     Harris-Foulkes estimate   =  -14694.01722236 Ry
     estimated scf accuracy    <       0.00003943 Ry

     total magnetization       =    17.43 Bohr mag/cell
     absolute magnetization    =    37.35 Bohr mag/cell

     iteration # 25     ecut=    45.00 Ry     beta= 0.10
     Davidson diagonalization with overlap
     ethr =  1.02E-08,  avg # of iterations =  1.1

     total cpu time spent up to now is     1383.9 secs

     total energy              =  -14694.01722576 Ry
     Harris-Foulkes estimate   =  -14694.01722453 Ry
     estimated scf accuracy    <       0.00006502 Ry

     total magnetization       =    17.43 Bohr mag/cell
     absolute magnetization    =    37.35 Bohr mag/cell

     iteration # 26     ecut=    45.00 Ry     beta= 0.10
     Davidson diagonalization with overlap
     ethr =  1.02E-08,  avg # of iterations =  1.0

     total cpu time spent up to now is     1425.9 secs

     total energy              =  -14694.01722793 Ry
     Harris-Foulkes estimate   =  -14694.01722685 Ry
     estimated scf accuracy    <       0.00001340 Ry

     total magnetization       =    17.43 Bohr mag/cell
     absolute magnetization    =    37.35 Bohr mag/cell

     iteration # 27     ecut=    45.00 Ry     beta= 0.10
     Davidson diagonalization with overlap
     ethr =  4.53E-09,  avg # of iterations =  1.1

     total cpu time spent up to now is     1468.2 secs

     total energy              =  -14694.01722842 Ry
     Harris-Foulkes estimate   =  -14694.01722747 Ry
     estimated scf accuracy    <       0.00001554 Ry

     total magnetization       =    17.43 Bohr mag/cell
     absolute magnetization    =    37.35 Bohr mag/cell

     iteration # 28     ecut=    45.00 Ry     beta= 0.10
     Davidson diagonalization with overlap
     ethr =  4.53E-09,  avg # of iterations =  1.0

     total cpu time spent up to now is     1510.3 secs

     total energy              =  -14694.01722956 Ry
     Harris-Foulkes estimate   =  -14694.01722873 Ry
     estimated scf accuracy    <       0.00001584 Ry

     total magnetization       =    17.43 Bohr mag/cell
     absolute magnetization    =    37.35 Bohr mag/cell

     iteration # 29     ecut=    45.00 Ry     beta= 0.10
     Davidson diagonalization with overlap
     ethr =  4.53E-09,  avg # of iterations =  1.0

     total cpu time spent up to now is     1552.3 secs

     total energy              =  -14694.01723038 Ry
     Harris-Foulkes estimate   =  -14694.01722971 Ry
     estimated scf accuracy    <       0.00000369 Ry

     total magnetization       =    17.43 Bohr mag/cell
     absolute magnetization    =    37.35 Bohr mag/cell

     iteration # 30     ecut=    45.00 Ry     beta= 0.10
     Davidson diagonalization with overlap
     ethr =  1.25E-09,  avg # of iterations =  1.2

     total cpu time spent up to now is     1595.9 secs

     total energy              =  -14694.01723089 Ry
     Harris-Foulkes estimate   =  -14694.01723034 Ry
     estimated scf accuracy    <       0.00002163 Ry

     total magnetization       =    17.43 Bohr mag/cell
     absolute magnetization    =    37.35 Bohr mag/cell

     iteration # 31     ecut=    45.00 Ry     beta= 0.10
     Davidson diagonalization with overlap
     ethr =  1.25E-09,  avg # of iterations =  1.0

     total cpu time spent up to now is     1638.0 secs

     total energy              =  -14694.01723160 Ry
     Harris-Foulkes estimate   =  -14694.01723107 Ry
     estimated scf accuracy    <       0.00001752 Ry

     total magnetization       =    17.43 Bohr mag/cell
     absolute magnetization    =    37.35 Bohr mag/cell

     iteration # 32     ecut=    45.00 Ry     beta= 0.10
     Davidson diagonalization with overlap
     ethr =  1.25E-09,  avg # of iterations =  1.0

     total cpu time spent up to now is     1680.1 secs

     total energy              =  -14694.01723187 Ry
     Harris-Foulkes estimate   =  -14694.01723147 Ry
     estimated scf accuracy    <       0.00001525 Ry

     total magnetization       =    17.43 Bohr mag/cell
     absolute magnetization    =    37.35 Bohr mag/cell

     iteration # 33     ecut=    45.00 Ry     beta= 0.10
     Davidson diagonalization with overlap
     ethr =  1.25E-09,  avg # of iterations =  1.0

     total cpu time spent up to now is     1722.2 secs

     total energy              =  -14694.01723249 Ry
     Harris-Foulkes estimate   =  -14694.01723209 Ry
     estimated scf accuracy    <       0.00000298 Ry

     total magnetization       =    17.43 Bohr mag/cell
     absolute magnetization    =    37.35 Bohr mag/cell

     iteration # 34     ecut=    45.00 Ry     beta= 0.10
     Davidson diagonalization with overlap
     ethr =  1.01E-09,  avg # of iterations =  1.0
 
     Magnetic moment per site:
     atom:    1    charge:   13.5464    magn:    4.2589    constr:    0.0000
     atom:    2    charge:   13.5512    magn:    4.2210    constr:    0.0000
     atom:    3    charge:   13.5466    magn:    4.2591    constr:    0.0000
     atom:    4    charge:   13.5468    magn:   -4.2623    constr:    0.0000
     atom:    5    charge:   13.5466    magn:    4.2589    constr:    0.0000
     atom:    6    charge:   13.5512    magn:    4.2209    constr:    0.0000
     atom:    7    charge:   13.5465    magn:    4.2588    constr:    0.0000
     atom:    8    charge:   13.5466    magn:   -4.2625    constr:    0.0000
     atom:    9    charge:    9.1372    magn:    0.0299    constr:    0.0000
     atom:   10    charge:    9.1377    magn:    0.0350    constr:    0.0000
     atom:   11    charge:    9.1377    magn:    0.0351    constr:    0.0000
     atom:   12    charge:    9.1371    magn:    0.0301    constr:    0.0000
     atom:   13    charge:    9.1396    magn:    0.0382    constr:    0.0000
     atom:   14    charge:    9.1400    magn:   -0.0371    constr:    0.0000
     atom:   15    charge:    9.1399    magn:   -0.0371    constr:    0.0000
     atom:   16    charge:    9.1395    magn:    0.0382    constr:    0.0000
     atom:   17    charge:    9.1371    magn:    0.0301    constr:    0.0000
     atom:   18    charge:    9.1376    magn:    0.0351    constr:    0.0000
     atom:   19    charge:    9.1376    magn:    0.0350    constr:    0.0000
     atom:   20    charge:    9.1371    magn:    0.0299    constr:    0.0000
     atom:   21    charge:    9.1395    magn:    0.0380    constr:    0.0000
     atom:   22    charge:    9.1399    magn:   -0.0372    constr:    0.0000
     atom:   23    charge:    9.1400    magn:   -0.0372    constr:    0.0000
     atom:   24    charge:    9.1396    magn:    0.0380    constr:    0.0000

     total cpu time spent up to now is     1764.3 secs

     End of self-consistent calculation
 --- enter write_ns ---
 LDA+U parameters:
U(  1) =   3.1200   J(  1) =   0.7000   B(  1) =   0.0803
U(  2) =   3.1200   J(  2) =   0.7000   B(  2) =   0.0803
atom    1   Tr[ns(na)] (up, down, total) =   4.97595  0.71479  5.69074
   spin  1
    eigenvalues: 
  0.986  0.994  0.994  0.999  1.002
    eigenvectors:
  0.000  0.000  0.000  1.000  0.000
  0.000  0.315  0.685  0.000  0.000
  0.000  0.685  0.315  0.000  0.000
  0.000  0.000  0.000  0.000  1.000
  1.000  0.000  0.000  0.000  0.000
    occupations:
  0.999 -0.000 -0.000  0.000  0.000
 -0.000  0.994 -0.000  0.000  0.000
 -0.000 -0.000  0.994  0.000  0.000
  0.000  0.000  0.000  1.002 -0.000
  0.000  0.000  0.000 -0.000  0.986
   spin  2
    eigenvalues: 
  0.066  0.118  0.141  0.141  0.248
    eigenvectors:
  0.000  1.000  0.000  0.000  0.000
  0.000  0.000  0.309  0.691  0.000
  0.000  0.000  0.691  0.309  0.000
  1.000  0.000  0.000  0.000  0.000
  0.000  0.000  0.000  0.000  1.000
    occupations:
  0.118 -0.000 -0.000  0.000  0.000
 -0.000  0.141 -0.000  0.000  0.000
 -0.000 -0.000  0.141  0.000  0.000
  0.000  0.000  0.000  0.066 -0.000
  0.000  0.000  0.000 -0.000  0.248
atomic mag. moment =     4.261154
atom    2   Tr[ns(na)] (up, down, total) =   4.97266  0.74688  5.71955
   spin  1
    eigenvalues: 
  0.986  0.994  0.994  0.997  1.002
    eigenvectors:
  0.000  0.000  0.000  1.000  0.000
  0.000  0.304  0.696  0.000  0.000
  0.000  0.696  0.304  0.000  0.000
  0.000  0.000  0.000  0.000  1.000
  1.000  0.000  0.000  0.000  0.000
    occupations:
  0.997 -0.000 -0.000  0.000  0.000
 -0.000  0.994 -0.000  0.000  0.000
 -0.000 -0.000  0.994  0.000  0.000
  0.000  0.000  0.000  1.002 -0.000
  0.000  0.000  0.000 -0.000  0.986
   spin  2
    eigenvalues: 
  0.064  0.127  0.144  0.144  0.267
    eigenvectors:
  0.000  1.000  0.000  0.000  0.000
  0.000  0.000  0.269  0.731  0.000
  0.000  0.000  0.731  0.269  0.000
  1.000  0.000  0.000  0.000  0.000
  0.000  0.000  0.000  0.000  1.000
    occupations:
  0.127 -0.000 -0.000  0.000  0.000
 -0.000  0.144 -0.000  0.000  0.000
 -0.000 -0.000  0.144  0.000  0.000
  0.000  0.000  0.000  0.064 -0.000
  0.000  0.000  0.000 -0.000  0.267
atomic mag. moment =     4.225782
atom    3   Tr[ns(na)] (up, down, total) =   4.97596  0.71488  5.69084
   spin  1
    eigenvalues: 
  0.986  0.994  0.994  0.999  1.002
    eigenvectors:
  0.000  0.000  0.000  1.000  0.000
  0.000  0.359  0.641  0.000  0.000
  0.000  0.641  0.359  0.000  0.000
  0.000  0.000  0.000  0.000  1.000
  1.000  0.000  0.000  0.000  0.000
    occupations:
  0.999 -0.000 -0.000  0.000  0.000
 -0.000  0.994 -0.000  0.000  0.000
 -0.000 -0.000  0.994  0.000  0.000
  0.000  0.000  0.000  1.002 -0.000
  0.000  0.000  0.000 -0.000  0.986
   spin  2
    eigenvalues: 
  0.066  0.118  0.142  0.142  0.248
    eigenvectors:
  0.000  1.000  0.000  0.000  0.000
  0.000  0.000  0.331  0.669  0.000
  0.000  0.000  0.669  0.331  0.000
  1.000  0.000  0.000  0.000  0.000
  0.000  0.000  0.000  0.000  1.000
    occupations:
  0.118 -0.000 -0.000  0.000  0.000
 -0.000  0.142 -0.000  0.000  0.000
 -0.000 -0.000  0.142  0.000  0.000
  0.000  0.000  0.000  0.066 -0.000
  0.000  0.000  0.000 -0.000  0.248
atomic mag. moment =     4.261077
atom    4   Tr[ns(na)] (up, down, total) =   0.71673  4.97349  5.69022
   spin  1
    eigenvalues: 
  0.064  0.122  0.140  0.140  0.251
    eigenvectors:
  0.000  1.000  0.000  0.000  0.000
  0.000  0.000  0.418  0.582  0.000
  0.000  0.000  0.582  0.418  0.000
  1.000  0.000  0.000  0.000  0.000
  0.000  0.000  0.000  0.000  1.000
    occupations:
  0.122 -0.000 -0.000  0.000  0.000
 -0.000  0.140 -0.000  0.000  0.000
 -0.000 -0.000  0.140  0.000  0.000
  0.000  0.000  0.000  0.064 -0.000
  0.000  0.000  0.000 -0.000  0.251
   spin  2
    eigenvalues: 
  0.985  0.994  0.994  0.998  1.002
    eigenvectors:
  0.000  0.000  0.000  1.000  0.000
  0.000  0.281  0.719  0.000  0.000
  0.000  0.719  0.281  0.000  0.000
  0.000  0.000  0.000  0.000  1.000
  1.000  0.000  0.000  0.000  0.000
    occupations:
  0.998 -0.000 -0.000  0.000  0.000
 -0.000  0.994 -0.000  0.000  0.000
 -0.000 -0.000  0.994  0.000  0.000
  0.000  0.000  0.000  1.002 -0.000
  0.000  0.000  0.000 -0.000  0.985
atomic mag. moment =    -4.256755
atom    5   Tr[ns(na)] (up, down, total) =   4.97593  0.71496  5.69088
   spin  1
    eigenvalues: 
  0.986  0.994  0.994  0.999  1.002
    eigenvectors:
  0.000  0.000  0.000  1.000  0.000
  0.000  0.268  0.732  0.000  0.000
  0.000  0.732  0.268  0.000  0.000
  0.000  0.000  0.000  0.000  1.000
  1.000  0.000  0.000  0.000  0.000
    occupations:
  0.999 -0.000 -0.000  0.000  0.000
 -0.000  0.994 -0.000  0.000  0.000
 -0.000 -0.000  0.994  0.000  0.000
  0.000  0.000  0.000  1.002 -0.000
  0.000  0.000  0.000 -0.000  0.986
   spin  2
    eigenvalues: 
  0.066  0.118  0.141  0.141  0.247
    eigenvectors:
  0.000  1.000  0.000  0.000  0.000
  0.000  0.000  0.319  0.681  0.000
  0.000  0.000  0.681  0.319  0.000
  1.000  0.000  0.000  0.000  0.000
  0.000  0.000  0.000  0.000  1.000
    occupations:
  0.118 -0.000 -0.000  0.000  0.000
 -0.000  0.141 -0.000  0.000  0.000
 -0.000 -0.000  0.141  0.000  0.000
  0.000  0.000  0.000  0.066 -0.000
  0.000  0.000  0.000 -0.000  0.247
atomic mag. moment =     4.260968
atom    6   Tr[ns(na)] (up, down, total) =   4.97266  0.74687  5.71954
   spin  1
    eigenvalues: 
  0.986  0.994  0.994  0.997  1.002
    eigenvectors:
  0.000  0.000  0.000  1.000  0.000
  0.000  0.331  0.669  0.000  0.000
  0.000  0.669  0.331  0.000  0.000
  0.000  0.000  0.000  0.000  1.000
  1.000  0.000  0.000  0.000  0.000
    occupations:
  0.997 -0.000 -0.000  0.000  0.000
 -0.000  0.994 -0.000  0.000  0.000
 -0.000 -0.000  0.994  0.000  0.000
  0.000  0.000  0.000  1.002 -0.000
  0.000  0.000  0.000 -0.000  0.986
   spin  2
    eigenvalues: 
  0.064  0.128  0.144  0.144  0.267
    eigenvectors:
  0.000  1.000  0.000  0.000  0.000
  0.000  0.000  0.264  0.736  0.000
  0.000  0.000  0.736  0.264  0.000
  1.000  0.000  0.000  0.000  0.000
  0.000  0.000  0.000  0.000  1.000
    occupations:
  0.128 -0.000 -0.000  0.000  0.000
 -0.000  0.144 -0.000  0.000  0.000
 -0.000 -0.000  0.144  0.000  0.000
  0.000  0.000  0.000  0.064 -0.000
  0.000  0.000  0.000 -0.000  0.267
atomic mag. moment =     4.225792
atom    7   Tr[ns(na)] (up, down, total) =   4.97592  0.71489  5.69081
   spin  1
    eigenvalues: 
  0.986  0.994  0.994  0.999  1.002
    eigenvectors:
  0.000  0.000  0.000  1.000  0.000
  0.000  0.282  0.718  0.000  0.000
  0.000  0.718  0.282  0.000  0.000
  0.000  0.000  0.000  0.000  1.000
  1.000  0.000  0.000  0.000  0.000
    occupations:
  0.999 -0.000 -0.000  0.000  0.000
 -0.000  0.994 -0.000  0.000  0.000
 -0.000 -0.000  0.994  0.000  0.000
  0.000  0.000  0.000  1.002 -0.000
  0.000  0.000  0.000 -0.000  0.986
   spin  2
    eigenvalues: 
  0.066  0.118  0.141  0.141  0.248
    eigenvectors:
  0.000  1.000  0.000  0.000  0.000
  0.000  0.000  0.337  0.663  0.000
  0.000  0.000  0.663  0.337  0.000
  1.000  0.000  0.000  0.000  0.000
  0.000  0.000  0.000  0.000  1.000
    occupations:
  0.118 -0.000 -0.000  0.000  0.000
 -0.000  0.141 -0.000  0.000  0.000
 -0.000 -0.000  0.141  0.000  0.000
  0.000  0.000  0.000  0.066 -0.000
  0.000  0.000  0.000 -0.000  0.248
atomic mag. moment =     4.261031
atom    8   Tr[ns(na)] (up, down, total) =   0.71646  4.97345  5.68991
   spin  1
    eigenvalues: 
  0.064  0.122  0.140  0.140  0.250
    eigenvectors:
  0.000  1.000  0.000  0.000  0.000
  0.000  0.000  0.315  0.685  0.000
  0.000  0.000  0.685  0.315  0.000
  1.000  0.000  0.000  0.000  0.000
  0.000  0.000  0.000  0.000  1.000
    occupations:
  0.122 -0.000 -0.000  0.000  0.000
 -0.000  0.140 -0.000  0.000  0.000
 -0.000 -0.000  0.140  0.000  0.000
  0.000  0.000  0.000  0.064 -0.000
  0.000  0.000  0.000 -0.000  0.250
   spin  2
    eigenvalues: 
  0.985  0.994  0.994  0.998  1.002
    eigenvectors:
  0.000  0.000  0.000  1.000  0.000
  0.000  0.295  0.705  0.000  0.000
  0.000  0.705  0.295  0.000  0.000
  0.000  0.000  0.000  0.000  1.000
  1.000  0.000  0.000  0.000  0.000
    occupations:
  0.998 -0.000 -0.000  0.000  0.000
 -0.000  0.994 -0.000  0.000  0.000
 -0.000 -0.000  0.994  0.000  0.000
  0.000  0.000  0.000  1.002 -0.000
  0.000  0.000  0.000 -0.000  0.985
atomic mag. moment =    -4.256995
N of occupied +U levels =   45.582469
 --- exit write_ns ---

 ------ SPIN UP ------------


          k = 0.0000 0.0000 0.0000 ( 14071 PWs)   bands (ev):

   -67.0279 -67.0276 -67.0274 -67.0272 -66.9201 -66.9200 -62.4838 -62.4829
   -35.8003 -35.7999 -35.7997 -35.7994 -35.7423 -35.7423 -35.7420 -35.7420
   -35.7419 -35.7419 -35.7417 -35.7417 -35.7057 -35.7056 -35.6296 -35.6296
   -35.6294 -35.6294 -31.3037 -31.3027 -31.3024 -31.3024 -31.3016 -31.3016
     5.5815   5.7091   5.7473   6.1036   6.2091   6.7596   6.8638   7.3992
     7.9872   8.2025   8.2095   8.2116   8.2498   8.3436   8.3705   8.3750
     8.5154   8.5216   8.6392   8.6586   8.6873   8.6993   8.9105   9.0680
     9.0776   9.1415   9.1683   9.2047   9.2728   9.4227   9.4235   9.5643
     9.7209   9.7281   9.8252   9.8446   9.8907   9.9185   9.9187   9.9347
     9.9347   9.9694   9.9694  10.0078  10.0078  10.0596  10.0715  10.1061
    10.1399  10.1399  10.1543  10.1543  10.3208  10.3208  10.3212  10.3212
    10.3414  10.3414  10.3682  10.3682  10.3904  10.3904  10.4009  10.4254
    10.4270  10.4270  10.4556  10.4556  10.4688  10.5297  10.5297  10.5615
    10.7052  10.7859  10.7859  10.7992  10.8642  10.8642  10.8729  10.9759
    11.0400  11.0509  11.0993  11.1899  11.1899  11.1943  11.2458  11.2665
    11.3443  11.3869  11.3869  11.4057  11.5232  11.6147  11.6158  11.6432
    11.6485  11.6538  11.6538  11.6794  11.8826  11.8893  11.8998  11.9182
    11.9182  11.9731  12.0768  12.0768  12.2832  12.3301  12.3916  12.3916
    12.4366  12.4366  12.5208  12.5467  12.5700  12.7101  12.7652  12.7700
    12.9563  13.4393  13.8639  14.6211  15.1664  15.9616  16.6529  16.6529
    16.6549  16.6549  16.6651  16.6653  16.8296  16.8308  17.0190  17.1780
    17.8136  18.7792  19.1141  19.8534  19.8534  20.1716  20.1716  20.2421
    20.2421  20.8510

          k = 0.0000 0.0000 0.0159 ( 14107 PWs)   bands (ev):

   -67.0279 -67.0276 -67.0274 -67.0272 -66.9201 -66.9200 -62.4838 -62.4829
   -35.8003 -35.7999 -35.7997 -35.7994 -35.7423 -35.7423 -35.7420 -35.7420
   -35.7419 -35.7419 -35.7417 -35.7417 -35.7057 -35.7056 -35.6296 -35.6296
   -35.6294 -35.6294 -31.3037 -31.3027 -31.3024 -31.3024 -31.3016 -31.3016
     5.5855   5.6803   5.7838   6.0539   6.2652   6.6817   6.9439   7.3662
     8.0201   8.2031   8.2109   8.2118   8.2451   8.3453   8.3686   8.3769
     8.4605   8.5039   8.6423   8.6839   8.7125   8.7166   8.9010   9.0738
     9.0902   9.1095   9.1599   9.1953   9.2978   9.4173   9.4338   9.5545
     9.7213   9.7275   9.8264   9.8433   9.8927   9.9170   9.9286   9.9360
     9.9360   9.9642   9.9642  10.0159  10.0159  10.0497  10.0737  10.1037
    10.1133  10.1133  10.1836  10.1836  10.3208  10.3208  10.3212  10.3212
    10.3305  10.3305  10.3682  10.3682  10.3796  10.3796  10.4051  10.4350
    10.4377  10.4377  10.4554  10.4554  10.4635  10.5435  10.5435  10.5519
    10.7119  10.7477  10.7477  10.7927  10.8809  10.9046  10.9046  10.9696
    11.0407  11.0501  11.1060  11.1633  11.1633  11.1878  11.2472  11.2651
    11.3486  11.4017  11.4129  11.4129  11.5296  11.6083  11.6177  11.6353
    11.6353  11.6414  11.6508  11.6775  11.8830  11.8889  11.9052  11.9330
    11.9330  11.9684  12.0678  12.0678  12.2865  12.3270  12.3954  12.3954
    12.4341  12.4341  12.5290  12.5485  12.5685  12.6861  12.7656  12.7697
    12.9916  13.3903  13.9238  14.5473  15.2450  15.9102  16.6531  16.6531
    16.6547  16.6547  16.6651  16.6653  16.8296  16.8309  17.0410  17.1733
    17.8512  18.6119  19.2976  19.8635  19.8635  20.0966  20.0966  20.3333
    20.3333  20.5734

          k = 0.0000 0.0000 0.0319 ( 14080 PWs)   bands (ev):

   -67.0279 -67.0276 -67.0274 -67.0272 -66.9201 -66.9200 -62.4838 -62.4829
   -35.8003 -35.7999 -35.7997 -35.7994 -35.7423 -35.7423 -35.7420 -35.7420
   -35.7419 -35.7419 -35.7417 -35.7417 -35.7057 -35.7056 -35.6296 -35.6296
   -35.6294 -35.6294 -31.3037 -31.3027 -31.3024 -31.3024 -31.3016 -31.3016
     5.5977   5.6456   5.8413   5.9790   6.3591   6.5714   7.0604   7.2838
     8.1018   8.2046   8.2091   8.2190   8.2331   8.3246   8.3501   8.3635
     8.4240   8.4772   8.6508   8.6748   8.7437   8.7821   8.9003   9.0403
     9.0900   9.1184   9.1389   9.1761   9.3387   9.4011   9.4605   9.5288
     9.7225   9.7261   9.8300   9.8397   9.8980   9.9120   9.9399   9.9399
     9.9548   9.9549   9.9549  10.0236  10.0340  10.0340  10.0798  10.0837
    10.0837  10.0971  10.2213  10.2213  10.2996  10.2996  10.3209  10.3209
    10.3211  10.3211  10.3686  10.3686  10.3718  10.3718  10.4165  10.4478
    10.4478  10.4498  10.4545  10.4545  10.4603  10.5267  10.5808  10.5808
    10.6889  10.6889  10.7293  10.7753  10.9015  10.9520  10.9702  10.9702
    11.0426  11.0480  11.1058  11.1058  11.1237  11.1705  11.2510  11.2613
    11.3602  11.3907  11.4684  11.4684  11.5464  11.5895  11.5895  11.5914
    11.6227  11.6363  11.6569  11.6723  11.8843  11.8877  11.9195  11.9556
    11.9677  11.9677  12.0431  12.0431  12.2954  12.3186  12.4048  12.4048
    12.4270  12.4270  12.5528  12.5530  12.5646  12.6380  12.7665  12.7688
    13.0737  13.2881  14.0583  14.3929  15.4126  15.7772  16.6534  16.6534
    16.6544  16.6544  16.6651  16.6653  16.8296  16.8308  17.0875  17.1581
    17.9629  18.3649  19.5956  19.8936  19.8936  20.0117  20.0117  20.2425
    20.4669  20.4669

          k = 0.0000 0.0000-0.0478 ( 14088 PWs)   bands (ev):

   -67.0279 -67.0276 -67.0274 -67.0272 -66.9201 -66.9200 -62.4838 -62.4829
   -35.8003 -35.7999 -35.7997 -35.7994 -35.7423 -35.7423 -35.7420 -35.7420
   -35.7419 -35.7419 -35.7417 -35.7417 -35.7057 -35.7056 -35.6296 -35.6296
   -35.6294 -35.6294 -31.3037 -31.3027 -31.3024 -31.3024 -31.3016 -31.3016
     5.6177   5.6178   5.9070   5.9070   6.4626   6.4626   7.1768   7.1769
     8.1988   8.1989   8.2068   8.2068   8.2377   8.2377   8.3568   8.3568
     8.4470   8.4470   8.6626   8.6627   8.7774   8.7774   8.9602   8.9602
     9.1133   9.1134   9.1493   9.1494   9.3745   9.3746   9.4948   9.4948
     9.7242   9.7243   9.8348   9.8348   9.9051   9.9052   9.9463   9.9463
     9.9464   9.9464   9.9892   9.9893  10.0570  10.0570  10.0571  10.0571
    10.0883  10.0884  10.2608  10.2608  10.2608  10.2608  10.3210  10.3210
    10.3210  10.3210  10.3693  10.3693  10.3694  10.3694  10.4326  10.4326
    10.4525  10.4525  10.4525  10.4525  10.4935  10.4935  10.6315  10.6315
    10.6316  10.6316  10.7523  10.7524  10.9275  10.9275  11.0388  11.0388
    11.0389  11.0389  11.0452  11.0453  11.1471  11.1472  11.2561  11.2562
    11.3756  11.3756  11.5306  11.5306  11.5306  11.5306  11.5689  11.5689
    11.6294  11.6296  11.6648  11.6648  11.8860  11.8861  11.9379  11.9379
    12.0076  12.0076  12.0076  12.0076  12.3071  12.3072  12.4165  12.4165
    12.4165  12.4165  12.5589  12.5590  12.5905  12.5905  12.7677  12.7677
    13.1768  13.1768  14.2217  14.2217  15.6009  15.6010  16.6537  16.6537
    16.6541  16.6541  16.6651  16.6653  16.8296  16.8308  17.1297  17.1301
    18.1400  18.1403  19.9147  19.9148  19.9433  19.9433  19.9434  19.9434
    20.6162  20.6162

          k = 0.0000 0.1667 0.0000 ( 14044 PWs)   bands (ev):

   -67.0275 -67.0272 -67.0270 -67.0268 -66.9197 -66.9196 -62.4838 -62.4829
   -35.8000 -35.7996 -35.7994 -35.7991 -35.7453 -35.7450 -35.7449 -35.7447
   -35.7422 -35.7419 -35.7417 -35.7415 -35.7055 -35.7053 -35.6326 -35.6324
   -35.6294 -35.6293 -31.3061 -31.3053 -31.3033 -31.3023 -31.3022 -31.3014
     6.0100   6.1319   6.1653   6.5020   6.5900   7.0952   7.1610   7.6194
     8.0229   8.3642   8.3703   8.4260   8.4316   8.4352   8.4532   8.5282
     8.5504   8.5719   8.6876   8.6998   8.7806   8.7863   8.8046   8.9174
     8.9770   9.0207   9.0322   9.1345   9.3416   9.4859   9.4872   9.5117
     9.5257   9.5350   9.5435   9.6105   9.6768   9.6824   9.6910   9.7292
     9.7298   9.7635   9.7734   9.8535   9.8594   9.8971   9.9967  10.0752
    10.0766  10.1489  10.1556  10.1952  10.2391  10.2409  10.2766  10.3410
    10.3565  10.4063  10.4099  10.4152  10.4384  10.4981  10.5537  10.5956
    10.6252  10.6621  10.6867  10.7503  10.7574  10.8062  10.8216  10.8347
    10.9266  10.9676  11.0129  11.0247  11.0283  11.0396  11.1243  11.1266
    11.1447  11.1452  11.1603  11.1834  11.2011  11.2555  11.2667  11.3186
    11.3328  11.4441  11.4788  11.4984  11.5342  11.5422  11.5561  11.6334
    11.6799  11.6811  11.6876  11.7215  11.7832  11.8547  11.8581  11.8959
    11.9976  12.0114  12.0600  12.0997  12.1735  12.1755  12.3508  12.3726
    12.4176  12.4255  12.4381  12.6628  12.6681  12.6703  12.6756  12.6808
    12.8909  13.5407  13.9390  14.8610  15.3747  16.1949  16.2745  16.3917
    16.6555  16.6578  16.6826  16.6838  16.8525  16.8531  17.2206  17.5585
    17.6019  17.8747  17.9787  18.0419  18.6901  18.8018  19.3783  19.5904
    19.7549  19.7563

          k = 0.0000 0.1667 0.0159 ( 14046 PWs)   bands (ev):

   -67.0275 -67.0272 -67.0270 -67.0268 -66.9197 -66.9196 -62.4838 -62.4829
   -35.8000 -35.7996 -35.7994 -35.7991 -35.7453 -35.7450 -35.7449 -35.7447
   -35.7422 -35.7419 -35.7417 -35.7415 -35.7055 -35.7053 -35.6326 -35.6324
   -35.6294 -35.6293 -31.3061 -31.3053 -31.3033 -31.3023 -31.3022 -31.3014
     6.0138   6.1039   6.2004   6.4539   6.6434   7.0196   7.2372   7.5919
     8.0472   8.3252   8.3724   8.4126   8.4321   8.4397   8.4871   8.5348
     8.5488   8.5794   8.6701   8.6980   8.7743   8.7791   8.8236   8.9130
     8.9879   9.0212   9.0314   9.1216   9.3541   9.4776   9.4869   9.5081
     9.5266   9.5352   9.5489   9.6049   9.6769   9.6800   9.6998   9.7293
     9.7297   9.7681   9.7698   9.8471   9.8628   9.8949  10.0001  10.0638
    10.0821  10.1487  10.1656  10.1999  10.2329  10.2475  10.2748  10.3418
    10.3509  10.3551  10.4163  10.4355  10.4667  10.5035  10.5509  10.5945
    10.6259  10.6630  10.6839  10.7305  10.7591  10.7944  10.8132  10.8765
    10.9114  10.9802  11.0119  11.0195  11.0287  11.0416  11.1127  11.1138
    11.1358  11.1605  11.1665  11.1899  11.2216  11.2569  11.2624  11.2993
    11.3325  11.4445  11.4735  11.4769  11.5453  11.5556  11.5652  11.6370
    11.6809  11.6840  11.6851  11.7310  11.7640  11.8550  11.8578  11.8829
    12.0139  12.0147  12.0569  12.1074  12.1640  12.1702  12.3572  12.3743
    12.4164  12.4349  12.4350  12.6335  12.6636  12.6687  12.6752  12.6801
    12.9428  13.4685  14.0221  14.7715  15.4624  16.1241  16.3115  16.3899
    16.6557  16.6576  16.6826  16.6838  16.8526  16.8531  17.2294  17.4856
    17.6292  17.8347  18.0751  18.0943  18.5869  18.9115  19.1455  19.5730
    19.8353  19.9378

          k = 0.0000 0.1667 0.0319 ( 14043 PWs)   bands (ev):

   -67.0275 -67.0272 -67.0270 -67.0268 -66.9197 -66.9196 -62.4838 -62.4829
   -35.8000 -35.7996 -35.7994 -35.7991 -35.7453 -35.7450 -35.7449 -35.7447
   -35.7422 -35.7419 -35.7417 -35.7415 -35.7055 -35.7053 -35.6326 -35.6324
   -35.6294 -35.6293 -31.3061 -31.3053 -31.3033 -31.3023 -31.3022 -31.3014
     6.0253   6.0709   6.2547   6.3836   6.7295   6.9206   7.3374   7.5237
     8.1061   8.2550   8.3788   8.4005   8.4334   8.4378   8.5226   8.5440
     8.5605   8.6025   8.6379   8.6757   8.7679   8.7750   8.8520   8.8999
     9.0151   9.0229   9.0298   9.0905   9.3840   9.4528   9.4900   9.5013
     9.5290   9.5344   9.5612   9.5917   9.6771   9.6783   9.7167   9.7294
     9.7296   9.7542   9.7865   9.8305   9.8709   9.8889  10.0097  10.0435
    10.0961  10.1331  10.2018  10.2088  10.2256  10.2551  10.2698  10.2967
    10.3441  10.3517  10.4193  10.4295  10.5162  10.5234  10.5427  10.5889
    10.6300  10.6659  10.6775  10.6852  10.7641  10.7805  10.8317  10.8846
    10.9229  10.9963  10.9972  11.0101  11.0395  11.0500  11.0824  11.0905
    11.1617  11.1675  11.1727  11.2038  11.2507  11.2536  11.2586  11.2614
    11.3391  11.4174  11.4574  11.4715  11.5534  11.5690  11.6042  11.6468
    11.6742  11.6835  11.6881  11.7186  11.7622  11.8493  11.8556  11.8574
    12.0237  12.0450  12.0544  12.1251  12.1343  12.1602  12.3703  12.3779
    12.4146  12.4265  12.4631  12.5683  12.6658  12.6695  12.6746  12.6783
    13.0529  13.3304  14.1925  14.5899  15.6373  15.9903  16.3490  16.3840
    16.6561  16.6572  16.6826  16.6838  16.8526  16.8531  17.2574  17.3859
    17.6632  17.7687  18.1972  18.2880  18.4506  18.8429  19.0678  19.4012
    20.0897  20.1938

          k = 0.0000 0.1667-0.0478 ( 14036 PWs)   bands (ev):

   -67.0275 -67.0272 -67.0270 -67.0268 -66.9197 -66.9196 -62.4838 -62.4829
   -35.8000 -35.7996 -35.7994 -35.7991 -35.7453 -35.7450 -35.7449 -35.7447
   -35.7422 -35.7419 -35.7417 -35.7415 -35.7055 -35.7053 -35.6326 -35.6324
   -35.6294 -35.6293 -31.3061 -31.3053 -31.3033 -31.3023 -31.3022 -31.3014
     6.0444   6.0445   6.3162   6.3162   6.8230   6.8230   7.4350   7.4351
     8.1792   8.1793   8.3885   8.3886   8.4355   8.4355   8.5363   8.5363
     8.6004   8.6004   8.6386   8.6386   8.7701   8.7701   8.8788   8.8789
     9.0253   9.0253   9.0530   9.0531   9.4196   9.4196   9.4949   9.4949
     9.5320   9.5321   9.5762   9.5762   9.6775   9.6775   9.7294   9.7294
     9.7361   9.7362   9.8085   9.8086   9.8804   9.8804  10.0245  10.0246
    10.1144  10.1145  10.2177  10.2177  10.2465  10.2465  10.2628  10.2629
    10.3476  10.3477  10.4238  10.4238  10.5304  10.5305  10.5685  10.5685
    10.6460  10.6460  10.6708  10.6709  10.7714  10.7715  10.8568  10.8568
    10.9633  10.9634  11.0065  11.0065  11.0570  11.0571  11.0677  11.0678
    11.1723  11.1723  11.1970  11.1971  11.2377  11.2378  11.2651  11.2652
    11.3700  11.3700  11.4640  11.4641  11.5630  11.5631  11.6565  11.6565
    11.6660  11.6660  11.6866  11.6866  11.8059  11.8060  11.8565  11.8565
    12.0356  12.0356  12.0947  12.0948  12.1444  12.1444  12.3787  12.3787
    12.4173  12.4174  12.5086  12.5086  12.6683  12.6683  12.6760  12.6760
    13.1862  13.1862  14.3888  14.3888  15.8226  15.8227  16.3715  16.3718
    16.6566  16.6568  16.6826  16.6838  16.8526  16.8531  17.3080  17.3085
    17.7094  17.7095  18.3174  18.3175  18.5533  18.5534  19.2321  19.2321
    20.2713  20.2714

          k = 0.0000 0.3333 0.0000 ( 14062 PWs)   bands (ev):

   -67.0278 -67.0275 -67.0273 -67.0271 -66.9200 -66.9199 -62.4828 -62.4819
   -35.7995 -35.7991 -35.7988 -35.7985 -35.7511 -35.7508 -35.7507 -35.7505
   -35.7418 -35.7415 -35.7414 -35.7412 -35.7049 -35.7048 -35.6384 -35.6383
   -35.6291 -35.6289 -31.3136 -31.3128 -31.3025 -31.3017 -31.3015 -31.3009
     7.1476   7.2465   7.2614   7.5069   7.5333   7.7846   7.8063   7.9436
     7.9940   8.0847   8.0939   8.2252   8.2434   8.4062   8.4428   8.5902
     8.6998   8.7311   8.7932   8.8054   8.8937   8.9317   8.9464   8.9628
     8.9738   9.1103   9.1123   9.1156   9.1393   9.1707   9.2079   9.2799
     9.2827   9.3075   9.3478   9.4445   9.4780   9.4855   9.5642   9.5807
     9.5944   9.7253   9.7737   9.8582   9.9006   9.9135   9.9251  10.2044
    10.2099  10.2541  10.2573  10.2781  10.3096  10.3179  10.3615  10.4012
    10.5510  10.5819  10.5831  10.6264  10.6934  10.7243  10.7685  10.9177
    10.9812  10.9924  10.9962  11.0101  11.0380  11.0893  11.1572  11.1621
    11.1748  11.1939  11.2149  11.2449  11.2539  11.2550  11.2742  11.2943
    11.3006  11.3375  11.3918  11.4300  11.4604  11.4962  11.4981  11.5264
    11.5524  11.5664  11.5749  11.6136  11.6182  11.6610  11.7432  11.7475
    11.7723  11.8046  11.8155  11.8441  11.8513  11.8518  11.8640  11.9661
    11.9920  12.1739  12.1748  12.1750  12.1910  12.2405  12.3654  12.4882
    12.5114  12.5347  12.5914  12.5942  12.7078  12.7383  12.7422  12.7682
    12.7809  13.7914  13.9919  14.3878  14.5773  14.6261  15.0513  15.1277
    15.1958  15.3720  15.9361  15.9755  16.0615  16.2279  16.5427  16.5439
    16.7964  16.8657  16.8787  17.1576  17.1582  17.1696  17.6413  17.7847
    18.9099  19.2051

          k = 0.0000 0.3333 0.0159 ( 14056 PWs)   bands (ev):

   -67.0278 -67.0275 -67.0273 -67.0271 -66.9200 -66.9199 -62.4828 -62.4819
   -35.7995 -35.7991 -35.7988 -35.7985 -35.7511 -35.7508 -35.7507 -35.7505
   -35.7418 -35.7415 -35.7414 -35.7412 -35.7049 -35.7048 -35.6384 -35.6383
   -35.6291 -35.6289 -31.3136 -31.3128 -31.3025 -31.3017 -31.3015 -31.3009
     7.1506   7.2216   7.2910   7.4686   7.5718   7.7547   7.8326   7.9351
     8.0010   8.0690   8.1107   8.2056   8.2643   8.3861   8.4631   8.5802
     8.7084   8.7344   8.7871   8.7970   8.8963   8.9291   8.9608   8.9639
     8.9743   9.1104   9.1118   9.1171   9.1370   9.1477   9.2120   9.2682
     9.2912   9.3070   9.3696   9.4436   9.4830   9.4908   9.5555   9.5836
     9.5939   9.6929   9.7804   9.8530   9.9016   9.9127   9.9585  10.1979
    10.2123  10.2526  10.2589  10.2671  10.2902  10.3064  10.3800  10.4272
    10.5273  10.5845  10.5869  10.6098  10.7276  10.7344  10.7733  10.9216
    10.9479  10.9775  10.9909  11.0316  11.0554  11.0752  11.0882  11.1757
    11.1924  11.1971  11.2164  11.2248  11.2528  11.2673  11.2717  11.3098
    11.3367  11.3506  11.3939  11.4304  11.4593  11.4830  11.5020  11.5181
    11.5289  11.5360  11.6103  11.6201  11.6486  11.6580  11.7424  11.7440
    11.7614  11.8078  11.8292  11.8428  11.8456  11.8505  11.8538  11.9599
    12.0083  12.1553  12.1761  12.1816  12.1904  12.2570  12.3589  12.4758
    12.4892  12.5077  12.5415  12.5912  12.7385  12.7419  12.7692  12.7802
    12.8441  13.6557  14.1192  14.4018  14.5213  14.6901  14.9392  15.0790
    15.2945  15.4185  15.8879  15.9412  16.1019  16.2326  16.5427  16.5439
    16.7973  16.8377  16.9241  17.1561  17.1576  17.1582  17.6503  17.7748
    18.9134  19.1320

          k = 0.0000 0.3333 0.0319 ( 14062 PWs)   bands (ev):

   -67.0278 -67.0275 -67.0273 -67.0271 -66.9200 -66.9199 -62.4828 -62.4819
   -35.7995 -35.7991 -35.7988 -35.7985 -35.7511 -35.7508 -35.7507 -35.7505
   -35.7418 -35.7415 -35.7414 -35.7412 -35.7049 -35.7048 -35.6384 -35.6383
   -35.6291 -35.6289 -31.3136 -31.3128 -31.3025 -31.3017 -31.3015 -31.3009
     7.1597   7.1956   7.3309   7.4208   7.6202   7.7129   7.8638   7.9160
     8.0157   8.0505   8.1325   8.1802   8.2933   8.3552   8.4947   8.5564
     8.7281   8.7441   8.7715   8.7785   8.9039   8.9225   8.9664   8.9705
     9.0004   9.0998   9.1106   9.1113   9.1207   9.1317   9.2228   9.2531
     9.2980   9.3054   9.4078   9.4402   9.4967   9.5131   9.5372   9.5872
     9.5924   9.6283   9.7973   9.8387   9.9042   9.9105  10.0265  10.1646
    10.2195  10.2480  10.2492  10.2518  10.2746  10.2972  10.4209  10.4618
    10.5031  10.5286  10.5947  10.6254  10.7511  10.7839  10.7974  10.9122
    10.9232  10.9432  10.9716  10.9898  11.0704  11.0776  11.0849  11.1665
    11.1829  11.1891  11.2196  11.2199  11.2530  11.2650  11.2952  11.3326
    11.3543  11.4029  11.4164  11.4264  11.4572  11.4577  11.4682  11.5031
    11.5129  11.5333  11.6260  11.6446  11.6542  11.7019  11.7199  11.7463
    11.7531  11.8046  11.8167  11.8377  11.8432  11.8483  11.8722  11.9403
    12.0428  12.1204  12.1791  12.1874  12.2053  12.2865  12.3413  12.3471
    12.4920  12.5017  12.5553  12.5827  12.7392  12.7411  12.7718  12.7781
    13.0378  13.4515  14.2838  14.4539  14.4579  14.7535  14.7963  14.9846
    15.4217  15.4942  15.8154  15.8646  16.1612  16.2307  16.5427  16.5439
    16.8004  16.8178  16.9895  17.1171  17.1576  17.1582  17.6754  17.7475
    18.9299  19.0393

          k = 0.0000 0.3333-0.0478 ( 14060 PWs)   bands (ev):

   -67.0278 -67.0275 -67.0273 -67.0271 -66.9200 -66.9199 -62.4828 -62.4819
   -35.7995 -35.7991 -35.7988 -35.7985 -35.7511 -35.7508 -35.7507 -35.7505
   -35.7418 -35.7415 -35.7414 -35.7412 -35.7049 -35.7048 -35.6384 -35.6383
   -35.6291 -35.6289 -31.3136 -31.3128 -31.3025 -31.3017 -31.3015 -31.3009
     7.1748   7.1749   7.3745   7.3745   7.6677   7.6677   7.8917   7.8918
     8.0327   8.0327   8.1557   8.1558   8.3239   8.3239   8.5266   8.5267
     8.7507   8.7507   8.7594   8.7594   8.9135   8.9135   8.9688   8.9689
     9.0478   9.0479   9.1108   9.1109   9.1258   9.1258   9.2372   9.2373
     9.3025   9.3026   9.4310   9.4311   9.5161   9.5161   9.5622   9.5622
     9.5901   9.5901   9.8187   9.8187   9.9074   9.9074  10.1003  10.1004
    10.2314  10.2315  10.2468  10.2469  10.2849  10.2849  10.4719  10.4720
    10.4847  10.4847  10.6128  10.6129  10.7827  10.7828  10.8617  10.8617
    10.9183  10.9183  10.9616  10.9617  11.0793  11.0794  11.1236  11.1237
    11.1851  11.1851  11.2217  11.2217  11.2573  11.2574  11.3203  11.3203
    11.3973  11.3974  11.4266  11.4267  11.4481  11.4481  11.4720  11.4721
    11.5263  11.5263  11.6363  11.6364  11.6874  11.6874  11.7493  11.7494
    11.7551  11.7551  11.8280  11.8280  11.8465  11.8465  11.9076  11.9077
    12.0817  12.0818  12.1832  12.1833  12.2566  12.2566  12.3160  12.3160
    12.4964  12.4964  12.5700  12.5700  12.7401  12.7401  12.7751  12.7751
    13.2426  13.2426  14.3861  14.3861  14.5911  14.5912  14.8834  14.8835
    15.5070  15.5071  15.7995  15.7995  16.2069  16.2069  16.5427  16.5439
    16.8063  16.8067  17.0582  17.0584  17.1576  17.1582  17.7106  17.7112
    18.9703  18.9704

          k = 0.0000-0.5000 0.0000 ( 14098 PWs)   bands (ev):

   -67.0285 -67.0282 -67.0280 -67.0278 -66.9207 -66.9206 -62.4819 -62.4810
   -35.7992 -35.7988 -35.7985 -35.7982 -35.7539 -35.7536 -35.7535 -35.7533
   -35.7416 -35.7413 -35.7412 -35.7410 -35.7046 -35.7045 -35.6412 -35.6411
   -35.6289 -35.6287 -31.3174 -31.3167 -31.3021 -31.3015 -31.3011 -31.3007
     7.9215   7.9252   7.9383   7.9602   7.9836   8.0370   8.0608   8.1100
     8.1247   8.2000   8.2347   8.2803   8.3051   8.3276   8.4440   8.4699
     8.4984   8.6198   8.6399   8.6692   8.9344   8.9505   8.9511   8.9605
     9.0039   9.0685   9.1062   9.1078   9.1167   9.1526   9.1568   9.2322
     9.3201   9.4600   9.4608   9.4633   9.5087   9.5209   9.5526   9.5683
     9.6180   9.6489   9.6747   9.8277   9.8334   9.8362   9.8731   9.9085
     9.9519  10.1780  10.2652  10.2670  10.2980  10.3068  10.3285  10.3392
    10.3408  10.4965  10.4968  10.8988  10.9187  10.9601  11.0006  11.0521
    11.0685  11.1045  11.1237  11.2563  11.2693  11.2727  11.2951  11.3002
    11.3003  11.3114  11.3114  11.3592  11.3769  11.3858  11.4003  11.4196
    11.4239  11.4966  11.5303  11.5623  11.5694  11.5834  11.6300  11.6585
    11.6597  11.8451  11.8706  11.8902  11.9928  12.0141  12.1286  12.1310
    12.1322  12.1544  12.1927  12.2723  12.3146  12.3502  12.3562  12.3636
    12.3680  12.3753  12.4349  12.4547  12.5139  12.5726  12.5746  12.5786
    12.6577  12.6849  12.7158  12.7631  12.7891  12.8042  12.8045  12.8117
    12.8633  13.0710  13.1656  13.1958  13.4408  13.5303  13.6517  13.6974
    14.0385  14.1300  14.1767  14.2455  14.4716  14.5293  16.3203  16.3792
    16.5068  16.5080  16.5881  16.5910  17.2820  17.2825  17.6505  17.6728
    19.0233  19.1061

          k = 0.0000-0.5000 0.0159 ( 14106 PWs)   bands (ev):

   -67.0285 -67.0282 -67.0280 -67.0278 -66.9207 -66.9206 -62.4819 -62.4810
   -35.7992 -35.7988 -35.7985 -35.7982 -35.7539 -35.7536 -35.7535 -35.7533
   -35.7416 -35.7413 -35.7412 -35.7410 -35.7046 -35.7045 -35.6412 -35.6411
   -35.6289 -35.6287 -31.3174 -31.3167 -31.3021 -31.3015 -31.3011 -31.3007
     7.9224   7.9264   7.9369   7.9540   7.9919   8.0404   8.0556   8.0970
     8.1377   8.1962   8.2413   8.2826   8.3038   8.3211   8.4442   8.4614
     8.5138   8.6133   8.6417   8.6671   8.9357   8.9505   8.9511   8.9580
     9.0114   9.0737   9.1063   9.1077   9.1086   9.1453   9.1616   9.2268
     9.3299   9.4487   9.4610   9.4632   9.5098   9.5209   9.5539   9.5675
     9.6201   9.6470   9.6870   9.8176   9.8336   9.8360   9.8785   9.9226
     9.9468  10.1872  10.2090  10.2653  10.2669  10.2905  10.3391  10.3404
    10.4330  10.4965  10.4968  10.8613  10.9268  10.9618  10.9955  11.0415
    11.0804  11.1182  11.1225  11.2564  11.2606  11.2751  11.2832  11.3011
    11.3067  11.3083  11.3160  11.3478  11.3577  11.3768  11.4368  11.4371
    11.4400  11.4944  11.5298  11.5635  11.5749  11.5815  11.6110  11.6586
    11.6596  11.8282  11.8647  11.9002  12.0072  12.0263  12.0837  12.1288
    12.1319  12.1850  12.1992  12.2752  12.3167  12.3434  12.3470  12.3639
    12.3647  12.3677  12.4400  12.4726  12.5073  12.5727  12.5745  12.5853
[...]
    11.3419  11.3422  11.5079  11.5983  11.6811  11.6822  11.7054  11.7154
    11.7548  11.8005  11.8075  11.8396  11.9590  11.9976  12.0193  12.0283
    12.1892  12.2048  12.2583  12.2713  12.3606  12.4102  12.5716  12.6640
    12.8844  12.9967  13.3954  13.5483  13.9230  14.1102  14.5059  14.6179
    15.4637  15.4681  15.4830  15.4904  15.5319  15.5344  15.7917  15.8320
    16.2985  16.3127  16.5370  16.5728  16.6461  16.6508  16.8816  16.8912
    16.9446  16.9500  17.0398  17.0430  17.0438  17.0744  17.2874  17.2949
    17.3141  17.3209  17.6126  17.6136  17.7122  17.7291  17.9168  18.0388
    18.0556  18.1437  18.1468  18.2104  18.5086  18.5326  18.5637  18.6763
    18.7748  18.9067

          k = 0.3333 0.3333-0.0478 ( 14082 PWs)   bands (ev):

   -67.0919 -67.0913 -62.4139 -62.4137 -62.4136 -62.4135 -62.3419 -62.3416
   -35.8637 -35.8628 -35.8149 -35.8149 -35.8145 -35.8144 -31.2446 -31.2444
   -31.2443 -31.2443 -31.2442 -31.2441 -31.2440 -31.2439 -31.2340 -31.2338
   -31.2337 -31.2336 -31.1733 -31.1730 -31.1682 -31.1680 -31.1679 -31.1677
     7.9037   7.9038   8.2856   8.2856   8.4873   8.4873   8.6574   8.6574
     8.8034   8.8035   8.8692   8.8693   9.0305   9.0306   9.1749   9.1750
     9.1808   9.1809   9.2216   9.2216   9.2575   9.2575   9.3094   9.3094
     9.3747   9.3747   9.4363   9.4364   9.4574   9.4574   9.6144   9.6144
     9.6262   9.6263   9.7407   9.7410   9.8361   9.8361   9.8429   9.8429
     9.9495   9.9496  10.0811  10.0811  10.1571  10.1571  10.2219  10.2219
    10.3594  10.3594  10.4494  10.4494  10.4915  10.4915  10.5149  10.5149
    10.5917  10.5917  10.7841  10.7841  10.8635  10.8636  10.9747  10.9748
    11.0874  11.0875  11.0906  11.0906  11.1314  11.1314  11.2500  11.2501
    11.3419  11.3422  11.5545  11.5546  11.6815  11.6817  11.7101  11.7101
    11.7803  11.7803  11.8225  11.8226  11.9793  11.9793  12.0240  12.0241
    12.1973  12.1975  12.2639  12.2640  12.3834  12.3835  12.6160  12.6161
    12.9417  12.9417  13.4675  13.4676  14.0179  14.0179  14.5680  14.5680
    15.4655  15.4656  15.4869  15.4870  15.5331  15.5333  15.8119  15.8119
    16.3055  16.3055  16.5544  16.5547  16.6488  16.6489  16.8864  16.8865
    16.9473  16.9473  17.0415  17.0416  17.0589  17.0591  17.2913  17.2914
    17.3176  17.3176  17.6131  17.6131  17.7207  17.7207  17.9691  17.9693
    18.0918  18.0919  18.1726  18.1727  18.5717  18.5717  18.6357  18.6357
    18.8067  18.8068

          k = 0.3333-0.5000 0.0000 ( 14154 PWs)   bands (ev):

   -67.0921 -67.0914 -62.4135 -62.4133 -62.4132 -62.4130 -62.3415 -62.3412
   -35.8635 -35.8626 -35.8176 -35.8172 -35.8146 -35.8142 -31.2482 -31.2480
   -31.2479 -31.2478 -31.2441 -31.2439 -31.2438 -31.2437 -31.2338 -31.2335
   -31.2335 -31.2333 -31.1730 -31.1728 -31.1718 -31.1716 -31.1677 -31.1675
     8.1694   8.1777   8.1928   8.2171   8.5073   8.5535   8.5943   8.6194
     8.8121   8.8984   8.9077   8.9082   8.9169   8.9624   9.0085   9.0085
     9.0182   9.0868   9.1173   9.1643   9.1884   9.2040   9.2294   9.2737
     9.3369   9.3713   9.3947   9.4266   9.5131   9.5195   9.5903   9.7013
     9.7217   9.7500   9.7918   9.8106   9.8861   9.8901   9.9336  10.0108
    10.0712  10.1131  10.2069  10.2334  10.2462  10.3873  10.4049  10.4451
    10.5509  10.5740  10.5859  10.6112  10.6614  10.7122  10.8124  10.8208
    10.8351  10.8701  10.9424  10.9675  11.0370  11.0932  11.1110  11.1286
    11.2000  11.2355  11.2420  11.2865  11.3024  11.3056  11.4721  11.4836
    11.6566  11.6740  11.6993  11.7003  11.7089  11.7283  11.8150  11.8193
    11.8747  11.8778  11.9427  11.9784  12.0432  12.0602  12.0645  12.1167
    12.1394  12.1894  12.6309  12.7216  12.7501  12.7831  12.8738  12.9811
    13.2681  13.3316  13.7303  13.8689  13.9089  13.9945  13.9977  14.2978
    14.3453  14.4615  14.5660  14.5748  14.8559  14.9074  15.3754  15.4254
    16.3791  16.3831  16.7609  16.7890  16.8368  16.8562  16.8752  16.8803
    16.8804  16.8831  16.8889  16.9034  16.9829  17.2249  17.3735  17.4423
    17.4849  17.6384  17.6403  17.7131  17.7607  17.8668  17.8844  17.9062
    18.0040  18.1322  18.2368  18.2379  18.3614  18.3776  18.8842  19.0598
    19.0673  19.0724

          k = 0.3333-0.5000 0.0159 ( 14140 PWs)   bands (ev):

   -67.0921 -67.0914 -62.4135 -62.4133 -62.4132 -62.4130 -62.3415 -62.3412
   -35.8635 -35.8626 -35.8176 -35.8172 -35.8146 -35.8142 -31.2482 -31.2480
   -31.2479 -31.2478 -31.2441 -31.2439 -31.2438 -31.2437 -31.2338 -31.2335
   -31.2335 -31.2333 -31.1730 -31.1728 -31.1718 -31.1716 -31.1677 -31.1675
     8.1700   8.1771   8.1942   8.2152   8.5133   8.5560   8.5913   8.6085
     8.8249   8.8976   8.9078   8.9090   8.9149   8.9707   8.9925   9.0091
     9.0176   9.0759   9.1296   9.1656   9.1862   9.2012   9.2379   9.2750
     9.3345   9.3603   9.3988   9.4417   9.4838   9.5508   9.5753   9.6959
     9.7154   9.7717   9.7935   9.8068   9.8894   9.8911   9.9273   9.9971
    10.0771  10.1123  10.2219  10.2335  10.2446  10.3777  10.4029  10.4416
    10.5529  10.5832  10.5842  10.6127  10.6617  10.7075  10.8147  10.8224
    10.8342  10.8628  10.9461  10.9782  11.0230  11.0911  11.1078  11.1454
    11.1979  11.2157  11.2589  11.2874  11.3011  11.3037  11.4729  11.4829
    11.6577  11.6727  11.6994  11.7003  11.7101  11.7270  11.8153  11.8190
    11.8749  11.8776  11.9442  11.9742  12.0440  12.0617  12.0673  12.1227
    12.1349  12.1848  12.6373  12.7257  12.7378  12.7789  12.8855  12.9758
    13.2724  13.3273  13.7365  13.8510  13.9144  13.9883  14.0203  14.2522
    14.3891  14.4685  14.5587  14.5655  14.8602  14.9046  15.3790  15.4223
    16.3794  16.3829  16.7659  16.7915  16.8313  16.8597  16.8714  16.8746
    16.8803  16.8804  16.8889  16.8921  17.0110  17.2093  17.3773  17.4364
    17.4970  17.6262  17.6467  17.7092  17.7715  17.8613  17.8854  17.9038
    18.0130  18.1348  18.1951  18.2163  18.3995  18.4350  18.8113  18.9607
    19.0704  19.0762

          k = 0.3333-0.5000 0.0319 ( 14128 PWs)   bands (ev):

   -67.0921 -67.0914 -62.4135 -62.4133 -62.4132 -62.4130 -62.3415 -62.3412
   -35.8635 -35.8626 -35.8176 -35.8172 -35.8146 -35.8142 -31.2482 -31.2480
   -31.2479 -31.2478 -31.2441 -31.2439 -31.2438 -31.2437 -31.2338 -31.2335
   -31.2335 -31.2333 -31.1730 -31.1728 -31.1718 -31.1716 -31.1677 -31.1675
     8.1714   8.1755   8.1982   8.2103   8.5300   8.5630   8.5833   8.5833
     8.8546   8.8944   8.9083   8.9118   8.9128   8.9586   8.9915   9.0108
     9.0159   9.0502   9.1534   9.1693   9.1809   9.1921   9.2560   9.2768
     9.3298   9.3427   9.4107   9.4546   9.4720   9.5433   9.5862   9.6593
     9.7440   9.7925   9.7944   9.7972   9.8945   9.9031   9.9138   9.9657
    10.0897  10.1090  10.2343  10.2408  10.2578  10.3446  10.4091  10.4324
    10.5587  10.5761  10.6037  10.6157  10.6651  10.6943  10.8202  10.8273
    10.8312  10.8486  10.9572  10.9984  11.0027  11.0623  11.1347  11.1650
    11.1904  11.1915  11.2754  11.2900  11.2979  11.2980  11.4751  11.4808
    11.6607  11.6693  11.6997  11.7002  11.7136  11.7233  11.8162  11.8183
    11.8755  11.8770  11.9486  11.9650  12.0465  12.0560  12.0841  12.1222
    12.1374  12.1725  12.6550  12.7107  12.7369  12.7675  12.9108  12.9607
    13.2840  13.3157  13.7544  13.8163  13.9294  13.9719  14.0690  14.1894
    14.4463  14.4875  14.5387  14.5392  14.8711  14.8964  15.3887  15.4137
    16.3801  16.3821  16.7809  16.7983  16.8203  16.8373  16.8653  16.8728
    16.8803  16.8804  16.8889  16.8895  17.0627  17.1697  17.3881  17.4217
    17.5263  17.5974  17.6626  17.6982  17.7955  17.8455  17.8882  17.8984
    18.0384  18.1321  18.1432  18.1837  18.4805  18.5441  18.6947  18.8145
    19.0716  19.0750

          k = 0.3333-0.5000-0.0478 ( 14140 PWs)   bands (ev):

   -67.0921 -67.0914 -62.4135 -62.4133 -62.4132 -62.4130 -62.3415 -62.3412
   -35.8635 -35.8626 -35.8176 -35.8172 -35.8146 -35.8142 -31.2482 -31.2480
   -31.2479 -31.2478 -31.2441 -31.2439 -31.2438 -31.2437 -31.2338 -31.2335
   -31.2335 -31.2333 -31.1730 -31.1728 -31.1718 -31.1716 -31.1677 -31.1675
     8.1734   8.1735   8.2040   8.2040   8.5548   8.5548   8.5729   8.5729
     8.8828   8.8828   8.9095   8.9095   8.9268   8.9269   9.0124   9.0124
     9.0207   9.0207   9.1743   9.1744   9.1761   9.1762   9.2716   9.2716
     9.3309   9.3309   9.4297   9.4297   9.5072   9.5072   9.6224   9.6224
     9.7726   9.7727   9.7992   9.7993   9.9018   9.9019   9.9306   9.9307
    10.1016  10.1016  10.2368  10.2368  10.3015  10.3015  10.4204  10.4204
    10.5670  10.5671  10.6151  10.6151  10.6770  10.6771  10.8263  10.8264
    10.8358  10.8361  10.9752  10.9752  11.0321  11.0322  11.1631  11.1631
    11.1804  11.1807  11.2885  11.2885  11.2937  11.2938  11.4779  11.4781
    11.6649  11.6649  11.6999  11.7000  11.7183  11.7184  11.8172  11.8173
    11.8762  11.8763  11.9557  11.9558  12.0505  12.0506  12.1040  12.1040
    12.1554  12.1554  12.6809  12.6809  12.7521  12.7521  12.9379  12.9379
    13.2999  13.2999  13.7820  13.7820  13.9503  13.9504  14.1272  14.1272
    14.4976  14.4977  14.5132  14.5133  14.8844  14.8845  15.4014  15.4014
    16.3811  16.3811  16.8051  16.8053  16.8084  16.8087  16.8697  16.8698
    16.8803  16.8804  16.8889  16.8892  17.1181  17.1181  17.4039  17.4041
    17.5621  17.5622  17.6815  17.6815  17.8222  17.8223  17.8926  17.8928
    18.0785  18.0786  18.1589  18.1589  18.5814  18.5814  18.6730  18.6731
    19.0733  19.0733

          k =-0.5000-0.5000 0.0000 ( 14124 PWs)   bands (ev):

   -67.0920 -67.0914 -62.4133 -62.4130 -62.4130 -62.4128 -62.3413 -62.3410
   -35.8633 -35.8625 -35.8174 -35.8174 -35.8169 -35.8169 -31.2478 -31.2478
   -31.2476 -31.2476 -31.2476 -31.2476 -31.2474 -31.2474 -31.2336 -31.2333
   -31.2333 -31.2331 -31.1728 -31.1726 -31.1714 -31.1714 -31.1712 -31.1712
     8.0284   8.0370   8.0657   8.0859   8.4432   8.4656   8.5334   8.6059
     8.6715   8.7921   8.9943   8.9993   9.0048   9.0396   9.0607   9.0607
     9.0828   9.0828   9.1497   9.1497   9.1932   9.2274   9.2662   9.2662
     9.2682   9.2682   9.5097   9.5097   9.5134   9.5134   9.6534   9.6534
     9.6564   9.6564   9.6869   9.7249   9.8225   9.8225   9.9188   9.9188
    10.2708  10.2708  10.3404  10.3889  10.3889  10.4238  10.4273  10.4834
    10.4865  10.5010  10.7619  10.7619  10.9611  10.9611  10.9924  10.9934
    11.0217  11.0276  11.1331  11.1335  11.2345  11.2345  11.6711  11.6711
    11.7001  11.7002  11.7544  11.7544  11.7552  11.7552  11.7805  11.7806
    11.7816  11.7816  11.7979  11.7979  11.8473  11.8474  11.8476  11.8477
    11.8803  11.8803  11.9144  11.9164  11.9716  11.9860  12.0205  12.0222
    12.0581  12.0710  13.1934  13.2040  13.2070  13.2180  13.2239  13.2240
    13.7193  13.7193  13.8403  13.8403  14.0767  14.0767  14.2352  14.2352
    14.4689  14.4689  14.5223  14.5223  15.6541  15.6541  15.6572  15.6572
    16.3548  16.3696  16.5446  16.6526  16.6744  16.6823  16.7735  16.8927
    16.8927  16.9719  17.1073  17.1073  17.3418  17.3418  17.4466  17.4638
    17.5290  17.8209  17.8348  17.8395  17.8396  17.8397  17.8397  17.9161
    17.9366  17.9367  17.9568  17.9921  17.9921  18.1307  18.1307  18.3084
    18.4722  18.4882

          k =-0.5000-0.5000 0.0159 ( 14144 PWs)   bands (ev):

   -67.0920 -67.0914 -62.4133 -62.4130 -62.4130 -62.4128 -62.3413 -62.3410
   -35.8633 -35.8625 -35.8174 -35.8174 -35.8169 -35.8169 -31.2478 -31.2478
   -31.2476 -31.2476 -31.2476 -31.2476 -31.2474 -31.2474 -31.2336 -31.2333
   -31.2333 -31.2331 -31.1728 -31.1726 -31.1714 -31.1714 -31.1712 -31.1712
     8.0290   8.0364   8.0670   8.0843   8.4497   8.4692   8.5275   8.5775
     8.7042   8.8025   8.9391   8.9673   9.0504   9.0618   9.0618   9.0762
     9.0805   9.0805   9.1547   9.1547   9.1868   9.2197   9.2370   9.2370
     9.3004   9.3004   9.4635   9.4635   9.5621   9.5621   9.6532   9.6532
     9.6568   9.6568   9.6897   9.7226   9.7894   9.7894   9.9546   9.9546
    10.2303  10.2303  10.3435  10.4047  10.4310  10.4310  10.4458  10.4836
    10.4863  10.4985  10.7295  10.7295  10.9916  10.9916  10.9925  10.9933
    11.0221  11.0272  11.1331  11.1335  11.2191  11.2191  11.6806  11.6806
    11.7001  11.7002  11.7544  11.7544  11.7552  11.7552  11.7755  11.7755
    11.7805  11.7806  11.7979  11.7979  11.8473  11.8474  11.8476  11.8477
    11.8803  11.8803  11.9145  11.9163  11.9725  11.9849  12.0206  12.0221
    12.0591  12.0703  13.1938  13.2020  13.2090  13.2176  13.2239  13.2240
    13.7255  13.7255  13.8286  13.8286  14.0901  14.0901  14.2252  14.2252
    14.4738  14.4738  14.5196  14.5196  15.6543  15.6543  15.6570  15.6570
    16.3556  16.3684  16.5496  16.6392  16.6750  16.6818  16.7914  16.9012
    16.9012  16.9584  17.0770  17.0770  17.3862  17.3862  17.4511  17.4829
    17.5221  17.7801  17.8287  17.8395  17.8396  17.8397  17.8397  17.8876
    17.8876  17.9107  17.9366  17.9367  18.0106  18.2425  18.2425  18.2913
    18.4734  18.4872

          k =-0.5000-0.5000 0.0319 ( 14180 PWs)   bands (ev):

   -67.0920 -67.0914 -62.4133 -62.4130 -62.4130 -62.4128 -62.3413 -62.3410
   -35.8633 -35.8625 -35.8174 -35.8174 -35.8169 -35.8169 -31.2478 -31.2478
   -31.2476 -31.2476 -31.2476 -31.2476 -31.2474 -31.2474 -31.2336 -31.2333
   -31.2333 -31.2331 -31.1728 -31.1726 -31.1714 -31.1714 -31.1712 -31.1712
     8.0305   8.0348   8.0704   8.0804   8.4684   8.4797   8.5128   8.5354
     8.7592   8.8308   8.8792   8.9177   9.0647   9.0647   9.0752   9.0752
     9.0980   9.1227   9.1679   9.1679   9.1680   9.1978   9.2102   9.2102
     9.3367   9.3367   9.4183   9.4183   9.6137   9.6137   9.6524   9.6524
     9.6588   9.6588   9.6972   9.7162   9.7340   9.7340  10.0184  10.0184
    10.1608  10.1608  10.3526  10.3847  10.4641  10.4842  10.4857  10.4912
    10.5050  10.5050  10.6617  10.6617  10.9927  10.9932  11.0232  11.0261
    11.0534  11.0534  11.1331  11.1335  11.1776  11.1776  11.7001  11.7002
    11.7042  11.7042  11.7544  11.7544  11.7552  11.7552  11.7583  11.7583
    11.7805  11.7806  11.7979  11.7979  11.8473  11.8474  11.8476  11.8477
    11.8803  11.8803  11.9149  11.9159  11.9748  11.9820  12.0209  12.0218
    12.0618  12.0682  13.1949  13.1992  13.2118  13.2163  13.2239  13.2240
    13.7432  13.7432  13.8011  13.8011  14.1227  14.1227  14.1985  14.1985
    14.4858  14.4858  14.5117  14.5117  15.6549  15.6549  15.6564  15.6564
    16.3580  16.3654  16.5638  16.6124  16.6764  16.6803  16.8313  16.9236
    16.9265  16.9265  17.0203  17.0203  17.4641  17.4848  17.4848  17.5045
    17.5347  17.6929  17.7439  17.7439  17.8395  17.8396  17.8397  17.8397
    17.8485  17.8953  17.9366  17.9367  18.0954  18.2443  18.4074  18.4074
    18.4764  18.4844

          k =-0.5000-0.5000-0.0478 ( 14176 PWs)   bands (ev):

   -67.0920 -67.0914 -62.4133 -62.4130 -62.4130 -62.4128 -62.3413 -62.3410
   -35.8633 -35.8625 -35.8174 -35.8174 -35.8169 -35.8169 -31.2478 -31.2478
   -31.2476 -31.2476 -31.2476 -31.2476 -31.2474 -31.2474 -31.2336 -31.2333
   -31.2333 -31.2331 -31.1728 -31.1726 -31.1714 -31.1714 -31.1712 -31.1712
     8.0326   8.0326   8.0752   8.0752   8.4952   8.4952   8.4978   8.4978
     8.8186   8.8186   8.8708   8.8708   9.0694   9.0694   9.0694   9.0694
     9.1378   9.1379   9.1644   9.1645   9.1869   9.1869   9.1870   9.1870
     9.3760   9.3760   9.3761   9.3761   9.6481   9.6481   9.6483   9.6483
     9.6804   9.6804   9.6805   9.6805   9.7069   9.7070  10.0886  10.0886
    10.0886  10.0886  10.3668  10.3668  10.4795  10.4795  10.4849  10.4850
    10.5840  10.5840  10.5840  10.5840  10.9929  10.9930  11.0244  11.0249
    11.1192  11.1192  11.1193  11.1193  11.1331  11.1335  11.7001  11.7002
    11.7327  11.7327  11.7328  11.7328  11.7544  11.7544  11.7552  11.7552
    11.7805  11.7806  11.7979  11.7979  11.8473  11.8474  11.8476  11.8477
    11.8803  11.8803  11.9153  11.9155  11.9783  11.9783  12.0213  12.0213
    12.0651  12.0651  13.1968  13.1968  13.2143  13.2144  13.2239  13.2240
    13.7699  13.7699  13.7700  13.7700  14.1618  14.1618  14.1619  14.1619
    14.4996  14.4996  14.4998  14.4998  15.6556  15.6556  15.6557  15.6557
    16.3615  16.3616  16.5855  16.5856  16.6782  16.6784  16.8782  16.8783
    16.9670  16.9670  16.9673  16.9673  17.4831  17.4832  17.6073  17.6073
    17.6074  17.6074  17.6079  17.6079  17.8395  17.8396  17.8397  17.8397
    17.8729  17.8730  17.9366  17.9367  18.1762  18.1763  18.4804  18.4805
    18.5775  18.5775

     the Fermi energy is    15.0345 ev

!    total energy              =  -14694.01723411 Ry
     Harris-Foulkes estimate   =  -14694.01723257 Ry
     estimated scf accuracy    <       0.00000076 Ry

     total all-electron energy =   -626921.612956 Ry

     The total energy is the sum of the following terms:

     one-electron contribution =    -729.73151005 Ry
     hartree contribution      =     661.41627108 Ry
     xc contribution           =    -737.67801555 Ry
     ewald contribution        =   -2186.64874840 Ry
     Hubbard energy            =       0.44119601 Ry
     one-center paw contrib.   =  -11701.81642719 Ry

     total magnetization       =    17.43 Bohr mag/cell
     absolute magnetization    =    37.35 Bohr mag/cell

     convergence has been achieved in  34 iterations

     Writing output data file mnau2.save/
 
     init_run     :     23.62s CPU     24.33s WALL (       1 calls)
     electrons    :   1695.75s CPU   1735.75s WALL (       1 calls)

     Called by init_run:
     wfcinit      :     21.82s CPU     22.41s WALL (       1 calls)
     potinit      :      0.81s CPU      0.84s WALL (       1 calls)
     hinit0       :      0.56s CPU      0.59s WALL (       1 calls)

     Called by electrons:
     c_bands      :   1486.75s CPU   1520.36s WALL (      34 calls)
     sum_band     :    185.25s CPU    191.22s WALL (      34 calls)
     v_of_rho     :      2.02s CPU      2.04s WALL (      35 calls)
     newd         :      5.14s CPU      5.21s WALL (      35 calls)
     PAW_pot      :     16.59s CPU     16.83s WALL (      35 calls)
     mix_rho      :      0.47s CPU      0.50s WALL (      34 calls)

     Called by c_bands:
     init_us_2    :      9.10s CPU      9.18s WALL (    5600 calls)
     cegterg      :   1431.31s CPU   1463.67s WALL (    2720 calls)

     Called by sum_band:
     sum_band:bec :      2.34s CPU      2.36s WALL (    2720 calls)
     addusdens    :      8.92s CPU      9.41s WALL (      34 calls)

     Called by *egterg:
     h_psi        :    625.51s CPU    642.66s WALL (    8448 calls)
     s_psi        :     90.78s CPU     90.87s WALL (    8528 calls)
     g_psi        :      2.39s CPU      2.40s WALL (    5648 calls)
     cdiaghg      :    492.99s CPU    507.02s WALL (    8368 calls)

     Called by h_psi:
     h_psi:pot    :    584.37s CPU    601.22s WALL (    8448 calls)
     h_psi:calbec :    104.66s CPU    108.11s WALL (    8448 calls)
     vloc_psi     :    391.94s CPU    405.22s WALL (    8448 calls)
     add_vuspsi   :     87.67s CPU     87.83s WALL (    8448 calls)
     vhpsi        :     39.28s CPU     39.55s WALL (    8448 calls)

     General routines
     calbec       :    183.91s CPU    189.46s WALL (   22416 calls)
     fft          :      1.59s CPU      1.63s WALL (     871 calls)
     ffts         :      0.11s CPU      0.11s WALL (     138 calls)
     fftw         :    466.60s CPU    482.80s WALL ( 2505570 calls)
     interpolate  :      0.17s CPU      0.17s WALL (      70 calls)
     davcio       :      0.00s CPU      0.01s WALL (      80 calls)
 
     Parallel routines
     fft_scatt_xy :     24.42s CPU     25.01s WALL ( 2506579 calls)
     fft_scatt_yz :    313.54s CPU    325.54s WALL ( 2506579 calls)

     Hubbard U routines
     new_ns       :      8.73s CPU      9.08s WALL (      34 calls)
     vhpsi        :     39.28s CPU     39.55s WALL (    8448 calls)
 
     PWSCF        : 28m49.51s CPU    29m55.03s WALL

 
   This run was terminated on:  18:47:29  29Mar2019            

=------------------------------------------------------------------------------=
   JOB DONE.
=------------------------------------------------------------------------------=
