
     Program PWSCF v.6.3MaX starts on  1Apr2019 at 17: 9:23 

     This program is part of the open-source Quantum ESPRESSO suite
     for quantum simulation of materials; please cite
         "P. Giannozzi et al., J. Phys.:Condens. Matter 21 395502 (2009);
         "P. Giannozzi et al., J. Phys.:Condens. Matter 29 465901 (2017);
          URL http://www.quantum-espresso.org", 
     in publications or presentations arising from this work. More details at
     http://www.quantum-espresso.org/quote

     Parallel version (MPI), running on    22 processors

     MPI processes distributed on     3 nodes
     R & G space division:  proc/nbgrp/npool/nimage =      22
     Waiting for input...
     Reading input from standard input

     Current dimensions of program PWSCF are:
     Max number of different atomic species (ntypx) = 10
     Max number of k-points (npk) =  40000
     Max angular momentum in pseudopotentials (lmaxx) =  3
     Message from routine read_upf::
     Pseudo file ./pseudo/Mn.pbe-spn-kjpaw_psl.0.3.1.UPF has been successfully fixed on the fly.
To avoid this message in the future you can permanently fix 
 your pseudo files following instructions given in: 
https://gitlab.com/QEF/q-e/blob/master/upftools/how_to_fix_upf.md
               file Mn.pbe-spn-kjpaw_psl.0.3.1.UPF: wavefunction(s)  3P 3D renormalized
     Message from routine read_upf::
     Pseudo file ./pseudo/Mn.pbe-spn-kjpaw_psl.0.3.1.UPF has been successfully fixed on the fly.
To avoid this message in the future you can permanently fix 
 your pseudo files following instructions given in: 
https://gitlab.com/QEF/q-e/blob/master/upftools/how_to_fix_upf.md
               file Mn.pbe-spn-kjpaw_psl.0.3.1.UPF: wavefunction(s)  3P 3D renormalized
     Message from routine read_upf::
     Pseudo file ./pseudo/Au.pbe-dn-kjpaw_psl.0.1.UPF has been successfully fixed on the fly.
To avoid this message in the future you can permanently fix 
 your pseudo files following instructions given in: 
https://gitlab.com/QEF/q-e/blob/master/upftools/how_to_fix_upf.md
               file Au.pbe-dn-kjpaw_psl.0.1.UPF: wavefunction(s)  6S 6P 5D renormalized

     Subspace diagonalization in iterative solution of the eigenvalue problem:
     one sub-group per band group will be used
     scalapack distributed-memory algorithm (size of sub-group:  3*  3 procs)

 
     Parallelization info
     --------------------
     sticks:   dense  smooth     PW     G-vecs:    dense   smooth      PW
     Min          59      26      8                16953     5108     850
     Max          60      27      9                17006     5141     893
     Sum        1313     593    177               373547   112863   18983
 


     bravais-lattice index     =            0
     lattice parameter (alat)  =       6.4153  a.u.
     unit-cell volume          =    2762.7331 (a.u.)^3
     number of atoms/cell      =           24
     number of atomic types    =            3
     number of electrons       =       296.00
     number of Kohn-Sham states=          178
     kinetic-energy cutoff     =      45.0000  Ry
     charge density cutoff     =     400.0000  Ry
     convergence threshold     =      1.0E-06
     mixing beta               =       0.1000
     number of iterations used =            8  plain     mixing
     Exchange-correlation      = SLA PW PBX PBC ( 1  4  3  4 0 0)

     celldm(1)=   6.415315  celldm(2)=   0.000000  celldm(3)=   0.000000
     celldm(4)=   0.000000  celldm(5)=   0.000000  celldm(6)=   0.000000

     crystal axes: (cart. coord. in units of alat)
               a(1) = (   1.000000   0.000000   0.000000 )  
               a(2) = (   0.000000   1.000000   0.000000 )  
               a(3) = (   0.000000   0.000000  10.463692 )  

     reciprocal axes: (cart. coord. in units 2 pi/alat)
               b(1) = (  1.000000  0.000000  0.000000 )  
               b(2) = (  0.000000  1.000000  0.000000 )  
               b(3) = (  0.000000  0.000000  0.095569 )  


     PseudoPot. # 1 for Mn read from file:
     ./pseudo/Mn.pbe-spn-kjpaw_psl.0.3.1.UPF
     MD5 check sum: 7eef95dd2aae66803482eea66ebeebf1
     Pseudo is Projector augmented-wave + core cor, Zval = 15.0
     Generated using "atomic" code by A. Dal Corso v.5.0.99 svn rev. 10869
     Shape of augmentation charge: PSQ
     Using radial grid of 1187 points,  6 beta functions with: 
                l(1) =   0
                l(2) =   0
                l(3) =   1
                l(4) =   1
                l(5) =   2
                l(6) =   2
     Q(r) pseudized with 0 coefficients 


     PseudoPot. # 2 for Mn read from file:
     ./pseudo/Mn.pbe-spn-kjpaw_psl.0.3.1.UPF
     MD5 check sum: 7eef95dd2aae66803482eea66ebeebf1
     Pseudo is Projector augmented-wave + core cor, Zval = 15.0
     Generated using "atomic" code by A. Dal Corso v.5.0.99 svn rev. 10869
     Shape of augmentation charge: PSQ
     Using radial grid of 1187 points,  6 beta functions with: 
                l(1) =   0
                l(2) =   0
                l(3) =   1
                l(4) =   1
                l(5) =   2
                l(6) =   2
     Q(r) pseudized with 0 coefficients 


     PseudoPot. # 3 for Au read from file:
     ./pseudo/Au.pbe-dn-kjpaw_psl.0.1.UPF
     MD5 check sum: 5c9b92683623e7ae2ab3f8e525febab6
     Pseudo is Projector augmented-wave + core cor, Zval = 11.0
     Generated using "atomic" code by A. Dal Corso v.5.0.2 svn rev. 9415
     Shape of augmentation charge: PSQ
     Using radial grid of 1279 points,  6 beta functions with: 
                l(1) =   0
                l(2) =   0
                l(3) =   1
                l(4) =   1
                l(5) =   2
                l(6) =   2
     Q(r) pseudized with 0 coefficients 


     atomic species   valence    mass     pseudopotential
        Mn1           15.00    54.93800     Mn( 1.00)
        Mn2           15.00    54.93800     Mn( 1.00)
        Au            11.00   196.96600     Au( 1.00)

     Starting magnetic structure 
     atomic species   magnetization
        Mn1          0.800
        Mn2         -0.800
        Au           0.000


     Full LDA+U calculation (l_max = 2) with parameters (eV):
     U(  1) =   3.1200   J(  1) =   0.7000   B(  1) =   0.0803
     U(  2) =   3.1200   J(  2) =   0.7000   B(  2) =   0.0803



      8 Sym. Ops. (no inversion) found



   Cartesian axes

     site n.     atom                  positions (alat units)
         1           Mn1 tau(   1) = (   0.0000000   0.0000000   0.0000000  )
         2           Mn1 tau(   2) = (   0.5000000   0.5000000   1.3079615  )
         3           Mn1 tau(   3) = (   0.0000000   0.0000000   2.6159231  )
         4           Mn2 tau(   4) = (   0.5000000   0.5000000   3.9238846  )
         5           Mn1 tau(   5) = (   0.0000000   0.0000000   5.2318461  )
         6           Mn1 tau(   6) = (   0.5000000   0.5000000   6.5398077  )
         7           Mn2 tau(   7) = (   0.0000000   0.0000000   7.8477692  )
         8           Mn2 tau(   8) = (   0.5000000   0.5000000   9.1557307  )
         9           Au  tau(   9) = (   0.5000000   0.5000000   0.4185477  )
        10           Au  tau(  10) = (   0.0000000   0.0000000   0.8894138  )
        11           Au  tau(  11) = (   0.0000000   0.0000000   1.7265092  )
        12           Au  tau(  12) = (   0.5000000   0.5000000   2.1973754  )
        13           Au  tau(  13) = (   0.5000000   0.5000000   3.0344708  )
        14           Au  tau(  14) = (   0.0000000   0.0000000   3.5053369  )
        15           Au  tau(  15) = (   0.0000000   0.0000000   4.3424323  )
        16           Au  tau(  16) = (   0.5000000   0.5000000   4.8132984  )
        17           Au  tau(  17) = (   0.5000000   0.5000000   5.6503938  )
        18           Au  tau(  18) = (   0.0000000   0.0000000   6.1212600  )
        19           Au  tau(  19) = (   0.0000000   0.0000000   6.9583554  )
        20           Au  tau(  20) = (   0.5000000   0.5000000   7.4292215  )
        21           Au  tau(  21) = (   0.5000000   0.5000000   8.2663169  )
        22           Au  tau(  22) = (   0.0000000   0.0000000   8.7371830  )
        23           Au  tau(  23) = (   0.0000000   0.0000000   9.5742784  )
        24           Au  tau(  24) = (   0.5000000   0.5000000  10.0451446  )

     number of k points=    18 (tetrahedron method)
                       cart. coord. in units 2pi/alat
        k(    1) = (   0.0000000   0.0000000   0.0000000), wk =   0.0156250
        k(    2) = (   0.0000000   0.0000000   0.0238921), wk =   0.0312500
        k(    3) = (   0.0000000   0.0000000  -0.0477843), wk =   0.0156250
        k(    4) = (   0.0000000   0.2500000   0.0000000), wk =   0.0625000
        k(    5) = (   0.0000000   0.2500000   0.0238921), wk =   0.1250000
        k(    6) = (   0.0000000   0.2500000  -0.0477843), wk =   0.0625000
        k(    7) = (   0.0000000  -0.5000000   0.0000000), wk =   0.0312500
        k(    8) = (   0.0000000  -0.5000000   0.0238921), wk =   0.0625000
        k(    9) = (   0.0000000  -0.5000000  -0.0477843), wk =   0.0312500
        k(   10) = (   0.2500000   0.2500000   0.0000000), wk =   0.0625000
        k(   11) = (   0.2500000   0.2500000   0.0238921), wk =   0.1250000
        k(   12) = (   0.2500000   0.2500000  -0.0477843), wk =   0.0625000
        k(   13) = (   0.2500000  -0.5000000   0.0000000), wk =   0.0625000
        k(   14) = (   0.2500000  -0.5000000   0.0238921), wk =   0.1250000
        k(   15) = (   0.2500000  -0.5000000  -0.0477843), wk =   0.0625000
        k(   16) = (  -0.5000000  -0.5000000   0.0000000), wk =   0.0156250
        k(   17) = (  -0.5000000  -0.5000000   0.0238921), wk =   0.0312500
        k(   18) = (  -0.5000000  -0.5000000  -0.0477843), wk =   0.0156250

     Dense  grid:   373547 G-vectors     FFT dimensions: (  45,  45, 432)

     Smooth grid:   112863 G-vectors     FFT dimensions: (  27,  27, 288)

     Estimated max dynamical RAM per process >     157.92 MB

     Estimated total dynamical RAM >       3.39 GB
     Generating pointlists ...
     new r_m :   0.3389 (alat units)  2.1745 (a.u.) for type    1
     new r_m :   0.3389 (alat units)  2.1745 (a.u.) for type    2
     new r_m :   0.3389 (alat units)  2.1745 (a.u.) for type    3

     Check: negative/imaginary core charge=   -0.000006    0.000000

     Initial potential from superposition of free atoms

     starting charge  295.99426, renormalised to  296.00000
     Number of +U iterations with fixed ns =  0
     Starting occupations:
 --- enter write_ns ---
 LDA+U parameters:
U(  1) =   3.1200   J(  1) =   0.7000   B(  1) =   0.0803
U(  2) =   3.1200   J(  2) =   0.7000   B(  2) =   0.0803
atom    1   Tr[ns(na)] (up, down, total) =   5.00000  0.00000  5.00000
   spin  1
    eigenvalues: 
  1.000  1.000  1.000  1.000  1.000
    eigenvectors:
  1.000  0.000  0.000  0.000  0.000
  0.000  1.000  0.000  0.000  0.000
  0.000  0.000  1.000  0.000  0.000
  0.000  0.000  0.000  1.000  0.000
  0.000  0.000  0.000  0.000  1.000
    occupations:
  1.000  0.000  0.000  0.000  0.000
  0.000  1.000  0.000  0.000  0.000
  0.000  0.000  1.000  0.000  0.000
  0.000  0.000  0.000  1.000  0.000
  0.000  0.000  0.000  0.000  1.000
   spin  2
    eigenvalues: 
  0.000  0.000  0.000  0.000  0.000
    eigenvectors:
  1.000  0.000  0.000  0.000  0.000
  0.000  1.000  0.000  0.000  0.000
  0.000  0.000  1.000  0.000  0.000
  0.000  0.000  0.000  1.000  0.000
  0.000  0.000  0.000  0.000  1.000
    occupations:
  0.000  0.000  0.000  0.000  0.000
  0.000  0.000  0.000  0.000  0.000
  0.000  0.000  0.000  0.000  0.000
  0.000  0.000  0.000  0.000  0.000
  0.000  0.000  0.000  0.000  0.000
atomic mag. moment =     5.000000
atom    2   Tr[ns(na)] (up, down, total) =   5.00000  0.00000  5.00000
   spin  1
    eigenvalues: 
  1.000  1.000  1.000  1.000  1.000
    eigenvectors:
  1.000  0.000  0.000  0.000  0.000
  0.000  1.000  0.000  0.000  0.000
  0.000  0.000  1.000  0.000  0.000
  0.000  0.000  0.000  1.000  0.000
  0.000  0.000  0.000  0.000  1.000
    occupations:
  1.000  0.000  0.000  0.000  0.000
  0.000  1.000  0.000  0.000  0.000
  0.000  0.000  1.000  0.000  0.000
  0.000  0.000  0.000  1.000  0.000
  0.000  0.000  0.000  0.000  1.000
   spin  2
    eigenvalues: 
  0.000  0.000  0.000  0.000  0.000
    eigenvectors:
  1.000  0.000  0.000  0.000  0.000
  0.000  1.000  0.000  0.000  0.000
  0.000  0.000  1.000  0.000  0.000
  0.000  0.000  0.000  1.000  0.000
  0.000  0.000  0.000  0.000  1.000
    occupations:
  0.000  0.000  0.000  0.000  0.000
  0.000  0.000  0.000  0.000  0.000
  0.000  0.000  0.000  0.000  0.000
  0.000  0.000  0.000  0.000  0.000
  0.000  0.000  0.000  0.000  0.000
atomic mag. moment =     5.000000
atom    3   Tr[ns(na)] (up, down, total) =   5.00000  0.00000  5.00000
   spin  1
    eigenvalues: 
  1.000  1.000  1.000  1.000  1.000
    eigenvectors:
  1.000  0.000  0.000  0.000  0.000
  0.000  1.000  0.000  0.000  0.000
  0.000  0.000  1.000  0.000  0.000
  0.000  0.000  0.000  1.000  0.000
  0.000  0.000  0.000  0.000  1.000
    occupations:
  1.000  0.000  0.000  0.000  0.000
  0.000  1.000  0.000  0.000  0.000
  0.000  0.000  1.000  0.000  0.000
  0.000  0.000  0.000  1.000  0.000
  0.000  0.000  0.000  0.000  1.000
   spin  2
    eigenvalues: 
  0.000  0.000  0.000  0.000  0.000
    eigenvectors:
  1.000  0.000  0.000  0.000  0.000
  0.000  1.000  0.000  0.000  0.000
  0.000  0.000  1.000  0.000  0.000
  0.000  0.000  0.000  1.000  0.000
  0.000  0.000  0.000  0.000  1.000
    occupations:
  0.000  0.000  0.000  0.000  0.000
  0.000  0.000  0.000  0.000  0.000
  0.000  0.000  0.000  0.000  0.000
  0.000  0.000  0.000  0.000  0.000
  0.000  0.000  0.000  0.000  0.000
atomic mag. moment =     5.000000
atom    4   Tr[ns(na)] (up, down, total) =   0.00000  5.00000  5.00000
   spin  1
    eigenvalues: 
  0.000  0.000  0.000  0.000  0.000
    eigenvectors:
  1.000  0.000  0.000  0.000  0.000
  0.000  1.000  0.000  0.000  0.000
  0.000  0.000  1.000  0.000  0.000
  0.000  0.000  0.000  1.000  0.000
  0.000  0.000  0.000  0.000  1.000
    occupations:
  0.000  0.000  0.000  0.000  0.000
  0.000  0.000  0.000  0.000  0.000
  0.000  0.000  0.000  0.000  0.000
  0.000  0.000  0.000  0.000  0.000
  0.000  0.000  0.000  0.000  0.000
   spin  2
    eigenvalues: 
  1.000  1.000  1.000  1.000  1.000
    eigenvectors:
  1.000  0.000  0.000  0.000  0.000
  0.000  1.000  0.000  0.000  0.000
  0.000  0.000  1.000  0.000  0.000
  0.000  0.000  0.000  1.000  0.000
  0.000  0.000  0.000  0.000  1.000
    occupations:
  1.000  0.000  0.000  0.000  0.000
  0.000  1.000  0.000  0.000  0.000
  0.000  0.000  1.000  0.000  0.000
  0.000  0.000  0.000  1.000  0.000
  0.000  0.000  0.000  0.000  1.000
atomic mag. moment =    -5.000000
atom    5   Tr[ns(na)] (up, down, total) =   5.00000  0.00000  5.00000
   spin  1
    eigenvalues: 
  1.000  1.000  1.000  1.000  1.000
    eigenvectors:
  1.000  0.000  0.000  0.000  0.000
  0.000  1.000  0.000  0.000  0.000
  0.000  0.000  1.000  0.000  0.000
  0.000  0.000  0.000  1.000  0.000
  0.000  0.000  0.000  0.000  1.000
    occupations:
  1.000  0.000  0.000  0.000  0.000
  0.000  1.000  0.000  0.000  0.000
  0.000  0.000  1.000  0.000  0.000
  0.000  0.000  0.000  1.000  0.000
  0.000  0.000  0.000  0.000  1.000
   spin  2
    eigenvalues: 
  0.000  0.000  0.000  0.000  0.000
    eigenvectors:
  1.000  0.000  0.000  0.000  0.000
  0.000  1.000  0.000  0.000  0.000
  0.000  0.000  1.000  0.000  0.000
  0.000  0.000  0.000  1.000  0.000
  0.000  0.000  0.000  0.000  1.000
    occupations:
  0.000  0.000  0.000  0.000  0.000
  0.000  0.000  0.000  0.000  0.000
  0.000  0.000  0.000  0.000  0.000
  0.000  0.000  0.000  0.000  0.000
  0.000  0.000  0.000  0.000  0.000
atomic mag. moment =     5.000000
atom    6   Tr[ns(na)] (up, down, total) =   5.00000  0.00000  5.00000
   spin  1
    eigenvalues: 
  1.000  1.000  1.000  1.000  1.000
    eigenvectors:
  1.000  0.000  0.000  0.000  0.000
  0.000  1.000  0.000  0.000  0.000
  0.000  0.000  1.000  0.000  0.000
  0.000  0.000  0.000  1.000  0.000
  0.000  0.000  0.000  0.000  1.000
    occupations:
  1.000  0.000  0.000  0.000  0.000
  0.000  1.000  0.000  0.000  0.000
  0.000  0.000  1.000  0.000  0.000
  0.000  0.000  0.000  1.000  0.000
  0.000  0.000  0.000  0.000  1.000
   spin  2
    eigenvalues: 
  0.000  0.000  0.000  0.000  0.000
    eigenvectors:
  1.000  0.000  0.000  0.000  0.000
  0.000  1.000  0.000  0.000  0.000
  0.000  0.000  1.000  0.000  0.000
  0.000  0.000  0.000  1.000  0.000
  0.000  0.000  0.000  0.000  1.000
    occupations:
  0.000  0.000  0.000  0.000  0.000
  0.000  0.000  0.000  0.000  0.000
  0.000  0.000  0.000  0.000  0.000
  0.000  0.000  0.000  0.000  0.000
  0.000  0.000  0.000  0.000  0.000
atomic mag. moment =     5.000000
atom    7   Tr[ns(na)] (up, down, total) =   0.00000  5.00000  5.00000
   spin  1
    eigenvalues: 
  0.000  0.000  0.000  0.000  0.000
    eigenvectors:
  1.000  0.000  0.000  0.000  0.000
  0.000  1.000  0.000  0.000  0.000
  0.000  0.000  1.000  0.000  0.000
  0.000  0.000  0.000  1.000  0.000
  0.000  0.000  0.000  0.000  1.000
    occupations:
  0.000  0.000  0.000  0.000  0.000
  0.000  0.000  0.000  0.000  0.000
  0.000  0.000  0.000  0.000  0.000
  0.000  0.000  0.000  0.000  0.000
  0.000  0.000  0.000  0.000  0.000
   spin  2
    eigenvalues: 
  1.000  1.000  1.000  1.000  1.000
    eigenvectors:
  1.000  0.000  0.000  0.000  0.000
  0.000  1.000  0.000  0.000  0.000
  0.000  0.000  1.000  0.000  0.000
  0.000  0.000  0.000  1.000  0.000
  0.000  0.000  0.000  0.000  1.000
    occupations:
  1.000  0.000  0.000  0.000  0.000
  0.000  1.000  0.000  0.000  0.000
  0.000  0.000  1.000  0.000  0.000
  0.000  0.000  0.000  1.000  0.000
  0.000  0.000  0.000  0.000  1.000
atomic mag. moment =    -5.000000
atom    8   Tr[ns(na)] (up, down, total) =   0.00000  5.00000  5.00000
   spin  1
    eigenvalues: 
  0.000  0.000  0.000  0.000  0.000
    eigenvectors:
  1.000  0.000  0.000  0.000  0.000
  0.000  1.000  0.000  0.000  0.000
  0.000  0.000  1.000  0.000  0.000
  0.000  0.000  0.000  1.000  0.000
  0.000  0.000  0.000  0.000  1.000
    occupations:
  0.000  0.000  0.000  0.000  0.000
  0.000  0.000  0.000  0.000  0.000
  0.000  0.000  0.000  0.000  0.000
  0.000  0.000  0.000  0.000  0.000
  0.000  0.000  0.000  0.000  0.000
   spin  2
    eigenvalues: 
  1.000  1.000  1.000  1.000  1.000
    eigenvectors:
  1.000  0.000  0.000  0.000  0.000
  0.000  1.000  0.000  0.000  0.000
  0.000  0.000  1.000  0.000  0.000
  0.000  0.000  0.000  1.000  0.000
  0.000  0.000  0.000  0.000  1.000
    occupations:
  1.000  0.000  0.000  0.000  0.000
  0.000  1.000  0.000  0.000  0.000
  0.000  0.000  1.000  0.000  0.000
  0.000  0.000  0.000  1.000  0.000
  0.000  0.000  0.000  0.000  1.000
atomic mag. moment =    -5.000000
N of occupied +U levels =   40.000000
 --- exit write_ns ---
 Atomic wfc used for LDA+U Projector are NOT orthogonalized
     Starting wfcs are  224 randomized atomic wfcs
     Checking if some PAW data can be deallocated... 

     total cpu time spent up to now is       31.0 secs

     Self-consistent Calculation

     iteration #  1     ecut=    45.00 Ry     beta= 0.10
     Davidson diagonalization with overlap
     ethr =  1.00E-02,  avg # of iterations =  4.2
 --- enter write_ns ---
 LDA+U parameters:
U(  1) =   3.1200   J(  1) =   0.7000   B(  1) =   0.0803
U(  2) =   3.1200   J(  2) =   0.7000   B(  2) =   0.0803
atom    1   Tr[ns(na)] (up, down, total) =   5.01744  0.39806  5.41550
   spin  1
    eigenvalues: 
  1.003  1.003  1.003  1.004  1.004
    eigenvectors:
  0.000  0.000  0.000  1.000  0.000
  0.000  0.282  0.718  0.000  0.000
  0.000  0.718  0.282  0.000  0.000
  0.000  0.000  0.000  0.000  1.000
  1.000  0.000  0.000  0.000  0.000
    occupations:
  1.004 -0.000 -0.000  0.000  0.000
 -0.000  1.003 -0.000  0.000  0.000
 -0.000 -0.000  1.003  0.000  0.000
  0.000  0.000  0.000  1.004 -0.000
  0.000  0.000  0.000 -0.000  1.003
   spin  2
    eigenvalues: 
  0.049  0.071  0.081  0.081  0.115
    eigenvectors:
  0.000  1.000  0.000  0.000  0.000
  0.000  0.000  0.316  0.684  0.000
  0.000  0.000  0.684  0.316  0.000
  1.000  0.000  0.000  0.000  0.000
  0.000  0.000  0.000  0.000  1.000
    occupations:
  0.071 -0.000 -0.000  0.000  0.000
 -0.000  0.081 -0.000  0.000  0.000
 -0.000 -0.000  0.081  0.000  0.000
  0.000  0.000  0.000  0.049 -0.000
  0.000  0.000  0.000 -0.000  0.115
atomic mag. moment =     4.619379
atom    2   Tr[ns(na)] (up, down, total) =   5.01776  0.39973  5.41749
   spin  1
    eigenvalues: 
  1.003  1.003  1.003  1.004  1.004
    eigenvectors:
  0.000  0.000  0.000  1.000  0.000
  0.000  0.244  0.756  0.000  0.000
  0.000  0.756  0.244  0.000  0.000
  0.000  0.000  0.000  0.000  1.000
  1.000  0.000  0.000  0.000  0.000
    occupations:
  1.004 -0.000 -0.000  0.000  0.000
 -0.000  1.003 -0.000  0.000  0.000
 -0.000 -0.000  1.003  0.000  0.000
  0.000  0.000  0.000  1.004 -0.000
  0.000  0.000  0.000 -0.000  1.003
   spin  2
    eigenvalues: 
  0.049  0.073  0.083  0.083  0.112
    eigenvectors:
  0.000  1.000  0.000  0.000  0.000
  0.000  0.000  0.375  0.625  0.000
  0.000  0.000  0.625  0.375  0.000
  1.000  0.000  0.000  0.000  0.000
  0.000  0.000  0.000  0.000  1.000
    occupations:
  0.073 -0.000 -0.000  0.000  0.000
 -0.000  0.083 -0.000  0.000  0.000
 -0.000 -0.000  0.083  0.000  0.000
  0.000  0.000  0.000  0.049 -0.000
  0.000  0.000  0.000 -0.000  0.112
atomic mag. moment =     4.618029
atom    3   Tr[ns(na)] (up, down, total) =   5.01742  0.39815  5.41557
   spin  1
    eigenvalues: 
  1.003  1.003  1.003  1.004  1.004
    eigenvectors:
  0.000  0.000  0.000  1.000  0.000
  0.000  0.318  0.682  0.000  0.000
  0.000  0.682  0.318  0.000  0.000
  0.000  0.000  0.000  0.000  1.000
  1.000  0.000  0.000  0.000  0.000
    occupations:
  1.004 -0.000 -0.000  0.000  0.000
 -0.000  1.003 -0.000  0.000  0.000
 -0.000 -0.000  1.003  0.000  0.000
  0.000  0.000  0.000  1.004 -0.000
  0.000  0.000  0.000 -0.000  1.003
   spin  2
    eigenvalues: 
  0.050  0.071  0.081  0.081  0.116
    eigenvectors:
  0.000  1.000  0.000  0.000  0.000
  0.000  0.000  0.322  0.678  0.000
  0.000  0.000  0.678  0.322  0.000
  1.000  0.000  0.000  0.000  0.000
  0.000  0.000  0.000  0.000  1.000
    occupations:
  0.071 -0.000 -0.000  0.000  0.000
 -0.000  0.081 -0.000  0.000  0.000
 -0.000 -0.000  0.081  0.000  0.000
  0.000  0.000  0.000  0.050 -0.000
  0.000  0.000  0.000 -0.000  0.116
atomic mag. moment =     4.619274
atom    4   Tr[ns(na)] (up, down, total) =   0.40189  5.01730  5.41919
   spin  1
    eigenvalues: 
  0.050  0.072  0.079  0.079  0.122
    eigenvectors:
  0.000  1.000  0.000  0.000  0.000
  0.000  0.000  0.298  0.702  0.000
  0.000  0.000  0.702  0.298  0.000
  1.000  0.000  0.000  0.000  0.000
  0.000  0.000  0.000  0.000  1.000
    occupations:
  0.072 -0.000 -0.000  0.000  0.000
 -0.000  0.079 -0.000  0.000  0.000
 -0.000 -0.000  0.079  0.000  0.000
  0.000  0.000  0.000  0.050 -0.000
  0.000  0.000  0.000 -0.000  0.122
   spin  2
    eigenvalues: 
  1.003  1.003  1.003  1.004  1.004
    eigenvectors:
  0.000  0.000  0.000  1.000  0.000
  0.000  0.349  0.651  0.000  0.000
  0.000  0.651  0.349  0.000  0.000
  0.000  0.000  0.000  0.000  1.000
  1.000  0.000  0.000  0.000  0.000
    occupations:
  1.004 -0.000 -0.000  0.000  0.000
 -0.000  1.003 -0.000  0.000  0.000
 -0.000 -0.000  1.003  0.000  0.000
  0.000  0.000  0.000  1.004 -0.000
  0.000  0.000  0.000 -0.000  1.003
atomic mag. moment =    -4.615418
atom    5   Tr[ns(na)] (up, down, total) =   5.01761  0.39989  5.41750
   spin  1
    eigenvalues: 
  1.003  1.003  1.003  1.004  1.004
    eigenvectors:
  0.000  0.000  0.000  1.000  0.000
  0.000  0.297  0.703  0.000  0.000
  0.000  0.703  0.297  0.000  0.000
  0.000  0.000  0.000  0.000  1.000
  1.000  0.000  0.000  0.000  0.000
    occupations:
  1.004 -0.000 -0.000  0.000  0.000
 -0.000  1.003 -0.000  0.000  0.000
 -0.000 -0.000  1.003  0.000  0.000
  0.000  0.000  0.000  1.004 -0.000
  0.000  0.000  0.000 -0.000  1.003
   spin  2
    eigenvalues: 
  0.050  0.072  0.081  0.081  0.116
    eigenvectors:
  0.000  1.000  0.000  0.000  0.000
  0.000  0.000  0.334  0.666  0.000
  0.000  0.000  0.666  0.334  0.000
  1.000  0.000  0.000  0.000  0.000
  0.000  0.000  0.000  0.000  1.000
    occupations:
  0.072 -0.000 -0.000  0.000  0.000
 -0.000  0.081 -0.000  0.000  0.000
 -0.000 -0.000  0.081  0.000  0.000
  0.000  0.000  0.000  0.050 -0.000
  0.000  0.000  0.000 -0.000  0.116
atomic mag. moment =     4.617716
atom    6   Tr[ns(na)] (up, down, total) =   5.01769  0.40222  5.41990
   spin  1
    eigenvalues: 
  1.003  1.003  1.003  1.004  1.004
    eigenvectors:
  0.000  0.000  0.000  1.000  0.000
  0.000  0.271  0.729  0.000  0.000
  0.000  0.729  0.271  0.000  0.000
  0.000  0.000  0.000  0.000  1.000
  1.000  0.000  0.000  0.000  0.000
    occupations:
  1.004 -0.000 -0.000  0.000  0.000
 -0.000  1.003 -0.000  0.000  0.000
 -0.000 -0.000  1.003  0.000  0.000
  0.000  0.000  0.000  1.004 -0.000
  0.000  0.000  0.000 -0.000  1.003
   spin  2
    eigenvalues: 
  0.050  0.072  0.082  0.082  0.117
    eigenvectors:
  0.000  1.000  0.000  0.000  0.000
  0.000  0.000  0.335  0.665  0.000
  0.000  0.000  0.665  0.335  0.000
  1.000  0.000  0.000  0.000  0.000
  0.000  0.000  0.000  0.000  1.000
    occupations:
  0.072 -0.000 -0.000  0.000  0.000
 -0.000  0.082 -0.000  0.000  0.000
 -0.000 -0.000  0.082  0.000  0.000
  0.000  0.000  0.000  0.050 -0.000
  0.000  0.000  0.000 -0.000  0.117
atomic mag. moment =     4.615468
atom    7   Tr[ns(na)] (up, down, total) =   0.40605  5.01755  5.42360
   spin  1
    eigenvalues: 
  0.050  0.072  0.083  0.083  0.117
    eigenvectors:
  0.000  1.000  0.000  0.000  0.000
  0.000  0.000  0.359  0.641  0.000
  0.000  0.000  0.641  0.359  0.000
  1.000  0.000  0.000  0.000  0.000
  0.000  0.000  0.000  0.000  1.000
    occupations:
  0.072 -0.000 -0.000  0.000  0.000
 -0.000  0.083 -0.000  0.000  0.000
 -0.000 -0.000  0.083  0.000  0.000
  0.000  0.000  0.000  0.050 -0.000
  0.000  0.000  0.000 -0.000  0.117
   spin  2
    eigenvalues: 
  1.003  1.003  1.003  1.004  1.004
    eigenvectors:
  0.000  0.000  0.000  1.000  0.000
  0.000  0.221  0.779  0.000  0.000
  0.000  0.779  0.221  0.000  0.000
  0.000  0.000  0.000  0.000  1.000
  1.000  0.000  0.000  0.000  0.000
    occupations:
  1.004 -0.000 -0.000  0.000  0.000
 -0.000  1.003 -0.000  0.000  0.000
 -0.000 -0.000  1.003  0.000  0.000
  0.000  0.000  0.000  1.004 -0.000
  0.000  0.000  0.000 -0.000  1.003
atomic mag. moment =    -4.611493
atom    8   Tr[ns(na)] (up, down, total) =   0.40111  5.01747  5.41858
   spin  1
    eigenvalues: 
  0.050  0.072  0.081  0.081  0.117
    eigenvectors:
  0.000  1.000  0.000  0.000  0.000
  0.000  0.000  0.304  0.696  0.000
  0.000  0.000  0.696  0.304  0.000
  1.000  0.000  0.000  0.000  0.000
  0.000  0.000  0.000  0.000  1.000
    occupations:
  0.072 -0.000 -0.000  0.000  0.000
 -0.000  0.081 -0.000  0.000  0.000
 -0.000 -0.000  0.081  0.000  0.000
  0.000  0.000  0.000  0.050 -0.000
  0.000  0.000  0.000 -0.000  0.117
   spin  2
    eigenvalues: 
  1.003  1.003  1.003  1.004  1.004
    eigenvectors:
  0.000  0.000  0.000  1.000  0.000
  0.000  0.345  0.655  0.000  0.000
  0.000  0.655  0.345  0.000  0.000
  0.000  0.000  0.000  0.000  1.000
  1.000  0.000  0.000  0.000  0.000
    occupations:
  1.004 -0.000 -0.000  0.000  0.000
 -0.000  1.003 -0.000  0.000  0.000
 -0.000 -0.000  1.003  0.000  0.000
  0.000  0.000  0.000  1.004 -0.000
  0.000  0.000  0.000 -0.000  1.003
atomic mag. moment =    -4.616353
N of occupied +U levels =   43.347339
 --- exit write_ns ---

     total cpu time spent up to now is       92.9 secs

     total energy              =  -14687.36524253 Ry
     Harris-Foulkes estimate   =  -14685.89251786 Ry
     estimated scf accuracy    <      11.47433392 Ry

     total magnetization       =    10.08 Bohr mag/cell
     absolute magnetization    =    41.57 Bohr mag/cell

     iteration #  2     ecut=    45.00 Ry     beta= 0.10
     Davidson diagonalization with overlap
     ethr =  3.88E-03,  avg # of iterations =  1.0

     total cpu time spent up to now is      134.2 secs

     total energy              =  -14691.44377019 Ry
     Harris-Foulkes estimate   =  -14687.43703275 Ry
     estimated scf accuracy    <       9.33937336 Ry

     total magnetization       =     9.97 Bohr mag/cell
     absolute magnetization    =    41.26 Bohr mag/cell

     iteration #  3     ecut=    45.00 Ry     beta= 0.10
     Davidson diagonalization with overlap
     ethr =  3.16E-03,  avg # of iterations =  5.0

     total cpu time spent up to now is      195.6 secs

     total energy              =  -14691.32384432 Ry
     Harris-Foulkes estimate   =  -14693.42712084 Ry
     estimated scf accuracy    <     215.14589733 Ry

     total magnetization       =     8.27 Bohr mag/cell
     absolute magnetization    =    39.12 Bohr mag/cell

     iteration #  4     ecut=    45.00 Ry     beta= 0.10
     Davidson diagonalization with overlap
     ethr =  3.16E-03,  avg # of iterations =  4.2

     total cpu time spent up to now is      252.6 secs

     total energy              =  -14693.84600927 Ry
     Harris-Foulkes estimate   =  -14693.98330832 Ry
     estimated scf accuracy    <       4.15898697 Ry

     total magnetization       =     9.37 Bohr mag/cell
     absolute magnetization    =    38.82 Bohr mag/cell

     iteration #  5     ecut=    45.00 Ry     beta= 0.10
     Davidson diagonalization with overlap
     ethr =  1.41E-03,  avg # of iterations =  3.3

     total cpu time spent up to now is      304.5 secs

     total energy              =  -14693.77167762 Ry
     Harris-Foulkes estimate   =  -14693.88321101 Ry
     estimated scf accuracy    <       2.82620665 Ry

     total magnetization       =     9.35 Bohr mag/cell
     absolute magnetization    =    38.88 Bohr mag/cell

     iteration #  6     ecut=    45.00 Ry     beta= 0.10
     Davidson diagonalization with overlap
     ethr =  9.55E-04,  avg # of iterations =  2.3

     total cpu time spent up to now is      351.7 secs

     total energy              =  -14693.03899328 Ry
     Harris-Foulkes estimate   =  -14693.79529150 Ry
     estimated scf accuracy    <       3.46981012 Ry

     total magnetization       =     9.36 Bohr mag/cell
     absolute magnetization    =    38.90 Bohr mag/cell

     iteration #  7     ecut=    45.00 Ry     beta= 0.10
     Davidson diagonalization with overlap
     ethr =  9.55E-04,  avg # of iterations =  4.6

     total cpu time spent up to now is      424.8 secs

     total energy              =  -14693.98076550 Ry
     Harris-Foulkes estimate   =  -14693.68973078 Ry
     estimated scf accuracy    <       2.00881915 Ry

     total magnetization       =     9.02 Bohr mag/cell
     absolute magnetization    =    38.36 Bohr mag/cell

     iteration #  8     ecut=    45.00 Ry     beta= 0.10
     Davidson diagonalization with overlap
     ethr =  6.79E-04,  avg # of iterations =  1.4

     total cpu time spent up to now is      467.6 secs

     total energy              =  -14694.06700033 Ry
     Harris-Foulkes estimate   =  -14694.08050821 Ry
     estimated scf accuracy    <       0.23495063 Ry

     total magnetization       =     8.87 Bohr mag/cell
     absolute magnetization    =    37.62 Bohr mag/cell

     iteration #  9     ecut=    45.00 Ry     beta= 0.10
     Davidson diagonalization with overlap
     ethr =  7.94E-05,  avg # of iterations =  4.8

     total cpu time spent up to now is      527.8 secs

     total energy              =  -14694.06726412 Ry
     Harris-Foulkes estimate   =  -14694.07980765 Ry
     estimated scf accuracy    <       0.11305946 Ry

     total magnetization       =     8.85 Bohr mag/cell
     absolute magnetization    =    37.58 Bohr mag/cell

     iteration # 10     ecut=    45.00 Ry     beta= 0.10
     Davidson diagonalization with overlap
     ethr =  3.82E-05,  avg # of iterations =  3.3

     total cpu time spent up to now is      581.1 secs

     total energy              =  -14694.07784279 Ry
     Harris-Foulkes estimate   =  -14694.07764552 Ry
     estimated scf accuracy    <       0.05164416 Ry

     total magnetization       =     8.82 Bohr mag/cell
     absolute magnetization    =    37.57 Bohr mag/cell

     iteration # 11     ecut=    45.00 Ry     beta= 0.10
     Davidson diagonalization with overlap
     c_bands:  3 eigenvalues not converged
     ethr =  1.74E-05,  avg # of iterations =  2.9

     total cpu time spent up to now is      631.7 secs

     total energy              =  -14694.08169378 Ry
     Harris-Foulkes estimate   =  -14694.08110908 Ry
     estimated scf accuracy    <       0.01302091 Ry

     total magnetization       =     8.79 Bohr mag/cell
     absolute magnetization    =    37.47 Bohr mag/cell

     iteration # 12     ecut=    45.00 Ry     beta= 0.10
     Davidson diagonalization with overlap
     ethr =  4.40E-06,  avg # of iterations =  5.6

     total cpu time spent up to now is      696.2 secs

     total energy              =  -14694.08394408 Ry
     Harris-Foulkes estimate   =  -14694.08275405 Ry
     estimated scf accuracy    <       0.00663221 Ry

     total magnetization       =     8.80 Bohr mag/cell
     absolute magnetization    =    37.46 Bohr mag/cell

     iteration # 13     ecut=    45.00 Ry     beta= 0.10
     Davidson diagonalization with overlap
     ethr =  2.24E-06,  avg # of iterations =  1.9

     total cpu time spent up to now is      741.4 secs

     total energy              =  -14694.08513722 Ry
     Harris-Foulkes estimate   =  -14694.08386249 Ry
     estimated scf accuracy    <       0.00288389 Ry

     total magnetization       =     8.78 Bohr mag/cell
     absolute magnetization    =    37.46 Bohr mag/cell

     iteration # 14     ecut=    45.00 Ry     beta= 0.10
     Davidson diagonalization with overlap
     ethr =  9.74E-07,  avg # of iterations =  3.1

     total cpu time spent up to now is      794.6 secs

     total energy              =  -14694.08496309 Ry
     Harris-Foulkes estimate   =  -14694.08512532 Ry
     estimated scf accuracy    <       0.00446891 Ry

     total magnetization       =     8.77 Bohr mag/cell
     absolute magnetization    =    37.44 Bohr mag/cell

     iteration # 15     ecut=    45.00 Ry     beta= 0.10
     Davidson diagonalization with overlap
     ethr =  9.74E-07,  avg # of iterations =  1.0

     total cpu time spent up to now is      835.9 secs

     total energy              =  -14694.08518108 Ry
     Harris-Foulkes estimate   =  -14694.08508823 Ry
     estimated scf accuracy    <       0.00089660 Ry

     total magnetization       =     8.77 Bohr mag/cell
     absolute magnetization    =    37.44 Bohr mag/cell

     iteration # 16     ecut=    45.00 Ry     beta= 0.10
     Davidson diagonalization with overlap
     ethr =  3.03E-07,  avg # of iterations =  1.0

     total cpu time spent up to now is      877.0 secs

     total energy              =  -14694.08530235 Ry
     Harris-Foulkes estimate   =  -14694.08522112 Ry
     estimated scf accuracy    <       0.00037592 Ry

     total magnetization       =     8.77 Bohr mag/cell
     absolute magnetization    =    37.44 Bohr mag/cell

     iteration # 17     ecut=    45.00 Ry     beta= 0.10
     Davidson diagonalization with overlap
     ethr =  1.27E-07,  avg # of iterations =  2.1

     total cpu time spent up to now is      923.3 secs

     total energy              =  -14694.08535814 Ry
     Harris-Foulkes estimate   =  -14694.08529646 Ry
     estimated scf accuracy    <       0.00022611 Ry

     total magnetization       =     8.77 Bohr mag/cell
     absolute magnetization    =    37.44 Bohr mag/cell

     iteration # 18     ecut=    45.00 Ry     beta= 0.10
     Davidson diagonalization with overlap
     ethr =  7.64E-08,  avg # of iterations =  1.4

     total cpu time spent up to now is      966.2 secs

     total energy              =  -14694.08534693 Ry
     Harris-Foulkes estimate   =  -14694.08532305 Ry
     estimated scf accuracy    <       0.00014314 Ry

     total magnetization       =     8.77 Bohr mag/cell
     absolute magnetization    =    37.44 Bohr mag/cell

     iteration # 19     ecut=    45.00 Ry     beta= 0.10
     Davidson diagonalization with overlap
     ethr =  4.84E-08,  avg # of iterations =  1.3

     total cpu time spent up to now is     1008.7 secs

     total energy              =  -14694.08534211 Ry
     Harris-Foulkes estimate   =  -14694.08532467 Ry
     estimated scf accuracy    <       0.00007762 Ry

     total magnetization       =     8.76 Bohr mag/cell
     absolute magnetization    =    37.43 Bohr mag/cell

     iteration # 20     ecut=    45.00 Ry     beta= 0.10
     Davidson diagonalization with overlap
     ethr =  2.62E-08,  avg # of iterations =  1.6

     total cpu time spent up to now is     1052.3 secs

     total energy              =  -14694.08533713 Ry
     Harris-Foulkes estimate   =  -14694.08532115 Ry
     estimated scf accuracy    <       0.00002792 Ry

     total magnetization       =     8.76 Bohr mag/cell
     absolute magnetization    =    37.43 Bohr mag/cell

     iteration # 21     ecut=    45.00 Ry     beta= 0.10
     Davidson diagonalization with overlap
     ethr =  9.43E-09,  avg # of iterations =  2.4

     total cpu time spent up to now is     1100.6 secs

     total energy              =  -14694.08532823 Ry
     Harris-Foulkes estimate   =  -14694.08532243 Ry
     estimated scf accuracy    <       0.00001714 Ry

     total magnetization       =     8.76 Bohr mag/cell
     absolute magnetization    =    37.43 Bohr mag/cell

     iteration # 22     ecut=    45.00 Ry     beta= 0.10
     Davidson diagonalization with overlap
     ethr =  5.79E-09,  avg # of iterations =  1.8

     total cpu time spent up to now is     1145.3 secs

     total energy              =  -14694.08532219 Ry
     Harris-Foulkes estimate   =  -14694.08531844 Ry
     estimated scf accuracy    <       0.00001449 Ry

     total magnetization       =     8.76 Bohr mag/cell
     absolute magnetization    =    37.43 Bohr mag/cell

     iteration # 23     ecut=    45.00 Ry     beta= 0.10
     Davidson diagonalization with overlap
     ethr =  4.89E-09,  avg # of iterations =  1.7

     total cpu time spent up to now is     1189.8 secs

     total energy              =  -14694.08531381 Ry
     Harris-Foulkes estimate   =  -14694.08531085 Ry
     estimated scf accuracy    <       0.00000501 Ry

     total magnetization       =     8.76 Bohr mag/cell
     absolute magnetization    =    37.43 Bohr mag/cell

     iteration # 24     ecut=    45.00 Ry     beta= 0.10
     Davidson diagonalization with overlap
     ethr =  1.69E-09,  avg # of iterations =  3.1

     total cpu time spent up to now is     1238.8 secs

     total energy              =  -14694.08529934 Ry
     Harris-Foulkes estimate   =  -14694.08529758 Ry
     estimated scf accuracy    <       0.00000178 Ry

     total magnetization       =     8.76 Bohr mag/cell
     absolute magnetization    =    37.43 Bohr mag/cell

     iteration # 25     ecut=    45.00 Ry     beta= 0.10
     Davidson diagonalization with overlap
     ethr =  6.00E-10,  avg # of iterations =  3.0

     total cpu time spent up to now is     1289.8 secs

     total energy              =  -14694.08529814 Ry
     Harris-Foulkes estimate   =  -14694.08529672 Ry
     estimated scf accuracy    <       0.00000176 Ry

     total magnetization       =     8.76 Bohr mag/cell
     absolute magnetization    =    37.43 Bohr mag/cell

     iteration # 26     ecut=    45.00 Ry     beta= 0.10
     Davidson diagonalization with overlap
     ethr =  5.96E-10,  avg # of iterations =  1.9

     total cpu time spent up to now is     1335.1 secs

     total energy              =  -14694.08529818 Ry
     Harris-Foulkes estimate   =  -14694.08529713 Ry
     estimated scf accuracy    <       0.00000461 Ry

     total magnetization       =     8.76 Bohr mag/cell
     absolute magnetization    =    37.43 Bohr mag/cell

     iteration # 27     ecut=    45.00 Ry     beta= 0.10
     Davidson diagonalization with overlap
     ethr =  5.96E-10,  avg # of iterations =  2.2

     total cpu time spent up to now is     1381.7 secs

     total energy              =  -14694.08529685 Ry
     Harris-Foulkes estimate   =  -14694.08529584 Ry
     estimated scf accuracy    <       0.00000118 Ry

     total magnetization       =     8.76 Bohr mag/cell
     absolute magnetization    =    37.43 Bohr mag/cell

     iteration # 28     ecut=    45.00 Ry     beta= 0.10
     Davidson diagonalization with overlap
     ethr =  3.99E-10,  avg # of iterations =  2.0
 
     Magnetic moment per site:
     atom:    1    charge:   13.5468    magn:    4.2515    constr:    0.0000
     atom:    2    charge:   13.5484    magn:    4.2366    constr:    0.0000
     atom:    3    charge:   13.5450    magn:    4.2637    constr:    0.0000
     atom:    4    charge:   13.5440    magn:   -4.2685    constr:    0.0000
     atom:    5    charge:   13.5446    magn:    4.2598    constr:    0.0000
     atom:    6    charge:   13.5460    magn:    4.2516    constr:    0.0000
     atom:    7    charge:   13.5452    magn:   -4.2592    constr:    0.0000
     atom:    8    charge:   13.5454    magn:   -4.2575    constr:    0.0000
     atom:    9    charge:    9.1378    magn:    0.0379    constr:    0.0000
     atom:   10    charge:    9.1394    magn:    0.0452    constr:    0.0000
     atom:   11    charge:    9.1398    magn:    0.0452    constr:    0.0000
     atom:   12    charge:    9.1379    magn:    0.0362    constr:    0.0000
     atom:   13    charge:    9.1394    magn:    0.0380    constr:    0.0000
     atom:   14    charge:    9.1399    magn:   -0.0379    constr:    0.0000
     atom:   15    charge:    9.1388    magn:   -0.0392    constr:    0.0000
     atom:   16    charge:    9.1400    magn:    0.0415    constr:    0.0000
     atom:   17    charge:    9.1392    magn:    0.0398    constr:    0.0000
     atom:   18    charge:    9.1400    magn:    0.0421    constr:    0.0000
     atom:   19    charge:    9.1391    magn:    0.0432    constr:    0.0000
     atom:   20    charge:    9.1384    magn:   -0.0474    constr:    0.0000
     atom:   21    charge:    9.1389    magn:   -0.0445    constr:    0.0000
     atom:   22    charge:    9.1388    magn:   -0.0429    constr:    0.0000
     atom:   23    charge:    9.1394    magn:   -0.0444    constr:    0.0000
     atom:   24    charge:    9.1382    magn:    0.0395    constr:    0.0000

     total cpu time spent up to now is     1427.8 secs

     End of self-consistent calculation
 --- enter write_ns ---
 LDA+U parameters:
U(  1) =   3.1200   J(  1) =   0.7000   B(  1) =   0.0803
U(  2) =   3.1200   J(  2) =   0.7000   B(  2) =   0.0803
atom    1   Tr[ns(na)] (up, down, total) =   4.97467  0.72564  5.70031
   spin  1
    eigenvalues: 
  0.985  0.994  0.994  0.999  1.003
    eigenvectors:
  0.000  0.000  0.000  1.000  0.000
  0.000  0.302  0.698  0.000  0.000
  0.000  0.698  0.302  0.000  0.000
  0.000  0.000  0.000  0.000  1.000
  1.000  0.000  0.000  0.000  0.000
    occupations:
  0.999 -0.000 -0.000  0.000  0.000
 -0.000  0.994 -0.000  0.000  0.000
 -0.000 -0.000  0.994  0.000  0.000
  0.000  0.000  0.000  1.003 -0.000
  0.000  0.000  0.000 -0.000  0.985
   spin  2
    eigenvalues: 
  0.059  0.129  0.143  0.143  0.251
    eigenvectors:
  0.000  1.000  0.000  0.000  0.000
  0.000  0.000  0.276  0.724  0.000
  0.000  0.000  0.724  0.276  0.000
  1.000  0.000  0.000  0.000  0.000
  0.000  0.000  0.000  0.000  1.000
    occupations:
  0.129 -0.000 -0.000  0.000  0.000
 -0.000  0.143 -0.000  0.000  0.000
 -0.000 -0.000  0.143  0.000  0.000
  0.000  0.000  0.000  0.059 -0.000
  0.000  0.000  0.000 -0.000  0.251
atomic mag. moment =     4.249035
atom    2   Tr[ns(na)] (up, down, total) =   4.97496  0.74092  5.71588
   spin  1
    eigenvalues: 
  0.986  0.994  0.994  0.998  1.003
    eigenvectors:
  0.000  0.000  0.000  1.000  0.000
  0.000  0.301  0.699  0.000  0.000
  0.000  0.699  0.301  0.000  0.000
  0.000  0.000  0.000  0.000  1.000
  1.000  0.000  0.000  0.000  0.000
    occupations:
  0.998 -0.000 -0.000  0.000  0.000
 -0.000  0.994 -0.000  0.000  0.000
 -0.000 -0.000  0.994  0.000  0.000
  0.000  0.000  0.000  1.003 -0.000
  0.000  0.000  0.000 -0.000  0.986
   spin  2
    eigenvalues: 
  0.058  0.136  0.150  0.150  0.248
    eigenvectors:
  0.000  1.000  0.000  0.000  0.000
  0.000  0.000  0.315  0.685  0.000
  0.000  0.000  0.685  0.315  0.000
  1.000  0.000  0.000  0.000  0.000
  0.000  0.000  0.000  0.000  1.000
    occupations:
  0.136 -0.000 -0.000  0.000  0.000
 -0.000  0.150 -0.000  0.000  0.000
 -0.000 -0.000  0.150  0.000  0.000
  0.000  0.000  0.000  0.058 -0.000
  0.000  0.000  0.000 -0.000  0.248
atomic mag. moment =     4.234042
atom    3   Tr[ns(na)] (up, down, total) =   4.97644  0.71498  5.69142
   spin  1
    eigenvalues: 
  0.985  0.994  0.994  1.000  1.003
    eigenvectors:
  0.000  0.000  0.000  1.000  0.000
  0.000  0.341  0.659  0.000  0.000
  0.000  0.659  0.341  0.000  0.000
  0.000  0.000  0.000  0.000  1.000
  1.000  0.000  0.000  0.000  0.000
    occupations:
  1.000 -0.000 -0.000  0.000  0.000
 -0.000  0.994 -0.000  0.000  0.000
 -0.000 -0.000  0.994  0.000  0.000
  0.000  0.000  0.000  1.003 -0.000
  0.000  0.000  0.000 -0.000  0.985
   spin  2
    eigenvalues: 
  0.059  0.130  0.143  0.143  0.241
    eigenvectors:
  0.000  1.000  0.000  0.000  0.000
  0.000  0.000  0.306  0.694  0.000
  0.000  0.000  0.694  0.306  0.000
  1.000  0.000  0.000  0.000  0.000
  0.000  0.000  0.000  0.000  1.000
    occupations:
  0.130 -0.000 -0.000  0.000  0.000
 -0.000  0.143 -0.000  0.000  0.000
 -0.000 -0.000  0.143  0.000  0.000
  0.000  0.000  0.000  0.059 -0.000
  0.000  0.000  0.000 -0.000  0.241
atomic mag. moment =     4.261463
atom    4   Tr[ns(na)] (up, down, total) =   0.71474  4.97511  5.68985
   spin  1
    eigenvalues: 
  0.056  0.120  0.146  0.146  0.246
    eigenvectors:
  0.000  1.000  0.000  0.000  0.000
  0.000  0.000  0.305  0.695  0.000
  0.000  0.000  0.695  0.305  0.000
  1.000  0.000  0.000  0.000  0.000
  0.000  0.000  0.000  0.000  1.000
    occupations:
  0.120 -0.000 -0.000  0.000  0.000
 -0.000  0.146 -0.000  0.000  0.000
 -0.000 -0.000  0.146  0.000  0.000
  0.000  0.000  0.000  0.056 -0.000
  0.000  0.000  0.000 -0.000  0.246
   spin  2
    eigenvalues: 
  0.985  0.994  0.994  0.999  1.003
    eigenvectors:
  0.000  0.000  0.000  1.000  0.000
  0.000  0.333  0.667  0.000  0.000
  0.000  0.667  0.333  0.000  0.000
  0.000  0.000  0.000  0.000  1.000
  1.000  0.000  0.000  0.000  0.000
    occupations:
  0.999 -0.000 -0.000  0.000  0.000
 -0.000  0.994 -0.000  0.000  0.000
 -0.000 -0.000  0.994  0.000  0.000
  0.000  0.000  0.000  1.003 -0.000
  0.000  0.000  0.000 -0.000  0.985
atomic mag. moment =    -4.260368
atom    5   Tr[ns(na)] (up, down, total) =   4.97627  0.71750  5.69377
   spin  1
    eigenvalues: 
  0.986  0.995  0.995  0.998  1.003
    eigenvectors:
  0.000  0.000  0.000  1.000  0.000
  0.000  0.283  0.717  0.000  0.000
  0.000  0.717  0.283  0.000  0.000
  0.000  0.000  0.000  0.000  1.000
  1.000  0.000  0.000  0.000  0.000
    occupations:
  0.998 -0.000 -0.000  0.000  0.000
 -0.000  0.995 -0.000  0.000  0.000
 -0.000 -0.000  0.995  0.000  0.000
  0.000  0.000  0.000  1.003 -0.000
  0.000  0.000  0.000 -0.000  0.986
   spin  2
    eigenvalues: 
  0.059  0.128  0.144  0.144  0.243
    eigenvectors:
  0.000  1.000  0.000  0.000  0.000
  0.000  0.000  0.359  0.641  0.000
  0.000  0.000  0.641  0.359  0.000
  1.000  0.000  0.000  0.000  0.000
  0.000  0.000  0.000  0.000  1.000
    occupations:
  0.128 -0.000 -0.000  0.000  0.000
 -0.000  0.144 -0.000  0.000  0.000
 -0.000 -0.000  0.144  0.000  0.000
  0.000  0.000  0.000  0.059 -0.000
  0.000  0.000  0.000 -0.000  0.243
atomic mag. moment =     4.258773
atom    6   Tr[ns(na)] (up, down, total) =   4.97520  0.72437  5.69957
   spin  1
    eigenvalues: 
  0.985  0.995  0.995  0.998  1.003
    eigenvectors:
  0.000  0.000  0.000  1.000  0.000
  0.000  0.367  0.633  0.000  0.000
  0.000  0.633  0.367  0.000  0.000
  0.000  0.000  0.000  0.000  1.000
  1.000  0.000  0.000  0.000  0.000
    occupations:
  0.998 -0.000 -0.000  0.000  0.000
 -0.000  0.995 -0.000  0.000  0.000
 -0.000 -0.000  0.995  0.000  0.000
  0.000  0.000  0.000  1.003 -0.000
  0.000  0.000  0.000 -0.000  0.985
   spin  2
    eigenvalues: 
  0.059  0.126  0.146  0.146  0.248
    eigenvectors:
  0.000  1.000  0.000  0.000  0.000
  0.000  0.000  0.349  0.651  0.000
  0.000  0.000  0.651  0.349  0.000
  1.000  0.000  0.000  0.000  0.000
  0.000  0.000  0.000  0.000  1.000
    occupations:
  0.126 -0.000 -0.000  0.000  0.000
 -0.000  0.146 -0.000  0.000  0.000
 -0.000 -0.000  0.146  0.000  0.000
  0.000  0.000  0.000  0.059 -0.000
  0.000  0.000  0.000 -0.000  0.248
atomic mag. moment =     4.250826
atom    7   Tr[ns(na)] (up, down, total) =   0.72340  4.97594  5.69935
   spin  1
    eigenvalues: 
  0.058  0.126  0.147  0.147  0.246
    eigenvectors:
  0.000  1.000  0.000  0.000  0.000
  0.000  0.000  0.279  0.721  0.000
  0.000  0.000  0.721  0.279  0.000
  1.000  0.000  0.000  0.000  0.000
  0.000  0.000  0.000  0.000  1.000
    occupations:
  0.126 -0.000 -0.000  0.000  0.000
 -0.000  0.147 -0.000  0.000  0.000
 -0.000 -0.000  0.147  0.000  0.000
  0.000  0.000  0.000  0.058 -0.000
  0.000  0.000  0.000 -0.000  0.246
   spin  2
    eigenvalues: 
  0.986  0.995  0.995  0.998  1.003
    eigenvectors:
  0.000  0.000  0.000  1.000  0.000
  0.000  0.265  0.735  0.000  0.000
  0.000  0.735  0.265  0.000  0.000
  0.000  0.000  0.000  0.000  1.000
  1.000  0.000  0.000  0.000  0.000
    occupations:
  0.998 -0.000 -0.000  0.000  0.000
 -0.000  0.995 -0.000  0.000  0.000
 -0.000 -0.000  0.995  0.000  0.000
  0.000  0.000  0.000  1.003 -0.000
  0.000  0.000  0.000 -0.000  0.986
atomic mag. moment =    -4.252544
atom    8   Tr[ns(na)] (up, down, total) =   0.72415  4.97511  5.69926
   spin  1
    eigenvalues: 
  0.058  0.131  0.145  0.145  0.247
    eigenvectors:
  0.000  1.000  0.000  0.000  0.000
  0.000  0.000  0.220  0.780  0.000
  0.000  0.000  0.780  0.220  0.000
  1.000  0.000  0.000  0.000  0.000
  0.000  0.000  0.000  0.000  1.000
    occupations:
  0.131 -0.000 -0.000  0.000  0.000
 -0.000  0.145 -0.000  0.000  0.000
 -0.000 -0.000  0.145  0.000  0.000
  0.000  0.000  0.000  0.058 -0.000
  0.000  0.000  0.000 -0.000  0.247
   spin  2
    eigenvalues: 
  0.986  0.994  0.994  0.998  1.003
    eigenvectors:
  0.000  0.000  0.000  1.000  0.000
  0.000  0.334  0.666  0.000  0.000
  0.000  0.666  0.334  0.000  0.000
  0.000  0.000  0.000  0.000  1.000
  1.000  0.000  0.000  0.000  0.000
    occupations:
  0.998 -0.000 -0.000  0.000  0.000
 -0.000  0.994 -0.000  0.000  0.000
 -0.000 -0.000  0.994  0.000  0.000
  0.000  0.000  0.000  1.003 -0.000
  0.000  0.000  0.000 -0.000  0.986
atomic mag. moment =    -4.250963
N of occupied +U levels =   45.589400
 --- exit write_ns ---

 ------ SPIN UP ------------


          k = 0.0000 0.0000 0.0000 ( 14071 PWs)   bands (ev):

   -67.0548 -67.0515 -67.0136 -67.0020 -66.9535 -62.5065 -62.4187 -62.4151
   -35.8105 -35.8045 -35.7776 -35.7776 -35.7758 -35.7758 -35.7752 -35.7670
   -35.7337 -35.7337 -35.7207 -35.7207 -35.7074 -35.6786 -35.6786 -31.3296
   -31.3296 -31.3170 -31.2399 -31.2399 -31.2364 -31.2364 -31.2363 -31.2333
     5.5893   5.7055   5.7970   6.1542   6.2123   6.7850   6.8807   7.4044
     8.0415   8.1922   8.2189   8.2255   8.2763   8.3516   8.4315   8.5167
     8.5404   8.6055   8.6526   8.7172   8.8105   8.9887   8.9969   9.0811
     9.0851   9.1742   9.2129   9.2252   9.3471   9.4767   9.6351   9.7088
     9.7101   9.7286   9.8353   9.9006   9.9374   9.9374   9.9663   9.9826
     9.9981   9.9981  10.0049  10.0049  10.0771  10.1051  10.1493  10.1493
    10.1646  10.1646  10.2822  10.3113  10.3113  10.3181  10.3181  10.3630
    10.3630  10.3644  10.3829  10.3829  10.4118  10.4178  10.4178  10.4381
    10.4381  10.4736  10.4786  10.5087  10.5087  10.7393  10.7599  10.7599
    10.7710  10.8607  10.8745  10.8745  10.8896  10.9855  11.0498  11.0951
    11.1475  11.1772  11.1772  11.2684  11.3452  11.3452  11.3615  11.3942
    11.4533  11.4886  11.5553  11.6376  11.6383  11.6383  11.6594  11.7497
    11.7497  11.7968  11.8417  11.8717  11.9134  11.9846  12.0281  12.0281
    12.2949  12.2980  12.2980  12.3743  12.4201  12.4201  12.5316  12.5587
    12.6828  12.6831  12.7520  12.9037  13.4262  13.6317  14.4638  15.0614
    15.8000  16.5632  16.5632  16.6165  16.6165  16.6609  16.7040  16.7575
    16.8068  16.8419  16.8419  16.8691  16.9188  17.0361  17.1970  17.2428
    17.9933  18.8689  19.2509  19.8755  19.8755  20.1882  20.1882  20.3162
    20.3162  20.9498

          k = 0.0000 0.0000 0.0239 ( 14095 PWs)   bands (ev):

   -67.0548 -67.0515 -67.0136 -67.0020 -66.9535 -62.5065 -62.4187 -62.4151
   -35.8105 -35.8045 -35.7776 -35.7776 -35.7758 -35.7758 -35.7752 -35.7670
   -35.7337 -35.7337 -35.7207 -35.7207 -35.7074 -35.6786 -35.6786 -31.3296
   -31.3296 -31.3170 -31.2399 -31.2399 -31.2364 -31.2364 -31.2363 -31.2333
     5.5956   5.6780   5.8423   6.0544   6.3280   6.6507   7.0195   7.3393
     8.1031   8.1923   8.2189   8.2270   8.2740   8.3517   8.4069   8.4681
     8.5164   8.6088   8.6531   8.7607   8.8483   8.9741   8.9838   9.0952
     9.1082   9.1626   9.1673   9.2293   9.3604   9.4828   9.6297   9.7082
     9.7101   9.7286   9.8353   9.9015   9.9389   9.9389   9.9661   9.9815
     9.9815   9.9861  10.0296  10.0296  10.0773  10.1048  10.1081  10.1081
    10.2120  10.2120  10.2763  10.3095  10.3095  10.3178  10.3178  10.3356
    10.3356  10.3592  10.3783  10.3783  10.4118  10.4118  10.4239  10.4487
    10.4487  10.4705  10.4808  10.5433  10.5433  10.7059  10.7059  10.7424
    10.7588  10.8580  10.9084  10.9328  10.9328  10.9750  11.0502  11.0946
    11.1251  11.1251  11.1491  11.2688  11.3630  11.3916  11.3938  11.3938
    11.4522  11.4881  11.5582  11.5937  11.5937  11.6380  11.6596  11.7778
    11.7778  11.7967  11.8335  11.8717  11.9279  11.9768  12.0221  12.0221
    12.2958  12.2996  12.2996  12.3737  12.4196  12.4196  12.5434  12.5588
    12.6476  12.6831  12.7520  12.9642  13.3043  13.7672  14.3548  15.1783
    15.7217  16.5632  16.5632  16.6165  16.6165  16.6609  16.7040  16.7575
    16.8068  16.8419  16.8419  16.8691  16.9188  17.0737  17.1844  17.2429
    18.0518  18.6335  19.5415  19.8961  19.8961  20.0898  20.0898  20.4529
    20.4529  20.4860

          k = 0.0000 0.0000-0.0478 ( 14088 PWs)   bands (ev):

   -67.0548 -67.0515 -67.0136 -67.0020 -66.9535 -62.5065 -62.4187 -62.4151
   -35.8105 -35.8045 -35.7776 -35.7776 -35.7758 -35.7758 -35.7752 -35.7670
   -35.7337 -35.7337 -35.7207 -35.7207 -35.7074 -35.6786 -35.6786 -31.3296
   -31.3296 -31.3170 -31.2399 -31.2399 -31.2364 -31.2364 -31.2363 -31.2333
     5.6050   5.6551   5.9050   5.9723   6.4601   6.5082   7.1827   7.2016
     8.1923   8.1985   8.2188   8.2353   8.2717   8.3025   8.3517   8.4588
     8.5161   8.5998   8.6535   8.7973   8.8726   8.9763   8.9795   9.0968
     9.1161   9.1436   9.1532   9.2199   9.3713   9.4892   9.6239   9.7075
     9.7101   9.7286   9.8354   9.9023   9.9406   9.9406   9.9660   9.9736
     9.9736   9.9897  10.0581  10.0581  10.0728  10.0728  10.0776  10.1045
    10.2650  10.2650  10.2705  10.2759  10.2759  10.3152  10.3152  10.3191
    10.3191  10.3552  10.3775  10.3775  10.4105  10.4105  10.4421  10.4517
    10.4517  10.4552  10.4880  10.6002  10.6002  10.6404  10.6404  10.7456
    10.7481  10.8551  10.9364  10.9538  11.0112  11.0112  11.0481  11.0481
    11.0505  11.0940  11.1507  11.2692  11.3644  11.3891  11.4501  11.4501
    11.4512  11.4876  11.5406  11.5406  11.5611  11.6383  11.6598  11.7967
    11.7988  11.7988  11.8267  11.8717  11.9496  11.9603  12.0157  12.0157
    12.2967  12.3012  12.3012  12.3730  12.4191  12.4191  12.5589  12.5652
    12.6083  12.6830  12.7520  13.0502  13.1879  13.8932  14.2320  15.3165
    15.6097  16.5632  16.5632  16.6166  16.6166  16.6609  16.7040  16.7575
    16.8068  16.8419  16.8419  16.8691  16.9188  17.1287  17.1528  17.2429
    18.1525  18.4327  19.9341  19.9341  19.9368  20.0119  20.0119  20.0602
    20.6373  20.6373

          k = 0.0000 0.2500 0.0000 ( 14064 PWs)   bands (ev):

   -67.0544 -67.0511 -67.0132 -67.0015 -66.9531 -62.5061 -62.4183 -62.4147
   -35.8100 -35.8039 -35.7835 -35.7817 -35.7772 -35.7754 -35.7746 -35.7665
   -35.7397 -35.7334 -35.7266 -35.7203 -35.7068 -35.6845 -35.6783 -31.3370
   -31.3291 -31.3162 -31.2473 -31.2438 -31.2394 -31.2359 -31.2355 -31.2325
     6.5212   6.6242   6.7033   7.0013   7.0403   7.4876   7.4950   7.8552
     8.0492   8.2772   8.3003   8.5006   8.5184   8.5780   8.6288   8.6403
     8.6475   8.6728   8.7089   8.7310   8.7864   8.8282   8.8811   9.0216
     9.0745   9.2251   9.2696   9.2890   9.3353   9.3777   9.4145   9.4509
     9.4551   9.4740   9.4978   9.5285   9.5717   9.5873   9.6579   9.6808
     9.7102   9.8294   9.8461   9.9381   9.9649   9.9802  10.0743  10.0937
    10.1700  10.2758  10.3139  10.3511  10.3588  10.3662  10.3928  10.4902
    10.5175  10.5760  10.6094  10.6253  10.6301  10.6594  10.7186  10.7671
    10.7805  10.8475  10.8881  10.9219  10.9242  10.9321  10.9550  11.0437
    11.1077  11.1294  11.1465  11.1749  11.1763  11.1943  11.2758  11.2849
    11.2870  11.3474  11.3602  11.3906  11.4209  11.4513  11.4631  11.4937
    11.5438  11.5728  11.5881  11.6078  11.6188  11.6707  11.7099  11.7469
    11.7688  11.7838  11.8166  11.8251  11.8837  11.9457  12.0045  12.1233
    12.1914  12.2727  12.2850  12.2976  12.4421  12.5017  12.5876  12.6077
    12.6405  12.6949  12.7168  12.7785  13.6600  13.8220  14.8837  15.2652
    15.7551  15.8133  15.9390  16.0370  16.0652  16.2336  16.5326  16.5410
    16.5753  16.7463  16.7594  16.7886  16.9601  16.9798  17.0543  17.0954
    17.1113  17.3477  17.4131  17.6498  18.0338  18.1385  18.2326  18.4001
    19.0932  19.9498

          k = 0.0000 0.2500 0.0239 ( 14045 PWs)   bands (ev):

   -67.0544 -67.0511 -67.0132 -67.0015 -66.9531 -62.5061 -62.4183 -62.4147
   -35.8100 -35.8039 -35.7835 -35.7817 -35.7772 -35.7754 -35.7746 -35.7665
   -35.7397 -35.7334 -35.7266 -35.7203 -35.7068 -35.6845 -35.6783 -31.3370
   -31.3291 -31.3162 -31.2473 -31.2438 -31.2394 -31.2359 -31.2355 -31.2325
     6.5265   6.6010   6.7415   6.9180   7.1335   7.3713   7.6071   7.8121
     8.0837   8.2230   8.3510   8.4610   8.5479   8.5814   8.6212   8.6382
     8.6489   8.6734   8.7070   8.7314   8.7853   8.8369   8.8817   9.0096
     9.0676   9.2533   9.2697   9.2889   9.3360   9.3766   9.4133   9.4424
     9.4521   9.4741   9.4977   9.5037   9.5694   9.5884   9.6589   9.7100
     9.7262   9.8286   9.8465   9.8975   9.9637   9.9803  10.0831  10.1251
    10.1555  10.2559  10.3101  10.3632  10.3701  10.3772  10.3927  10.4826
    10.5159  10.5346  10.6041  10.6394  10.6625  10.6692  10.7115  10.7706
    10.7815  10.8185  10.8735  10.9221  10.9265  10.9580  10.9773  11.0317
    11.1062  11.1284  11.1410  11.1692  11.1704  11.2088  11.2714  11.2835
    11.2852  11.3331  11.3627  11.3809  11.4393  11.4545  11.4752  11.5040
    11.5417  11.5736  11.5909  11.6125  11.6158  11.6461  11.6987  11.7376
    11.7670  11.7800  11.8247  11.8565  11.8893  11.9366  11.9939  12.1263
    12.1922  12.2676  12.2901  12.3193  12.4414  12.4958  12.5020  12.6073
    12.6408  12.6948  12.7168  12.9132  13.4338  14.0582  14.7191  15.4001
    15.7131  15.8216  15.9140  16.0325  16.0848  16.2397  16.5309  16.5410
    16.5753  16.7463  16.7569  16.7895  16.9686  16.9798  17.0543  17.0765
    17.1113  17.3186  17.4652  17.7063  17.8650  18.0633  18.3650  18.4984
    19.1035  19.6072

          k = 0.0000 0.2500-0.0478 ( 14050 PWs)   bands (ev):

   -67.0544 -67.0511 -67.0132 -67.0015 -66.9531 -62.5061 -62.4183 -62.4147
   -35.8100 -35.8039 -35.7835 -35.7817 -35.7772 -35.7754 -35.7746 -35.7665
   -35.7397 -35.7334 -35.7266 -35.7203 -35.7068 -35.6845 -35.6783 -31.3370
   -31.3291 -31.3162 -31.2473 -31.2438 -31.2394 -31.2359 -31.2355 -31.2325
     6.5340   6.5819   6.7941   6.8504   7.2394   7.2617   7.6962   7.7399
     8.1345   8.1700   8.4046   8.4115   8.5639   8.5849   8.6146   8.6362
     8.6479   8.6740   8.7053   8.7318   8.7846   8.8463   8.8824   8.9961
     9.0637   9.2697   9.2857   9.2887   9.3366   9.3755   9.4052   9.4244
     9.4533   9.4741   9.4906   9.4980   9.5673   9.5892   9.6600   9.7098
     9.7896   9.8280   9.8372   9.8469   9.9626   9.9804  10.0960  10.1379
    10.1599  10.2288  10.3080  10.3663  10.3877  10.3922  10.3931  10.4759
    10.5015  10.5126  10.6032  10.6516  10.6632  10.7005  10.7073  10.7551
    10.7965  10.8032  10.8434  10.9222  10.9560  10.9612  11.0001  11.0140
    11.1032  11.1284  11.1342  11.1639  11.1678  11.2267  11.2620  11.2815
    11.2839  11.3075  11.3774  11.3909  11.4294  11.4532  11.4968  11.5182
    11.5385  11.5746  11.5964  11.6085  11.6259  11.6282  11.6681  11.7267
    11.7798  11.7811  11.8247  11.8892  11.8967  11.9195  11.9820  12.1289
    12.1931  12.2639  12.2936  12.3712  12.4033  12.4407  12.5023  12.6070
    12.6411  12.6948  12.7168  13.0997  13.2131  14.2752  14.5184  15.5684
    15.6055  15.8383  15.8807  16.0413  16.0906  16.2469  16.5289  16.5410
    16.5753  16.7463  16.7544  16.7902  16.9798  16.9807  17.0543  17.0549
    17.1113  17.2959  17.5547  17.6741  17.8573  17.9339  18.4735  18.5573
    19.1875  19.3471

          k = 0.0000-0.5000 0.0000 ( 14098 PWs)   bands (ev):

   -67.0554 -67.0521 -67.0142 -67.0026 -66.9541 -62.5045 -62.4168 -62.4131
   -35.8094 -35.8034 -35.7892 -35.7874 -35.7769 -35.7751 -35.7741 -35.7659
   -35.7454 -35.7331 -35.7323 -35.7200 -35.7063 -35.6902 -35.6779 -31.3446
   -31.3286 -31.3154 -31.2549 -31.2514 -31.2389 -31.2354 -31.2348 -31.2317
     7.9230   7.9292   7.9536   7.9609   8.0232   8.0710   8.1273   8.1582
     8.1860   8.2649   8.2825   8.3249   8.3347   8.4338   8.4963   8.5035
     8.5559   8.6327   8.8581   8.8653   8.9350   8.9484   8.9707   8.9716
     9.0262   9.1083   9.1127   9.1681   9.2711   9.2750   9.3600   9.3617
     9.3849   9.4655   9.5115   9.5544   9.5669   9.5826   9.6371   9.6605
     9.6650   9.7666   9.8416   9.8422   9.8484   9.8740   9.8998  10.0050
    10.1339  10.2232  10.2683  10.3304  10.3405  10.3417  10.3683  10.3713
    10.5000  10.6579  10.9738  10.9851  11.0419  11.0780  11.1291  11.1551
    11.1555  11.2047  11.2264  11.2664  11.2670  11.2825  11.2859  11.3131
    11.3149  11.3334  11.3633  11.4057  11.4112  11.4703  11.4841  11.5085
    11.5200  11.5617  11.5797  11.6283  11.6570  11.7939  11.7947  11.8700
    11.9400  11.9695  11.9918  12.1207  12.1370  12.1425  12.1497  12.2748
    12.2889  12.3036  12.3278  12.3399  12.3696  12.4140  12.4222  12.4320
    12.4332  12.5009  12.5747  12.6142  12.6255  12.7070  12.7218  12.7228
    12.7234  12.7854  12.8042  12.8542  12.9853  13.1539  13.1820  13.4484
    13.5460  13.5770  13.6063  14.0234  14.0914  14.2057  14.2392  14.5243
    14.5482  16.3054  16.3582  16.3804  16.4862  16.5662  16.5729  16.5919
    16.7122  16.7242  17.2451  17.3313  17.3388  17.6585  17.7476  17.7554
    19.1267  19.1815

          k = 0.0000-0.5000 0.0239 ( 14094 PWs)   bands (ev):

   -67.0554 -67.0521 -67.0142 -67.0026 -66.9541 -62.5045 -62.4168 -62.4131
   -35.8094 -35.8034 -35.7892 -35.7874 -35.7769 -35.7751 -35.7741 -35.7659
   -35.7454 -35.7331 -35.7323 -35.7200 -35.7063 -35.6902 -35.6779 -31.3446
   -31.3286 -31.3154 -31.2549 -31.2514 -31.2389 -31.2354 -31.2348 -31.2317
     7.9229   7.9295   7.9540   7.9600   8.0247   8.0689   8.1325   8.1548
     8.1812   8.2726   8.2855   8.3233   8.3294   8.4337   8.4915   8.5030
     8.5628   8.6341   8.8554   8.8580   8.9350   8.9484   8.9707   8.9716
     9.0364   9.1083   9.1128   9.1760   9.2710   9.2750   9.3484   9.3510
     9.3851   9.4655   9.5123   9.5576   9.5722   9.5822   9.6364   9.6598
     9.6649   9.7680   9.8413   9.8418   9.8482   9.8881   9.9234   9.9910
    10.0923  10.2233  10.2683  10.3387  10.3417  10.3482  10.3683  10.3739
    10.5000  10.6675  10.9738  10.9794  11.0579  11.0663  11.1325  11.1551
    11.1556  11.2019  11.2293  11.2624  11.2636  11.2817  11.2828  11.3169
    11.3196  11.3366  11.3603  11.3772  11.3939  11.4790  11.5035  11.5083
    11.5188  11.5604  11.5787  11.6518  11.6570  11.7939  11.7951  11.8873
    11.9195  11.9687  11.9799  12.1278  12.1371  12.1433  12.1496  12.2770
    12.2898  12.3029  12.3213  12.3367  12.3697  12.4139  12.4225  12.4406
    12.4414  12.4924  12.5747  12.5940  12.6254  12.7218  12.7228  12.7327
    12.7407  12.7853  12.8042  12.8321  12.9534  13.1982  13.2136  13.3864
    13.4432  13.6778  13.6879  13.9425  14.0049  14.2782  14.3199  14.4986
    14.5222  16.3124  16.3588  16.3742  16.4862  16.5662  16.5729  16.5918
    16.7122  16.7242  17.2451  17.3313  17.3388  17.6586  17.7475  17.7554
    19.1452  19.2007

          k = 0.0000-0.5000-0.0478 ( 14104 PWs)   bands (ev):

   -67.0554 -67.0521 -67.0142 -67.0026 -66.9541 -62.5045 -62.4168 -62.4131
   -35.8094 -35.8034 -35.7892 -35.7874 -35.7769 -35.7751 -35.7741 -35.7659
   -35.7454 -35.7331 -35.7323 -35.7200 -35.7063 -35.6902 -35.6779 -31.3446
   -31.3286 -31.3154 -31.2549 -31.2514 -31.2389 -31.2354 -31.2348 -31.2317
     7.9227   7.9298   7.9544   7.9591   8.0261   8.0669   8.1385   8.1516
     8.1756   8.2817   8.2886   8.3216   8.3225   8.4337   8.4875   8.5026
     8.5689   8.6356   8.8512   8.8527   8.9350   8.9484   8.9707   8.9716
     9.0462   9.1083   9.1128   9.1847   9.2708   9.2750   9.3370   9.3397
     9.3853   9.4655   9.5129   9.5606   9.5772   9.5818   9.6357   9.6591
     9.6649   9.7695   9.8404   9.8420   9.8480   9.9076   9.9632   9.9714
    10.0384  10.2234  10.2683  10.3373  10.3417  10.3620  10.3682  10.3762
    10.5000  10.6778  10.9738  10.9753  11.0548  11.0737  11.1350  11.1551
    11.1556  11.1978  11.2339  11.2540  11.2607  11.2781  11.2862  11.3222
    11.3240  11.3367  11.3557  11.3597  11.3784  11.4853  11.5082  11.5140
    11.5175  11.5594  11.5778  11.6570  11.6784  11.7939  11.7955  11.8969
    11.9111  11.9612  11.9680  12.1341  12.1372  12.1442  12.1494  12.2798
    12.2909  12.3022  12.3147  12.3335  12.3697  12.4139  12.4229  12.4507
    12.4513  12.4813  12.5747  12.5770  12.6253  12.7218  12.7229  12.7571
    12.7750  12.7853  12.7936  12.8042  12.9242  13.2528  13.2776  13.3055
    13.3726  13.7741  13.7758  13.8384  13.9178  14.3497  14.4000  14.4565
    14.4740  16.3212  16.3594  16.3661  16.4862  16.5662  16.5729  16.5917
    16.7122  16.7243  17.2451  17.3313  17.3388  17.6588  17.7474  17.7554
    19.1689  19.2265

          k = 0.2500 0.2500 0.0000 ( 14096 PWs)   bands (ev):

   -67.0534 -67.0501 -67.0122 -67.0006 -66.9521 -62.5063 -62.4185 -62.4149
   -35.8096 -35.8035 -35.7831 -35.7831 -35.7813 -35.7812 -35.7742 -35.7660
   -35.7393 -35.7392 -35.7262 -35.7262 -35.7064 -35.6841 -35.6841 -31.3366
   -31.3362 -31.3156 -31.2468 -31.2465 -31.2433 -31.2429 -31.2349 -31.2319
     7.1947   7.2889   7.4198   7.7116   7.7750   8.1805   8.2267   8.4352
     8.4616   8.5478   8.5594   8.6786   8.7213   8.7547   8.7723   8.9147
     8.9298   8.9323   9.0956   9.1694   9.1824   9.1838   9.2183   9.2296
     9.2674   9.2754   9.2898   9.3278   9.3755   9.3926   9.4042   9.4109
     9.4289   9.4675   9.4783   9.4809   9.5013   9.5767   9.5889   9.6161
     9.6534   9.6767   9.7436   9.7447   9.8043   9.8202   9.8399   9.9223
     9.9239   9.9739   9.9754  10.0024  10.0122  10.0200  10.0558  10.0753
    10.1295  10.1676  10.2168  10.2604  10.3464  10.3655  10.4346  10.5223
    10.5925  10.6179  10.7855  10.8174  10.8182  10.8561  10.8976  10.9192
    10.9608  11.0709  11.2226  11.2830  11.3117  11.3205  11.3224  11.3516
    11.3582  11.4006  11.4279  11.5365  11.5656  11.6028  11.6250  11.6402
    11.6678  11.6769  11.7223  11.7267  11.7573  11.8380  11.9048  11.9354
    11.9611  12.0215  12.0735  12.0919  12.1716  12.1899  12.1976  12.2730
    12.2859  12.3857  12.4100  12.4172  12.4744  12.4920  12.5025  12.5327
    12.8255  12.9484  13.4389  13.6537  14.3962  14.6050  15.3789  15.9260
    16.0936  16.2285  16.3111  16.3512  16.4184  16.5283  16.6161  16.7354
    16.8129  16.8482  17.0357  17.0566  17.1890  17.3962  17.6280  17.7020
    17.7427  17.9861  17.9992  18.0896  18.3051  18.4250  18.5752  18.6069
    18.6980  18.7777

          k = 0.2500 0.2500 0.0239 ( 14068 PWs)   bands (ev):

   -67.0534 -67.0501 -67.0122 -67.0006 -66.9521 -62.5063 -62.4185 -62.4149
   -35.8096 -35.8035 -35.7831 -35.7831 -35.7813 -35.7812 -35.7742 -35.7660
   -35.7393 -35.7392 -35.7262 -35.7262 -35.7064 -35.6841 -35.6841 -31.3366
   -31.3362 -31.3156 -31.2468 -31.2465 -31.2433 -31.2429 -31.2349 -31.2319
     7.1991   7.2739   7.4486   7.6380   7.8601   8.0941   8.2964   8.4117
     8.4785   8.5263   8.5840   8.6582   8.7304   8.7576   8.7806   8.8761
     8.9398   8.9665   9.0845   9.1385   9.1824   9.1838   9.2183   9.2296
     9.2674   9.2798   9.3278   9.3350   9.3755   9.3934   9.4019   9.4071
     9.4348   9.4615   9.4754   9.4839   9.4966   9.5627   9.5785   9.5889
     9.6519   9.6889   9.7348   9.8041   9.8092   9.8204   9.8450   9.9222
     9.9239   9.9685   9.9739   9.9993  10.0024  10.0122  10.0209  10.0753
    10.1319  10.1786  10.2463  10.2714  10.3296  10.3484  10.4403  10.5224
    10.5904  10.6436  10.7811  10.7855  10.8174  10.8388  10.9033  10.9193
    11.0096  11.0741  11.1932  11.2810  11.2832  11.3183  11.3247  11.3511
    11.3907  11.4006  11.4482  11.5366  11.5656  11.5998  11.6053  11.6316
    11.6711  11.6800  11.7175  11.7345  11.7703  11.8502  11.8673  11.9370
    11.9923  12.0065  12.0724  12.1027  12.1604  12.1629  12.2357  12.2756
    12.2878  12.3717  12.4043  12.4127  12.4495  12.4825  12.5318  12.5712
    12.7585  13.0304  13.3294  13.7789  14.2481  14.7326  15.3260  15.9579
    16.0935  16.2296  16.3110  16.3374  16.4117  16.5411  16.6089  16.7219
    16.7997  16.8967  17.0357  17.0369  17.2229  17.3980  17.5165  17.6166
    17.9254  17.9868  18.0384  18.0961  18.3022  18.3975  18.4362  18.6424
    18.7788  18.8704

          k = 0.2500 0.2500-0.0478 ( 14070 PWs)   bands (ev):

   -67.0534 -67.0501 -67.0122 -67.0006 -66.9521 -62.5063 -62.4185 -62.4149
   -35.8096 -35.8035 -35.7831 -35.7831 -35.7813 -35.7812 -35.7742 -35.7660
   -35.7393 -35.7392 -35.7262 -35.7262 -35.7064 -35.6841 -35.6841 -31.3366
   -31.3362 -31.3156 -31.2468 -31.2465 -31.2433 -31.2429 -31.2349 -31.2319
     7.2049   7.2599   7.4875   7.5811   7.9576   7.9973   8.3544   8.3743
     8.5005   8.5034   8.6082   8.6332   8.7361   8.7550   8.8021   8.8453
     8.9499   8.9881   9.0714   9.1137   9.1824   9.1838   9.2183   9.2296
     9.2674   9.2838   9.3279   9.3756   9.3895   9.3945   9.4002   9.4039
     9.4421   9.4542   9.4604   9.4836   9.4859   9.5286   9.5766   9.5889
     9.6514   9.7089   9.7211   9.8040   9.8206   9.8495   9.8931   9.9222
     9.9239   9.9258   9.9639   9.9738  10.0024  10.0079  10.0122  10.0753
    10.1336  10.1913  10.2647  10.3037  10.3097  10.3215  10.4393  10.5243
    10.5914  10.6893  10.7206  10.7855  10.8174  10.8373  10.9027  10.9193
    11.0555  11.0951  11.1365  11.2707  11.2834  11.3172  11.3261  11.3506
    11.4001  11.4006  11.4836  11.5366  11.5657  11.5675  11.6097  11.6225
    11.6727  11.6820  11.7159  11.7373  11.7991  11.8260  11.8626  11.9399
    11.9911  12.0145  12.0716  12.1141  12.1448  12.1530  12.2549  12.2840
    12.3012  12.3341  12.3995  12.4153  12.4429  12.4826  12.5310  12.6445
    12.6789  13.1488  13.1939  13.9253  14.0909  14.8281  15.2659  15.9891
    16.0934  16.2308  16.3108  16.3223  16.4058  16.5563  16.5986  16.7113
    16.7959  16.9442  17.0077  17.0357  17.2845  17.3929  17.3998  17.6061
    17.9835  18.0172  18.0897  18.1186  18.2958  18.3417  18.3637  18.6929
    18.7806  18.9233

          k = 0.2500-0.5000 0.0000 ( 14092 PWs)   bands (ev):

   -67.0538 -67.0505 -67.0126 -67.0009 -66.9525 -62.5054 -62.4176 -62.4140
   -35.8091 -35.8031 -35.7887 -35.7869 -35.7826 -35.7808 -35.7738 -35.7656
   -35.7449 -35.7388 -35.7318 -35.7257 -35.7059 -35.6897 -35.6837 -31.3438
   -31.3358 -31.3150 -31.2541 -31.2506 -31.2460 -31.2425 -31.2343 -31.2313
     8.1532   8.1723   8.2163   8.2255   8.3486   8.3920   8.5207   8.5220
     8.5785   8.5798   8.5961   8.6038   8.6526   8.7078   8.7616   8.7699
     8.8211   8.8214   8.9271   8.9531   8.9689   9.0065   9.0502   9.0553
     9.0940   9.1039   9.2030   9.2058   9.2326   9.2608   9.3747   9.4032
     9.4421   9.5337   9.5787   9.6573   9.6573   9.7059   9.7756   9.8005
     9.8605   9.9274   9.9718   9.9837  10.1075  10.1227  10.1348  10.2211
    10.2350  10.2788  10.2930  10.3159  10.3236  10.3283  10.3819  10.4547
    10.4682  10.5477  10.6106  10.6230  10.7001  10.7059  10.7332  10.8143
    10.8383  10.9043  10.9079  10.9304  10.9362  10.9731  11.0385  11.0500
    11.0691  11.0897  11.2515  11.3342  11.3469  11.3640  11.3873  11.4101
    11.4306  11.4396  11.4640  11.4761  11.5972  11.6497  11.6530  11.7253
    11.7452  11.7585  11.7682  11.8135  11.8539  11.9245  11.9400  12.0045
    12.0109  12.0639  12.0909  12.1351  12.1692  12.1873  12.2178  12.2385
    12.2722  12.6148  12.6568  12.7873  12.9363  13.0577  13.0920  13.3125
    13.4370  13.6296  13.7146  14.0099  14.1700  14.2388  14.2896  14.6603
    14.8515  14.8772  14.9721  15.3192  15.7606  16.0203  16.0555  16.2909
    16.4768  16.7790  16.8075  16.8173  16.8463  16.8583  17.0257  17.3448
    17.3687  17.5003  17.6685  17.7732  17.8513  17.8587  18.0471  18.0704
    19.0212  19.0513

          k = 0.2500-0.5000 0.0239 ( 14106 PWs)   bands (ev):

   -67.0538 -67.0505 -67.0126 -67.0009 -66.9525 -62.5054 -62.4176 -62.4140
   -35.8091 -35.8031 -35.7887 -35.7869 -35.7826 -35.7808 -35.7738 -35.7656
   -35.7449 -35.7388 -35.7318 -35.7257 -35.7059 -35.6897 -35.6837 -31.3438
   -31.3358 -31.3150 -31.2541 -31.2506 -31.2460 -31.2425 -31.2343 -31.2313
     8.1546   8.1734   8.2143   8.2220   8.3507   8.3995   8.5147   8.5186
     8.5782   8.5802   8.5958   8.6042   8.6519   8.7078   8.7622   8.7700
     8.8202   8.8280   8.9281   8.9481   8.9712   9.0075   9.0491   9.0562
     9.0921   9.1017   9.2038   9.2076   9.2333   9.2628   9.3675   9.3939
     9.4560   9.5530   9.5606   9.6382   9.6748   9.7060   9.7820   9.7890
     9.8619   9.9271   9.9766   9.9840  10.1048  10.1222  10.1456  10.2287
    10.2355  10.2752  10.2840  10.3091  10.3228  10.3285  10.3586  10.4678
    10.4936  10.5363  10.6154  10.6219  10.6912  10.7197  10.7281  10.8192
    10.8208  10.9004  10.9073  10.9408  10.9460  10.9680  11.0419  11.0461
    11.0678  11.0886  11.2514  11.3339  11.3466  11.3643  11.3876  11.4106
    11.4306  11.4396  11.4642  11.4761  11.5973  11.6497  11.6526  11.7244
    11.7492  11.7558  11.7725  11.8082  11.8519  11.9257  11.9371  11.9959
    12.0120  12.0774  12.1050  12.1338  12.1748  12.1866  12.2155  12.2271
    12.2579  12.6368  12.6716  12.7585  12.9021  13.0898  13.1317  13.2752
    13.4045  13.6744  13.7428  13.9335  14.1690  14.2458  14.3602  14.5957
    14.8089  14.9324  15.0056  15.2949  15.7496  16.0390  16.0648  16.2768
    16.4748  16.7797  16.8111  16.8160  16.8470  16.8553  17.0290  17.3421
    17.3573  17.5148  17.6811  17.7721  17.8509  17.8602  18.0341  18.0477
    19.0875  19.1266

          k = 0.2500-0.5000-0.0478 ( 14104 PWs)   bands (ev):

   -67.0538 -67.0505 -67.0126 -67.0009 -66.9525 -62.5054 -62.4176 -62.4140
   -35.8091 -35.8031 -35.7887 -35.7869 -35.7826 -35.7808 -35.7738 -35.7656
   -35.7449 -35.7388 -35.7318 -35.7257 -35.7059 -35.6897 -35.6837 -31.3438
   -31.3358 -31.3150 -31.2541 -31.2506 -31.2460 -31.2425 -31.2343 -31.2313
     8.1560   8.1745   8.2122   8.2186   8.3527   8.4078   8.5066   8.5165
     8.5780   8.5806   8.5956   8.6046   8.6513   8.7079   8.7626   8.7700
     8.8193   8.8351   8.9290   8.9427   8.9737   9.0084   9.0478   9.0571
     9.0902   9.0995   9.2046   9.2092   9.2341   9.2651   9.3615   9.3853
     9.4714   9.5425   9.5863   9.6051   9.6916   9.7059   9.7759   9.7877
     9.8629   9.9269   9.9813   9.9842  10.1027  10.1214  10.1575  10.2360
    10.2435  10.2655  10.2703  10.3058  10.3169  10.3286  10.3463  10.4855
    10.5134  10.5203  10.6088  10.6361  10.6789  10.7170  10.7432  10.7995
    10.8243  10.8963  10.9090  10.9473  10.9587  10.9610  11.0414  11.0452
    11.0667  11.0874  11.2514  11.3337  11.3463  11.3646  11.3879  11.4111
    11.4306  11.4395  11.4645  11.4761  11.5974  11.6496  11.6522  11.7237
    11.7536  11.7540  11.7759  11.8022  11.8498  11.9269  11.9347  11.9888
    12.0128  12.0940  12.1172  12.1309  12.1852  12.1901  12.2052  12.2151
    12.2426  12.6750  12.6886  12.7150  12.8720  13.1340  13.1700  13.2269
    13.3695  13.7373  13.7703  13.8551  14.1275  14.3158  14.4028  14.5291
    14.7737  14.9805  15.0295  15.2666  15.7389  16.0596  16.0737  16.2605
    16.4728  16.7805  16.8148  16.8150  16.8476  16.8519  17.0324  17.3394
    17.3473  17.5280  17.6948  17.7705  17.8504  17.8623  18.0212  18.0244
    19.2073  19.2663

          k =-0.5000-0.5000 0.0000 ( 14124 PWs)   bands (ev):

   -67.0534 -67.0500 -67.0122 -67.0005 -66.9520 -62.5052 -62.4174 -62.4138
   -35.8088 -35.8027 -35.7881 -35.7881 -35.7863 -35.7863 -35.7734 -35.7653
   -35.7443 -35.7443 -35.7312 -35.7312 -35.7056 -35.6892 -35.6892 -31.3431
   -31.3431 -31.3146 -31.2534 -31.2534 -31.2499 -31.2499 -31.2339 -31.2309
     7.8718   7.8801   7.9370   7.9417   8.1009   8.1735   8.3594   8.3886
     8.5203   8.6246   8.8493   8.8605   8.9739   8.9792   9.0522   9.0522
     9.1063   9.1063   9.1116   9.1116   9.1819   9.2022   9.2362   9.2362
     9.2535   9.2535   9.4848   9.4848   9.5014   9.5014   9.5660   9.6486
     9.6486   9.6504   9.6504   9.6622   9.7145   9.7199   9.7199   9.7214
     9.7526   9.7526   9.7931   9.8050   9.8050   9.8844   9.8844   9.9285
     9.9285  10.3037  10.3037  10.3674  10.4466  10.4488  10.4999  10.4999
    10.9194  10.9215  10.9435  10.9486  10.9498  10.9498  11.0413  11.0602
    11.0811  11.0811  11.1510  11.1523  11.1803  11.1829  11.1930  11.2054
    11.2406  11.2716  11.2824  11.5546  11.5546  11.7195  11.7256  11.7305
    11.7549  11.7593  11.7819  11.7838  11.7840  11.8021  11.8183  11.8250
    11.8386  11.8434  11.8643  11.8682  11.8694  11.9633  11.9747  11.9806
    12.0057  12.0057  12.0179  12.0704  12.0727  12.0837  12.1352  12.3133
    12.3133  13.1421  13.2123  13.2155  13.6441  13.6441  13.8605  13.8605
    14.2677  14.2677  14.6141  14.6141  14.9633  14.9633  15.6521  15.6521
    16.3527  16.3527  16.3547  16.4370  16.4372  16.4689  16.5328  16.7322
    16.7408  16.7408  16.7412  16.7623  17.4498  17.4544  17.4544  17.4715
    17.5355  17.5576  17.5974  17.7801  17.8371  17.8371  17.8548  17.8575
    17.9002  17.9300

          k =-0.5000-0.5000 0.0239 ( 14168 PWs)   bands (ev):

   -67.0534 -67.0500 -67.0122 -67.0005 -66.9520 -62.5052 -62.4174 -62.4138
   -35.8088 -35.8027 -35.7881 -35.7881 -35.7863 -35.7863 -35.7734 -35.7653
   -35.7443 -35.7443 -35.7312 -35.7312 -35.7056 -35.6892 -35.6892 -31.3431
   -31.3431 -31.3146 -31.2534 -31.2534 -31.2499 -31.2499 -31.2339 -31.2309
     7.8730   7.8812   7.9345   7.9388   8.1045   8.1832   8.3517   8.3597
     8.5588   8.6484   8.8001   8.8109   9.0254   9.0308   9.0530   9.0530
     9.0931   9.0931   9.1320   9.1320   9.1601   9.1773   9.2007   9.2007
     9.2964   9.2964   9.4200   9.4200   9.5726   9.5726   9.5771   9.6486
     9.6486   9.6504   9.6504   9.6704   9.7039   9.7151   9.7185   9.7185
     9.7312   9.7312   9.7905   9.7905   9.7969   9.8504   9.8504  10.0070
    10.0070  10.2366  10.2366  10.3675  10.4466  10.4488  10.5716  10.5716
    10.8574  10.8574  10.9199  10.9214  10.9437  10.9478  11.0411  11.0610
[...]
    11.3975  11.4101  11.4386  11.5113  11.5375  11.5390  11.7957  11.7993
    11.8307  11.8673  11.9143  11.9143  12.0998  12.1505  12.1587  12.1602
    12.2022  12.2299  12.2814  12.2905  12.3007  12.3241  12.4283  12.4316
    12.4318  12.4676  12.4754  12.5144  12.5282  12.7284  12.7285  12.7562
    12.7581  12.7835  12.7962  13.0168  13.2303  13.2763  13.2867  13.7250
    13.7453  13.8256  13.8268  14.4074  14.4399  14.4673  14.5178  16.1951
    16.3502  16.3559  16.3591  16.5533  16.5613  16.5704  16.5722  16.5748
    16.6105  16.6379  16.6958  16.7236  16.7685  16.7797  17.3165  17.3239
    17.3391  17.3534  17.3742  17.6998  17.7467  17.7590  17.7716  17.8124
    19.4486  19.4502

          k = 0.2500 0.2500 0.0000 ( 14096 PWs)   bands (ev):

   -67.1239 -67.0256 -67.0247 -62.4421 -62.4357 -62.4093 -62.3991 -62.3620
   -35.8811 -35.8510 -35.8510 -35.7830 -35.7826 -35.7545 -35.7544 -35.7532
   -35.7531 -31.2717 -31.2713 -31.2664 -31.2661 -31.2568 -31.2483 -31.2372
   -31.2368 -31.2274 -31.2268 -31.2264 -31.2181 -31.1893 -31.1889 -31.1840
     7.2540   7.3328   7.5282   7.7958   7.8380   8.2547   8.2874   8.5148
     8.5246   8.6671   8.6737   8.7696   8.8387   8.8909   8.9108   9.0683
     9.1002   9.1193   9.1382   9.1930   9.1952   9.2305   9.3129   9.3513
     9.3644   9.3736   9.3882   9.4081   9.4411   9.4416   9.5066   9.5370
     9.5703   9.5760   9.6190   9.6494   9.6676   9.7028   9.7289   9.7443
     9.7868   9.8318   9.8485   9.8643   9.9563   9.9590   9.9826   9.9943
     9.9957  10.0189  10.0242  10.0752  10.1137  10.1706  10.2758  10.3686
    10.3831  10.4643  10.4885  10.5589  10.5835  10.6213  10.7790  10.7995
    10.8089  10.8164  10.8601  10.9110  10.9413  10.9593  10.9960  11.1577
    11.2204  11.3023  11.3027  11.3206  11.3546  11.5143  11.5423  11.5806
    11.6130  11.6171  11.6567  11.7143  11.7343  11.8263  11.8715  11.9185
    11.9359  11.9778  12.0264  12.0546  12.1147  12.1578  12.1814  12.1986
    12.2499  12.2902  12.3861  12.4083  12.4249  12.4371  12.6375  12.7808
    13.2069  13.3539  14.0810  14.2510  14.9202  15.3715  16.0084  16.0673
    16.0821  16.1655  16.3012  16.3084  16.3212  16.3715  16.4690  16.5332
    16.6503  16.6636  16.7779  16.8208  16.9219  16.9562  17.0197  17.0240
    17.0480  17.0716  17.1315  17.3440  17.3851  17.6375  17.9302  17.9749
    18.0041  18.2041  18.3273  18.3283  18.5529  18.8732  18.8741  18.9126
    18.9440  19.0979

          k = 0.2500 0.2500 0.0239 ( 14068 PWs)   bands (ev):

   -67.1239 -67.0256 -67.0247 -62.4421 -62.4357 -62.4093 -62.3991 -62.3620
   -35.8811 -35.8510 -35.8510 -35.7830 -35.7826 -35.7545 -35.7544 -35.7532
   -35.7531 -31.2717 -31.2713 -31.2664 -31.2661 -31.2568 -31.2483 -31.2372
   -31.2368 -31.2274 -31.2268 -31.2264 -31.2181 -31.1893 -31.1889 -31.1840
     7.2573   7.3242   7.5523   7.7151   7.9294   8.1636   8.3623   8.4801
     8.5559   8.6302   8.7120   8.7732   8.8368   8.8481   8.9515   9.0465
     9.1039   9.1368   9.1382   9.1885   9.1952   9.2305   9.2719   9.3512
     9.3645   9.3890   9.4066   9.4266   9.4422   9.4443   9.5061   9.5376
     9.5697   9.5763   9.6189   9.6436   9.6515   9.6676   9.7230   9.7387
     9.8318   9.8467   9.8601   9.8643   9.9563   9.9590   9.9826   9.9957
     9.9981  10.0189  10.0242  10.0367  10.1111  10.1710  10.2915  10.3655
    10.3971  10.4641  10.4827  10.5299  10.5953  10.6434  10.7406  10.7996
    10.8088  10.8440  10.8601  10.9110  10.9556  10.9593  10.9960  11.1132
    11.2353  11.3025  11.3203  11.3374  11.3546  11.4944  11.5143  11.5806
    11.6158  11.6487  11.6538  11.7142  11.7507  11.8127  11.8391  11.9355
    11.9494  11.9875  12.0226  12.0432  12.1172  12.1482  12.1836  12.2007
    12.2629  12.2902  12.3477  12.4247  12.4333  12.4573  12.5956  12.8391
    13.0983  13.4779  13.9329  14.3963  14.8478  15.4100  15.9937  16.0668
    16.0831  16.1640  16.2984  16.3019  16.3272  16.3798  16.4510  16.5509
    16.6589  16.6620  16.7776  16.8247  16.8875  16.9807  17.0198  17.0240
    17.0484  17.0716  17.1256  17.3126  17.4668  17.6386  17.8021  17.9641
    18.0459  18.1894  18.3614  18.3716  18.6485  18.7112  18.8742  18.9163
    19.0976  19.1335

          k = 0.2500 0.2500-0.0478 ( 14070 PWs)   bands (ev):

   -67.1239 -67.0256 -67.0247 -62.4421 -62.4357 -62.4093 -62.3991 -62.3620
   -35.8811 -35.8510 -35.8510 -35.7830 -35.7826 -35.7545 -35.7544 -35.7532
   -35.7531 -31.2717 -31.2713 -31.2664 -31.2661 -31.2568 -31.2483 -31.2372
   -31.2368 -31.2274 -31.2268 -31.2264 -31.2181 -31.1893 -31.1889 -31.1840
     7.2613   7.3155   7.5930   7.6525   8.0254   8.0681   8.4251   8.4354
     8.5882   8.5965   8.7347   8.7924   8.8021   8.8376   8.9878   9.0142
     9.1143   9.1382   9.1479   9.1819   9.1952   9.2305   9.2465   9.3511
     9.3646   9.3899   9.4049   9.4399   9.4433   9.4836   9.5055   9.5451
     9.5601   9.5765   9.5915   9.6188   9.6482   9.6672   9.7264   9.7361
     9.8317   9.8465   9.8643   9.9431   9.9563   9.9590   9.9621   9.9826
     9.9957  10.0065  10.0188  10.0242  10.1059  10.1710  10.3056  10.3640
    10.4188  10.4464  10.4897  10.5068  10.5971  10.6843  10.6952  10.7997
    10.8087  10.8574  10.8601  10.9110  10.9592  10.9810  10.9940  11.0727
    11.2400  11.3027  11.3200  11.3547  11.3938  11.4348  11.5143  11.5806
    11.6199  11.6403  11.6819  11.7141  11.7770  11.7967  11.8052  11.9351
    11.9766  12.0001  12.0154  12.0261  12.1214  12.1383  12.1848  12.2026
    12.2829  12.2902  12.3183  12.4246  12.4343  12.5013  12.5462  12.9333
    12.9808  13.6057  13.7933  14.5229  14.7506  15.4447  15.9780  16.0663
    16.0841  16.1624  16.2918  16.3016  16.3342  16.3860  16.4360  16.5655
    16.6533  16.6746  16.7772  16.8351  16.8566  16.9946  17.0199  17.0239
    17.0490  17.0716  17.1196  17.3003  17.5903  17.6397  17.6482  17.9542
    18.0594  18.1822  18.3761  18.4393  18.5993  18.7995  18.8749  18.9744
    19.0044  19.0993

          k = 0.2500-0.5000 0.0000 ( 14092 PWs)   bands (ev):

   -67.1242 -67.0260 -67.0251 -62.4412 -62.4348 -62.4084 -62.3981 -62.3611
   -35.8807 -35.8566 -35.8506 -35.7826 -35.7822 -35.7601 -35.7588 -35.7540
   -35.7527 -31.2790 -31.2737 -31.2709 -31.2656 -31.2562 -31.2477 -31.2445
   -31.2364 -31.2341 -31.2268 -31.2260 -31.2175 -31.1966 -31.1885 -31.1834
     8.2212   8.2212   8.2820   8.3189   8.5103   8.5169   8.5913   8.6067
     8.6109   8.6142   8.6427   8.6753   8.7789   8.7813   8.8533   8.9547
     8.9824   8.9848   9.0305   9.0958   9.0984   9.1239   9.1617   9.1814
     9.2066   9.2455   9.3668   9.3898   9.3994   9.4193   9.5097   9.5354
     9.5604   9.6076   9.6603   9.7545   9.7832   9.8015   9.8294   9.8628
     9.9905   9.9995  10.0975  10.1980  10.2000  10.2504  10.2887  10.3088
    10.3108  10.4968  10.5045  10.5474  10.5528  10.6145  10.6462  10.6693
    10.6910  10.7323  10.7333  10.7586  10.8427  10.8662  10.8800  10.9196
    10.9247  10.9818  10.9867  11.0529  11.0571  11.0787  11.2334  11.3496
    11.3521  11.3861  11.4229  11.4251  11.6053  11.6306  11.6396  11.6484
    11.6683  11.7223  11.7669  11.7672  11.8320  11.9384  11.9400  11.9990
    12.0699  12.0796  12.0871  12.1649  12.1721  12.2230  12.2301  12.5612
    12.6118  12.7223  12.7294  12.7957  12.9625  13.1411  13.1601  13.4149
    13.5236  13.7367  13.7654  13.8418  14.1313  14.3405  14.3818  14.4160
    14.5802  15.0080  15.0115  15.1728  15.8234  16.0809  16.0813  16.5987
    16.6385  16.7967  16.8130  16.8254  16.8346  16.8556  16.8646  16.8679
    16.8865  17.1826  17.1969  17.3507  17.3613  17.5330  17.5758  17.8351
    17.8378  17.8587  17.9242  17.9855  18.0039  18.0180  18.2151  18.2728
    19.2561  19.2804

          k = 0.2500-0.5000 0.0239 ( 14106 PWs)   bands (ev):

   -67.1242 -67.0260 -67.0251 -62.4412 -62.4348 -62.4084 -62.3981 -62.3611
   -35.8807 -35.8566 -35.8506 -35.7826 -35.7822 -35.7601 -35.7588 -35.7540
   -35.7527 -31.2790 -31.2737 -31.2709 -31.2656 -31.2562 -31.2477 -31.2445
   -31.2364 -31.2341 -31.2268 -31.2260 -31.2175 -31.1966 -31.1885 -31.1834
     8.2214   8.2215   8.2817   8.3179   8.5146   8.5176   8.5880   8.6068
     8.6097   8.6143   8.6420   8.6752   8.7788   8.7808   8.8522   8.9594
     8.9807   8.9891   9.0279   9.0945   9.0986   9.1245   9.1601   9.1807
     9.2067   9.2454   9.3625   9.3880   9.4073   9.4262   9.4953   9.5212
     9.5808   9.6227   9.6483   9.7440   9.7898   9.8045   9.8266   9.8633
     9.9911   9.9987  10.0976  10.1989  10.2107  10.2498  10.2757  10.3087
    10.3087  10.5041  10.5086  10.5416  10.5494  10.6275  10.6445  10.6655
    10.7000  10.7056  10.7281  10.7806  10.8442  10.8546  10.8852  10.9190
    10.9295  10.9799  10.9831  11.0567  11.0579  11.0765  11.2334  11.3496
    11.3521  11.3861  11.4229  11.4251  11.6048  11.6316  11.6414  11.6481
    11.6672  11.7223  11.7659  11.7670  11.8321  11.9394  11.9401  11.9904
    12.0656  12.0918  12.0961  12.1686  12.1762  12.2117  12.2203  12.5743
    12.6270  12.6929  12.7099  12.8189  12.9784  13.1297  13.1454  13.4368
    13.5425  13.6786  13.7411  13.9074  14.1669  14.2474  14.3654  14.4635
    14.6117  14.9790  15.0049  15.1918  15.8257  16.0791  16.0799  16.5995
    16.6386  16.7961  16.8144  16.8256  16.8334  16.8548  16.8649  16.8682
    16.8869  17.1825  17.1959  17.3510  17.3629  17.5313  17.5748  17.8353
    17.8382  17.8582  17.9158  17.9711  18.0348  18.0474  18.1917  18.2426
    19.3188  19.3481

          k = 0.2500-0.5000-0.0478 ( 14104 PWs)   bands (ev):

   -67.1242 -67.0260 -67.0251 -62.4412 -62.4348 -62.4084 -62.3981 -62.3611
   -35.8807 -35.8566 -35.8506 -35.7826 -35.7822 -35.7601 -35.7588 -35.7540
   -35.7527 -31.2790 -31.2737 -31.2709 -31.2656 -31.2562 -31.2477 -31.2445
   -31.2364 -31.2341 -31.2268 -31.2260 -31.2175 -31.1966 -31.1885 -31.1834
     8.2215   8.2218   8.2814   8.3168   8.5182   8.5195   8.5839   8.6069
     8.6088   8.6144   8.6412   8.6752   8.7787   8.7803   8.8512   8.9655
     8.9776   8.9941   9.0246   9.0932   9.0987   9.1252   9.1585   9.1799
     9.2068   9.2453   9.3593   9.3866   9.4148   9.4337   9.4837   9.5084
     9.6070   9.6268   9.6365   9.7339   9.7956   9.8073   9.8232   9.8638
     9.9917   9.9978  10.0977  10.1990  10.2329  10.2493  10.2511  10.3076
    10.3086  10.5135  10.5143  10.5327  10.5452  10.6430  10.6508  10.6632
    10.6761  10.7116  10.7198  10.7965  10.8432  10.8457  10.8879  10.9184
    10.9346  10.9781  10.9790  11.0587  11.0615  11.0731  11.2333  11.3496
    11.3520  11.3862  11.4230  11.4251  11.6043  11.6326  11.6433  11.6477
    11.6659  11.7222  11.7646  11.7670  11.8322  11.9388  11.9422  11.9826
    12.0630  12.1032  12.1033  12.1789  12.1842  12.1934  12.2065  12.5925
    12.6562  12.6648  12.6769  12.8360  12.9958  13.1186  13.1289  13.4633
    13.5651  13.6336  13.7139  13.9638  14.1848  14.2219  14.3013  14.5069
    14.6363  14.9523  14.9979  15.2072  15.8281  16.0773  16.0786  16.6004
    16.6387  16.7956  16.8160  16.8257  16.8322  16.8541  16.8651  16.8685
    16.8873  17.1824  17.1949  17.3513  17.3646  17.5295  17.5738  17.8356
    17.8386  17.8576  17.9098  17.9647  18.0652  18.0843  18.1609  18.2033
    19.4375  19.4689

          k =-0.5000-0.5000 0.0000 ( 14124 PWs)   bands (ev):

   -67.1238 -67.0256 -67.0246 -62.4410 -62.4346 -62.4082 -62.3980 -62.3609
   -35.8804 -35.8560 -35.8560 -35.7823 -35.7819 -35.7595 -35.7595 -35.7582
   -35.7582 -31.2782 -31.2782 -31.2730 -31.2730 -31.2558 -31.2473 -31.2438
   -31.2438 -31.2334 -31.2334 -31.2264 -31.2171 -31.1959 -31.1959 -31.1830
     7.9392   7.9395   8.0151   8.0690   8.3369   8.3427   8.5153   8.5384
     8.6717   8.7112   8.9544   8.9640   9.0054   9.0229   9.0601   9.0601
     9.0973   9.0973   9.1419   9.1419   9.2033   9.2161   9.2574   9.2574
     9.2707   9.2707   9.5043   9.5043   9.5160   9.5160   9.6440   9.6440
     9.6598   9.6598   9.6703   9.7023   9.7172   9.7635   9.7635   9.8636
     9.8636   9.9101   9.9101  10.2820  10.2820  10.3690  10.4266  10.4266
    10.4342  10.4444  10.4848  10.4889  10.8517  10.8517  10.9507  10.9528
    10.9716  10.9716  10.9791  11.0032  11.0817  11.1766  11.1790  11.1881
    11.1905  11.3227  11.3227  11.6943  11.7049  11.7049  11.7517  11.7550
    11.7551  11.7584  11.7748  11.7800  11.7866  11.8108  11.8395  11.8405
    11.8450  11.8517  11.8658  11.8718  11.8934  11.9096  11.9738  11.9871
    11.9900  12.0290  12.0605  12.0807  12.0807  12.0845  12.0848  13.1889
    13.1988  13.2141  13.2144  13.2439  13.6943  13.6943  13.8392  13.8392
    14.1127  14.1127  14.3463  14.3463  14.4814  14.4814  14.9914  14.9914
    15.6444  15.6444  16.3433  16.3527  16.3527  16.4286  16.4307  16.5624
    16.6714  16.7256  16.7365  16.8611  17.0117  17.0117  17.1720  17.1720
    17.4586  17.4677  17.5423  17.6759  17.8213  17.8236  17.8369  17.8369
    17.8445  17.8639  17.8777  17.8787  17.9030  17.9394  18.0499  18.0499
    18.1787  18.4771

          k =-0.5000-0.5000 0.0239 ( 14168 PWs)   bands (ev):

   -67.1238 -67.0256 -67.0246 -62.4410 -62.4346 -62.4082 -62.3980 -62.3609
   -35.8804 -35.8560 -35.8560 -35.7823 -35.7819 -35.7595 -35.7595 -35.7582
   -35.7582 -31.2782 -31.2782 -31.2730 -31.2730 -31.2558 -31.2473 -31.2438
   -31.2438 -31.2334 -31.2334 -31.2264 -31.2171 -31.1959 -31.1959 -31.1830
     7.9393   7.9397   8.0147   8.0683   8.3427   8.3458   8.5052   8.5161
     8.7098   8.7339   8.8884   8.9095   9.0612   9.0612   9.0657   9.0790
     9.0923   9.0923   9.1539   9.1539   9.1874   9.1976   9.2199   9.2199
     9.3155   9.3155   9.4384   9.4384   9.5876   9.5876   9.6445   9.6445
     9.6598   9.6598   9.6768   9.7029   9.7121   9.7440   9.7440   9.8090
     9.8090   9.9906   9.9906  10.2117  10.2117  10.3683  10.4353  10.4445
    10.4844  10.4889  10.4987  10.4987  10.7700  10.7700  10.9507  10.9527
    10.9790  11.0033  11.0477  11.0477  11.0817  11.1766  11.1790  11.1882
    11.1905  11.2909  11.2909  11.6943  11.7157  11.7157  11.7517  11.7550
    11.7551  11.7584  11.7748  11.7800  11.7866  11.8108  11.8395  11.8405
    11.8450  11.8517  11.8658  11.8718  11.8934  11.9095  11.9753  11.9872
    11.9880  12.0289  12.0616  12.0775  12.0775  12.0839  12.0848  13.1889
    13.1988  13.2141  13.2144  13.2439  13.7089  13.7089  13.8145  13.8145
    14.1328  14.1328  14.3317  14.3317  14.4863  14.4863  14.9913  14.9913
    15.6444  15.6444  16.3433  16.3539  16.3539  16.4287  16.4307  16.5618
    16.6716  16.7282  16.7362  16.8580  16.9737  16.9737  17.2489  17.2489
    17.4689  17.4831  17.5277  17.6453  17.6948  17.6948  17.8213  17.8236
    17.8585  17.8639  17.8777  17.9011  17.9030  17.9297  18.1726  18.2207
    18.2207  18.4772

          k =-0.5000-0.5000-0.0478 ( 14176 PWs)   bands (ev):

   -67.1238 -67.0256 -67.0246 -62.4410 -62.4346 -62.4082 -62.3980 -62.3609
   -35.8804 -35.8560 -35.8560 -35.7823 -35.7819 -35.7595 -35.7595 -35.7582
   -35.7582 -31.2782 -31.2782 -31.2730 -31.2730 -31.2558 -31.2473 -31.2438
   -31.2438 -31.2334 -31.2334 -31.2264 -31.2171 -31.1959 -31.1959 -31.1830
     7.9395   7.9399   8.0143   8.0675   8.3491   8.3493   8.4957   8.4975
     8.7635   8.7639   8.8257   8.8657   9.0625   9.0625   9.0880   9.0880
     9.1179   9.1431   9.1520   9.1562   9.1750   9.1750   9.1901   9.1901
     9.3693   9.3693   9.3776   9.3776   9.6387   9.6387   9.6594   9.6594
     9.6725   9.6725   9.6754   9.6754   9.6863   9.7036   9.7040   9.7935
     9.7935  10.0815  10.0815  10.1191  10.1191  10.3676  10.4363  10.4445
    10.4840  10.4889  10.5802  10.5802  10.6851  10.6851  10.9508  10.9526
    10.9790  11.0034  11.0817  11.1150  11.1150  11.1766  11.1790  11.1882
    11.1904  11.2455  11.2455  11.6943  11.7260  11.7260  11.7517  11.7550
    11.7551  11.7584  11.7748  11.7800  11.7866  11.8108  11.8395  11.8405
    11.8450  11.8517  11.8658  11.8718  11.8934  11.9095  11.9775  11.9854
    11.9873  12.0287  12.0627  12.0742  12.0742  12.0832  12.0848  13.1889
    13.1988  13.2141  13.2144  13.2439  13.7341  13.7341  13.7806  13.7806
    14.1537  14.1537  14.3154  14.3154  14.4907  14.4907  14.9913  14.9913
    15.6444  15.6444  16.3433  16.3552  16.3552  16.4288  16.4307  16.5612
    16.6717  16.7309  16.7360  16.8548  16.9482  16.9482  17.3373  17.3373
    17.4919  17.5005  17.5043  17.5753  17.5753  17.6119  17.8213  17.8236
    17.8639  17.8777  17.8782  17.9030  17.9142  17.9210  18.1659  18.4565
    18.4566  18.5038

     the Fermi energy is    15.0632 ev

!    total energy              =  -14694.08530258 Ry
     Harris-Foulkes estimate   =  -14694.08529822 Ry
     estimated scf accuracy    <       0.00000045 Ry

     total all-electron energy =   -626921.681025 Ry

     The total energy is the sum of the following terms:

     one-electron contribution =    -729.76208491 Ry
     hartree contribution      =     661.40766615 Ry
     xc contribution           =    -737.70753438 Ry
     ewald contribution        =   -2186.64874840 Ry
     Hubbard energy            =       0.44080054 Ry
     one-center paw contrib.   =  -11701.81540157 Ry

     total magnetization       =     8.76 Bohr mag/cell
     absolute magnetization    =    37.43 Bohr mag/cell

     convergence has been achieved in  28 iterations

     Writing output data file mnau2.save/
 
     init_run     :     12.46s CPU     25.52s WALL (       1 calls)
     electrons    :    682.50s CPU   1397.14s WALL (       1 calls)

     Called by init_run:
     wfcinit      :     10.59s CPU     21.65s WALL (       1 calls)
     potinit      :      0.93s CPU      1.91s WALL (       1 calls)
     hinit0       :      0.51s CPU      1.06s WALL (       1 calls)

     Called by electrons:
     c_bands      :    578.68s CPU   1181.15s WALL (      28 calls)
     sum_band     :     80.22s CPU    166.78s WALL (      28 calls)
     v_of_rho     :      1.59s CPU      2.95s WALL (      29 calls)
     newd         :      4.54s CPU     10.47s WALL (      29 calls)
     PAW_pot      :     17.79s CPU     35.66s WALL (      29 calls)
     mix_rho      :      0.31s CPU      0.89s WALL (      28 calls)

     Called by c_bands:
     init_us_2    :      1.84s CPU      1.94s WALL (    2088 calls)
     cegterg      :    555.09s CPU   1127.62s WALL (    1010 calls)

     Called by sum_band:
     sum_band:bec :      0.66s CPU      0.66s WALL (    1008 calls)
     addusdens    :      7.39s CPU     15.64s WALL (      28 calls)

     Called by *egterg:
     h_psi        :    268.91s CPU    578.58s WALL (    3708 calls)
     s_psi        :     39.32s CPU     44.17s WALL (    3744 calls)
     g_psi        :      1.25s CPU      1.26s WALL (    2662 calls)
     cdiaghg      :    164.78s CPU    296.87s WALL (    3672 calls)

     Called by h_psi:
     h_psi:pot    :    256.13s CPU    518.23s WALL (    3708 calls)
     h_psi:calbec :     41.52s CPU     50.38s WALL (    3708 calls)
     vloc_psi     :    177.04s CPU    429.62s WALL (    3708 calls)
     add_vuspsi   :     37.55s CPU     38.21s WALL (    3708 calls)
     vhpsi        :     12.09s CPU     59.06s WALL (    3708 calls)

     General routines
     calbec       :     68.58s CPU    137.56s WALL (    9468 calls)
     fft          :      0.89s CPU      3.14s WALL (     721 calls)
     ffts         :      0.05s CPU      0.30s WALL (     114 calls)
     fftw         :    211.72s CPU    527.18s WALL (  948134 calls)
     interpolate  :      0.10s CPU      0.33s WALL (      58 calls)
     davcio       :      0.00s CPU      0.01s WALL (      36 calls)
 
     Parallel routines
     fft_scatt_xy :     13.12s CPU     13.64s WALL (  948969 calls)
     fft_scatt_yz :    134.70s CPU    449.63s WALL (  948969 calls)

     Hubbard U routines
     new_ns       :      2.21s CPU      4.69s WALL (      28 calls)
     vhpsi        :     12.09s CPU     59.06s WALL (    3708 calls)
 
     PWSCF        : 11m49.08s CPU    24m23.51s WALL

 
   This run was terminated on:  17:33:47   1Apr2019            

=------------------------------------------------------------------------------=
   JOB DONE.
=------------------------------------------------------------------------------=
