
     Program PWSCF v.6.3MaX starts on  1Apr2019 at 15:11:37 

     This program is part of the open-source Quantum ESPRESSO suite
     for quantum simulation of materials; please cite
         "P. Giannozzi et al., J. Phys.:Condens. Matter 21 395502 (2009);
         "P. Giannozzi et al., J. Phys.:Condens. Matter 29 465901 (2017);
          URL http://www.quantum-espresso.org", 
     in publications or presentations arising from this work. More details at
     http://www.quantum-espresso.org/quote

     Parallel version (MPI), running on    32 processors

     MPI processes distributed on     4 nodes
     R & G space division:  proc/nbgrp/npool/nimage =      32
     Waiting for input...
     Reading input from standard input

     Current dimensions of program PWSCF are:
     Max number of different atomic species (ntypx) = 10
     Max number of k-points (npk) =  40000
     Max angular momentum in pseudopotentials (lmaxx) =  3
     Message from routine read_upf::
     Pseudo file ./pseudo/Mn.pbe-spn-kjpaw_psl.0.3.1.UPF has been successfully fixed on the fly.
To avoid this message in the future you can permanently fix 
 your pseudo files following instructions given in: 
https://gitlab.com/QEF/q-e/blob/master/upftools/how_to_fix_upf.md
               file Mn.pbe-spn-kjpaw_psl.0.3.1.UPF: wavefunction(s)  3P 3D renormalized
     Message from routine read_upf::
     Pseudo file ./pseudo/Mn.pbe-spn-kjpaw_psl.0.3.1.UPF has been successfully fixed on the fly.
To avoid this message in the future you can permanently fix 
 your pseudo files following instructions given in: 
https://gitlab.com/QEF/q-e/blob/master/upftools/how_to_fix_upf.md
               file Mn.pbe-spn-kjpaw_psl.0.3.1.UPF: wavefunction(s)  3P 3D renormalized
     Message from routine read_upf::
     Pseudo file ./pseudo/Au.pbe-dn-kjpaw_psl.0.1.UPF has been successfully fixed on the fly.
To avoid this message in the future you can permanently fix 
 your pseudo files following instructions given in: 
https://gitlab.com/QEF/q-e/blob/master/upftools/how_to_fix_upf.md
               file Au.pbe-dn-kjpaw_psl.0.1.UPF: wavefunction(s)  6S 6P 5D renormalized

     Subspace diagonalization in iterative solution of the eigenvalue problem:
     one sub-group per band group will be used
     scalapack distributed-memory algorithm (size of sub-group:  4*  4 procs)

 
     Parallelization info
     --------------------
     sticks:   dense  smooth     PW     G-vecs:    dense   smooth      PW
     Min          41      18      5                11647     3506     571
     Max          42      19      6                11691     3549     614
     Sum        1313     593    177               373547   112863   18983
 


     bravais-lattice index     =            0
     lattice parameter (alat)  =       6.4153  a.u.
     unit-cell volume          =    2762.7331 (a.u.)^3
     number of atoms/cell      =           24
     number of atomic types    =            3
     number of electrons       =       296.00
     number of Kohn-Sham states=          178
     kinetic-energy cutoff     =      45.0000  Ry
     charge density cutoff     =     400.0000  Ry
     convergence threshold     =      1.0E-06
     mixing beta               =       0.1000
     number of iterations used =            8  plain     mixing
     Exchange-correlation      = SLA PW PBX PBC ( 1  4  3  4 0 0)

     celldm(1)=   6.415315  celldm(2)=   0.000000  celldm(3)=   0.000000
     celldm(4)=   0.000000  celldm(5)=   0.000000  celldm(6)=   0.000000

     crystal axes: (cart. coord. in units of alat)
               a(1) = (   1.000000   0.000000   0.000000 )  
               a(2) = (   0.000000   1.000000   0.000000 )  
               a(3) = (   0.000000   0.000000  10.463692 )  

     reciprocal axes: (cart. coord. in units 2 pi/alat)
               b(1) = (  1.000000  0.000000  0.000000 )  
               b(2) = (  0.000000  1.000000  0.000000 )  
               b(3) = (  0.000000  0.000000  0.095569 )  


     PseudoPot. # 1 for Mn read from file:
     ./pseudo/Mn.pbe-spn-kjpaw_psl.0.3.1.UPF
     MD5 check sum: 7eef95dd2aae66803482eea66ebeebf1
     Pseudo is Projector augmented-wave + core cor, Zval = 15.0
     Generated using "atomic" code by A. Dal Corso v.5.0.99 svn rev. 10869
     Shape of augmentation charge: PSQ
     Using radial grid of 1187 points,  6 beta functions with: 
                l(1) =   0
                l(2) =   0
                l(3) =   1
                l(4) =   1
                l(5) =   2
                l(6) =   2
     Q(r) pseudized with 0 coefficients 


     PseudoPot. # 2 for Mn read from file:
     ./pseudo/Mn.pbe-spn-kjpaw_psl.0.3.1.UPF
     MD5 check sum: 7eef95dd2aae66803482eea66ebeebf1
     Pseudo is Projector augmented-wave + core cor, Zval = 15.0
     Generated using "atomic" code by A. Dal Corso v.5.0.99 svn rev. 10869
     Shape of augmentation charge: PSQ
     Using radial grid of 1187 points,  6 beta functions with: 
                l(1) =   0
                l(2) =   0
                l(3) =   1
                l(4) =   1
                l(5) =   2
                l(6) =   2
     Q(r) pseudized with 0 coefficients 


     PseudoPot. # 3 for Au read from file:
     ./pseudo/Au.pbe-dn-kjpaw_psl.0.1.UPF
     MD5 check sum: 5c9b92683623e7ae2ab3f8e525febab6
     Pseudo is Projector augmented-wave + core cor, Zval = 11.0
     Generated using "atomic" code by A. Dal Corso v.5.0.2 svn rev. 9415
     Shape of augmentation charge: PSQ
     Using radial grid of 1279 points,  6 beta functions with: 
                l(1) =   0
                l(2) =   0
                l(3) =   1
                l(4) =   1
                l(5) =   2
                l(6) =   2
     Q(r) pseudized with 0 coefficients 


     atomic species   valence    mass     pseudopotential
        Mn1           15.00    54.93800     Mn( 1.00)
        Mn2           15.00    54.93800     Mn( 1.00)
        Au            11.00   196.96600     Au( 1.00)

     Starting magnetic structure 
     atomic species   magnetization
        Mn1          0.800
        Mn2         -0.800
        Au           0.000


     Full LDA+U calculation (l_max = 2) with parameters (eV):
     U(  1) =   3.1200   J(  1) =   0.7000   B(  1) =   0.0803
     U(  2) =   3.1200   J(  2) =   0.7000   B(  2) =   0.0803



     16 Sym. Ops., with inversion, found ( 8 have fractional translation)



   Cartesian axes

     site n.     atom                  positions (alat units)
         1           Mn1 tau(   1) = (   0.0000000   0.0000000   0.0000000  )
         2           Mn1 tau(   2) = (   0.5000000   0.5000000   1.3079615  )
         3           Mn2 tau(   3) = (   0.0000000   0.0000000   2.6159231  )
         4           Mn1 tau(   4) = (   0.5000000   0.5000000   3.9238846  )
         5           Mn1 tau(   5) = (   0.0000000   0.0000000   5.2318461  )
         6           Mn2 tau(   6) = (   0.5000000   0.5000000   6.5398077  )
         7           Mn1 tau(   7) = (   0.0000000   0.0000000   7.8477692  )
         8           Mn2 tau(   8) = (   0.5000000   0.5000000   9.1557307  )
         9           Au  tau(   9) = (   0.5000000   0.5000000   0.4185477  )
        10           Au  tau(  10) = (   0.0000000   0.0000000   0.8894138  )
        11           Au  tau(  11) = (   0.0000000   0.0000000   1.7265092  )
        12           Au  tau(  12) = (   0.5000000   0.5000000   2.1973754  )
        13           Au  tau(  13) = (   0.5000000   0.5000000   3.0344708  )
        14           Au  tau(  14) = (   0.0000000   0.0000000   3.5053369  )
        15           Au  tau(  15) = (   0.0000000   0.0000000   4.3424323  )
        16           Au  tau(  16) = (   0.5000000   0.5000000   4.8132984  )
        17           Au  tau(  17) = (   0.5000000   0.5000000   5.6503938  )
        18           Au  tau(  18) = (   0.0000000   0.0000000   6.1212600  )
        19           Au  tau(  19) = (   0.0000000   0.0000000   6.9583554  )
        20           Au  tau(  20) = (   0.5000000   0.5000000   7.4292215  )
        21           Au  tau(  21) = (   0.5000000   0.5000000   8.2663169  )
        22           Au  tau(  22) = (   0.0000000   0.0000000   8.7371830  )
        23           Au  tau(  23) = (   0.0000000   0.0000000   9.5742784  )
        24           Au  tau(  24) = (   0.5000000   0.5000000  10.0451446  )

     number of k points=    40 (tetrahedron method)
                       cart. coord. in units 2pi/alat
        k(    1) = (   0.0000000   0.0000000   0.0000000), wk =   0.0046296
        k(    2) = (   0.0000000   0.0000000   0.0159281), wk =   0.0092593
        k(    3) = (   0.0000000   0.0000000   0.0318562), wk =   0.0092593
        k(    4) = (   0.0000000   0.0000000  -0.0477843), wk =   0.0046296
        k(    5) = (   0.0000000   0.1666667   0.0000000), wk =   0.0185185
        k(    6) = (   0.0000000   0.1666667   0.0159281), wk =   0.0370370
        k(    7) = (   0.0000000   0.1666667   0.0318562), wk =   0.0370370
        k(    8) = (   0.0000000   0.1666667  -0.0477843), wk =   0.0185185
        k(    9) = (   0.0000000   0.3333333   0.0000000), wk =   0.0185185
        k(   10) = (   0.0000000   0.3333333   0.0159281), wk =   0.0370370
        k(   11) = (   0.0000000   0.3333333   0.0318562), wk =   0.0370370
        k(   12) = (   0.0000000   0.3333333  -0.0477843), wk =   0.0185185
        k(   13) = (   0.0000000  -0.5000000   0.0000000), wk =   0.0092593
        k(   14) = (   0.0000000  -0.5000000   0.0159281), wk =   0.0185185
        k(   15) = (   0.0000000  -0.5000000   0.0318562), wk =   0.0185185
        k(   16) = (   0.0000000  -0.5000000  -0.0477843), wk =   0.0092593
        k(   17) = (   0.1666667   0.1666667   0.0000000), wk =   0.0185185
        k(   18) = (   0.1666667   0.1666667   0.0159281), wk =   0.0370370
        k(   19) = (   0.1666667   0.1666667   0.0318562), wk =   0.0370370
        k(   20) = (   0.1666667   0.1666667  -0.0477843), wk =   0.0185185
        k(   21) = (   0.1666667   0.3333333   0.0000000), wk =   0.0370370
        k(   22) = (   0.1666667   0.3333333   0.0159281), wk =   0.0740741
        k(   23) = (   0.1666667   0.3333333   0.0318562), wk =   0.0740741
        k(   24) = (   0.1666667   0.3333333  -0.0477843), wk =   0.0370370
        k(   25) = (   0.1666667  -0.5000000   0.0000000), wk =   0.0185185
        k(   26) = (   0.1666667  -0.5000000   0.0159281), wk =   0.0370370
        k(   27) = (   0.1666667  -0.5000000   0.0318562), wk =   0.0370370
        k(   28) = (   0.1666667  -0.5000000  -0.0477843), wk =   0.0185185
        k(   29) = (   0.3333333   0.3333333   0.0000000), wk =   0.0185185
        k(   30) = (   0.3333333   0.3333333   0.0159281), wk =   0.0370370
        k(   31) = (   0.3333333   0.3333333   0.0318562), wk =   0.0370370
        k(   32) = (   0.3333333   0.3333333  -0.0477843), wk =   0.0185185
        k(   33) = (   0.3333333  -0.5000000   0.0000000), wk =   0.0185185
        k(   34) = (   0.3333333  -0.5000000   0.0159281), wk =   0.0370370
        k(   35) = (   0.3333333  -0.5000000   0.0318562), wk =   0.0370370
        k(   36) = (   0.3333333  -0.5000000  -0.0477843), wk =   0.0185185
        k(   37) = (  -0.5000000  -0.5000000   0.0000000), wk =   0.0046296
        k(   38) = (  -0.5000000  -0.5000000   0.0159281), wk =   0.0092593
        k(   39) = (  -0.5000000  -0.5000000   0.0318562), wk =   0.0092593
        k(   40) = (  -0.5000000  -0.5000000  -0.0477843), wk =   0.0046296

     Dense  grid:   373547 G-vectors     FFT dimensions: (  45,  45, 432)

     Smooth grid:   112863 G-vectors     FFT dimensions: (  27,  27, 288)

     Estimated max dynamical RAM per process >     174.65 MB

     Estimated total dynamical RAM >       5.46 GB
     Generating pointlists ...
     new r_m :   0.3389 (alat units)  2.1745 (a.u.) for type    1
     new r_m :   0.3389 (alat units)  2.1745 (a.u.) for type    2
     new r_m :   0.3389 (alat units)  2.1745 (a.u.) for type    3

     Check: negative/imaginary core charge=   -0.000006    0.000000

     Initial potential from superposition of free atoms

     starting charge  295.99426, renormalised to  296.00000
     Number of +U iterations with fixed ns =  0
     Starting occupations:
 --- enter write_ns ---
 LDA+U parameters:
U(  1) =   3.1200   J(  1) =   0.7000   B(  1) =   0.0803
U(  2) =   3.1200   J(  2) =   0.7000   B(  2) =   0.0803
atom    1   Tr[ns(na)] (up, down, total) =   5.00000  0.00000  5.00000
   spin  1
    eigenvalues: 
  1.000  1.000  1.000  1.000  1.000
    eigenvectors:
  1.000  0.000  0.000  0.000  0.000
  0.000  1.000  0.000  0.000  0.000
  0.000  0.000  1.000  0.000  0.000
  0.000  0.000  0.000  1.000  0.000
  0.000  0.000  0.000  0.000  1.000
    occupations:
  1.000  0.000  0.000  0.000  0.000
  0.000  1.000  0.000  0.000  0.000
  0.000  0.000  1.000  0.000  0.000
  0.000  0.000  0.000  1.000  0.000
  0.000  0.000  0.000  0.000  1.000
   spin  2
    eigenvalues: 
  0.000  0.000  0.000  0.000  0.000
    eigenvectors:
  1.000  0.000  0.000  0.000  0.000
  0.000  1.000  0.000  0.000  0.000
  0.000  0.000  1.000  0.000  0.000
  0.000  0.000  0.000  1.000  0.000
  0.000  0.000  0.000  0.000  1.000
    occupations:
  0.000  0.000  0.000  0.000  0.000
  0.000  0.000  0.000  0.000  0.000
  0.000  0.000  0.000  0.000  0.000
  0.000  0.000  0.000  0.000  0.000
  0.000  0.000  0.000  0.000  0.000
atomic mag. moment =     5.000000
atom    2   Tr[ns(na)] (up, down, total) =   5.00000  0.00000  5.00000
   spin  1
    eigenvalues: 
  1.000  1.000  1.000  1.000  1.000
    eigenvectors:
  1.000  0.000  0.000  0.000  0.000
  0.000  1.000  0.000  0.000  0.000
  0.000  0.000  1.000  0.000  0.000
  0.000  0.000  0.000  1.000  0.000
  0.000  0.000  0.000  0.000  1.000
    occupations:
  1.000  0.000  0.000  0.000  0.000
  0.000  1.000  0.000  0.000  0.000
  0.000  0.000  1.000  0.000  0.000
  0.000  0.000  0.000  1.000  0.000
  0.000  0.000  0.000  0.000  1.000
   spin  2
    eigenvalues: 
  0.000  0.000  0.000  0.000  0.000
    eigenvectors:
  1.000  0.000  0.000  0.000  0.000
  0.000  1.000  0.000  0.000  0.000
  0.000  0.000  1.000  0.000  0.000
  0.000  0.000  0.000  1.000  0.000
  0.000  0.000  0.000  0.000  1.000
    occupations:
  0.000  0.000  0.000  0.000  0.000
  0.000  0.000  0.000  0.000  0.000
  0.000  0.000  0.000  0.000  0.000
  0.000  0.000  0.000  0.000  0.000
  0.000  0.000  0.000  0.000  0.000
atomic mag. moment =     5.000000
atom    3   Tr[ns(na)] (up, down, total) =   0.00000  5.00000  5.00000
   spin  1
    eigenvalues: 
  0.000  0.000  0.000  0.000  0.000
    eigenvectors:
  1.000  0.000  0.000  0.000  0.000
  0.000  1.000  0.000  0.000  0.000
  0.000  0.000  1.000  0.000  0.000
  0.000  0.000  0.000  1.000  0.000
  0.000  0.000  0.000  0.000  1.000
    occupations:
  0.000  0.000  0.000  0.000  0.000
  0.000  0.000  0.000  0.000  0.000
  0.000  0.000  0.000  0.000  0.000
  0.000  0.000  0.000  0.000  0.000
  0.000  0.000  0.000  0.000  0.000
   spin  2
    eigenvalues: 
  1.000  1.000  1.000  1.000  1.000
    eigenvectors:
  1.000  0.000  0.000  0.000  0.000
  0.000  1.000  0.000  0.000  0.000
  0.000  0.000  1.000  0.000  0.000
  0.000  0.000  0.000  1.000  0.000
  0.000  0.000  0.000  0.000  1.000
    occupations:
  1.000  0.000  0.000  0.000  0.000
  0.000  1.000  0.000  0.000  0.000
  0.000  0.000  1.000  0.000  0.000
  0.000  0.000  0.000  1.000  0.000
  0.000  0.000  0.000  0.000  1.000
atomic mag. moment =    -5.000000
atom    4   Tr[ns(na)] (up, down, total) =   5.00000  0.00000  5.00000
   spin  1
    eigenvalues: 
  1.000  1.000  1.000  1.000  1.000
    eigenvectors:
  1.000  0.000  0.000  0.000  0.000
  0.000  1.000  0.000  0.000  0.000
  0.000  0.000  1.000  0.000  0.000
  0.000  0.000  0.000  1.000  0.000
  0.000  0.000  0.000  0.000  1.000
    occupations:
  1.000  0.000  0.000  0.000  0.000
  0.000  1.000  0.000  0.000  0.000
  0.000  0.000  1.000  0.000  0.000
  0.000  0.000  0.000  1.000  0.000
  0.000  0.000  0.000  0.000  1.000
   spin  2
    eigenvalues: 
  0.000  0.000  0.000  0.000  0.000
    eigenvectors:
  1.000  0.000  0.000  0.000  0.000
  0.000  1.000  0.000  0.000  0.000
  0.000  0.000  1.000  0.000  0.000
  0.000  0.000  0.000  1.000  0.000
  0.000  0.000  0.000  0.000  1.000
    occupations:
  0.000  0.000  0.000  0.000  0.000
  0.000  0.000  0.000  0.000  0.000
  0.000  0.000  0.000  0.000  0.000
  0.000  0.000  0.000  0.000  0.000
  0.000  0.000  0.000  0.000  0.000
atomic mag. moment =     5.000000
atom    5   Tr[ns(na)] (up, down, total) =   5.00000  0.00000  5.00000
   spin  1
    eigenvalues: 
  1.000  1.000  1.000  1.000  1.000
    eigenvectors:
  1.000  0.000  0.000  0.000  0.000
  0.000  1.000  0.000  0.000  0.000
  0.000  0.000  1.000  0.000  0.000
  0.000  0.000  0.000  1.000  0.000
  0.000  0.000  0.000  0.000  1.000
    occupations:
  1.000  0.000  0.000  0.000  0.000
  0.000  1.000  0.000  0.000  0.000
  0.000  0.000  1.000  0.000  0.000
  0.000  0.000  0.000  1.000  0.000
  0.000  0.000  0.000  0.000  1.000
   spin  2
    eigenvalues: 
  0.000  0.000  0.000  0.000  0.000
    eigenvectors:
  1.000  0.000  0.000  0.000  0.000
  0.000  1.000  0.000  0.000  0.000
  0.000  0.000  1.000  0.000  0.000
  0.000  0.000  0.000  1.000  0.000
  0.000  0.000  0.000  0.000  1.000
    occupations:
  0.000  0.000  0.000  0.000  0.000
  0.000  0.000  0.000  0.000  0.000
  0.000  0.000  0.000  0.000  0.000
  0.000  0.000  0.000  0.000  0.000
  0.000  0.000  0.000  0.000  0.000
atomic mag. moment =     5.000000
atom    6   Tr[ns(na)] (up, down, total) =   0.00000  5.00000  5.00000
   spin  1
    eigenvalues: 
  0.000  0.000  0.000  0.000  0.000
    eigenvectors:
  1.000  0.000  0.000  0.000  0.000
  0.000  1.000  0.000  0.000  0.000
  0.000  0.000  1.000  0.000  0.000
  0.000  0.000  0.000  1.000  0.000
  0.000  0.000  0.000  0.000  1.000
    occupations:
  0.000  0.000  0.000  0.000  0.000
  0.000  0.000  0.000  0.000  0.000
  0.000  0.000  0.000  0.000  0.000
  0.000  0.000  0.000  0.000  0.000
  0.000  0.000  0.000  0.000  0.000
   spin  2
    eigenvalues: 
  1.000  1.000  1.000  1.000  1.000
    eigenvectors:
  1.000  0.000  0.000  0.000  0.000
  0.000  1.000  0.000  0.000  0.000
  0.000  0.000  1.000  0.000  0.000
  0.000  0.000  0.000  1.000  0.000
  0.000  0.000  0.000  0.000  1.000
    occupations:
  1.000  0.000  0.000  0.000  0.000
  0.000  1.000  0.000  0.000  0.000
  0.000  0.000  1.000  0.000  0.000
  0.000  0.000  0.000  1.000  0.000
  0.000  0.000  0.000  0.000  1.000
atomic mag. moment =    -5.000000
atom    7   Tr[ns(na)] (up, down, total) =   5.00000  0.00000  5.00000
   spin  1
    eigenvalues: 
  1.000  1.000  1.000  1.000  1.000
    eigenvectors:
  1.000  0.000  0.000  0.000  0.000
  0.000  1.000  0.000  0.000  0.000
  0.000  0.000  1.000  0.000  0.000
  0.000  0.000  0.000  1.000  0.000
  0.000  0.000  0.000  0.000  1.000
    occupations:
  1.000  0.000  0.000  0.000  0.000
  0.000  1.000  0.000  0.000  0.000
  0.000  0.000  1.000  0.000  0.000
  0.000  0.000  0.000  1.000  0.000
  0.000  0.000  0.000  0.000  1.000
   spin  2
    eigenvalues: 
  0.000  0.000  0.000  0.000  0.000
    eigenvectors:
  1.000  0.000  0.000  0.000  0.000
  0.000  1.000  0.000  0.000  0.000
  0.000  0.000  1.000  0.000  0.000
  0.000  0.000  0.000  1.000  0.000
  0.000  0.000  0.000  0.000  1.000
    occupations:
  0.000  0.000  0.000  0.000  0.000
  0.000  0.000  0.000  0.000  0.000
  0.000  0.000  0.000  0.000  0.000
  0.000  0.000  0.000  0.000  0.000
  0.000  0.000  0.000  0.000  0.000
atomic mag. moment =     5.000000
atom    8   Tr[ns(na)] (up, down, total) =   0.00000  5.00000  5.00000
   spin  1
    eigenvalues: 
  0.000  0.000  0.000  0.000  0.000
    eigenvectors:
  1.000  0.000  0.000  0.000  0.000
  0.000  1.000  0.000  0.000  0.000
  0.000  0.000  1.000  0.000  0.000
  0.000  0.000  0.000  1.000  0.000
  0.000  0.000  0.000  0.000  1.000
    occupations:
  0.000  0.000  0.000  0.000  0.000
  0.000  0.000  0.000  0.000  0.000
  0.000  0.000  0.000  0.000  0.000
  0.000  0.000  0.000  0.000  0.000
  0.000  0.000  0.000  0.000  0.000
   spin  2
    eigenvalues: 
  1.000  1.000  1.000  1.000  1.000
    eigenvectors:
  1.000  0.000  0.000  0.000  0.000
  0.000  1.000  0.000  0.000  0.000
  0.000  0.000  1.000  0.000  0.000
  0.000  0.000  0.000  1.000  0.000
  0.000  0.000  0.000  0.000  1.000
    occupations:
  1.000  0.000  0.000  0.000  0.000
  0.000  1.000  0.000  0.000  0.000
  0.000  0.000  1.000  0.000  0.000
  0.000  0.000  0.000  1.000  0.000
  0.000  0.000  0.000  0.000  1.000
atomic mag. moment =    -5.000000
N of occupied +U levels =   40.000000
 --- exit write_ns ---
 Atomic wfc used for LDA+U Projector are NOT orthogonalized
     Starting wfcs are  224 randomized atomic wfcs
     Checking if some PAW data can be deallocated... 

     total cpu time spent up to now is       25.3 secs

     Self-consistent Calculation

     iteration #  1     ecut=    45.00 Ry     beta= 0.10
     Davidson diagonalization with overlap
     ethr =  1.00E-02,  avg # of iterations =  4.0
 --- enter write_ns ---
 LDA+U parameters:
U(  1) =   3.1200   J(  1) =   0.7000   B(  1) =   0.0803
U(  2) =   3.1200   J(  2) =   0.7000   B(  2) =   0.0803
atom    1   Tr[ns(na)] (up, down, total) =   5.01748  0.39757  5.41505
   spin  1
    eigenvalues: 
  1.003  1.003  1.003  1.004  1.004
    eigenvectors:
  0.000  0.000  0.000  1.000  0.000
  0.000  0.110  0.890  0.000  0.000
  0.000  0.890  0.110  0.000  0.000
  0.000  0.000  0.000  0.000  1.000
  1.000  0.000  0.000  0.000  0.000
    occupations:
  1.004 -0.000 -0.000  0.000  0.000
 -0.000  1.003 -0.000  0.000  0.000
 -0.000 -0.000  1.003  0.000  0.000
  0.000  0.000  0.000  1.004 -0.000
  0.000  0.000  0.000 -0.000  1.003
   spin  2
    eigenvalues: 
  0.051  0.070  0.079  0.079  0.118
    eigenvectors:
  0.000  1.000  0.000  0.000  0.000
  0.000  0.000  0.094  0.906  0.000
  0.000  0.000  0.906  0.094  0.000
  1.000  0.000  0.000  0.000  0.000
  0.000  0.000  0.000  0.000  1.000
    occupations:
  0.070 -0.000 -0.000  0.000  0.000
 -0.000  0.079 -0.000  0.000  0.000
 -0.000 -0.000  0.079  0.000  0.000
  0.000  0.000  0.000  0.051 -0.000
  0.000  0.000  0.000 -0.000  0.118
atomic mag. moment =     4.619902
atom    2   Tr[ns(na)] (up, down, total) =   5.01747  0.39698  5.41445
   spin  1
    eigenvalues: 
  1.003  1.003  1.003  1.004  1.004
    eigenvectors:
  0.000  0.000  0.000  1.000  0.000
  0.000  0.126  0.874  0.000  0.000
  0.000  0.874  0.126  0.000  0.000
  0.000  0.000  0.000  0.000  1.000
  1.000  0.000  0.000  0.000  0.000
    occupations:
  1.004 -0.000 -0.000  0.000  0.000
 -0.000  1.003 -0.000  0.000  0.000
 -0.000 -0.000  1.003  0.000  0.000
  0.000  0.000  0.000  1.004 -0.000
  0.000  0.000  0.000 -0.000  1.003
   spin  2
    eigenvalues: 
  0.051  0.070  0.079  0.079  0.117
    eigenvectors:
  0.000  1.000  0.000  0.000  0.000
  0.000  0.000  0.147  0.853  0.000
  0.000  0.000  0.853  0.147  0.000
  1.000  0.000  0.000  0.000  0.000
  0.000  0.000  0.000  0.000  1.000
    occupations:
  0.070 -0.000 -0.000  0.000  0.000
 -0.000  0.079 -0.000  0.000  0.000
 -0.000 -0.000  0.079  0.000  0.000
  0.000  0.000  0.000  0.051 -0.000
  0.000  0.000  0.000 -0.000  0.117
atomic mag. moment =     4.620488
atom    3   Tr[ns(na)] (up, down, total) =   0.39859  5.01751  5.41611
   spin  1
    eigenvalues: 
  0.052  0.069  0.079  0.079  0.119
    eigenvectors:
  0.000  1.000  0.000  0.000  0.000
  0.000  0.000  0.181  0.819  0.000
  0.000  0.000  0.819  0.181  0.000
  1.000  0.000  0.000  0.000  0.000
  0.000  0.000  0.000  0.000  1.000
    occupations:
  0.069 -0.000 -0.000  0.000  0.000
 -0.000  0.079 -0.000  0.000  0.000
 -0.000 -0.000  0.079  0.000  0.000
  0.000  0.000  0.000  0.052 -0.000
  0.000  0.000  0.000 -0.000  0.119
   spin  2
    eigenvalues: 
  1.003  1.003  1.003  1.004  1.004
    eigenvectors:
  0.000  0.000  0.000  1.000  0.000
  0.000  0.109  0.891  0.000  0.000
  0.000  0.891  0.109  0.000  0.000
  0.000  0.000  0.000  0.000  1.000
  1.000  0.000  0.000  0.000  0.000
    occupations:
  1.004 -0.000 -0.000  0.000  0.000
 -0.000  1.003 -0.000  0.000  0.000
 -0.000 -0.000  1.003  0.000  0.000
  0.000  0.000  0.000  1.004 -0.000
  0.000  0.000  0.000 -0.000  1.003
atomic mag. moment =    -4.618918
atom    4   Tr[ns(na)] (up, down, total) =   5.01747  0.39698  5.41445
   spin  1
    eigenvalues: 
  1.003  1.003  1.003  1.004  1.004
    eigenvectors:
  0.000  0.000  0.000  1.000  0.000
  0.000  0.135  0.865  0.000  0.000
  0.000  0.865  0.135  0.000  0.000
  0.000  0.000  0.000  0.000  1.000
  1.000  0.000  0.000  0.000  0.000
    occupations:
  1.004 -0.000 -0.000  0.000  0.000
 -0.000  1.003 -0.000  0.000  0.000
 -0.000 -0.000  1.003  0.000  0.000
  0.000  0.000  0.000  1.004 -0.000
  0.000  0.000  0.000 -0.000  1.003
   spin  2
    eigenvalues: 
  0.051  0.070  0.079  0.079  0.117
    eigenvectors:
  0.000  1.000  0.000  0.000  0.000
  0.000  0.000  0.120  0.880  0.000
  0.000  0.000  0.880  0.120  0.000
  1.000  0.000  0.000  0.000  0.000
  0.000  0.000  0.000  0.000  1.000
    occupations:
  0.070 -0.000 -0.000  0.000  0.000
 -0.000  0.079 -0.000  0.000  0.000
 -0.000 -0.000  0.079  0.000  0.000
  0.000  0.000  0.000  0.051 -0.000
  0.000  0.000  0.000 -0.000  0.117
atomic mag. moment =     4.620488
atom    5   Tr[ns(na)] (up, down, total) =   5.01748  0.39757  5.41505
   spin  1
    eigenvalues: 
  1.003  1.003  1.003  1.004  1.004
    eigenvectors:
  0.000  0.000  0.000  1.000  0.000
  0.000  0.168  0.832  0.000  0.000
  0.000  0.832  0.168  0.000  0.000
  0.000  0.000  0.000  0.000  1.000
  1.000  0.000  0.000  0.000  0.000
    occupations:
  1.004 -0.000 -0.000  0.000  0.000
 -0.000  1.003 -0.000  0.000  0.000
 -0.000 -0.000  1.003  0.000  0.000
  0.000  0.000  0.000  1.004 -0.000
  0.000  0.000  0.000 -0.000  1.003
   spin  2
    eigenvalues: 
  0.051  0.070  0.079  0.079  0.118
    eigenvectors:
  0.000  1.000  0.000  0.000  0.000
  0.000  0.000  0.160  0.840  0.000
  0.000  0.000  0.840  0.160  0.000
  1.000  0.000  0.000  0.000  0.000
  0.000  0.000  0.000  0.000  1.000
    occupations:
  0.070 -0.000 -0.000  0.000  0.000
 -0.000  0.079 -0.000  0.000  0.000
 -0.000 -0.000  0.079  0.000  0.000
  0.000  0.000  0.000  0.051 -0.000
  0.000  0.000  0.000 -0.000  0.118
atomic mag. moment =     4.619902
atom    6   Tr[ns(na)] (up, down, total) =   0.39690  5.01753  5.41443
   spin  1
    eigenvalues: 
  0.052  0.069  0.078  0.078  0.120
    eigenvectors:
  0.000  1.000  0.000  0.000  0.000
  0.000  0.000  0.101  0.899  0.000
  0.000  0.000  0.899  0.101  0.000
  1.000  0.000  0.000  0.000  0.000
  0.000  0.000  0.000  0.000  1.000
    occupations:
  0.069 -0.000 -0.000  0.000  0.000
 -0.000  0.078 -0.000  0.000  0.000
 -0.000 -0.000  0.078  0.000  0.000
  0.000  0.000  0.000  0.052 -0.000
  0.000  0.000  0.000 -0.000  0.120
   spin  2
    eigenvalues: 
  1.003  1.003  1.003  1.004  1.004
    eigenvectors:
  0.000  0.000  0.000  1.000  0.000
  0.000  0.101  0.899  0.000  0.000
  0.000  0.899  0.101  0.000  0.000
  0.000  0.000  0.000  0.000  1.000
  1.000  0.000  0.000  0.000  0.000
    occupations:
  1.004 -0.000 -0.000  0.000  0.000
 -0.000  1.003 -0.000  0.000  0.000
 -0.000 -0.000  1.003  0.000  0.000
  0.000  0.000  0.000  1.004 -0.000
  0.000  0.000  0.000 -0.000  1.003
atomic mag. moment =    -4.620636
atom    7   Tr[ns(na)] (up, down, total) =   5.01747  0.39650  5.41396
   spin  1
    eigenvalues: 
  1.003  1.003  1.003  1.004  1.004
    eigenvectors:
  0.000  0.000  0.000  1.000  0.000
  0.000  0.121  0.879  0.000  0.000
  0.000  0.879  0.121  0.000  0.000
  0.000  0.000  0.000  0.000  1.000
  1.000  0.000  0.000  0.000  0.000
    occupations:
  1.004 -0.000 -0.000  0.000  0.000
 -0.000  1.003 -0.000  0.000  0.000
 -0.000 -0.000  1.003  0.000  0.000
  0.000  0.000  0.000  1.004 -0.000
  0.000  0.000  0.000 -0.000  1.003
   spin  2
    eigenvalues: 
  0.051  0.069  0.077  0.077  0.122
    eigenvectors:
  0.000  1.000  0.000  0.000  0.000
  0.000  0.000  0.130  0.870  0.000
  0.000  0.000  0.870  0.130  0.000
  1.000  0.000  0.000  0.000  0.000
  0.000  0.000  0.000  0.000  1.000
    occupations:
  0.069 -0.000 -0.000  0.000  0.000
 -0.000  0.077 -0.000  0.000  0.000
 -0.000 -0.000  0.077  0.000  0.000
  0.000  0.000  0.000  0.051 -0.000
  0.000  0.000  0.000 -0.000  0.122
atomic mag. moment =     4.620969
atom    8   Tr[ns(na)] (up, down, total) =   0.39690  5.01753  5.41443
   spin  1
    eigenvalues: 
  0.052  0.069  0.078  0.078  0.120
    eigenvectors:
  0.000  1.000  0.000  0.000  0.000
  0.000  0.000  0.113  0.887  0.000
  0.000  0.000  0.887  0.113  0.000
  1.000  0.000  0.000  0.000  0.000
  0.000  0.000  0.000  0.000  1.000
    occupations:
  0.069 -0.000 -0.000  0.000  0.000
 -0.000  0.078 -0.000  0.000  0.000
 -0.000 -0.000  0.078  0.000  0.000
  0.000  0.000  0.000  0.052 -0.000
  0.000  0.000  0.000 -0.000  0.120
   spin  2
    eigenvalues: 
  1.003  1.003  1.003  1.004  1.004
    eigenvectors:
  0.000  0.000  0.000  1.000  0.000
  0.000  0.098  0.902  0.000  0.000
  0.000  0.902  0.098  0.000  0.000
  0.000  0.000  0.000  0.000  1.000
  1.000  0.000  0.000  0.000  0.000
    occupations:
  1.004 -0.000 -0.000  0.000  0.000
 -0.000  1.003 -0.000  0.000  0.000
 -0.000 -0.000  1.003  0.000  0.000
  0.000  0.000  0.000  1.004 -0.000
  0.000  0.000  0.000 -0.000  1.003
atomic mag. moment =    -4.620636
N of occupied +U levels =   43.317920
 --- exit write_ns ---

     total cpu time spent up to now is       85.0 secs

     total energy              =  -14687.30238078 Ry
     Harris-Foulkes estimate   =  -14685.84196163 Ry
     estimated scf accuracy    <      11.52588569 Ry

     total magnetization       =    10.16 Bohr mag/cell
     absolute magnetization    =    41.71 Bohr mag/cell

     iteration #  2     ecut=    45.00 Ry     beta= 0.10
     Davidson diagonalization with overlap
     ethr =  3.89E-03,  avg # of iterations =  1.0

     total cpu time spent up to now is      122.5 secs

     total energy              =  -14691.41480894 Ry
     Harris-Foulkes estimate   =  -14687.37530750 Ry
     estimated scf accuracy    <       9.35777945 Ry

     total magnetization       =    10.04 Bohr mag/cell
     absolute magnetization    =    41.39 Bohr mag/cell

     iteration #  3     ecut=    45.00 Ry     beta= 0.10
     Davidson diagonalization with overlap
     ethr =  3.16E-03,  avg # of iterations =  5.7

     total cpu time spent up to now is      188.6 secs

     total energy              =  -14691.03624483 Ry
     Harris-Foulkes estimate   =  -14693.70818757 Ry
     estimated scf accuracy    <     269.57406782 Ry

     total magnetization       =     9.67 Bohr mag/cell
     absolute magnetization    =    39.09 Bohr mag/cell

     iteration #  4     ecut=    45.00 Ry     beta= 0.10
     Davidson diagonalization with overlap
     ethr =  3.16E-03,  avg # of iterations =  4.6

     total cpu time spent up to now is      247.0 secs

     total energy              =  -14693.92670750 Ry
     Harris-Foulkes estimate   =  -14694.01897676 Ry
     estimated scf accuracy    <       3.77684410 Ry

     total magnetization       =     9.35 Bohr mag/cell
     absolute magnetization    =    38.84 Bohr mag/cell

     iteration #  5     ecut=    45.00 Ry     beta= 0.10
     Davidson diagonalization with overlap
     ethr =  1.28E-03,  avg # of iterations =  4.5

     total cpu time spent up to now is      303.9 secs

     total energy              =  -14693.58690599 Ry
     Harris-Foulkes estimate   =  -14693.93984282 Ry
     estimated scf accuracy    <       3.25709609 Ry

     total magnetization       =     9.35 Bohr mag/cell
     absolute magnetization    =    38.89 Bohr mag/cell

     iteration #  6     ecut=    45.00 Ry     beta= 0.10
     Davidson diagonalization with overlap
     ethr =  1.10E-03,  avg # of iterations =  2.4

     total cpu time spent up to now is      348.5 secs

     total energy              =  -14693.54971431 Ry
     Harris-Foulkes estimate   =  -14693.62417853 Ry
     estimated scf accuracy    <       2.54244224 Ry

     total magnetization       =     9.37 Bohr mag/cell
     absolute magnetization    =    39.10 Bohr mag/cell

     iteration #  7     ecut=    45.00 Ry     beta= 0.10
     Davidson diagonalization with overlap
     ethr =  8.59E-04,  avg # of iterations =  4.7

     total cpu time spent up to now is      417.8 secs

     total energy              =  -14693.96622891 Ry
     Harris-Foulkes estimate   =  -14694.06126282 Ry
     estimated scf accuracy    <       0.81067438 Ry

     total magnetization       =     8.88 Bohr mag/cell
     absolute magnetization    =    37.44 Bohr mag/cell

     iteration #  8     ecut=    45.00 Ry     beta= 0.10
     Davidson diagonalization with overlap
     ethr =  2.74E-04,  avg # of iterations =  1.2

     total cpu time spent up to now is      457.5 secs

     total energy              =  -14694.03804742 Ry
     Harris-Foulkes estimate   =  -14694.00750885 Ry
     estimated scf accuracy    <       0.16193278 Ry

     total magnetization       =     8.91 Bohr mag/cell
     absolute magnetization    =    37.65 Bohr mag/cell

     iteration #  9     ecut=    45.00 Ry     beta= 0.10
     Davidson diagonalization with overlap
     ethr =  5.47E-05,  avg # of iterations =  2.4

     total cpu time spent up to now is      504.8 secs

     total energy              =  -14694.00357961 Ry
     Harris-Foulkes estimate   =  -14694.05973775 Ry
     estimated scf accuracy    <       0.47755135 Ry

     total magnetization       =     8.74 Bohr mag/cell
     absolute magnetization    =    37.29 Bohr mag/cell

     iteration # 10     ecut=    45.00 Ry     beta= 0.10
     Davidson diagonalization with overlap
     ethr =  5.47E-05,  avg # of iterations =  2.2

     total cpu time spent up to now is      549.8 secs

     total energy              =  -14693.99252712 Ry
     Harris-Foulkes estimate   =  -14694.01969250 Ry
     estimated scf accuracy    <       0.10247436 Ry

     total magnetization       =     8.80 Bohr mag/cell
     absolute magnetization    =    37.44 Bohr mag/cell

     iteration # 11     ecut=    45.00 Ry     beta= 0.10
     Davidson diagonalization with overlap
     ethr =  3.46E-05,  avg # of iterations =  3.2

     total cpu time spent up to now is      604.4 secs

     total energy              =  -14694.00854813 Ry
     Harris-Foulkes estimate   =  -14694.00873252 Ry
     estimated scf accuracy    <       0.00971204 Ry

     total magnetization       =     8.81 Bohr mag/cell
     absolute magnetization    =    37.54 Bohr mag/cell

     iteration # 12     ecut=    45.00 Ry     beta= 0.10
     Davidson diagonalization with overlap
     ethr =  3.28E-06,  avg # of iterations =  4.2

     total cpu time spent up to now is      671.9 secs

     total energy              =  -14694.01116051 Ry
     Harris-Foulkes estimate   =  -14694.01136784 Ry
     estimated scf accuracy    <       0.02016359 Ry

     total magnetization       =     8.80 Bohr mag/cell
     absolute magnetization    =    37.48 Bohr mag/cell

     iteration # 13     ecut=    45.00 Ry     beta= 0.10
     Davidson diagonalization with overlap
     ethr =  3.28E-06,  avg # of iterations =  1.2

     total cpu time spent up to now is      710.5 secs

     total energy              =  -14694.01087801 Ry
     Harris-Foulkes estimate   =  -14694.01138869 Ry
     estimated scf accuracy    <       0.00771559 Ry

     total magnetization       =     8.80 Bohr mag/cell
     absolute magnetization    =    37.48 Bohr mag/cell

     iteration # 14     ecut=    45.00 Ry     beta= 0.10
     Davidson diagonalization with overlap
     ethr =  2.61E-06,  avg # of iterations =  2.9

     total cpu time spent up to now is      765.4 secs

     total energy              =  -14694.01209429 Ry
     Harris-Foulkes estimate   =  -14694.01240842 Ry
     estimated scf accuracy    <       0.00164826 Ry

     total magnetization       =     8.78 Bohr mag/cell
     absolute magnetization    =    37.49 Bohr mag/cell

     iteration # 15     ecut=    45.00 Ry     beta= 0.10
     Davidson diagonalization with overlap
     ethr =  5.57E-07,  avg # of iterations =  2.3

     total cpu time spent up to now is      810.5 secs

     total energy              =  -14694.01223873 Ry
     Harris-Foulkes estimate   =  -14694.01220387 Ry
     estimated scf accuracy    <       0.00034770 Ry

     total magnetization       =     8.78 Bohr mag/cell
     absolute magnetization    =    37.48 Bohr mag/cell

     iteration # 16     ecut=    45.00 Ry     beta= 0.10
     Davidson diagonalization with overlap
     ethr =  1.17E-07,  avg # of iterations =  2.4

     total cpu time spent up to now is      856.5 secs

     total energy              =  -14694.01231587 Ry
     Harris-Foulkes estimate   =  -14694.01226061 Ry
     estimated scf accuracy    <       0.00021846 Ry

     total magnetization       =     8.78 Bohr mag/cell
     absolute magnetization    =    37.48 Bohr mag/cell

     iteration # 17     ecut=    45.00 Ry     beta= 0.10
     Davidson diagonalization with overlap
     ethr =  7.38E-08,  avg # of iterations =  1.7

     total cpu time spent up to now is      897.6 secs

     total energy              =  -14694.01236014 Ry
     Harris-Foulkes estimate   =  -14694.01230473 Ry
     estimated scf accuracy    <       0.00015429 Ry

     total magnetization       =     8.77 Bohr mag/cell
     absolute magnetization    =    37.47 Bohr mag/cell

     iteration # 18     ecut=    45.00 Ry     beta= 0.10
     Davidson diagonalization with overlap
     ethr =  5.21E-08,  avg # of iterations =  2.2

     total cpu time spent up to now is      943.5 secs

     total energy              =  -14694.01237896 Ry
     Harris-Foulkes estimate   =  -14694.01236360 Ry
     estimated scf accuracy    <       0.00005393 Ry

     total magnetization       =     8.77 Bohr mag/cell
     absolute magnetization    =    37.46 Bohr mag/cell

     iteration # 19     ecut=    45.00 Ry     beta= 0.10
     Davidson diagonalization with overlap
     ethr =  1.82E-08,  avg # of iterations =  1.6

     total cpu time spent up to now is      983.8 secs

     total energy              =  -14694.01239777 Ry
     Harris-Foulkes estimate   =  -14694.01237594 Ry
     estimated scf accuracy    <       0.00004269 Ry

     total magnetization       =     8.77 Bohr mag/cell
     absolute magnetization    =    37.46 Bohr mag/cell

     iteration # 20     ecut=    45.00 Ry     beta= 0.10
     Davidson diagonalization with overlap
     ethr =  1.44E-08,  avg # of iterations =  2.2

     total cpu time spent up to now is     1028.5 secs

     total energy              =  -14694.01239956 Ry
     Harris-Foulkes estimate   =  -14694.01239593 Ry
     estimated scf accuracy    <       0.00001251 Ry

     total magnetization       =     8.76 Bohr mag/cell
     absolute magnetization    =    37.46 Bohr mag/cell

     iteration # 21     ecut=    45.00 Ry     beta= 0.10
     Davidson diagonalization with overlap
     ethr =  4.23E-09,  avg # of iterations =  2.4

     total cpu time spent up to now is     1073.4 secs

     total energy              =  -14694.01240419 Ry
     Harris-Foulkes estimate   =  -14694.01240176 Ry
     estimated scf accuracy    <       0.00000386 Ry

     total magnetization       =     8.77 Bohr mag/cell
     absolute magnetization    =    37.46 Bohr mag/cell

     iteration # 22     ecut=    45.00 Ry     beta= 0.10
     Davidson diagonalization with overlap
     ethr =  1.31E-09,  avg # of iterations =  2.5

     total cpu time spent up to now is     1120.0 secs

     total energy              =  -14694.01240748 Ry
     Harris-Foulkes estimate   =  -14694.01240563 Ry
     estimated scf accuracy    <       0.00000569 Ry

     total magnetization       =     8.77 Bohr mag/cell
     absolute magnetization    =    37.46 Bohr mag/cell

     iteration # 23     ecut=    45.00 Ry     beta= 0.10
     Davidson diagonalization with overlap
     ethr =  1.31E-09,  avg # of iterations =  1.8

     total cpu time spent up to now is     1161.8 secs

     total energy              =  -14694.01240886 Ry
     Harris-Foulkes estimate   =  -14694.01240722 Ry
     estimated scf accuracy    <       0.00000144 Ry

     total magnetization       =     8.77 Bohr mag/cell
     absolute magnetization    =    37.46 Bohr mag/cell

     iteration # 24     ecut=    45.00 Ry     beta= 0.10
     Davidson diagonalization with overlap
     ethr =  4.86E-10,  avg # of iterations =  2.1
 
     Magnetic moment per site:
     atom:    1    charge:   13.5457    magn:    4.2574    constr:    0.0000
     atom:    2    charge:   13.5462    magn:    4.2578    constr:    0.0000
     atom:    3    charge:   13.5471    magn:   -4.2617    constr:    0.0000
     atom:    4    charge:   13.5462    magn:    4.2578    constr:    0.0000
     atom:    5    charge:   13.5457    magn:    4.2574    constr:    0.0000
     atom:    6    charge:   13.5449    magn:   -4.2717    constr:    0.0000
     atom:    7    charge:   13.5427    magn:    4.2848    constr:    0.0000
     atom:    8    charge:   13.5449    magn:   -4.2717    constr:    0.0000
     atom:    9    charge:    9.1386    magn:    0.0326    constr:    0.0000
     atom:   10    charge:    9.1384    magn:    0.0310    constr:    0.0000
     atom:   11    charge:    9.1394    magn:    0.0390    constr:    0.0000
     atom:   12    charge:    9.1382    magn:   -0.0396    constr:    0.0000
     atom:   13    charge:    9.1382    magn:   -0.0396    constr:    0.0000
     atom:   14    charge:    9.1394    magn:    0.0390    constr:    0.0000
     atom:   15    charge:    9.1384    magn:    0.0310    constr:    0.0000
     atom:   16    charge:    9.1386    magn:    0.0326    constr:    0.0000
     atom:   17    charge:    9.1394    magn:    0.0420    constr:    0.0000
     atom:   18    charge:    9.1393    magn:   -0.0368    constr:    0.0000
     atom:   19    charge:    9.1410    magn:   -0.0356    constr:    0.0000
     atom:   20    charge:    9.1403    magn:    0.0346    constr:    0.0000
     atom:   21    charge:    9.1403    magn:    0.0346    constr:    0.0000
     atom:   22    charge:    9.1410    magn:   -0.0356    constr:    0.0000
     atom:   23    charge:    9.1393    magn:   -0.0368    constr:    0.0000
     atom:   24    charge:    9.1394    magn:    0.0420    constr:    0.0000

     total cpu time spent up to now is     1205.4 secs

     End of self-consistent calculation
 --- enter write_ns ---
 LDA+U parameters:
U(  1) =   3.1200   J(  1) =   0.7000   B(  1) =   0.0803
U(  2) =   3.1200   J(  2) =   0.7000   B(  2) =   0.0803
atom    1   Tr[ns(na)] (up, down, total) =   4.97558  0.71646  5.69204
   spin  1
    eigenvalues: 
  0.986  0.995  0.995  0.998  1.002
    eigenvectors:
  0.000  0.000  0.000  1.000  0.000
  0.000  0.092  0.908  0.000  0.000
  0.000  0.908  0.092  0.000  0.000
  0.000  0.000  0.000  0.000  1.000
  1.000  0.000  0.000  0.000  0.000
    occupations:
  0.998 -0.000 -0.000  0.000  0.000
 -0.000  0.995 -0.000  0.000  0.000
 -0.000 -0.000  0.995  0.000  0.000
  0.000  0.000  0.000  1.002 -0.000
  0.000  0.000  0.000 -0.000  0.986
   spin  2
    eigenvalues: 
  0.066  0.121  0.140  0.140  0.250
    eigenvectors:
  0.000  1.000  0.000  0.000  0.000
  0.000  0.000  0.095  0.905  0.000
  0.000  0.000  0.905  0.095  0.000
  1.000  0.000  0.000  0.000  0.000
  0.000  0.000  0.000  0.000  1.000
    occupations:
  0.121 -0.000 -0.000  0.000  0.000
 -0.000  0.140 -0.000  0.000  0.000
 -0.000 -0.000  0.140  0.000  0.000
  0.000  0.000  0.000  0.066 -0.000
  0.000  0.000  0.000 -0.000  0.250
atomic mag. moment =     4.259120
atom    2   Tr[ns(na)] (up, down, total) =   4.97559  0.71695  5.69254
   spin  1
    eigenvalues: 
  0.986  0.995  0.995  0.998  1.002
    eigenvectors:
  0.000  0.000  0.000  1.000  0.000
  0.000  0.125  0.875  0.000  0.000
  0.000  0.875  0.125  0.000  0.000
  0.000  0.000  0.000  0.000  1.000
  1.000  0.000  0.000  0.000  0.000
    occupations:
  0.998 -0.000 -0.000  0.000  0.000
 -0.000  0.995 -0.000  0.000  0.000
 -0.000 -0.000  0.995  0.000  0.000
  0.000  0.000  0.000  1.002 -0.000
  0.000  0.000  0.000 -0.000  0.986
   spin  2
    eigenvalues: 
  0.066  0.120  0.141  0.141  0.250
    eigenvectors:
  0.000  1.000  0.000  0.000  0.000
  0.000  0.000  0.103  0.897  0.000
  0.000  0.000  0.897  0.103  0.000
  1.000  0.000  0.000  0.000  0.000
  0.000  0.000  0.000  0.000  1.000
    occupations:
  0.120 -0.000 -0.000  0.000  0.000
 -0.000  0.141 -0.000  0.000  0.000
 -0.000 -0.000  0.141  0.000  0.000
  0.000  0.000  0.000  0.066 -0.000
  0.000  0.000  0.000 -0.000  0.250
atomic mag. moment =     4.258637
atom    3   Tr[ns(na)] (up, down, total) =   0.71582  4.97360  5.68942
   spin  1
    eigenvalues: 
  0.063  0.116  0.142  0.142  0.253
    eigenvectors:
  0.000  1.000  0.000  0.000  0.000
  0.000  0.000  0.144  0.856  0.000
  0.000  0.000  0.856  0.144  0.000
  1.000  0.000  0.000  0.000  0.000
  0.000  0.000  0.000  0.000  1.000
    occupations:
  0.116 -0.000 -0.000  0.000  0.000
 -0.000  0.142 -0.000  0.000  0.000
 -0.000 -0.000  0.142  0.000  0.000
  0.000  0.000  0.000  0.063 -0.000
  0.000  0.000  0.000 -0.000  0.253
   spin  2
    eigenvalues: 
  0.985  0.994  0.994  0.998  1.002
    eigenvectors:
  0.000  0.000  0.000  1.000  0.000
  0.000  0.123  0.877  0.000  0.000
  0.000  0.877  0.123  0.000  0.000
  0.000  0.000  0.000  0.000  1.000
  1.000  0.000  0.000  0.000  0.000
    occupations:
  0.998 -0.000 -0.000  0.000  0.000
 -0.000  0.994 -0.000  0.000  0.000
 -0.000 -0.000  0.994  0.000  0.000
  0.000  0.000  0.000  1.002 -0.000
  0.000  0.000  0.000 -0.000  0.985
atomic mag. moment =    -4.257775
atom    4   Tr[ns(na)] (up, down, total) =   4.97559  0.71695  5.69254
   spin  1
    eigenvalues: 
  0.986  0.995  0.995  0.998  1.002
    eigenvectors:
  0.000  0.000  0.000  1.000  0.000
  0.000  0.139  0.861  0.000  0.000
  0.000  0.861  0.139  0.000  0.000
  0.000  0.000  0.000  0.000  1.000
  1.000  0.000  0.000  0.000  0.000
    occupations:
  0.998 -0.000 -0.000  0.000  0.000
 -0.000  0.995 -0.000  0.000  0.000
 -0.000 -0.000  0.995  0.000  0.000
  0.000  0.000  0.000  1.002 -0.000
  0.000  0.000  0.000 -0.000  0.986
   spin  2
    eigenvalues: 
  0.066  0.120  0.141  0.141  0.250
    eigenvectors:
  0.000  1.000  0.000  0.000  0.000
  0.000  0.000  0.150  0.850  0.000
  0.000  0.000  0.850  0.150  0.000
  1.000  0.000  0.000  0.000  0.000
  0.000  0.000  0.000  0.000  1.000
    occupations:
  0.120 -0.000 -0.000  0.000  0.000
 -0.000  0.141 -0.000  0.000  0.000
 -0.000 -0.000  0.141  0.000  0.000
  0.000  0.000  0.000  0.066 -0.000
  0.000  0.000  0.000 -0.000  0.250
atomic mag. moment =     4.258637
atom    5   Tr[ns(na)] (up, down, total) =   4.97558  0.71646  5.69204
   spin  1
    eigenvalues: 
  0.986  0.995  0.995  0.998  1.002
    eigenvectors:
  0.000  0.000  0.000  1.000  0.000
  0.000  0.142  0.858  0.000  0.000
  0.000  0.858  0.142  0.000  0.000
  0.000  0.000  0.000  0.000  1.000
  1.000  0.000  0.000  0.000  0.000
    occupations:
  0.998 -0.000 -0.000  0.000  0.000
 -0.000  0.995 -0.000  0.000  0.000
 -0.000 -0.000  0.995  0.000  0.000
  0.000  0.000  0.000  1.002 -0.000
  0.000  0.000  0.000 -0.000  0.986
   spin  2
    eigenvalues: 
  0.066  0.121  0.140  0.140  0.250
    eigenvectors:
  0.000  1.000  0.000  0.000  0.000
  0.000  0.000  0.108  0.892  0.000
  0.000  0.000  0.892  0.108  0.000
  1.000  0.000  0.000  0.000  0.000
  0.000  0.000  0.000  0.000  1.000
    occupations:
  0.121 -0.000 -0.000  0.000  0.000
 -0.000  0.140 -0.000  0.000  0.000
 -0.000 -0.000  0.140  0.000  0.000
  0.000  0.000  0.000  0.066 -0.000
  0.000  0.000  0.000 -0.000  0.250
atomic mag. moment =     4.259120
atom    6   Tr[ns(na)] (up, down, total) =   0.70654  4.97500  5.68155
   spin  1
    eigenvalues: 
  0.065  0.115  0.140  0.140  0.247
    eigenvectors:
  0.000  1.000  0.000  0.000  0.000
  0.000  0.000  0.117  0.883  0.000
  0.000  0.000  0.883  0.117  0.000
  1.000  0.000  0.000  0.000  0.000
  0.000  0.000  0.000  0.000  1.000
    occupations:
  0.115 -0.000 -0.000  0.000  0.000
 -0.000  0.140 -0.000  0.000  0.000
 -0.000 -0.000  0.140  0.000  0.000
  0.000  0.000  0.000  0.065 -0.000
  0.000  0.000  0.000 -0.000  0.247
   spin  2
    eigenvalues: 
  0.985  0.994  0.994  0.999  1.002
    eigenvectors:
  0.000  0.000  0.000  1.000  0.000
  0.000  0.116  0.884  0.000  0.000
  0.000  0.884  0.116  0.000  0.000
  0.000  0.000  0.000  0.000  1.000
  1.000  0.000  0.000  0.000  0.000
    occupations:
  0.999 -0.000 -0.000  0.000  0.000
 -0.000  0.994 -0.000  0.000  0.000
 -0.000 -0.000  0.994  0.000  0.000
  0.000  0.000  0.000  1.002 -0.000
  0.000  0.000  0.000 -0.000  0.985
atomic mag. moment =    -4.268464
atom    7   Tr[ns(na)] (up, down, total) =   4.97711  0.69342  5.67053
   spin  1
    eigenvalues: 
  0.986  0.995  0.995  0.999  1.002
    eigenvectors:
  0.000  0.000  0.000  1.000  0.000
  0.000  0.131  0.869  0.000  0.000
  0.000  0.869  0.131  0.000  0.000
  0.000  0.000  0.000  0.000  1.000
  1.000  0.000  0.000  0.000  0.000
    occupations:
  0.999 -0.000 -0.000  0.000  0.000
 -0.000  0.995 -0.000  0.000  0.000
 -0.000 -0.000  0.995  0.000  0.000
  0.000  0.000  0.000  1.002 -0.000
  0.000  0.000  0.000 -0.000  0.986
   spin  2
    eigenvalues: 
  0.067  0.108  0.140  0.140  0.239
    eigenvectors:
  0.000  1.000  0.000  0.000  0.000
  0.000  0.000  0.127  0.873  0.000
  0.000  0.000  0.873  0.127  0.000
  1.000  0.000  0.000  0.000  0.000
  0.000  0.000  0.000  0.000  1.000
    occupations:
  0.108 -0.000 -0.000  0.000  0.000
 -0.000  0.140 -0.000  0.000  0.000
 -0.000 -0.000  0.140  0.000  0.000
  0.000  0.000  0.000  0.067 -0.000
  0.000  0.000  0.000 -0.000  0.239
atomic mag. moment =     4.283686
atom    8   Tr[ns(na)] (up, down, total) =   0.70654  4.97500  5.68155
   spin  1
    eigenvalues: 
  0.065  0.115  0.140  0.140  0.247
    eigenvectors:
  0.000  1.000  0.000  0.000  0.000
  0.000  0.000  0.124  0.876  0.000
  0.000  0.000  0.876  0.124  0.000
  1.000  0.000  0.000  0.000  0.000
  0.000  0.000  0.000  0.000  1.000
    occupations:
  0.115 -0.000 -0.000  0.000  0.000
 -0.000  0.140 -0.000  0.000  0.000
 -0.000 -0.000  0.140  0.000  0.000
  0.000  0.000  0.000  0.065 -0.000
  0.000  0.000  0.000 -0.000  0.247
   spin  2
    eigenvalues: 
  0.985  0.994  0.994  0.999  1.002
    eigenvectors:
  0.000  0.000  0.000  1.000  0.000
  0.000  0.132  0.868  0.000  0.000
  0.000  0.868  0.132  0.000  0.000
  0.000  0.000  0.000  0.000  1.000
  1.000  0.000  0.000  0.000  0.000
    occupations:
  0.999 -0.000 -0.000  0.000  0.000
 -0.000  0.994 -0.000  0.000  0.000
 -0.000 -0.000  0.994  0.000  0.000
  0.000  0.000  0.000  1.002 -0.000
  0.000  0.000  0.000 -0.000  0.985
atomic mag. moment =    -4.268464
N of occupied +U levels =   45.492209
 --- exit write_ns ---

 ------ SPIN UP ------------


          k = 0.0000 0.0000 0.0000 ( 14071 PWs)   bands (ev):

   -67.1078 -67.0218 -67.0218 -67.0151 -67.0151 -62.4511 -62.4510 -62.4435
   -35.8761 -35.8226 -35.8226 -35.7963 -35.7963 -35.7906 -35.7906 -35.7347
   -35.7347 -35.7347 -35.7347 -35.7273 -35.7273 -35.7273 -35.7273 -31.2709
   -31.2709 -31.2709 -31.2709 -31.2687 -31.2687 -31.2631 -31.2631 -31.2625
     5.6018   5.7343   5.7552   6.1541   6.2036   6.8129   6.8640   7.4041
     8.0541   8.2391   8.2483   8.2525   8.3017   8.3149   8.3756   8.5287
     8.5521   8.5658   8.5749   8.7044   8.7250   8.9872   9.0347   9.0435
     9.0795   9.1733   9.2163   9.2328   9.3130   9.5738   9.6893   9.7464
     9.7533   9.7944   9.8980   9.9131   9.9264   9.9439   9.9439   9.9559
     9.9774   9.9871   9.9871   9.9946  10.0062  10.0062  10.1522  10.1522
    10.1552  10.1552  10.2776  10.3078  10.3078  10.3229  10.3229  10.3248
    10.3248  10.3465  10.3813  10.3815  10.3815  10.3977  10.3977  10.4146
    10.4342  10.4342  10.4757  10.4757  10.4774  10.7394  10.7394  10.8283
    10.8320  10.8719  10.8719  10.8829  10.9039  10.9829  11.0793  11.0973
    11.1064  11.2014  11.2014  11.2227  11.2505  11.2505  11.3934  11.4435
    11.4479  11.4850  11.4910  11.5035  11.6113  11.6907  11.6907  11.7656
    11.7656  11.8145  11.8237  11.8733  11.9122  11.9824  12.0702  12.0702
    12.2846  12.2846  12.3419  12.3419  12.3734  12.4054  12.5096  12.5294
    12.6982  12.7052  12.7175  12.7638  13.4888  13.6455  14.6334  14.9596
    15.7247  16.6574  16.6574  16.6802  16.6802  16.6925  16.6927  16.7044
    16.7044  16.7068  16.8621  16.8776  16.8777  17.0376  17.2210  17.2431
    18.0414  18.9684  19.1426  19.8876  19.8876  20.2272  20.2272  20.2695
    20.2695  20.9502

          k = 0.0000 0.0000 0.0159 ( 14107 PWs)   bands (ev):

   -67.1078 -67.0218 -67.0218 -67.0151 -67.0151 -62.4511 -62.4510 -62.4435
   -35.8761 -35.8226 -35.8226 -35.7963 -35.7963 -35.7906 -35.7906 -35.7347
   -35.7347 -35.7347 -35.7347 -35.7273 -35.7273 -35.7273 -35.7273 -31.2709
   -31.2709 -31.2709 -31.2709 -31.2687 -31.2687 -31.2631 -31.2631 -31.2625
     5.6058   5.7008   5.7950   6.0915   6.2724   6.7203   6.9600   7.3738
     8.0843   8.2393   8.2481   8.2541   8.2973   8.3150   8.3791   8.4915
     8.5280   8.5528   8.5883   8.7134   8.7714   8.9711   9.0298   9.0535
     9.0886   9.1683   9.2028   9.2254   9.3248   9.5788   9.6827   9.7466
     9.7531   9.7944   9.9015   9.9118   9.9293   9.9452   9.9452   9.9543
     9.9770   9.9784   9.9784   9.9950  10.0179  10.0179  10.1205  10.1205
    10.1896  10.1896  10.2712  10.3070  10.3070  10.3224  10.3224  10.3248
    10.3248  10.3525  10.3596  10.3596  10.3781  10.4038  10.4038  10.4206
    10.4286  10.4286  10.4742  10.5011  10.5011  10.7125  10.7125  10.8231
    10.8313  10.8955  10.9001  10.9007  10.9007  10.9784  11.0810  11.0973
    11.1064  11.1560  11.1560  11.2226  11.2898  11.2898  11.3901  11.4467
    11.4495  11.4853  11.4894  11.5032  11.6115  11.6691  11.6691  11.7845
    11.7845  11.8143  11.8238  11.8678  11.9204  11.9792  12.0662  12.0662
    12.2875  12.2875  12.3404  12.3404  12.3745  12.4043  12.5098  12.5357
    12.6770  12.6981  12.7053  12.8066  13.4293  13.7163  14.5535  15.0505
    15.6848  16.6572  16.6572  16.6806  16.6806  16.6925  16.6927  16.7041
    16.7041  16.7068  16.8621  16.8776  16.8777  17.0553  17.2093  17.2480
    18.0728  18.7721  19.3581  19.8980  19.8980  20.1400  20.1400  20.3723
    20.3723  20.6504

          k = 0.0000 0.0000 0.0319 ( 14080 PWs)   bands (ev):

   -67.1078 -67.0218 -67.0218 -67.0151 -67.0151 -62.4511 -62.4510 -62.4435
   -35.8761 -35.8226 -35.8226 -35.7963 -35.7963 -35.7906 -35.7906 -35.7347
   -35.7347 -35.7347 -35.7347 -35.7273 -35.7273 -35.7273 -35.7273 -31.2709
   -31.2709 -31.2709 -31.2709 -31.2687 -31.2687 -31.2631 -31.2631 -31.2625
     5.6177   5.6660   5.8462   6.0202   6.3619   6.6152   7.0776   7.2961
     8.1612   8.2397   8.2476   8.2583   8.2884   8.3152   8.3644   8.4086
     8.5268   8.5542   8.5780   8.7317   8.8459   8.9443   9.0226   9.0581
     9.1076   9.1549   9.1802   9.2154   9.3414   9.5909   9.6676   9.7469
     9.7527   9.7946   9.9083   9.9100   9.9358   9.9493   9.9493   9.9498
     9.9667   9.9667   9.9762   9.9958  10.0384  10.0384  10.0902  10.0902
    10.2274  10.2274  10.2603  10.2996  10.2996  10.3182  10.3182  10.3248
    10.3248  10.3322  10.3322  10.3625  10.3733  10.4071  10.4071  10.4248
    10.4248  10.4333  10.4657  10.5486  10.5486  10.6609  10.6609  10.8104
    10.8383  10.8916  10.9188  10.9580  10.9580  10.9659  11.0842  11.0907
    11.0907  11.0973  11.1064  11.2226  11.3332  11.3332  11.3842  11.4520
    11.4530  11.4856  11.4858  11.5027  11.6121  11.6366  11.6366  11.8107
    11.8107  11.8140  11.8241  11.8599  11.9363  11.9704  12.0579  12.0579
    12.2937  12.2937  12.3368  12.3368  12.3769  12.4018  12.5101  12.5545
    12.6270  12.6979  12.7055  12.8571  13.3531  13.8214  14.4295  15.2135
    15.5803  16.6568  16.6568  16.6815  16.6815  16.6925  16.6927  16.7036
    16.7036  16.7068  16.8621  16.8776  16.8777  17.0969  17.1830  17.2533
    18.1650  18.5382  19.6494  19.9288  19.9288  20.0520  20.0520  20.3307
    20.5054  20.5054

          k = 0.0000 0.0000-0.0478 ( 14088 PWs)   bands (ev):

   -67.1078 -67.0218 -67.0218 -67.0151 -67.0151 -62.4511 -62.4510 -62.4435
   -35.8761 -35.8226 -35.8226 -35.7963 -35.7963 -35.7906 -35.7906 -35.7347
   -35.7347 -35.7347 -35.7347 -35.7273 -35.7273 -35.7273 -35.7273 -31.2709
   -31.2709 -31.2709 -31.2709 -31.2687 -31.2687 -31.2631 -31.2631 -31.2625
     5.6342   5.6417   5.8781   5.9814   6.4194   6.5525   7.1845   7.2003
     8.2399   8.2452   8.2473   8.2648   8.2783   8.2840   8.3153   8.4021
     8.5262   8.5548   8.5721   8.7405   8.8890   8.9253   9.0197   9.0516
     9.1221   9.1424   9.1739   9.2098   9.3479   9.5989   9.6583   9.7471
     9.7525   9.7946   9.9092   9.9116   9.9426   9.9437   9.9542   9.9542
     9.9592   9.9592   9.9758   9.9962  10.0606  10.0606  10.0650  10.0650
    10.2556  10.2598  10.2598  10.2746  10.2746  10.3144  10.3144  10.3248
    10.3248  10.3275  10.3275  10.3668  10.3713  10.4079  10.4079  10.4238
    10.4238  10.4426  10.4579  10.5934  10.5934  10.6143  10.6143  10.8053
    10.8427  10.8865  10.9361  10.9527  11.0167  11.0167  11.0299  11.0299
    11.0858  11.0973  11.1065  11.2226  11.3511  11.3511  11.3816  11.4544
    11.4551  11.4834  11.4861  11.5024  11.6124  11.6219  11.6219  11.8138
    11.8215  11.8215  11.8243  11.8567  11.9479  11.9616  12.0536  12.0536
    12.2971  12.2971  12.3346  12.3346  12.3783  12.4004  12.5103  12.5831
    12.5875  12.6978  12.7055  12.8791  13.3215  13.8730  14.3700  15.3302
    15.4836  16.6566  16.6566  16.6820  16.6820  16.6925  16.6927  16.7034
    16.7034  16.7068  16.8621  16.8776  16.8777  17.1351  17.1529  17.2552
    18.2743  18.3799  19.8700  19.9714  19.9714  19.9901  19.9901  20.1017
    20.6103  20.6103

          k = 0.0000 0.1667 0.0000 ( 14044 PWs)   bands (ev):

   -67.1074 -67.0214 -67.0214 -67.0147 -67.0147 -62.4510 -62.4510 -62.4435
   -35.8758 -35.8255 -35.8224 -35.7960 -35.7960 -35.7903 -35.7903 -35.7377
   -35.7377 -35.7345 -35.7345 -35.7303 -35.7303 -35.7272 -35.7272 -31.2746
   -31.2746 -31.2706 -31.2706 -31.2683 -31.2683 -31.2667 -31.2628 -31.2621
     6.0301   6.1566   6.1754   6.5496   6.5914   7.1427   7.1743   7.6428
     8.0785   8.4084   8.4277   8.4591   8.4614   8.4642   8.4873   8.4955
     8.5571   8.6756   8.6823   8.7624   8.7836   8.8632   8.9267   8.9905
     9.0184   9.0593   9.3034   9.3555   9.5004   9.5143   9.5288   9.5341
     9.5360   9.5453   9.5683   9.6504   9.6695   9.6933   9.6937   9.7439
     9.8266   9.8598   9.8670   9.9380   9.9733  10.0117  10.0279  10.0589
    10.1714  10.1958  10.1991  10.2303  10.2578  10.2848  10.3440  10.3564
    10.4058  10.4484  10.4485  10.4617  10.5262  10.5956  10.6343  10.6547
    10.6679  10.7058  10.7277  10.7898  10.8529  10.8566  10.8653  10.9716
    10.9733  11.0302  11.0494  11.0530  11.0762  11.1113  11.1484  11.1662
    11.1676  11.1786  11.2147  11.2682  11.2733  11.3981  11.4218  11.4659
    11.4739  11.4959  11.5629  11.5843  11.5864  11.6352  11.6655  11.7289
    11.7632  11.8035  11.8098  11.8509  11.9001  12.0245  12.0997  12.1162
    12.1818  12.2091  12.2313  12.3517  12.3962  12.4221  12.5555  12.5869
    12.6084  12.6155  12.6719  12.7281  13.5776  13.7376  14.8595  15.1653
    15.9490  16.2595  16.3397  16.4216  16.6727  16.6979  16.6980  16.7144
    16.7221  16.7373  16.8733  16.8803  16.8871  17.2650  17.2744  17.6142
    17.7346  17.9989  18.0199  18.2791  18.8169  18.8616  19.5387  19.6484
    19.8552  19.8627

          k = 0.0000 0.1667 0.0159 ( 14046 PWs)   bands (ev):

   -67.1074 -67.0214 -67.0214 -67.0147 -67.0147 -62.4510 -62.4510 -62.4435
   -35.8758 -35.8255 -35.8224 -35.7960 -35.7960 -35.7903 -35.7903 -35.7377
   -35.7377 -35.7345 -35.7345 -35.7303 -35.7303 -35.7272 -35.7272 -31.2746
   -31.2746 -31.2706 -31.2706 -31.2683 -31.2683 -31.2667 -31.2628 -31.2621
     6.0339   6.1244   6.2136   6.4898   6.6568   7.0555   7.2630   7.6165
     8.1015   8.3784   8.4116   8.4480   8.4625   8.4749   8.4972   8.5221
     8.5615   8.6716   8.6845   8.7382   8.8058   8.8538   8.9328   8.9863
     9.0238   9.0578   9.2875   9.3766   9.5014   9.5119   9.5213   9.5224
     9.5405   9.5479   9.5757   9.6428   9.6785   9.6933   9.6937   9.7409
     9.8279   9.8591   9.8697   9.9341   9.9741  10.0080  10.0322  10.0611
    10.1538  10.1966  10.2196  10.2326  10.2570  10.2866  10.3326  10.3684
    10.4006  10.4050  10.4496  10.5113  10.5191  10.6025  10.6337  10.6549
    10.6649  10.7060  10.7271  10.7611  10.8463  10.8588  10.9014  10.9493
    10.9931  11.0314  11.0488  11.0526  11.0755  11.0958  11.1493  11.1516
    11.1739  11.1845  11.2262  11.2658  11.2808  11.3981  11.4222  11.4439
    11.4760  11.5055  11.5449  11.5824  11.6060  11.6320  11.6841  11.7164
    11.7729  11.8021  11.8100  11.8467  11.8879  12.0337  12.1024  12.1132
    12.1812  12.2076  12.2325  12.3494  12.3981  12.4302  12.5553  12.5870
    12.6083  12.6144  12.6155  12.7927  13.4854  13.8408  14.7602  15.2683
    15.9066  16.2702  16.3444  16.4177  16.6732  16.6953  16.7002  16.7144
    16.7221  16.7373  16.8733  16.8804  16.8871  17.2503  17.2997  17.5678
    17.7451  17.9564  18.0888  18.3438  18.6877  18.9970  19.2855  19.6694
    19.9351  20.0308

          k = 0.0000 0.1667 0.0319 ( 14043 PWs)   bands (ev):

   -67.1074 -67.0214 -67.0214 -67.0147 -67.0147 -62.4510 -62.4510 -62.4435
   -35.8758 -35.8255 -35.8224 -35.7960 -35.7960 -35.7903 -35.7903 -35.7377
   -35.7377 -35.7345 -35.7345 -35.7303 -35.7303 -35.7272 -35.7272 -31.2746
   -31.2746 -31.2706 -31.2706 -31.2683 -31.2683 -31.2667 -31.2628 -31.2621
     6.0452   6.0912   6.2625   6.4225   6.7408   6.9598   7.3646   7.5500
     8.1581   8.3067   8.4158   8.4405   8.4633   8.4717   8.4995   8.5665
     8.5752   8.6617   8.6879   8.7102   8.8271   8.8400   8.9391   8.9821
     9.0333   9.0536   9.2675   9.4129   9.4924   9.5041   9.5081   9.5150
     9.5473   9.5526   9.5839   9.6332   9.6916   9.6932   9.6941   9.7336
     9.8305   9.8575   9.8760   9.9254   9.9758  10.0027  10.0391  10.0655
    10.1359  10.1922  10.2370  10.2551  10.2574  10.2912  10.3194  10.3498
    10.3833  10.4021  10.4529  10.5057  10.5665  10.6162  10.6304  10.6558
    10.6571  10.7064  10.7120  10.7264  10.8439  10.8739  10.9260  10.9434
    11.0083  11.0336  11.0491  11.0519  11.0736  11.0764  11.1166  11.1538
    11.1757  11.2021  11.2406  11.2632  11.3005  11.3981  11.4055  11.4230
    11.4807  11.5140  11.5262  11.5766  11.6299  11.6364  11.6930  11.7186
    11.7870  11.7969  11.8104  11.8373  11.8638  12.0515  12.1054  12.1076
    12.1816  12.2026  12.2353  12.3452  12.4015  12.4541  12.5477  12.5548
    12.5872  12.6082  12.6156  12.8722  13.3715  13.9844  14.6070  15.4400
    15.8011  16.2851  16.3585  16.4069  16.6743  16.6930  16.7017  16.7144
    16.7220  16.7373  16.8732  16.8804  16.8870  17.2400  17.3426  17.4823
    17.7735  17.8909  18.2156  18.4765  18.5716  18.9983  19.1575  19.5039
    20.2004  20.2644

          k = 0.0000 0.1667-0.0478 ( 14036 PWs)   bands (ev):

   -67.1074 -67.0214 -67.0214 -67.0147 -67.0147 -62.4510 -62.4510 -62.4435
   -35.8758 -35.8255 -35.8224 -35.7960 -35.7960 -35.7903 -35.7903 -35.7377
   -35.7377 -35.7345 -35.7345 -35.7303 -35.7303 -35.7272 -35.7272 -31.2746
   -31.2746 -31.2706 -31.2706 -31.2683 -31.2683 -31.2667 -31.2628 -31.2621
     6.0609   6.0681   6.2936   6.3851   6.7977   6.8990   7.4602   7.4644
     8.2198   8.2413   8.4193   8.4355   8.4638   8.4702   8.5002   8.5732
     8.5990   8.6510   8.6916   8.6963   8.8278   8.8417   8.9398   8.9818
     9.0392   9.0498   9.2597   9.4407   9.4673   9.5065   9.5082   9.5093
     9.5502   9.5547   9.5867   9.6293   9.6932   9.6935   9.6993   9.7286
     9.8319   9.8566   9.8801   9.9203   9.9768  10.0004  10.0422  10.0676
    10.1291  10.1902  10.2392  10.2540  10.2939  10.2948  10.3090  10.3128
    10.3924  10.3977  10.4553  10.4988  10.6099  10.6151  10.6244  10.6512
    10.6575  10.6825  10.7065  10.7261  10.8434  10.8869  10.9106  10.9629
    11.0138  11.0341  11.0513  11.0569  11.0573  11.0883  11.0888  11.1547
    11.1757  11.2091  11.2461  11.2621  11.3182  11.3809  11.3981  11.4233
    11.4835  11.5166  11.5186  11.5744  11.6295  11.6659  11.6659  11.7399
    11.7898  11.7940  11.8106  11.8314  11.8514  12.0616  12.0995  12.1101
    12.1830  12.1987  12.2369  12.3432  12.4031  12.4925  12.4946  12.5546
    12.5873  12.6082  12.6156  12.9102  13.3209  14.0580  14.5288  15.5597
    15.7044  16.2903  16.3707  16.3973  16.6749  16.6920  16.7022  16.7145
    16.7220  16.7373  16.8732  16.8805  16.8870  17.2367  17.3952  17.4117
    17.8039  17.8462  18.3109  18.4305  18.7169  18.7622  19.2839  19.3737
    20.3647  20.3837

          k = 0.0000 0.3333 0.0000 ( 14062 PWs)   bands (ev):

   -67.1077 -67.0217 -67.0217 -67.0150 -67.0150 -62.4501 -62.4501 -62.4425
   -35.8752 -35.8313 -35.8220 -35.7955 -35.7955 -35.7898 -35.7898 -35.7435
   -35.7435 -35.7361 -35.7361 -35.7342 -35.7342 -35.7268 -35.7268 -31.2821
   -31.2821 -31.2742 -31.2702 -31.2702 -31.2675 -31.2675 -31.2623 -31.2613
     7.1667   7.2675   7.2770   7.5366   7.5500   7.8158   7.8272   7.9863
     8.0242   8.1330   8.1416   8.2908   8.2945   8.4846   8.4985   8.6367
     8.7697   8.7763   8.8623   8.8780   8.9453   8.9625   8.9849   8.9862
     9.1417   9.1431   9.1516   9.1706   9.2133   9.2421   9.2752   9.3426
     9.3673   9.4490   9.4626   9.4819   9.4869   9.4892   9.5050   9.6897
     9.8004   9.8064   9.8649   9.9373   9.9660   9.9688   9.9946  10.2989
    10.3010  10.3323  10.3611  10.3774  10.3914  10.4177  10.4426  10.4835
    10.5071  10.5940  10.7053  10.7277  10.7750  10.7911  10.8629  10.8741
    10.9830  11.0089  11.0158  11.0914  11.1282  11.1437  11.1587  11.2079
    11.2285  11.2303  11.2380  11.2636  11.3012  11.3238  11.3465  11.3817
    11.3823  11.4101  11.4234  11.4994  11.5004  11.5311  11.5566  11.5794
    11.6590  11.6921  11.7126  11.7270  11.7386  11.7452  11.7771  11.8092
    11.8126  11.8190  11.8296  11.9108  11.9855  12.0360  12.1497  12.2018
    12.2834  12.2952  12.3229  12.4212  12.4928  12.5022  12.6016  12.6521
    12.6720  12.6783  12.6949  12.7119  13.7918  13.8686  14.3702  14.5937
    14.6061  14.9253  14.9892  15.2498  15.2960  15.7696  15.7708  15.9722
    16.0481  16.5741  16.5890  16.5909  16.7359  16.8102  16.8165  16.9515
    16.9603  17.1851  17.1855  17.1860  17.2777  17.6733  17.7037  17.9236
    19.0537  19.3900

          k = 0.0000 0.3333 0.0159 ( 14056 PWs)   bands (ev):

   -67.1077 -67.0217 -67.0217 -67.0150 -67.0150 -62.4501 -62.4501 -62.4425
   -35.8752 -35.8313 -35.8220 -35.7955 -35.7955 -35.7898 -35.7898 -35.7435
   -35.7435 -35.7361 -35.7361 -35.7342 -35.7342 -35.7268 -35.7268 -31.2821
   -31.2821 -31.2742 -31.2702 -31.2702 -31.2675 -31.2675 -31.2623 -31.2613
     7.1697   7.2408   7.3079   7.4936   7.5937   7.7807   7.8590   7.9744
     8.0347   8.1150   8.1606   8.2638   8.3221   8.4585   8.5247   8.6296
     8.7720   8.7793   8.8593   8.8685   8.9584   8.9637   8.9821   8.9888
     9.1417   9.1431   9.1509   9.1719   9.2142   9.2397   9.2456   9.3705
     9.3746   9.4458   9.4623   9.4822   9.4869   9.4891   9.5038   9.6950
     9.7810   9.8218   9.8223   9.9629   9.9721   9.9877   9.9940  10.2901
    10.2998  10.3239  10.3341  10.3883  10.3903  10.4085  10.4598  10.4980
    10.5072  10.6113  10.6653  10.7690  10.7715  10.7911  10.8654  10.8783
    10.9555  10.9948  11.0330  11.0684  11.1271  11.1567  11.1640  11.2135
    11.2233  11.2305  11.2380  11.2504  11.3118  11.3317  11.3412  11.3654
    11.3907  11.4134  11.4348  11.4905  11.5098  11.5405  11.5473  11.5972
    11.6599  11.6894  11.7077  11.7152  11.7171  11.7535  11.8057  11.8082
    11.8134  11.8219  11.8304  11.9068  11.9653  12.0559  12.1572  12.1898
    12.2870  12.2976  12.3270  12.4154  12.4657  12.4919  12.5051  12.6721
    12.6784  12.6941  12.7124  12.8050  13.6257  14.0305  14.3786  14.5312
    14.6722  14.8101  15.0505  15.2204  15.3703  15.6871  15.8271  15.9589
    16.0518  16.5741  16.5890  16.5909  16.7352  16.8098  16.8168  16.9187
    17.0129  17.1851  17.1855  17.1860  17.2639  17.6561  17.7305  17.9120
    19.0593  19.3063

          k = 0.0000 0.3333 0.0319 ( 14062 PWs)   bands (ev):

   -67.1077 -67.0217 -67.0217 -67.0150 -67.0150 -62.4501 -62.4501 -62.4425
   -35.8752 -35.8313 -35.8220 -35.7955 -35.7955 -35.7898 -35.7898 -35.7435
   -35.7435 -35.7361 -35.7361 -35.7342 -35.7342 -35.7268 -35.7268 -31.2821
   -31.2821 -31.2742 -31.2702 -31.2702 -31.2675 -31.2675 -31.2623 -31.2613
     7.1787   7.2149   7.3456   7.4476   7.6431   7.7374   7.8923   7.9517
     8.0535   8.0941   8.1844   8.2362   8.3505   8.4286   8.5559   8.6111
     8.7777   8.7848   8.8484   8.8589   8.9666   8.9781   8.9786   8.9939
     9.1417   9.1431   9.1496   9.1741   9.2072   9.2169   9.2342   9.3777
     9.4197   9.4386   9.4609   9.4837   9.4869   9.4891   9.4992   9.7090
     9.7575   9.7725   9.8339   9.9599   9.9758   9.9924  10.0647  10.2295
    10.2982  10.3161  10.3385  10.3864  10.3886  10.3938  10.4781  10.5093
    10.5286  10.6194  10.6538  10.7465  10.8087  10.8173  10.8639  10.8878
    10.9325  10.9539  10.9958  11.0885  11.1231  11.1585  11.1837  11.2016
    11.2316  11.2321  11.2381  11.2467  11.3159  11.3305  11.3312  11.3494
    11.3935  11.4336  11.4516  11.4848  11.5160  11.5233  11.5830  11.6245
    11.6618  11.6729  11.6827  11.6901  11.7165  11.7688  11.8031  11.8177
    11.8257  11.8402  11.8432  11.8939  11.9321  12.0882  12.1637  12.1837
    12.2893  12.3024  12.3344  12.3396  12.4020  12.4909  12.5098  12.6721
    12.6787  12.6926  12.7132  12.9860  13.4315  14.2088  14.4061  14.4738
    14.6366  14.7637  15.0098  15.2989  15.4387  15.6130  15.8127  15.9750
    16.0442  16.5741  16.5890  16.5909  16.7341  16.8092  16.8174  16.8998
    17.0828  17.1851  17.1855  17.1860  17.2246  17.6394  17.7736  17.8812
    19.0787  19.2133

          k = 0.0000 0.3333-0.0478 ( 14060 PWs)   bands (ev):

   -67.1077 -67.0217 -67.0217 -67.0150 -67.0150 -62.4501 -62.4501 -62.4425
   -35.8752 -35.8313 -35.8220 -35.7955 -35.7955 -35.7898 -35.7898 -35.7435
   -35.7435 -35.7361 -35.7361 -35.7342 -35.7342 -35.7268 -35.7268 -31.2821
   -31.2821 -31.2742 -31.2702 -31.2702 -31.2675 -31.2675 -31.2623 -31.2613
     7.1911   7.1968   7.3719   7.4185   7.6909   7.6916   7.9168   7.9304
     8.0729   8.0742   8.2079   8.2113   8.3677   8.4108   8.5841   8.5868
     8.7819   8.7866   8.8419   8.8560   8.9686   8.9763   8.9838   9.0003
     9.1417   9.1431   9.1491   9.1752   9.1908   9.2192   9.2305   9.3818
     9.4345   9.4436   9.4571   9.4869   9.4873   9.4891   9.4930   9.7227
     9.7408   9.7520   9.8382   9.9587   9.9775   9.9915  10.1292  10.1672
    10.2978  10.3172  10.3413  10.3838  10.3870  10.3882  10.4831  10.5113
    10.5547  10.5886  10.6930  10.7155  10.8310  10.8450  10.8482  10.8931
    10.9277  10.9438  10.9520  11.1111  11.1267  11.1532  11.1633  11.2203
    11.2348  11.2374  11.2376  11.2476  11.3087  11.3170  11.3276  11.3540
    11.3940  11.4468  11.4574  11.4788  11.5169  11.5206  11.6157  11.6389
    11.6457  11.6580  11.6768  11.6808  11.7168  11.7749  11.8001  11.8191
    11.8262  11.8564  11.8672  11.8790  11.9094  12.1108  12.1429  12.2385
    12.2408  12.2896  12.3041  12.3492  12.3928  12.4907  12.5117  12.6721
    12.6788  12.6919  12.7137  13.1119  13.3012  14.3078  14.4303  14.4761
    14.5116  14.8027  14.9675  15.3961  15.4069  15.5989  15.7826  16.0099
    16.0209  16.5741  16.5890  16.5909  16.7336  16.8089  16.8176  16.8941
    17.1381  17.1807  17.1851  17.1855  17.1860  17.6335  17.8053  17.8533
    19.1017  19.1638

          k = 0.0000-0.5000 0.0000 ( 14098 PWs)   bands (ev):

   -67.1084 -67.0223 -67.0223 -67.0157 -67.0157 -62.4491 -62.4491 -62.4415
   -35.8750 -35.8341 -35.8219 -35.7952 -35.7952 -35.7895 -35.7895 -35.7463
   -35.7463 -35.7389 -35.7389 -35.7340 -35.7340 -35.7266 -35.7266 -31.2859
   -31.2859 -31.2781 -31.2699 -31.2699 -31.2671 -31.2671 -31.2621 -31.2610
     7.9508   7.9514   7.9760   7.9780   8.0339   8.0344   8.1280   8.1343
     8.1979   8.2014   8.2471   8.3220   8.3293   8.3780   8.4643   8.5251
     8.5349   8.5600   8.9745   8.9787   8.9791   8.9872   8.9999   9.0420
     9.0581   9.0717   9.0779   9.1027   9.2529   9.2712   9.2845   9.3086
     9.3401   9.3551   9.5370   9.5387   9.5779   9.5785   9.5986   9.6299
     9.7426   9.7889   9.8130   9.8357   9.8394   9.8444   9.9058  10.0662
    10.0858  10.1422  10.3258  10.3469  10.3565  10.3712  10.3992  10.4779
    10.5344  10.6187  10.8434  10.9581  11.0114  11.0306  11.0484  11.1334
    11.1429  11.1688  11.2617  11.2681  11.2759  11.2773  11.3073  11.3094
    11.3105  11.3457  11.3587  11.4082  11.4120  11.4335  11.4828  11.4913
    11.5271  11.5331  11.5429  11.5630  11.6512  11.7697  11.7751  11.9372
    11.9540  12.0230  12.0462  12.0558  12.1293  12.1399  12.1451  12.2620
    12.2932  12.3461  12.3685  12.3797  12.3863  12.4049  12.4217  12.4277
    12.4637  12.5403  12.5510  12.5534  12.5970  12.7040  12.7188  12.7196
    12.7353  12.7425  12.7529  12.9159  12.9855  13.0408  13.1139  13.4670
    13.5436  13.5737  13.6067  14.0887  14.1526  14.1809  14.1997  14.5164
    14.5494  16.2569  16.3731  16.4964  16.5380  16.5532  16.5550  16.6348
    16.6366  16.6397  17.3097  17.3097  17.3105  17.6717  17.7106  17.7311
    19.2259  19.2419

          k = 0.0000-0.5000 0.0159 ( 14106 PWs)   bands (ev):

   -67.1084 -67.0223 -67.0223 -67.0157 -67.0157 -62.4491 -62.4491 -62.4415
   -35.8750 -35.8341 -35.8219 -35.7952 -35.7952 -35.7895 -35.7895 -35.7463
   -35.7463 -35.7389 -35.7389 -35.7340 -35.7340 -35.7266 -35.7266 -31.2859
   -31.2859 -31.2781 -31.2699 -31.2699 -31.2671 -31.2671 -31.2621 -31.2610
     7.9501   7.9526   7.9752   7.9779   8.0313   8.0379   8.1293   8.1327
     8.1945   8.2022   8.2515   8.3213   8.3270   8.3790   8.4643   8.5229
     8.5372   8.5602   8.9733   8.9745   8.9792   8.9871   8.9999   9.0328
     9.0581   9.0779   9.0828   9.1174   9.2528   9.2615   9.2842   9.3089
     9.3401   9.3438   9.5396   9.5433   9.5783   9.5820   9.5989   9.6297
     9.7426   9.7894   9.8164   9.8358   9.8391   9.8443   9.9110  10.0508
    10.0761  10.1538  10.3262  10.3469  10.3568  10.3709  10.3991  10.4779
    10.5334  10.6252  10.8434  10.9581  11.0114  11.0358  11.0510  11.1334
    11.1445  11.1595  11.2597  11.2675  11.2784  11.2796  11.2915  11.3088
    11.3136  11.3433  11.3535  11.4002  11.4059  11.4565  11.4886  11.4913
    11.5287  11.5331  11.5394  11.5616  11.6618  11.7698  11.7801  11.9364
    11.9372  12.0227  12.0426  12.0654  12.1294  12.1403  12.1450  12.2645
    12.2940  12.3427  12.3607  12.3790  12.3863  12.4088  12.4285  12.4321
    12.4636  12.5403  12.5462  12.5532  12.5829  12.7196  12.7209  12.7282
    12.7354  12.7424  12.7529  12.8996  12.9642  13.0550  13.1356  13.4457
    13.4878  13.6341  13.6355  14.0324  14.0821  14.2390  14.2705  14.5027
    14.5371  16.2582  16.3735  16.4953  16.5380  16.5532  16.5550  16.6346
    16.6367  16.6399  17.3097  17.3097  17.3105  17.6718  17.7106  17.7310
    19.2412  19.2522

          k = 0.0000-0.5000 0.0319 ( 14114 PWs)   bands (ev):

   -67.1084 -67.0223 -67.0223 -67.0157 -67.0157 -62.4491 -62.4491 -62.4415
   -35.8750 -35.8341 -35.8219 -35.7952 -35.7952 -35.7895 -35.7895 -35.7463
   -35.7463 -35.7389 -35.7389 -35.7340 -35.7340 -35.7266 -35.7266 -31.2859
   -31.2859 -31.2781 -31.2699 -31.2699 -31.2671 -31.2671 -31.2621 -31.2610
     7.9488   7.9562   7.9688   7.9819   8.0261   8.0450   8.1199   8.1448
     8.1795   8.2099   8.2585   8.3197   8.3226   8.3810   8.4642   8.5198
     8.5405   8.5607   8.9646   8.9745   8.9795   8.9868   8.9999   9.0200
     9.0582   9.0779   9.1056   9.1430   9.2399   9.2528   9.2836   9.3095
     9.3205   9.3401   9.5430   9.5518   9.5777   9.5905   9.5998   9.6294
     9.7426   9.7904   9.8241   9.8360   9.8383   9.8442   9.9234  10.0256
    10.0549  10.1703  10.3268  10.3469  10.3574  10.3703  10.3991  10.4779
    10.5313  10.6381  10.8434  10.9580  11.0114  11.0507  11.0562  11.1335
    11.1337  11.1481  11.2551  11.2676  11.2753  11.2830  11.2854  11.3080
    11.3091  11.3369  11.3444  11.3910  11.4025  11.4878  11.4911  11.4962
    11.5300  11.5329  11.5331  11.5583  11.6864  11.7701  11.7903  11.9030
    11.9372  12.0219  12.0352  12.0798  12.1295  12.1412  12.1449  12.2700
    12.2960  12.3363  12.3482  12.3775  12.3864  12.4163  12.4299  12.4513
    12.4636  12.5370  12.5403  12.5530  12.5579  12.7196  12.7356  12.7422
    12.7498  12.7526  12.7529  12.8685  12.9267  13.0792  13.1732  13.4129
    13.4329  13.6886  13.7013  13.9581  14.0044  14.3224  14.3527  14.4636
    14.5026  16.2609  16.3742  16.4932  16.5380  16.5532  16.5550  16.6342
    16.6369  16.6401  17.3097  17.3097  17.3105  17.6719  17.7106  17.7309
    19.2774  19.2866

          k = 0.0000-0.5000-0.0478 ( 14104 PWs)   bands (ev):

   -67.1084 -67.0223 -67.0223 -67.0157 -67.0157 -62.4491 -62.4491 -62.4415
   -35.8750 -35.8341 -35.8219 -35.7952 -35.7952 -35.7895 -35.7895 -35.7463
   -35.7463 -35.7389 -35.7389 -35.7340 -35.7340 -35.7266 -35.7266 -31.2859
   -31.2859 -31.2781 -31.2699 -31.2699 -31.2671 -31.2671 -31.2621 -31.2610
     7.9482   7.9612   7.9625   7.9840   8.0233   8.0487   8.1151   8.1576
     8.1656   8.2135   8.2617   8.3188   8.3204   8.3819   8.4642   8.5186
     8.5418   8.5609   8.9608   8.9745   8.9796   8.9867   8.9999   9.0150
     9.0583   9.0780   9.1186   9.1559   9.2271   9.2528   9.2833   9.3078
     9.3098   9.3401   9.5442   9.5560   9.5772   9.5948   9.6004   9.6293
     9.7426   9.7909   9.8286   9.8361   9.8379   9.8441   9.9314  10.0141
    10.0428  10.1770  10.3271  10.3469  10.3577  10.3700  10.3991  10.4779
    10.5303  10.6446  10.8434  10.9580  11.0114  11.0588  11.0645  11.1133
    11.1335  11.1502  11.2524  11.2680  11.2711  11.2853  11.2889  11.3037
    11.3142  11.3219  11.3456  11.3886  11.4016  11.4911  11.4989  11.5058
    11.5199  11.5331  11.5357  11.5562  11.7013  11.7702  11.7955  11.8852
    11.9372  12.0215  12.0314  12.0857  12.1296  12.1416  12.1449  12.2731
    12.2972  12.3331  12.3425  12.3768  12.3864  12.4199  12.4306  12.4619
    12.4636  12.5324  12.5403  12.5450  12.5528  12.7196  12.7357  12.7421
    12.7529  12.7638  12.7699  12.8508  12.9071  13.0903  13.1919  13.3988
    13.4094  13.7184  13.7344  13.9216  13.9676  14.3868  14.4027  14.4147
    14.4688  16.2623  16.3746  16.4922  16.5380  16.5532  16.5550  16.6341
    16.6370  16.6402  17.3097  17.3097  17.3105  17.6719  17.7106  17.7309
    19.2941  19.3633

          k = 0.1667 0.1667 0.0000 ( 14064 PWs)   bands (ev):

   -67.1069 -67.0209 -67.0209 -67.0142 -67.0142 -62.4511 -62.4511 -62.4435
   -35.8756 -35.8254 -35.8253 -35.7958 -35.7958 -35.7901 -35.7901 -35.7375
   -35.7375 -35.7374 -35.7374 -35.7302 -35.7302 -35.7301 -35.7301 -31.2744
   -31.2744 -31.2741 -31.2741 -31.2679 -31.2679 -31.2666 -31.2663 -31.2618
     6.4197   6.5418   6.5642   6.9268   6.9678   7.4872   7.5100   7.9314
     8.2305   8.4867   8.5166   8.5432   8.6100   8.6547   8.7046   8.7107
     8.7396   8.7886   8.8078   8.8935   8.9054   8.9240   8.9699   9.0989
     9.1468   9.2578   9.2817   9.3322   9.3440   9.4196   9.4242   9.4276
     9.4795   9.4936   9.5139   9.5648   9.5699   9.6436   9.6589   9.6757
     9.6930   9.7034   9.7650   9.8972   9.8995   9.9186   9.9428   9.9603
     9.9972   9.9994  10.0446  10.0934  10.0949  10.1623  10.1820  10.1821
    10.2352  10.2399  10.2897  10.3955  10.4503  10.5212  10.5671  10.5961
    10.6457  10.6502  10.6890  10.7285  10.8175  10.9087  10.9357  11.0268
    11.0764  11.0856  11.1132  11.1190  11.1503  11.2221  11.2817  11.2969
    11.2971  11.3056  11.3232  11.3715  11.3902  11.3998  11.4570  11.5297
    11.5431  11.6563  11.7140  11.7315  11.7633  11.7815  11.7823  11.8334
[...]
    11.1182  11.2966  11.3659  11.3747  11.3759  11.4035  11.6086  11.7016
    11.7052  11.7104  11.7159  11.7258  11.7387  11.7895  11.8104  11.8746
    11.9495  12.0194  12.0622  12.0790  12.1343  12.2207  12.2608  12.2698
    12.2827  12.3890  12.4749  12.6878  12.8205  13.0645  13.2065  13.6029
    13.7646  14.1090  14.3085  14.5391  15.4788  15.4854  15.4992  15.5142
    15.5240  15.6867  15.8462  15.9325  16.2226  16.3148  16.4383  16.5806
    16.6088  16.8747  16.8860  16.9307  17.0054  17.0063  17.1525  17.1527
    17.1913  17.3222  17.4815  17.5627  17.6260  17.6712  17.6927  17.7481
    17.8103  18.0162  18.0625  18.1432  18.2440  18.3721  18.4744  18.4938
    18.6362  18.7505

          k = 0.3333 0.3333-0.0478 ( 14082 PWs)   bands (ev):

   -67.0704 -67.0704 -67.0512 -62.4715 -62.4094 -62.4094 -62.4026 -62.4026
   -35.8418 -35.8418 -35.8256 -35.7934 -35.7934 -35.7933 -35.7933 -35.7735
   -35.7734 -31.3038 -31.3035 -31.2847 -31.2381 -31.2381 -31.2378 -31.2378
   -31.2324 -31.2324 -31.2309 -31.2309 -31.2306 -31.2306 -31.2263 -31.2263
     7.8715   7.9172   8.0398   8.3279   8.4670   8.4729   8.5421   8.6328
     8.8093   8.8205   8.8323   8.8494   8.8593   8.9035   8.9197   9.0971
     9.1618   9.1858   9.1863   9.1944   9.2323   9.2367   9.2546   9.2698
     9.3155   9.3312   9.3943   9.4109   9.4173   9.4364   9.5813   9.5957
     9.6021   9.6041   9.7500   9.7548   9.7669   9.8235   9.8345   9.8393
     9.8533   9.8938   9.9182   9.9931  10.0112  10.0597  10.0637  10.1849
    10.2047  10.2428  10.2449  10.3517  10.3911  10.4073  10.4664  10.4750
    10.4889  10.5479  10.5558  10.6766  10.7568  10.7851  10.8905  10.9224
    10.9406  11.0037  11.0212  11.0480  11.0734  11.1028  11.1059  11.1180
    11.1180  11.3427  11.3539  11.3659  11.3746  11.3760  11.6333  11.6901
    11.7016  11.7052  11.7157  11.7310  11.7319  11.7939  11.8153  11.8683
    11.9549  12.0173  12.0704  12.0722  12.1294  12.2268  12.2653  12.2668
    12.2743  12.4258  12.4331  12.7261  12.7809  13.1013  13.1731  13.6551
    13.7042  14.1601  14.2626  14.5497  15.4793  15.4847  15.4994  15.5144
    15.5238  15.6787  15.8770  15.9087  16.2256  16.3084  16.4421  16.5830
    16.6069  16.8762  16.8842  16.9307  17.0054  17.0064  17.1509  17.1536
    17.1923  17.3221  17.4858  17.5627  17.6258  17.6720  17.6907  17.7458
    17.8101  17.9922  18.0479  18.1768  18.2034  18.4889  18.4957  18.4986
    18.6534  18.6582

          k = 0.3333-0.5000 0.0000 ( 14154 PWs)   bands (ev):

   -67.0705 -67.0705 -67.0513 -62.4711 -62.4090 -62.4090 -62.4022 -62.4022
   -35.8416 -35.8416 -35.8255 -35.7961 -35.7961 -35.7931 -35.7931 -35.7762
   -35.7732 -31.3074 -31.3033 -31.2845 -31.2417 -31.2417 -31.2376 -31.2376
   -31.2345 -31.2345 -31.2322 -31.2322 -31.2304 -31.2304 -31.2261 -31.2261
     8.1531   8.1682   8.2050   8.2329   8.2376   8.3261   8.5805   8.5896
     8.7825   8.8624   8.9028   8.9177   8.9292   8.9294   8.9513   8.9729
     9.0098   9.0179   9.0387   9.0738   9.1144   9.1531   9.1762   9.2253
     9.2550   9.3096   9.3827   9.4410   9.4548   9.4657   9.6150   9.6594
     9.6725   9.7095   9.7577   9.7984   9.8083   9.8351   9.9427   9.9547
     9.9933  10.0012  10.0117  10.1579  10.1943  10.2239  10.2567  10.3462
    10.3910  10.4406  10.4743  10.5437  10.6061  10.6532  10.6540  10.6888
    10.7370  10.8447  10.8500  10.8967  10.9026  10.9435  11.0042  11.0188
    11.0549  11.0812  11.1758  11.1925  11.2153  11.2416  11.2646  11.2936
    11.2968  11.4845  11.5017  11.5137  11.6612  11.6889  11.7037  11.7050
    11.7093  11.8199  11.8389  11.8618  11.8948  11.8963  11.9086  11.9733
    11.9820  12.0287  12.1061  12.1085  12.1294  12.1759  12.2147  12.6714
    12.6940  12.8403  12.9325  12.9935  13.2112  13.3323  13.4598  13.7909
    13.8338  13.9959  14.1845  14.2372  14.4057  14.4076  14.8149  14.8808
    14.9323  15.2051  15.4152  15.5845  16.3785  16.4025  16.4149  16.8182
    16.8259  16.8612  16.8710  16.8725  16.8767  16.8841  17.0045  17.1014
    17.2470  17.5360  17.5569  17.5979  17.6256  17.7329  17.7748  17.8118
    17.9323  17.9565  18.1603  18.2029  18.2104  18.2440  18.8598  18.9384
    19.0250  19.0266

          k = 0.3333-0.5000 0.0159 ( 14140 PWs)   bands (ev):

   -67.0705 -67.0705 -67.0513 -62.4711 -62.4090 -62.4090 -62.4022 -62.4022
   -35.8416 -35.8416 -35.8255 -35.7961 -35.7961 -35.7931 -35.7931 -35.7762
   -35.7732 -31.3074 -31.3033 -31.2845 -31.2417 -31.2417 -31.2376 -31.2376
   -31.2345 -31.2345 -31.2322 -31.2322 -31.2304 -31.2304 -31.2261 -31.2261
     8.1541   8.1691   8.2028   8.2239   8.2460   8.3285   8.5794   8.5856
     8.7889   8.8654   8.9028   8.9171   8.9294   8.9303   8.9509   8.9719
     9.0078   9.0104   9.0384   9.0700   9.1233   9.1476   9.1830   9.2220
     9.2583   9.3124   9.3743   9.4339   9.4525   9.4903   9.5915   9.6470
     9.6825   9.7346   9.7580   9.7937   9.8095   9.8323   9.9426   9.9507
     9.9840   9.9929  10.0277  10.1510  10.1895  10.2385  10.2671  10.3431
    10.3827  10.4416  10.4652  10.5445  10.6135  10.6531  10.6560  10.6887
    10.7356  10.8454  10.8504  10.8966  10.9037  10.9461  10.9813  11.0345
    11.0445  11.1032  11.1618  11.2013  11.2081  11.2413  11.2661  11.2944
    11.2971  11.4845  11.5017  11.5137  11.6615  11.6893  11.7035  11.7036
    11.7103  11.8192  11.8386  11.8624  11.8950  11.8963  11.9088  11.9731
    11.9808  12.0287  12.1095  12.1101  12.1330  12.1718  12.2104  12.6754
    12.6961  12.8331  12.9293  12.9986  13.2149  13.3303  13.4567  13.7954
    13.8364  13.9873  14.1806  14.2493  14.3970  14.4112  14.8115  14.8833
    14.9346  15.2037  15.4151  15.5847  16.3784  16.4024  16.4152  16.8222
    16.8248  16.8608  16.8675  16.8734  16.8777  16.8840  17.0010  17.1032
    17.2514  17.5115  17.5730  17.5860  17.6541  17.7285  17.7700  17.8116
    17.9342  17.9620  18.1145  18.1296  18.3026  18.3029  18.7767  18.8370
    19.0344  19.0964

          k = 0.3333-0.5000 0.0319 ( 14128 PWs)   bands (ev):

   -67.0705 -67.0705 -67.0513 -62.4711 -62.4090 -62.4090 -62.4022 -62.4022
   -35.8416 -35.8416 -35.8255 -35.7961 -35.7961 -35.7931 -35.7931 -35.7762
   -35.7732 -31.3074 -31.3033 -31.2845 -31.2417 -31.2417 -31.2376 -31.2376
   -31.2345 -31.2345 -31.2322 -31.2322 -31.2304 -31.2304 -31.2261 -31.2261
     8.1563   8.1712   8.1982   8.2150   8.2534   8.3332   8.5773   8.5780
     8.8021   8.8715   8.9029   8.9156   8.9293   8.9339   8.9489   8.9694
     8.9898   9.0120   9.0381   9.0619   9.1394   9.1422   9.1905   9.2147
     9.2665   9.3184   9.3601   9.4150   9.4765   9.5204   9.5569   9.6122
     9.7149   9.7581   9.7690   9.7820   9.8107   9.8229   9.9429   9.9434
     9.9665   9.9909  10.0424  10.1426  10.1817  10.2662  10.2899  10.3342
    10.3627  10.4432  10.4482  10.5458  10.6272  10.6531  10.6599  10.6884
    10.7325  10.8467  10.8511  10.8966  10.9068  10.9532  10.9589  11.0097
    11.0762  11.1336  11.1380  11.1901  11.2101  11.2406  11.2683  11.2959
    11.2975  11.4845  11.5017  11.5136  11.6622  11.6901  11.7016  11.7029
    11.7116  11.8179  11.8379  11.8636  11.8953  11.8962  11.9092  11.9727
    11.9784  12.0286  12.1109  12.1202  12.1427  12.1615  12.2001  12.6843
    12.7003  12.8186  12.9228  13.0081  13.2223  13.3262  13.4503  13.8052
    13.8415  13.9703  14.1731  14.2775  14.3749  14.4183  14.8049  14.8884
    14.9390  15.2009  15.4149  15.5852  16.3780  16.4020  16.4157  16.8226
    16.8327  16.8589  16.8602  16.8750  16.8787  16.8838  16.9942  17.1067
    17.2602  17.4890  17.5477  17.6208  17.6910  17.7167  17.7563  17.8112
    17.9392  17.9790  18.0563  18.0770  18.3994  18.4122  18.6526  18.6967
    19.0357  19.0981

          k = 0.3333-0.5000-0.0478 ( 14140 PWs)   bands (ev):

   -67.0705 -67.0705 -67.0513 -62.4711 -62.4090 -62.4090 -62.4022 -62.4022
   -35.8416 -35.8416 -35.8255 -35.7961 -35.7961 -35.7931 -35.7931 -35.7762
   -35.7732 -31.3074 -31.3034 -31.2845 -31.2417 -31.2417 -31.2376 -31.2376
   -31.2345 -31.2345 -31.2322 -31.2322 -31.2304 -31.2304 -31.2261 -31.2261
     8.1576   8.1725   8.1958   8.2114   8.2562   8.3355   8.5743   8.5762
     8.8090   8.8748   8.9029   8.9146   8.9294   8.9382   8.9453   8.9679
     8.9814   9.0131   9.0379   9.0574   9.1407   9.1475   9.1929   9.2102
     9.2715   9.3218   9.3532   9.4076   9.4945   9.5354   9.5389   9.5919
     9.7327   9.7586   9.7721   9.7899   9.8111   9.8112   9.9400   9.9435
     9.9591   9.9894  10.0479  10.1398  10.1783  10.2826  10.3065  10.3261
    10.3471  10.4401  10.4438  10.5463  10.6337  10.6531  10.6617  10.6883
    10.7307  10.8475  10.8515  10.8966  10.9092  10.9495  10.9587  10.9977
    11.1006  11.1164  11.1564  11.1712  11.2133  11.2402  11.2691  11.2966
    11.2978  11.4845  11.5017  11.5136  11.6626  11.6905  11.7007  11.7026
    11.7120  11.8173  11.8376  11.8642  11.8954  11.8962  11.9093  11.9725
    11.9773  12.0285  12.1114  12.1279  12.1494  12.1537  12.1933  12.6893
    12.7024  12.8112  12.9196  13.0125  13.2260  13.3241  13.4470  13.8106
    13.8441  13.9617  14.1694  14.2971  14.3579  14.4217  14.8017  14.8909
    14.9410  15.1995  15.4148  15.5855  16.3779  16.4019  16.4160  16.8215
    16.8453  16.8476  16.8599  16.8757  16.8790  16.8837  16.9909  17.1084
    17.2647  17.4808  17.5380  17.6382  17.7078  17.7139  17.7418  17.8110
    17.9424  18.0041  18.0165  18.0574  18.4787  18.4997  18.5634  18.5979
    19.0359  19.0982

          k =-0.5000-0.5000 0.0000 ( 14124 PWs)   bands (ev):

   -67.0705 -67.0705 -67.0513 -62.4708 -62.4087 -62.4087 -62.4020 -62.4020
   -35.8415 -35.8415 -35.8253 -35.7958 -35.7958 -35.7958 -35.7958 -35.7759
   -35.7759 -31.3071 -31.3071 -31.2843 -31.2413 -31.2413 -31.2413 -31.2413
   -31.2341 -31.2341 -31.2341 -31.2341 -31.2320 -31.2320 -31.2259 -31.2259
     8.0228   8.0281   8.0672   8.1032   8.1034   8.1921   8.5398   8.5668
     8.6606   8.7354   8.9691   8.9927   8.9980   9.0032   9.0669   9.0669
     9.1006   9.1006   9.1286   9.1286   9.2015   9.2174   9.2594   9.2594
     9.2645   9.2645   9.5051   9.5051   9.5091   9.5091   9.6632   9.6820
     9.6820   9.6847   9.6847   9.6885   9.6885   9.7313   9.7903   9.8365
     9.8365   9.9088   9.9088  10.3074  10.3074  10.3539  10.3609  10.3609
    10.3995  10.4492  10.4809  10.4860  10.8502  10.8502  10.9323  10.9323
    11.0105  11.0169  11.0187  11.0305  11.0512  11.0690  11.1599  11.1600
    11.1734  11.5549  11.5549  11.6895  11.6895  11.7229  11.7358  11.7359
    11.7480  11.7720  11.7728  11.7866  11.7867  11.8033  11.8170  11.8170
    11.8306  11.8616  11.8619  11.8729  11.8729  11.9107  11.9107  11.9333
    11.9446  11.9576  11.9946  11.9963  12.0512  12.0818  12.1121  13.1917
    13.2101  13.2206  13.2258  13.2275  13.7007  13.7007  13.8824  13.8824
    13.9722  13.9722  14.3486  14.3486  14.4013  14.4013  15.6195  15.6195
    15.6773  15.6773  15.7319  15.7319  16.3597  16.3875  16.4182  16.5820
    16.5998  16.7253  16.8562  16.9418  17.0997  17.0997  17.1889  17.1889
    17.4559  17.4664  17.5487  17.6952  17.7485  17.7788  17.8497  17.8497
    17.8564  17.8564  17.8800  17.8922  17.8922  18.0154  18.0154  18.0563
    18.1591  18.4627

          k =-0.5000-0.5000 0.0159 ( 14144 PWs)   bands (ev):

   -67.0705 -67.0705 -67.0513 -62.4708 -62.4087 -62.4087 -62.4020 -62.4020
   -35.8415 -35.8415 -35.8253 -35.7958 -35.7958 -35.7958 -35.7958 -35.7759
   -35.7759 -31.3071 -31.3071 -31.2843 -31.2413 -31.2413 -31.2413 -31.2413
   -31.2341 -31.2341 -31.2341 -31.2341 -31.2320 -31.2320 -31.2259 -31.2259
     8.0235   8.0295   8.0646   8.0924   8.1140   8.1942   8.5367   8.5555
     8.6788   8.7451   8.9272   8.9459   9.0385   9.0500   9.0679   9.0679
     9.0956   9.0956   9.1359   9.1359   9.1948   9.2098   9.2324   9.2324
     9.2951   9.2951   9.4585   9.4585   9.5585   9.5585   9.6644   9.6817
     9.6817   9.6847   9.6847   9.6886   9.6886   9.7316   9.7897   9.7968
     9.7968   9.9518   9.9518  10.2495  10.2495  10.3536  10.3996  10.4173
    10.4173  10.4497  10.4809  10.4857  10.8058  10.8058  10.9707  10.9707
    11.0100  11.0174  11.0188  11.0303  11.0512  11.0689  11.1599  11.1599
    11.1734  11.5325  11.5325  11.7138  11.7138  11.7229  11.7358  11.7359
    11.7480  11.7720  11.7728  11.7866  11.7867  11.8033  11.8170  11.8170
    11.8306  11.8616  11.8619  11.8729  11.8729  11.9035  11.9035  11.9334
    11.9444  11.9578  11.9944  11.9962  12.0513  12.0818  12.1121  13.1917
    13.2101  13.2206  13.2258  13.2275  13.7084  13.7084  13.8583  13.8583
    13.9914  13.9914  14.3414  14.3414  14.4058  14.4058  15.6198  15.6198
    15.6763  15.6763  15.7326  15.7326  16.3597  16.3875  16.4183  16.5817
    16.5998  16.7263  16.8561  16.9405  17.0708  17.0708  17.2357  17.2357
    17.4609  17.4741  17.5405  17.6774  17.7528  17.7788  17.7889  17.7889
    17.8497  17.8497  17.8564  17.8564  17.8950  18.0551  18.1316  18.1316
    18.1547  18.4629

          k =-0.5000-0.5000 0.0319 ( 14180 PWs)   bands (ev):

   -67.0705 -67.0705 -67.0513 -62.4708 -62.4087 -62.4087 -62.4020 -62.4020
   -35.8415 -35.8415 -35.8253 -35.7958 -35.7958 -35.7958 -35.7958 -35.7759
   -35.7759 -31.3071 -31.3071 -31.2843 -31.2413 -31.2413 -31.2413 -31.2413
   -31.2341 -31.2341 -31.2341 -31.2341 -31.2320 -31.2320 -31.2259 -31.2259
     8.0250   8.0331   8.0588   8.0839   8.1218   8.1983   8.5310   8.5387
     8.7140   8.7683   8.8788   8.9000   9.0708   9.0708   9.0845   9.0876
     9.0876   9.0972   9.1502   9.1502   9.1765   9.1892   9.2076   9.2076
     9.3312   9.3312   9.4130   9.4130   9.6119   9.6119   9.6668   9.6795
     9.6795   9.6848   9.6848   9.6896   9.6896   9.7321   9.7388   9.7388
     9.7884  10.0206  10.0206  10.1722  10.1722  10.3532  10.3996  10.4507
    10.4808  10.4851  10.4854  10.4854  10.7415  10.7415  11.0092  11.0172
    11.0172  11.0184  11.0191  11.0299  11.0514  11.0688  11.1599  11.1599
    11.1734  11.4970  11.4970  11.7229  11.7358  11.7359  11.7480  11.7560
    11.7560  11.7720  11.7728  11.7866  11.7867  11.8033  11.8170  11.8170
    11.8306  11.8616  11.8619  11.8729  11.8729  11.8853  11.8853  11.9336
    11.9441  11.9583  11.9940  11.9961  12.0517  12.0819  12.1120  13.1917
    13.2101  13.2206  13.2258  13.2275  13.7297  13.7297  13.8157  13.8157
    14.0186  14.0186  14.3288  14.3288  14.4127  14.4127  15.6204  15.6204
    15.6744  15.6744  15.7341  15.7341  16.3597  16.3875  16.4184  16.5810
    16.5998  16.7282  16.8560  16.9377  17.0386  17.0386  17.3155  17.3155
    17.4751  17.4926  17.5204  17.6429  17.6640  17.6640  17.7610  17.7788
    17.8497  17.8497  17.8564  17.8564  17.9215  18.0528  18.1451  18.3006
    18.3006  18.4633

          k =-0.5000-0.5000-0.0478 ( 14176 PWs)   bands (ev):

   -67.0705 -67.0705 -67.0513 -62.4708 -62.4087 -62.4087 -62.4020 -62.4020
   -35.8415 -35.8415 -35.8253 -35.7958 -35.7958 -35.7958 -35.7958 -35.7759
   -35.7759 -31.3071 -31.3071 -31.2843 -31.2413 -31.2413 -31.2413 -31.2413
   -31.2341 -31.2341 -31.2341 -31.2341 -31.2320 -31.2320 -31.2259 -31.2259
     8.0258   8.0356   8.0553   8.0806   8.1246   8.2003   8.5283   8.5318
     8.7346   8.7842   8.8545   8.8771   9.0733   9.0733   9.0831   9.0831
     9.1098   9.1247   9.1598   9.1598   9.1605   9.1704   9.1947   9.1947
     9.3698   9.3698   9.3713   9.3713   9.6610   9.6610   9.6625   9.6625
     9.6679   9.6849   9.6849   9.6964   9.6964   9.6976   9.6976   9.7324
     9.7878  10.0881  10.0881  10.1021  10.1021  10.3529  10.3996  10.4513
    10.4808  10.4847  10.5195  10.5195  10.7081  10.7081  11.0088  11.0188
    11.0192  11.0297  11.0359  11.0359  11.0514  11.0687  11.1599  11.1599
    11.1734  11.4814  11.4814  11.7229  11.7358  11.7359  11.7480  11.7720
    11.7728  11.7786  11.7786  11.7866  11.7867  11.8033  11.8170  11.8170
    11.8306  11.8616  11.8619  11.8722  11.8722  11.8729  11.8729  11.9337
    11.9439  11.9585  11.9937  11.9960  12.0519  12.0819  12.1119  13.1917
    13.2101  13.2206  13.2258  13.2275  13.7514  13.7514  13.7859  13.7859
    14.0298  14.0298  14.3230  14.3230  14.4156  14.4156  15.6208  15.6208
    15.6734  15.6734  15.7348  15.7348  16.3596  16.3875  16.4184  16.5806
    16.5998  16.7291  16.8559  16.9364  17.0270  17.0270  17.3638  17.3638
    17.4939  17.4989  17.5047  17.6007  17.6007  17.6242  17.7649  17.8497
    17.8551  17.9339  18.0516  18.1398  18.4635  18.4682  18.4682  18.4876
    18.4876  18.5790

     the Fermi energy is    15.0641 ev

!    total energy              =  -14694.01241668 Ry
     Harris-Foulkes estimate   =  -14694.01240928 Ry
     estimated scf accuracy    <       0.00000069 Ry

     total all-electron energy =   -626921.608139 Ry

     The total energy is the sum of the following terms:

     one-electron contribution =    -729.58655212 Ry
     hartree contribution      =     661.30324956 Ry
     xc contribution           =    -737.68867000 Ry
     ewald contribution        =   -2186.64874840 Ry
     Hubbard energy            =       0.43529686 Ry
     one-center paw contrib.   =  -11701.82699259 Ry

     total magnetization       =     8.77 Bohr mag/cell
     absolute magnetization    =    37.46 Bohr mag/cell

     convergence has been achieved in  24 iterations

     Writing output data file mnau2.save/
 
     init_run     :     20.37s CPU     21.07s WALL (       1 calls)
     electrons    :   1148.01s CPU   1180.49s WALL (       1 calls)

     Called by init_run:
     wfcinit      :     19.08s CPU     19.49s WALL (       1 calls)
     potinit      :      0.56s CPU      0.61s WALL (       1 calls)
     hinit0       :      0.42s CPU      0.62s WALL (       1 calls)

     Called by electrons:
     c_bands      :    998.66s CPU   1027.06s WALL (      24 calls)
     sum_band     :    136.42s CPU    140.06s WALL (      24 calls)
     v_of_rho     :      1.13s CPU      1.15s WALL (      25 calls)
     newd         :      3.31s CPU      3.34s WALL (      25 calls)
     PAW_pot      :      8.51s CPU      8.61s WALL (      25 calls)
     mix_rho      :      0.30s CPU      0.31s WALL (      24 calls)

     Called by c_bands:
     init_us_2    :      3.76s CPU      3.81s WALL (    4000 calls)
     cegterg      :    966.31s CPU    994.26s WALL (    1920 calls)

     Called by sum_band:
     sum_band:bec :      1.20s CPU      1.21s WALL (    1920 calls)
     addusdens    :      4.71s CPU      4.93s WALL (      24 calls)

     Called by *egterg:
     h_psi        :    487.85s CPU    499.60s WALL (    7233 calls)
     s_psi        :     34.28s CPU     34.32s WALL (    7313 calls)
     g_psi        :      1.26s CPU      1.26s WALL (    5233 calls)
     cdiaghg      :    337.73s CPU    353.33s WALL (    7153 calls)

     Called by h_psi:
     h_psi:pot    :    466.09s CPU    477.57s WALL (    7233 calls)
     h_psi:calbec :     47.59s CPU     49.21s WALL (    7233 calls)
     vloc_psi     :    385.67s CPU    394.87s WALL (    7233 calls)
     add_vuspsi   :     32.77s CPU     33.46s WALL (    7233 calls)
     vhpsi        :     20.91s CPU     21.17s WALL (    7233 calls)

     General routines
     calbec       :     88.92s CPU     91.85s WALL (   18386 calls)
     fft          :      0.99s CPU      1.21s WALL (     621 calls)
     ffts         :      0.08s CPU      0.08s WALL (      98 calls)
     fftw         :    463.82s CPU    475.05s WALL ( 1844216 calls)
     interpolate  :      0.10s CPU      0.11s WALL (      50 calls)
     davcio       :      0.01s CPU      2.04s WALL (      80 calls)
 
     Parallel routines
     fft_scatt_xy :     17.97s CPU     18.30s WALL ( 1844935 calls)
     fft_scatt_yz :    369.92s CPU    379.44s WALL ( 1844935 calls)

     Hubbard U routines
     new_ns       :      4.10s CPU      4.22s WALL (      24 calls)
     vhpsi        :     20.91s CPU     21.17s WALL (    7233 calls)
 
     PWSCF        : 19m39.09s CPU    20m51.32s WALL

 
   This run was terminated on:  15:32:28   1Apr2019            

=------------------------------------------------------------------------------=
   JOB DONE.
=------------------------------------------------------------------------------=
