
     Program PWSCF v.6.3MaX starts on  1Apr2019 at 15:50:32 

     This program is part of the open-source Quantum ESPRESSO suite
     for quantum simulation of materials; please cite
         "P. Giannozzi et al., J. Phys.:Condens. Matter 21 395502 (2009);
         "P. Giannozzi et al., J. Phys.:Condens. Matter 29 465901 (2017);
          URL http://www.quantum-espresso.org", 
     in publications or presentations arising from this work. More details at
     http://www.quantum-espresso.org/quote

     Parallel version (MPI), running on    32 processors

     MPI processes distributed on     3 nodes
     R & G space division:  proc/nbgrp/npool/nimage =      32
     Waiting for input...
     Reading input from standard input

     Current dimensions of program PWSCF are:
     Max number of different atomic species (ntypx) = 10
     Max number of k-points (npk) =  40000
     Max angular momentum in pseudopotentials (lmaxx) =  3
     Message from routine read_upf::
     Pseudo file ./pseudo/Mn.pbe-spn-kjpaw_psl.0.3.1.UPF has been successfully fixed on the fly.
To avoid this message in the future you can permanently fix 
 your pseudo files following instructions given in: 
https://gitlab.com/QEF/q-e/blob/master/upftools/how_to_fix_upf.md
               file Mn.pbe-spn-kjpaw_psl.0.3.1.UPF: wavefunction(s)  3P 3D renormalized
     Message from routine read_upf::
     Pseudo file ./pseudo/Mn.pbe-spn-kjpaw_psl.0.3.1.UPF has been successfully fixed on the fly.
To avoid this message in the future you can permanently fix 
 your pseudo files following instructions given in: 
https://gitlab.com/QEF/q-e/blob/master/upftools/how_to_fix_upf.md
               file Mn.pbe-spn-kjpaw_psl.0.3.1.UPF: wavefunction(s)  3P 3D renormalized
     Message from routine read_upf::
     Pseudo file ./pseudo/Au.pbe-dn-kjpaw_psl.0.1.UPF has been successfully fixed on the fly.
To avoid this message in the future you can permanently fix 
 your pseudo files following instructions given in: 
https://gitlab.com/QEF/q-e/blob/master/upftools/how_to_fix_upf.md
               file Au.pbe-dn-kjpaw_psl.0.1.UPF: wavefunction(s)  6S 6P 5D renormalized

     Subspace diagonalization in iterative solution of the eigenvalue problem:
     one sub-group per band group will be used
     scalapack distributed-memory algorithm (size of sub-group:  4*  4 procs)

     Found symmetry operation: I + (  0.0000  0.0000  0.2500)
     This is a supercell, fractional translations are disabled
 
     Parallelization info
     --------------------
     sticks:   dense  smooth     PW     G-vecs:    dense   smooth      PW
     Min          41      18      5                11647     3506     571
     Max          42      19      6                11691     3549     614
     Sum        1313     593    177               373547   112863   18983
 


     bravais-lattice index     =            0
     lattice parameter (alat)  =       6.4153  a.u.
     unit-cell volume          =    2762.7331 (a.u.)^3
     number of atoms/cell      =           24
     number of atomic types    =            3
     number of electrons       =       296.00
     number of Kohn-Sham states=          178
     kinetic-energy cutoff     =      45.0000  Ry
     charge density cutoff     =     400.0000  Ry
     convergence threshold     =      1.0E-06
     mixing beta               =       0.1000
     number of iterations used =            8  plain     mixing
     Exchange-correlation      = SLA PW PBX PBC ( 1  4  3  4 0 0)

     celldm(1)=   6.415315  celldm(2)=   0.000000  celldm(3)=   0.000000
     celldm(4)=   0.000000  celldm(5)=   0.000000  celldm(6)=   0.000000

     crystal axes: (cart. coord. in units of alat)
               a(1) = (   1.000000   0.000000   0.000000 )  
               a(2) = (   0.000000   1.000000   0.000000 )  
               a(3) = (   0.000000   0.000000  10.463692 )  

     reciprocal axes: (cart. coord. in units 2 pi/alat)
               b(1) = (  1.000000  0.000000  0.000000 )  
               b(2) = (  0.000000  1.000000  0.000000 )  
               b(3) = (  0.000000  0.000000  0.095569 )  


     PseudoPot. # 1 for Mn read from file:
     ./pseudo/Mn.pbe-spn-kjpaw_psl.0.3.1.UPF
     MD5 check sum: 7eef95dd2aae66803482eea66ebeebf1
     Pseudo is Projector augmented-wave + core cor, Zval = 15.0
     Generated using "atomic" code by A. Dal Corso v.5.0.99 svn rev. 10869
     Shape of augmentation charge: PSQ
     Using radial grid of 1187 points,  6 beta functions with: 
                l(1) =   0
                l(2) =   0
                l(3) =   1
                l(4) =   1
                l(5) =   2
                l(6) =   2
     Q(r) pseudized with 0 coefficients 


     PseudoPot. # 2 for Mn read from file:
     ./pseudo/Mn.pbe-spn-kjpaw_psl.0.3.1.UPF
     MD5 check sum: 7eef95dd2aae66803482eea66ebeebf1
     Pseudo is Projector augmented-wave + core cor, Zval = 15.0
     Generated using "atomic" code by A. Dal Corso v.5.0.99 svn rev. 10869
     Shape of augmentation charge: PSQ
     Using radial grid of 1187 points,  6 beta functions with: 
                l(1) =   0
                l(2) =   0
                l(3) =   1
                l(4) =   1
                l(5) =   2
                l(6) =   2
     Q(r) pseudized with 0 coefficients 


     PseudoPot. # 3 for Au read from file:
     ./pseudo/Au.pbe-dn-kjpaw_psl.0.1.UPF
     MD5 check sum: 5c9b92683623e7ae2ab3f8e525febab6
     Pseudo is Projector augmented-wave + core cor, Zval = 11.0
     Generated using "atomic" code by A. Dal Corso v.5.0.2 svn rev. 9415
     Shape of augmentation charge: PSQ
     Using radial grid of 1279 points,  6 beta functions with: 
                l(1) =   0
                l(2) =   0
                l(3) =   1
                l(4) =   1
                l(5) =   2
                l(6) =   2
     Q(r) pseudized with 0 coefficients 


     atomic species   valence    mass     pseudopotential
        Mn1           15.00    54.93800     Mn( 1.00)
        Mn2           15.00    54.93800     Mn( 1.00)
        Au            11.00   196.96600     Au( 1.00)

     Starting magnetic structure 
     atomic species   magnetization
        Mn1          0.800
        Mn2         -0.800
        Au           0.000


     Full LDA+U calculation (l_max = 2) with parameters (eV):
     U(  1) =   3.1200   J(  1) =   0.7000   B(  1) =   0.0803
     U(  2) =   3.1200   J(  2) =   0.7000   B(  2) =   0.0803



     16 Sym. Ops., with inversion, found



   Cartesian axes

     site n.     atom                  positions (alat units)
         1           Mn1 tau(   1) = (   0.0000000   0.0000000   0.0000000  )
         2           Mn2 tau(   2) = (   0.5000000   0.5000000   1.3079615  )
         3           Mn1 tau(   3) = (   0.0000000   0.0000000   2.6159231  )
         4           Mn2 tau(   4) = (   0.5000000   0.5000000   3.9238846  )
         5           Mn1 tau(   5) = (   0.0000000   0.0000000   5.2318461  )
         6           Mn2 tau(   6) = (   0.5000000   0.5000000   6.5398077  )
         7           Mn1 tau(   7) = (   0.0000000   0.0000000   7.8477692  )
         8           Mn2 tau(   8) = (   0.5000000   0.5000000   9.1557307  )
         9           Au  tau(   9) = (   0.5000000   0.5000000   0.4185477  )
        10           Au  tau(  10) = (   0.0000000   0.0000000   0.8894138  )
        11           Au  tau(  11) = (   0.0000000   0.0000000   1.7265092  )
        12           Au  tau(  12) = (   0.5000000   0.5000000   2.1973754  )
        13           Au  tau(  13) = (   0.5000000   0.5000000   3.0344708  )
        14           Au  tau(  14) = (   0.0000000   0.0000000   3.5053369  )
        15           Au  tau(  15) = (   0.0000000   0.0000000   4.3424323  )
        16           Au  tau(  16) = (   0.5000000   0.5000000   4.8132984  )
        17           Au  tau(  17) = (   0.5000000   0.5000000   5.6503938  )
        18           Au  tau(  18) = (   0.0000000   0.0000000   6.1212600  )
        19           Au  tau(  19) = (   0.0000000   0.0000000   6.9583554  )
        20           Au  tau(  20) = (   0.5000000   0.5000000   7.4292215  )
        21           Au  tau(  21) = (   0.5000000   0.5000000   8.2663169  )
        22           Au  tau(  22) = (   0.0000000   0.0000000   8.7371830  )
        23           Au  tau(  23) = (   0.0000000   0.0000000   9.5742784  )
        24           Au  tau(  24) = (   0.5000000   0.5000000  10.0451446  )

     number of k points=    40 (tetrahedron method)
                       cart. coord. in units 2pi/alat
        k(    1) = (   0.0000000   0.0000000   0.0000000), wk =   0.0046296
        k(    2) = (   0.0000000   0.0000000   0.0159281), wk =   0.0092593
        k(    3) = (   0.0000000   0.0000000   0.0318562), wk =   0.0092593
        k(    4) = (   0.0000000   0.0000000  -0.0477843), wk =   0.0046296
        k(    5) = (   0.0000000   0.1666667   0.0000000), wk =   0.0185185
        k(    6) = (   0.0000000   0.1666667   0.0159281), wk =   0.0370370
        k(    7) = (   0.0000000   0.1666667   0.0318562), wk =   0.0370370
        k(    8) = (   0.0000000   0.1666667  -0.0477843), wk =   0.0185185
        k(    9) = (   0.0000000   0.3333333   0.0000000), wk =   0.0185185
        k(   10) = (   0.0000000   0.3333333   0.0159281), wk =   0.0370370
        k(   11) = (   0.0000000   0.3333333   0.0318562), wk =   0.0370370
        k(   12) = (   0.0000000   0.3333333  -0.0477843), wk =   0.0185185
        k(   13) = (   0.0000000  -0.5000000   0.0000000), wk =   0.0092593
        k(   14) = (   0.0000000  -0.5000000   0.0159281), wk =   0.0185185
        k(   15) = (   0.0000000  -0.5000000   0.0318562), wk =   0.0185185
        k(   16) = (   0.0000000  -0.5000000  -0.0477843), wk =   0.0092593
        k(   17) = (   0.1666667   0.1666667   0.0000000), wk =   0.0185185
        k(   18) = (   0.1666667   0.1666667   0.0159281), wk =   0.0370370
        k(   19) = (   0.1666667   0.1666667   0.0318562), wk =   0.0370370
        k(   20) = (   0.1666667   0.1666667  -0.0477843), wk =   0.0185185
        k(   21) = (   0.1666667   0.3333333   0.0000000), wk =   0.0370370
        k(   22) = (   0.1666667   0.3333333   0.0159281), wk =   0.0740741
        k(   23) = (   0.1666667   0.3333333   0.0318562), wk =   0.0740741
        k(   24) = (   0.1666667   0.3333333  -0.0477843), wk =   0.0370370
        k(   25) = (   0.1666667  -0.5000000   0.0000000), wk =   0.0185185
        k(   26) = (   0.1666667  -0.5000000   0.0159281), wk =   0.0370370
        k(   27) = (   0.1666667  -0.5000000   0.0318562), wk =   0.0370370
        k(   28) = (   0.1666667  -0.5000000  -0.0477843), wk =   0.0185185
        k(   29) = (   0.3333333   0.3333333   0.0000000), wk =   0.0185185
        k(   30) = (   0.3333333   0.3333333   0.0159281), wk =   0.0370370
        k(   31) = (   0.3333333   0.3333333   0.0318562), wk =   0.0370370
        k(   32) = (   0.3333333   0.3333333  -0.0477843), wk =   0.0185185
        k(   33) = (   0.3333333  -0.5000000   0.0000000), wk =   0.0185185
        k(   34) = (   0.3333333  -0.5000000   0.0159281), wk =   0.0370370
        k(   35) = (   0.3333333  -0.5000000   0.0318562), wk =   0.0370370
        k(   36) = (   0.3333333  -0.5000000  -0.0477843), wk =   0.0185185
        k(   37) = (  -0.5000000  -0.5000000   0.0000000), wk =   0.0046296
        k(   38) = (  -0.5000000  -0.5000000   0.0159281), wk =   0.0092593
        k(   39) = (  -0.5000000  -0.5000000   0.0318562), wk =   0.0092593
        k(   40) = (  -0.5000000  -0.5000000  -0.0477843), wk =   0.0046296

     Dense  grid:   373547 G-vectors     FFT dimensions: (  45,  45, 432)

     Smooth grid:   112863 G-vectors     FFT dimensions: (  27,  27, 288)

     Estimated max dynamical RAM per process >     174.65 MB

     Estimated total dynamical RAM >       5.46 GB
     Generating pointlists ...
     new r_m :   0.3389 (alat units)  2.1745 (a.u.) for type    1
     new r_m :   0.3389 (alat units)  2.1745 (a.u.) for type    2
     new r_m :   0.3389 (alat units)  2.1745 (a.u.) for type    3

     Check: negative/imaginary core charge=   -0.000006    0.000000

     Initial potential from superposition of free atoms

     starting charge  295.99426, renormalised to  296.00000
     Number of +U iterations with fixed ns =  0
     Starting occupations:
 --- enter write_ns ---
 LDA+U parameters:
U(  1) =   3.1200   J(  1) =   0.7000   B(  1) =   0.0803
U(  2) =   3.1200   J(  2) =   0.7000   B(  2) =   0.0803
atom    1   Tr[ns(na)] (up, down, total) =   5.00000  0.00000  5.00000
   spin  1
    eigenvalues: 
  1.000  1.000  1.000  1.000  1.000
    eigenvectors:
  1.000  0.000  0.000  0.000  0.000
  0.000  1.000  0.000  0.000  0.000
  0.000  0.000  1.000  0.000  0.000
  0.000  0.000  0.000  1.000  0.000
  0.000  0.000  0.000  0.000  1.000
    occupations:
  1.000  0.000  0.000  0.000  0.000
  0.000  1.000  0.000  0.000  0.000
  0.000  0.000  1.000  0.000  0.000
  0.000  0.000  0.000  1.000  0.000
  0.000  0.000  0.000  0.000  1.000
   spin  2
    eigenvalues: 
  0.000  0.000  0.000  0.000  0.000
    eigenvectors:
  1.000  0.000  0.000  0.000  0.000
  0.000  1.000  0.000  0.000  0.000
  0.000  0.000  1.000  0.000  0.000
  0.000  0.000  0.000  1.000  0.000
  0.000  0.000  0.000  0.000  1.000
    occupations:
  0.000  0.000  0.000  0.000  0.000
  0.000  0.000  0.000  0.000  0.000
  0.000  0.000  0.000  0.000  0.000
  0.000  0.000  0.000  0.000  0.000
  0.000  0.000  0.000  0.000  0.000
atomic mag. moment =     5.000000
atom    2   Tr[ns(na)] (up, down, total) =   0.00000  5.00000  5.00000
   spin  1
    eigenvalues: 
  0.000  0.000  0.000  0.000  0.000
    eigenvectors:
  1.000  0.000  0.000  0.000  0.000
  0.000  1.000  0.000  0.000  0.000
  0.000  0.000  1.000  0.000  0.000
  0.000  0.000  0.000  1.000  0.000
  0.000  0.000  0.000  0.000  1.000
    occupations:
  0.000  0.000  0.000  0.000  0.000
  0.000  0.000  0.000  0.000  0.000
  0.000  0.000  0.000  0.000  0.000
  0.000  0.000  0.000  0.000  0.000
  0.000  0.000  0.000  0.000  0.000
   spin  2
    eigenvalues: 
  1.000  1.000  1.000  1.000  1.000
    eigenvectors:
  1.000  0.000  0.000  0.000  0.000
  0.000  1.000  0.000  0.000  0.000
  0.000  0.000  1.000  0.000  0.000
  0.000  0.000  0.000  1.000  0.000
  0.000  0.000  0.000  0.000  1.000
    occupations:
  1.000  0.000  0.000  0.000  0.000
  0.000  1.000  0.000  0.000  0.000
  0.000  0.000  1.000  0.000  0.000
  0.000  0.000  0.000  1.000  0.000
  0.000  0.000  0.000  0.000  1.000
atomic mag. moment =    -5.000000
atom    3   Tr[ns(na)] (up, down, total) =   5.00000  0.00000  5.00000
   spin  1
    eigenvalues: 
  1.000  1.000  1.000  1.000  1.000
    eigenvectors:
  1.000  0.000  0.000  0.000  0.000
  0.000  1.000  0.000  0.000  0.000
  0.000  0.000  1.000  0.000  0.000
  0.000  0.000  0.000  1.000  0.000
  0.000  0.000  0.000  0.000  1.000
    occupations:
  1.000  0.000  0.000  0.000  0.000
  0.000  1.000  0.000  0.000  0.000
  0.000  0.000  1.000  0.000  0.000
  0.000  0.000  0.000  1.000  0.000
  0.000  0.000  0.000  0.000  1.000
   spin  2
    eigenvalues: 
  0.000  0.000  0.000  0.000  0.000
    eigenvectors:
  1.000  0.000  0.000  0.000  0.000
  0.000  1.000  0.000  0.000  0.000
  0.000  0.000  1.000  0.000  0.000
  0.000  0.000  0.000  1.000  0.000
  0.000  0.000  0.000  0.000  1.000
    occupations:
  0.000  0.000  0.000  0.000  0.000
  0.000  0.000  0.000  0.000  0.000
  0.000  0.000  0.000  0.000  0.000
  0.000  0.000  0.000  0.000  0.000
  0.000  0.000  0.000  0.000  0.000
atomic mag. moment =     5.000000
atom    4   Tr[ns(na)] (up, down, total) =   0.00000  5.00000  5.00000
   spin  1
    eigenvalues: 
  0.000  0.000  0.000  0.000  0.000
    eigenvectors:
  1.000  0.000  0.000  0.000  0.000
  0.000  1.000  0.000  0.000  0.000
  0.000  0.000  1.000  0.000  0.000
  0.000  0.000  0.000  1.000  0.000
  0.000  0.000  0.000  0.000  1.000
    occupations:
  0.000  0.000  0.000  0.000  0.000
  0.000  0.000  0.000  0.000  0.000
  0.000  0.000  0.000  0.000  0.000
  0.000  0.000  0.000  0.000  0.000
  0.000  0.000  0.000  0.000  0.000
   spin  2
    eigenvalues: 
  1.000  1.000  1.000  1.000  1.000
    eigenvectors:
  1.000  0.000  0.000  0.000  0.000
  0.000  1.000  0.000  0.000  0.000
  0.000  0.000  1.000  0.000  0.000
  0.000  0.000  0.000  1.000  0.000
  0.000  0.000  0.000  0.000  1.000
    occupations:
  1.000  0.000  0.000  0.000  0.000
  0.000  1.000  0.000  0.000  0.000
  0.000  0.000  1.000  0.000  0.000
  0.000  0.000  0.000  1.000  0.000
  0.000  0.000  0.000  0.000  1.000
atomic mag. moment =    -5.000000
atom    5   Tr[ns(na)] (up, down, total) =   5.00000  0.00000  5.00000
   spin  1
    eigenvalues: 
  1.000  1.000  1.000  1.000  1.000
    eigenvectors:
  1.000  0.000  0.000  0.000  0.000
  0.000  1.000  0.000  0.000  0.000
  0.000  0.000  1.000  0.000  0.000
  0.000  0.000  0.000  1.000  0.000
  0.000  0.000  0.000  0.000  1.000
    occupations:
  1.000  0.000  0.000  0.000  0.000
  0.000  1.000  0.000  0.000  0.000
  0.000  0.000  1.000  0.000  0.000
  0.000  0.000  0.000  1.000  0.000
  0.000  0.000  0.000  0.000  1.000
   spin  2
    eigenvalues: 
  0.000  0.000  0.000  0.000  0.000
    eigenvectors:
  1.000  0.000  0.000  0.000  0.000
  0.000  1.000  0.000  0.000  0.000
  0.000  0.000  1.000  0.000  0.000
  0.000  0.000  0.000  1.000  0.000
  0.000  0.000  0.000  0.000  1.000
    occupations:
  0.000  0.000  0.000  0.000  0.000
  0.000  0.000  0.000  0.000  0.000
  0.000  0.000  0.000  0.000  0.000
  0.000  0.000  0.000  0.000  0.000
  0.000  0.000  0.000  0.000  0.000
atomic mag. moment =     5.000000
atom    6   Tr[ns(na)] (up, down, total) =   0.00000  5.00000  5.00000
   spin  1
    eigenvalues: 
  0.000  0.000  0.000  0.000  0.000
    eigenvectors:
  1.000  0.000  0.000  0.000  0.000
  0.000  1.000  0.000  0.000  0.000
  0.000  0.000  1.000  0.000  0.000
  0.000  0.000  0.000  1.000  0.000
  0.000  0.000  0.000  0.000  1.000
    occupations:
  0.000  0.000  0.000  0.000  0.000
  0.000  0.000  0.000  0.000  0.000
  0.000  0.000  0.000  0.000  0.000
  0.000  0.000  0.000  0.000  0.000
  0.000  0.000  0.000  0.000  0.000
   spin  2
    eigenvalues: 
  1.000  1.000  1.000  1.000  1.000
    eigenvectors:
  1.000  0.000  0.000  0.000  0.000
  0.000  1.000  0.000  0.000  0.000
  0.000  0.000  1.000  0.000  0.000
  0.000  0.000  0.000  1.000  0.000
  0.000  0.000  0.000  0.000  1.000
    occupations:
  1.000  0.000  0.000  0.000  0.000
  0.000  1.000  0.000  0.000  0.000
  0.000  0.000  1.000  0.000  0.000
  0.000  0.000  0.000  1.000  0.000
  0.000  0.000  0.000  0.000  1.000
atomic mag. moment =    -5.000000
atom    7   Tr[ns(na)] (up, down, total) =   5.00000  0.00000  5.00000
   spin  1
    eigenvalues: 
  1.000  1.000  1.000  1.000  1.000
    eigenvectors:
  1.000  0.000  0.000  0.000  0.000
  0.000  1.000  0.000  0.000  0.000
  0.000  0.000  1.000  0.000  0.000
  0.000  0.000  0.000  1.000  0.000
  0.000  0.000  0.000  0.000  1.000
    occupations:
  1.000  0.000  0.000  0.000  0.000
  0.000  1.000  0.000  0.000  0.000
  0.000  0.000  1.000  0.000  0.000
  0.000  0.000  0.000  1.000  0.000
  0.000  0.000  0.000  0.000  1.000
   spin  2
    eigenvalues: 
  0.000  0.000  0.000  0.000  0.000
    eigenvectors:
  1.000  0.000  0.000  0.000  0.000
  0.000  1.000  0.000  0.000  0.000
  0.000  0.000  1.000  0.000  0.000
  0.000  0.000  0.000  1.000  0.000
  0.000  0.000  0.000  0.000  1.000
    occupations:
  0.000  0.000  0.000  0.000  0.000
  0.000  0.000  0.000  0.000  0.000
  0.000  0.000  0.000  0.000  0.000
  0.000  0.000  0.000  0.000  0.000
  0.000  0.000  0.000  0.000  0.000
atomic mag. moment =     5.000000
atom    8   Tr[ns(na)] (up, down, total) =   0.00000  5.00000  5.00000
   spin  1
    eigenvalues: 
  0.000  0.000  0.000  0.000  0.000
    eigenvectors:
  1.000  0.000  0.000  0.000  0.000
  0.000  1.000  0.000  0.000  0.000
  0.000  0.000  1.000  0.000  0.000
  0.000  0.000  0.000  1.000  0.000
  0.000  0.000  0.000  0.000  1.000
    occupations:
  0.000  0.000  0.000  0.000  0.000
  0.000  0.000  0.000  0.000  0.000
  0.000  0.000  0.000  0.000  0.000
  0.000  0.000  0.000  0.000  0.000
  0.000  0.000  0.000  0.000  0.000
   spin  2
    eigenvalues: 
  1.000  1.000  1.000  1.000  1.000
    eigenvectors:
  1.000  0.000  0.000  0.000  0.000
  0.000  1.000  0.000  0.000  0.000
  0.000  0.000  1.000  0.000  0.000
  0.000  0.000  0.000  1.000  0.000
  0.000  0.000  0.000  0.000  1.000
    occupations:
  1.000  0.000  0.000  0.000  0.000
  0.000  1.000  0.000  0.000  0.000
  0.000  0.000  1.000  0.000  0.000
  0.000  0.000  0.000  1.000  0.000
  0.000  0.000  0.000  0.000  1.000
atomic mag. moment =    -5.000000
N of occupied +U levels =   40.000000
 --- exit write_ns ---
 Atomic wfc used for LDA+U Projector are NOT orthogonalized
     Starting wfcs are  224 randomized atomic wfcs
     Checking if some PAW data can be deallocated... 

     total cpu time spent up to now is       22.3 secs

     Self-consistent Calculation

     iteration #  1     ecut=    45.00 Ry     beta= 0.10
     Davidson diagonalization with overlap
     ethr =  1.00E-02,  avg # of iterations =  3.9
 --- enter write_ns ---
 LDA+U parameters:
U(  1) =   3.1200   J(  1) =   0.7000   B(  1) =   0.0803
U(  2) =   3.1200   J(  2) =   0.7000   B(  2) =   0.0803
atom    1   Tr[ns(na)] (up, down, total) =   5.01740  0.39469  5.41209
   spin  1
    eigenvalues: 
  1.003  1.003  1.003  1.004  1.004
    eigenvectors:
  0.000  0.000  0.000  1.000  0.000
  0.000  0.143  0.857  0.000  0.000
  0.000  0.857  0.143  0.000  0.000
  0.000  0.000  0.000  0.000  1.000
  1.000  0.000  0.000  0.000  0.000
    occupations:
  1.004 -0.000 -0.000  0.000  0.000
 -0.000  1.003 -0.000  0.000  0.000
 -0.000 -0.000  1.003  0.000  0.000
  0.000  0.000  0.000  1.004 -0.000
  0.000  0.000  0.000 -0.000  1.003
   spin  2
    eigenvalues: 
  0.052  0.069  0.077  0.077  0.120
    eigenvectors:
  0.000  1.000  0.000  0.000  0.000
  0.000  0.000  0.159  0.841  0.000
  0.000  0.000  0.841  0.159  0.000
  1.000  0.000  0.000  0.000  0.000
  0.000  0.000  0.000  0.000  1.000
    occupations:
  0.069 -0.000 -0.000  0.000  0.000
 -0.000  0.077 -0.000  0.000  0.000
 -0.000 -0.000  0.077  0.000  0.000
  0.000  0.000  0.000  0.052 -0.000
  0.000  0.000  0.000 -0.000  0.120
atomic mag. moment =     4.622719
atom    2   Tr[ns(na)] (up, down, total) =   0.39515  5.01743  5.41258
   spin  1
    eigenvalues: 
  0.052  0.069  0.077  0.077  0.121
    eigenvectors:
  0.000  1.000  0.000  0.000  0.000
  0.000  0.000  0.132  0.868  0.000
  0.000  0.000  0.868  0.132  0.000
  1.000  0.000  0.000  0.000  0.000
  0.000  0.000  0.000  0.000  1.000
    occupations:
  0.069 -0.000 -0.000  0.000  0.000
 -0.000  0.077 -0.000  0.000  0.000
 -0.000 -0.000  0.077  0.000  0.000
  0.000  0.000  0.000  0.052 -0.000
  0.000  0.000  0.000 -0.000  0.121
   spin  2
    eigenvalues: 
  1.003  1.003  1.003  1.004  1.004
    eigenvectors:
  0.000  0.000  0.000  1.000  0.000
  0.000  0.115  0.885  0.000  0.000
  0.000  0.885  0.115  0.000  0.000
  0.000  0.000  0.000  0.000  1.000
  1.000  0.000  0.000  0.000  0.000
    occupations:
  1.004 -0.000 -0.000  0.000  0.000
 -0.000  1.003 -0.000  0.000  0.000
 -0.000 -0.000  1.003  0.000  0.000
  0.000  0.000  0.000  1.004 -0.000
  0.000  0.000  0.000 -0.000  1.003
atomic mag. moment =    -4.622284
atom    3   Tr[ns(na)] (up, down, total) =   5.01744  0.39517  5.41262
   spin  1
    eigenvalues: 
  1.003  1.003  1.003  1.004  1.004
    eigenvectors:
  0.000  0.000  0.000  1.000  0.000
  0.000  0.118  0.882  0.000  0.000
  0.000  0.882  0.118  0.000  0.000
  0.000  0.000  0.000  0.000  1.000
  1.000  0.000  0.000  0.000  0.000
    occupations:
  1.004 -0.000 -0.000  0.000  0.000
 -0.000  1.003 -0.000  0.000  0.000
 -0.000 -0.000  1.003  0.000  0.000
  0.000  0.000  0.000  1.004 -0.000
  0.000  0.000  0.000 -0.000  1.003
   spin  2
    eigenvalues: 
  0.052  0.069  0.077  0.077  0.121
    eigenvectors:
  0.000  1.000  0.000  0.000  0.000
  0.000  0.000  0.111  0.889  0.000
  0.000  0.000  0.889  0.111  0.000
  1.000  0.000  0.000  0.000  0.000
  0.000  0.000  0.000  0.000  1.000
    occupations:
  0.069 -0.000 -0.000  0.000  0.000
 -0.000  0.077 -0.000  0.000  0.000
 -0.000 -0.000  0.077  0.000  0.000
  0.000  0.000  0.000  0.052 -0.000
  0.000  0.000  0.000 -0.000  0.121
atomic mag. moment =     4.622272
atom    4   Tr[ns(na)] (up, down, total) =   0.39508  5.01743  5.41252
   spin  1
    eigenvalues: 
  0.052  0.069  0.077  0.077  0.121
    eigenvectors:
  0.000  1.000  0.000  0.000  0.000
  0.000  0.000  0.143  0.857  0.000
  0.000  0.000  0.857  0.143  0.000
  1.000  0.000  0.000  0.000  0.000
  0.000  0.000  0.000  0.000  1.000
    occupations:
  0.069 -0.000 -0.000  0.000  0.000
 -0.000  0.077 -0.000  0.000  0.000
 -0.000 -0.000  0.077  0.000  0.000
  0.000  0.000  0.000  0.052 -0.000
  0.000  0.000  0.000 -0.000  0.121
   spin  2
    eigenvalues: 
  1.003  1.003  1.003  1.004  1.004
    eigenvectors:
  0.000  0.000  0.000  1.000  0.000
  0.000  0.154  0.846  0.000  0.000
  0.000  0.846  0.154  0.000  0.000
  0.000  0.000  0.000  0.000  1.000
  1.000  0.000  0.000  0.000  0.000
    occupations:
  1.004 -0.000 -0.000  0.000  0.000
 -0.000  1.003 -0.000  0.000  0.000
 -0.000 -0.000  1.003  0.000  0.000
  0.000  0.000  0.000  1.004 -0.000
  0.000  0.000  0.000 -0.000  1.003
atomic mag. moment =    -4.622349
atom    5   Tr[ns(na)] (up, down, total) =   5.01746  0.39518  5.41263
   spin  1
    eigenvalues: 
  1.003  1.003  1.003  1.004  1.004
    eigenvectors:
  0.000  0.000  0.000  1.000  0.000
  0.000  0.126  0.874  0.000  0.000
  0.000  0.874  0.126  0.000  0.000
  0.000  0.000  0.000  0.000  1.000
  1.000  0.000  0.000  0.000  0.000
    occupations:
  1.004 -0.000 -0.000  0.000  0.000
 -0.000  1.003 -0.000  0.000  0.000
 -0.000 -0.000  1.003  0.000  0.000
  0.000  0.000  0.000  1.004 -0.000
  0.000  0.000  0.000 -0.000  1.003
   spin  2
    eigenvalues: 
  0.052  0.069  0.077  0.077  0.120
    eigenvectors:
  0.000  1.000  0.000  0.000  0.000
  0.000  0.000  0.130  0.870  0.000
  0.000  0.000  0.870  0.130  0.000
  1.000  0.000  0.000  0.000  0.000
  0.000  0.000  0.000  0.000  1.000
    occupations:
  0.069 -0.000 -0.000  0.000  0.000
 -0.000  0.077 -0.000  0.000  0.000
 -0.000 -0.000  0.077  0.000  0.000
  0.000  0.000  0.000  0.052 -0.000
  0.000  0.000  0.000 -0.000  0.120
atomic mag. moment =     4.622277
atom    6   Tr[ns(na)] (up, down, total) =   0.39508  5.01743  5.41252
   spin  1
    eigenvalues: 
  0.052  0.069  0.077  0.077  0.121
    eigenvectors:
  0.000  1.000  0.000  0.000  0.000
  0.000  0.000  0.140  0.860  0.000
  0.000  0.000  0.860  0.140  0.000
  1.000  0.000  0.000  0.000  0.000
  0.000  0.000  0.000  0.000  1.000
    occupations:
  0.069 -0.000 -0.000  0.000  0.000
 -0.000  0.077 -0.000  0.000  0.000
 -0.000 -0.000  0.077  0.000  0.000
  0.000  0.000  0.000  0.052 -0.000
  0.000  0.000  0.000 -0.000  0.121
   spin  2
    eigenvalues: 
  1.003  1.003  1.003  1.004  1.004
    eigenvectors:
  0.000  0.000  0.000  1.000  0.000
  0.000  0.127  0.873  0.000  0.000
  0.000  0.873  0.127  0.000  0.000
  0.000  0.000  0.000  0.000  1.000
  1.000  0.000  0.000  0.000  0.000
    occupations:
  1.004 -0.000 -0.000  0.000  0.000
 -0.000  1.003 -0.000  0.000  0.000
 -0.000 -0.000  1.003  0.000  0.000
  0.000  0.000  0.000  1.004 -0.000
  0.000  0.000  0.000 -0.000  1.003
atomic mag. moment =    -4.622349
atom    7   Tr[ns(na)] (up, down, total) =   5.01744  0.39517  5.41262
   spin  1
    eigenvalues: 
  1.003  1.003  1.003  1.004  1.004
    eigenvectors:
  0.000  0.000  0.000  1.000  0.000
  0.000  0.131  0.869  0.000  0.000
  0.000  0.869  0.131  0.000  0.000
  0.000  0.000  0.000  0.000  1.000
  1.000  0.000  0.000  0.000  0.000
    occupations:
  1.004 -0.000 -0.000  0.000  0.000
 -0.000  1.003 -0.000  0.000  0.000
 -0.000 -0.000  1.003  0.000  0.000
  0.000  0.000  0.000  1.004 -0.000
  0.000  0.000  0.000 -0.000  1.003
   spin  2
    eigenvalues: 
  0.052  0.069  0.077  0.077  0.121
    eigenvectors:
  0.000  1.000  0.000  0.000  0.000
  0.000  0.000  0.132  0.868  0.000
  0.000  0.000  0.868  0.132  0.000
  1.000  0.000  0.000  0.000  0.000
  0.000  0.000  0.000  0.000  1.000
    occupations:
  0.069 -0.000 -0.000  0.000  0.000
 -0.000  0.077 -0.000  0.000  0.000
 -0.000 -0.000  0.077  0.000  0.000
  0.000  0.000  0.000  0.052 -0.000
  0.000  0.000  0.000 -0.000  0.121
atomic mag. moment =     4.622272
atom    8   Tr[ns(na)] (up, down, total) =   0.39515  5.01743  5.41258
   spin  1
    eigenvalues: 
  0.052  0.069  0.077  0.077  0.121
    eigenvectors:
  0.000  1.000  0.000  0.000  0.000
  0.000  0.000  0.125  0.875  0.000
  0.000  0.000  0.875  0.125  0.000
  1.000  0.000  0.000  0.000  0.000
  0.000  0.000  0.000  0.000  1.000
    occupations:
  0.069 -0.000 -0.000  0.000  0.000
 -0.000  0.077 -0.000  0.000  0.000
 -0.000 -0.000  0.077  0.000  0.000
  0.000  0.000  0.000  0.052 -0.000
  0.000  0.000  0.000 -0.000  0.121
   spin  2
    eigenvalues: 
  1.003  1.003  1.003  1.004  1.004
    eigenvectors:
  0.000  0.000  0.000  1.000  0.000
  0.000  0.119  0.881  0.000  0.000
  0.000  0.881  0.119  0.000  0.000
  0.000  0.000  0.000  0.000  1.000
  1.000  0.000  0.000  0.000  0.000
    occupations:
  1.004 -0.000 -0.000  0.000  0.000
 -0.000  1.003 -0.000  0.000  0.000
 -0.000 -0.000  1.003  0.000  0.000
  0.000  0.000  0.000  1.004 -0.000
  0.000  0.000  0.000 -0.000  1.003
atomic mag. moment =    -4.622284
N of occupied +U levels =   43.300161
 --- exit write_ns ---

     total cpu time spent up to now is       88.7 secs

     total energy              =  -14687.31149360 Ry
     Harris-Foulkes estimate   =  -14685.85319659 Ry
     estimated scf accuracy    <      11.51798272 Ry

     total magnetization       =    -0.00 Bohr mag/cell
     absolute magnetization    =    41.78 Bohr mag/cell

     iteration #  2     ecut=    45.00 Ry     beta= 0.10
     Davidson diagonalization with overlap
     ethr =  3.89E-03,  avg # of iterations =  1.0

     total cpu time spent up to now is      122.7 secs

     total energy              =  -14692.11675699 Ry
     Harris-Foulkes estimate   =  -14687.38464680 Ry
     estimated scf accuracy    <       9.30715377 Ry

     total magnetization       =    -0.00 Bohr mag/cell
     absolute magnetization    =    41.45 Bohr mag/cell

     iteration #  3     ecut=    45.00 Ry     beta= 0.10
     Davidson diagonalization with overlap
     ethr =  3.14E-03,  avg # of iterations =  5.1

     total cpu time spent up to now is      190.4 secs

     total energy              =  -14692.48054625 Ry
     Harris-Foulkes estimate   =  -14694.29541316 Ry
     estimated scf accuracy    <     158.21106008 Ry

     total magnetization       =    -1.02 Bohr mag/cell
     absolute magnetization    =    38.55 Bohr mag/cell

     iteration #  4     ecut=    45.00 Ry     beta= 0.10
     Davidson diagonalization with overlap
     ethr =  3.14E-03,  avg # of iterations =  4.0

     total cpu time spent up to now is      256.2 secs

     total energy              =  -14694.36195481 Ry
     Harris-Foulkes estimate   =  -14694.02436302 Ry
     estimated scf accuracy    <       3.66351195 Ry

     total magnetization       =    -0.00 Bohr mag/cell
     absolute magnetization    =    38.92 Bohr mag/cell

     iteration #  5     ecut=    45.00 Ry     beta= 0.10
     Davidson diagonalization with overlap
     ethr =  1.24E-03,  avg # of iterations =  4.1

     total cpu time spent up to now is      310.3 secs

     total energy              =  -14693.16065385 Ry
     Harris-Foulkes estimate   =  -14694.39700721 Ry
     estimated scf accuracy    <       5.39690878 Ry

     total magnetization       =    -0.03 Bohr mag/cell
     absolute magnetization    =    38.61 Bohr mag/cell

     iteration #  6     ecut=    45.00 Ry     beta= 0.10
     Davidson diagonalization with overlap
     ethr =  1.24E-03,  avg # of iterations =  4.8

     total cpu time spent up to now is      376.6 secs

     total energy              =  -14693.82728623 Ry
     Harris-Foulkes estimate   =  -14693.52116625 Ry
     estimated scf accuracy    <       2.24658760 Ry

     total magnetization       =    -0.01 Bohr mag/cell
     absolute magnetization    =    39.15 Bohr mag/cell

     iteration #  7     ecut=    45.00 Ry     beta= 0.10
     Davidson diagonalization with overlap
     ethr =  7.59E-04,  avg # of iterations =  4.7

     total cpu time spent up to now is      442.6 secs

     total energy              =  -14693.99341322 Ry
     Harris-Foulkes estimate   =  -14693.97803414 Ry
     estimated scf accuracy    <       0.15901479 Ry

     total magnetization       =     0.01 Bohr mag/cell
     absolute magnetization    =    37.95 Bohr mag/cell

     iteration #  8     ecut=    45.00 Ry     beta= 0.10
     Davidson diagonalization with overlap
     ethr =  5.37E-05,  avg # of iterations =  2.9

     total cpu time spent up to now is      490.8 secs

     total energy              =  -14693.99622154 Ry
     Harris-Foulkes estimate   =  -14693.99957924 Ry
     estimated scf accuracy    <       0.11429329 Ry

     total magnetization       =     0.00 Bohr mag/cell
     absolute magnetization    =    37.74 Bohr mag/cell

     iteration #  9     ecut=    45.00 Ry     beta= 0.10
     Davidson diagonalization with overlap
     ethr =  3.86E-05,  avg # of iterations =  1.1

     total cpu time spent up to now is      525.2 secs

     total energy              =  -14693.99996363 Ry
     Harris-Foulkes estimate   =  -14693.99903433 Ry
     estimated scf accuracy    <       0.05990984 Ry

     total magnetization       =    -0.00 Bohr mag/cell
     absolute magnetization    =    37.62 Bohr mag/cell

     iteration # 10     ecut=    45.00 Ry     beta= 0.10
     Davidson diagonalization with overlap
     ethr =  2.02E-05,  avg # of iterations =  1.4

     total cpu time spent up to now is      561.6 secs

     total energy              =  -14693.99778293 Ry
     Harris-Foulkes estimate   =  -14694.00262276 Ry
     estimated scf accuracy    <       0.03045272 Ry

     total magnetization       =    -0.00 Bohr mag/cell
     absolute magnetization    =    37.61 Bohr mag/cell

     iteration # 11     ecut=    45.00 Ry     beta= 0.10
     Davidson diagonalization with overlap
     c_bands:  3 eigenvalues not converged
     c_bands:  4 eigenvalues not converged
     ethr =  1.03E-05,  avg # of iterations =  4.0

     total cpu time spent up to now is      619.7 secs

     total energy              =  -14694.00028383 Ry
     Harris-Foulkes estimate   =  -14694.00147990 Ry
     estimated scf accuracy    <       0.09623568 Ry

     total magnetization       =     0.00 Bohr mag/cell
     absolute magnetization    =    37.64 Bohr mag/cell

     iteration # 12     ecut=    45.00 Ry     beta= 0.10
     Davidson diagonalization with overlap
     ethr =  1.03E-05,  avg # of iterations =  3.3

     total cpu time spent up to now is      668.1 secs

     total energy              =  -14694.00189457 Ry
     Harris-Foulkes estimate   =  -14694.00239012 Ry
     estimated scf accuracy    <       0.05583645 Ry

     total magnetization       =    -0.00 Bohr mag/cell
     absolute magnetization    =    37.59 Bohr mag/cell

     iteration # 13     ecut=    45.00 Ry     beta= 0.10
     Davidson diagonalization with overlap
     ethr =  1.03E-05,  avg # of iterations =  1.0

     total cpu time spent up to now is      702.1 secs

     total energy              =  -14694.00267897 Ry
     Harris-Foulkes estimate   =  -14694.00281445 Ry
     estimated scf accuracy    <       0.01282285 Ry

     total magnetization       =    -0.00 Bohr mag/cell
     absolute magnetization    =    37.59 Bohr mag/cell

     iteration # 14     ecut=    45.00 Ry     beta= 0.10
     Davidson diagonalization with overlap
     ethr =  4.33E-06,  avg # of iterations =  1.4

     total cpu time spent up to now is      738.1 secs

     total energy              =  -14694.00309840 Ry
     Harris-Foulkes estimate   =  -14694.00306322 Ry
     estimated scf accuracy    <       0.00269179 Ry

     total magnetization       =    -0.00 Bohr mag/cell
     absolute magnetization    =    37.57 Bohr mag/cell

     iteration # 15     ecut=    45.00 Ry     beta= 0.10
     Davidson diagonalization with overlap
     ethr =  9.09E-07,  avg # of iterations =  4.3

     total cpu time spent up to now is      804.4 secs

     total energy              =  -14694.00319101 Ry
     Harris-Foulkes estimate   =  -14694.00318754 Ry
     estimated scf accuracy    <       0.00023957 Ry

     total magnetization       =    -0.00 Bohr mag/cell
     absolute magnetization    =    37.56 Bohr mag/cell

     iteration # 16     ecut=    45.00 Ry     beta= 0.10
     Davidson diagonalization with overlap
     ethr =  8.09E-08,  avg # of iterations =  3.7

     total cpu time spent up to now is      860.1 secs

     total energy              =  -14694.00324876 Ry
     Harris-Foulkes estimate   =  -14694.00320898 Ry
     estimated scf accuracy    <       0.00024955 Ry

     total magnetization       =    -0.00 Bohr mag/cell
     absolute magnetization    =    37.56 Bohr mag/cell

     iteration # 17     ecut=    45.00 Ry     beta= 0.10
     Davidson diagonalization with overlap
     ethr =  8.09E-08,  avg # of iterations =  2.1

     total cpu time spent up to now is      901.5 secs

     total energy              =  -14694.00328068 Ry
     Harris-Foulkes estimate   =  -14694.00331217 Ry
     estimated scf accuracy    <       0.00251360 Ry

     total magnetization       =    -0.00 Bohr mag/cell
     absolute magnetization    =    37.55 Bohr mag/cell

     iteration # 18     ecut=    45.00 Ry     beta= 0.10
     Davidson diagonalization with overlap
     ethr =  8.09E-08,  avg # of iterations =  1.6

     total cpu time spent up to now is      938.9 secs

     total energy              =  -14694.00333220 Ry
     Harris-Foulkes estimate   =  -14694.00335602 Ry
     estimated scf accuracy    <       0.00466407 Ry

     total magnetization       =    -0.00 Bohr mag/cell
     absolute magnetization    =    37.55 Bohr mag/cell

     iteration # 19     ecut=    45.00 Ry     beta= 0.10
     Davidson diagonalization with overlap
     ethr =  8.09E-08,  avg # of iterations =  1.0

     total cpu time spent up to now is      972.9 secs

     total energy              =  -14694.00334828 Ry
     Harris-Foulkes estimate   =  -14694.00334809 Ry
     estimated scf accuracy    <       0.00020406 Ry

     total magnetization       =    -0.00 Bohr mag/cell
     absolute magnetization    =    37.55 Bohr mag/cell

     iteration # 20     ecut=    45.00 Ry     beta= 0.10
     Davidson diagonalization with overlap
     ethr =  6.89E-08,  avg # of iterations =  1.1

     total cpu time spent up to now is     1007.2 secs

     total energy              =  -14694.00335169 Ry
     Harris-Foulkes estimate   =  -14694.00335677 Ry
     estimated scf accuracy    <       0.00077986 Ry

     total magnetization       =    -0.00 Bohr mag/cell
     absolute magnetization    =    37.54 Bohr mag/cell

     iteration # 21     ecut=    45.00 Ry     beta= 0.10
     Davidson diagonalization with overlap
     ethr =  6.89E-08,  avg # of iterations =  1.0

     total cpu time spent up to now is     1041.2 secs

     total energy              =  -14694.00336284 Ry
     Harris-Foulkes estimate   =  -14694.00336497 Ry
     estimated scf accuracy    <       0.00062913 Ry

     total magnetization       =    -0.00 Bohr mag/cell
     absolute magnetization    =    37.54 Bohr mag/cell

     iteration # 22     ecut=    45.00 Ry     beta= 0.10
     Davidson diagonalization with overlap
     ethr =  6.89E-08,  avg # of iterations =  1.0

     total cpu time spent up to now is     1075.2 secs

     total energy              =  -14694.00336664 Ry
     Harris-Foulkes estimate   =  -14694.00336655 Ry
     estimated scf accuracy    <       0.00016471 Ry

     total magnetization       =    -0.00 Bohr mag/cell
     absolute magnetization    =    37.55 Bohr mag/cell

     iteration # 23     ecut=    45.00 Ry     beta= 0.10
     Davidson diagonalization with overlap
     ethr =  5.56E-08,  avg # of iterations =  1.0

     total cpu time spent up to now is     1109.1 secs

     total energy              =  -14694.00336947 Ry
     Harris-Foulkes estimate   =  -14694.00336964 Ry
     estimated scf accuracy    <       0.00022956 Ry

     total magnetization       =    -0.00 Bohr mag/cell
     absolute magnetization    =    37.55 Bohr mag/cell

     iteration # 24     ecut=    45.00 Ry     beta= 0.10
     Davidson diagonalization with overlap
     ethr =  5.56E-08,  avg # of iterations =  1.0

     total cpu time spent up to now is     1143.0 secs

     total energy              =  -14694.00337284 Ry
     Harris-Foulkes estimate   =  -14694.00337177 Ry
     estimated scf accuracy    <       0.00015544 Ry

     total magnetization       =    -0.00 Bohr mag/cell
     absolute magnetization    =    37.55 Bohr mag/cell

     iteration # 25     ecut=    45.00 Ry     beta= 0.10
     Davidson diagonalization with overlap
     ethr =  5.25E-08,  avg # of iterations =  1.0

     total cpu time spent up to now is     1177.1 secs

     total energy              =  -14694.00337481 Ry
     Harris-Foulkes estimate   =  -14694.00337459 Ry
     estimated scf accuracy    <       0.00007276 Ry

     total magnetization       =    -0.00 Bohr mag/cell
     absolute magnetization    =    37.55 Bohr mag/cell

     iteration # 26     ecut=    45.00 Ry     beta= 0.10
     Davidson diagonalization with overlap
     ethr =  2.46E-08,  avg # of iterations =  1.0

     total cpu time spent up to now is     1211.1 secs

     total energy              =  -14694.00337624 Ry
     Harris-Foulkes estimate   =  -14694.00337563 Ry
     estimated scf accuracy    <       0.00004051 Ry

     total magnetization       =    -0.00 Bohr mag/cell
     absolute magnetization    =    37.55 Bohr mag/cell

     iteration # 27     ecut=    45.00 Ry     beta= 0.10
     Davidson diagonalization with overlap
     ethr =  1.37E-08,  avg # of iterations =  1.0

     total cpu time spent up to now is     1245.1 secs

     total energy              =  -14694.00337730 Ry
     Harris-Foulkes estimate   =  -14694.00337734 Ry
     estimated scf accuracy    <       0.00009556 Ry

     total magnetization       =    -0.00 Bohr mag/cell
     absolute magnetization    =    37.55 Bohr mag/cell

     iteration # 28     ecut=    45.00 Ry     beta= 0.10
     Davidson diagonalization with overlap
     ethr =  1.37E-08,  avg # of iterations =  1.0

     total cpu time spent up to now is     1279.1 secs

     total energy              =  -14694.00337928 Ry
     Harris-Foulkes estimate   =  -14694.00337903 Ry
     estimated scf accuracy    <       0.00017409 Ry

     total magnetization       =    -0.00 Bohr mag/cell
     absolute magnetization    =    37.55 Bohr mag/cell

     iteration # 29     ecut=    45.00 Ry     beta= 0.10
     Davidson diagonalization with overlap
     ethr =  1.37E-08,  avg # of iterations =  1.0

     total cpu time spent up to now is     1313.2 secs

     total energy              =  -14694.00338022 Ry
     Harris-Foulkes estimate   =  -14694.00337992 Ry
     estimated scf accuracy    <       0.00010455 Ry

     total magnetization       =    -0.00 Bohr mag/cell
     absolute magnetization    =    37.55 Bohr mag/cell

     iteration # 30     ecut=    45.00 Ry     beta= 0.10
     Davidson diagonalization with overlap
     ethr =  1.37E-08,  avg # of iterations =  1.0

     total cpu time spent up to now is     1347.2 secs

     total energy              =  -14694.00338158 Ry
     Harris-Foulkes estimate   =  -14694.00338096 Ry
     estimated scf accuracy    <       0.00001522 Ry

     total magnetization       =    -0.00 Bohr mag/cell
     absolute magnetization    =    37.55 Bohr mag/cell

     iteration # 31     ecut=    45.00 Ry     beta= 0.10
     Davidson diagonalization with overlap
     ethr =  5.14E-09,  avg # of iterations =  1.0

     total cpu time spent up to now is     1381.3 secs

     total energy              =  -14694.00338200 Ry
     Harris-Foulkes estimate   =  -14694.00338151 Ry
     estimated scf accuracy    <       0.00009709 Ry

     total magnetization       =    -0.00 Bohr mag/cell
     absolute magnetization    =    37.55 Bohr mag/cell

     iteration # 32     ecut=    45.00 Ry     beta= 0.10
     Davidson diagonalization with overlap
     ethr =  5.14E-09,  avg # of iterations =  1.0

     total cpu time spent up to now is     1415.3 secs

     total energy              =  -14694.00338232 Ry
     Harris-Foulkes estimate   =  -14694.00338212 Ry
     estimated scf accuracy    <       0.00009447 Ry

     total magnetization       =    -0.00 Bohr mag/cell
     absolute magnetization    =    37.55 Bohr mag/cell

     iteration # 33     ecut=    45.00 Ry     beta= 0.10
     Davidson diagonalization with overlap
     ethr =  5.14E-09,  avg # of iterations =  1.0

     total cpu time spent up to now is     1449.3 secs

     total energy              =  -14694.00338278 Ry
     Harris-Foulkes estimate   =  -14694.00338261 Ry
     estimated scf accuracy    <       0.00006731 Ry

     total magnetization       =    -0.00 Bohr mag/cell
     absolute magnetization    =    37.55 Bohr mag/cell

     iteration # 34     ecut=    45.00 Ry     beta= 0.10
     Davidson diagonalization with overlap
     ethr =  5.14E-09,  avg # of iterations =  1.0

     total cpu time spent up to now is     1483.5 secs

     total energy              =  -14694.00338344 Ry
     Harris-Foulkes estimate   =  -14694.00338312 Ry
     estimated scf accuracy    <       0.00001708 Ry

     total magnetization       =    -0.00 Bohr mag/cell
     absolute magnetization    =    37.55 Bohr mag/cell

     iteration # 35     ecut=    45.00 Ry     beta= 0.10
     Davidson diagonalization with overlap
     ethr =  5.14E-09,  avg # of iterations =  1.0

     total cpu time spent up to now is     1517.5 secs

     total energy              =  -14694.00338375 Ry
     Harris-Foulkes estimate   =  -14694.00338359 Ry
     estimated scf accuracy    <       0.00008193 Ry

     total magnetization       =    -0.00 Bohr mag/cell
     absolute magnetization    =    37.55 Bohr mag/cell

     iteration # 36     ecut=    45.00 Ry     beta= 0.10
     Davidson diagonalization with overlap
     ethr =  5.14E-09,  avg # of iterations =  1.0

     total cpu time spent up to now is     1551.4 secs

     total energy              =  -14694.00338427 Ry
     Harris-Foulkes estimate   =  -14694.00338400 Ry
     estimated scf accuracy    <       0.00005599 Ry

     total magnetization       =    -0.00 Bohr mag/cell
     absolute magnetization    =    37.55 Bohr mag/cell

     iteration # 37     ecut=    45.00 Ry     beta= 0.10
     Davidson diagonalization with overlap
     ethr =  5.14E-09,  avg # of iterations =  1.0

     total cpu time spent up to now is     1585.4 secs

     total energy              =  -14694.00338481 Ry
     Harris-Foulkes estimate   =  -14694.00338443 Ry
     estimated scf accuracy    <       0.00000811 Ry

     total magnetization       =    -0.00 Bohr mag/cell
     absolute magnetization    =    37.55 Bohr mag/cell

     iteration # 38     ecut=    45.00 Ry     beta= 0.10
     Davidson diagonalization with overlap
     ethr =  2.74E-09,  avg # of iterations =  1.0

     total cpu time spent up to now is     1619.4 secs

     total energy              =  -14694.00338482 Ry
     Harris-Foulkes estimate   =  -14694.00338463 Ry
     estimated scf accuracy    <       0.00007781 Ry

     total magnetization       =    -0.00 Bohr mag/cell
     absolute magnetization    =    37.55 Bohr mag/cell

     iteration # 39     ecut=    45.00 Ry     beta= 0.10
     Davidson diagonalization with overlap
     ethr =  2.74E-09,  avg # of iterations =  1.0

     total cpu time spent up to now is     1653.5 secs

     total energy              =  -14694.00338525 Ry
     Harris-Foulkes estimate   =  -14694.00338493 Ry
     estimated scf accuracy    <       0.00004034 Ry

     total magnetization       =    -0.00 Bohr mag/cell
     absolute magnetization    =    37.55 Bohr mag/cell

     iteration # 40     ecut=    45.00 Ry     beta= 0.10
     Davidson diagonalization with overlap
     ethr =  2.74E-09,  avg # of iterations =  1.0

     total cpu time spent up to now is     1687.5 secs

     total energy              =  -14694.00338538 Ry
     Harris-Foulkes estimate   =  -14694.00338522 Ry
     estimated scf accuracy    <       0.00004749 Ry

     total magnetization       =    -0.00 Bohr mag/cell
     absolute magnetization    =    37.55 Bohr mag/cell

     iteration # 41     ecut=    45.00 Ry     beta= 0.10
     Davidson diagonalization with overlap
     ethr =  2.74E-09,  avg # of iterations =  1.0

     total cpu time spent up to now is     1721.6 secs

     total energy              =  -14694.00338566 Ry
     Harris-Foulkes estimate   =  -14694.00338552 Ry
     estimated scf accuracy    <       0.00006685 Ry

     total magnetization       =    -0.00 Bohr mag/cell
     absolute magnetization    =    37.55 Bohr mag/cell

     iteration # 42     ecut=    45.00 Ry     beta= 0.10
     Davidson diagonalization with overlap
     ethr =  2.74E-09,  avg # of iterations =  1.0

     total cpu time spent up to now is     1755.7 secs

     total energy              =  -14694.00338580 Ry
     Harris-Foulkes estimate   =  -14694.00338563 Ry
     estimated scf accuracy    <       0.00000559 Ry

     total magnetization       =    -0.00 Bohr mag/cell
     absolute magnetization    =    37.55 Bohr mag/cell

     iteration # 43     ecut=    45.00 Ry     beta= 0.10
     Davidson diagonalization with overlap
     ethr =  1.89E-09,  avg # of iterations =  1.0

     total cpu time spent up to now is     1789.9 secs

     total energy              =  -14694.00338596 Ry
     Harris-Foulkes estimate   =  -14694.00338582 Ry
     estimated scf accuracy    <       0.00001651 Ry

     total magnetization       =    -0.00 Bohr mag/cell
     absolute magnetization    =    37.55 Bohr mag/cell

     iteration # 44     ecut=    45.00 Ry     beta= 0.10
     Davidson diagonalization with overlap
     ethr =  1.89E-09,  avg # of iterations =  1.0

     total cpu time spent up to now is     1823.9 secs

     total energy              =  -14694.00338615 Ry
     Harris-Foulkes estimate   =  -14694.00338600 Ry
     estimated scf accuracy    <       0.00000721 Ry

     total magnetization       =    -0.00 Bohr mag/cell
     absolute magnetization    =    37.55 Bohr mag/cell

     iteration # 45     ecut=    45.00 Ry     beta= 0.10
     Davidson diagonalization with overlap
     ethr =  1.89E-09,  avg # of iterations =  1.0

     total cpu time spent up to now is     1858.1 secs

     total energy              =  -14694.00338611 Ry
     Harris-Foulkes estimate   =  -14694.00338616 Ry
     estimated scf accuracy    <       0.00000601 Ry

     total magnetization       =    -0.00 Bohr mag/cell
     absolute magnetization    =    37.55 Bohr mag/cell

     iteration # 46     ecut=    45.00 Ry     beta= 0.10
     Davidson diagonalization with overlap
     ethr =  1.89E-09,  avg # of iterations =  1.0

     total cpu time spent up to now is     1892.1 secs

     total energy              =  -14694.00338654 Ry
     Harris-Foulkes estimate   =  -14694.00338638 Ry
     estimated scf accuracy    <       0.00002293 Ry

     total magnetization       =    -0.00 Bohr mag/cell
     absolute magnetization    =    37.55 Bohr mag/cell

     iteration # 47     ecut=    45.00 Ry     beta= 0.10
     Davidson diagonalization with overlap
     ethr =  1.89E-09,  avg # of iterations =  1.1

     total cpu time spent up to now is     1928.4 secs

     total energy              =  -14694.00338667 Ry
     Harris-Foulkes estimate   =  -14694.00338658 Ry
     estimated scf accuracy    <       0.00001014 Ry

     total magnetization       =    -0.00 Bohr mag/cell
     absolute magnetization    =    37.55 Bohr mag/cell

     iteration # 48     ecut=    45.00 Ry     beta= 0.10
     Davidson diagonalization with overlap
     ethr =  1.89E-09,  avg # of iterations =  1.0

     total cpu time spent up to now is     1962.5 secs

     total energy              =  -14694.00338674 Ry
     Harris-Foulkes estimate   =  -14694.00338670 Ry
     estimated scf accuracy    <       0.00000243 Ry

     total magnetization       =    -0.00 Bohr mag/cell
     absolute magnetization    =    37.55 Bohr mag/cell

     iteration # 49     ecut=    45.00 Ry     beta= 0.10
     Davidson diagonalization with overlap
     ethr =  8.19E-10,  avg # of iterations =  1.0

     total cpu time spent up to now is     1996.7 secs

     total energy              =  -14694.00338665 Ry
     Harris-Foulkes estimate   =  -14694.00338663 Ry
     estimated scf accuracy    <       0.00006360 Ry

     total magnetization       =    -0.00 Bohr mag/cell
     absolute magnetization    =    37.55 Bohr mag/cell

     iteration # 50     ecut=    45.00 Ry     beta= 0.10
     Davidson diagonalization with overlap
     ethr =  8.19E-10,  avg # of iterations =  1.0

     total cpu time spent up to now is     2030.8 secs

     total energy              =  -14694.00338655 Ry
     Harris-Foulkes estimate   =  -14694.00338667 Ry
     estimated scf accuracy    <       0.00000223 Ry

     total magnetization       =    -0.00 Bohr mag/cell
     absolute magnetization    =    37.55 Bohr mag/cell

     iteration # 51     ecut=    45.00 Ry     beta= 0.10
     Davidson diagonalization with overlap
     ethr =  7.55E-10,  avg # of iterations =  1.0

     total cpu time spent up to now is     2064.9 secs

     total energy              =  -14694.00338683 Ry
     Harris-Foulkes estimate   =  -14694.00338670 Ry
     estimated scf accuracy    <       0.00001328 Ry

     total magnetization       =    -0.00 Bohr mag/cell
     absolute magnetization    =    37.55 Bohr mag/cell

     iteration # 52     ecut=    45.00 Ry     beta= 0.10
     Davidson diagonalization with overlap
     ethr =  7.55E-10,  avg # of iterations =  1.0

     total cpu time spent up to now is     2099.0 secs

     total energy              =  -14694.00338685 Ry
     Harris-Foulkes estimate   =  -14694.00338676 Ry
     estimated scf accuracy    <       0.00000104 Ry

     total magnetization       =    -0.00 Bohr mag/cell
     absolute magnetization    =    37.55 Bohr mag/cell

     iteration # 53     ecut=    45.00 Ry     beta= 0.10
     Davidson diagonalization with overlap
     ethr =  3.53E-10,  avg # of iterations =  1.0
 
     Magnetic moment per site:
     atom:    1    charge:   13.5415    magn:    4.2871    constr:    0.0000
     atom:    2    charge:   13.5418    magn:   -4.2862    constr:    0.0000
     atom:    3    charge:   13.5418    magn:    4.2856    constr:    0.0000
     atom:    4    charge:   13.5417    magn:   -4.2863    constr:    0.0000
     atom:    5    charge:   13.5416    magn:    4.2867    constr:    0.0000
     atom:    6    charge:   13.5417    magn:   -4.2863    constr:    0.0000
     atom:    7    charge:   13.5418    magn:    4.2856    constr:    0.0000
     atom:    8    charge:   13.5418    magn:   -4.2862    constr:    0.0000
     atom:    9    charge:    9.1407    magn:    0.0372    constr:    0.0000
     atom:   10    charge:    9.1411    magn:   -0.0367    constr:    0.0000
     atom:   11    charge:    9.1412    magn:   -0.0369    constr:    0.0000
     atom:   12    charge:    9.1408    magn:    0.0369    constr:    0.0000
     atom:   13    charge:    9.1408    magn:    0.0367    constr:    0.0000
     atom:   14    charge:    9.1412    magn:   -0.0371    constr:    0.0000
     atom:   15    charge:    9.1412    magn:   -0.0370    constr:    0.0000
     atom:   16    charge:    9.1407    magn:    0.0369    constr:    0.0000
     atom:   17    charge:    9.1407    magn:    0.0369    constr:    0.0000
     atom:   18    charge:    9.1412    magn:   -0.0370    constr:    0.0000
     atom:   19    charge:    9.1412    magn:   -0.0371    constr:    0.0000
     atom:   20    charge:    9.1408    magn:    0.0367    constr:    0.0000
     atom:   21    charge:    9.1408    magn:    0.0369    constr:    0.0000
     atom:   22    charge:    9.1412    magn:   -0.0369    constr:    0.0000
     atom:   23    charge:    9.1411    magn:   -0.0367    constr:    0.0000
     atom:   24    charge:    9.1407    magn:    0.0372    constr:    0.0000

     total cpu time spent up to now is     2133.1 secs

     End of self-consistent calculation
 --- enter write_ns ---
 LDA+U parameters:
U(  1) =   3.1200   J(  1) =   0.7000   B(  1) =   0.0803
U(  2) =   3.1200   J(  2) =   0.7000   B(  2) =   0.0803
atom    1   Tr[ns(na)] (up, down, total) =   4.97727  0.69195  5.66921
   spin  1
    eigenvalues: 
  0.986  0.995  0.995  0.999  1.002
    eigenvectors:
  0.000  0.000  0.000  1.000  0.000
  0.000  0.126  0.874  0.000  0.000
  0.000  0.874  0.126  0.000  0.000
  0.000  0.000  0.000  0.000  1.000
  1.000  0.000  0.000  0.000  0.000
    occupations:
  0.999 -0.000 -0.000  0.000  0.000
 -0.000  0.995 -0.000  0.000  0.000
 -0.000 -0.000  0.995  0.000  0.000
  0.000  0.000  0.000  1.002 -0.000
  0.000  0.000  0.000 -0.000  0.986
   spin  2
    eigenvalues: 
  0.067  0.111  0.138  0.138  0.239
    eigenvectors:
  0.000  1.000  0.000  0.000  0.000
  0.000  0.000  0.141  0.859  0.000
  0.000  0.000  0.859  0.141  0.000
  1.000  0.000  0.000  0.000  0.000
  0.000  0.000  0.000  0.000  1.000
    occupations:
  0.111 -0.000 -0.000  0.000  0.000
 -0.000  0.138 -0.000  0.000  0.000
 -0.000 -0.000  0.138  0.000  0.000
  0.000  0.000  0.000  0.067 -0.000
  0.000  0.000  0.000 -0.000  0.239
atomic mag. moment =     4.285321
atom    2   Tr[ns(na)] (up, down, total) =   0.69256  4.97720  5.66976
   spin  1
    eigenvalues: 
  0.067  0.112  0.137  0.137  0.239
    eigenvectors:
  0.000  1.000  0.000  0.000  0.000
  0.000  0.000  0.113  0.887  0.000
  0.000  0.000  0.887  0.113  0.000
  1.000  0.000  0.000  0.000  0.000
  0.000  0.000  0.000  0.000  1.000
    occupations:
  0.112 -0.000 -0.000  0.000  0.000
 -0.000  0.137 -0.000  0.000  0.000
 -0.000 -0.000  0.137  0.000  0.000
  0.000  0.000  0.000  0.067 -0.000
  0.000  0.000  0.000 -0.000  0.239
   spin  2
    eigenvalues: 
  0.986  0.995  0.995  0.999  1.002
    eigenvectors:
  0.000  0.000  0.000  1.000  0.000
  0.000  0.106  0.894  0.000  0.000
  0.000  0.894  0.106  0.000  0.000
  0.000  0.000  0.000  0.000  1.000
  1.000  0.000  0.000  0.000  0.000
    occupations:
  0.999 -0.000 -0.000  0.000  0.000
 -0.000  0.995 -0.000  0.000  0.000
 -0.000 -0.000  0.995  0.000  0.000
  0.000  0.000  0.000  1.002 -0.000
  0.000  0.000  0.000 -0.000  0.986
atomic mag. moment =    -4.284631
atom    3   Tr[ns(na)] (up, down, total) =   4.97710  0.69297  5.67008
   spin  1
    eigenvalues: 
  0.986  0.995  0.995  0.999  1.002
    eigenvectors:
  0.000  0.000  0.000  1.000  0.000
  0.000  0.123  0.877  0.000  0.000
  0.000  0.877  0.123  0.000  0.000
  0.000  0.000  0.000  0.000  1.000
  1.000  0.000  0.000  0.000  0.000
    occupations:
  0.999 -0.000 -0.000  0.000  0.000
 -0.000  0.995 -0.000  0.000  0.000
 -0.000 -0.000  0.995  0.000  0.000
  0.000  0.000  0.000  1.002 -0.000
  0.000  0.000  0.000 -0.000  0.986
   spin  2
    eigenvalues: 
  0.067  0.112  0.137  0.137  0.239
    eigenvectors:
  0.000  1.000  0.000  0.000  0.000
  0.000  0.000  0.156  0.844  0.000
  0.000  0.000  0.844  0.156  0.000
  1.000  0.000  0.000  0.000  0.000
  0.000  0.000  0.000  0.000  1.000
    occupations:
  0.112 -0.000 -0.000  0.000  0.000
 -0.000  0.137 -0.000  0.000  0.000
 -0.000 -0.000  0.137  0.000  0.000
  0.000  0.000  0.000  0.067 -0.000
  0.000  0.000  0.000 -0.000  0.239
atomic mag. moment =     4.284130
atom    4   Tr[ns(na)] (up, down, total) =   0.69250  4.97716  5.66966
   spin  1
    eigenvalues: 
  0.067  0.112  0.138  0.138  0.239
    eigenvectors:
  0.000  1.000  0.000  0.000  0.000
  0.000  0.000  0.118  0.882  0.000
  0.000  0.000  0.882  0.118  0.000
  1.000  0.000  0.000  0.000  0.000
  0.000  0.000  0.000  0.000  1.000
    occupations:
  0.112 -0.000 -0.000  0.000  0.000
 -0.000  0.138 -0.000  0.000  0.000
 -0.000 -0.000  0.138  0.000  0.000
  0.000  0.000  0.000  0.067 -0.000
  0.000  0.000  0.000 -0.000  0.239
   spin  2
    eigenvalues: 
  0.986  0.995  0.995  0.999  1.002
    eigenvectors:
  0.000  0.000  0.000  1.000  0.000
  0.000  0.115  0.885  0.000  0.000
  0.000  0.885  0.115  0.000  0.000
  0.000  0.000  0.000  0.000  1.000
  1.000  0.000  0.000  0.000  0.000
    occupations:
  0.999 -0.000 -0.000  0.000  0.000
 -0.000  0.995 -0.000  0.000  0.000
 -0.000 -0.000  0.995  0.000  0.000
  0.000  0.000  0.000  1.002 -0.000
  0.000  0.000  0.000 -0.000  0.986
atomic mag. moment =    -4.284659
atom    5   Tr[ns(na)] (up, down, total) =   4.97724  0.69225  5.66948
   spin  1
    eigenvalues: 
  0.986  0.995  0.995  0.999  1.002
    eigenvectors:
  0.000  0.000  0.000  1.000  0.000
  0.000  0.136  0.864  0.000  0.000
  0.000  0.864  0.136  0.000  0.000
  0.000  0.000  0.000  0.000  1.000
  1.000  0.000  0.000  0.000  0.000
    occupations:
  0.999 -0.000 -0.000  0.000  0.000
 -0.000  0.995 -0.000  0.000  0.000
 -0.000 -0.000  0.995  0.000  0.000
  0.000  0.000  0.000  1.002 -0.000
  0.000  0.000  0.000 -0.000  0.986
   spin  2
    eigenvalues: 
  0.067  0.111  0.138  0.138  0.239
    eigenvectors:
  0.000  1.000  0.000  0.000  0.000
  0.000  0.000  0.116  0.884  0.000
  0.000  0.000  0.884  0.116  0.000
  1.000  0.000  0.000  0.000  0.000
  0.000  0.000  0.000  0.000  1.000
    occupations:
  0.111 -0.000 -0.000  0.000  0.000
 -0.000  0.138 -0.000  0.000  0.000
 -0.000 -0.000  0.138  0.000  0.000
  0.000  0.000  0.000  0.067 -0.000
  0.000  0.000  0.000 -0.000  0.239
atomic mag. moment =     4.284989
atom    6   Tr[ns(na)] (up, down, total) =   0.69250  4.97716  5.66966
   spin  1
    eigenvalues: 
  0.067  0.112  0.138  0.138  0.239
    eigenvectors:
  0.000  1.000  0.000  0.000  0.000
  0.000  0.000  0.130  0.870  0.000
  0.000  0.000  0.870  0.130  0.000
  1.000  0.000  0.000  0.000  0.000
  0.000  0.000  0.000  0.000  1.000
    occupations:
  0.112 -0.000 -0.000  0.000  0.000
 -0.000  0.138 -0.000  0.000  0.000
 -0.000 -0.000  0.138  0.000  0.000
  0.000  0.000  0.000  0.067 -0.000
  0.000  0.000  0.000 -0.000  0.239
   spin  2
    eigenvalues: 
  0.986  0.995  0.995  0.999  1.002
    eigenvectors:
  0.000  0.000  0.000  1.000  0.000
  0.000  0.115  0.885  0.000  0.000
  0.000  0.885  0.115  0.000  0.000
  0.000  0.000  0.000  0.000  1.000
  1.000  0.000  0.000  0.000  0.000
    occupations:
  0.999 -0.000 -0.000  0.000  0.000
 -0.000  0.995 -0.000  0.000  0.000
 -0.000 -0.000  0.995  0.000  0.000
  0.000  0.000  0.000  1.002 -0.000
  0.000  0.000  0.000 -0.000  0.986
atomic mag. moment =    -4.284659
atom    7   Tr[ns(na)] (up, down, total) =   4.97710  0.69297  5.67008
   spin  1
    eigenvalues: 
  0.986  0.995  0.995  0.999  1.002
    eigenvectors:
  0.000  0.000  0.000  1.000  0.000
  0.000  0.108  0.892  0.000  0.000
  0.000  0.892  0.108  0.000  0.000
  0.000  0.000  0.000  0.000  1.000
  1.000  0.000  0.000  0.000  0.000
    occupations:
  0.999 -0.000 -0.000  0.000  0.000
 -0.000  0.995 -0.000  0.000  0.000
 -0.000 -0.000  0.995  0.000  0.000
  0.000  0.000  0.000  1.002 -0.000
  0.000  0.000  0.000 -0.000  0.986
   spin  2
    eigenvalues: 
  0.067  0.112  0.137  0.137  0.239
    eigenvectors:
  0.000  1.000  0.000  0.000  0.000
  0.000  0.000  0.157  0.843  0.000
  0.000  0.000  0.843  0.157  0.000
  1.000  0.000  0.000  0.000  0.000
  0.000  0.000  0.000  0.000  1.000
    occupations:
  0.112 -0.000 -0.000  0.000  0.000
 -0.000  0.137 -0.000  0.000  0.000
 -0.000 -0.000  0.137  0.000  0.000
  0.000  0.000  0.000  0.067 -0.000
  0.000  0.000  0.000 -0.000  0.239
atomic mag. moment =     4.284130
atom    8   Tr[ns(na)] (up, down, total) =   0.69256  4.97720  5.66976
   spin  1
    eigenvalues: 
  0.067  0.112  0.137  0.137  0.239
    eigenvectors:
  0.000  1.000  0.000  0.000  0.000
  0.000  0.000  0.120  0.880  0.000
  0.000  0.000  0.880  0.120  0.000
  1.000  0.000  0.000  0.000  0.000
  0.000  0.000  0.000  0.000  1.000
    occupations:
  0.112 -0.000 -0.000  0.000  0.000
 -0.000  0.137 -0.000  0.000  0.000
 -0.000 -0.000  0.137  0.000  0.000
  0.000  0.000  0.000  0.067 -0.000
  0.000  0.000  0.000 -0.000  0.239
   spin  2
    eigenvalues: 
  0.986  0.995  0.995  0.999  1.002
    eigenvectors:
  0.000  0.000  0.000  1.000  0.000
  0.000  0.105  0.895  0.000  0.000
  0.000  0.895  0.105  0.000  0.000
  0.000  0.000  0.000  0.000  1.000
  1.000  0.000  0.000  0.000  0.000
    occupations:
  0.999 -0.000 -0.000  0.000  0.000
 -0.000  0.995 -0.000  0.000  0.000
 -0.000 -0.000  0.995  0.000  0.000
  0.000  0.000  0.000  1.002 -0.000
  0.000  0.000  0.000 -0.000  0.986
atomic mag. moment =    -4.284631
N of occupied +U levels =   45.357702
 --- exit write_ns ---

 ------ SPIN UP ------------


          k = 0.0000 0.0000 0.0000 ( 14071 PWs)   bands (ev):

   -67.0929 -67.0926 -67.0902 -67.0902 -62.4544 -62.4544 -62.4536 -62.4536
   -35.8623 -35.8618 -35.8595 -35.8595 -35.8063 -35.8063 -35.8061 -35.8061
   -35.8037 -35.8037 -35.8037 -35.8037 -31.2745 -31.2745 -31.2745 -31.2745
   -31.2738 -31.2738 -31.2738 -31.2738 -31.2704 -31.2704 -31.2696 -31.2696
     5.6264   5.7694   5.7695   6.1008   6.3075   6.8611   6.8613   7.4124
     8.1230   8.3196   8.3269   8.3396   8.3399   8.3626   8.3966   8.3968
     8.5175   8.6577   8.6581   8.8302   9.0006   9.0819   9.0823   9.1017
     9.1020   9.1538   9.1807   9.2320   9.7740   9.8051   9.8189   9.8195
     9.8349   9.9134   9.9158   9.9159   9.9569   9.9569   9.9574   9.9631
     9.9632  10.0090  10.0090  10.0094  10.0094  10.0571  10.1588  10.1588
    10.1743  10.1743  10.3248  10.3248  10.3258  10.3258  10.3266  10.3266
    10.3318  10.3318  10.3665  10.4227  10.4232  10.4320  10.4320  10.4320
    10.4320  10.4889  10.7094  10.7094  10.7680  10.8848  10.8848  10.8860
    10.8865  10.9927  11.0049  11.0997  11.0999  11.1937  11.2126  11.2126
    11.2131  11.2131  11.2345  11.2467  11.2476  11.2633  11.4783  11.4783
    11.5916  11.6343  11.6348  11.6699  11.8404  11.9193  11.9193  11.9201
    11.9206  11.9951  12.0904  12.0904  12.0905  12.0905  12.1994  12.1994
    12.5022  12.5337  12.5343  12.5437  12.5609  12.7240  12.7245  13.0738
    13.8785  14.6523  14.6527  15.4627  16.6423  16.6423  16.6798  16.6800
    16.6804  16.6806  16.6862  16.6862  16.6862  16.6862  16.7339  16.7339
    16.9032  16.9033  16.9037  16.9038  17.0593  17.2334  17.2334  17.2839
    18.2191  19.1637  19.1637  19.9273  19.9273  20.2967  20.2967  20.2968
    20.2968  20.9147

          k = 0.0000 0.0000 0.0159 ( 14107 PWs)   bands (ev):

   -67.0929 -67.0926 -67.0902 -67.0902 -62.4544 -62.4544 -62.4536 -62.4536
   -35.8623 -35.8618 -35.8595 -35.8595 -35.8063 -35.8063 -35.8061 -35.8061
   -35.8037 -35.8037 -35.8037 -35.8037 -31.2745 -31.2745 -31.2745 -31.2745
   -31.2738 -31.2738 -31.2738 -31.2738 -31.2704 -31.2704 -31.2696 -31.2696
     5.6304   5.7262   5.8200   6.0692   6.3455   6.7447   6.9796   7.3841
     8.1509   8.3202   8.3297   8.3343   8.3454   8.3617   8.3734   8.4218
     8.5117   8.5536   8.7487   8.8342   9.0032   9.0599   9.0769   9.1053
     9.1328   9.1436   9.1768   9.2272   9.7792   9.8055   9.8154   9.8231
     9.8343   9.8803   9.9165   9.9514   9.9570   9.9583   9.9583   9.9583
     9.9659   9.9932   9.9932  10.0281  10.0281  10.0520  10.1323  10.1323
    10.2034  10.2034  10.3229  10.3229  10.3261  10.3261  10.3266  10.3266
    10.3320  10.3320  10.3683  10.3847  10.3847  10.4077  10.4388  10.4830
    10.4830  10.4864  10.6884  10.6884  10.7724  10.8575  10.9073  10.9073
    10.9143  10.9891  11.0083  11.0758  11.1237  11.1475  11.1475  11.1904
    11.2349  11.2435  11.2510  11.2627  11.2766  11.2766  11.4672  11.4672
    11.5932  11.6243  11.6443  11.6688  11.8433  11.9005  11.9278  11.9278
    11.9399  11.9925  12.0556  12.0556  12.1219  12.1219  12.1962  12.1962
    12.5034  12.5263  12.5413  12.5488  12.5600  12.6698  12.7873  13.0530
    13.9121  14.4682  14.8399  15.4283  16.6437  16.6437  16.6745  16.6745
    16.6798  16.6800  16.6804  16.6806  16.6982  16.6982  16.7322  16.7322
    16.9032  16.9033  16.9037  16.9038  17.0722  17.2103  17.2508  17.2827
    18.2490  18.9038  19.4457  19.9380  19.9380  20.1874  20.1874  20.4223
    20.4223  20.6863

          k = 0.0000 0.0000 0.0319 ( 14080 PWs)   bands (ev):

   -67.0929 -67.0926 -67.0902 -67.0902 -62.4544 -62.4544 -62.4536 -62.4536
   -35.8623 -35.8618 -35.8595 -35.8595 -35.8063 -35.8063 -35.8061 -35.8061
   -35.8037 -35.8037 -35.8037 -35.8037 -31.2745 -31.2745 -31.2745 -31.2745
   -31.2738 -31.2738 -31.2738 -31.2738 -31.2704 -31.2704 -31.2696 -31.2696
     5.6425   5.6905   5.8773   6.0067   6.4271   6.6320   7.0974   7.3102
     8.2224   8.3222   8.3294   8.3386   8.3507   8.3508   8.3593   8.4459
     8.4479   8.4958   8.8136   8.8424   9.0110   9.0400   9.0682   9.1164
     9.1282   9.1639   9.1658   9.2134   9.7942   9.8069   9.8120   9.8268
     9.8327   9.8468   9.9250   9.9477   9.9606   9.9627   9.9627   9.9656
     9.9801   9.9801   9.9848  10.0372  10.0499  10.0499  10.1022  10.1022
    10.2413  10.2413  10.3125  10.3125  10.3264  10.3264  10.3266  10.3266
    10.3328  10.3328  10.3479  10.3479  10.3737  10.3939  10.4542  10.4792
    10.5361  10.5361  10.6429  10.6429  10.7852  10.8297  10.9400  10.9575
    10.9575  10.9786  11.0181  11.0532  11.0820  11.0820  11.1461  11.1808
    11.2360  11.2404  11.2548  11.2610  11.3369  11.3369  11.4365  11.4365
    11.5979  11.6142  11.6530  11.6655  11.8517  11.8815  11.9507  11.9507
    11.9579  11.9851  12.0189  12.0189  12.1489  12.1489  12.1865  12.1865
    12.5068  12.5189  12.5479  12.5575  12.5640  12.6246  12.8572  12.9996
    14.0037  14.2935  15.0228  15.3323  16.6480  16.6480  16.6638  16.6638
    16.6798  16.6800  16.6804  16.6806  16.7096  16.7096  16.7273  16.7273
    16.9032  16.9033  16.9037  16.9038  17.1046  17.1804  17.2637  17.2791
    18.3379  18.6735  19.7439  19.9701  19.9701  20.0958  20.0958  20.3705
    20.5628  20.5628

          k = 0.0000 0.0000-0.0478 ( 14088 PWs)   bands (ev):

   -67.0929 -67.0926 -67.0902 -67.0902 -62.4544 -62.4544 -62.4536 -62.4536
   -35.8623 -35.8618 -35.8595 -35.8595 -35.8063 -35.8063 -35.8061 -35.8061
   -35.8037 -35.8037 -35.8037 -35.8037 -31.2745 -31.2745 -31.2745 -31.2745
   -31.2738 -31.2738 -31.2738 -31.2738 -31.2704 -31.2704 -31.2696 -31.2696
     5.6625   5.6625   5.9403   5.9403   6.5252   6.5252   7.2101   7.2101
     8.3085   8.3085   8.3252   8.3252   8.3556   8.3556   8.3628   8.3629
     8.4733   8.4734   8.8420   8.8420   9.0234   9.0235   9.0846   9.0846
     9.1489   9.1490   9.1916   9.1917   9.8091   9.8091   9.8173   9.8174
     9.8301   9.8301   9.9363   9.9363   9.9634   9.9635   9.9699   9.9699
     9.9700   9.9700  10.0141  10.0142  10.0746  10.0746  10.0747  10.0747
    10.2804  10.2804  10.2805  10.2805  10.3264  10.3264  10.3266  10.3266
    10.3353  10.3353  10.3355  10.3355  10.3823  10.3824  10.4681  10.4681
    10.5901  10.5901  10.5901  10.5901  10.8050  10.8050  10.9618  10.9619
    11.0177  11.0177  11.0178  11.0178  11.0335  11.0336  11.1656  11.1657
    11.2377  11.2379  11.2582  11.2583  11.3913  11.3913  11.3914  11.3914
    11.6052  11.6052  11.6601  11.6602  11.8648  11.8649  11.9732  11.9733
    11.9827  11.9827  11.9828  11.9828  12.1706  12.1706  12.1707  12.1707
    12.5122  12.5122  12.5534  12.5534  12.5893  12.5894  12.9302  12.9302
    14.1355  14.1356  15.1914  15.1915  16.6547  16.6547  16.6549  16.6549
    16.6798  16.6800  16.6804  16.6806  16.7194  16.7194  16.7196  16.7196
    16.9032  16.9033  16.9037  16.9038  17.1438  17.1440  17.2727  17.2731
    18.4816  18.4819  20.0230  20.0230  20.0230  20.0230  20.0537  20.0537
    20.7167  20.7167

          k = 0.0000 0.1667 0.0000 ( 14044 PWs)   bands (ev):

   -67.0925 -67.0922 -67.0898 -67.0898 -62.4544 -62.4543 -62.4536 -62.4536
   -35.8621 -35.8616 -35.8593 -35.8593 -35.8092 -35.8090 -35.8067 -35.8067
   -35.8061 -35.8059 -35.8035 -35.8035 -31.2782 -31.2782 -31.2775 -31.2775
   -31.2743 -31.2743 -31.2736 -31.2736 -31.2700 -31.2700 -31.2692 -31.2692
     6.0545   6.1909   6.1909   6.5095   6.6825   7.1885   7.1887   7.6711
     8.1387   8.4692   8.4992   8.4993   8.5199   8.5205   8.5305   8.5413
     8.5800   8.5804   8.6972   8.7451   8.8974   9.0198   9.0200   9.0862
     9.2113   9.3651   9.3655   9.4783   9.5207   9.5516   9.5520   9.5595
     9.5683   9.5683   9.6034   9.6118   9.7021   9.7550   9.7554   9.7888
     9.9836  10.0047  10.0070  10.0075  10.0364  10.0813  10.0814  10.1179
    10.1598  10.2282  10.2288  10.2901  10.2932  10.2936  10.3367  10.3956
    10.4858  10.5196  10.5446  10.5449  10.6424  10.7104  10.7122  10.7122
    10.7687  10.8169  10.8194  10.8196  10.8460  10.9152  10.9180  10.9180
    11.0932  11.0932  11.1142  11.1410  11.1642  11.1646  11.1904  11.2153
    11.2280  11.2300  11.2303  11.4047  11.4906  11.5562  11.5565  11.5699
    11.6380  11.6477  11.6615  11.6620  11.6684  11.7198  11.8091  11.8096
    11.9210  11.9212  11.9823  12.0447  12.3067  12.3363  12.3485  12.3487
    12.4219  12.4283  12.4393  12.4398  12.4816  12.6742  12.6747  13.2043
    13.9517  14.8724  14.8727  15.6938  16.3037  16.3171  16.3393  16.3393
    16.6514  16.6840  16.6840  16.6957  16.7406  16.7544  16.7544  16.7709
    16.8730  16.8880  16.8880  16.9003  17.2498  17.3413  17.3414  17.7172
    17.7542  18.1340  18.1342  18.4091  18.8467  19.0409  19.6862  19.6862
    19.9661  19.9662

          k = 0.0000 0.1667 0.0159 ( 14046 PWs)   bands (ev):

   -67.0925 -67.0922 -67.0898 -67.0898 -62.4544 -62.4543 -62.4536 -62.4536
   -35.8621 -35.8616 -35.8593 -35.8593 -35.8092 -35.8090 -35.8067 -35.8067
   -35.8061 -35.8059 -35.8035 -35.8035 -31.2782 -31.2782 -31.2775 -31.2775
   -31.2743 -31.2743 -31.2736 -31.2736 -31.2700 -31.2700 -31.2692 -31.2692
     6.0583   6.1497   6.2390   6.4776   6.7198   7.0851   7.2928   7.6456
     8.1608   8.4336   8.4712   8.5084   8.5236   8.5314   8.5406   8.5609
     8.5627   8.6068   8.6898   8.7370   8.9051   8.9978   9.0392   9.0842
     9.2167   9.3252   9.4069   9.4816   9.5217   9.5427   9.5466   9.5482
     9.5620   9.5884   9.6007   9.6151   9.7049   9.7446   9.7648   9.7877
     9.9844  10.0010  10.0071  10.0137  10.0350  10.0611  10.1016  10.1215
    10.1571  10.1969  10.2646  10.2902  10.2918  10.2962  10.3303  10.4061
    10.4464  10.5171  10.5613  10.5700  10.6384  10.7114  10.7129  10.7137
    10.7593  10.7846  10.8179  10.8303  10.8618  10.9013  10.9139  10.9579
    11.0451  11.1142  11.1168  11.1302  11.1671  11.1854  11.1920  11.2105
    11.2296  11.2307  11.2333  11.3903  11.4929  11.5398  11.5723  11.5766
    11.6389  11.6487  11.6560  11.6671  11.6716  11.7287  11.7634  11.8538
    11.8808  11.9571  11.9760  12.0410  12.3084  12.3388  12.3396  12.3549
    12.4213  12.4293  12.4350  12.4507  12.4802  12.5984  12.7638  13.1681
    13.9997  14.6713  15.0709  15.6601  16.3092  16.3181  16.3351  16.3413
    16.6532  16.6786  16.6881  16.6955  16.7410  16.7506  16.7583  16.7703
    16.8736  16.8845  16.8914  16.9000  17.2518  17.3091  17.3843  17.6692
    17.7813  18.0346  18.2452  18.4714  18.7634  19.1295  19.3910  19.7687
    20.0270  20.1335

          k = 0.0000 0.1667 0.0319 ( 14043 PWs)   bands (ev):

   -67.0925 -67.0922 -67.0898 -67.0898 -62.4544 -62.4543 -62.4536 -62.4536
   -35.8621 -35.8616 -35.8593 -35.8593 -35.8092 -35.8090 -35.8067 -35.8067
   -35.8061 -35.8059 -35.8035 -35.8035 -31.2782 -31.2782 -31.2775 -31.2775
   -31.2743 -31.2743 -31.2736 -31.2736 -31.2700 -31.2700 -31.2692 -31.2692
     6.0698   6.1157   6.2934   6.4169   6.7967   6.9840   7.3954   7.5804
     8.2159   8.3609   8.4770   8.4970   8.5304   8.5342   8.5386   8.5477
     8.6082   8.6421   8.6701   8.7145   8.9241   8.9737   9.0556   9.0783
     9.2323   9.2884   9.4481   9.4913   9.5215   9.5244   9.5253   9.5350
     9.5728   9.5935   9.6045   9.6182   9.7122   9.7334   9.7730   9.7847
     9.9867   9.9953  10.0144  10.0201  10.0313  10.0423  10.1205  10.1319
    10.1492  10.1700  10.2903  10.2910  10.3010  10.3049  10.3187  10.3965
    10.4296  10.4877  10.5925  10.6178  10.6277  10.7132  10.7141  10.7188
    10.7329  10.7427  10.8207  10.8291  10.8973  10.9008  10.9103  10.9924
    11.0080  11.1003  11.1145  11.1180  11.1773  11.1963  11.2007  11.2042
    11.2341  11.2354  11.2548  11.3534  11.4997  11.5241  11.5858  11.5896
    11.6415  11.6505  11.6561  11.6715  11.6749  11.7188  11.7556  11.8378
    11.8946  11.9579  11.9878  12.0302  12.3132  12.3298  12.3451  12.3564
    12.4201  12.4222  12.4550  12.4611  12.4762  12.5364  12.8648  13.0804
    14.1223  14.4735  15.2589  15.5663  16.3207  16.3213  16.3299  16.3394
    16.6581  16.6720  16.6912  16.6947  16.7423  16.7473  16.7622  16.7685
    16.8752  16.8810  16.8944  16.8988  17.2580  17.2856  17.4399  17.5893
    17.8222  17.9484  18.3663  18.6300  18.6319  19.1091  19.2787  19.6058
    20.3059  20.3468

          k = 0.0000 0.1667-0.0478 ( 14036 PWs)   bands (ev):

   -67.0925 -67.0922 -67.0898 -67.0898 -62.4544 -62.4543 -62.4536 -62.4536
   -35.8621 -35.8616 -35.8593 -35.8593 -35.8092 -35.8090 -35.8067 -35.8067
   -35.8061 -35.8059 -35.8035 -35.8035 -31.2782 -31.2782 -31.2775 -31.2775
   -31.2743 -31.2743 -31.2736 -31.2736 -31.2700 -31.2700 -31.2692 -31.2692
     6.0890   6.0890   6.3534   6.3534   6.8870   6.8871   7.4933   7.4933
     8.2864   8.2864   8.4859   8.4860   8.5351   8.5352   8.5393   8.5394
     8.6424   8.6425   8.6812   8.6812   8.9484   8.9484   9.0687   9.0688
     9.2568   9.2568   9.4870   9.4870   9.5062   9.5063   9.5288   9.5289
     9.5836   9.5836   9.6149   9.6149   9.7222   9.7223   9.7797   9.7798
     9.9904   9.9905  10.0261  10.0261  10.0263  10.0264  10.1367  10.1368
    10.1482  10.1483  10.2905  10.2906  10.3085  10.3085  10.3490  10.3490
    10.4579  10.4579  10.6119  10.6120  10.6758  10.6758  10.7143  10.7143
    10.7284  10.7285  10.8248  10.8249  10.9053  10.9055  10.9422  10.9422
    11.0575  11.0576  11.1158  11.1159  11.1892  11.1892  11.2017  11.2018
    11.2357  11.2358  11.3047  11.3047  11.5103  11.5104  11.5934  11.5935
    11.6454  11.6455  11.6745  11.6745  11.6802  11.6802  11.7945  11.7946
    11.9300  11.9301  12.0123  12.0124  12.3206  12.3207  12.3523  12.3523
    12.4196  12.4197  12.4697  12.4698  12.4887  12.4888  12.9732  12.9732
    14.2869  14.2870  15.4277  15.4279  16.3248  16.3249  16.3326  16.3327
    16.6647  16.6650  16.6931  16.6935  16.7443  16.7446  16.7655  16.7658
    16.8777  16.8779  16.8968  16.8970  17.2688  17.2692  17.5091  17.5092
    17.8773  17.8774  18.4953  18.4954  18.8519  18.8521  19.4399  19.4399
    20.4749  20.4749

          k = 0.0000 0.3333 0.0000 ( 14062 PWs)   bands (ev):

   -67.0928 -67.0925 -67.0901 -67.0901 -62.4534 -62.4534 -62.4526 -62.4526
   -35.8615 -35.8610 -35.8587 -35.8587 -35.8150 -35.8148 -35.8125 -35.8125
   -35.8057 -35.8055 -35.8032 -35.8032 -31.2857 -31.2857 -31.2850 -31.2850
   -31.2738 -31.2738 -31.2731 -31.2731 -31.2692 -31.2692 -31.2684 -31.2684
     7.1899   7.2961   7.2962   7.5405   7.5911   7.8567   7.8568   8.0471
     8.0670   8.1925   8.1925   8.3331   8.3681   8.5578   8.5581   8.6804
     8.8470   8.9474   8.9637   8.9640   8.9799   8.9800   9.0015   9.1707
     9.2080   9.2168   9.2169   9.2201   9.2572   9.2794   9.2794   9.3161
     9.4443   9.4729   9.4899   9.4899   9.6569   9.6863   9.7627   9.7631
     9.8493   9.9467   9.9470   9.9534  10.0129  10.0135  10.0629  10.4071
    10.4212  10.4263  10.4849  10.5031  10.5120  10.5124  10.5822  10.5824
    10.5898  10.5898  10.7032  10.7783  10.8101  10.8173  10.9192  10.9195
[...]
    11.1019  11.1074  11.1094  11.1239  11.3631  11.3664  11.3751  11.3782
    11.3833  11.4963  11.6978  11.7224  11.7233  11.7255  11.7260  11.7446
    11.7581  11.7627  11.8134  11.8483  12.0553  12.0791  12.0870  12.0980
    12.1064  12.1477  12.2687  12.2747  12.2962  12.3151  12.4570  12.5728
    12.8637  12.9967  13.2641  13.3882  13.8020  13.9514  14.2653  14.3772
    15.5029  15.5064  15.5138  15.5158  15.6565  15.7270  15.9084  15.9772
    16.1746  16.2397  16.4403  16.5246  16.9367  16.9372  16.9376  16.9382
    17.0445  17.1391  17.4497  17.5448  17.5596  17.6281  17.6401  17.7130
    17.7141  17.7170  17.7974  17.8591  18.1521  18.2324  18.2776  18.4200
    18.4876  18.5328

          k = 0.3333 0.3333-0.0478 ( 14082 PWs)   bands (ev):

   -67.0905 -67.0905 -67.0895 -67.0895 -62.4544 -62.4540 -62.4524 -62.4524
   -35.8600 -35.8600 -35.8588 -35.8588 -35.8135 -35.8135 -35.8134 -35.8134
   -35.8126 -35.8126 -35.8125 -35.8125 -31.2854 -31.2852 -31.2851 -31.2848
   -31.2836 -31.2836 -31.2833 -31.2833 -31.2692 -31.2688 -31.2671 -31.2671
     7.8639   7.8639   8.0753   8.0753   8.4754   8.4755   8.5199   8.5200
     8.8058   8.8058   8.8278   8.8279   8.8604   8.8605   8.8933   8.8934
     8.9374   8.9376   9.1972   9.1973   9.2102   9.2102   9.2401   9.2402
     9.2496   9.2497   9.3555   9.3555   9.3932   9.3933   9.5639   9.5641
     9.6031   9.6032   9.7271   9.7273   9.7623   9.7626   9.8158   9.8158
     9.8402   9.8403   9.8890   9.8891   9.9341   9.9341  10.0173  10.0173
    10.0577  10.0577  10.1979  10.1979  10.3436  10.3436  10.3646  10.3646
    10.3937  10.3938  10.4570  10.4571  10.6960  10.6961  10.7377  10.7377
    10.9157  10.9159  10.9414  10.9415  11.0326  11.0327  11.1007  11.1008
    11.1023  11.1025  11.1085  11.1086  11.3644  11.3647  11.3768  11.3770
    11.4387  11.4388  11.7227  11.7228  11.7258  11.7259  11.7343  11.7344
    11.7501  11.7501  11.8312  11.8313  12.0666  12.0667  12.1031  12.1032
    12.1152  12.1152  12.2785  12.2787  12.2978  12.2978  12.5136  12.5136
    12.9295  12.9295  13.3282  13.3283  13.8731  13.8731  14.3281  14.3282
    15.5044  15.5046  15.5149  15.5150  15.6877  15.6877  15.9468  15.9469
    16.2024  16.2024  16.4871  16.4872  16.9367  16.9369  16.9378  16.9380
    17.0855  17.0855  17.5437  17.5437  17.5506  17.5508  17.6758  17.6758
    17.7057  17.7057  17.8275  17.8276  18.2112  18.2113  18.3500  18.3500
    18.5552  18.5552

          k = 0.3333-0.5000 0.0000 ( 14154 PWs)   bands (ev):

   -67.0906 -67.0906 -67.0896 -67.0896 -62.4540 -62.4536 -62.4520 -62.4520
   -35.8598 -35.8598 -35.8587 -35.8587 -35.8162 -35.8162 -35.8153 -35.8153
   -35.8132 -35.8132 -35.8123 -35.8123 -31.2890 -31.2886 -31.2872 -31.2872
   -31.2850 -31.2846 -31.2831 -31.2831 -31.2689 -31.2686 -31.2669 -31.2669
     8.1143   8.1560   8.2133   8.2134   8.2408   8.2414   8.2852   8.5516
     8.5981   8.9116   8.9251   8.9253   8.9260   8.9296   8.9299   8.9312
     8.9670   8.9672   8.9835   8.9909   9.0591   9.0591   9.0982   9.1471
     9.1574   9.2899   9.2901   9.3778   9.5100   9.5102   9.5190   9.5573
     9.7187   9.7189   9.7405   9.7406   9.7425   9.7973   9.7976   9.7978
     9.9709  10.0035  10.0037  10.0832  10.1273  10.1295  10.1297  10.1481
    10.2715  10.2715  10.3715  10.3913  10.4761  10.4805  10.6006  10.6011
    10.7259  10.7260  10.7641  10.7675  10.8374  10.9049  10.9134  10.9135
    10.9296  10.9603  10.9604  11.0555  11.1035  11.1779  11.2053  11.2056
    11.2180  11.2181  11.2224  11.2995  11.4709  11.5079  11.5079  11.5388
    11.6680  11.6944  11.6951  11.7154  11.8130  11.8492  11.8494  11.8830
    11.8943  11.9282  11.9346  11.9347  11.9752  12.0267  12.0267  12.1368
    12.1511  12.1625  12.1628  12.2868  12.6604  12.8914  12.8917  13.0970
    13.1199  13.3597  13.3598  13.6075  13.7601  14.0039  14.0041  14.2859
    14.7162  14.8692  14.8695  14.9545  14.9989  15.3761  15.3765  15.7950
    16.3751  16.3990  16.3995  16.4357  16.8675  16.8740  16.8766  16.8766
    16.8833  17.1838  17.1846  17.4415  17.5325  17.6863  17.6869  17.7316
    17.7584  17.8610  18.0615  18.0617  18.0976  18.0979  18.6807  18.8656
    18.9221  19.0050

          k = 0.3333-0.5000 0.0159 ( 14140 PWs)   bands (ev):

   -67.0906 -67.0906 -67.0896 -67.0896 -62.4540 -62.4536 -62.4520 -62.4520
   -35.8598 -35.8598 -35.8587 -35.8587 -35.8162 -35.8162 -35.8153 -35.8153
   -35.8132 -35.8132 -35.8123 -35.8123 -31.2890 -31.2886 -31.2872 -31.2872
   -31.2850 -31.2846 -31.2831 -31.2831 -31.2689 -31.2686 -31.2669 -31.2669
     8.1179   8.1578   8.1974   8.2031   8.2302   8.2824   8.2850   8.5065
     8.6442   8.8840   8.9122   8.9246   8.9266   8.9333   8.9350   8.9365
     8.9638   8.9823   8.9907   8.9946   9.0352   9.0836   9.0937   9.1522
     9.1538   9.2523   9.3303   9.3824   9.4757   9.4938   9.5457   9.5815
     9.6903   9.7155   9.7209   9.7604   9.7710   9.7737   9.7961   9.8216
     9.9710   9.9899  10.0204  10.0799  10.0864  10.1144  10.1529  10.1822
    10.2418  10.3010  10.3863  10.3867  10.4198  10.5340  10.5585  10.6399
    10.7024  10.7425  10.7554  10.7668  10.8446  10.9051  10.9110  10.9162
    10.9285  10.9314  10.9910  11.0623  11.0958  11.1736  11.1819  11.2138
    11.2208  11.2225  11.2338  11.2969  11.4723  11.4993  11.5161  11.5378
    11.6690  11.6882  11.7009  11.7148  11.8140  11.8384  11.8608  11.8854
    11.8929  11.9264  11.9291  11.9384  11.9765  12.0099  12.0471  12.1313
    12.1504  12.1519  12.1808  12.2793  12.6703  12.8371  12.9461  13.1069
    13.1107  13.2954  13.4232  13.5987  13.7695  13.9435  14.0664  14.2729
    14.7221  14.8328  14.9044  14.9720  14.9947  15.2755  15.4773  15.7785
    16.3758  16.3921  16.4071  16.4341  16.8741  16.8757  16.8777  16.8807
    16.8829  17.1101  17.2580  17.4525  17.5106  17.6435  17.7157  17.7535
    17.7571  17.8637  17.9772  18.0144  18.1760  18.1882  18.6132  18.8140
    18.9382  18.9954

          k = 0.3333-0.5000 0.0319 ( 14128 PWs)   bands (ev):

   -67.0906 -67.0906 -67.0896 -67.0896 -62.4540 -62.4536 -62.4520 -62.4520
   -35.8598 -35.8598 -35.8587 -35.8587 -35.8162 -35.8162 -35.8153 -35.8153
   -35.8132 -35.8132 -35.8123 -35.8123 -31.2890 -31.2886 -31.2872 -31.2872
   -31.2850 -31.2846 -31.2831 -31.2831 -31.2689 -31.2686 -31.2669 -31.2669
     8.1287   8.1631   8.1715   8.1833   8.2469   8.2744   8.3344   8.4465
     8.7074   8.8298   8.9138   8.9201   8.9284   8.9346   8.9379   8.9393
     8.9684   8.9789   8.9919   9.0141   9.0292   9.0803   9.1069   9.1435
     9.1668   9.2183   9.3719   9.3956   9.4439   9.4549   9.5814   9.6172
     9.6535   9.6858   9.7272   9.7534   9.7752   9.7923   9.8056   9.8363
     9.9718   9.9803  10.0387  10.0611  10.0705  10.0864  10.1667  10.2132
    10.2395  10.3289  10.3598  10.3737  10.4223  10.5134  10.5856  10.6707
    10.6756  10.7344  10.7535  10.7647  10.8610  10.9050  10.9059  10.9089
    10.9193  10.9258  11.0218  11.0767  11.0810  11.1403  11.1907  11.2078
    11.2221  11.2227  11.2576  11.2892  11.4766  11.4908  11.5236  11.5347
    11.6717  11.6818  11.7061  11.7131  11.8169  11.8292  11.8719  11.8885
    11.8924  11.9150  11.9318  11.9380  11.9804  11.9969  12.0704  12.1161
    12.1476  12.1488  12.2052  12.2595  12.6976  12.7848  12.9985  13.0848
    13.1353  13.2338  13.4823  13.5733  13.7963  13.8869  14.1284  14.2374
    14.7390  14.7971  14.9360  14.9823  15.0206  15.1793  15.5739  15.7315
    16.3779  16.3861  16.4153  16.4297  16.8742  16.8751  16.8790  16.8819
    16.9176  17.0382  17.3298  17.4602  17.4842  17.5888  17.7343  17.7532
    17.8040  17.8727  17.9226  17.9376  18.2860  18.3148  18.5023  18.6415
    19.0044  19.0461

          k = 0.3333-0.5000-0.0478 ( 14140 PWs)   bands (ev):

   -67.0906 -67.0906 -67.0896 -67.0896 -62.4540 -62.4536 -62.4520 -62.4520
   -35.8598 -35.8598 -35.8587 -35.8587 -35.8162 -35.8162 -35.8153 -35.8153
   -35.8132 -35.8132 -35.8123 -35.8123 -31.2890 -31.2886 -31.2872 -31.2872
   -31.2850 -31.2846 -31.2831 -31.2831 -31.2689 -31.2686 -31.2669 -31.2669
     8.1466   8.1467   8.1717   8.1717   8.2620   8.2621   8.3885   8.3886
     8.7700   8.7701   8.9164   8.9165   8.9312   8.9313   8.9407   8.9408
     8.9739   8.9740   8.9989   8.9990   9.0585   9.0585   9.1273   9.1274
     9.1893   9.1894   9.4138   9.4138   9.4165   9.4166   9.6172   9.6173
     9.6525   9.6526   9.7378   9.7380   9.7854   9.7856   9.8307   9.8307
     9.9745   9.9745  10.0562  10.0562  10.0626  10.0628  10.1875  10.1876
    10.2993  10.2993  10.3537  10.3538  10.4669  10.4671  10.6317  10.6318
    10.7070  10.7071  10.7605  10.7606  10.8815  10.8817  10.9071  10.9072
    10.9225  10.9226  11.0509  11.0512  11.1083  11.1083  11.1998  11.2000
    11.2225  11.2228  11.2760  11.2761  11.4829  11.4830  11.5298  11.5299
    11.6760  11.6762  11.7101  11.7103  11.8219  11.8220  11.8813  11.8814
    11.9029  11.9029  11.9352  11.9352  11.9871  11.9872  12.0944  12.0946
    12.1473  12.1473  12.2329  12.2330  12.7372  12.7373  13.0459  13.0460
    13.1790  13.1791  13.5334  13.5335  13.8367  13.8367  14.1870  14.1870
    14.7649  14.7649  14.9624  14.9624  15.0923  15.0923  15.6608  15.6609
    16.3813  16.3813  16.4231  16.4231  16.8745  16.8747  16.8804  16.8806
    16.9722  16.9723  17.3979  17.3979  17.5321  17.5321  17.7459  17.7461
    17.8670  17.8671  17.8905  17.8906  18.3911  18.3911  18.4718  18.4719
    19.0221  19.0222

          k =-0.5000-0.5000 0.0000 ( 14124 PWs)   bands (ev):

   -67.0906 -67.0906 -67.0896 -67.0896 -62.4538 -62.4534 -62.4518 -62.4518
   -35.8597 -35.8597 -35.8585 -35.8585 -35.8159 -35.8159 -35.8159 -35.8159
   -35.8150 -35.8150 -35.8150 -35.8150 -31.2887 -31.2887 -31.2883 -31.2883
   -31.2868 -31.2868 -31.2868 -31.2868 -31.2687 -31.2683 -31.2667 -31.2667
     7.9947   8.0051   8.0717   8.0717   8.1164   8.1169   8.1610   8.3613
     8.6006   8.8113   8.9364   8.9368   9.0040   9.0040   9.0748   9.0748
     9.1186   9.1186   9.1189   9.1189   9.1672   9.2449   9.2463   9.2463
     9.2690   9.2690   9.5045   9.5045   9.5047   9.5047   9.5762   9.6799
     9.6799   9.6816   9.6816   9.6818   9.6818   9.6822   9.6822   9.7473
     9.7474   9.8469   9.8469   9.8474   9.9001   9.9001  10.3275  10.3513
    10.3513  10.3513  10.3513  10.4188  10.4195  10.5003  10.7490  10.7490
    10.9733  11.0237  11.0292  11.0292  11.0352  11.0352  11.0474  11.0848
    11.1497  11.1497  11.1503  11.1503  11.2690  11.2690  11.6936  11.6936
    11.6937  11.6937  11.7555  11.7555  11.7557  11.7557  11.7797  11.7801
    11.7804  11.7808  11.8360  11.8360  11.8362  11.8362  11.8623  11.8627
    11.8631  11.8634  11.9581  11.9724  11.9724  11.9863  12.0017  12.0247
    12.0247  12.0849  12.0854  12.1613  13.2107  13.2205  13.2210  13.2312
    13.6785  13.6785  13.9453  13.9453  13.9456  13.9456  14.1739  14.1739
    15.5963  15.5963  15.6761  15.6761  15.6768  15.6768  15.8151  15.8151
    16.3478  16.3837  16.3840  16.4761  16.5535  16.7780  16.7782  17.0859
    17.2686  17.2686  17.4579  17.4885  17.5363  17.5368  17.6227  17.7971
    17.7975  17.7989  17.7990  17.8357  17.8357  17.8362  17.8362  17.9545
    17.9546  18.3155

          k =-0.5000-0.5000 0.0159 ( 14144 PWs)   bands (ev):

   -67.0906 -67.0906 -67.0896 -67.0896 -62.4538 -62.4534 -62.4518 -62.4518
   -35.8597 -35.8597 -35.8585 -35.8585 -35.8159 -35.8159 -35.8159 -35.8159
   -35.8150 -35.8150 -35.8150 -35.8150 -31.2887 -31.2887 -31.2883 -31.2883
   -31.2868 -31.2868 -31.2868 -31.2868 -31.2687 -31.2683 -31.2667 -31.2667
     7.9982   8.0071   8.0529   8.0803   8.0919   8.1573   8.1584   8.3435
     8.6213   8.8180   8.8699   8.9536   8.9990   9.0566   9.0760   9.0760
     9.1052   9.1052   9.1349   9.1349   9.1596   9.2255   9.2255   9.2334
     9.2928   9.2928   9.4555   9.4555   9.5568   9.5568   9.5855   9.6797
     9.6797   9.6817   9.6817   9.6819   9.6819   9.6822   9.6822   9.7143
     9.7767   9.7994   9.7994   9.8445   9.9509   9.9509  10.2663  10.2663
    10.3309  10.3969  10.4370  10.4370  10.4407  10.4976  10.7285  10.7285
    10.9753  11.0150  11.0241  11.0322  11.0383  11.0434  11.0470  11.0829
    11.1497  11.1497  11.1503  11.1503  11.2907  11.2907  11.6030  11.6030
    11.7555  11.7555  11.7557  11.7557  11.7797  11.7800  11.7803  11.7803
    11.7805  11.7808  11.8360  11.8360  11.8362  11.8362  11.8624  11.8627
    11.8631  11.8634  11.9586  11.9687  11.9760  11.9858  12.0047  12.0131
    12.0131  12.0643  12.1055  12.1588  13.2111  13.2181  13.2234  13.2308
    13.6886  13.6886  13.8812  13.8812  14.0074  14.0074  14.1666  14.1666
    15.5985  15.5985  15.6520  15.6520  15.7046  15.7046  15.8087  15.8087
    16.3488  16.3727  16.3972  16.4672  16.5661  16.7247  16.8358  17.0665
    17.2876  17.2876  17.4605  17.5130  17.5155  17.5581  17.6196  17.6820
    17.6820  17.7971  17.7976  17.7990  17.7990  17.8549  18.0036  18.0036
    18.0500  18.3033

          k =-0.5000-0.5000 0.0319 ( 14180 PWs)   bands (ev):

   -67.0906 -67.0906 -67.0896 -67.0896 -62.4538 -62.4534 -62.4518 -62.4518
   -35.8597 -35.8597 -35.8585 -35.8585 -35.8159 -35.8159 -35.8159 -35.8159
   -35.8150 -35.8150 -35.8150 -35.8150 -31.2887 -31.2887 -31.2883 -31.2883
   -31.2868 -31.2868 -31.2868 -31.2868 -31.2687 -31.2683 -31.2667 -31.2667
     8.0086   8.0132   8.0365   8.0499   8.1123   8.1469   8.2046   8.3024
     8.6710   8.8013   8.8375   8.9075   9.0549   9.0796   9.0796   9.0942
     9.0942   9.1093   9.1373   9.1537   9.1537   9.1992   9.1992   9.2025
     9.3282   9.3282   9.4097   9.4097   9.6101   9.6120   9.6120   9.6789
     9.6789   9.6789   9.6817   9.6817   9.6820   9.6820   9.6825   9.6825
     9.7365   9.7365   9.8016   9.8358  10.0243  10.0243  10.1831  10.1831
    10.3408  10.3754  10.4603  10.4896  10.5218  10.5218  10.6751  10.6751
    10.9810  11.0016  11.0252  11.0294  11.0412  11.0457  11.0567  11.0772
    11.1497  11.1497  11.1503  11.1503  11.3474  11.3474  11.5119  11.5119
    11.7555  11.7555  11.7557  11.7557  11.7797  11.7799  11.7806  11.7808
    11.8360  11.8360  11.8362  11.8362  11.8593  11.8593  11.8624  11.8626
    11.8632  11.8634  11.9601  11.9653  11.9794  11.9797  11.9797  11.9844
    12.0134  12.0445  12.1240  12.1514  13.2120  13.2157  13.2259  13.2298
    13.7177  13.7177  13.8186  13.8186  14.0632  14.0632  14.1449  14.1449
    15.6051  15.6051  15.6318  15.6318  15.7348  15.7348  15.7907  15.7907
    16.3518  16.3637  16.4127  16.4492  16.5952  16.6761  16.8969  17.0190
    17.3431  17.3431  17.4680  17.4963  17.5456  17.5456  17.5758  17.5786
    17.6107  17.7552  17.7971  17.7976  17.7990  17.7990  18.1369  18.1817
    18.1817  18.2676

          k =-0.5000-0.5000-0.0478 ( 14176 PWs)   bands (ev):

   -67.0906 -67.0906 -67.0896 -67.0896 -62.4538 -62.4534 -62.4518 -62.4518
   -35.8597 -35.8597 -35.8585 -35.8585 -35.8159 -35.8159 -35.8159 -35.8159
   -35.8150 -35.8150 -35.8150 -35.8150 -31.2887 -31.2887 -31.2883 -31.2883
   -31.2868 -31.2868 -31.2868 -31.2868 -31.2687 -31.2683 -31.2667 -31.2667
     8.0230   8.0231   8.0259   8.0260   8.1312   8.1313   8.2536   8.2537
     8.7337   8.7337   8.8680   8.8681   9.0856   9.0856   9.0857   9.0857
     9.1017   9.1018   9.1592   9.1592   9.1751   9.1751   9.1751   9.1751
     9.3672   9.3672   9.3673   9.3673   9.6430   9.6430   9.6658   9.6658
     9.6658   9.6658   9.6817   9.6817   9.6821   9.6821   9.6874   9.6874
     9.6878   9.6878   9.8214   9.8214  10.1022  10.1022  10.1022  10.1022
    10.3561  10.3562  10.4769  10.4770  10.6029  10.6029  10.6030  10.6030
    10.9898  10.9903  11.0270  11.0270  11.0437  11.0438  11.0680  11.0686
    11.1497  11.1497  11.1503  11.1503  11.4246  11.4246  11.4247  11.4247
    11.7555  11.7555  11.7557  11.7557  11.7798  11.7798  11.7806  11.7807
    11.8360  11.8360  11.8362  11.8362  11.8625  11.8625  11.8632  11.8634
    11.9271  11.9271  11.9272  11.9272  11.9623  11.9624  11.9822  11.9823
    12.0270  12.0271  12.1396  12.1396  13.2135  13.2137  13.2280  13.2282
    13.7625  13.7625  13.7626  13.7626  14.1098  14.1098  14.1099  14.1099
    15.6161  15.6161  15.6161  15.6161  15.7647  15.7647  15.7647  15.7647
    16.3567  16.3567  16.4302  16.4303  16.6327  16.6328  16.9594  16.9594
    17.4308  17.4308  17.4309  17.4309  17.4802  17.4803  17.5966  17.5967
    17.6601  17.6601  17.7971  17.7975  17.7990  17.7990  18.2108  18.2110
    18.3671  18.3671

     the Fermi energy is    15.0881 ev

!    total energy              =  -14694.00338693 Ry
     Harris-Foulkes estimate   =  -14694.00338679 Ry
     estimated scf accuracy    <       0.00000049 Ry

     total all-electron energy =   -626921.599109 Ry

     The total energy is the sum of the following terms:

     one-electron contribution =    -729.38979367 Ry
     hartree contribution      =     661.16635615 Ry
     xc contribution           =    -737.71394815 Ry
     ewald contribution        =   -2186.64874840 Ry
     Hubbard energy            =       0.42619953 Ry
     one-center paw contrib.   =  -11701.84345240 Ry

     total magnetization       =    -0.00 Bohr mag/cell
     absolute magnetization    =    37.55 Bohr mag/cell

     convergence has been achieved in  53 iterations

     Writing output data file mnau2.save/
 
     init_run     :     18.52s CPU     18.94s WALL (       1 calls)
     electrons    :   2062.10s CPU   2111.19s WALL (       1 calls)

     Called by init_run:
     wfcinit      :     17.31s CPU     17.68s WALL (       1 calls)
     potinit      :      0.54s CPU      0.55s WALL (       1 calls)
     hinit0       :      0.39s CPU      0.41s WALL (       1 calls)

     Called by electrons:
     c_bands      :   1764.12s CPU   1805.63s WALL (      53 calls)
     sum_band     :    270.06s CPU    277.14s WALL (      53 calls)
     v_of_rho     :      2.50s CPU      2.52s WALL (      54 calls)
     newd         :      7.23s CPU      7.27s WALL (      54 calls)
     PAW_pot      :     17.52s CPU     17.64s WALL (      54 calls)
     mix_rho      :      0.71s CPU      0.73s WALL (      53 calls)

     Called by c_bands:
     init_us_2    :      7.96s CPU      8.06s WALL (    8640 calls)
     cegterg      :   1690.32s CPU   1730.92s WALL (    4241 calls)

     Called by sum_band:
     sum_band:bec :      2.64s CPU      2.66s WALL (    4240 calls)
     addusdens    :     10.31s CPU     10.81s WALL (      53 calls)

     Called by *egterg:
     h_psi        :    906.73s CPU    929.06s WALL (   11478 calls)
     s_psi        :     69.06s CPU     69.13s WALL (   11558 calls)
     g_psi        :      2.50s CPU      2.51s WALL (    7157 calls)
     cdiaghg      :    482.23s CPU    499.23s WALL (   11398 calls)

     Called by h_psi:
     h_psi:pot    :    861.50s CPU    883.32s WALL (   11478 calls)
     h_psi:calbec :     96.20s CPU     99.32s WALL (   11478 calls)
     vloc_psi     :    698.77s CPU    716.36s WALL (   11478 calls)
     add_vuspsi   :     66.44s CPU     67.57s WALL (   11478 calls)
     vhpsi        :     43.46s CPU     43.95s WALL (   11478 calls)

     General routines
     calbec       :    183.72s CPU    189.25s WALL (   31516 calls)
     fft          :      2.24s CPU      2.29s WALL (    1346 calls)
     ffts         :      0.13s CPU      0.14s WALL (     214 calls)
     fftw         :    842.21s CPU    863.64s WALL ( 3853660 calls)
     interpolate  :      0.24s CPU      0.24s WALL (     108 calls)
     davcio       :      0.00s CPU      0.01s WALL (      80 calls)
 
     Parallel routines
     fft_scatt_xy :     38.08s CPU     38.88s WALL ( 3855220 calls)
     fft_scatt_yz :    646.20s CPU    663.61s WALL ( 3855220 calls)

     Hubbard U routines
     new_ns       :      9.27s CPU      9.56s WALL (      53 calls)
     vhpsi        :     43.46s CPU     43.95s WALL (   11478 calls)
 
     PWSCF        : 34m52.94s CPU    36m11.74s WALL

 
   This run was terminated on:  16:26:44   1Apr2019            

=------------------------------------------------------------------------------=
   JOB DONE.
=------------------------------------------------------------------------------=
