
     Program PWSCF v.6.3MaX starts on 29Mar2019 at 15:15:32 

     This program is part of the open-source Quantum ESPRESSO suite
     for quantum simulation of materials; please cite
         "P. Giannozzi et al., J. Phys.:Condens. Matter 21 395502 (2009);
         "P. Giannozzi et al., J. Phys.:Condens. Matter 29 465901 (2017);
          URL http://www.quantum-espresso.org", 
     in publications or presentations arising from this work. More details at
     http://www.quantum-espresso.org/quote

     Parallel version (MPI), running on    32 processors

     MPI processes distributed on     2 nodes
     R & G space division:  proc/nbgrp/npool/nimage =      32
     Waiting for input...
     Reading input from standard input

     Current dimensions of program PWSCF are:
     Max number of different atomic species (ntypx) = 10
     Max number of k-points (npk) =  40000
     Max angular momentum in pseudopotentials (lmaxx) =  3
     Message from routine read_upf::
     Pseudo file ./pseudo/Mn.pbe-spn-kjpaw_psl.0.3.1.UPF has been successfully fixed on the fly.
To avoid this message in the future you can permanently fix 
 your pseudo files following instructions given in: 
https://gitlab.com/QEF/q-e/blob/master/upftools/how_to_fix_upf.md
               file Mn.pbe-spn-kjpaw_psl.0.3.1.UPF: wavefunction(s)  3P 3D renormalized
     Message from routine read_upf::
     Pseudo file ./pseudo/Mn.pbe-spn-kjpaw_psl.0.3.1.UPF has been successfully fixed on the fly.
To avoid this message in the future you can permanently fix 
 your pseudo files following instructions given in: 
https://gitlab.com/QEF/q-e/blob/master/upftools/how_to_fix_upf.md
               file Mn.pbe-spn-kjpaw_psl.0.3.1.UPF: wavefunction(s)  3P 3D renormalized
     Message from routine read_upf::
     Pseudo file ./pseudo/Au.pbe-dn-kjpaw_psl.0.1.UPF has been successfully fixed on the fly.
To avoid this message in the future you can permanently fix 
 your pseudo files following instructions given in: 
https://gitlab.com/QEF/q-e/blob/master/upftools/how_to_fix_upf.md
               file Au.pbe-dn-kjpaw_psl.0.1.UPF: wavefunction(s)  6S 6P 5D renormalized

     Subspace diagonalization in iterative solution of the eigenvalue problem:
     one sub-group per band group will be used
     scalapack distributed-memory algorithm (size of sub-group:  4*  4 procs)

 
     Parallelization info
     --------------------
     sticks:   dense  smooth     PW     G-vecs:    dense   smooth      PW
     Min          41      18      5                11647     3506     571
     Max          42      19      6                11691     3549     614
     Sum        1313     593    177               373547   112863   18983
 


     bravais-lattice index     =            0
     lattice parameter (alat)  =       6.4153  a.u.
     unit-cell volume          =    2762.7331 (a.u.)^3
     number of atoms/cell      =           24
     number of atomic types    =            3
     number of electrons       =       296.00
     number of Kohn-Sham states=          178
     kinetic-energy cutoff     =      45.0000  Ry
     charge density cutoff     =     400.0000  Ry
     convergence threshold     =      1.0E-06
     mixing beta               =       0.1000
     number of iterations used =            8  plain     mixing
     Exchange-correlation      = SLA PW PBX PBC ( 1  4  3  4 0 0)

     celldm(1)=   6.415315  celldm(2)=   0.000000  celldm(3)=   0.000000
     celldm(4)=   0.000000  celldm(5)=   0.000000  celldm(6)=   0.000000

     crystal axes: (cart. coord. in units of alat)
               a(1) = (   1.000000   0.000000   0.000000 )  
               a(2) = (   0.000000   1.000000   0.000000 )  
               a(3) = (   0.000000   0.000000  10.463692 )  

     reciprocal axes: (cart. coord. in units 2 pi/alat)
               b(1) = (  1.000000  0.000000  0.000000 )  
               b(2) = (  0.000000  1.000000  0.000000 )  
               b(3) = (  0.000000  0.000000  0.095569 )  


     PseudoPot. # 1 for Mn read from file:
     ./pseudo/Mn.pbe-spn-kjpaw_psl.0.3.1.UPF
     MD5 check sum: 7eef95dd2aae66803482eea66ebeebf1
     Pseudo is Projector augmented-wave + core cor, Zval = 15.0
     Generated using "atomic" code by A. Dal Corso v.5.0.99 svn rev. 10869
     Shape of augmentation charge: PSQ
     Using radial grid of 1187 points,  6 beta functions with: 
                l(1) =   0
                l(2) =   0
                l(3) =   1
                l(4) =   1
                l(5) =   2
                l(6) =   2
     Q(r) pseudized with 0 coefficients 


     PseudoPot. # 2 for Mn read from file:
     ./pseudo/Mn.pbe-spn-kjpaw_psl.0.3.1.UPF
     MD5 check sum: 7eef95dd2aae66803482eea66ebeebf1
     Pseudo is Projector augmented-wave + core cor, Zval = 15.0
     Generated using "atomic" code by A. Dal Corso v.5.0.99 svn rev. 10869
     Shape of augmentation charge: PSQ
     Using radial grid of 1187 points,  6 beta functions with: 
                l(1) =   0
                l(2) =   0
                l(3) =   1
                l(4) =   1
                l(5) =   2
                l(6) =   2
     Q(r) pseudized with 0 coefficients 


     PseudoPot. # 3 for Au read from file:
     ./pseudo/Au.pbe-dn-kjpaw_psl.0.1.UPF
     MD5 check sum: 5c9b92683623e7ae2ab3f8e525febab6
     Pseudo is Projector augmented-wave + core cor, Zval = 11.0
     Generated using "atomic" code by A. Dal Corso v.5.0.2 svn rev. 9415
     Shape of augmentation charge: PSQ
     Using radial grid of 1279 points,  6 beta functions with: 
                l(1) =   0
                l(2) =   0
                l(3) =   1
                l(4) =   1
                l(5) =   2
                l(6) =   2
     Q(r) pseudized with 0 coefficients 


     atomic species   valence    mass     pseudopotential
        Mn1           15.00    54.93800     Mn( 1.00)
        Mn2           15.00    54.93800     Mn( 1.00)
        Au            11.00   196.96600     Au( 1.00)

     Starting magnetic structure 
     atomic species   magnetization
        Mn1          0.800
        Mn2         -0.800
        Au           0.000


     Full LDA+U calculation (l_max = 2) with parameters (eV):
     U(  1) =   3.1200   J(  1) =   0.7000   B(  1) =   0.0803
     U(  2) =   3.1200   J(  2) =   0.7000   B(  2) =   0.0803



     16 Sym. Ops., with inversion, found ( 8 have fractional translation)



   Cartesian axes

     site n.     atom                  positions (alat units)
         1           Mn1 tau(   1) = (   0.0000000   0.0000000   0.0000000  )
         2           Mn1 tau(   2) = (   0.5000000   0.5000000   1.3079615  )
         3           Mn1 tau(   3) = (   0.0000000   0.0000000   2.6159231  )
         4           Mn1 tau(   4) = (   0.5000000   0.5000000   3.9238846  )
         5           Mn1 tau(   5) = (   0.0000000   0.0000000   5.2318461  )
         6           Mn1 tau(   6) = (   0.5000000   0.5000000   6.5398077  )
         7           Mn1 tau(   7) = (   0.0000000   0.0000000   7.8477692  )
         8           Mn2 tau(   8) = (   0.5000000   0.5000000   9.1557307  )
         9           Au  tau(   9) = (   0.5000000   0.5000000   0.4185477  )
        10           Au  tau(  10) = (   0.0000000   0.0000000   0.8894138  )
        11           Au  tau(  11) = (   0.0000000   0.0000000   1.7265092  )
        12           Au  tau(  12) = (   0.5000000   0.5000000   2.1973754  )
        13           Au  tau(  13) = (   0.5000000   0.5000000   3.0344708  )
        14           Au  tau(  14) = (   0.0000000   0.0000000   3.5053369  )
        15           Au  tau(  15) = (   0.0000000   0.0000000   4.3424323  )
        16           Au  tau(  16) = (   0.5000000   0.5000000   4.8132984  )
        17           Au  tau(  17) = (   0.5000000   0.5000000   5.6503938  )
        18           Au  tau(  18) = (   0.0000000   0.0000000   6.1212600  )
        19           Au  tau(  19) = (   0.0000000   0.0000000   6.9583554  )
        20           Au  tau(  20) = (   0.5000000   0.5000000   7.4292215  )
        21           Au  tau(  21) = (   0.5000000   0.5000000   8.2663169  )
        22           Au  tau(  22) = (   0.0000000   0.0000000   8.7371830  )
        23           Au  tau(  23) = (   0.0000000   0.0000000   9.5742784  )
        24           Au  tau(  24) = (   0.5000000   0.5000000  10.0451446  )

     number of k points=    40 (tetrahedron method)
                       cart. coord. in units 2pi/alat
        k(    1) = (   0.0000000   0.0000000   0.0000000), wk =   0.0046296
        k(    2) = (   0.0000000   0.0000000   0.0159281), wk =   0.0092593
        k(    3) = (   0.0000000   0.0000000   0.0318562), wk =   0.0092593
        k(    4) = (   0.0000000   0.0000000  -0.0477843), wk =   0.0046296
        k(    5) = (   0.0000000   0.1666667   0.0000000), wk =   0.0185185
        k(    6) = (   0.0000000   0.1666667   0.0159281), wk =   0.0370370
        k(    7) = (   0.0000000   0.1666667   0.0318562), wk =   0.0370370
        k(    8) = (   0.0000000   0.1666667  -0.0477843), wk =   0.0185185
        k(    9) = (   0.0000000   0.3333333   0.0000000), wk =   0.0185185
        k(   10) = (   0.0000000   0.3333333   0.0159281), wk =   0.0370370
        k(   11) = (   0.0000000   0.3333333   0.0318562), wk =   0.0370370
        k(   12) = (   0.0000000   0.3333333  -0.0477843), wk =   0.0185185
        k(   13) = (   0.0000000  -0.5000000   0.0000000), wk =   0.0092593
        k(   14) = (   0.0000000  -0.5000000   0.0159281), wk =   0.0185185
        k(   15) = (   0.0000000  -0.5000000   0.0318562), wk =   0.0185185
        k(   16) = (   0.0000000  -0.5000000  -0.0477843), wk =   0.0092593
        k(   17) = (   0.1666667   0.1666667   0.0000000), wk =   0.0185185
        k(   18) = (   0.1666667   0.1666667   0.0159281), wk =   0.0370370
        k(   19) = (   0.1666667   0.1666667   0.0318562), wk =   0.0370370
        k(   20) = (   0.1666667   0.1666667  -0.0477843), wk =   0.0185185
        k(   21) = (   0.1666667   0.3333333   0.0000000), wk =   0.0370370
        k(   22) = (   0.1666667   0.3333333   0.0159281), wk =   0.0740741
        k(   23) = (   0.1666667   0.3333333   0.0318562), wk =   0.0740741
        k(   24) = (   0.1666667   0.3333333  -0.0477843), wk =   0.0370370
        k(   25) = (   0.1666667  -0.5000000   0.0000000), wk =   0.0185185
        k(   26) = (   0.1666667  -0.5000000   0.0159281), wk =   0.0370370
        k(   27) = (   0.1666667  -0.5000000   0.0318562), wk =   0.0370370
        k(   28) = (   0.1666667  -0.5000000  -0.0477843), wk =   0.0185185
        k(   29) = (   0.3333333   0.3333333   0.0000000), wk =   0.0185185
        k(   30) = (   0.3333333   0.3333333   0.0159281), wk =   0.0370370
        k(   31) = (   0.3333333   0.3333333   0.0318562), wk =   0.0370370
        k(   32) = (   0.3333333   0.3333333  -0.0477843), wk =   0.0185185
        k(   33) = (   0.3333333  -0.5000000   0.0000000), wk =   0.0185185
        k(   34) = (   0.3333333  -0.5000000   0.0159281), wk =   0.0370370
        k(   35) = (   0.3333333  -0.5000000   0.0318562), wk =   0.0370370
        k(   36) = (   0.3333333  -0.5000000  -0.0477843), wk =   0.0185185
        k(   37) = (  -0.5000000  -0.5000000   0.0000000), wk =   0.0046296
        k(   38) = (  -0.5000000  -0.5000000   0.0159281), wk =   0.0092593
        k(   39) = (  -0.5000000  -0.5000000   0.0318562), wk =   0.0092593
        k(   40) = (  -0.5000000  -0.5000000  -0.0477843), wk =   0.0046296

     Dense  grid:   373547 G-vectors     FFT dimensions: (  45,  45, 432)

     Smooth grid:   112863 G-vectors     FFT dimensions: (  27,  27, 288)

     Estimated max dynamical RAM per process >     174.65 MB

     Estimated total dynamical RAM >       5.46 GB
     Generating pointlists ...
     new r_m :   0.3389 (alat units)  2.1745 (a.u.) for type    1
     new r_m :   0.3389 (alat units)  2.1745 (a.u.) for type    2
     new r_m :   0.3389 (alat units)  2.1745 (a.u.) for type    3

     Check: negative/imaginary core charge=   -0.000006    0.000000

     Initial potential from superposition of free atoms

     starting charge  295.99426, renormalised to  296.00000
     Number of +U iterations with fixed ns =  0
     Starting occupations:
 --- enter write_ns ---
 LDA+U parameters:
U(  1) =   3.1200   J(  1) =   0.7000   B(  1) =   0.0803
U(  2) =   3.1200   J(  2) =   0.7000   B(  2) =   0.0803
atom    1   Tr[ns(na)] (up, down, total) =   5.00000  0.00000  5.00000
   spin  1
    eigenvalues: 
  1.000  1.000  1.000  1.000  1.000
    eigenvectors:
  1.000  0.000  0.000  0.000  0.000
  0.000  1.000  0.000  0.000  0.000
  0.000  0.000  1.000  0.000  0.000
  0.000  0.000  0.000  1.000  0.000
  0.000  0.000  0.000  0.000  1.000
    occupations:
  1.000  0.000  0.000  0.000  0.000
  0.000  1.000  0.000  0.000  0.000
  0.000  0.000  1.000  0.000  0.000
  0.000  0.000  0.000  1.000  0.000
  0.000  0.000  0.000  0.000  1.000
   spin  2
    eigenvalues: 
  0.000  0.000  0.000  0.000  0.000
    eigenvectors:
  1.000  0.000  0.000  0.000  0.000
  0.000  1.000  0.000  0.000  0.000
  0.000  0.000  1.000  0.000  0.000
  0.000  0.000  0.000  1.000  0.000
  0.000  0.000  0.000  0.000  1.000
    occupations:
  0.000  0.000  0.000  0.000  0.000
  0.000  0.000  0.000  0.000  0.000
  0.000  0.000  0.000  0.000  0.000
  0.000  0.000  0.000  0.000  0.000
  0.000  0.000  0.000  0.000  0.000
atomic mag. moment =     5.000000
atom    2   Tr[ns(na)] (up, down, total) =   5.00000  0.00000  5.00000
   spin  1
    eigenvalues: 
  1.000  1.000  1.000  1.000  1.000
    eigenvectors:
  1.000  0.000  0.000  0.000  0.000
  0.000  1.000  0.000  0.000  0.000
  0.000  0.000  1.000  0.000  0.000
  0.000  0.000  0.000  1.000  0.000
  0.000  0.000  0.000  0.000  1.000
    occupations:
  1.000  0.000  0.000  0.000  0.000
  0.000  1.000  0.000  0.000  0.000
  0.000  0.000  1.000  0.000  0.000
  0.000  0.000  0.000  1.000  0.000
  0.000  0.000  0.000  0.000  1.000
   spin  2
    eigenvalues: 
  0.000  0.000  0.000  0.000  0.000
    eigenvectors:
  1.000  0.000  0.000  0.000  0.000
  0.000  1.000  0.000  0.000  0.000
  0.000  0.000  1.000  0.000  0.000
  0.000  0.000  0.000  1.000  0.000
  0.000  0.000  0.000  0.000  1.000
    occupations:
  0.000  0.000  0.000  0.000  0.000
  0.000  0.000  0.000  0.000  0.000
  0.000  0.000  0.000  0.000  0.000
  0.000  0.000  0.000  0.000  0.000
  0.000  0.000  0.000  0.000  0.000
atomic mag. moment =     5.000000
atom    3   Tr[ns(na)] (up, down, total) =   5.00000  0.00000  5.00000
   spin  1
    eigenvalues: 
  1.000  1.000  1.000  1.000  1.000
    eigenvectors:
  1.000  0.000  0.000  0.000  0.000
  0.000  1.000  0.000  0.000  0.000
  0.000  0.000  1.000  0.000  0.000
  0.000  0.000  0.000  1.000  0.000
  0.000  0.000  0.000  0.000  1.000
    occupations:
  1.000  0.000  0.000  0.000  0.000
  0.000  1.000  0.000  0.000  0.000
  0.000  0.000  1.000  0.000  0.000
  0.000  0.000  0.000  1.000  0.000
  0.000  0.000  0.000  0.000  1.000
   spin  2
    eigenvalues: 
  0.000  0.000  0.000  0.000  0.000
    eigenvectors:
  1.000  0.000  0.000  0.000  0.000
  0.000  1.000  0.000  0.000  0.000
  0.000  0.000  1.000  0.000  0.000
  0.000  0.000  0.000  1.000  0.000
  0.000  0.000  0.000  0.000  1.000
    occupations:
  0.000  0.000  0.000  0.000  0.000
  0.000  0.000  0.000  0.000  0.000
  0.000  0.000  0.000  0.000  0.000
  0.000  0.000  0.000  0.000  0.000
  0.000  0.000  0.000  0.000  0.000
atomic mag. moment =     5.000000
atom    4   Tr[ns(na)] (up, down, total) =   5.00000  0.00000  5.00000
   spin  1
    eigenvalues: 
  1.000  1.000  1.000  1.000  1.000
    eigenvectors:
  1.000  0.000  0.000  0.000  0.000
  0.000  1.000  0.000  0.000  0.000
  0.000  0.000  1.000  0.000  0.000
  0.000  0.000  0.000  1.000  0.000
  0.000  0.000  0.000  0.000  1.000
    occupations:
  1.000  0.000  0.000  0.000  0.000
  0.000  1.000  0.000  0.000  0.000
  0.000  0.000  1.000  0.000  0.000
  0.000  0.000  0.000  1.000  0.000
  0.000  0.000  0.000  0.000  1.000
   spin  2
    eigenvalues: 
  0.000  0.000  0.000  0.000  0.000
    eigenvectors:
  1.000  0.000  0.000  0.000  0.000
  0.000  1.000  0.000  0.000  0.000
  0.000  0.000  1.000  0.000  0.000
  0.000  0.000  0.000  1.000  0.000
  0.000  0.000  0.000  0.000  1.000
    occupations:
  0.000  0.000  0.000  0.000  0.000
  0.000  0.000  0.000  0.000  0.000
  0.000  0.000  0.000  0.000  0.000
  0.000  0.000  0.000  0.000  0.000
  0.000  0.000  0.000  0.000  0.000
atomic mag. moment =     5.000000
atom    5   Tr[ns(na)] (up, down, total) =   5.00000  0.00000  5.00000
   spin  1
    eigenvalues: 
  1.000  1.000  1.000  1.000  1.000
    eigenvectors:
  1.000  0.000  0.000  0.000  0.000
  0.000  1.000  0.000  0.000  0.000
  0.000  0.000  1.000  0.000  0.000
  0.000  0.000  0.000  1.000  0.000
  0.000  0.000  0.000  0.000  1.000
    occupations:
  1.000  0.000  0.000  0.000  0.000
  0.000  1.000  0.000  0.000  0.000
  0.000  0.000  1.000  0.000  0.000
  0.000  0.000  0.000  1.000  0.000
  0.000  0.000  0.000  0.000  1.000
   spin  2
    eigenvalues: 
  0.000  0.000  0.000  0.000  0.000
    eigenvectors:
  1.000  0.000  0.000  0.000  0.000
  0.000  1.000  0.000  0.000  0.000
  0.000  0.000  1.000  0.000  0.000
  0.000  0.000  0.000  1.000  0.000
  0.000  0.000  0.000  0.000  1.000
    occupations:
  0.000  0.000  0.000  0.000  0.000
  0.000  0.000  0.000  0.000  0.000
  0.000  0.000  0.000  0.000  0.000
  0.000  0.000  0.000  0.000  0.000
  0.000  0.000  0.000  0.000  0.000
atomic mag. moment =     5.000000
atom    6   Tr[ns(na)] (up, down, total) =   5.00000  0.00000  5.00000
   spin  1
    eigenvalues: 
  1.000  1.000  1.000  1.000  1.000
    eigenvectors:
  1.000  0.000  0.000  0.000  0.000
  0.000  1.000  0.000  0.000  0.000
  0.000  0.000  1.000  0.000  0.000
  0.000  0.000  0.000  1.000  0.000
  0.000  0.000  0.000  0.000  1.000
    occupations:
  1.000  0.000  0.000  0.000  0.000
  0.000  1.000  0.000  0.000  0.000
  0.000  0.000  1.000  0.000  0.000
  0.000  0.000  0.000  1.000  0.000
  0.000  0.000  0.000  0.000  1.000
   spin  2
    eigenvalues: 
  0.000  0.000  0.000  0.000  0.000
    eigenvectors:
  1.000  0.000  0.000  0.000  0.000
  0.000  1.000  0.000  0.000  0.000
  0.000  0.000  1.000  0.000  0.000
  0.000  0.000  0.000  1.000  0.000
  0.000  0.000  0.000  0.000  1.000
    occupations:
  0.000  0.000  0.000  0.000  0.000
  0.000  0.000  0.000  0.000  0.000
  0.000  0.000  0.000  0.000  0.000
  0.000  0.000  0.000  0.000  0.000
  0.000  0.000  0.000  0.000  0.000
atomic mag. moment =     5.000000
atom    7   Tr[ns(na)] (up, down, total) =   5.00000  0.00000  5.00000
   spin  1
    eigenvalues: 
  1.000  1.000  1.000  1.000  1.000
    eigenvectors:
  1.000  0.000  0.000  0.000  0.000
  0.000  1.000  0.000  0.000  0.000
  0.000  0.000  1.000  0.000  0.000
  0.000  0.000  0.000  1.000  0.000
  0.000  0.000  0.000  0.000  1.000
    occupations:
  1.000  0.000  0.000  0.000  0.000
  0.000  1.000  0.000  0.000  0.000
  0.000  0.000  1.000  0.000  0.000
  0.000  0.000  0.000  1.000  0.000
  0.000  0.000  0.000  0.000  1.000
   spin  2
    eigenvalues: 
  0.000  0.000  0.000  0.000  0.000
    eigenvectors:
  1.000  0.000  0.000  0.000  0.000
  0.000  1.000  0.000  0.000  0.000
  0.000  0.000  1.000  0.000  0.000
  0.000  0.000  0.000  1.000  0.000
  0.000  0.000  0.000  0.000  1.000
    occupations:
  0.000  0.000  0.000  0.000  0.000
  0.000  0.000  0.000  0.000  0.000
  0.000  0.000  0.000  0.000  0.000
  0.000  0.000  0.000  0.000  0.000
  0.000  0.000  0.000  0.000  0.000
atomic mag. moment =     5.000000
atom    8   Tr[ns(na)] (up, down, total) =   0.00000  5.00000  5.00000
   spin  1
    eigenvalues: 
  0.000  0.000  0.000  0.000  0.000
    eigenvectors:
  1.000  0.000  0.000  0.000  0.000
  0.000  1.000  0.000  0.000  0.000
  0.000  0.000  1.000  0.000  0.000
  0.000  0.000  0.000  1.000  0.000
  0.000  0.000  0.000  0.000  1.000
    occupations:
  0.000  0.000  0.000  0.000  0.000
  0.000  0.000  0.000  0.000  0.000
  0.000  0.000  0.000  0.000  0.000
  0.000  0.000  0.000  0.000  0.000
  0.000  0.000  0.000  0.000  0.000
   spin  2
    eigenvalues: 
  1.000  1.000  1.000  1.000  1.000
    eigenvectors:
  1.000  0.000  0.000  0.000  0.000
  0.000  1.000  0.000  0.000  0.000
  0.000  0.000  1.000  0.000  0.000
  0.000  0.000  0.000  1.000  0.000
  0.000  0.000  0.000  0.000  1.000
    occupations:
  1.000  0.000  0.000  0.000  0.000
  0.000  1.000  0.000  0.000  0.000
  0.000  0.000  1.000  0.000  0.000
  0.000  0.000  0.000  1.000  0.000
  0.000  0.000  0.000  0.000  1.000
atomic mag. moment =    -5.000000
N of occupied +U levels =   40.000000
 --- exit write_ns ---
 Atomic wfc used for LDA+U Projector are NOT orthogonalized
     Starting wfcs are  224 randomized atomic wfcs
     Checking if some PAW data can be deallocated... 

     total cpu time spent up to now is       28.7 secs

     Self-consistent Calculation

     iteration #  1     ecut=    45.00 Ry     beta= 0.10
     Davidson diagonalization with overlap
     ethr =  1.00E-02,  avg # of iterations =  3.6
 --- enter write_ns ---
 LDA+U parameters:
U(  1) =   3.1200   J(  1) =   0.7000   B(  1) =   0.0803
U(  2) =   3.1200   J(  2) =   0.7000   B(  2) =   0.0803
atom    1   Tr[ns(na)] (up, down, total) =   5.01746  0.39608  5.41353
   spin  1
    eigenvalues: 
  1.003  1.003  1.003  1.004  1.004
    eigenvectors:
  0.000  0.000  0.000  1.000  0.000
  0.000  0.328  0.672  0.000  0.000
  0.000  0.672  0.328  0.000  0.000
  0.000  0.000  0.000  0.000  1.000
  1.000  0.000  0.000  0.000  0.000
    occupations:
  1.004 -0.000 -0.000  0.000  0.000
 -0.000  1.003 -0.000  0.000  0.000
 -0.000 -0.000  1.003  0.000  0.000
  0.000  0.000  0.000  1.004 -0.000
  0.000  0.000  0.000 -0.000  1.003
   spin  2
    eigenvalues: 
  0.051  0.069  0.079  0.079  0.117
    eigenvectors:
  0.000  1.000  0.000  0.000  0.000
  0.000  0.000  0.291  0.709  0.000
  0.000  0.000  0.709  0.291  0.000
  1.000  0.000  0.000  0.000  0.000
  0.000  0.000  0.000  0.000  1.000
    occupations:
  0.069 -0.000 -0.000  0.000  0.000
 -0.000  0.079 -0.000  0.000  0.000
 -0.000 -0.000  0.079  0.000  0.000
  0.000  0.000  0.000  0.051 -0.000
  0.000  0.000  0.000 -0.000  0.117
atomic mag. moment =     4.621380
atom    2   Tr[ns(na)] (up, down, total) =   5.01764  0.39049  5.40813
   spin  1
    eigenvalues: 
  1.003  1.003  1.003  1.004  1.004
    eigenvectors:
  0.000  0.000  0.000  1.000  0.000
  0.000  0.291  0.709  0.000  0.000
  0.000  0.709  0.291  0.000  0.000
  0.000  0.000  0.000  0.000  1.000
  1.000  0.000  0.000  0.000  0.000
    occupations:
  1.004 -0.000 -0.000  0.000  0.000
 -0.000  1.003 -0.000  0.000  0.000
 -0.000 -0.000  1.003  0.000  0.000
  0.000  0.000  0.000  1.004 -0.000
  0.000  0.000  0.000 -0.000  1.003
   spin  2
    eigenvalues: 
  0.051  0.070  0.080  0.080  0.110
    eigenvectors:
  0.000  1.000  0.000  0.000  0.000
  0.000  0.000  0.299  0.701  0.000
  0.000  0.000  0.701  0.299  0.000
  1.000  0.000  0.000  0.000  0.000
  0.000  0.000  0.000  0.000  1.000
    occupations:
  0.070 -0.000 -0.000  0.000  0.000
 -0.000  0.080 -0.000  0.000  0.000
 -0.000 -0.000  0.080  0.000  0.000
  0.000  0.000  0.000  0.051 -0.000
  0.000  0.000  0.000 -0.000  0.110
atomic mag. moment =     4.627146
atom    3   Tr[ns(na)] (up, down, total) =   5.01758  0.38955  5.40713
   spin  1
    eigenvalues: 
  1.003  1.003  1.003  1.004  1.004
    eigenvectors:
  0.000  0.000  0.000  1.000  0.000
  0.000  0.299  0.701  0.000  0.000
  0.000  0.701  0.299  0.000  0.000
  0.000  0.000  0.000  0.000  1.000
  1.000  0.000  0.000  0.000  0.000
    occupations:
  1.004 -0.000 -0.000  0.000  0.000
 -0.000  1.003 -0.000  0.000  0.000
 -0.000 -0.000  1.003  0.000  0.000
  0.000  0.000  0.000  1.004 -0.000
  0.000  0.000  0.000 -0.000  1.003
   spin  2
    eigenvalues: 
  0.050  0.069  0.080  0.080  0.110
    eigenvectors:
  0.000  1.000  0.000  0.000  0.000
  0.000  0.000  0.332  0.668  0.000
  0.000  0.000  0.668  0.332  0.000
  1.000  0.000  0.000  0.000  0.000
  0.000  0.000  0.000  0.000  1.000
    occupations:
  0.069 -0.000 -0.000  0.000  0.000
 -0.000  0.080 -0.000  0.000  0.000
 -0.000 -0.000  0.080  0.000  0.000
  0.000  0.000  0.000  0.050 -0.000
  0.000  0.000  0.000 -0.000  0.110
atomic mag. moment =     4.628036
atom    4   Tr[ns(na)] (up, down, total) =   5.01745  0.39042  5.40787
   spin  1
    eigenvalues: 
  1.003  1.003  1.003  1.004  1.004
    eigenvectors:
  0.000  0.000  0.000  1.000  0.000
  0.000  0.302  0.698  0.000  0.000
  0.000  0.698  0.302  0.000  0.000
  0.000  0.000  0.000  0.000  1.000
  1.000  0.000  0.000  0.000  0.000
    occupations:
  1.004 -0.000 -0.000  0.000  0.000
 -0.000  1.003 -0.000  0.000  0.000
 -0.000 -0.000  1.003  0.000  0.000
  0.000  0.000  0.000  1.004 -0.000
  0.000  0.000  0.000 -0.000  1.003
   spin  2
    eigenvalues: 
  0.051  0.069  0.080  0.080  0.110
    eigenvectors:
  0.000  1.000  0.000  0.000  0.000
  0.000  0.000  0.344  0.656  0.000
  0.000  0.000  0.656  0.344  0.000
  1.000  0.000  0.000  0.000  0.000
  0.000  0.000  0.000  0.000  1.000
    occupations:
  0.069 -0.000 -0.000  0.000  0.000
 -0.000  0.080 -0.000  0.000  0.000
 -0.000 -0.000  0.080  0.000  0.000
  0.000  0.000  0.000  0.051 -0.000
  0.000  0.000  0.000 -0.000  0.110
atomic mag. moment =     4.627025
atom    5   Tr[ns(na)] (up, down, total) =   5.01758  0.38955  5.40713
   spin  1
    eigenvalues: 
  1.003  1.003  1.003  1.004  1.004
    eigenvectors:
  0.000  0.000  0.000  1.000  0.000
  0.000  0.293  0.707  0.000  0.000
  0.000  0.707  0.293  0.000  0.000
  0.000  0.000  0.000  0.000  1.000
  1.000  0.000  0.000  0.000  0.000
    occupations:
  1.004 -0.000 -0.000  0.000  0.000
 -0.000  1.003 -0.000  0.000  0.000
 -0.000 -0.000  1.003  0.000  0.000
  0.000  0.000  0.000  1.004 -0.000
  0.000  0.000  0.000 -0.000  1.003
   spin  2
    eigenvalues: 
  0.050  0.069  0.080  0.080  0.110
    eigenvectors:
  0.000  1.000  0.000  0.000  0.000
  0.000  0.000  0.401  0.599  0.000
  0.000  0.000  0.599  0.401  0.000
  1.000  0.000  0.000  0.000  0.000
  0.000  0.000  0.000  0.000  1.000
    occupations:
  0.069 -0.000 -0.000  0.000  0.000
 -0.000  0.080 -0.000  0.000  0.000
 -0.000 -0.000  0.080  0.000  0.000
  0.000  0.000  0.000  0.050 -0.000
  0.000  0.000  0.000 -0.000  0.110
atomic mag. moment =     4.628036
atom    6   Tr[ns(na)] (up, down, total) =   5.01764  0.39049  5.40813
   spin  1
    eigenvalues: 
  1.003  1.003  1.003  1.004  1.004
    eigenvectors:
  0.000  0.000  0.000  1.000  0.000
  0.000  0.349  0.651  0.000  0.000
  0.000  0.651  0.349  0.000  0.000
  0.000  0.000  0.000  0.000  1.000
  1.000  0.000  0.000  0.000  0.000
    occupations:
  1.004 -0.000 -0.000  0.000  0.000
 -0.000  1.003 -0.000  0.000  0.000
 -0.000 -0.000  1.003  0.000  0.000
  0.000  0.000  0.000  1.004 -0.000
  0.000  0.000  0.000 -0.000  1.003
   spin  2
    eigenvalues: 
  0.051  0.070  0.080  0.080  0.110
    eigenvectors:
  0.000  1.000  0.000  0.000  0.000
  0.000  0.000  0.374  0.626  0.000
  0.000  0.000  0.626  0.374  0.000
  1.000  0.000  0.000  0.000  0.000
  0.000  0.000  0.000  0.000  1.000
    occupations:
  0.070 -0.000 -0.000  0.000  0.000
 -0.000  0.080 -0.000  0.000  0.000
 -0.000 -0.000  0.080  0.000  0.000
  0.000  0.000  0.000  0.051 -0.000
  0.000  0.000  0.000 -0.000  0.110
atomic mag. moment =     4.627146
atom    7   Tr[ns(na)] (up, down, total) =   5.01746  0.39608  5.41353
   spin  1
    eigenvalues: 
  1.003  1.003  1.003  1.004  1.004
    eigenvectors:
  0.000  0.000  0.000  1.000  0.000
  0.000  0.282  0.718  0.000  0.000
  0.000  0.718  0.282  0.000  0.000
  0.000  0.000  0.000  0.000  1.000
  1.000  0.000  0.000  0.000  0.000
    occupations:
  1.004 -0.000 -0.000  0.000  0.000
 -0.000  1.003 -0.000  0.000  0.000
 -0.000 -0.000  1.003  0.000  0.000
  0.000  0.000  0.000  1.004 -0.000
  0.000  0.000  0.000 -0.000  1.003
   spin  2
    eigenvalues: 
  0.051  0.069  0.079  0.079  0.117
    eigenvectors:
  0.000  1.000  0.000  0.000  0.000
  0.000  0.000  0.297  0.703  0.000
  0.000  0.000  0.703  0.297  0.000
  1.000  0.000  0.000  0.000  0.000
  0.000  0.000  0.000  0.000  1.000
    occupations:
  0.069 -0.000 -0.000  0.000  0.000
 -0.000  0.079 -0.000  0.000  0.000
 -0.000 -0.000  0.079  0.000  0.000
  0.000  0.000  0.000  0.051 -0.000
  0.000  0.000  0.000 -0.000  0.117
atomic mag. moment =     4.621380
atom    8   Tr[ns(na)] (up, down, total) =   0.39901  5.01756  5.41656
   spin  1
    eigenvalues: 
  0.052  0.070  0.078  0.078  0.121
    eigenvectors:
  0.000  1.000  0.000  0.000  0.000
  0.000  0.000  0.295  0.705  0.000
  0.000  0.000  0.705  0.295  0.000
  1.000  0.000  0.000  0.000  0.000
  0.000  0.000  0.000  0.000  1.000
    occupations:
  0.070 -0.000 -0.000  0.000  0.000
 -0.000  0.078 -0.000  0.000  0.000
 -0.000 -0.000  0.078  0.000  0.000
  0.000  0.000  0.000  0.052 -0.000
  0.000  0.000  0.000 -0.000  0.121
   spin  2
    eigenvalues: 
  1.003  1.003  1.003  1.004  1.004
    eigenvectors:
  0.000  0.000  0.000  1.000  0.000
  0.000  0.323  0.677  0.000  0.000
  0.000  0.677  0.323  0.000  0.000
  0.000  0.000  0.000  0.000  1.000
  1.000  0.000  0.000  0.000  0.000
    occupations:
  1.004 -0.000 -0.000  0.000  0.000
 -0.000  1.003 -0.000  0.000  0.000
 -0.000 -0.000  1.003  0.000  0.000
  0.000  0.000  0.000  1.004 -0.000
  0.000  0.000  0.000 -0.000  1.003
atomic mag. moment =    -4.618550
N of occupied +U levels =   43.282005
 --- exit write_ns ---

     total cpu time spent up to now is      100.3 secs

     total energy              =  -14687.29733509 Ry
     Harris-Foulkes estimate   =  -14685.83316358 Ry
     estimated scf accuracy    <      11.48017496 Ry

     total magnetization       =    30.54 Bohr mag/cell
     absolute magnetization    =    41.72 Bohr mag/cell

     iteration #  2     ecut=    45.00 Ry     beta= 0.10
     Davidson diagonalization with overlap
     ethr =  3.88E-03,  avg # of iterations =  1.0

     total cpu time spent up to now is      142.5 secs

     total energy              =  -14689.79602698 Ry
     Harris-Foulkes estimate   =  -14687.37284415 Ry
     estimated scf accuracy    <       9.55093125 Ry

     total magnetization       =    30.23 Bohr mag/cell
     absolute magnetization    =    41.39 Bohr mag/cell

     iteration #  3     ecut=    45.00 Ry     beta= 0.10
     Davidson diagonalization with overlap
     ethr =  3.23E-03,  avg # of iterations =  4.9

     total cpu time spent up to now is      215.7 secs

     total energy              =  -14690.79344652 Ry
     Harris-Foulkes estimate   =  -14691.67261531 Ry
     estimated scf accuracy    <     251.47416869 Ry

     total magnetization       =    29.85 Bohr mag/cell
     absolute magnetization    =    40.24 Bohr mag/cell

     iteration #  4     ecut=    45.00 Ry     beta= 0.10
     Davidson diagonalization with overlap
     ethr =  3.23E-03,  avg # of iterations =  4.2

     total cpu time spent up to now is      284.7 secs

     total energy              =  -14694.30240473 Ry
     Harris-Foulkes estimate   =  -14694.26965208 Ry
     estimated scf accuracy    <       4.20683374 Ry

     total magnetization       =    27.91 Bohr mag/cell
     absolute magnetization    =    38.48 Bohr mag/cell

     iteration #  5     ecut=    45.00 Ry     beta= 0.10
     Davidson diagonalization with overlap
     ethr =  1.42E-03,  avg # of iterations =  2.9

     total cpu time spent up to now is      341.2 secs

     total energy              =  -14694.40687589 Ry
     Harris-Foulkes estimate   =  -14694.31683297 Ry
     estimated scf accuracy    <       4.41844582 Ry

     total magnetization       =    27.88 Bohr mag/cell
     absolute magnetization    =    38.46 Bohr mag/cell

     iteration #  6     ecut=    45.00 Ry     beta= 0.10
     Davidson diagonalization with overlap
     ethr =  1.42E-03,  avg # of iterations =  1.3

     total cpu time spent up to now is      384.9 secs

     total energy              =  -14693.82560299 Ry
     Harris-Foulkes estimate   =  -14694.41241494 Ry
     estimated scf accuracy    <       4.75268622 Ry

     total magnetization       =    27.84 Bohr mag/cell
     absolute magnetization    =    38.37 Bohr mag/cell

     iteration #  7     ecut=    45.00 Ry     beta= 0.10
     Davidson diagonalization with overlap
     ethr =  1.42E-03,  avg # of iterations =  3.1

     total cpu time spent up to now is      442.0 secs

     total energy              =  -14693.88903146 Ry
     Harris-Foulkes estimate   =  -14694.05578703 Ry
     estimated scf accuracy    <       1.21441507 Ry

     total magnetization       =    27.11 Bohr mag/cell
     absolute magnetization    =    38.07 Bohr mag/cell

     iteration #  8     ecut=    45.00 Ry     beta= 0.10
     Davidson diagonalization with overlap
     ethr =  4.10E-04,  avg # of iterations =  4.8

     total cpu time spent up to now is      520.4 secs

     total energy              =  -14694.00113451 Ry
     Harris-Foulkes estimate   =  -14694.00002515 Ry
     estimated scf accuracy    <       0.18967949 Ry

     total magnetization       =    26.55 Bohr mag/cell
     absolute magnetization    =    37.57 Bohr mag/cell

     iteration #  9     ecut=    45.00 Ry     beta= 0.10
     Davidson diagonalization with overlap
     ethr =  6.41E-05,  avg # of iterations =  1.8

     total cpu time spent up to now is      568.5 secs

     total energy              =  -14694.00485537 Ry
     Harris-Foulkes estimate   =  -14694.00239291 Ry
     estimated scf accuracy    <       0.13850072 Ry

     total magnetization       =    26.50 Bohr mag/cell
     absolute magnetization    =    37.54 Bohr mag/cell

     iteration # 10     ecut=    45.00 Ry     beta= 0.10
     Davidson diagonalization with overlap
     ethr =  4.68E-05,  avg # of iterations =  1.2

     total cpu time spent up to now is      612.0 secs

     total energy              =  -14694.00914579 Ry
     Harris-Foulkes estimate   =  -14694.00819994 Ry
     estimated scf accuracy    <       0.42254574 Ry

     total magnetization       =    26.37 Bohr mag/cell
     absolute magnetization    =    37.48 Bohr mag/cell

     iteration # 11     ecut=    45.00 Ry     beta= 0.10
     Davidson diagonalization with overlap
     ethr =  4.68E-05,  avg # of iterations =  1.1

     total cpu time spent up to now is      654.2 secs

     total energy              =  -14694.01527883 Ry
     Harris-Foulkes estimate   =  -14694.01070805 Ry
     estimated scf accuracy    <       0.10305023 Ry

     total magnetization       =    26.31 Bohr mag/cell
     absolute magnetization    =    37.42 Bohr mag/cell

     iteration # 12     ecut=    45.00 Ry     beta= 0.10
     Davidson diagonalization with overlap
     ethr =  3.48E-05,  avg # of iterations =  1.5

     total cpu time spent up to now is      699.5 secs

     total energy              =  -14694.01775871 Ry
     Harris-Foulkes estimate   =  -14694.01676014 Ry
     estimated scf accuracy    <       0.03371468 Ry

     total magnetization       =    26.14 Bohr mag/cell
     absolute magnetization    =    37.30 Bohr mag/cell

     iteration # 13     ecut=    45.00 Ry     beta= 0.10
     Davidson diagonalization with overlap
     ethr =  1.14E-05,  avg # of iterations =  4.1

     total cpu time spent up to now is      763.8 secs

     total energy              =  -14694.01965789 Ry
     Harris-Foulkes estimate   =  -14694.01902058 Ry
     estimated scf accuracy    <       0.01268193 Ry

     total magnetization       =    26.06 Bohr mag/cell
     absolute magnetization    =    37.23 Bohr mag/cell

     iteration # 14     ecut=    45.00 Ry     beta= 0.10
     Davidson diagonalization with overlap
     ethr =  4.28E-06,  avg # of iterations =  3.3

     total cpu time spent up to now is      822.1 secs

     total energy              =  -14694.01992459 Ry
     Harris-Foulkes estimate   =  -14694.02003291 Ry
     estimated scf accuracy    <       0.00066629 Ry

     total magnetization       =    25.97 Bohr mag/cell
     absolute magnetization    =    37.19 Bohr mag/cell

     iteration # 15     ecut=    45.00 Ry     beta= 0.10
     Davidson diagonalization with overlap
     ethr =  2.25E-07,  avg # of iterations =  3.8

     total cpu time spent up to now is      888.6 secs

     total energy              =  -14694.02006430 Ry
     Harris-Foulkes estimate   =  -14694.02001245 Ry
     estimated scf accuracy    <       0.00107149 Ry

     total magnetization       =    25.98 Bohr mag/cell
     absolute magnetization    =    37.19 Bohr mag/cell

     iteration # 16     ecut=    45.00 Ry     beta= 0.10
     Davidson diagonalization with overlap
     ethr =  2.25E-07,  avg # of iterations =  1.4

     total cpu time spent up to now is      932.9 secs

     total energy              =  -14694.02014687 Ry
     Harris-Foulkes estimate   =  -14694.02006848 Ry
     estimated scf accuracy    <       0.00044638 Ry

     total magnetization       =    25.97 Bohr mag/cell
     absolute magnetization    =    37.19 Bohr mag/cell

     iteration # 17     ecut=    45.00 Ry     beta= 0.10
     Davidson diagonalization with overlap
     ethr =  1.51E-07,  avg # of iterations =  1.1

     total cpu time spent up to now is      975.9 secs

     total energy              =  -14694.02015286 Ry
     Harris-Foulkes estimate   =  -14694.02013594 Ry
     estimated scf accuracy    <       0.00007754 Ry

     total magnetization       =    25.96 Bohr mag/cell
     absolute magnetization    =    37.19 Bohr mag/cell

     iteration # 18     ecut=    45.00 Ry     beta= 0.10
     Davidson diagonalization with overlap
     ethr =  2.62E-08,  avg # of iterations =  1.9

     total cpu time spent up to now is     1024.4 secs

     total energy              =  -14694.02016648 Ry
     Harris-Foulkes estimate   =  -14694.02015298 Ry
     estimated scf accuracy    <       0.00005959 Ry

     total magnetization       =    25.96 Bohr mag/cell
     absolute magnetization    =    37.19 Bohr mag/cell

     iteration # 19     ecut=    45.00 Ry     beta= 0.10
     Davidson diagonalization with overlap
     ethr =  2.01E-08,  avg # of iterations =  1.4

     total cpu time spent up to now is     1069.0 secs

     total energy              =  -14694.02018681 Ry
     Harris-Foulkes estimate   =  -14694.02016099 Ry
     estimated scf accuracy    <       0.00003475 Ry

     total magnetization       =    25.96 Bohr mag/cell
     absolute magnetization    =    37.19 Bohr mag/cell

     iteration # 20     ecut=    45.00 Ry     beta= 0.10
     Davidson diagonalization with overlap
     ethr =  1.17E-08,  avg # of iterations =  2.4

     total cpu time spent up to now is     1122.1 secs

     total energy              =  -14694.02018088 Ry
     Harris-Foulkes estimate   =  -14694.02017239 Ry
     estimated scf accuracy    <       0.00003204 Ry

     total magnetization       =    25.95 Bohr mag/cell
     absolute magnetization    =    37.19 Bohr mag/cell

     iteration # 21     ecut=    45.00 Ry     beta= 0.10
     Davidson diagonalization with overlap
     ethr =  1.08E-08,  avg # of iterations =  2.0

     total cpu time spent up to now is     1171.5 secs

     total energy              =  -14694.02017127 Ry
     Harris-Foulkes estimate   =  -14694.02016933 Ry
     estimated scf accuracy    <       0.00000387 Ry

     total magnetization       =    25.95 Bohr mag/cell
     absolute magnetization    =    37.19 Bohr mag/cell

     iteration # 22     ecut=    45.00 Ry     beta= 0.10
     Davidson diagonalization with overlap
     ethr =  1.31E-09,  avg # of iterations =  3.0

     total cpu time spent up to now is     1229.0 secs

     total energy              =  -14694.02017162 Ry
     Harris-Foulkes estimate   =  -14694.02016982 Ry
     estimated scf accuracy    <       0.00000161 Ry

     total magnetization       =    25.94 Bohr mag/cell
     absolute magnetization    =    37.19 Bohr mag/cell

     iteration # 23     ecut=    45.00 Ry     beta= 0.10
     Davidson diagonalization with overlap
     ethr =  5.44E-10,  avg # of iterations =  2.2

     total cpu time spent up to now is     1281.0 secs

     total energy              =  -14694.02017036 Ry
     Harris-Foulkes estimate   =  -14694.02016898 Ry
     estimated scf accuracy    <       0.00000122 Ry

     total magnetization       =    25.94 Bohr mag/cell
     absolute magnetization    =    37.19 Bohr mag/cell

     iteration # 24     ecut=    45.00 Ry     beta= 0.10
     Davidson diagonalization with overlap
     ethr =  4.11E-10,  avg # of iterations =  2.0
 
     Magnetic moment per site:
     atom:    1    charge:   13.5465    magn:    4.2585    constr:    0.0000
     atom:    2    charge:   13.5525    magn:    4.2157    constr:    0.0000
     atom:    3    charge:   13.5533    magn:    4.2127    constr:    0.0000
     atom:    4    charge:   13.5540    magn:    4.2098    constr:    0.0000
     atom:    5    charge:   13.5533    magn:    4.2127    constr:    0.0000
     atom:    6    charge:   13.5525    magn:    4.2157    constr:    0.0000
     atom:    7    charge:   13.5465    magn:    4.2585    constr:    0.0000
     atom:    8    charge:   13.5455    magn:   -4.2615    constr:    0.0000
     atom:    9    charge:    9.1376    magn:    0.0295    constr:    0.0000
     atom:   10    charge:    9.1371    magn:    0.0304    constr:    0.0000
     atom:   11    charge:    9.1363    magn:    0.0298    constr:    0.0000
     atom:   12    charge:    9.1350    magn:    0.0269    constr:    0.0000
     atom:   13    charge:    9.1355    magn:    0.0265    constr:    0.0000
     atom:   14    charge:    9.1360    magn:    0.0263    constr:    0.0000
     atom:   15    charge:    9.1360    magn:    0.0263    constr:    0.0000
     atom:   16    charge:    9.1355    magn:    0.0265    constr:    0.0000
     atom:   17    charge:    9.1350    magn:    0.0269    constr:    0.0000
     atom:   18    charge:    9.1363    magn:    0.0298    constr:    0.0000
     atom:   19    charge:    9.1371    magn:    0.0304    constr:    0.0000
     atom:   20    charge:    9.1376    magn:    0.0295    constr:    0.0000
     atom:   21    charge:    9.1389    magn:    0.0409    constr:    0.0000
     atom:   22    charge:    9.1401    magn:   -0.0369    constr:    0.0000
     atom:   23    charge:    9.1401    magn:   -0.0369    constr:    0.0000
     atom:   24    charge:    9.1389    magn:    0.0409    constr:    0.0000

     total cpu time spent up to now is     1330.6 secs

     End of self-consistent calculation
 --- enter write_ns ---
 LDA+U parameters:
U(  1) =   3.1200   J(  1) =   0.7000   B(  1) =   0.0803
U(  2) =   3.1200   J(  2) =   0.7000   B(  2) =   0.0803
atom    1   Tr[ns(na)] (up, down, total) =   4.97559  0.71496  5.69055
   spin  1
    eigenvalues: 
  0.986  0.994  0.994  0.999  1.002
    eigenvectors:
  0.000  0.000  0.000  1.000  0.000
  0.000  0.309  0.691  0.000  0.000
  0.000  0.691  0.309  0.000  0.000
  0.000  0.000  0.000  0.000  1.000
  1.000  0.000  0.000  0.000  0.000
    occupations:
  0.999 -0.000 -0.000  0.000  0.000
 -0.000  0.994 -0.000  0.000  0.000
 -0.000 -0.000  0.994  0.000  0.000
  0.000  0.000  0.000  1.002 -0.000
  0.000  0.000  0.000 -0.000  0.986
   spin  2
    eigenvalues: 
  0.066  0.114  0.144  0.144  0.247
    eigenvectors:
  0.000  1.000  0.000  0.000  0.000
  0.000  0.000  0.328  0.672  0.000
  0.000  0.000  0.672  0.328  0.000
  1.000  0.000  0.000  0.000  0.000
  0.000  0.000  0.000  0.000  1.000
    occupations:
  0.114 -0.000 -0.000  0.000  0.000
 -0.000  0.144 -0.000  0.000  0.000
 -0.000 -0.000  0.144  0.000  0.000
  0.000  0.000  0.000  0.066 -0.000
  0.000  0.000  0.000 -0.000  0.247
atomic mag. moment =     4.260628
atom    2   Tr[ns(na)] (up, down, total) =   4.97222  0.75034  5.72256
   spin  1
    eigenvalues: 
  0.985  0.994  0.994  0.997  1.002
    eigenvectors:
  0.000  0.000  0.000  1.000  0.000
  0.000  0.318  0.682  0.000  0.000
  0.000  0.682  0.318  0.000  0.000
  0.000  0.000  0.000  0.000  1.000
  1.000  0.000  0.000  0.000  0.000
    occupations:
  0.997 -0.000 -0.000  0.000  0.000
 -0.000  0.994 -0.000  0.000  0.000
 -0.000 -0.000  0.994  0.000  0.000
  0.000  0.000  0.000  1.002 -0.000
  0.000  0.000  0.000 -0.000  0.985
   spin  2
    eigenvalues: 
  0.064  0.131  0.143  0.143  0.268
    eigenvectors:
  0.000  1.000  0.000  0.000  0.000
  0.000  0.000  0.280  0.720  0.000
  0.000  0.000  0.720  0.280  0.000
  1.000  0.000  0.000  0.000  0.000
  0.000  0.000  0.000  0.000  1.000
    occupations:
  0.131 -0.000 -0.000  0.000  0.000
 -0.000  0.143 -0.000  0.000  0.000
 -0.000 -0.000  0.143  0.000  0.000
  0.000  0.000  0.000  0.064 -0.000
  0.000  0.000  0.000 -0.000  0.268
atomic mag. moment =     4.221873
atom    3   Tr[ns(na)] (up, down, total) =   4.97197  0.75242  5.72439
   spin  1
    eigenvalues: 
  0.985  0.994  0.994  0.998  1.002
    eigenvectors:
  0.000  0.000  0.000  1.000  0.000
  0.000  0.247  0.753  0.000  0.000
  0.000  0.753  0.247  0.000  0.000
  0.000  0.000  0.000  0.000  1.000
  1.000  0.000  0.000  0.000  0.000
    occupations:
  0.998 -0.000 -0.000  0.000  0.000
 -0.000  0.994 -0.000  0.000  0.000
 -0.000 -0.000  0.994  0.000  0.000
  0.000  0.000  0.000  1.002 -0.000
  0.000  0.000  0.000 -0.000  0.985
   spin  2
    eigenvalues: 
  0.064  0.137  0.141  0.141  0.269
    eigenvectors:
  0.000  1.000  0.000  0.000  0.000
  0.000  0.000  0.291  0.709  0.000
  0.000  0.000  0.709  0.291  0.000
  1.000  0.000  0.000  0.000  0.000
  0.000  0.000  0.000  0.000  1.000
    occupations:
  0.137 -0.000 -0.000  0.000  0.000
 -0.000  0.141 -0.000  0.000  0.000
 -0.000 -0.000  0.141  0.000  0.000
  0.000  0.000  0.000  0.064 -0.000
  0.000  0.000  0.000 -0.000  0.269
atomic mag. moment =     4.219552
atom    4   Tr[ns(na)] (up, down, total) =   4.97166  0.75477  5.72643
   spin  1
    eigenvalues: 
  0.985  0.994  0.994  0.998  1.002
    eigenvectors:
  0.000  0.000  0.000  1.000  0.000
  0.000  0.364  0.636  0.000  0.000
  0.000  0.636  0.364  0.000  0.000
  0.000  0.000  0.000  0.000  1.000
  1.000  0.000  0.000  0.000  0.000
    occupations:
  0.998 -0.000 -0.000  0.000  0.000
 -0.000  0.994 -0.000  0.000  0.000
 -0.000 -0.000  0.994  0.000  0.000
  0.000  0.000  0.000  1.002 -0.000
  0.000  0.000  0.000 -0.000  0.985
   spin  2
    eigenvalues: 
  0.064  0.140  0.141  0.141  0.270
    eigenvectors:
  0.000  1.000  0.000  0.000  0.000
  0.000  0.000  0.369  0.631  0.000
  0.000  0.000  0.631  0.369  0.000
  1.000  0.000  0.000  0.000  0.000
  0.000  0.000  0.000  0.000  1.000
    occupations:
  0.140 -0.000 -0.000  0.000  0.000
 -0.000  0.141 -0.000  0.000  0.000
 -0.000 -0.000  0.141  0.000  0.000
  0.000  0.000  0.000  0.064 -0.000
  0.000  0.000  0.000 -0.000  0.270
atomic mag. moment =     4.216892
atom    5   Tr[ns(na)] (up, down, total) =   4.97197  0.75242  5.72439
   spin  1
    eigenvalues: 
  0.985  0.994  0.994  0.998  1.002
    eigenvectors:
  0.000  0.000  0.000  1.000  0.000
  0.000  0.284  0.716  0.000  0.000
  0.000  0.716  0.284  0.000  0.000
  0.000  0.000  0.000  0.000  1.000
  1.000  0.000  0.000  0.000  0.000
    occupations:
  0.998 -0.000 -0.000  0.000  0.000
 -0.000  0.994 -0.000  0.000  0.000
 -0.000 -0.000  0.994  0.000  0.000
  0.000  0.000  0.000  1.002 -0.000
  0.000  0.000  0.000 -0.000  0.985
   spin  2
    eigenvalues: 
  0.064  0.137  0.141  0.141  0.269
    eigenvectors:
  0.000  1.000  0.000  0.000  0.000
  0.000  0.000  0.277  0.723  0.000
  0.000  0.000  0.723  0.277  0.000
  1.000  0.000  0.000  0.000  0.000
  0.000  0.000  0.000  0.000  1.000
    occupations:
  0.137 -0.000 -0.000  0.000  0.000
 -0.000  0.141 -0.000  0.000  0.000
 -0.000 -0.000  0.141  0.000  0.000
  0.000  0.000  0.000  0.064 -0.000
  0.000  0.000  0.000 -0.000  0.269
atomic mag. moment =     4.219552
atom    6   Tr[ns(na)] (up, down, total) =   4.97222  0.75034  5.72256
   spin  1
    eigenvalues: 
  0.985  0.994  0.994  0.997  1.002
    eigenvectors:
  0.000  0.000  0.000  1.000  0.000
  0.000  0.342  0.658  0.000  0.000
  0.000  0.658  0.342  0.000  0.000
  0.000  0.000  0.000  0.000  1.000
  1.000  0.000  0.000  0.000  0.000
    occupations:
  0.997 -0.000 -0.000  0.000  0.000
 -0.000  0.994 -0.000  0.000  0.000
 -0.000 -0.000  0.994  0.000  0.000
  0.000  0.000  0.000  1.002 -0.000
  0.000  0.000  0.000 -0.000  0.985
   spin  2
    eigenvalues: 
  0.064  0.131  0.143  0.143  0.268
    eigenvectors:
  0.000  1.000  0.000  0.000  0.000
  0.000  0.000  0.325  0.675  0.000
  0.000  0.000  0.675  0.325  0.000
  1.000  0.000  0.000  0.000  0.000
  0.000  0.000  0.000  0.000  1.000
    occupations:
  0.131 -0.000 -0.000  0.000  0.000
 -0.000  0.143 -0.000  0.000  0.000
 -0.000 -0.000  0.143  0.000  0.000
  0.000  0.000  0.000  0.064 -0.000
  0.000  0.000  0.000 -0.000  0.268
atomic mag. moment =     4.221873
atom    7   Tr[ns(na)] (up, down, total) =   4.97559  0.71496  5.69055
   spin  1
    eigenvalues: 
  0.986  0.994  0.994  0.999  1.002
    eigenvectors:
  0.000  0.000  0.000  1.000  0.000
  0.000  0.322  0.678  0.000  0.000
  0.000  0.678  0.322  0.000  0.000
  0.000  0.000  0.000  0.000  1.000
  1.000  0.000  0.000  0.000  0.000
    occupations:
  0.999 -0.000 -0.000  0.000  0.000
 -0.000  0.994 -0.000  0.000  0.000
 -0.000 -0.000  0.994  0.000  0.000
  0.000  0.000  0.000  1.002 -0.000
  0.000  0.000  0.000 -0.000  0.986
   spin  2
    eigenvalues: 
  0.066  0.114  0.144  0.144  0.247
    eigenvectors:
  0.000  1.000  0.000  0.000  0.000
  0.000  0.000  0.359  0.641  0.000
  0.000  0.000  0.641  0.359  0.000
  1.000  0.000  0.000  0.000  0.000
  0.000  0.000  0.000  0.000  1.000
    occupations:
  0.114 -0.000 -0.000  0.000  0.000
 -0.000  0.144 -0.000  0.000  0.000
 -0.000 -0.000  0.144  0.000  0.000
  0.000  0.000  0.000  0.066 -0.000
  0.000  0.000  0.000 -0.000  0.247
atomic mag. moment =     4.260628
atom    8   Tr[ns(na)] (up, down, total) =   0.71785  4.97328  5.69113
   spin  1
    eigenvalues: 
  0.063  0.116  0.145  0.145  0.248
    eigenvectors:
  0.000  1.000  0.000  0.000  0.000
  0.000  0.000  0.317  0.683  0.000
  0.000  0.000  0.683  0.317  0.000
  1.000  0.000  0.000  0.000  0.000
  0.000  0.000  0.000  0.000  1.000
    occupations:
  0.116 -0.000 -0.000  0.000  0.000
 -0.000  0.145 -0.000  0.000  0.000
 -0.000 -0.000  0.145  0.000  0.000
  0.000  0.000  0.000  0.063 -0.000
  0.000  0.000  0.000 -0.000  0.248
   spin  2
    eigenvalues: 
  0.985  0.994  0.994  0.997  1.002
    eigenvectors:
  0.000  0.000  0.000  1.000  0.000
  0.000  0.300  0.700  0.000  0.000
  0.000  0.700  0.300  0.000  0.000
  0.000  0.000  0.000  0.000  1.000
  1.000  0.000  0.000  0.000  0.000
    occupations:
  0.997 -0.000 -0.000  0.000  0.000
 -0.000  0.994 -0.000  0.000  0.000
 -0.000 -0.000  0.994  0.000  0.000
  0.000  0.000  0.000  1.002 -0.000
  0.000  0.000  0.000 -0.000  0.985
atomic mag. moment =    -4.255435
N of occupied +U levels =   45.692567
 --- exit write_ns ---

 ------ SPIN UP ------------


          k = 0.0000 0.0000 0.0000 ( 14071 PWs)   bands (ev):

   -67.0720 -67.0720 -66.9253 -66.9253 -66.9007 -66.9007 -66.8990 -62.5370
   -35.8457 -35.8457 -35.7856 -35.7856 -35.7856 -35.7856 -35.7091 -35.7091
   -35.6818 -35.6818 -35.6800 -35.6363 -35.6363 -35.6363 -35.6363 -35.6135
   -35.6135 -35.6135 -35.6135 -35.6121 -35.6121 -31.3572 -31.3548 -31.3548
     5.5601   5.6983   5.7174   6.1092   6.1622   6.7638   6.8170   7.3939
     7.9261   8.1662   8.1727   8.1984   8.2393   8.2591   8.3025   8.3789
     8.5013   8.5057   8.5278   8.5527   8.6443   8.6909   8.8587   8.9072
     8.9783   9.1394   9.1606   9.1936   9.2298   9.2508   9.4217   9.4233
     9.5654   9.6950   9.7148   9.7412   9.7653   9.8599   9.8640   9.9075
     9.9075   9.9603   9.9873   9.9873   9.9880   9.9880  10.0629  10.1110
    10.1345  10.1345  10.1428  10.1428  10.2459  10.2474  10.2946  10.2946
    10.3009  10.3009  10.3573  10.3573  10.3756  10.3756  10.3857  10.3857
    10.4109  10.4109  10.4501  10.4501  10.4578  10.5119  10.5119  10.5409
    10.5409  10.5615  10.5645  10.7278  10.7998  10.8457  10.8457  10.8556
    10.8556  10.9490  10.9672  10.9957  11.0307  11.1329  11.2011  11.2126
    11.2597  11.2812  11.2812  11.3636  11.3844  11.3844  11.4045  11.4393
    11.5327  11.6158  11.6254  11.6863  11.7675  11.7706  11.7706  11.7918
    11.8471  11.8861  11.9200  11.9200  11.9454  11.9624  12.1699  12.2181
    12.2181  12.3303  12.3842  12.3842  12.4463  12.5100  12.5390  12.5390
    12.5822  12.6822  12.7703  12.8107  12.8276  12.9560  13.6493  13.8607
    14.8735  15.1550  16.2753  16.5873  16.5873  16.6173  16.7879  17.0002
    17.5076  18.7582  18.9407  19.8213  19.8213  20.1489  20.1489  20.1800
    20.1800  20.8211

          k = 0.0000 0.0000 0.0159 ( 14107 PWs)   bands (ev):

   -67.0720 -67.0720 -66.9253 -66.9253 -66.9007 -66.9007 -66.8990 -62.5370
   -35.8457 -35.8457 -35.7856 -35.7856 -35.7856 -35.7856 -35.7091 -35.7091
   -35.6818 -35.6818 -35.6800 -35.6363 -35.6363 -35.6363 -35.6363 -35.6135
   -35.6135 -35.6135 -35.6135 -35.6121 -35.6121 -31.3572 -31.3548 -31.3548
     5.5641   5.6629   5.7605   6.0442   6.2337   6.6682   6.9152   7.3583
     7.9617   8.1669   8.1753   8.1965   8.2293   8.2617   8.3147   8.3754
     8.4193   8.4957   8.5059   8.6273   8.6848   8.6860   8.8660   8.8792
     9.0016   9.1018   9.1418   9.1848   9.2615   9.2729   9.4136   9.4278
     9.5477   9.6958   9.7133   9.7592   9.7671   9.8575   9.8639   9.9078
     9.9078   9.9635   9.9748   9.9748  10.0044  10.0044  10.0450  10.1055
    10.1055  10.1066  10.1745  10.1745  10.2532  10.2636  10.2935  10.2935
    10.3009  10.3009  10.3393  10.3393  10.3666  10.3666  10.3954  10.3954
    10.4235  10.4235  10.4471  10.4502  10.4502  10.4994  10.4994  10.5442
    10.5616  10.5616  10.5771  10.7445  10.7834  10.7834  10.7876  10.9201
    10.9201  10.9571  10.9612  10.9947  11.0326  11.1307  11.1893  11.2202
    11.2393  11.2393  11.2621  11.3752  11.3967  11.4260  11.4260  11.4365
    11.5384  11.6044  11.6285  11.6834  11.7418  11.7418  11.7789  11.7932
    11.8448  11.8857  11.9440  11.9440  11.9455  11.9548  12.1759  12.2071
    12.2071  12.3244  12.3897  12.3897  12.4505  12.5218  12.5379  12.5379
    12.5802  12.6832  12.7622  12.7700  12.8277  13.0136  13.5645  13.9560
    14.7549  15.2783  16.2033  16.5873  16.5873  16.6173  16.7879  17.0358
    17.5497  18.5333  19.1802  19.8311  19.8311  20.0610  20.0610  20.2838
    20.2838  20.5125

          k = 0.0000 0.0000 0.0319 ( 14080 PWs)   bands (ev):

   -67.0720 -67.0720 -66.9253 -66.9253 -66.9007 -66.9007 -66.8990 -62.5370
   -35.8457 -35.8457 -35.7856 -35.7856 -35.7856 -35.7856 -35.7091 -35.7091
   -35.6818 -35.6818 -35.6800 -35.6363 -35.6363 -35.6363 -35.6363 -35.6135
   -35.6135 -35.6135 -35.6135 -35.6121 -35.6121 -31.3572 -31.3548 -31.3548
     5.5756   5.6277   5.8182   5.9660   6.3311   6.5551   7.0355   7.2720
     8.0468   8.1685   8.1831   8.1927   8.2112   8.2668   8.2954   8.3451
     8.3685   8.4634   8.5151   8.6729   8.6799   8.7676   8.8427   8.8808
     8.9990   9.0717   9.1138   9.1645   9.3044   9.3094   9.3992   9.4316
     9.5140   9.6976   9.7100   9.7705   9.7935   9.8528   9.8638   9.9084
     9.9084   9.9665   9.9665   9.9699  10.0107  10.0246  10.0246  10.0758
    10.0758  10.0980  10.2121  10.2121  10.2649  10.2842  10.2842  10.2973
    10.3011  10.3011  10.3104  10.3104  10.3654  10.3654  10.3975  10.3975
    10.4284  10.4452  10.4452  10.4505  10.4505  10.4824  10.4824  10.5113
    10.6002  10.6002  10.6006  10.7218  10.7218  10.7642  10.7763  10.9347
    10.9847  10.9874  10.9874  10.9930  11.0363  11.1264  11.1662  11.1732
    11.1732  11.2360  11.2670  11.3810  11.3977  11.4308  11.4906  11.4906
    11.5490  11.5822  11.6348  11.6774  11.6867  11.6867  11.7959  11.8012
    11.8401  11.8848  11.9384  11.9457  11.9841  11.9841  12.1836  12.1836
    12.1883  12.3122  12.3998  12.3998  12.4584  12.5356  12.5356  12.5552
    12.5760  12.6850  12.6873  12.7694  12.8278  13.1126  13.4375  14.1130
    14.5722  15.4708  16.0475  16.5873  16.5873  16.6173  16.7879  17.0882
    17.6703  18.2678  19.4993  19.8605  19.8605  19.9763  19.9763  20.1757
    20.4162  20.4162

          k = 0.0000 0.0000-0.0478 ( 14088 PWs)   bands (ev):

   -67.0720 -67.0720 -66.9253 -66.9253 -66.9007 -66.9007 -66.8990 -62.5370
   -35.8457 -35.8457 -35.7856 -35.7856 -35.7856 -35.7856 -35.7091 -35.7091
   -35.6818 -35.6818 -35.6800 -35.6363 -35.6363 -35.6363 -35.6363 -35.6135
   -35.6135 -35.6135 -35.6135 -35.6121 -35.6121 -31.3572 -31.3548 -31.3548
     5.5887   5.6067   5.8666   5.9105   6.4128   6.4682   7.1333   7.1831
     8.1235   8.1695   8.1886   8.1908   8.2023   8.2118   8.2693   8.3567
     8.3650   8.4462   8.5199   8.6669   8.7077   8.7822   8.8615   8.8884
     8.9544   9.0855   9.1017   9.1494   9.3254   9.3277   9.3885   9.4331
     9.4962   9.6989   9.7079   9.7723   9.8115   9.8505   9.8637   9.9087
     9.9087   9.9637   9.9637   9.9731   9.9926  10.0450  10.0450  10.0522
    10.0522  10.0938  10.2461  10.2461  10.2563  10.2563  10.2711  10.3019
    10.3019  10.3027  10.3027  10.3150  10.3653  10.3653  10.3977  10.3977
    10.4196  10.4499  10.4499  10.4620  10.4620  10.4682  10.4682  10.4940
    10.6127  10.6323  10.6323  10.6823  10.6823  10.7520  10.7933  10.9213
    10.9923  10.9968  11.0277  11.0277  11.0381  11.1242  11.1325  11.1325
    11.1543  11.2445  11.2694  11.3727  11.4092  11.4280  11.5279  11.5279
    11.5542  11.5708  11.6378  11.6521  11.6521  11.6743  11.7972  11.8129
    11.8377  11.8843  11.9289  11.9458  12.0035  12.0035  12.1702  12.1702
    12.1949  12.3058  12.4045  12.4045  12.4622  12.5343  12.5343  12.5738
    12.5912  12.6365  12.6859  12.7691  12.8279  13.1772  13.3630  14.2181
    14.4579  15.5845  15.9428  16.5873  16.5873  16.6173  16.7879  17.1075
    17.7741  18.1183  19.7816  19.8883  19.9074  19.9074  19.9109  19.9109
    20.5416  20.5899

          k = 0.0000 0.1667 0.0000 ( 14044 PWs)   bands (ev):

   -67.0716 -67.0716 -66.9249 -66.9249 -66.9003 -66.9003 -66.8986 -62.5369
   -35.8455 -35.8455 -35.7886 -35.7886 -35.7854 -35.7854 -35.7088 -35.7088
   -35.6815 -35.6815 -35.6797 -35.6393 -35.6393 -35.6361 -35.6361 -35.6165
   -35.6165 -35.6151 -35.6133 -35.6133 -35.6120 -31.3584 -31.3568 -31.3545
     5.9887   6.1199   6.1366   6.5019   6.5459   7.0850   7.1187   7.5952
     7.9719   8.3328   8.3443   8.3857   8.4005   8.4157   8.4340   8.4547
     8.4868   8.5606   8.6371   8.7047   8.7244   8.7377   8.7876   8.8483
     8.8714   8.9517   8.9681   8.9973   9.1363   9.2529   9.4518   9.4625
     9.4954   9.5227   9.5233   9.6217   9.6486   9.6500   9.6603   9.6756
     9.6946   9.7228   9.7392   9.7591   9.8067   9.8508   9.8688   9.9662
    10.0053  10.0583  10.1530  10.1684  10.2083  10.2195  10.2549  10.3115
    10.3302  10.3503  10.3573  10.3610  10.3960  10.4058  10.4877  10.4971
    10.5910  10.6000  10.6383  10.6533  10.7167  10.7678  10.7891  10.8310
    10.8409  10.9154  10.9414  10.9663  11.0006  11.0136  11.0150  11.0268
    11.0709  11.0935  11.1018  11.1509  11.1581  11.1612  11.2238  11.2433
    11.2691  11.3172  11.3524  11.3996  11.4138  11.4376  11.4765  11.5488
    11.5873  11.5906  11.5907  11.6621  11.7194  11.7224  11.7615  11.7919
    11.8555  11.8660  11.8807  11.8995  11.9743  12.0048  12.0810  12.0963
    12.2202  12.2338  12.2847  12.3666  12.4179  12.4317  12.5543  12.5602
    12.6672  12.6726  12.7495  12.7502  12.7654  12.8919  13.7352  13.9365
    15.1169  15.3909  16.2739  16.5445  16.6150  16.6409  16.7860  17.4850
    17.5307  17.6698  17.8313  17.9297  18.6051  18.6660  19.3384  19.4503
    19.6415  19.6480

          k = 0.0000 0.1667 0.0159 ( 14046 PWs)   bands (ev):

   -67.0716 -67.0716 -66.9249 -66.9249 -66.9003 -66.9003 -66.8986 -62.5369
   -35.8455 -35.8455 -35.7886 -35.7886 -35.7854 -35.7854 -35.7088 -35.7088
   -35.6815 -35.6815 -35.6797 -35.6393 -35.6393 -35.6361 -35.6361 -35.6165
   -35.6165 -35.6151 -35.6133 -35.6133 -35.6120 -31.3584 -31.3568 -31.3545
     5.9924   6.0861   6.1774   6.4406   6.6125   6.9978   7.2065   7.5668
     7.9973   8.2878   8.3403   8.3930   8.4014   8.4240   8.4509   8.4635
     8.4953   8.5585   8.6358   8.6812   8.7055   8.7515   8.7968   8.8668
     8.8735   8.9372   8.9738   9.0000   9.1144   9.2757   9.4439   9.4634
     9.4914   9.5168   9.5286   9.6112   9.6529   9.6611   9.6615   9.6799
     9.6949   9.7241   9.7391   9.7591   9.7998   9.8391   9.8743   9.9773
     9.9893  10.0814  10.1375  10.1813  10.2077  10.2204  10.2504  10.2960
    10.3118  10.3326  10.3505  10.3952  10.4081  10.4243  10.4809  10.5022
    10.5882  10.6025  10.6369  10.6515  10.7163  10.7428  10.7747  10.8339
    10.8791  10.8899  10.9632  10.9758  10.9992  11.0118  11.0198  11.0327
    11.0691  11.0872  11.0885  11.1438  11.1634  11.1725  11.1988  11.2657
    11.2796  11.2828  11.3570  11.3962  11.4252  11.4536  11.4715  11.5505
    11.5582  11.5930  11.6006  11.6834  11.7061  11.7327  11.7585  11.7927
    11.8488  11.8553  11.8863  11.8996  11.9569  12.0259  12.0757  12.1069
    12.2243  12.2334  12.2660  12.3799  12.4160  12.4431  12.5511  12.5619
    12.6681  12.6718  12.7007  12.7496  12.7501  12.9699  13.6203  14.0623
    14.9767  15.5305  16.2505  16.5282  16.6126  16.6409  16.7860  17.3740
    17.5583  17.7692  17.8239  17.9999  18.4834  18.7940  19.0571  19.4631
    19.7447  19.8240

          k = 0.0000 0.1667 0.0319 ( 14043 PWs)   bands (ev):

   -67.0716 -67.0716 -66.9249 -66.9249 -66.9003 -66.9003 -66.8986 -62.5369
   -35.8455 -35.8455 -35.7886 -35.7886 -35.7854 -35.7854 -35.7088 -35.7088
   -35.6815 -35.6815 -35.6797 -35.6393 -35.6393 -35.6361 -35.6361 -35.6165
   -35.6165 -35.6151 -35.6133 -35.6133 -35.6120 -31.3584 -31.3568 -31.3545
     6.0032   6.0530   6.2315   6.3682   6.7009   6.8982   7.3079   7.4973
     8.0575   8.2135   8.3477   8.3776   8.4029   8.4207   8.4712   8.5055
     8.5162   8.5571   8.6178   8.6600   8.6721   8.7542   8.8271   8.8733
     8.9005   8.9149   8.9768   9.0051   9.0765   9.3183   9.4200   9.4654
     9.4849   9.5079   9.5401   9.5945   9.6552   9.6633   9.6831   9.6882
     9.6966   9.7288   9.7384   9.7593   9.7856   9.8168   9.8849   9.9681
     9.9985  10.1171  10.1242  10.1956  10.2065  10.2232  10.2365  10.2403
    10.3117  10.3380  10.3501  10.3939  10.4134  10.4714  10.4882  10.5074
    10.5797  10.6078  10.6343  10.6463  10.6775  10.7271  10.7934  10.8274
    10.8553  10.9240  10.9843  10.9985  11.0023  11.0079  11.0298  11.0486
    11.0641  11.0654  11.0746  11.1327  11.1472  11.1897  11.2004  11.2314
    11.2646  11.3125  11.3692  11.3965  11.4148  11.4548  11.5026  11.5085
    11.5643  11.5977  11.6225  11.6757  11.6946  11.7511  11.7691  11.7957
    11.8147  11.8550  11.8997  11.9028  11.9203  12.0516  12.0771  12.1245
    12.2258  12.2320  12.2378  12.3976  12.4142  12.4774  12.5443  12.5653
    12.6118  12.6689  12.6710  12.7495  12.7503  13.0956  13.4586  14.2554
    14.7643  15.7376  16.1718  16.4973  16.6099  16.6409  16.7860  17.2805
    17.5829  17.7095  18.0357  18.1434  18.3438  18.7405  18.9532  19.2912
    19.9942  20.0984

          k = 0.0000 0.1667-0.0478 ( 14036 PWs)   bands (ev):

   -67.0716 -67.0716 -66.9249 -66.9249 -66.9003 -66.9003 -66.8986 -62.5369
   -35.8455 -35.8455 -35.7886 -35.7886 -35.7854 -35.7854 -35.7088 -35.7088
   -35.6815 -35.6815 -35.6797 -35.6393 -35.6393 -35.6361 -35.6361 -35.6165
   -35.6165 -35.6151 -35.6133 -35.6133 -35.6120 -31.3584 -31.3568 -31.3545
     6.0148   6.0339   6.2774   6.3161   6.7770   6.8185   7.3951   7.4189
     8.1190   8.1489   8.3572   8.3644   8.4039   8.4187   8.4745   8.5285
     8.5305   8.5751   8.5859   8.6431   8.6662   8.7528   8.8538   8.8655
     8.8965   8.9231   8.9772   9.0075   9.0566   9.3472   9.3975   9.4668
     9.4818   9.5049   9.5470   9.5858   9.6555   9.6638   9.6905   9.6950
     9.6989   9.7355   9.7355   9.7597   9.7773   9.8048   9.8905   9.9589
    10.0096  10.1070  10.1623  10.1933  10.2032  10.2046  10.2276  10.2318
    10.3115  10.3412  10.3493  10.3932  10.4165  10.4669  10.5093  10.5319
    10.5627  10.6134  10.6331  10.6349  10.6555  10.7287  10.8154  10.8241
    10.8281  10.9405  10.9912  10.9988  11.0068  11.0299  11.0366  11.0424
    11.0506  11.0676  11.0781  11.1076  11.1493  11.2015  11.2025  11.2026
    11.2671  11.3190  11.3824  11.4091  11.4131  11.4273  11.4897  11.5274
    11.5692  11.5999  11.6456  11.6463  11.6956  11.7481  11.7862  11.7981
    11.8052  11.8548  11.8963  11.8997  11.9113  12.0494  12.0947  12.1323
    12.2091  12.2309  12.2385  12.4014  12.4169  12.5253  12.5407  12.5447
    12.5670  12.6684  12.6715  12.7494  12.7505  13.1849  13.3566  14.3895
    14.6229  15.8654  16.0893  16.4838  16.6090  16.6409  16.7860  17.2499
    17.6023  17.6753  18.1598  18.2380  18.3252  18.5115  19.0994  19.1406
    20.1598  20.1849

          k = 0.0000 0.3333 0.0000 ( 14062 PWs)   bands (ev):

   -67.0719 -67.0719 -66.9252 -66.9252 -66.9006 -66.9006 -66.8989 -62.5360
   -35.8449 -35.8449 -35.7944 -35.7944 -35.7851 -35.7851 -35.7082 -35.7082
   -35.6810 -35.6810 -35.6791 -35.6451 -35.6451 -35.6358 -35.6358 -35.6223
   -35.6223 -35.6210 -35.6130 -35.6130 -35.6116 -31.3659 -31.3561 -31.3540
     7.1260   7.2310   7.2392   7.4925   7.5046   7.7627   7.7725   7.9059
     7.9671   8.0433   8.0490   8.1709   8.1778   8.3483   8.3654   8.5410
     8.6091   8.6921   8.7572   8.7890   8.8150   8.8561   8.9021   8.9157
     8.9439   8.9613   9.0818   9.0819   9.0990   9.1170   9.1455   9.1751
     9.2177   9.2703   9.2785   9.2997   9.3992   9.4172   9.4352   9.5608
     9.5847   9.6818   9.7255   9.7573   9.8276   9.8489   9.8814  10.0229
    10.1513  10.1722  10.1837  10.2286  10.2335  10.2492  10.2803  10.3707
    10.3862  10.5037  10.5620  10.5662  10.5907  10.6932  10.7498  10.8018
    10.9380  10.9514  10.9620  10.9978  11.0252  11.0280  11.0953  11.1147
    11.1305  11.1401  11.1675  11.1735  11.2217  11.2312  11.2375  11.2581
    11.2730  11.2796  11.3337  11.3426  11.3664  11.3671  11.4817  11.4911
    11.4915  11.5100  11.5424  11.5563  11.5605  11.5626  11.6529  11.6598
    11.7138  11.7490  11.7582  11.7798  11.7987  11.7998  11.8231  11.8446
    11.8450  11.8685  11.9442  11.9767  12.0274  12.0945  12.1678  12.1908
    12.1920  12.3376  12.3862  12.4578  12.4905  12.6037  12.6274  12.6401
    12.6920  12.7017  12.7316  12.7829  12.8042  12.8402  13.9141  14.0202
    14.3729  14.6188  14.6555  15.1263  15.2159  15.3740  15.4475  15.9595
    16.1371  16.2516  16.4777  16.5012  16.7932  17.0304  17.0909  17.6742
    18.7496  19.0731

          k = 0.0000 0.3333 0.0159 ( 14056 PWs)   bands (ev):

   -67.0719 -67.0719 -66.9252 -66.9252 -66.9006 -66.9006 -66.8989 -62.5360
   -35.8449 -35.8449 -35.7944 -35.7944 -35.7851 -35.7851 -35.7082 -35.7082
   -35.6810 -35.6810 -35.6791 -35.6451 -35.6451 -35.6358 -35.6358 -35.6223
   -35.6223 -35.6210 -35.6130 -35.6130 -35.6116 -31.3659 -31.3561 -31.3540
     7.1288   7.2040   7.2710   7.4492   7.5481   7.7290   7.8024   7.8993
     7.9720   8.0293   8.0642   8.1490   8.2012   8.3224   8.3920   8.5260
     8.6227   8.6954   8.7465   8.7773   8.8177   8.8717   8.9035   8.9196
     8.9437   8.9615   9.0808   9.0833   9.0992   9.1134   9.1380   9.1514
     9.2117   9.2809   9.3004   9.3104   9.4018   9.4179   9.4338   9.5555
     9.5828   9.6752   9.6932   9.7556   9.8421   9.8795   9.8829  10.0242
    10.1426  10.1686  10.1855  10.2034  10.2409  10.2682  10.2716  10.3669
    10.3924  10.5009  10.5045  10.5964  10.6501  10.6887  10.7541  10.8142
    10.8962  10.9307  10.9839  10.9963  11.0121  11.0532  11.0534  11.1082
    11.1304  11.1504  11.1551  11.1826  11.2163  11.2202  11.2307  11.2482
    11.2997  11.3231  11.3348  11.3488  11.3672  11.3772  11.4357  11.4920
    11.4960  11.5245  11.5336  11.5373  11.5796  11.6026  11.6462  11.6641
    11.7142  11.7248  11.7560  11.7687  11.7955  11.8051  11.8443  11.8469
    11.8532  11.8685  11.9418  11.9703  12.0187  12.0855  12.1687  12.1978
    12.2082  12.3359  12.3718  12.4682  12.4929  12.4993  12.5992  12.6264
    12.6945  12.7318  12.7822  12.8041  12.8404  12.8650  13.7360  14.1918
    14.3850  14.5556  14.7285  15.0161  15.2079  15.3696  15.5588  15.9167
    16.1110  16.2527  16.5012  16.5090  16.7986  17.0232  17.0909  17.6730
    18.7478  18.9873

          k = 0.0000 0.3333 0.0319 ( 14062 PWs)   bands (ev):

   -67.0719 -67.0719 -66.9252 -66.9252 -66.9006 -66.9006 -66.8989 -62.5360
   -35.8449 -35.8449 -35.7944 -35.7944 -35.7851 -35.7851 -35.7082 -35.7082
   -35.6810 -35.6810 -35.6791 -35.6451 -35.6451 -35.6358 -35.6358 -35.6223
   -35.6223 -35.6210 -35.6130 -35.6130 -35.6116 -31.3659 -31.3561 -31.3540
     7.1365   7.1794   7.3103   7.4019   7.5963   7.6876   7.8327   7.8830
     7.9830   8.0140   8.0831   8.1256   8.2290   8.2909   8.4257   8.4965
     8.6467   8.7039   8.7273   8.7527   8.8302   8.8752   8.9201   8.9298
     8.9469   8.9631   9.0802   9.0823   9.0851   9.0999   9.1075   9.1642
     9.1980   9.2839   9.3029   9.3709   9.4076   9.4224   9.4309   9.5437
     9.5824   9.6018   9.7170   9.7512   9.8266   9.8858   9.9603  10.0265
    10.1295  10.1317  10.1770  10.1902  10.2457  10.2702  10.3110  10.3421
    10.4068  10.4388  10.5150  10.6199  10.7120  10.7215  10.7732  10.8346
    10.8525  10.8700  10.9393  10.9769  11.0083  11.0483  11.0688  11.1207
    11.1217  11.1479  11.1665  11.1861  11.2047  11.2188  11.2225  11.2372
    11.3338  11.3365  11.3495  11.3585  11.3822  11.3916  11.4101  11.4594
    11.4855  11.5135  11.5373  11.5864  11.6026  11.6344  11.6485  11.6686
    11.6822  11.7144  11.7350  11.7600  11.8002  11.8097  11.8443  11.8638
    11.8685  11.8863  11.9361  11.9546  11.9946  12.0738  12.1717  12.2217
    12.2386  12.3318  12.3450  12.3659  12.4817  12.5007  12.5890  12.6247
    12.6992  12.7322  12.7806  12.8040  12.8407  13.0685  13.5153  14.3578
    14.4551  14.4902  14.7947  14.8807  15.0855  15.4778  15.6935  15.8308
    16.0266  16.2729  16.5012  16.5567  16.8126  17.0065  17.0909  17.6704
    18.7486  18.8985

          k = 0.0000 0.3333-0.0478 ( 14060 PWs)   bands (ev):

   -67.0719 -67.0719 -66.9252 -66.9252 -66.9006 -66.9006 -66.8989 -62.5360
   -35.8449 -35.8449 -35.7944 -35.7944 -35.7851 -35.7851 -35.7082 -35.7082
   -35.6810 -35.6810 -35.6791 -35.6451 -35.6451 -35.6358 -35.6358 -35.6223
   -35.6223 -35.6210 -35.6130 -35.6130 -35.6116 -31.3659 -31.3561 -31.3540
     7.1435   7.1667   7.3450   7.3644   7.6427   7.6435   7.8548   7.8653
     7.9924   8.0035   8.1016   8.1056   8.2533   8.2653   8.4525   8.4706
     8.6606   8.7067   8.7223   8.7366   8.8374   8.8712   8.9244   8.9353
     8.9556   8.9708   9.0508   9.0800   9.0861   9.1007   9.1043   9.1759
     9.1858   9.2847   9.3045   9.3963   9.4108   9.4292   9.4356   9.5377
     9.5604   9.5828   9.7328   9.7460   9.8173   9.8872  10.0198  10.0276
    10.0797  10.1242  10.1761  10.1893  10.2527  10.2682  10.3299  10.3496
    10.3933  10.4099  10.5294  10.6119  10.7560  10.7768  10.7951  10.8173
    10.8305  10.8361  10.8814  10.9653  11.0073  11.0735  11.0896  11.0946
    11.1270  11.1479  11.1540  11.1997  11.2124  11.2126  11.2226  11.2311
    11.3368  11.3476  11.3569  11.3577  11.3714  11.4040  11.4169  11.4415
    11.4769  11.5107  11.5471  11.6130  11.6271  11.6299  11.6431  11.6673
    11.6838  11.7054  11.7173  11.7591  11.8026  11.8155  11.8442  11.8652
    11.8685  11.9102  11.9335  11.9443  11.9753  12.0698  12.1734  12.2568
    12.2626  12.2851  12.3237  12.3344  12.4856  12.5071  12.5830  12.6240
    12.7015  12.7324  12.7798  12.8040  12.8408  13.2449  13.3330  14.4038
    14.4499  14.6123  14.6659  14.9382  14.9829  15.5426  15.7474  15.8002
    15.9604  16.2838  16.5012  16.5762  16.8219  16.9965  17.0909  17.6690
    18.7531  18.8612

          k = 0.0000-0.5000 0.0000 ( 14098 PWs)   bands (ev):

   -67.0726 -67.0726 -66.9258 -66.9258 -66.9013 -66.9013 -66.8996 -62.5350
   -35.8446 -35.8446 -35.7972 -35.7972 -35.7849 -35.7849 -35.7079 -35.7079
   -35.6807 -35.6807 -35.6788 -35.6479 -35.6479 -35.6356 -35.6356 -35.6251
   -35.6251 -35.6238 -35.6128 -35.6128 -35.6114 -31.3698 -31.3557 -31.3538
     7.8966   7.9065   7.9108   7.9239   7.9617   7.9885   7.9926   8.0550
     8.1187   8.2124   8.2179   8.2234   8.2520   8.3154   8.3214   8.4211
     8.4899   8.5693   8.6455   8.6586   8.7419   8.7570   8.9030   8.9100
     8.9402   8.9469   8.9961   9.0137   9.0303   9.1189   9.1578   9.1579
     9.2211   9.2906   9.4614   9.4643   9.4769   9.5260   9.5655   9.5700
     9.5769   9.6001   9.6181   9.6269   9.6565   9.8183   9.8232   9.8485
     9.8934  10.0362  10.0830  10.0898  10.2668  10.2903  10.3138  10.3301
    10.3363  10.4106  10.4396  10.5080  10.6604  10.9241  10.9534  10.9547
    11.0187  11.1149  11.1168  11.1366  11.1625  11.2180  11.2446  11.2758
    11.2761  11.2977  11.2995  11.3135  11.3144  11.3725  11.3824  11.4079
    11.4195  11.4207  11.4862  11.5156  11.5194  11.5196  11.5244  11.5763
    11.5907  11.6433  11.6524  11.6606  11.7355  11.8347  11.9190  11.9940
    12.0049  12.0547  12.1160  12.1177  12.1918  12.2194  12.2362  12.2594
    12.3019  12.3557  12.3628  12.3731  12.4139  12.4364  12.4401  12.4690
    12.4865  12.5882  12.6375  12.6563  12.6793  12.6955  12.7029  12.7312
    12.7817  12.8052  12.8086  12.8620  12.8621  13.0464  13.1156  13.1622
    13.1771  13.5559  13.5812  13.6366  13.6791  14.1125  14.1479  14.1614
    14.1983  14.4615  14.4898  16.2905  16.4654  16.5537  17.2151  17.6182
    18.8577  18.8807

          k = 0.0000-0.5000 0.0159 ( 14106 PWs)   bands (ev):

   -67.0726 -67.0726 -66.9259 -66.9258 -66.9013 -66.9013 -66.8996 -62.5350
   -35.8446 -35.8446 -35.7972 -35.7972 -35.7849 -35.7849 -35.7079 -35.7079
   -35.6807 -35.6807 -35.6788 -35.6479 -35.6479 -35.6356 -35.6356 -35.6251
   -35.6251 -35.6238 -35.6128 -35.6128 -35.6114 -31.3698 -31.3557 -31.3538
     7.8977   7.9018   7.9179   7.9207   7.9651   7.9743   8.0054   8.0517
     8.1220   8.2010   8.2084   8.2427   8.2553   8.3146   8.3172   8.4206
     8.4934   8.5710   8.6378   8.6545   8.7489   8.7599   8.9046   8.9100
     8.9400   8.9413   9.0036   9.0138   9.0282   9.1187   9.1428   9.1575
     9.2386   9.2909   9.4421   9.4639   9.4760   9.5236   9.5666   9.5766
     9.5911   9.5968   9.6192   9.6288   9.6569   9.8032   9.8228   9.8559
     9.9091  10.0499  10.0751  10.0902  10.2124  10.2664  10.2773  10.3343
    10.4107  10.4373  10.4470  10.5079  10.6686  10.8793  10.9515  10.9599
    11.0394  11.0931  11.1137  11.1512  11.1634  11.2139  11.2416  11.2764
    11.2766  11.2969  11.3001  11.3135  11.3157  11.3514  11.3645  11.4284
    11.4356  11.4450  11.4843  11.5151  11.5195  11.5198  11.5246  11.5844
    11.5859  11.6174  11.6525  11.6777  11.7633  11.8346  11.8676  11.9929
    12.0221  12.0353  12.1165  12.1492  12.1961  12.2188  12.2302  12.2604
    12.3044  12.3494  12.3562  12.3633  12.3917  12.4440  12.4695  12.4819
    12.4861  12.5883  12.6176  12.6472  12.6548  12.7094  12.7176  12.7311
    12.8052  12.8074  12.8082  12.8620  12.8624  13.0242  13.0640  13.2045
    13.2164  13.5082  13.5327  13.6872  13.7295  14.0474  14.0823  14.2238
    14.2596  14.4502  14.4792  16.2907  16.4654  16.5537  17.2151  17.6183
    18.8737  18.8929

          k = 0.0000-0.5000 0.0319 ( 14114 PWs)   bands (ev):

   -67.0726 -67.0726 -66.9259 -66.9258 -66.9013 -66.9013 -66.8996 -62.5350
   -35.8446 -35.8446 -35.7972 -35.7972 -35.7849 -35.7849 -35.7079 -35.7079
   -35.6807 -35.6807 -35.6788 -35.6479 -35.6479 -35.6356 -35.6356 -35.6251
   -35.6251 -35.6238 -35.6128 -35.6128 -35.6114 -31.3698 -31.3557 -31.3538
     7.8980   7.9010   7.9141   7.9286   7.9586   7.9714   8.0164   8.0453
     8.1286   8.1871   8.2011   8.2612   8.2644   8.3059   8.3129   8.4198
     8.5009   8.5748   8.6238   8.6462   8.7610   8.7653   8.9089   8.9101
     8.9309   8.9398   9.0142   9.0178   9.0238   9.1183   9.1200   9.1566
     9.2684   9.2914   9.4086   9.4632   9.4742   9.5190   9.5704   9.5762
     9.5895   9.6211   9.6302   9.6320   9.6578   9.7701   9.8220   9.8721
     9.9534  10.0576  10.0779  10.0909  10.1133  10.2507  10.2658  10.3307
    10.4111  10.4598  10.5078  10.5535  10.6847  10.7898  10.9475  10.9756
    11.0576  11.0646  11.1063  11.1651  11.1679  11.2039  11.2369  11.2765
    11.2774  11.2954  11.3020  11.3134  11.3197  11.3351  11.3425  11.4474
    11.4552  11.4789  11.4885  11.5134  11.5194  11.5206  11.5249  11.5768
    11.5798  11.6180  11.6528  11.7106  11.7870  11.8096  11.8342  11.9672
    11.9742  12.0855  12.1174  12.1944  12.2039  12.2151  12.2174  12.2625
    12.3110  12.3226  12.3364  12.3644  12.3701  12.4588  12.4854  12.5036
    12.5134  12.5886  12.5903  12.6094  12.6313  12.7193  12.7311  12.7499
    12.8048  12.8052  12.8586  12.8620  12.8629  12.9884  12.9992  13.2565
    13.2888  13.4421  13.4580  13.7626  13.8102  13.9659  13.9963  14.2990
    14.3329  14.4176  14.4485  16.2911  16.4654  16.5537  17.2151  17.6187
    18.9165  18.9230

          k = 0.0000-0.5000-0.0478 ( 14104 PWs)   bands (ev):

   -67.0726 -67.0726 -66.9258 -66.9258 -66.9013 -66.9013 -66.8996 -62.5350
   -35.8446 -35.8446 -35.7972 -35.7972 -35.7849 -35.7849 -35.7079 -35.7079
   -35.6807 -35.6807 -35.6788 -35.6479 -35.6479 -35.6356 -35.6356 -35.6251
   -35.6251 -35.6238 -35.6128 -35.6128 -35.6114 -31.3698 -31.3557 -31.3538
     7.8967   7.9047   7.9091   7.9378   7.9478   7.9745   8.0205   8.0421
     8.1319   8.1819   8.1976   8.2638   8.2790   8.2946   8.3120   8.4195
     8.5049   8.5770   8.6170   8.6420   8.7664   8.7678   8.9102   8.9129
     8.9245   8.9396   9.0144   9.0216   9.0254   9.1093   9.1181   9.1562
     9.2845   9.2916   9.3909   9.4629   9.4733   9.5169   9.5743   9.5761
     9.5841   9.6220   9.6334   9.6532   9.6583   9.7488   9.8216   9.8813
    10.0066  10.0420  10.0477  10.0912  10.0934  10.2359  10.2654  10.3291
    10.4113  10.4654  10.5078  10.6422  10.6927  10.7087  10.9456  10.9916
    11.0333  11.0759  11.1005  11.1659  11.1772  11.1960  11.2349  11.2761
    11.2779  11.2946  11.3034  11.3132  11.3253  11.3300  11.3307  11.4605
    11.4670  11.4718  11.5051  11.5104  11.5193  11.5210  11.5251  11.5560
    11.5777  11.6530  11.6629  11.7272  11.7278  11.8340  11.8358  11.9479
    11.9530  12.1085  12.1179  12.2045  12.2075  12.2167  12.2196  12.2637
    12.3010  12.3181  12.3265  12.3619  12.3649  12.4667  12.4850  12.5139
    12.5576  12.5641  12.5783  12.5888  12.6233  12.7235  12.7310  12.7648
    12.8035  12.8052  12.8620  12.8631  12.8970  12.9566  12.9717  13.2896
    13.3419  13.4037  13.4049  13.8119  13.8742  13.9147  13.9309  14.3576
    14.3735  14.3865  14.4095  16.2914  16.4654  16.5537  17.2151  17.6189
    18.9427  18.9501

          k = 0.1667 0.1667 0.0000 ( 14064 PWs)   bands (ev):

   -67.0711 -67.0711 -66.9244 -66.9244 -66.8998 -66.8998 -66.8981 -62.5370
   -35.8452 -35.8452 -35.7884 -35.7884 -35.7884 -35.7884 -35.7085 -35.7085
   -35.6813 -35.6813 -35.6795 -35.6391 -35.6391 -35.6391 -35.6391 -35.6163
   -35.6163 -35.6163 -35.6163 -35.6150 -35.6149 -31.3583 -31.3580 -31.3565
     6.3748   6.5019   6.5208   6.8745   6.9174   7.4242   7.4494   7.8655
     8.1321   8.3926   8.4170   8.4711   8.5541   8.5884   8.6550   8.6716
     8.6861   8.6954   8.7153   8.7941   8.8363   8.8759   8.9030   8.9860
     8.9884   9.0004   9.0886   9.2188   9.2433   9.2660   9.2871   9.3008
     9.3846   9.4122   9.4421   9.5005   9.5185   9.5482   9.5499   9.5613
     9.5704   9.6001   9.6362   9.6590   9.6718   9.7394   9.7945   9.8369
     9.9269   9.9461   9.9557   9.9610  10.0222  10.0526  10.0912  10.1375
    10.1644  10.1805  10.2265  10.2278  10.2338  10.2872  10.2924  10.3311
    10.3370  10.4760  10.5945  10.6221  10.6778  10.8191  10.8236  10.9400
    10.9929  10.9977  11.0131  11.0322  11.0591  11.0928  11.1009  11.1032
    11.1115  11.1559  11.1736  11.2612  11.2618  11.2923  11.3442  11.4304
    11.4308  11.4461  11.4508  11.4875  11.5285  11.5611  11.6336  11.6568
[...]
    11.6431  11.6461  11.6718  11.7192  11.7371  11.7831  11.8083  11.8250
    11.9160  11.9774  11.9833  12.0508  12.1576  12.2266  12.2883  12.3326
    12.3723  12.4767  12.5452  12.6879  12.8429  13.1455  13.3337  13.7034
    13.9051  14.2989  14.5066  14.7639  15.4331  15.4483  15.4547  15.4759
    15.5061  15.5392  15.5683  15.7697  16.2602  16.4588  16.5180  16.6087
    16.6139  16.6948  16.7001  16.8480  16.8786  16.9149  16.9404  16.9577
    16.9827  17.0246  17.0370  17.0651  17.1433  17.2532  17.2768  17.3221
    17.3629  17.5702  17.6757  17.8075  17.9504  18.0180  18.1045  18.1257
    18.1452  18.2433  18.2514  18.4635  18.5848  18.6354  18.7341  18.8156
    18.9035  18.9081

          k = 0.3333 0.3333-0.0478 ( 14082 PWs)   bands (ev):

   -67.1458 -62.4596 -62.4596 -62.3522 -62.3522 -62.3314 -62.3304 -62.3304
   -35.9145 -35.8693 -35.8693 -31.2899 -31.2899 -31.2896 -31.2896 -31.2800
   -31.2800 -31.1826 -31.1826 -31.1796 -31.1796 -31.1793 -31.1793 -31.1605
   -31.1602 -31.1598 -31.1593 -31.1593 -31.1590 -31.1590 -31.1586 -31.1586
     7.8630   8.1410   8.2789   8.3269   8.4545   8.6385   8.6716   8.7629
     8.7792   8.8361   9.0082   9.1045   9.1300   9.1342   9.1468   9.1848
     9.2105   9.2387   9.2427   9.2583   9.3113   9.3150   9.3161   9.3227
     9.3885   9.3897   9.4525   9.4531   9.4592   9.5595   9.5931   9.6443
     9.6491   9.6555   9.7168   9.8142   9.8367   9.8461   9.9289  10.0269
    10.0326  10.1374  10.1385  10.2211  10.2517  10.3414  10.3506  10.4013
    10.4364  10.4684  10.4840  10.4974  10.5264  10.5446  10.5747  10.6036
    10.6196  10.7760  10.8047  10.9263  11.0478  11.0511  11.1048  11.1049
    11.1094  11.1113  11.1128  11.1496  11.1620  11.2936  11.4251  11.4455
    11.6431  11.6694  11.6720  11.6993  11.7352  11.7926  11.8118  11.8137
    11.9261  11.9686  11.9831  12.0534  12.1573  12.2267  12.2864  12.3497
    12.3527  12.4957  12.5250  12.7031  12.8263  13.1805  13.2905  13.7991
    13.8078  14.3488  14.4658  14.7719  15.4331  15.4479  15.4553  15.4756
    15.5062  15.5391  15.5683  15.7691  16.2602  16.4666  16.5076  16.6092
    16.6167  16.6944  16.6998  16.8472  16.8821  16.9117  16.9373  16.9582
    16.9827  17.0256  17.0447  17.0644  17.1372  17.2549  17.2768  17.3218
    17.3629  17.5702  17.6755  17.8029  17.9988  18.0141  18.0559  18.1326
    18.1757  18.1806  18.2369  18.4877  18.5799  18.7629  18.7655  18.8125
    18.8918  18.9250

          k = 0.3333-0.5000 0.0000 ( 14154 PWs)   bands (ev):

   -67.1459 -62.4591 -62.4591 -62.3517 -62.3517 -62.3310 -62.3300 -62.3300
   -35.9143 -35.8721 -35.8691 -31.2935 -31.2935 -31.2894 -31.2894 -31.2798
   -31.2798 -31.1832 -31.1832 -31.1824 -31.1824 -31.1791 -31.1791 -31.1641
   -31.1629 -31.1629 -31.1600 -31.1595 -31.1588 -31.1588 -31.1584 -31.1584
     8.1307   8.1629   8.4819   8.4942   8.4948   8.5307   8.6411   8.6494
     8.8378   8.8799   8.8999   8.9061   8.9727   9.0307   9.0766   9.0862
     9.0950   9.1419   9.1449   9.2165   9.2393   9.2411   9.2860   9.3257
     9.3421   9.3814   9.4480   9.4845   9.5149   9.5173   9.6680   9.7123
     9.7372   9.7629   9.8142   9.8313   9.9756  10.0274  10.0527  10.1072
    10.1488  10.2163  10.2971  10.3704  10.4742  10.4858  10.5239  10.5638
    10.6025  10.6168  10.6373  10.7652  10.7744  10.8399  10.8740  10.9288
    10.9714  10.9747  11.0665  11.1192  11.1481  11.2034  11.2231  11.2757
    11.2764  11.3155  11.3184  11.4352  11.6368  11.6498  11.6771  11.7015
    11.7041  11.7232  11.7245  11.7786  11.8355  11.9155  11.9794  12.0033
    12.0344  12.0346  12.0638  12.1308  12.1495  12.6087  12.6508  12.7377
    12.7535  12.7842  12.8168  12.9157  13.2619  13.7101  13.7730  13.8587
    13.9143  13.9170  14.0304  14.2198  14.2915  14.4064  14.5217  14.5738
    14.6914  14.7088  14.8443  15.3609  16.3350  16.7425  16.7513  16.7652
    16.8104  16.8250  16.8478  16.8650  16.8667  16.8685  16.8725  16.8726
    16.9044  16.9253  17.0589  17.3439  17.4062  17.4119  17.4684  17.5560
    17.6029  17.6440  17.7786  17.8857  17.9090  17.9710  17.9780  17.9831
    18.0942  18.1459  18.3737  18.3961  18.3967  18.4099  18.9898  19.0336
    19.0798  19.1629

          k = 0.3333-0.5000 0.0159 ( 14140 PWs)   bands (ev):

   -67.1459 -62.4591 -62.4591 -62.3517 -62.3517 -62.3310 -62.3300 -62.3300
   -35.9143 -35.8721 -35.8691 -31.2935 -31.2935 -31.2894 -31.2894 -31.2798
   -31.2798 -31.1832 -31.1832 -31.1824 -31.1824 -31.1791 -31.1791 -31.1641
   -31.1629 -31.1629 -31.1600 -31.1595 -31.1588 -31.1588 -31.1584 -31.1584
     8.1307   8.1629   8.4768   8.4795   8.5177   8.5358   8.6371   8.6393
     8.8435   8.8860   8.8895   8.9237   8.9727   9.0155   9.0626   9.0906
     9.0999   9.1433   9.1470   9.2110   9.2421   9.2505   9.2887   9.3245
     9.3391   9.3857   9.4343   9.4842   9.5017   9.5505   9.6501   9.6938
     9.7532   9.7690   9.8266   9.8323   9.9633  10.0086  10.0603  10.1227
    10.1519  10.2132  10.2933  10.3715  10.4723  10.4868  10.5276  10.5565
    10.6027  10.6130  10.6449  10.7685  10.7768  10.8421  10.8588  10.9440
    10.9449  11.0004  11.0578  11.1237  11.1408  11.2101  11.2240  11.2730
    11.2731  11.3170  11.3193  11.4351  11.6375  11.6492  11.6783  11.7009
    11.7020  11.7241  11.7250  11.7785  11.8355  11.9162  11.9797  11.9953
    12.0280  12.0455  12.0741  12.1268  12.1450  12.6136  12.6544  12.7215
    12.7459  12.7988  12.8213  12.9128  13.2615  13.7146  13.7766  13.8350
    13.9067  13.9419  14.0399  14.1866  14.3240  14.3951  14.5347  14.5602
    14.6973  14.7030  14.8457  15.3608  16.3350  16.7407  16.7447  16.7819
    16.8005  16.8321  16.8475  16.8650  16.8663  16.8685  16.8724  16.8726
    16.9060  16.9114  17.0707  17.3353  17.3934  17.4178  17.4880  17.5505
    17.5971  17.6461  17.7808  17.8836  17.9133  17.9701  17.9780  17.9826
    18.0913  18.1444  18.3288  18.3389  18.4621  18.4908  18.9115  18.9896
    19.0338  19.2430

          k = 0.3333-0.5000 0.0319 ( 14128 PWs)   bands (ev):

   -67.1459 -62.4591 -62.4591 -62.3517 -62.3517 -62.3310 -62.3300 -62.3300
   -35.9143 -35.8721 -35.8691 -31.2935 -31.2935 -31.2894 -31.2894 -31.2798
   -31.2798 -31.1832 -31.1832 -31.1824 -31.1824 -31.1791 -31.1791 -31.1641
   -31.1629 -31.1629 -31.1600 -31.1595 -31.1588 -31.1588 -31.1584 -31.1584
     8.1307   8.1630   8.4658   8.4755   8.5441   8.5461   8.6159   8.6282
     8.8508   8.8828   8.9073   8.9486   8.9727   8.9833   9.0370   9.0951
     9.1040   9.1467   9.1500   9.2051   9.2446   9.2688   9.2945   9.3216
     9.3317   9.3970   9.4166   9.4567   9.5300   9.5863   9.6188   9.6598
     9.7732   9.7771   9.8357   9.8546   9.9405   9.9753  10.0713  10.1464
    10.1601  10.2054  10.2847  10.3736  10.4690  10.4890  10.5352  10.5445
    10.6027  10.6052  10.6581  10.7748  10.7846  10.8334  10.8482  10.9207
    10.9697  11.0226  11.0391  11.1273  11.1307  11.2225  11.2262  11.2656
    11.2678  11.3197  11.3210  11.4348  11.6393  11.6479  11.6815  11.6973
    11.6997  11.7257  11.7258  11.7785  11.8355  11.9177  11.9804  11.9848
    12.0196  12.0642  12.0932  12.1165  12.1327  12.6261  12.6633  12.6958
    12.7308  12.8194  12.8286  12.9060  13.2607  13.7266  13.7848  13.8024
    13.8877  13.9851  14.0567  14.1373  14.3706  14.3760  14.5309  14.5586
    14.6899  14.7071  14.8484  15.3607  16.3350  16.7313  16.7505  16.7864
    16.8088  16.8395  16.8466  16.8631  16.8652  16.8688  16.8724  16.8727
    16.8837  16.9092  17.0916  17.3225  17.3677  17.4380  17.5194  17.5385
    17.5814  17.6498  17.7853  17.8805  17.9213  17.9682  17.9779  17.9812
    18.0851  18.1410  18.2969  18.3008  18.5554  18.5971  18.7893  18.8527
    19.0337  19.3687

          k = 0.3333-0.5000-0.0478 ( 14140 PWs)   bands (ev):

   -67.1459 -62.4591 -62.4591 -62.3517 -62.3517 -62.3310 -62.3300 -62.3300
   -35.9143 -35.8721 -35.8691 -31.2935 -31.2935 -31.2894 -31.2894 -31.2798
   -31.2798 -31.1832 -31.1832 -31.1824 -31.1824 -31.1791 -31.1791 -31.1641
   -31.1629 -31.1629 -31.1600 -31.1595 -31.1588 -31.1588 -31.1584 -31.1584
     8.1307   8.1630   8.4621   8.4738   8.5515   8.5625   8.5977   8.6232
     8.8530   8.8808   8.9322   8.9552   8.9644   8.9727   9.0206   9.0964
     9.1052   9.1493   9.1503   9.2030   9.2462   9.2782   9.2975   9.3200
     9.3267   9.4061   9.4091   9.4423   9.5482   9.5993   9.6220   9.6240
     9.7740   9.7871   9.8390   9.8723   9.9286   9.9561  10.0756  10.1570
    10.1659  10.2000  10.2798  10.3747  10.4675  10.4903  10.5391  10.5393
    10.6010  10.6026  10.6640  10.7778  10.7928  10.8181  10.8528  10.9095
    10.9851  11.0261  11.0321  11.1203  11.1336  11.2275  11.2294  11.2606
    11.2652  11.3209  11.3217  11.4346  11.6404  11.6469  11.6839  11.6942
    11.6991  11.7262  11.7263  11.7785  11.8355  11.9185  11.9806  11.9809
    12.0163  12.0752  12.1086  12.1100  12.1184  12.6356  12.6691  12.6816
    12.7225  12.8287  12.8317  12.9018  13.2604  13.7360  13.7856  13.7898
    13.8782  14.0103  14.0644  14.1099  14.3674  14.3942  14.5128  14.5706
    14.6822  14.7113  14.8496  15.3606  16.3350  16.7281  16.7550  16.7787
    16.8343  16.8430  16.8453  16.8466  16.8652  16.8692  16.8723  16.8724
    16.8727  16.9108  17.1014  17.3173  17.3568  17.4482  17.5314  17.5398
    17.5666  17.6516  17.7876  17.8793  17.9253  17.9672  17.9778  17.9803
    18.0817  18.1393  18.2865  18.2883  18.6454  18.6884  18.7179  18.7204
    19.0337  19.4705

          k =-0.5000-0.5000 0.0000 ( 14124 PWs)   bands (ev):

   -67.1458 -62.4589 -62.4589 -62.3515 -62.3515 -62.3308 -62.3297 -62.3297
   -35.9142 -35.8718 -35.8718 -31.2931 -31.2931 -31.2931 -31.2931 -31.2796
   -31.2796 -31.1828 -31.1828 -31.1828 -31.1828 -31.1822 -31.1822 -31.1637
   -31.1637 -31.1626 -31.1626 -31.1626 -31.1626 -31.1593 -31.1582 -31.1582
     7.9896   8.0340   8.3930   8.4016   8.4277   8.4432   8.5865   8.6126
     8.7204   8.7806   9.0055   9.0241   9.0282   9.0302   9.0302   9.0327
     9.1275   9.1275   9.1296   9.1296   9.2097   9.2197   9.2661   9.2661
     9.2676   9.2676   9.5105   9.5105   9.5109   9.5109   9.6130   9.6130
     9.6617   9.8039   9.8039   9.9234   9.9234  10.2826  10.2826  10.3271
    10.3407  10.3407  10.4065  10.4117  10.4423  10.4577  10.5111  10.5140
    10.7650  10.7650  10.8580  10.8580  10.9491  10.9730  11.0797  11.2230
    11.2230  11.3402  11.3402  11.6630  11.6979  11.6979  11.7148  11.7156
    11.7434  11.7713  11.7713  11.7745  11.7768  11.7768  11.8099  11.8101
    11.8540  11.8540  11.8569  11.8593  11.8593  11.8750  11.9392  11.9823
    11.9862  11.9908  12.0025  12.0026  12.0256  13.1586  13.1695  13.1922
    13.2007  13.2033  13.2121  13.2172  13.7185  13.7185  13.9217  13.9217
    14.0129  14.0129  14.2542  14.2542  14.3662  14.3662  14.5234  14.5234
    14.6052  14.6052  15.6101  15.6101  16.3212  16.5265  16.5699  16.6417
    16.6517  16.6909  16.7696  16.8386  16.8386  16.8964  16.8964  16.9010
    17.2831  17.2831  17.3865  17.3865  17.4375  17.4480  17.6119  17.7968
    17.7968  17.8206  17.8267  17.8883  17.9222  17.9222  17.9387  17.9403
    17.9403  18.1354  18.1479  18.1479  18.1990  18.1990  18.2965  18.4619
    18.5464  18.5645

          k =-0.5000-0.5000 0.0159 ( 14144 PWs)   bands (ev):

   -67.1458 -62.4589 -62.4589 -62.3515 -62.3515 -62.3308 -62.3297 -62.3297
   -35.9142 -35.8718 -35.8718 -31.2931 -31.2931 -31.2931 -31.2931 -31.2796
   -31.2796 -31.1828 -31.1828 -31.1828 -31.1828 -31.1822 -31.1822 -31.1637
   -31.1637 -31.1626 -31.1626 -31.1626 -31.1626 -31.1593 -31.1582 -31.1582
     7.9896   8.0340   8.3895   8.3916   8.4445   8.4510   8.5774   8.5919
     8.7434   8.7942   8.9634   8.9765   9.0303   9.0303   9.0662   9.0778
     9.1174   9.1174   9.1435   9.1435   9.2045   9.2132   9.2361   9.2361
     9.3005   9.3005   9.4632   9.4632   9.5603   9.5603   9.6134   9.6134
     9.6619   9.7762   9.7762   9.9531   9.9531  10.2303  10.2303  10.3290
    10.3946  10.3946  10.4043  10.4062  10.4492  10.4581  10.5110  10.5127
    10.7184  10.7184  10.9026  10.9026  10.9491  10.9730  11.0797  11.1987
    11.1987  11.3546  11.3546  11.6630  11.6968  11.6968  11.7148  11.7156
    11.7434  11.7713  11.7713  11.7745  11.7768  11.7768  11.8099  11.8101
    11.8540  11.8540  11.8569  11.8593  11.8593  11.8750  11.9391  11.9822
    11.9867  11.9910  12.0019  12.0025  12.0257  13.1586  13.1694  13.1922
    13.2007  13.2034  13.2122  13.2171  13.7213  13.7213  13.9062  13.9062
    14.0327  14.0327  14.2394  14.2394  14.3764  14.3764  14.5202  14.5202
    14.6059  14.6059  15.6101  15.6101  16.3211  16.5299  16.5695  16.6230
    16.6527  16.7132  16.7686  16.8264  16.8264  16.8911  16.9199  16.9199
    17.2210  17.2210  17.4449  17.4601  17.4601  17.4647  17.5962  17.7574
    17.7968  17.7968  17.8331  17.9222  17.9222  17.9387  17.9403  17.9403
    17.9582  18.0139  18.0139  18.1306  18.2753  18.3388  18.3388  18.4638
    18.5569  18.5632

          k =-0.5000-0.5000 0.0319 ( 14180 PWs)   bands (ev):

   -67.1458 -62.4589 -62.4589 -62.3515 -62.3515 -62.3308 -62.3297 -62.3297
   -35.9142 -35.8718 -35.8718 -31.2931 -31.2931 -31.2931 -31.2931 -31.2796
   -31.2796 -31.1828 -31.1828 -31.1828 -31.1828 -31.1822 -31.1822 -31.1637
   -31.1637 -31.1626 -31.1626 -31.1626 -31.1626 -31.1593 -31.1582 -31.1582
     7.9896   8.0340   8.3811   8.3840   8.4670   8.4754   8.5528   8.5581
     8.7884   8.8284   8.9112   8.9246   9.0305   9.0305   9.1057   9.1104
     9.1104   9.1220   9.1619   9.1619   9.1909   9.1949   9.2084   9.2084
     9.3369   9.3369   9.4184   9.4184   9.6045   9.6045   9.6215   9.6215
     9.6624   9.7247   9.7247  10.0098  10.0098  10.1608  10.1608  10.3332
    10.3928  10.4057  10.4588  10.4596  10.4688  10.4688  10.5096  10.5107
    10.6453  10.6453  10.9491  10.9680  10.9680  10.9730  11.0797  11.1500
    11.1500  11.3758  11.3758  11.6630  11.6944  11.6944  11.7148  11.7156
    11.7434  11.7713  11.7713  11.7745  11.7768  11.7768  11.8099  11.8101
    11.8540  11.8540  11.8569  11.8593  11.8593  11.8750  11.9390  11.9820
    11.9878  11.9913  12.0006  12.0023  12.0261  13.1588  13.1692  13.1922
    13.2007  13.2036  13.2122  13.2170  13.7273  13.7273  13.8826  13.8826
    14.0683  14.0683  14.2093  14.2093  14.3939  14.3939  14.5133  14.5133
    14.6074  14.6074  15.6101  15.6101  16.3210  16.5389  16.5689  16.5970
    16.6548  16.7484  16.7666  16.8116  16.8116  16.8674  16.9662  16.9662
    17.1400  17.1400  17.4646  17.5098  17.5626  17.5766  17.5766  17.6700
    17.7968  17.7971  17.8559  17.8665  17.8665  17.9222  17.9222  17.9387
    17.9403  18.0474  18.1203  18.2221  18.4678  18.5039  18.5039  18.5605
    18.5776  18.6698

          k =-0.5000-0.5000-0.0478 ( 14176 PWs)   bands (ev):

   -67.1458 -62.4589 -62.4589 -62.3515 -62.3515 -62.3308 -62.3297 -62.3297
   -35.9142 -35.8718 -35.8718 -31.2931 -31.2931 -31.2931 -31.2931 -31.2796
   -31.2796 -31.1828 -31.1828 -31.1828 -31.1828 -31.1822 -31.1822 -31.1637
   -31.1637 -31.1626 -31.1626 -31.1626 -31.1626 -31.1593 -31.1582 -31.1582
     7.9896   8.0340   8.3773   8.3818   8.4766   8.5101   8.5146   8.5470
     8.8222   8.8689   8.8757   8.8790   9.0306   9.0306   9.1081   9.1081
     9.1254   9.1510   9.1746   9.1801   9.1819   9.1819   9.1853   9.1853
     9.3761   9.3761   9.3764   9.3764   9.6099   9.6099   9.6626   9.6690
     9.6690   9.6710   9.6710  10.0540  10.0540  10.1128  10.1128  10.3357
    10.3875  10.4055  10.4591  10.4642  10.5078  10.5106  10.5207  10.5207
    10.5933  10.5933  10.9491  10.9730  11.0054  11.0054  11.0797  11.1179
    11.1179  11.3844  11.3844  11.6630  11.6932  11.6932  11.7148  11.7156
    11.7434  11.7713  11.7713  11.7745  11.7768  11.7768  11.8099  11.8101
    11.8540  11.8540  11.8569  11.8593  11.8593  11.8750  11.9389  11.9819
    11.9884  11.9915  11.9998  12.0022  12.0262  13.1588  13.1691  13.1922
    13.2007  13.2036  13.2122  13.2169  13.7306  13.7306  13.8725  13.8725
    14.0881  14.0881  14.1914  14.1914  14.4020  14.4020  14.5094  14.5094
    14.6081  14.6081  15.6101  15.6101  16.3209  16.5460  16.5685  16.5837
    16.6558  16.7656  16.7680  16.8062  16.8062  16.8512  17.0001  17.0001
    17.0941  17.0941  17.4805  17.5407  17.5568  17.6093  17.6727  17.6727
    17.7606  17.7606  17.7968  17.7968  17.8668  17.9222  17.9222  17.9387
    17.9403  17.9403  18.1087  18.1148  18.1720  18.4698  18.5592  18.5889
    18.6577  18.6577

     the Fermi energy is    15.0016 ev

!    total energy              =  -14694.02017625 Ry
     Harris-Foulkes estimate   =  -14694.02017009 Ry
     estimated scf accuracy    <       0.00000051 Ry

     total all-electron energy =   -626921.615898 Ry

     The total energy is the sum of the following terms:

     one-electron contribution =    -729.88328898 Ry
     hartree contribution      =     661.52062457 Ry
     xc contribution           =    -737.65469609 Ry
     ewald contribution        =   -2186.64874840 Ry
     Hubbard energy            =       0.44844275 Ry
     one-center paw contrib.   =  -11701.80251011 Ry

     total magnetization       =    25.94 Bohr mag/cell
     absolute magnetization    =    37.19 Bohr mag/cell

     convergence has been achieved in  24 iterations

     Writing output data file mnau2.save/
 
     init_run     :     23.49s CPU     24.03s WALL (       1 calls)
     electrons    :   1274.17s CPU   1302.53s WALL (       1 calls)

     Called by init_run:
     wfcinit      :     21.83s CPU     22.27s WALL (       1 calls)
     potinit      :      0.79s CPU      0.83s WALL (       1 calls)
     hinit0       :      0.56s CPU      0.60s WALL (       1 calls)

     Called by electrons:
     c_bands      :   1127.27s CPU   1150.27s WALL (      24 calls)
     sum_band     :    130.06s CPU    134.55s WALL (      24 calls)
     v_of_rho     :      1.42s CPU      1.43s WALL (      25 calls)
     newd         :      3.61s CPU      3.64s WALL (      25 calls)
     PAW_pot      :     11.84s CPU     12.02s WALL (      25 calls)
     mix_rho      :      0.32s CPU      0.34s WALL (      24 calls)

     Called by c_bands:
     init_us_2    :      6.31s CPU      6.37s WALL (    4000 calls)
     cegterg      :   1088.19s CPU   1110.42s WALL (    1921 calls)

     Called by sum_band:
     sum_band:bec :      1.62s CPU      1.64s WALL (    1920 calls)
     addusdens    :      6.23s CPU      6.58s WALL (      24 calls)

     Called by *egterg:
     h_psi        :    455.00s CPU    466.43s WALL (    6802 calls)
     s_psi        :     66.58s CPU     66.68s WALL (    6882 calls)
     g_psi        :      1.72s CPU      1.74s WALL (    4801 calls)
     cdiaghg      :    408.69s CPU    418.85s WALL (    6722 calls)

     Called by h_psi:
     h_psi:pot    :    425.72s CPU    436.95s WALL (    6802 calls)
     h_psi:calbec :     76.07s CPU     77.96s WALL (    6802 calls)
     vloc_psi     :    285.21s CPU    294.43s WALL (    6802 calls)
     add_vuspsi   :     64.36s CPU     64.50s WALL (    6802 calls)
     vhpsi        :     27.91s CPU     28.10s WALL (    6802 calls)

     General routines
     calbec       :    132.21s CPU    135.25s WALL (   17524 calls)
     fft          :      1.14s CPU      1.16s WALL (     621 calls)
     ffts         :      0.08s CPU      0.08s WALL (      98 calls)
     fftw         :    337.19s CPU    349.07s WALL ( 1796154 calls)
     interpolate  :      0.12s CPU      0.12s WALL (      50 calls)
     davcio       :      0.01s CPU      1.27s WALL (      80 calls)
 
     Parallel routines
     fft_scatt_xy :     17.69s CPU     18.14s WALL ( 1796873 calls)
     fft_scatt_yz :    226.67s CPU    235.25s WALL ( 1796873 calls)

     Hubbard U routines
     new_ns       :      6.02s CPU      6.25s WALL (      24 calls)
     vhpsi        :     27.91s CPU     28.10s WALL (    6802 calls)
 
     PWSCF        : 21m49.28s CPU    22m47.99s WALL

 
   This run was terminated on:  15:38:20  29Mar2019            

=------------------------------------------------------------------------------=
   JOB DONE.
=------------------------------------------------------------------------------=
