
     Program PWSCF v.6.3MaX starts on 29Mar2019 at 15:38:22 

     This program is part of the open-source Quantum ESPRESSO suite
     for quantum simulation of materials; please cite
         "P. Giannozzi et al., J. Phys.:Condens. Matter 21 395502 (2009);
         "P. Giannozzi et al., J. Phys.:Condens. Matter 29 465901 (2017);
          URL http://www.quantum-espresso.org", 
     in publications or presentations arising from this work. More details at
     http://www.quantum-espresso.org/quote

     Parallel version (MPI), running on    32 processors

     MPI processes distributed on     2 nodes
     R & G space division:  proc/nbgrp/npool/nimage =      32
     Waiting for input...
     Reading input from standard input

     Current dimensions of program PWSCF are:
     Max number of different atomic species (ntypx) = 10
     Max number of k-points (npk) =  40000
     Max angular momentum in pseudopotentials (lmaxx) =  3
     Message from routine read_upf::
     Pseudo file ./pseudo/Mn.pbe-spn-kjpaw_psl.0.3.1.UPF has been successfully fixed on the fly.
To avoid this message in the future you can permanently fix 
 your pseudo files following instructions given in: 
https://gitlab.com/QEF/q-e/blob/master/upftools/how_to_fix_upf.md
               file Mn.pbe-spn-kjpaw_psl.0.3.1.UPF: wavefunction(s)  3P 3D renormalized
     Message from routine read_upf::
     Pseudo file ./pseudo/Mn.pbe-spn-kjpaw_psl.0.3.1.UPF has been successfully fixed on the fly.
To avoid this message in the future you can permanently fix 
 your pseudo files following instructions given in: 
https://gitlab.com/QEF/q-e/blob/master/upftools/how_to_fix_upf.md
               file Mn.pbe-spn-kjpaw_psl.0.3.1.UPF: wavefunction(s)  3P 3D renormalized
     Message from routine read_upf::
     Pseudo file ./pseudo/Au.pbe-dn-kjpaw_psl.0.1.UPF has been successfully fixed on the fly.
To avoid this message in the future you can permanently fix 
 your pseudo files following instructions given in: 
https://gitlab.com/QEF/q-e/blob/master/upftools/how_to_fix_upf.md
               file Au.pbe-dn-kjpaw_psl.0.1.UPF: wavefunction(s)  6S 6P 5D renormalized

     Subspace diagonalization in iterative solution of the eigenvalue problem:
     one sub-group per band group will be used
     scalapack distributed-memory algorithm (size of sub-group:  4*  4 procs)

 
     Parallelization info
     --------------------
     sticks:   dense  smooth     PW     G-vecs:    dense   smooth      PW
     Min          41      18      5                11647     3506     571
     Max          42      19      6                11691     3549     614
     Sum        1313     593    177               373547   112863   18983
 


     bravais-lattice index     =            0
     lattice parameter (alat)  =       6.4153  a.u.
     unit-cell volume          =    2762.7331 (a.u.)^3
     number of atoms/cell      =           24
     number of atomic types    =            3
     number of electrons       =       296.00
     number of Kohn-Sham states=          178
     kinetic-energy cutoff     =      45.0000  Ry
     charge density cutoff     =     400.0000  Ry
     convergence threshold     =      1.0E-06
     mixing beta               =       0.1000
     number of iterations used =            8  plain     mixing
     Exchange-correlation      = SLA PW PBX PBC ( 1  4  3  4 0 0)

     celldm(1)=   6.415315  celldm(2)=   0.000000  celldm(3)=   0.000000
     celldm(4)=   0.000000  celldm(5)=   0.000000  celldm(6)=   0.000000

     crystal axes: (cart. coord. in units of alat)
               a(1) = (   1.000000   0.000000   0.000000 )  
               a(2) = (   0.000000   1.000000   0.000000 )  
               a(3) = (   0.000000   0.000000  10.463692 )  

     reciprocal axes: (cart. coord. in units 2 pi/alat)
               b(1) = (  1.000000  0.000000  0.000000 )  
               b(2) = (  0.000000  1.000000  0.000000 )  
               b(3) = (  0.000000  0.000000  0.095569 )  


     PseudoPot. # 1 for Mn read from file:
     ./pseudo/Mn.pbe-spn-kjpaw_psl.0.3.1.UPF
     MD5 check sum: 7eef95dd2aae66803482eea66ebeebf1
     Pseudo is Projector augmented-wave + core cor, Zval = 15.0
     Generated using "atomic" code by A. Dal Corso v.5.0.99 svn rev. 10869
     Shape of augmentation charge: PSQ
     Using radial grid of 1187 points,  6 beta functions with: 
                l(1) =   0
                l(2) =   0
                l(3) =   1
                l(4) =   1
                l(5) =   2
                l(6) =   2
     Q(r) pseudized with 0 coefficients 


     PseudoPot. # 2 for Mn read from file:
     ./pseudo/Mn.pbe-spn-kjpaw_psl.0.3.1.UPF
     MD5 check sum: 7eef95dd2aae66803482eea66ebeebf1
     Pseudo is Projector augmented-wave + core cor, Zval = 15.0
     Generated using "atomic" code by A. Dal Corso v.5.0.99 svn rev. 10869
     Shape of augmentation charge: PSQ
     Using radial grid of 1187 points,  6 beta functions with: 
                l(1) =   0
                l(2) =   0
                l(3) =   1
                l(4) =   1
                l(5) =   2
                l(6) =   2
     Q(r) pseudized with 0 coefficients 


     PseudoPot. # 3 for Au read from file:
     ./pseudo/Au.pbe-dn-kjpaw_psl.0.1.UPF
     MD5 check sum: 5c9b92683623e7ae2ab3f8e525febab6
     Pseudo is Projector augmented-wave + core cor, Zval = 11.0
     Generated using "atomic" code by A. Dal Corso v.5.0.2 svn rev. 9415
     Shape of augmentation charge: PSQ
     Using radial grid of 1279 points,  6 beta functions with: 
                l(1) =   0
                l(2) =   0
                l(3) =   1
                l(4) =   1
                l(5) =   2
                l(6) =   2
     Q(r) pseudized with 0 coefficients 


     atomic species   valence    mass     pseudopotential
        Mn1           15.00    54.93800     Mn( 1.00)
        Mn2           15.00    54.93800     Mn( 1.00)
        Au            11.00   196.96600     Au( 1.00)

     Starting magnetic structure 
     atomic species   magnetization
        Mn1          0.800
        Mn2         -0.800
        Au           0.000


     Full LDA+U calculation (l_max = 2) with parameters (eV):
     U(  1) =   3.1200   J(  1) =   0.7000   B(  1) =   0.0803
     U(  2) =   3.1200   J(  2) =   0.7000   B(  2) =   0.0803



      8 Sym. Ops. (no inversion) found



   Cartesian axes

     site n.     atom                  positions (alat units)
         1           Mn1 tau(   1) = (   0.0000000   0.0000000   0.0000000  )
         2           Mn1 tau(   2) = (   0.5000000   0.5000000   1.3079615  )
         3           Mn1 tau(   3) = (   0.0000000   0.0000000   2.6159231  )
         4           Mn1 tau(   4) = (   0.5000000   0.5000000   3.9238846  )
         5           Mn1 tau(   5) = (   0.0000000   0.0000000   5.2318461  )
         6           Mn1 tau(   6) = (   0.5000000   0.5000000   6.5398077  )
         7           Mn2 tau(   7) = (   0.0000000   0.0000000   7.8477692  )
         8           Mn2 tau(   8) = (   0.5000000   0.5000000   9.1557307  )
         9           Au  tau(   9) = (   0.5000000   0.5000000   0.4185477  )
        10           Au  tau(  10) = (   0.0000000   0.0000000   0.8894138  )
        11           Au  tau(  11) = (   0.0000000   0.0000000   1.7265092  )
        12           Au  tau(  12) = (   0.5000000   0.5000000   2.1973754  )
        13           Au  tau(  13) = (   0.5000000   0.5000000   3.0344708  )
        14           Au  tau(  14) = (   0.0000000   0.0000000   3.5053369  )
        15           Au  tau(  15) = (   0.0000000   0.0000000   4.3424323  )
        16           Au  tau(  16) = (   0.5000000   0.5000000   4.8132984  )
        17           Au  tau(  17) = (   0.5000000   0.5000000   5.6503938  )
        18           Au  tau(  18) = (   0.0000000   0.0000000   6.1212600  )
        19           Au  tau(  19) = (   0.0000000   0.0000000   6.9583554  )
        20           Au  tau(  20) = (   0.5000000   0.5000000   7.4292215  )
        21           Au  tau(  21) = (   0.5000000   0.5000000   8.2663169  )
        22           Au  tau(  22) = (   0.0000000   0.0000000   8.7371830  )
        23           Au  tau(  23) = (   0.0000000   0.0000000   9.5742784  )
        24           Au  tau(  24) = (   0.5000000   0.5000000  10.0451446  )

     number of k points=    40 (tetrahedron method)
                       cart. coord. in units 2pi/alat
        k(    1) = (   0.0000000   0.0000000   0.0000000), wk =   0.0046296
        k(    2) = (   0.0000000   0.0000000   0.0159281), wk =   0.0092593
        k(    3) = (   0.0000000   0.0000000   0.0318562), wk =   0.0092593
        k(    4) = (   0.0000000   0.0000000  -0.0477843), wk =   0.0046296
        k(    5) = (   0.0000000   0.1666667   0.0000000), wk =   0.0185185
        k(    6) = (   0.0000000   0.1666667   0.0159281), wk =   0.0370370
        k(    7) = (   0.0000000   0.1666667   0.0318562), wk =   0.0370370
        k(    8) = (   0.0000000   0.1666667  -0.0477843), wk =   0.0185185
        k(    9) = (   0.0000000   0.3333333   0.0000000), wk =   0.0185185
        k(   10) = (   0.0000000   0.3333333   0.0159281), wk =   0.0370370
        k(   11) = (   0.0000000   0.3333333   0.0318562), wk =   0.0370370
        k(   12) = (   0.0000000   0.3333333  -0.0477843), wk =   0.0185185
        k(   13) = (   0.0000000  -0.5000000   0.0000000), wk =   0.0092593
        k(   14) = (   0.0000000  -0.5000000   0.0159281), wk =   0.0185185
        k(   15) = (   0.0000000  -0.5000000   0.0318562), wk =   0.0185185
        k(   16) = (   0.0000000  -0.5000000  -0.0477843), wk =   0.0092593
        k(   17) = (   0.1666667   0.1666667   0.0000000), wk =   0.0185185
        k(   18) = (   0.1666667   0.1666667   0.0159281), wk =   0.0370370
        k(   19) = (   0.1666667   0.1666667   0.0318562), wk =   0.0370370
        k(   20) = (   0.1666667   0.1666667  -0.0477843), wk =   0.0185185
        k(   21) = (   0.1666667   0.3333333   0.0000000), wk =   0.0370370
        k(   22) = (   0.1666667   0.3333333   0.0159281), wk =   0.0740741
        k(   23) = (   0.1666667   0.3333333   0.0318562), wk =   0.0740741
        k(   24) = (   0.1666667   0.3333333  -0.0477843), wk =   0.0370370
        k(   25) = (   0.1666667  -0.5000000   0.0000000), wk =   0.0185185
        k(   26) = (   0.1666667  -0.5000000   0.0159281), wk =   0.0370370
        k(   27) = (   0.1666667  -0.5000000   0.0318562), wk =   0.0370370
        k(   28) = (   0.1666667  -0.5000000  -0.0477843), wk =   0.0185185
        k(   29) = (   0.3333333   0.3333333   0.0000000), wk =   0.0185185
        k(   30) = (   0.3333333   0.3333333   0.0159281), wk =   0.0370370
        k(   31) = (   0.3333333   0.3333333   0.0318562), wk =   0.0370370
        k(   32) = (   0.3333333   0.3333333  -0.0477843), wk =   0.0185185
        k(   33) = (   0.3333333  -0.5000000   0.0000000), wk =   0.0185185
        k(   34) = (   0.3333333  -0.5000000   0.0159281), wk =   0.0370370
        k(   35) = (   0.3333333  -0.5000000   0.0318562), wk =   0.0370370
        k(   36) = (   0.3333333  -0.5000000  -0.0477843), wk =   0.0185185
        k(   37) = (  -0.5000000  -0.5000000   0.0000000), wk =   0.0046296
        k(   38) = (  -0.5000000  -0.5000000   0.0159281), wk =   0.0092593
        k(   39) = (  -0.5000000  -0.5000000   0.0318562), wk =   0.0092593
        k(   40) = (  -0.5000000  -0.5000000  -0.0477843), wk =   0.0046296

     Dense  grid:   373547 G-vectors     FFT dimensions: (  45,  45, 432)

     Smooth grid:   112863 G-vectors     FFT dimensions: (  27,  27, 288)

     Estimated max dynamical RAM per process >     174.65 MB

     Estimated total dynamical RAM >       5.46 GB
     Generating pointlists ...
     new r_m :   0.3389 (alat units)  2.1745 (a.u.) for type    1
     new r_m :   0.3389 (alat units)  2.1745 (a.u.) for type    2
     new r_m :   0.3389 (alat units)  2.1745 (a.u.) for type    3

     Check: negative/imaginary core charge=   -0.000006    0.000000

     Initial potential from superposition of free atoms

     starting charge  295.99426, renormalised to  296.00000
     Number of +U iterations with fixed ns =  0
     Starting occupations:
 --- enter write_ns ---
 LDA+U parameters:
U(  1) =   3.1200   J(  1) =   0.7000   B(  1) =   0.0803
U(  2) =   3.1200   J(  2) =   0.7000   B(  2) =   0.0803
atom    1   Tr[ns(na)] (up, down, total) =   5.00000  0.00000  5.00000
   spin  1
    eigenvalues: 
  1.000  1.000  1.000  1.000  1.000
    eigenvectors:
  1.000  0.000  0.000  0.000  0.000
  0.000  1.000  0.000  0.000  0.000
  0.000  0.000  1.000  0.000  0.000
  0.000  0.000  0.000  1.000  0.000
  0.000  0.000  0.000  0.000  1.000
    occupations:
  1.000  0.000  0.000  0.000  0.000
  0.000  1.000  0.000  0.000  0.000
  0.000  0.000  1.000  0.000  0.000
  0.000  0.000  0.000  1.000  0.000
  0.000  0.000  0.000  0.000  1.000
   spin  2
    eigenvalues: 
  0.000  0.000  0.000  0.000  0.000
    eigenvectors:
  1.000  0.000  0.000  0.000  0.000
  0.000  1.000  0.000  0.000  0.000
  0.000  0.000  1.000  0.000  0.000
  0.000  0.000  0.000  1.000  0.000
  0.000  0.000  0.000  0.000  1.000
    occupations:
  0.000  0.000  0.000  0.000  0.000
  0.000  0.000  0.000  0.000  0.000
  0.000  0.000  0.000  0.000  0.000
  0.000  0.000  0.000  0.000  0.000
  0.000  0.000  0.000  0.000  0.000
atomic mag. moment =     5.000000
atom    2   Tr[ns(na)] (up, down, total) =   5.00000  0.00000  5.00000
   spin  1
    eigenvalues: 
  1.000  1.000  1.000  1.000  1.000
    eigenvectors:
  1.000  0.000  0.000  0.000  0.000
  0.000  1.000  0.000  0.000  0.000
  0.000  0.000  1.000  0.000  0.000
  0.000  0.000  0.000  1.000  0.000
  0.000  0.000  0.000  0.000  1.000
    occupations:
  1.000  0.000  0.000  0.000  0.000
  0.000  1.000  0.000  0.000  0.000
  0.000  0.000  1.000  0.000  0.000
  0.000  0.000  0.000  1.000  0.000
  0.000  0.000  0.000  0.000  1.000
   spin  2
    eigenvalues: 
  0.000  0.000  0.000  0.000  0.000
    eigenvectors:
  1.000  0.000  0.000  0.000  0.000
  0.000  1.000  0.000  0.000  0.000
  0.000  0.000  1.000  0.000  0.000
  0.000  0.000  0.000  1.000  0.000
  0.000  0.000  0.000  0.000  1.000
    occupations:
  0.000  0.000  0.000  0.000  0.000
  0.000  0.000  0.000  0.000  0.000
  0.000  0.000  0.000  0.000  0.000
  0.000  0.000  0.000  0.000  0.000
  0.000  0.000  0.000  0.000  0.000
atomic mag. moment =     5.000000
atom    3   Tr[ns(na)] (up, down, total) =   5.00000  0.00000  5.00000
   spin  1
    eigenvalues: 
  1.000  1.000  1.000  1.000  1.000
    eigenvectors:
  1.000  0.000  0.000  0.000  0.000
  0.000  1.000  0.000  0.000  0.000
  0.000  0.000  1.000  0.000  0.000
  0.000  0.000  0.000  1.000  0.000
  0.000  0.000  0.000  0.000  1.000
    occupations:
  1.000  0.000  0.000  0.000  0.000
  0.000  1.000  0.000  0.000  0.000
  0.000  0.000  1.000  0.000  0.000
  0.000  0.000  0.000  1.000  0.000
  0.000  0.000  0.000  0.000  1.000
   spin  2
    eigenvalues: 
  0.000  0.000  0.000  0.000  0.000
    eigenvectors:
  1.000  0.000  0.000  0.000  0.000
  0.000  1.000  0.000  0.000  0.000
  0.000  0.000  1.000  0.000  0.000
  0.000  0.000  0.000  1.000  0.000
  0.000  0.000  0.000  0.000  1.000
    occupations:
  0.000  0.000  0.000  0.000  0.000
  0.000  0.000  0.000  0.000  0.000
  0.000  0.000  0.000  0.000  0.000
  0.000  0.000  0.000  0.000  0.000
  0.000  0.000  0.000  0.000  0.000
atomic mag. moment =     5.000000
atom    4   Tr[ns(na)] (up, down, total) =   5.00000  0.00000  5.00000
   spin  1
    eigenvalues: 
  1.000  1.000  1.000  1.000  1.000
    eigenvectors:
  1.000  0.000  0.000  0.000  0.000
  0.000  1.000  0.000  0.000  0.000
  0.000  0.000  1.000  0.000  0.000
  0.000  0.000  0.000  1.000  0.000
  0.000  0.000  0.000  0.000  1.000
    occupations:
  1.000  0.000  0.000  0.000  0.000
  0.000  1.000  0.000  0.000  0.000
  0.000  0.000  1.000  0.000  0.000
  0.000  0.000  0.000  1.000  0.000
  0.000  0.000  0.000  0.000  1.000
   spin  2
    eigenvalues: 
  0.000  0.000  0.000  0.000  0.000
    eigenvectors:
  1.000  0.000  0.000  0.000  0.000
  0.000  1.000  0.000  0.000  0.000
  0.000  0.000  1.000  0.000  0.000
  0.000  0.000  0.000  1.000  0.000
  0.000  0.000  0.000  0.000  1.000
    occupations:
  0.000  0.000  0.000  0.000  0.000
  0.000  0.000  0.000  0.000  0.000
  0.000  0.000  0.000  0.000  0.000
  0.000  0.000  0.000  0.000  0.000
  0.000  0.000  0.000  0.000  0.000
atomic mag. moment =     5.000000
atom    5   Tr[ns(na)] (up, down, total) =   5.00000  0.00000  5.00000
   spin  1
    eigenvalues: 
  1.000  1.000  1.000  1.000  1.000
    eigenvectors:
  1.000  0.000  0.000  0.000  0.000
  0.000  1.000  0.000  0.000  0.000
  0.000  0.000  1.000  0.000  0.000
  0.000  0.000  0.000  1.000  0.000
  0.000  0.000  0.000  0.000  1.000
    occupations:
  1.000  0.000  0.000  0.000  0.000
  0.000  1.000  0.000  0.000  0.000
  0.000  0.000  1.000  0.000  0.000
  0.000  0.000  0.000  1.000  0.000
  0.000  0.000  0.000  0.000  1.000
   spin  2
    eigenvalues: 
  0.000  0.000  0.000  0.000  0.000
    eigenvectors:
  1.000  0.000  0.000  0.000  0.000
  0.000  1.000  0.000  0.000  0.000
  0.000  0.000  1.000  0.000  0.000
  0.000  0.000  0.000  1.000  0.000
  0.000  0.000  0.000  0.000  1.000
    occupations:
  0.000  0.000  0.000  0.000  0.000
  0.000  0.000  0.000  0.000  0.000
  0.000  0.000  0.000  0.000  0.000
  0.000  0.000  0.000  0.000  0.000
  0.000  0.000  0.000  0.000  0.000
atomic mag. moment =     5.000000
atom    6   Tr[ns(na)] (up, down, total) =   5.00000  0.00000  5.00000
   spin  1
    eigenvalues: 
  1.000  1.000  1.000  1.000  1.000
    eigenvectors:
  1.000  0.000  0.000  0.000  0.000
  0.000  1.000  0.000  0.000  0.000
  0.000  0.000  1.000  0.000  0.000
  0.000  0.000  0.000  1.000  0.000
  0.000  0.000  0.000  0.000  1.000
    occupations:
  1.000  0.000  0.000  0.000  0.000
  0.000  1.000  0.000  0.000  0.000
  0.000  0.000  1.000  0.000  0.000
  0.000  0.000  0.000  1.000  0.000
  0.000  0.000  0.000  0.000  1.000
   spin  2
    eigenvalues: 
  0.000  0.000  0.000  0.000  0.000
    eigenvectors:
  1.000  0.000  0.000  0.000  0.000
  0.000  1.000  0.000  0.000  0.000
  0.000  0.000  1.000  0.000  0.000
  0.000  0.000  0.000  1.000  0.000
  0.000  0.000  0.000  0.000  1.000
    occupations:
  0.000  0.000  0.000  0.000  0.000
  0.000  0.000  0.000  0.000  0.000
  0.000  0.000  0.000  0.000  0.000
  0.000  0.000  0.000  0.000  0.000
  0.000  0.000  0.000  0.000  0.000
atomic mag. moment =     5.000000
atom    7   Tr[ns(na)] (up, down, total) =   0.00000  5.00000  5.00000
   spin  1
    eigenvalues: 
  0.000  0.000  0.000  0.000  0.000
    eigenvectors:
  1.000  0.000  0.000  0.000  0.000
  0.000  1.000  0.000  0.000  0.000
  0.000  0.000  1.000  0.000  0.000
  0.000  0.000  0.000  1.000  0.000
  0.000  0.000  0.000  0.000  1.000
    occupations:
  0.000  0.000  0.000  0.000  0.000
  0.000  0.000  0.000  0.000  0.000
  0.000  0.000  0.000  0.000  0.000
  0.000  0.000  0.000  0.000  0.000
  0.000  0.000  0.000  0.000  0.000
   spin  2
    eigenvalues: 
  1.000  1.000  1.000  1.000  1.000
    eigenvectors:
  1.000  0.000  0.000  0.000  0.000
  0.000  1.000  0.000  0.000  0.000
  0.000  0.000  1.000  0.000  0.000
  0.000  0.000  0.000  1.000  0.000
  0.000  0.000  0.000  0.000  1.000
    occupations:
  1.000  0.000  0.000  0.000  0.000
  0.000  1.000  0.000  0.000  0.000
  0.000  0.000  1.000  0.000  0.000
  0.000  0.000  0.000  1.000  0.000
  0.000  0.000  0.000  0.000  1.000
atomic mag. moment =    -5.000000
atom    8   Tr[ns(na)] (up, down, total) =   0.00000  5.00000  5.00000
   spin  1
    eigenvalues: 
  0.000  0.000  0.000  0.000  0.000
    eigenvectors:
  1.000  0.000  0.000  0.000  0.000
  0.000  1.000  0.000  0.000  0.000
  0.000  0.000  1.000  0.000  0.000
  0.000  0.000  0.000  1.000  0.000
  0.000  0.000  0.000  0.000  1.000
    occupations:
  0.000  0.000  0.000  0.000  0.000
  0.000  0.000  0.000  0.000  0.000
  0.000  0.000  0.000  0.000  0.000
  0.000  0.000  0.000  0.000  0.000
  0.000  0.000  0.000  0.000  0.000
   spin  2
    eigenvalues: 
  1.000  1.000  1.000  1.000  1.000
    eigenvectors:
  1.000  0.000  0.000  0.000  0.000
  0.000  1.000  0.000  0.000  0.000
  0.000  0.000  1.000  0.000  0.000
  0.000  0.000  0.000  1.000  0.000
  0.000  0.000  0.000  0.000  1.000
    occupations:
  1.000  0.000  0.000  0.000  0.000
  0.000  1.000  0.000  0.000  0.000
  0.000  0.000  1.000  0.000  0.000
  0.000  0.000  0.000  1.000  0.000
  0.000  0.000  0.000  0.000  1.000
atomic mag. moment =    -5.000000
N of occupied +U levels =   40.000000
 --- exit write_ns ---
 Atomic wfc used for LDA+U Projector are NOT orthogonalized
     Starting wfcs are  224 randomized atomic wfcs
     Checking if some PAW data can be deallocated... 

     total cpu time spent up to now is       28.4 secs

     Self-consistent Calculation

     iteration #  1     ecut=    45.00 Ry     beta= 0.10
     Davidson diagonalization with overlap
     ethr =  1.00E-02,  avg # of iterations =  3.8
 --- enter write_ns ---
 LDA+U parameters:
U(  1) =   3.1200   J(  1) =   0.7000   B(  1) =   0.0803
U(  2) =   3.1200   J(  2) =   0.7000   B(  2) =   0.0803
atom    1   Tr[ns(na)] (up, down, total) =   5.01744  0.39442  5.41186
   spin  1
    eigenvalues: 
  1.003  1.003  1.003  1.004  1.004
    eigenvectors:
  0.000  0.000  0.000  1.000  0.000
  0.000  0.267  0.733  0.000  0.000
  0.000  0.733  0.267  0.000  0.000
  0.000  0.000  0.000  0.000  1.000
  1.000  0.000  0.000  0.000  0.000
    occupations:
  1.004 -0.000 -0.000  0.000  0.000
 -0.000  1.003 -0.000  0.000  0.000
 -0.000 -0.000  1.003  0.000  0.000
  0.000  0.000  0.000  1.004 -0.000
  0.000  0.000  0.000 -0.000  1.003
   spin  2
    eigenvalues: 
  0.051  0.069  0.079  0.079  0.115
    eigenvectors:
  0.000  1.000  0.000  0.000  0.000
  0.000  0.000  0.388  0.612  0.000
  0.000  0.000  0.612  0.388  0.000
  1.000  0.000  0.000  0.000  0.000
  0.000  0.000  0.000  0.000  1.000
    occupations:
  0.069 -0.000 -0.000  0.000  0.000
 -0.000  0.079 -0.000  0.000  0.000
 -0.000 -0.000  0.079  0.000  0.000
  0.000  0.000  0.000  0.051 -0.000
  0.000  0.000  0.000 -0.000  0.115
atomic mag. moment =     4.623026
atom    2   Tr[ns(na)] (up, down, total) =   5.01760  0.38877  5.40637
   spin  1
    eigenvalues: 
  1.003  1.003  1.003  1.004  1.004
    eigenvectors:
  0.000  0.000  0.000  1.000  0.000
  0.000  0.347  0.653  0.000  0.000
  0.000  0.653  0.347  0.000  0.000
  0.000  0.000  0.000  0.000  1.000
  1.000  0.000  0.000  0.000  0.000
    occupations:
  1.004 -0.000 -0.000  0.000  0.000
 -0.000  1.003 -0.000  0.000  0.000
 -0.000 -0.000  1.003  0.000  0.000
  0.000  0.000  0.000  1.004 -0.000
  0.000  0.000  0.000 -0.000  1.003
   spin  2
    eigenvalues: 
  0.051  0.070  0.080  0.080  0.109
    eigenvectors:
  0.000  1.000  0.000  0.000  0.000
  0.000  0.000  0.292  0.708  0.000
  0.000  0.000  0.708  0.292  0.000
  1.000  0.000  0.000  0.000  0.000
  0.000  0.000  0.000  0.000  1.000
    occupations:
  0.070 -0.000 -0.000  0.000  0.000
 -0.000  0.080 -0.000  0.000  0.000
 -0.000 -0.000  0.080  0.000  0.000
  0.000  0.000  0.000  0.051 -0.000
  0.000  0.000  0.000 -0.000  0.109
atomic mag. moment =     4.628829
atom    3   Tr[ns(na)] (up, down, total) =   5.01758  0.38930  5.40688
   spin  1
    eigenvalues: 
  1.003  1.003  1.003  1.004  1.004
    eigenvectors:
  0.000  0.000  0.000  1.000  0.000
  0.000  0.333  0.667  0.000  0.000
  0.000  0.667  0.333  0.000  0.000
  0.000  0.000  0.000  0.000  1.000
  1.000  0.000  0.000  0.000  0.000
    occupations:
  1.004 -0.000 -0.000  0.000  0.000
 -0.000  1.003 -0.000  0.000  0.000
 -0.000 -0.000  1.003  0.000  0.000
  0.000  0.000  0.000  1.004 -0.000
  0.000  0.000  0.000 -0.000  1.003
   spin  2
    eigenvalues: 
  0.050  0.069  0.080  0.080  0.110
    eigenvectors:
  0.000  1.000  0.000  0.000  0.000
  0.000  0.000  0.430  0.570  0.000
  0.000  0.000  0.570  0.430  0.000
  1.000  0.000  0.000  0.000  0.000
  0.000  0.000  0.000  0.000  1.000
    occupations:
  0.069 -0.000 -0.000  0.000  0.000
 -0.000  0.080 -0.000  0.000  0.000
 -0.000 -0.000  0.080  0.000  0.000
  0.000  0.000  0.000  0.050 -0.000
  0.000  0.000  0.000 -0.000  0.110
atomic mag. moment =     4.628279
atom    4   Tr[ns(na)] (up, down, total) =   5.01747  0.38892  5.40638
   spin  1
    eigenvalues: 
  1.003  1.003  1.003  1.004  1.004
    eigenvectors:
  0.000  0.000  0.000  1.000  0.000
  0.000  0.275  0.725  0.000  0.000
  0.000  0.725  0.275  0.000  0.000
  0.000  0.000  0.000  0.000  1.000
  1.000  0.000  0.000  0.000  0.000
    occupations:
  1.004 -0.000 -0.000  0.000  0.000
 -0.000  1.003 -0.000  0.000  0.000
 -0.000 -0.000  1.003  0.000  0.000
  0.000  0.000  0.000  1.004 -0.000
  0.000  0.000  0.000 -0.000  1.003
   spin  2
    eigenvalues: 
  0.050  0.069  0.080  0.080  0.110
    eigenvectors:
  0.000  1.000  0.000  0.000  0.000
  0.000  0.000  0.403  0.597  0.000
  0.000  0.000  0.597  0.403  0.000
  1.000  0.000  0.000  0.000  0.000
  0.000  0.000  0.000  0.000  1.000
    occupations:
  0.069 -0.000 -0.000  0.000  0.000
 -0.000  0.080 -0.000  0.000  0.000
 -0.000 -0.000  0.080  0.000  0.000
  0.000  0.000  0.000  0.050 -0.000
  0.000  0.000  0.000 -0.000  0.110
atomic mag. moment =     4.628549
atom    5   Tr[ns(na)] (up, down, total) =   5.01757  0.38897  5.40655
   spin  1
    eigenvalues: 
  1.003  1.003  1.003  1.004  1.004
    eigenvectors:
  0.000  0.000  0.000  1.000  0.000
  0.000  0.313  0.687  0.000  0.000
  0.000  0.687  0.313  0.000  0.000
  0.000  0.000  0.000  0.000  1.000
  1.000  0.000  0.000  0.000  0.000
    occupations:
  1.004 -0.000 -0.000  0.000  0.000
 -0.000  1.003 -0.000  0.000  0.000
 -0.000 -0.000  1.003  0.000  0.000
  0.000  0.000  0.000  1.004 -0.000
  0.000  0.000  0.000 -0.000  1.003
   spin  2
    eigenvalues: 
  0.051  0.070  0.080  0.080  0.109
    eigenvectors:
  0.000  1.000  0.000  0.000  0.000
  0.000  0.000  0.430  0.570  0.000
  0.000  0.000  0.570  0.430  0.000
  1.000  0.000  0.000  0.000  0.000
  0.000  0.000  0.000  0.000  1.000
    occupations:
  0.070 -0.000 -0.000  0.000  0.000
 -0.000  0.080 -0.000  0.000  0.000
 -0.000 -0.000  0.080  0.000  0.000
  0.000  0.000  0.000  0.051 -0.000
  0.000  0.000  0.000 -0.000  0.109
atomic mag. moment =     4.628599
atom    6   Tr[ns(na)] (up, down, total) =   5.01759  0.39538  5.41297
   spin  1
    eigenvalues: 
  1.003  1.003  1.003  1.004  1.004
    eigenvectors:
  0.000  0.000  0.000  1.000  0.000
  0.000  0.303  0.697  0.000  0.000
  0.000  0.697  0.303  0.000  0.000
  0.000  0.000  0.000  0.000  1.000
  1.000  0.000  0.000  0.000  0.000
    occupations:
  1.004 -0.000 -0.000  0.000  0.000
 -0.000  1.003 -0.000  0.000  0.000
 -0.000 -0.000  1.003  0.000  0.000
  0.000  0.000  0.000  1.004 -0.000
  0.000  0.000  0.000 -0.000  1.003
   spin  2
    eigenvalues: 
  0.051  0.069  0.079  0.079  0.116
    eigenvectors:
  0.000  1.000  0.000  0.000  0.000
  0.000  0.000  0.306  0.694  0.000
  0.000  0.000  0.694  0.306  0.000
  1.000  0.000  0.000  0.000  0.000
  0.000  0.000  0.000  0.000  1.000
    occupations:
  0.069 -0.000 -0.000  0.000  0.000
 -0.000  0.079 -0.000  0.000  0.000
 -0.000 -0.000  0.079  0.000  0.000
  0.000  0.000  0.000  0.051 -0.000
  0.000  0.000  0.000 -0.000  0.116
atomic mag. moment =     4.622216
atom    7   Tr[ns(na)] (up, down, total) =   0.39805  5.01768  5.41572
   spin  1
    eigenvalues: 
  0.052  0.070  0.080  0.080  0.115
    eigenvectors:
  0.000  1.000  0.000  0.000  0.000
  0.000  0.000  0.269  0.731  0.000
  0.000  0.000  0.731  0.269  0.000
  1.000  0.000  0.000  0.000  0.000
  0.000  0.000  0.000  0.000  1.000
    occupations:
  0.070 -0.000 -0.000  0.000  0.000
 -0.000  0.080 -0.000  0.000  0.000
 -0.000 -0.000  0.080  0.000  0.000
  0.000  0.000  0.000  0.052 -0.000
  0.000  0.000  0.000 -0.000  0.115
   spin  2
    eigenvalues: 
  1.003  1.003  1.003  1.004  1.004
    eigenvectors:
  0.000  0.000  0.000  1.000  0.000
  0.000  0.320  0.680  0.000  0.000
  0.000  0.680  0.320  0.000  0.000
  0.000  0.000  0.000  0.000  1.000
  1.000  0.000  0.000  0.000  0.000
    occupations:
  1.004 -0.000 -0.000  0.000  0.000
 -0.000  1.003 -0.000  0.000  0.000
 -0.000 -0.000  1.003  0.000  0.000
  0.000  0.000  0.000  1.004 -0.000
  0.000  0.000  0.000 -0.000  1.003
atomic mag. moment =    -4.619628
atom    8   Tr[ns(na)] (up, down, total) =   0.39838  5.01761  5.41599
   spin  1
    eigenvalues: 
  0.052  0.070  0.081  0.081  0.115
    eigenvectors:
  0.000  1.000  0.000  0.000  0.000
  0.000  0.000  0.384  0.616  0.000
  0.000  0.000  0.616  0.384  0.000
  1.000  0.000  0.000  0.000  0.000
  0.000  0.000  0.000  0.000  1.000
    occupations:
  0.070 -0.000 -0.000  0.000  0.000
 -0.000  0.081 -0.000  0.000  0.000
 -0.000 -0.000  0.081  0.000  0.000
  0.000  0.000  0.000  0.052 -0.000
  0.000  0.000  0.000 -0.000  0.115
   spin  2
    eigenvalues: 
  1.003  1.003  1.003  1.004  1.004
    eigenvectors:
  0.000  0.000  0.000  1.000  0.000
  0.000  0.395  0.605  0.000  0.000
  0.000  0.605  0.395  0.000  0.000
  0.000  0.000  0.000  0.000  1.000
  1.000  0.000  0.000  0.000  0.000
    occupations:
  1.004 -0.000 -0.000  0.000  0.000
 -0.000  1.003 -0.000  0.000  0.000
 -0.000 -0.000  1.003  0.000  0.000
  0.000  0.000  0.000  1.004 -0.000
  0.000  0.000  0.000 -0.000  1.003
atomic mag. moment =    -4.619226
N of occupied +U levels =   43.282728
 --- exit write_ns ---

     total cpu time spent up to now is      102.8 secs

     total energy              =  -14687.29529666 Ry
     Harris-Foulkes estimate   =  -14685.83462926 Ry
     estimated scf accuracy    <      11.49579293 Ry

     total magnetization       =    20.34 Bohr mag/cell
     absolute magnetization    =    41.73 Bohr mag/cell

     iteration #  2     ecut=    45.00 Ry     beta= 0.10
     Davidson diagonalization with overlap
     ethr =  3.88E-03,  avg # of iterations =  1.0

     total cpu time spent up to now is      145.4 secs

     total energy              =  -14687.96886682 Ry
     Harris-Foulkes estimate   =  -14687.38356028 Ry
     estimated scf accuracy    <      10.86741863 Ry

     total magnetization       =    20.12 Bohr mag/cell
     absolute magnetization    =    41.35 Bohr mag/cell

     iteration #  3     ecut=    45.00 Ry     beta= 0.10
     Davidson diagonalization with overlap
     ethr =  3.67E-03,  avg # of iterations =  2.5

     total cpu time spent up to now is      199.6 secs

     total energy              =  -14692.53969189 Ry
     Harris-Foulkes estimate   =  -14688.70411749 Ry
     estimated scf accuracy    <      60.34118026 Ry

     total magnetization       =    19.84 Bohr mag/cell
     absolute magnetization    =    41.12 Bohr mag/cell

     iteration #  4     ecut=    45.00 Ry     beta= 0.10
     Davidson diagonalization with overlap
     ethr =  3.67E-03,  avg # of iterations =  2.1

     total cpu time spent up to now is      252.0 secs

     total energy              =  -14693.99578766 Ry
     Harris-Foulkes estimate   =  -14694.16048452 Ry
     estimated scf accuracy    <       7.15818817 Ry

     total magnetization       =    18.76 Bohr mag/cell
     absolute magnetization    =    38.63 Bohr mag/cell

     iteration #  5     ecut=    45.00 Ry     beta= 0.10
     Davidson diagonalization with overlap
     ethr =  2.42E-03,  avg # of iterations =  1.1

     total cpu time spent up to now is      294.8 secs

     total energy              =  -14694.13437125 Ry
     Harris-Foulkes estimate   =  -14694.03779284 Ry
     estimated scf accuracy    <       5.21653046 Ry

     total magnetization       =    18.83 Bohr mag/cell
     absolute magnetization    =    38.70 Bohr mag/cell

     iteration #  6     ecut=    45.00 Ry     beta= 0.10
     Davidson diagonalization with overlap
     ethr =  1.76E-03,  avg # of iterations =  1.0

     total cpu time spent up to now is      337.3 secs

     total energy              =  -14693.86713045 Ry
     Harris-Foulkes estimate   =  -14694.14231892 Ry
     estimated scf accuracy    <       6.38863088 Ry

     total magnetization       =    18.79 Bohr mag/cell
     absolute magnetization    =    38.61 Bohr mag/cell

     iteration #  7     ecut=    45.00 Ry     beta= 0.10
     Davidson diagonalization with overlap
     ethr =  1.76E-03,  avg # of iterations =  1.3

     total cpu time spent up to now is      381.5 secs

     total energy              =  -14693.55556086 Ry
     Harris-Foulkes estimate   =  -14693.92845497 Ry
     estimated scf accuracy    <      10.29836468 Ry

     total magnetization       =    18.69 Bohr mag/cell
     absolute magnetization    =    38.71 Bohr mag/cell

     iteration #  8     ecut=    45.00 Ry     beta= 0.10
     Davidson diagonalization with overlap
     ethr =  1.76E-03,  avg # of iterations =  3.5

     total cpu time spent up to now is      444.5 secs

     total energy              =  -14694.00124089 Ry
     Harris-Foulkes estimate   =  -14693.97553004 Ry
     estimated scf accuracy    <       0.89616189 Ry

     total magnetization       =    17.58 Bohr mag/cell
     absolute magnetization    =    37.64 Bohr mag/cell

     iteration #  9     ecut=    45.00 Ry     beta= 0.10
     Davidson diagonalization with overlap
     ethr =  3.03E-04,  avg # of iterations =  3.3

     total cpu time spent up to now is      503.9 secs

     total energy              =  -14694.02416816 Ry
     Harris-Foulkes estimate   =  -14694.02207858 Ry
     estimated scf accuracy    <       0.66231389 Ry

     total magnetization       =    17.39 Bohr mag/cell
     absolute magnetization    =    37.39 Bohr mag/cell

     iteration # 10     ecut=    45.00 Ry     beta= 0.10
     Davidson diagonalization with overlap
     ethr =  2.24E-04,  avg # of iterations =  1.4

     total cpu time spent up to now is      548.8 secs

     total energy              =  -14693.98399583 Ry
     Harris-Foulkes estimate   =  -14694.02842260 Ry
     estimated scf accuracy    <       0.49794820 Ry

     total magnetization       =    17.35 Bohr mag/cell
     absolute magnetization    =    37.32 Bohr mag/cell

     iteration # 11     ecut=    45.00 Ry     beta= 0.10
     Davidson diagonalization with overlap
     ethr =  1.68E-04,  avg # of iterations =  1.4

     total cpu time spent up to now is      593.7 secs

     total energy              =  -14694.00805623 Ry
     Harris-Foulkes estimate   =  -14694.01520959 Ry
     estimated scf accuracy    <       0.21410507 Ry

     total magnetization       =    17.54 Bohr mag/cell
     absolute magnetization    =    37.52 Bohr mag/cell

     iteration # 12     ecut=    45.00 Ry     beta= 0.10
     Davidson diagonalization with overlap
     ethr =  7.23E-05,  avg # of iterations =  1.8

     total cpu time spent up to now is      641.5 secs

     total energy              =  -14694.01856984 Ry
     Harris-Foulkes estimate   =  -14694.01713062 Ry
     estimated scf accuracy    <       0.01283664 Ry

     total magnetization       =    17.44 Bohr mag/cell
     absolute magnetization    =    37.36 Bohr mag/cell

     iteration # 13     ecut=    45.00 Ry     beta= 0.10
     Davidson diagonalization with overlap
     ethr =  4.34E-06,  avg # of iterations =  5.5

     total cpu time spent up to now is      726.3 secs

     total energy              =  -14694.02041757 Ry
     Harris-Foulkes estimate   =  -14694.01980804 Ry
     estimated scf accuracy    <       0.00818436 Ry

     total magnetization       =    17.36 Bohr mag/cell
     absolute magnetization    =    37.25 Bohr mag/cell

     iteration # 14     ecut=    45.00 Ry     beta= 0.10
     Davidson diagonalization with overlap
     ethr =  2.76E-06,  avg # of iterations =  1.2

     total cpu time spent up to now is      769.9 secs

     total energy              =  -14694.02213566 Ry
     Harris-Foulkes estimate   =  -14694.02038902 Ry
     estimated scf accuracy    <       0.00531087 Ry

     total magnetization       =    17.32 Bohr mag/cell
     absolute magnetization    =    37.23 Bohr mag/cell

     iteration # 15     ecut=    45.00 Ry     beta= 0.10
     Davidson diagonalization with overlap
     ethr =  1.79E-06,  avg # of iterations =  2.9

     total cpu time spent up to now is      831.5 secs

     total energy              =  -14694.02266701 Ry
     Harris-Foulkes estimate   =  -14694.02248768 Ry
     estimated scf accuracy    <       0.00164557 Ry

     total magnetization       =    17.25 Bohr mag/cell
     absolute magnetization    =    37.19 Bohr mag/cell

     iteration # 16     ecut=    45.00 Ry     beta= 0.10
     Davidson diagonalization with overlap
     ethr =  5.56E-07,  avg # of iterations =  2.1

     total cpu time spent up to now is      881.1 secs

     total energy              =  -14694.02286190 Ry
     Harris-Foulkes estimate   =  -14694.02280003 Ry
     estimated scf accuracy    <       0.00547547 Ry

     total magnetization       =    17.25 Bohr mag/cell
     absolute magnetization    =    37.19 Bohr mag/cell

     iteration # 17     ecut=    45.00 Ry     beta= 0.10
     Davidson diagonalization with overlap
     ethr =  5.56E-07,  avg # of iterations =  1.1

     total cpu time spent up to now is      923.8 secs

     total energy              =  -14694.02313511 Ry
     Harris-Foulkes estimate   =  -14694.02297870 Ry
     estimated scf accuracy    <       0.00288957 Ry

     total magnetization       =    17.26 Bohr mag/cell
     absolute magnetization    =    37.20 Bohr mag/cell

     iteration # 18     ecut=    45.00 Ry     beta= 0.10
     Davidson diagonalization with overlap
     ethr =  5.56E-07,  avg # of iterations =  1.0

     total cpu time spent up to now is      966.2 secs

     total energy              =  -14694.02324610 Ry
     Harris-Foulkes estimate   =  -14694.02320815 Ry
     estimated scf accuracy    <       0.00957908 Ry

     total magnetization       =    17.25 Bohr mag/cell
     absolute magnetization    =    37.19 Bohr mag/cell

     iteration # 19     ecut=    45.00 Ry     beta= 0.10
     Davidson diagonalization with overlap
     ethr =  5.56E-07,  avg # of iterations =  1.1

     total cpu time spent up to now is     1009.0 secs

     total energy              =  -14694.02338201 Ry
     Harris-Foulkes estimate   =  -14694.02332225 Ry
     estimated scf accuracy    <       0.00044366 Ry

     total magnetization       =    17.24 Bohr mag/cell
     absolute magnetization    =    37.20 Bohr mag/cell

     iteration # 20     ecut=    45.00 Ry     beta= 0.10
     Davidson diagonalization with overlap
     ethr =  1.50E-07,  avg # of iterations =  1.2

     total cpu time spent up to now is     1052.5 secs

     total energy              =  -14694.02343407 Ry
     Harris-Foulkes estimate   =  -14694.02338320 Ry
     estimated scf accuracy    <       0.00037104 Ry

     total magnetization       =    17.24 Bohr mag/cell
     absolute magnetization    =    37.20 Bohr mag/cell

     iteration # 21     ecut=    45.00 Ry     beta= 0.10
     Davidson diagonalization with overlap
     ethr =  1.25E-07,  avg # of iterations =  1.3

     total cpu time spent up to now is     1096.6 secs

     total energy              =  -14694.02348164 Ry
     Harris-Foulkes estimate   =  -14694.02341008 Ry
     estimated scf accuracy    <       0.00026138 Ry

     total magnetization       =    17.23 Bohr mag/cell
     absolute magnetization    =    37.19 Bohr mag/cell

     iteration # 22     ecut=    45.00 Ry     beta= 0.10
     Davidson diagonalization with overlap
     ethr =  8.83E-08,  avg # of iterations =  1.5

     total cpu time spent up to now is     1143.1 secs

     total energy              =  -14694.02345765 Ry
     Harris-Foulkes estimate   =  -14694.02343061 Ry
     estimated scf accuracy    <       0.00026719 Ry

     total magnetization       =    17.22 Bohr mag/cell
     absolute magnetization    =    37.19 Bohr mag/cell

     iteration # 23     ecut=    45.00 Ry     beta= 0.10
     Davidson diagonalization with overlap
     ethr =  8.83E-08,  avg # of iterations =  1.3

     total cpu time spent up to now is     1187.8 secs

     total energy              =  -14694.02342016 Ry
     Harris-Foulkes estimate   =  -14694.02341353 Ry
     estimated scf accuracy    <       0.00003878 Ry

     total magnetization       =    17.21 Bohr mag/cell
     absolute magnetization    =    37.18 Bohr mag/cell

     iteration # 24     ecut=    45.00 Ry     beta= 0.10
     Davidson diagonalization with overlap
     ethr =  1.31E-08,  avg # of iterations =  2.1

     total cpu time spent up to now is     1238.0 secs

     total energy              =  -14694.02341696 Ry
     Harris-Foulkes estimate   =  -14694.02341069 Ry
     estimated scf accuracy    <       0.00001417 Ry

     total magnetization       =    17.21 Bohr mag/cell
     absolute magnetization    =    37.18 Bohr mag/cell

     iteration # 25     ecut=    45.00 Ry     beta= 0.10
     Davidson diagonalization with overlap
     ethr =  4.79E-09,  avg # of iterations =  2.4

     total cpu time spent up to now is     1291.1 secs

     total energy              =  -14694.02340768 Ry
     Harris-Foulkes estimate   =  -14694.02340627 Ry
     estimated scf accuracy    <       0.00003865 Ry

     total magnetization       =    17.21 Bohr mag/cell
     absolute magnetization    =    37.18 Bohr mag/cell

     iteration # 26     ecut=    45.00 Ry     beta= 0.10
     Davidson diagonalization with overlap
     ethr =  4.79E-09,  avg # of iterations =  1.0

     total cpu time spent up to now is     1334.0 secs

     total energy              =  -14694.02340638 Ry
     Harris-Foulkes estimate   =  -14694.02340366 Ry
     estimated scf accuracy    <       0.00003210 Ry

     total magnetization       =    17.21 Bohr mag/cell
     absolute magnetization    =    37.18 Bohr mag/cell

     iteration # 27     ecut=    45.00 Ry     beta= 0.10
     Davidson diagonalization with overlap
     ethr =  4.79E-09,  avg # of iterations =  1.2

     total cpu time spent up to now is     1378.2 secs

     total energy              =  -14694.02340358 Ry
     Harris-Foulkes estimate   =  -14694.02340294 Ry
     estimated scf accuracy    <       0.00001039 Ry

     total magnetization       =    17.21 Bohr mag/cell
     absolute magnetization    =    37.18 Bohr mag/cell

     iteration # 28     ecut=    45.00 Ry     beta= 0.10
     Davidson diagonalization with overlap
     ethr =  3.51E-09,  avg # of iterations =  1.0

     total cpu time spent up to now is     1420.6 secs

     total energy              =  -14694.02340648 Ry
     Harris-Foulkes estimate   =  -14694.02340518 Ry
     estimated scf accuracy    <       0.00001222 Ry

     total magnetization       =    17.21 Bohr mag/cell
     absolute magnetization    =    37.18 Bohr mag/cell

     iteration # 29     ecut=    45.00 Ry     beta= 0.10
     Davidson diagonalization with overlap
     ethr =  3.51E-09,  avg # of iterations =  1.0

     total cpu time spent up to now is     1462.9 secs

     total energy              =  -14694.02340596 Ry
     Harris-Foulkes estimate   =  -14694.02340486 Ry
     estimated scf accuracy    <       0.00000183 Ry

     total magnetization       =    17.21 Bohr mag/cell
     absolute magnetization    =    37.18 Bohr mag/cell

     iteration # 30     ecut=    45.00 Ry     beta= 0.10
     Davidson diagonalization with overlap
     ethr =  6.17E-10,  avg # of iterations =  2.3

     total cpu time spent up to now is     1515.4 secs

     total energy              =  -14694.02340561 Ry
     Harris-Foulkes estimate   =  -14694.02340497 Ry
     estimated scf accuracy    <       0.00000298 Ry

     total magnetization       =    17.20 Bohr mag/cell
     absolute magnetization    =    37.18 Bohr mag/cell

     iteration # 31     ecut=    45.00 Ry     beta= 0.10
     Davidson diagonalization with overlap
     ethr =  6.17E-10,  avg # of iterations =  1.2
 
     Magnetic moment per site:
     atom:    1    charge:   13.5492    magn:    4.2427    constr:    0.0000
     atom:    2    charge:   13.5534    magn:    4.2127    constr:    0.0000
     atom:    3    charge:   13.5543    magn:    4.2119    constr:    0.0000
     atom:    4    charge:   13.5546    magn:    4.2114    constr:    0.0000
     atom:    5    charge:   13.5532    magn:    4.2130    constr:    0.0000
     atom:    6    charge:   13.5495    magn:    4.2428    constr:    0.0000
     atom:    7    charge:   13.5483    magn:   -4.2484    constr:    0.0000
     atom:    8    charge:   13.5482    magn:   -4.2490    constr:    0.0000
     atom:    9    charge:    9.1367    magn:    0.0298    constr:    0.0000
     atom:   10    charge:    9.1369    magn:    0.0319    constr:    0.0000
     atom:   11    charge:    9.1367    magn:    0.0318    constr:    0.0000
     atom:   12    charge:    9.1351    magn:    0.0269    constr:    0.0000
     atom:   13    charge:    9.1358    magn:    0.0268    constr:    0.0000
     atom:   14    charge:    9.1361    magn:    0.0267    constr:    0.0000
     atom:   15    charge:    9.1355    magn:    0.0267    constr:    0.0000
     atom:   16    charge:    9.1363    magn:    0.0317    constr:    0.0000
     atom:   17    charge:    9.1366    magn:    0.0318    constr:    0.0000
     atom:   18    charge:    9.1372    magn:    0.0298    constr:    0.0000
     atom:   19    charge:    9.1377    magn:    0.0372    constr:    0.0000
     atom:   20    charge:    9.1383    magn:   -0.0424    constr:    0.0000
     atom:   21    charge:    9.1379    magn:   -0.0348    constr:    0.0000
     atom:   22    charge:    9.1383    magn:   -0.0348    constr:    0.0000
     atom:   23    charge:    9.1389    magn:   -0.0423    constr:    0.0000
     atom:   24    charge:    9.1375    magn:    0.0373    constr:    0.0000

     total cpu time spent up to now is     1559.2 secs

     End of self-consistent calculation
 --- enter write_ns ---
 LDA+U parameters:
U(  1) =   3.1200   J(  1) =   0.7000   B(  1) =   0.0803
U(  2) =   3.1200   J(  2) =   0.7000   B(  2) =   0.0803
atom    1   Tr[ns(na)] (up, down, total) =   4.97353  0.72931  5.70284
   spin  1
    eigenvalues: 
  0.985  0.994  0.994  0.998  1.002
    eigenvectors:
  0.000  0.000  0.000  1.000  0.000
  0.000  0.309  0.691  0.000  0.000
  0.000  0.691  0.309  0.000  0.000
  0.000  0.000  0.000  0.000  1.000
  1.000  0.000  0.000  0.000  0.000
    occupations:
  0.998 -0.000 -0.000  0.000  0.000
 -0.000  0.994 -0.000  0.000  0.000
 -0.000 -0.000  0.994  0.000  0.000
  0.000  0.000  0.000  1.002 -0.000
  0.000  0.000  0.000 -0.000  0.985
   spin  2
    eigenvalues: 
  0.064  0.124  0.142  0.142  0.257
    eigenvectors:
  0.000  1.000  0.000  0.000  0.000
  0.000  0.000  0.317  0.683  0.000
  0.000  0.000  0.683  0.317  0.000
  1.000  0.000  0.000  0.000  0.000
  0.000  0.000  0.000  0.000  1.000
    occupations:
  0.124 -0.000 -0.000  0.000  0.000
 -0.000  0.142 -0.000  0.000  0.000
 -0.000 -0.000  0.142  0.000  0.000
  0.000  0.000  0.000  0.064 -0.000
  0.000  0.000  0.000 -0.000  0.257
atomic mag. moment =     4.244217
atom    2   Tr[ns(na)] (up, down, total) =   4.97193  0.75420  5.72613
   spin  1
    eigenvalues: 
  0.985  0.994  0.994  0.997  1.002
    eigenvectors:
  0.000  0.000  0.000  1.000  0.000
  0.000  0.308  0.692  0.000  0.000
  0.000  0.692  0.308  0.000  0.000
  0.000  0.000  0.000  0.000  1.000
  1.000  0.000  0.000  0.000  0.000
    occupations:
  0.997 -0.000 -0.000  0.000  0.000
 -0.000  0.994 -0.000  0.000  0.000
 -0.000 -0.000  0.994  0.000  0.000
  0.000  0.000  0.000  1.002 -0.000
  0.000  0.000  0.000 -0.000  0.985
   spin  2
    eigenvalues: 
  0.064  0.138  0.141  0.141  0.270
    eigenvectors:
  0.000  1.000  0.000  0.000  0.000
  0.000  0.000  0.292  0.708  0.000
  0.000  0.000  0.708  0.292  0.000
  1.000  0.000  0.000  0.000  0.000
  0.000  0.000  0.000  0.000  1.000
    occupations:
  0.138 -0.000 -0.000  0.000  0.000
 -0.000  0.141 -0.000  0.000  0.000
 -0.000 -0.000  0.141  0.000  0.000
  0.000  0.000  0.000  0.064 -0.000
  0.000  0.000  0.000 -0.000  0.270
atomic mag. moment =     4.217726
atom    3   Tr[ns(na)] (up, down, total) =   4.97190  0.75499  5.72689
   spin  1
    eigenvalues: 
  0.985  0.993  0.993  0.998  1.002
    eigenvectors:
  0.000  0.000  0.000  1.000  0.000
  0.000  0.305  0.695  0.000  0.000
  0.000  0.695  0.305  0.000  0.000
  0.000  0.000  0.000  0.000  1.000
  1.000  0.000  0.000  0.000  0.000
    occupations:
  0.998 -0.000 -0.000  0.000  0.000
 -0.000  0.993 -0.000  0.000  0.000
 -0.000 -0.000  0.993  0.000  0.000
  0.000  0.000  0.000  1.002 -0.000
  0.000  0.000  0.000 -0.000  0.985
   spin  2
    eigenvalues: 
  0.064  0.141  0.142  0.142  0.267
    eigenvectors:
  0.000  1.000  0.000  0.000  0.000
  0.000  0.000  0.321  0.679  0.000
  0.000  0.000  0.679  0.321  0.000
  1.000  0.000  0.000  0.000  0.000
  0.000  0.000  0.000  0.000  1.000
    occupations:
  0.141 -0.000 -0.000  0.000  0.000
 -0.000  0.142 -0.000  0.000  0.000
 -0.000 -0.000  0.142  0.000  0.000
  0.000  0.000  0.000  0.064 -0.000
  0.000  0.000  0.000 -0.000  0.267
atomic mag. moment =     4.216912
atom    4   Tr[ns(na)] (up, down, total) =   4.97174  0.75555  5.72729
   spin  1
    eigenvalues: 
  0.985  0.993  0.993  0.998  1.002
    eigenvectors:
  0.000  0.000  0.000  1.000  0.000
  0.000  0.260  0.740  0.000  0.000
  0.000  0.740  0.260  0.000  0.000
  0.000  0.000  0.000  0.000  1.000
  1.000  0.000  0.000  0.000  0.000
    occupations:
  0.998 -0.000 -0.000  0.000  0.000
 -0.000  0.993 -0.000  0.000  0.000
 -0.000 -0.000  0.993  0.000  0.000
  0.000  0.000  0.000  1.002 -0.000
  0.000  0.000  0.000 -0.000  0.985
   spin  2
    eigenvalues: 
  0.064  0.141  0.141  0.141  0.269
    eigenvectors:
  0.000  1.000  0.000  0.000  0.000
  0.000  0.000  0.315  0.685  0.000
  0.000  0.000  0.685  0.315  0.000
  1.000  0.000  0.000  0.000  0.000
  0.000  0.000  0.000  0.000  1.000
    occupations:
  0.141 -0.000 -0.000  0.000  0.000
 -0.000  0.141 -0.000  0.000  0.000
 -0.000 -0.000  0.141  0.000  0.000
  0.000  0.000  0.000  0.064 -0.000
  0.000  0.000  0.000 -0.000  0.269
atomic mag. moment =     4.216189
atom    5   Tr[ns(na)] (up, down, total) =   4.97211  0.75371  5.72582
   spin  1
    eigenvalues: 
  0.985  0.994  0.994  0.997  1.002
    eigenvectors:
  0.000  0.000  0.000  1.000  0.000
  0.000  0.351  0.649  0.000  0.000
  0.000  0.649  0.351  0.000  0.000
  0.000  0.000  0.000  0.000  1.000
  1.000  0.000  0.000  0.000  0.000
    occupations:
  0.997 -0.000 -0.000  0.000  0.000
 -0.000  0.994 -0.000  0.000  0.000
 -0.000 -0.000  0.994  0.000  0.000
  0.000  0.000  0.000  1.002 -0.000
  0.000  0.000  0.000 -0.000  0.985
   spin  2
    eigenvalues: 
  0.064  0.138  0.142  0.142  0.268
    eigenvectors:
  0.000  1.000  0.000  0.000  0.000
  0.000  0.000  0.383  0.617  0.000
  0.000  0.000  0.617  0.383  0.000
  1.000  0.000  0.000  0.000  0.000
  0.000  0.000  0.000  0.000  1.000
    occupations:
  0.138 -0.000 -0.000  0.000  0.000
 -0.000  0.142 -0.000  0.000  0.000
 -0.000 -0.000  0.142  0.000  0.000
  0.000  0.000  0.000  0.064 -0.000
  0.000  0.000  0.000 -0.000  0.268
atomic mag. moment =     4.218395
atom    6   Tr[ns(na)] (up, down, total) =   4.97348  0.72944  5.70291
   spin  1
    eigenvalues: 
  0.985  0.994  0.994  0.998  1.002
    eigenvectors:
  0.000  0.000  0.000  1.000  0.000
  0.000  0.313  0.687  0.000  0.000
  0.000  0.687  0.313  0.000  0.000
  0.000  0.000  0.000  0.000  1.000
  1.000  0.000  0.000  0.000  0.000
    occupations:
  0.998 -0.000 -0.000  0.000  0.000
 -0.000  0.994 -0.000  0.000  0.000
 -0.000 -0.000  0.994  0.000  0.000
  0.000  0.000  0.000  1.002 -0.000
  0.000  0.000  0.000 -0.000  0.985
   spin  2
    eigenvalues: 
  0.064  0.124  0.142  0.142  0.258
    eigenvectors:
  0.000  1.000  0.000  0.000  0.000
  0.000  0.000  0.337  0.663  0.000
  0.000  0.000  0.663  0.337  0.000
  1.000  0.000  0.000  0.000  0.000
  0.000  0.000  0.000  0.000  1.000
    occupations:
  0.124 -0.000 -0.000  0.000  0.000
 -0.000  0.142 -0.000  0.000  0.000
 -0.000 -0.000  0.142  0.000  0.000
  0.000  0.000  0.000  0.064 -0.000
  0.000  0.000  0.000 -0.000  0.258
atomic mag. moment =     4.244042
atom    7   Tr[ns(na)] (up, down, total) =   0.72818  4.97403  5.70221
   spin  1
    eigenvalues: 
  0.064  0.127  0.140  0.140  0.257
    eigenvectors:
  0.000  1.000  0.000  0.000  0.000
  0.000  0.000  0.350  0.650  0.000
  0.000  0.000  0.650  0.350  0.000
  1.000  0.000  0.000  0.000  0.000
  0.000  0.000  0.000  0.000  1.000
    occupations:
  0.127 -0.000 -0.000  0.000  0.000
 -0.000  0.140 -0.000  0.000  0.000
 -0.000 -0.000  0.140  0.000  0.000
  0.000  0.000  0.000  0.064 -0.000
  0.000  0.000  0.000 -0.000  0.257
   spin  2
    eigenvalues: 
  0.985  0.994  0.994  0.998  1.002
    eigenvectors:
  0.000  0.000  0.000  1.000  0.000
  0.000  0.275  0.725  0.000  0.000
  0.000  0.725  0.275  0.000  0.000
  0.000  0.000  0.000  0.000  1.000
  1.000  0.000  0.000  0.000  0.000
    occupations:
  0.998 -0.000 -0.000  0.000  0.000
 -0.000  0.994 -0.000  0.000  0.000
 -0.000 -0.000  0.994  0.000  0.000
  0.000  0.000  0.000  1.002 -0.000
  0.000  0.000  0.000 -0.000  0.985
atomic mag. moment =    -4.245851
atom    8   Tr[ns(na)] (up, down, total) =   0.72756  4.97416  5.70172
   spin  1
    eigenvalues: 
  0.064  0.127  0.141  0.141  0.255
    eigenvectors:
  0.000  1.000  0.000  0.000  0.000
  0.000  0.000  0.243  0.757  0.000
  0.000  0.000  0.757  0.243  0.000
  1.000  0.000  0.000  0.000  0.000
  0.000  0.000  0.000  0.000  1.000
    occupations:
  0.127 -0.000 -0.000  0.000  0.000
 -0.000  0.141 -0.000  0.000  0.000
 -0.000 -0.000  0.141  0.000  0.000
  0.000  0.000  0.000  0.064 -0.000
  0.000  0.000  0.000 -0.000  0.255
   spin  2
    eigenvalues: 
  0.986  0.994  0.994  0.998  1.002
    eigenvectors:
  0.000  0.000  0.000  1.000  0.000
  0.000  0.309  0.691  0.000  0.000
  0.000  0.691  0.309  0.000  0.000
  0.000  0.000  0.000  0.000  1.000
  1.000  0.000  0.000  0.000  0.000
    occupations:
  0.998 -0.000 -0.000  0.000  0.000
 -0.000  0.994 -0.000  0.000  0.000
 -0.000 -0.000  0.994  0.000  0.000
  0.000  0.000  0.000  1.002 -0.000
  0.000  0.000  0.000 -0.000  0.986
atomic mag. moment =    -4.246593
N of occupied +U levels =   45.715819
 --- exit write_ns ---

 ------ SPIN UP ------------


          k = 0.0000 0.0000 0.0000 ( 14071 PWs)   bands (ev):

   -67.0217 -67.0209 -66.9142 -66.9138 -66.8925 -66.8919 -62.4604 -62.4586
   -35.7985 -35.7982 -35.7347 -35.7347 -35.7334 -35.7334 -35.6959 -35.6951
   -35.6711 -35.6699 -35.6272 -35.6272 -35.6262 -35.6262 -35.6077 -35.6077
   -35.6062 -35.6062 -31.2840 -31.2828 -31.2786 -31.2786 -31.2766 -31.2766
     5.5796   5.7001   5.7627   6.1521   6.1706   6.7794   6.8389   7.3944
     7.9847   8.1722   8.1875   8.2151   8.2593   8.3090   8.3755   8.4513
     8.5366   8.5879   8.5936   8.6248   8.7922   8.8446   8.9275   8.9760
     8.9877   9.1577   9.1993   9.2000   9.3205   9.3445   9.4245   9.6112
     9.6595   9.7040   9.7329   9.8076   9.8727   9.9214   9.9233   9.9233
     9.9787   9.9787   9.9924   9.9924  10.0432  10.0612  10.1385  10.1385
    10.1434  10.1434  10.1767  10.2368  10.3046  10.3216  10.3216  10.3236
    10.3236  10.3677  10.3677  10.3815  10.3815  10.3983  10.3983  10.4223
    10.4338  10.4338  10.4578  10.5058  10.5058  10.5305  10.5305  10.6170
    10.7215  10.7270  10.8123  10.8123  10.8427  10.8595  10.8595  10.9655
    11.0067  11.0591  11.0650  11.1972  11.2543  11.2719  11.2719  11.3034
    11.3254  11.3254  11.3655  11.4436  11.5194  11.5865  11.6089  11.6594
    11.6594  11.7512  11.7639  11.7889  11.8212  11.8305  11.8305  11.8624
    11.9393  11.9626  12.1197  12.1197  12.2076  12.3454  12.3454  12.3699
    12.5144  12.5169  12.5241  12.5241  12.6457  12.7492  12.7821  12.8217
    12.8895  13.5270  13.7176  14.6462  15.0948  16.1204  16.5293  16.5293
    16.6538  16.7071  16.8074  16.8097  16.8097  16.8566  17.0179  17.1816
    17.6993  18.8277  19.1178  19.8492  19.8492  20.1681  20.1681  20.2564
    20.2564  20.9099

          k = 0.0000 0.0000 0.0159 ( 14107 PWs)   bands (ev):

   -67.0217 -67.0209 -66.9142 -66.9138 -66.8925 -66.8919 -62.4604 -62.4586
   -35.7985 -35.7982 -35.7347 -35.7347 -35.7334 -35.7334 -35.6959 -35.6951
   -35.6711 -35.6699 -35.6272 -35.6272 -35.6262 -35.6262 -35.6077 -35.6077
   -35.6062 -35.6062 -31.2840 -31.2828 -31.2786 -31.2786 -31.2766 -31.2766
     5.5832   5.6786   5.7918   6.0739   6.2558   6.6868   6.9332   7.3625
     8.0149   8.1722   8.1886   8.2150   8.2571   8.3093   8.3780   8.4508
     8.4613   8.5747   8.6261   8.6616   8.8124   8.8386   8.9278   8.9355
     9.0345   9.1508   9.1746   9.1958   9.3267   9.3553   9.4256   9.6067
     9.6589   9.7040   9.7328   9.8077   9.8773   9.9211   9.9240   9.9240
     9.9699   9.9699  10.0047  10.0047  10.0431  10.0620  10.1079  10.1079
    10.1709  10.1767  10.1767  10.2326  10.3106  10.3189  10.3189  10.3221
    10.3221  10.3466  10.3466  10.3803  10.3803  10.4187  10.4187  10.4308
    10.4338  10.4338  10.4533  10.4941  10.4941  10.5495  10.5495  10.6203
    10.6809  10.7670  10.7689  10.7689  10.8401  10.9048  10.9048  10.9600
    11.0060  11.0616  11.0665  11.1954  11.2220  11.2220  11.2561  11.3003
    11.3674  11.3764  11.3764  11.4424  11.5239  11.5850  11.6095  11.6379
    11.6379  11.7434  11.7510  11.8100  11.8218  11.8434  11.8434  11.8625
    11.9393  11.9586  12.1159  12.1159  12.2087  12.3467  12.3467  12.3691
    12.5173  12.5223  12.5238  12.5238  12.6455  12.7346  12.7492  12.8217
    12.9506  13.4416  13.8077  14.5723  15.1675  16.0751  16.5293  16.5293
    16.6538  16.7071  16.8074  16.8097  16.8097  16.8566  17.0432  17.1814
    17.7228  18.6672  19.3044  19.8585  19.8585  20.1006  20.1006  20.3407
    20.3407  20.5855

          k = 0.0000 0.0000 0.0319 ( 14080 PWs)   bands (ev):

   -67.0217 -67.0209 -66.9142 -66.9138 -66.8925 -66.8919 -62.4604 -62.4586
   -35.7985 -35.7982 -35.7347 -35.7347 -35.7334 -35.7334 -35.6959 -35.6951
   -35.6711 -35.6699 -35.6272 -35.6272 -35.6262 -35.6262 -35.6077 -35.6077
   -35.6062 -35.6062 -31.2840 -31.2828 -31.2786 -31.2786 -31.2766 -31.2766
     5.5934   5.6484   5.8444   5.9958   6.3555   6.5735   7.0502   7.2833
     8.0853   8.1723   8.1929   8.2147   8.2526   8.3098   8.3457   8.3992
     8.4498   8.5576   8.6286   8.7336   8.8287   8.8384   8.8919   8.9502
     9.0785   9.1353   9.1372   9.1737   9.3384   9.3726   9.4276   9.5978
     9.6579   9.7041   9.7326   9.8081   9.8865   9.9204   9.9257   9.9257
     9.9606   9.9606  10.0247  10.0247  10.0430  10.0637  10.0783  10.0783
    10.1595  10.2147  10.2147  10.2255  10.2932  10.2932  10.3219  10.3219
    10.3220  10.3331  10.3331  10.3801  10.3801  10.4337  10.4337  10.4422
    10.4422  10.4441  10.4491  10.4786  10.4786  10.5833  10.5833  10.6268
    10.6450  10.7148  10.7148  10.8016  10.8349  10.9475  10.9639  10.9639
    11.0048  11.0667  11.0695  11.1589  11.1589  11.1916  11.2596  11.2943
    11.3712  11.4401  11.4446  11.4446  11.5332  11.5822  11.5890  11.5890
    11.6107  11.7206  11.7505  11.8229  11.8346  11.8626  11.8654  11.8654
    11.9393  11.9495  12.1078  12.1078  12.2111  12.3491  12.3491  12.3676
    12.5181  12.5234  12.5234  12.5437  12.6452  12.6715  12.7493  12.8217
    13.0561  13.3088  13.9460  14.4350  15.2956  15.9782  16.5293  16.5293
    16.6538  16.7071  16.8074  16.8097  16.8097  16.8566  17.0886  17.1809
    17.7835  18.4652  19.5990  19.8846  19.8846  20.0213  20.0213  20.2549
    20.4711  20.4711

          k = 0.0000 0.0000-0.0478 ( 14088 PWs)   bands (ev):

   -67.0217 -67.0209 -66.9142 -66.9138 -66.8925 -66.8919 -62.4604 -62.4586
   -35.7985 -35.7982 -35.7347 -35.7347 -35.7334 -35.7334 -35.6959 -35.6951
   -35.6711 -35.6699 -35.6272 -35.6272 -35.6262 -35.6262 -35.6077 -35.6077
   -35.6062 -35.6062 -31.2840 -31.2828 -31.2786 -31.2786 -31.2766 -31.2766
     5.6028   5.6318   5.8866   5.9456   6.4491   6.4750   7.1385   7.2054
     8.1335   8.1724   8.2039   8.2146   8.2499   8.2837   8.3100   8.3998
     8.4493   8.5494   8.6299   8.7909   8.8003   8.8243   8.9041   8.9572
     9.0885   9.1303   9.1340   9.1486   9.3441   9.3799   9.4285   9.5932
     9.6573   9.7041   9.7325   9.8083   9.8912   9.9201   9.9268   9.9268
     9.9569   9.9569  10.0423  10.0423  10.0430  10.0576  10.0576  10.0646
    10.1539  10.2223  10.2536  10.2536  10.2550  10.2550  10.3219  10.3219
    10.3277  10.3315  10.3315  10.3801  10.3801  10.4338  10.4338  10.4392
    10.4568  10.4568  10.4591  10.4667  10.4667  10.6069  10.6069  10.6297
    10.6300  10.6845  10.6845  10.8163  10.8323  10.9401  10.9967  10.9967
    11.0043  11.0693  11.0709  11.1248  11.1248  11.1897  11.2613  11.2913
    11.3730  11.4389  11.4920  11.4920  11.5381  11.5471  11.5471  11.5807
    11.6112  11.7114  11.7502  11.8235  11.8452  11.8627  11.8753  11.8753
    11.9393  11.9441  12.1036  12.1036  12.2123  12.3503  12.3503  12.3668
    12.5184  12.5231  12.5231  12.5616  12.6388  12.6451  12.7494  12.8217
    13.1646  13.1905  14.0243  14.3545  15.3611  15.9227  16.5293  16.5293
    16.6538  16.7071  16.8074  16.8097  16.8097  16.8566  17.1091  17.1804
    17.8251  18.3734  19.8640  19.9092  19.9092  19.9784  19.9784  19.9802
    20.5897  20.5897

          k = 0.0000 0.1667 0.0000 ( 14044 PWs)   bands (ev):

   -67.0213 -67.0205 -66.9138 -66.9134 -66.8921 -66.8915 -62.4603 -62.4586
   -35.7982 -35.7979 -35.7378 -35.7364 -35.7346 -35.7332 -35.6956 -35.6949
   -35.6709 -35.6696 -35.6302 -35.6292 -35.6270 -35.6260 -35.6107 -35.6092
   -35.6075 -35.6060 -31.2836 -31.2824 -31.2823 -31.2803 -31.2784 -31.2763
     6.0082   6.1221   6.1809   6.5419   6.5606   7.1128   7.1439   7.6171
     8.0201   8.3495   8.3819   8.4072   8.4280   8.4343   8.4515   8.5109
     8.5587   8.6131   8.7042   8.7514   8.7794   8.8134   8.8619   8.9584
     8.9586   8.9816   9.0494   9.2044   9.2666   9.3606   9.4824   9.5054
     9.5294   9.5616   9.6027   9.6520   9.6652   9.6708   9.7071   9.7230
     9.7232   9.7554   9.7573   9.8560   9.8890   9.9434  10.0203  10.0500
    10.0767  10.1117  10.1756  10.2124  10.2212  10.2844  10.2946  10.3252
    10.3820  10.3822  10.3961  10.4597  10.4680  10.5042  10.5193  10.6017
    10.6178  10.6572  10.6848  10.7448  10.7885  10.8069  10.8263  10.9347
    10.9357  10.9436  10.9805  11.0146  11.0190  11.0485  11.0512  11.1189
    11.1235  11.1502  11.1554  11.2054  11.2518  11.2675  11.2995  11.3976
    11.4058  11.4269  11.4703  11.4730  11.5385  11.5861  11.5932  11.6310
    11.6774  11.7351  11.7592  11.7630  11.7821  11.8382  11.8854  11.8946
    11.9097  11.9424  12.0665  12.0907  12.1570  12.2242  12.3145  12.3353
    12.4268  12.4613  12.5275  12.6421  12.6447  12.7311  12.7414  12.7427
    12.8432  13.6428  13.7929  14.8793  15.3012  16.1480  16.3806  16.5377
    16.5738  16.6297  16.7108  16.7650  16.8368  16.9841  17.1158  17.5532
    17.5950  17.8450  17.9588  18.0536  18.7262  18.7812  19.4106  19.5900
    19.7491  19.7614

          k = 0.0000 0.1667 0.0159 ( 14046 PWs)   bands (ev):

   -67.0213 -67.0205 -66.9138 -66.9134 -66.8921 -66.8915 -62.4603 -62.4586
   -35.7982 -35.7979 -35.7378 -35.7364 -35.7346 -35.7332 -35.6956 -35.6949
   -35.6709 -35.6696 -35.6302 -35.6292 -35.6270 -35.6260 -35.6107 -35.6092
   -35.6075 -35.6060 -31.2836 -31.2824 -31.2823 -31.2803 -31.2784 -31.2763
     6.0116   6.1018   6.2083   6.4707   6.6377   7.0238   7.2334   7.5899
     8.0432   8.3306   8.3607   8.4073   8.4161   8.4428   8.4833   8.5156
     8.5641   8.6125   8.6912   8.7409   8.7942   8.8102   8.8622   8.9462
     8.9662   8.9931   9.0498   9.1795   9.2904   9.3624   9.4827   9.5045
     9.5106   9.5630   9.6176   9.6496   9.6652   9.6711   9.7068   9.7216
     9.7241   9.7553   9.7588   9.8564   9.8855   9.9453  10.0070  10.0532
    10.0788  10.1270  10.1771  10.2125  10.2193  10.2752  10.3021  10.3263
    10.3509  10.3832  10.3946  10.4683  10.4931  10.5048  10.5191  10.6013
    10.6178  10.6550  10.6844  10.7494  10.7799  10.7893  10.8260  10.9275
    10.9319  10.9612  10.9932  11.0133  11.0244  11.0489  11.0525  11.1197
    11.1241  11.1449  11.1644  11.1842  11.2526  11.2777  11.3116  11.3593
    11.3986  11.4324  11.4699  11.5119  11.5345  11.5505  11.6167  11.6345
    11.6941  11.7355  11.7371  11.7631  11.7872  11.8383  11.8787  11.8943
    11.8982  11.9533  12.0723  12.0931  12.1553  12.2233  12.3144  12.3323
    12.4365  12.4634  12.5275  12.6416  12.6447  12.6702  12.7415  12.7428
    12.9200  13.5196  13.9223  14.7864  15.3896  16.1063  16.3994  16.5318
    16.5738  16.6299  16.7108  16.7641  16.8368  16.9841  17.1228  17.4906
    17.5983  17.8387  18.0328  18.1053  18.6050  18.9101  19.1724  19.5742
    19.8458  19.9334

          k = 0.0000 0.1667 0.0319 ( 14043 PWs)   bands (ev):

   -67.0213 -67.0205 -66.9138 -66.9134 -66.8921 -66.8915 -62.4603 -62.4586
   -35.7982 -35.7979 -35.7377 -35.7364 -35.7346 -35.7332 -35.6956 -35.6949
   -35.6709 -35.6696 -35.6302 -35.6292 -35.6270 -35.6260 -35.6107 -35.6092
   -35.6075 -35.6060 -31.2836 -31.2824 -31.2823 -31.2803 -31.2784 -31.2763
     6.0213   6.0733   6.2576   6.3986   6.7283   6.9228   7.3351   7.5222
     8.0968   8.2678   8.3593   8.4074   8.4099   8.4423   8.5040   8.5468
     8.5761   8.6113   8.6605   8.7365   8.7788   8.8319   8.8674   8.9270
     8.9708   9.0198   9.0499   9.1420   9.3213   9.3707   9.4770   9.4836
     9.5025   9.5660   9.6399   9.6450   9.6652   9.6715   9.7064   9.7180
     9.7255   9.7552   9.7617   9.8572   9.8787   9.9517   9.9843  10.0594
    10.0802  10.1590  10.1810  10.2115  10.2154  10.2652  10.3053  10.3085
    10.3290  10.3851  10.3913  10.4688  10.5063  10.5185  10.5457  10.5986
    10.6186  10.6510  10.6814  10.7362  10.7591  10.7878  10.8254  10.9065
    10.9329  10.9952  11.0028  11.0113  11.0369  11.0476  11.0623  11.1215
    11.1248  11.1447  11.1515  11.1764  11.2504  11.2827  11.3039  11.3487
    11.4005  11.4305  11.4524  11.5112  11.5400  11.5761  11.6252  11.6421
    11.6949  11.7209  11.7435  11.7649  11.7815  11.8383  11.8703  11.8761
    11.8948  11.9671  12.0831  12.1003  12.1501  12.2213  12.3155  12.3257
    12.4646  12.4676  12.5275  12.5909  12.6407  12.6446  12.7417  12.7428
    13.0481  13.3530  14.0996  14.6174  15.5426  16.0132  16.4331  16.5164
    16.5738  16.6303  16.7108  16.7625  16.8368  16.9841  17.1401  17.3996
    17.6112  17.7978  18.1835  18.2443  18.4723  18.8869  19.0692  19.4028
    20.0960  20.1885

          k = 0.0000 0.1667-0.0478 ( 14036 PWs)   bands (ev):

   -67.0213 -67.0205 -66.9138 -66.9134 -66.8921 -66.8915 -62.4603 -62.4586
   -35.7982 -35.7979 -35.7377 -35.7364 -35.7346 -35.7332 -35.6956 -35.6949
   -35.6709 -35.6696 -35.6302 -35.6292 -35.6270 -35.6260 -35.6107 -35.6092
   -35.6075 -35.6060 -31.2836 -31.2824 -31.2823 -31.2803 -31.2784 -31.2763
     6.0303   6.0575   6.2970   6.3520   6.8162   6.8313   7.4258   7.4411
     8.1382   8.2237   8.3602   8.4071   8.4074   8.4420   8.5063   8.5751
     8.5788   8.6132   8.6383   8.7361   8.7686   8.8404   8.8778   8.9124
     8.9721   9.0409   9.0459   9.1221   9.3322   9.3812   9.4574   9.4841
     9.5016   9.5675   9.6427   9.6499   9.6652   9.6716   9.7063   9.7155
     9.7261   9.7552   9.7631   9.8577   9.8753   9.9613   9.9680  10.0624
    10.0805  10.1786  10.1839  10.2087  10.2146  10.2615  10.2813  10.3104
    10.3307  10.3861  10.3896  10.4690  10.5072  10.5181  10.5851  10.5855
    10.6203  10.6492  10.6747  10.7155  10.7642  10.7874  10.8250  10.8978
    10.9335  11.0051  11.0094  11.0102  11.0437  11.0445  11.0748  11.1196
    11.1271  11.1337  11.1473  11.1843  11.2490  11.2769  11.2833  11.3793
    11.4004  11.4283  11.4292  11.5034  11.5388  11.6270  11.6291  11.6463
    11.6496  11.7256  11.7541  11.7717  11.7758  11.8384  11.8518  11.8775
    11.8947  11.9717  12.0881  12.1059  12.1460  12.2202  12.3188  12.3197
    12.4696  12.4954  12.5274  12.5422  12.6402  12.6445  12.7417  12.7429
    13.1892  13.1988  14.2060  14.5108  15.6282  15.9501  16.4522  16.5043
    16.5738  16.6305  16.7108  16.7617  16.8368  16.9841  17.1515  17.3605
    17.6196  17.7772  18.2598  18.3849  18.3905  18.7146  19.2310  19.2367
    20.2355  20.3181

          k = 0.0000 0.3333 0.0000 ( 14062 PWs)   bands (ev):

   -67.0216 -67.0208 -66.9141 -66.9137 -66.8924 -66.8918 -62.4594 -62.4576
   -35.7977 -35.7973 -35.7436 -35.7422 -35.7342 -35.7329 -35.6951 -35.6943
   -35.6703 -35.6691 -35.6360 -35.6350 -35.6267 -35.6256 -35.6165 -35.6150
   -35.6072 -35.6057 -31.2898 -31.2878 -31.2828 -31.2816 -31.2779 -31.2759
     7.1463   7.2340   7.2782   7.5192   7.5300   7.7859   7.8031   7.9497
     7.9883   8.0858   8.0898   8.2347   8.2552   8.4260   8.4651   8.6572
     8.6722   8.7110   8.8126   8.8204   8.8530   8.9204   8.9294   8.9606
     8.9939   9.0870   9.0915   9.1163   9.1422   9.2085   9.2473   9.2516
     9.3341   9.3475   9.3483   9.3799   9.4858   9.5454   9.5912   9.6394
     9.7389   9.7633   9.7866   9.7873   9.8631   9.8802   9.8939  10.0504
    10.1913  10.1939  10.2250  10.2728  10.3054  10.3110  10.3929  10.3958
    10.4766  10.6351  10.6392  10.6878  10.7264  10.7976  10.8197  10.9019
    10.9611  10.9751  10.9975  11.0634  11.1020  11.1371  11.1426  11.1664
    11.1677  11.1985  11.2354  11.2536  11.2738  11.2835  11.2927  11.3071
    11.3302  11.3546  11.3828  11.4416  11.4440  11.4525  11.5253  11.5386
    11.5426  11.5674  11.5732  11.6628  11.6730  11.7285  11.7365  11.7553
    11.7834  11.7922  11.7963  11.8242  11.8354  11.8655  11.9128  11.9245
    11.9671  12.0557  12.1822  12.1970  12.1974  12.2407  12.3935  12.4257
    12.5283  12.5775  12.6237  12.6594  12.6908  12.7066  12.7607  12.7973
    12.8349  13.8490  13.8920  14.3831  14.6161  14.6639  14.9477  15.0249
    15.3006  15.4273  15.7944  16.0135  16.2014  16.4361  16.4497  16.5874
    16.6421  16.8330  16.8961  17.1576  17.1741  17.1840  17.6601  17.9120
    18.7982  19.1712

          k = 0.0000 0.3333 0.0159 ( 14056 PWs)   bands (ev):

   -67.0216 -67.0208 -66.9141 -66.9137 -66.8924 -66.8918 -62.4594 -62.4576
   -35.7977 -35.7973 -35.7436 -35.7422 -35.7342 -35.7329 -35.6951 -35.6943
   -35.6703 -35.6691 -35.6360 -35.6350 -35.6267 -35.6256 -35.6165 -35.6150
   -35.6072 -35.6057 -31.2898 -31.2878 -31.2828 -31.2816 -31.2779 -31.2759
     7.1490   7.2186   7.2981   7.4755   7.5742   7.7557   7.8287   7.9418
     7.9958   8.0666   8.1104   8.2140   8.2767   8.4075   8.4830   8.6332
     8.6959   8.7135   8.8029   8.8120   8.8593   8.9191   8.9390   8.9615
     8.9959   9.0870   9.0916   9.1163   9.1417   9.2093   9.2206   9.2515
     9.3235   9.3462   9.3799   9.3922   9.4882   9.5455   9.5894   9.6358
     9.7356   9.7396   9.7583   9.7974   9.8723   9.8984   9.9157  10.0503
    10.1905  10.1950  10.2211  10.2549  10.2860  10.3101  10.4046  10.4237
    10.4757  10.6130  10.6249  10.7082  10.7366  10.8118  10.8222  10.9049
    10.9284  10.9964  11.0134  11.0595  11.0915  11.1143  11.1370  11.1485
    11.1686  11.2008  11.2075  11.2495  11.2862  11.2884  11.3073  11.3177
    11.3326  11.3725  11.3933  11.4321  11.4380  11.4562  11.5110  11.5487
    11.5509  11.5577  11.5991  11.6621  11.6723  11.7232  11.7336  11.7367
    11.7855  11.7978  11.8111  11.8200  11.8359  11.8655  11.9215  11.9225
    11.9604  12.0550  12.1735  12.1894  12.2130  12.2489  12.3909  12.4239
    12.4906  12.5306  12.5776  12.6585  12.7066  12.7610  12.7973  12.8348
    12.8439  13.6613  14.0739  14.3925  14.5555  14.7326  14.8326  15.1090
    15.2454  15.4971  15.7645  16.0047  16.1954  16.4361  16.4597  16.5917
    16.6421  16.8283  16.9080  17.1539  17.1741  17.1840  17.6595  17.9090
    18.7997  19.1177

          k = 0.0000 0.3333 0.0319 ( 14062 PWs)   bands (ev):

   -67.0216 -67.0208 -66.9141 -66.9137 -66.8924 -66.8918 -62.4594 -62.4576
   -35.7977 -35.7973 -35.7436 -35.7422 -35.7342 -35.7329 -35.6951 -35.6943
   -35.6703 -35.6691 -35.6360 -35.6350 -35.6267 -35.6256 -35.6165 -35.6150
   -35.6072 -35.6057 -31.2898 -31.2878 -31.2828 -31.2816 -31.2779 -31.2759
     7.1567   7.1968   7.3335   7.4292   7.6228   7.7147   7.8549   7.9270
     8.0109   8.0469   8.1341   8.1868   8.3053   8.3787   8.5091   8.6060
     8.7160   8.7272   8.7826   8.7970   8.8689   8.9164   8.9521   8.9657
     9.0032   9.0870   9.0917   9.1163   9.1409   9.1792   9.2110   9.2511
     9.3209   9.3438   9.3801   9.4573   9.4932   9.5455   9.5791   9.6288
     9.6710   9.7405   9.7534   9.8161   9.8575   9.9032   9.9886  10.0501
    10.1783  10.1973  10.2097  10.2140  10.2817  10.3045  10.4235  10.4667
    10.4777  10.5808  10.5979  10.7142  10.7801  10.8286  10.8381  10.9059
    10.9111  10.9930  11.0211  11.0606  11.0642  11.0721  11.1368  11.1413
    11.1610  11.1775  11.2049  11.2492  11.2879  11.3073  11.3138  11.3259
    11.3509  11.3884  11.4094  11.4187  11.4236  11.4716  11.4858  11.5490
    11.5719  11.5805  11.6259  11.6603  11.6707  11.7031  11.7111  11.7366
    11.7859  11.8030  11.8137  11.8322  11.8461  11.8655  11.9182  11.9377
    11.9406  12.0531  12.1536  12.2142  12.2175  12.2656  12.3594  12.3844
    12.4210  12.5350  12.5778  12.6566  12.7066  12.7616  12.7973  12.8347
    13.0384  13.4521  14.2621  14.4234  14.4861  14.6664  14.8396  15.0670
    15.2882  15.5716  15.7204  15.9614  16.1984  16.4361  16.4723  16.6018
    16.6421  16.8212  16.9313  17.1452  17.1742  17.1840  17.6585  17.9027
    18.8055  19.0447

          k = 0.0000 0.3333-0.0478 ( 14060 PWs)   bands (ev):

   -67.0216 -67.0208 -66.9141 -66.9137 -66.8924 -66.8918 -62.4594 -62.4576
   -35.7977 -35.7973 -35.7436 -35.7422 -35.7342 -35.7329 -35.6951 -35.6943
   -35.6703 -35.6691 -35.6360 -35.6350 -35.6267 -35.6256 -35.6165 -35.6150
   -35.6072 -35.6057 -31.2898 -31.2878 -31.2828 -31.2816 -31.2779 -31.2759
     7.1638   7.1846   7.3614   7.3979   7.6679   7.6721   7.8673   7.9181
     8.0274   8.0292   8.1556   8.1641   8.3240   8.3598   8.5229   8.5921
     8.7197   8.7473   8.7643   8.7899   8.8730   8.9149   8.9551   8.9693
     9.0099   9.0870   9.0918   9.1163   9.1405   9.1600   9.2118   9.2509
     9.3204   9.3426   9.3801   9.4958   9.5039   9.5456   9.5565   9.6253
     9.6439   9.7404   9.7522   9.8308   9.8445   9.9050  10.0305  10.0500
    10.1490  10.1987  10.2008  10.2107  10.2814  10.3014  10.4341  10.4714
    10.4986  10.5608  10.5842  10.7140  10.8123  10.8228  10.8513  10.9140
    10.9184  10.9661  10.9904  11.0579  11.0630  11.1030  11.1120  11.1367
    11.1541  11.1723  11.2068  11.2505  11.2872  11.3076  11.3225  11.3322
    11.3680  11.3885  11.3909  11.4171  11.4388  11.4609  11.4830  11.5517
    11.5819  11.5984  11.6383  11.6582  11.6697  11.6865  11.7041  11.7365
    11.7860  11.8063  11.8113  11.8339  11.8651  11.8658  11.9165  11.9220
    11.9456  12.0518  12.1458  12.2183  12.2604  12.2737  12.2740  12.3803
    12.4200  12.5371  12.5779  12.6556  12.7066  12.7619  12.7973  12.8347
    13.2269  13.2590  14.3896  14.4208  14.4939  14.5316  14.9248  14.9798
    15.3398  15.5743  15.7263  15.9253  16.2042  16.4361  16.4758  16.6073
    16.6421  16.8183  16.9433  17.1400  17.1741  17.1840  17.6581  17.8994
    18.8103  19.0138

          k = 0.0000-0.5000 0.0000 ( 14098 PWs)   bands (ev):

   -67.0223 -67.0215 -66.9148 -66.9144 -66.8931 -66.8925 -62.4584 -62.4566
   -35.7974 -35.7970 -35.7464 -35.7450 -35.7341 -35.7327 -35.6948 -35.6940
   -35.6700 -35.6688 -35.6388 -35.6378 -35.6265 -35.6255 -35.6193 -35.6178
   -35.6070 -35.6055 -31.2936 -31.2916 -31.2824 -31.2812 -31.2776 -31.2756
     7.9083   7.9092   7.9362   7.9369   7.9946   7.9951   8.0967   8.0973
     8.2181   8.2185   8.2546   8.2550   8.3162   8.3162   8.4723   8.4724
     8.5976   8.5979   8.7412   8.7415   8.8194   8.8196   8.9148   8.9159
     8.9608   8.9618   9.0610   9.0620   9.2050   9.2057   9.2982   9.2982
     9.3845   9.3853   9.5258   9.5260   9.5674   9.5680   9.5804   9.5807
     9.6242   9.6243   9.6867   9.6870   9.8229   9.8231   9.8682   9.8691
    10.1132  10.1148  10.1253  10.1262  10.3261  10.3276  10.3368  10.3375
    10.4876  10.4892  10.6811  10.6817  11.0310  11.0312  11.1009  11.1011
    11.1207  11.1210  11.1854  11.1859  11.2641  11.2650  11.2920  11.2922
    11.3076  11.3080  11.3166  11.3171  11.3865  11.3869  11.4634  11.4635
    11.5179  11.5180  11.5521  11.5527  11.5609  11.5611  11.6387  11.6391
    11.7153  11.7158  11.8685  11.8691  11.9746  11.9750  12.1213  12.1214
    12.1874  12.1880  12.2361  12.2367  12.2550  12.2553  12.3426  12.3428
    12.4023  12.4031  12.4359  12.4362  12.5493  12.5504  12.6243  12.6246
    12.6834  12.6842  12.6947  12.6947  12.7853  12.7862  12.8564  12.8576
    13.0371  13.0373  13.1594  13.1596  13.5625  13.5632  13.6014  13.6019
    14.1013  14.1027  14.1995  14.2005  14.5059  14.5074  16.3185  16.3198
    16.5048  16.5081  16.6633  16.6638  17.3006  17.3036  17.6996  17.7025
    18.9376  18.9377

          k = 0.0000-0.5000 0.0159 ( 14106 PWs)   bands (ev):

   -67.0223 -67.0215 -66.9148 -66.9144 -66.8931 -66.8925 -62.4584 -62.4566
   -35.7974 -35.7970 -35.7464 -35.7450 -35.7341 -35.7327 -35.6948 -35.6940
   -35.6700 -35.6688 -35.6388 -35.6378 -35.6265 -35.6255 -35.6193 -35.6178
   -35.6070 -35.6055 -31.2936 -31.2916 -31.2824 -31.2812 -31.2776 -31.2756
     7.9080   7.9089   7.9369   7.9376   7.9937   7.9943   8.0980   8.0986
     8.2133   8.2138   8.2605   8.2609   8.3141   8.3141   8.4717   8.4718
     8.6007   8.6010   8.7338   8.7341   8.8251   8.8254   8.9148   8.9159
     8.9608   8.9617   9.0611   9.0621   9.2049   9.2056   9.2972   9.2972
     9.3847   9.3855   9.5235   9.5238   9.5670   9.5675   9.5806   9.5810
     9.6244   9.6245   9.6873   9.6876   9.8225   9.8228   9.8794   9.8802
    10.1084  10.1094  10.1133  10.1149  10.3260  10.3276  10.3428  10.3435
    10.4876  10.4892  10.6880  10.6886  11.0246  11.0248  11.1009  11.1011
    11.1231  11.1234  11.1850  11.1855  11.2637  11.2646  11.2925  11.2927
    11.3084  11.3087  11.3166  11.3171  11.3728  11.3731  11.4698  11.4699
    11.5179  11.5181  11.5519  11.5526  11.5595  11.5596  11.6521  11.6524
    11.7156  11.7161  11.8682  11.8688  11.9662  11.9666  12.1218  12.1219
    12.1897  12.1902  12.2356  12.2362  12.2554  12.2558  12.3400  12.3403
    12.4025  12.4034  12.4409  12.4412  12.5492  12.5503  12.6103  12.6106
    12.6835  12.6843  12.7106  12.7106  12.7853  12.7861  12.8564  12.8576
    13.0147  13.0149  13.1893  13.1896  13.4959  13.4964  13.6705  13.6712
    14.0465  14.0476  14.2504  14.2517  14.4949  14.4963  16.3188  16.3201
    16.5048  16.5081  16.6633  16.6638  17.3006  17.3036  17.6996  17.7026
    18.9446  18.9446

          k = 0.0000-0.5000 0.0319 ( 14114 PWs)   bands (ev):

   -67.0223 -67.0215 -66.9148 -66.9144 -66.8931 -66.8925 -62.4584 -62.4566
   -35.7974 -35.7970 -35.7464 -35.7450 -35.7341 -35.7327 -35.6948 -35.6940
   -35.6700 -35.6688 -35.6388 -35.6378 -35.6265 -35.6255 -35.6193 -35.6178
   -35.6070 -35.6055 -31.2936 -31.2916 -31.2824 -31.2812 -31.2776 -31.2756
     7.9075   7.9085   7.9382   7.9389   7.9920   7.9925   8.1007   8.1013
     8.2057   8.2064   8.2713   8.2716   8.3089   8.3090   8.4705   8.4706
     8.6075   8.6077   8.7202   8.7205   8.8346   8.8349   8.9148   8.9159
     8.9608   8.9617   9.0611   9.0621   9.2047   9.2055   9.2951   9.2952
     9.3851   9.3859   9.5192   9.5195   9.5661   9.5667   9.5811   9.5814
     9.6247   9.6248   9.6884   9.6887   9.8219   9.8222   9.9063   9.9070
    10.0719  10.0730  10.1135  10.1151  10.3260  10.3275  10.3528  10.3535
    10.4877  10.4892  10.7024  10.7030  11.0114  11.0116  11.1010  11.1011
    11.1275  11.1278  11.1841  11.1845  11.2632  11.2640  11.2932  11.2935
    11.3109  11.3111  11.3171  11.3175  11.3499  11.3500  11.4777  11.4779
    11.5181  11.5182  11.5517  11.5523  11.5574  11.5575  11.6786  11.6789
    11.7163  11.7168  11.8674  11.8680  11.9482  11.9487  12.1228  12.1229
    12.1940  12.1945  12.2346  12.2352  12.2563  12.2567  12.3354  12.3357
[...]
    11.3216  11.3902  11.4847  11.5792  11.6413  11.6826  11.7035  11.7234
    11.7338  11.7862  11.7934  11.8295  11.9316  11.9823  12.0529  12.0668
    12.1564  12.2308  12.2923  12.3504  12.3710  12.3999  12.5264  12.6032
    12.7913  13.0133  13.3013  13.5247  13.9298  14.1311  14.4910  14.7099
    15.3830  15.4532  15.4610  15.4894  15.4996  15.5349  15.5684  15.9548
    16.4217  16.5361  16.6029  16.6158  16.6924  16.7256  16.8462  16.8892
    16.8909  16.9324  16.9639  17.0019  17.0142  17.0594  17.1037  17.2353
    17.3074  17.3600  17.4298  17.7782  17.7939  17.8281  17.9083  18.0422
    18.0727  18.1189  18.1636  18.2730  18.5067  18.5238  18.5753  18.7261
    18.7870  18.8791

          k = 0.3333 0.3333-0.0478 ( 14082 PWs)   bands (ev):

   -67.0590 -67.0564 -62.4258 -62.4253 -62.3446 -62.3441 -62.3244 -62.3242
   -35.8328 -35.8324 -35.7823 -35.7822 -35.7787 -35.7786 -31.2553 -31.2551
   -31.2547 -31.2544 -31.2487 -31.2482 -31.1744 -31.1744 -31.1726 -31.1723
   -31.1721 -31.1718 -31.1541 -31.1540 -31.1538 -31.1537 -31.1521 -31.1516
     7.7621   8.0998   8.2388   8.2826   8.3584   8.5906   8.6279   8.6927
     8.7131   8.7653   8.9552   8.9754   9.0038   9.1062   9.1291   9.1340
     9.1689   9.1851   9.2107   9.2273   9.2313   9.2847   9.2887   9.3038
     9.3641   9.3673   9.4065   9.4187   9.4454   9.4866   9.5504   9.6152
     9.6378   9.6502   9.6622   9.8020   9.8235   9.8316   9.8323   9.8685
     9.9226   9.9330   9.9716  10.0524  10.1710  10.1759  10.1973  10.2388
    10.2964  10.4002  10.4023  10.4444  10.4684  10.4824  10.4849  10.5381
    10.5807  10.5892  10.6209  10.6881  10.8162  10.9640  11.0567  11.0602
    11.0619  11.1054  11.1063  11.1091  11.1105  11.1573  11.2612  11.2867
    11.3216  11.3902  11.5105  11.5558  11.6413  11.6829  11.7036  11.7312
    11.7337  11.7882  11.8029  11.8107  11.9517  11.9640  12.0555  12.0668
    12.1565  12.2310  12.2895  12.3686  12.3710  12.3792  12.5513  12.5766
    12.8095  12.9891  13.3463  13.4774  14.0097  14.0511  14.5213  14.6937
    15.3845  15.4539  15.4598  15.4943  15.4949  15.5353  15.5684  15.9549
    16.4151  16.5616  16.5866  16.6073  16.6925  16.7327  16.8441  16.8843
    16.8961  16.9282  16.9639  17.0009  17.0376  17.0599  17.0809  17.2409
    17.3058  17.3601  17.4298  17.7820  17.7877  17.8280  17.9361  18.0080
    18.1007  18.1110  18.1204  18.2598  18.5236  18.6404  18.6473  18.6515
    18.7854  18.8473

          k = 0.3333-0.5000 0.0000 ( 14154 PWs)   bands (ev):

   -67.0591 -67.0565 -62.4254 -62.4249 -62.3442 -62.3437 -62.3240 -62.3238
   -35.8326 -35.8322 -35.7850 -35.7820 -35.7814 -35.7784 -31.2589 -31.2583
   -31.2549 -31.2542 -31.2484 -31.2479 -31.1762 -31.1757 -31.1742 -31.1741
   -31.1721 -31.1716 -31.1577 -31.1576 -31.1536 -31.1535 -31.1519 -31.1514
     8.0402   8.0426   8.3903   8.3914   8.4918   8.4924   8.6186   8.6191
     8.8124   8.8130   8.8546   8.8547   8.9310   8.9316   9.0236   9.0243
     9.0816   9.0819   9.1424   9.1430   9.2254   9.2260   9.2333   9.2335
     9.3173   9.3177   9.4295   9.4296   9.4670   9.4673   9.6503   9.6504
     9.7075   9.7075   9.7993   9.7993   9.8449   9.8455  10.0160  10.0160
    10.1009  10.1010  10.1869  10.1887  10.2934  10.2934  10.4848  10.4851
    10.5108  10.5109  10.5933  10.5933  10.6438  10.6442  10.7721  10.7721
    10.8909  10.8910  10.9297  10.9299  11.0530  11.0530  11.1614  11.1617
    11.2366  11.2372  11.2595  11.2597  11.3157  11.3157  11.4428  11.4446
    11.6539  11.6542  11.6916  11.6920  11.7207  11.7208  11.7561  11.7562
    11.9208  11.9211  11.9916  11.9917  12.0382  12.0382  12.0760  12.0761
    12.1777  12.1778  12.6548  12.6553  12.7845  12.7849  12.8180  12.8187
    13.3968  13.3977  13.7868  13.7870  13.9819  13.9821  14.1027  14.1031
    14.4823  14.4842  14.5222  14.5235  14.7184  14.7207  15.4048  15.4057
    16.5634  16.5644  16.7839  16.7840  16.8233  16.8234  16.8547  16.8551
    16.8678  16.8688  16.8752  16.8758  17.1060  17.1063  17.3671  17.3687
    17.5387  17.5405  17.6590  17.6597  17.9007  17.9020  17.9771  17.9778
    17.9919  17.9926  18.3112  18.3121  18.3500  18.3512  18.9662  18.9664
    19.0117  19.0126

          k = 0.3333-0.5000 0.0159 ( 14140 PWs)   bands (ev):

   -67.0591 -67.0565 -62.4254 -62.4249 -62.3442 -62.3437 -62.3240 -62.3238
   -35.8326 -35.8322 -35.7850 -35.7820 -35.7814 -35.7784 -31.2589 -31.2583
   -31.2549 -31.2542 -31.2484 -31.2479 -31.1762 -31.1757 -31.1742 -31.1741
   -31.1721 -31.1716 -31.1577 -31.1576 -31.1536 -31.1535 -31.1519 -31.1514
     8.0402   8.0426   8.3891   8.3902   8.4963   8.4969   8.6122   8.6128
     8.8156   8.8161   8.8594   8.8595   8.9318   8.9325   9.0106   9.0113
     9.0864   9.0866   9.1444   9.1449   9.2207   9.2212   9.2414   9.2416
     9.3164   9.3168   9.4161   9.4162   9.4843   9.4845   9.6313   9.6314
     9.7239   9.7239   9.7961   9.7961   9.8498   9.8503  10.0001  10.0002
    10.1151  10.1152  10.1870  10.1888  10.2899  10.2899  10.4845  10.4847
    10.5133  10.5134  10.5841  10.5841  10.6520  10.6524  10.7765  10.7766
    10.8722  10.8723  10.9471  10.9472  11.0471  11.0471  11.1658  11.1661
    11.2297  11.2302  11.2649  11.2650  11.3147  11.3148  11.4429  11.4447
    11.6545  11.6547  11.6911  11.6914  11.7205  11.7206  11.7562  11.7563
    11.9212  11.9214  11.9883  11.9884  12.0374  12.0376  12.0839  12.0840
    12.1728  12.1729  12.6604  12.6608  12.7686  12.7691  12.8292  12.8299
    13.3959  13.3968  13.7922  13.7924  13.9648  13.9649  14.1214  14.1218
    14.4466  14.4482  14.5576  14.5591  14.7124  14.7147  15.4049  15.4058
    16.5636  16.5646  16.7775  16.7776  16.8290  16.8291  16.8547  16.8553
    16.8683  16.8694  16.8781  16.8785  17.0995  17.0998  17.3753  17.3769
    17.5312  17.5329  17.6627  17.6635  17.9021  17.9034  17.9740  17.9746
    17.9899  17.9907  18.2776  18.2788  18.4073  18.4083  18.8748  18.8752
    19.0113  19.0125

          k = 0.3333-0.5000 0.0319 ( 14128 PWs)   bands (ev):

   -67.0591 -67.0565 -62.4254 -62.4249 -62.3442 -62.3437 -62.3240 -62.3238
   -35.8326 -35.8322 -35.7850 -35.7820 -35.7814 -35.7784 -31.2589 -31.2583
   -31.2549 -31.2542 -31.2484 -31.2479 -31.1762 -31.1757 -31.1742 -31.1741
   -31.1721 -31.1716 -31.1577 -31.1576 -31.1536 -31.1535 -31.1519 -31.1514
     8.0402   8.0426   8.3869   8.3880   8.5062   8.5068   8.5988   8.5994
     8.8204   8.8206   8.8718   8.8722   8.9353   8.9360   8.9848   8.9854
     9.0923   9.0925   9.1478   9.1483   9.2178   9.2184   9.2516   9.2519
     9.3145   9.3150   9.3993   9.3993   9.5132   9.5134   9.5993   9.5993
     9.7482   9.7482   9.7881   9.7883   9.8613   9.8616   9.9727   9.9730
    10.1379  10.1380  10.1869  10.1887  10.2823  10.2823  10.4837  10.4839
    10.5194  10.5194  10.5687  10.5687  10.6639  10.6644  10.7901  10.7902
    10.8426  10.8427  10.9726  10.9728  11.0326  11.0327  11.1758  11.1760
    11.2176  11.2179  11.2725  11.2727  11.3126  11.3127  11.4430  11.4447
    11.6557  11.6559  11.6899  11.6902  11.7202  11.7204  11.7565  11.7566
    11.9221  11.9223  11.9823  11.9825  12.0364  12.0368  12.1010  12.1011
    12.1604  12.1604  12.6749  12.6754  12.7428  12.7432  12.8423  12.8430
    13.3944  13.3952  13.8049  13.8050  13.9353  13.9353  14.1539  14.1543
    14.4048  14.4063  14.6005  14.6020  14.6966  14.6988  15.4050  15.4059
    16.5639  16.5650  16.7682  16.7683  16.8360  16.8362  16.8549  16.8554
    16.8687  16.8700  16.8860  16.8863  17.0863  17.0867  17.3930  17.3946
    17.5151  17.5166  17.6695  17.6704  17.9055  17.9069  17.9654  17.9657
    17.9876  17.9886  18.2515  18.2528  18.5013  18.5021  18.7415  18.7420
    19.0113  19.0125

          k = 0.3333-0.5000-0.0478 ( 14140 PWs)   bands (ev):

   -67.0591 -67.0565 -62.4254 -62.4249 -62.3442 -62.3437 -62.3240 -62.3238
   -35.8326 -35.8322 -35.7850 -35.7820 -35.7814 -35.7784 -31.2589 -31.2583
   -31.2549 -31.2542 -31.2484 -31.2479 -31.1762 -31.1757 -31.1742 -31.1741
   -31.1721 -31.1716 -31.1577 -31.1576 -31.1536 -31.1535 -31.1519 -31.1514
     8.0402   8.0426   8.3858   8.3869   8.5120   8.5126   8.5915   8.5921
     8.8221   8.8221   8.8797   8.8803   8.9405   8.9412   8.9682   8.9688
     9.0944   9.0946   9.1491   9.1496   9.2175   9.2181   9.2561   9.2564
     9.3135   9.3140   9.3925   9.3925   9.5324   9.5325   9.5788   9.5789
     9.7613   9.7614   9.7810   9.7814   9.8689   9.8691   9.9588   9.9592
    10.1485  10.1485  10.1865  10.1883  10.2780  10.2781  10.4833  10.4835
    10.5235  10.5235  10.5611  10.5611  10.6687  10.6692  10.8078  10.8081
    10.8189  10.8192  10.9875  10.9877  11.0213  11.0213  11.1824  11.1828
    11.2103  11.2107  11.2757  11.2760  11.3113  11.3115  11.4430  11.4448
    11.6563  11.6566  11.6893  11.6896  11.7201  11.7202  11.7566  11.7567
    11.9226  11.9227  11.9795  11.9798  12.0361  12.0366  12.1123  12.1124
    12.1510  12.1510  12.6864  12.6870  12.7273  12.7276  12.8472  12.8479
    13.3936  13.3944  13.8128  13.8129  13.9208  13.9208  14.1699  14.1703
    14.3864  14.3880  14.6225  14.6240  14.6839  14.6863  15.4051  15.4060
    16.5641  16.5652  16.7645  16.7646  16.8383  16.8385  16.8550  16.8555
    16.8689  16.8702  16.8907  16.8910  17.0796  17.0800  17.4031  17.4047
    17.5058  17.5072  17.6727  17.6736  17.9078  17.9092  17.9600  17.9602
    17.9870  17.9881  18.2432  18.2446  18.6105  18.6111  18.6183  18.6190
    19.0113  19.0125

          k =-0.5000-0.5000 0.0000 ( 14124 PWs)   bands (ev):

   -67.0591 -67.0565 -62.4252 -62.4246 -62.3439 -62.3435 -62.3238 -62.3236
   -35.8325 -35.8320 -35.7847 -35.7847 -35.7811 -35.7811 -31.2586 -31.2586
   -31.2580 -31.2580 -31.2482 -31.2477 -31.1759 -31.1759 -31.1753 -31.1753
   -31.1740 -31.1739 -31.1573 -31.1573 -31.1573 -31.1573 -31.1517 -31.1512
     7.8938   7.8963   8.2935   8.2948   8.3995   8.4002   8.5554   8.5561
     8.7026   8.7038   8.9840   8.9847   9.0118   9.0129   9.0341   9.0341
     9.1079   9.1079   9.1268   9.1268   9.2051   9.2058   9.2546   9.2546
     9.2602   9.2602   9.4981   9.4981   9.5071   9.5071   9.6071   9.6071
     9.6658   9.6694   9.7165   9.7165   9.8311   9.8311   9.9102   9.9102
    10.2877  10.2877  10.3773  10.3776  10.3780  10.3780  10.4376  10.4378
    10.5043  10.5046  10.8249  10.8249  10.8949  10.8949  10.9023  10.9034
    11.1420  11.1428  11.1631  11.1666  11.2907  11.2907  11.3413  11.3413
    11.6930  11.6936  11.7268  11.7277  11.7703  11.7709  11.7738  11.7739
    11.7755  11.7758  11.8155  11.8155  11.8532  11.8539  11.8563  11.8564
    11.9302  11.9307  11.9844  11.9847  12.0003  12.0006  12.0239  12.0239
    12.0317  12.0317  13.1646  13.1656  13.1957  13.1980  13.2123  13.2148
    13.6833  13.6833  13.9332  13.9332  14.0615  14.0615  14.3224  14.3224
    14.4610  14.4610  14.6008  14.6008  14.9491  14.9491  16.3152  16.3152
    16.3855  16.3875  16.5795  16.5799  16.6714  16.6715  16.7864  16.7865
    16.8415  16.8415  17.1250  17.1250  17.2991  17.2991  17.4444  17.4448
    17.6233  17.6235  17.8429  17.8449  17.8456  17.8457  17.9262  17.9278
    17.9412  17.9434  18.0001  18.0001  18.1336  18.1336  18.1633  18.1637
    18.5059  18.5073

          k =-0.5000-0.5000 0.0159 ( 14144 PWs)   bands (ev):

   -67.0591 -67.0565 -62.4252 -62.4246 -62.3439 -62.3435 -62.3238 -62.3236
   -35.8325 -35.8320 -35.7847 -35.7847 -35.7811 -35.7811 -31.2586 -31.2586
   -31.2580 -31.2580 -31.2482 -31.2477 -31.1759 -31.1759 -31.1753 -31.1753
   -31.1740 -31.1739 -31.1573 -31.1573 -31.1573 -31.1573 -31.1517 -31.1512
     7.8938   7.8963   8.2920   8.2933   8.4055   8.4063   8.5426   8.5433
     8.7193   8.7204   8.9422   8.9431   9.0343   9.0343   9.0516   9.0526
     9.1029   9.1029   9.1354   9.1354   9.1983   9.1991   9.2268   9.2268
     9.2910   9.2910   9.4546   9.4546   9.5530   9.5530   9.6071   9.6071
     9.6661   9.6697   9.7134   9.7134   9.8001   9.8001   9.9464   9.9464
    10.2430  10.2430  10.3771  10.3773  10.4249  10.4249  10.4379  10.4382
    10.5042  10.5045  10.7678  10.7678  10.9023  10.9034  10.9519  10.9519
    11.1420  11.1428  11.1631  11.1666  11.2516  11.2516  11.3675  11.3675
    11.6930  11.6936  11.7268  11.7277  11.7703  11.7709  11.7738  11.7739
    11.7755  11.7758  11.8155  11.8155  11.8532  11.8539  11.8563  11.8564
    11.9301  11.9307  11.9848  11.9851  11.9998  12.0002  12.0234  12.0234
    12.0318  12.0318  13.1646  13.1656  13.1957  13.1980  13.2123  13.2148
    13.6860  13.6860  13.9199  13.9199  14.0787  14.0787  14.3102  14.3102
    14.4685  14.4685  14.5992  14.5992  14.9491  14.9491  16.3151  16.3151
    16.3855  16.3875  16.5790  16.5794  16.6730  16.6731  16.7849  16.7850
    16.8487  16.8487  17.0888  17.0888  17.3488  17.3488  17.4520  17.4523
    17.6086  17.6088  17.8429  17.8449  17.8560  17.8561  17.8975  17.8975
    17.9262  17.9278  17.9412  17.9434  18.1601  18.1606  18.2453  18.2453
    18.5062  18.5076

          k =-0.5000-0.5000 0.0319 ( 14180 PWs)   bands (ev):

   -67.0591 -67.0565 -62.4252 -62.4246 -62.3439 -62.3435 -62.3238 -62.3236
   -35.8325 -35.8320 -35.7847 -35.7847 -35.7811 -35.7811 -31.2586 -31.2586
   -31.2580 -31.2580 -31.2482 -31.2477 -31.1759 -31.1759 -31.1753 -31.1753
   -31.1740 -31.1739 -31.1573 -31.1573 -31.1573 -31.1573 -31.1517 -31.1512
     7.8938   7.8963   8.2893   8.2906   8.4196   8.4204   8.5180   8.5188
     8.7551   8.7563   8.8923   8.8932   9.0346   9.0346   9.0969   9.0969
     9.0972   9.0981   9.1521   9.1521   9.1795   9.1802   9.1997   9.1997
     9.3275   9.3275   9.4096   9.4096   9.6039   9.6039   9.6079   9.6079
     9.6667   9.6702   9.6967   9.6967   9.7621   9.7621  10.0050  10.0050
    10.1767  10.1767  10.3766  10.3768  10.4385  10.4388  10.4980  10.4980
    10.5040  10.5044  10.6895  10.6895  10.9023  10.9034  11.0320  11.0320
    11.1420  11.1428  11.1630  11.1666  11.1861  11.1861  11.3942  11.3942
    11.6930  11.6936  11.7268  11.7277  11.7703  11.7709  11.7738  11.7739
    11.7755  11.7758  11.8155  11.8155  11.8532  11.8539  11.8563  11.8564
    11.9300  11.9306  11.9856  11.9859  11.9989  11.9992  12.0224  12.0224
    12.0319  12.0320  13.1646  13.1656  13.1957  13.1980  13.2123  13.2148
    13.6917  13.6917  13.8978  13.8978  14.1106  14.1106  14.2850  14.2850
    14.4817  14.4817  14.5955  14.5955  14.9492  14.9492  16.3149  16.3149
    16.3855  16.3875  16.5779  16.5783  16.6763  16.6764  16.7818  16.7820
    16.8668  16.8668  17.0336  17.0336  17.4432  17.4432  17.4715  17.4718
    17.5769  17.5771  17.7644  17.7644  17.8429  17.8449  17.8753  17.8754
    17.9262  17.9278  17.9412  17.9434  18.1535  18.1539  18.4097  18.4097
    18.5066  18.5080

          k =-0.5000-0.5000-0.0478 ( 14176 PWs)   bands (ev):

   -67.0591 -67.0565 -62.4252 -62.4246 -62.3439 -62.3435 -62.3238 -62.3236
   -35.8325 -35.8320 -35.7847 -35.7847 -35.7811 -35.7811 -31.2586 -31.2586
   -31.2580 -31.2580 -31.2482 -31.2477 -31.1759 -31.1759 -31.1753 -31.1753
   -31.1740 -31.1739 -31.1573 -31.1573 -31.1573 -31.1573 -31.1517 -31.1512
     7.8938   7.8963   8.2880   8.2893   8.4287   8.4296   8.5047   8.5055
     8.7793   8.7805   8.8642   8.8650   9.0348   9.0348   9.0947   9.0947
     9.1246   9.1256   9.1611   9.1618   9.1674   9.1674   9.1811   9.1811
     9.3636   9.3636   9.3706   9.3706   9.6070   9.6070   9.6527   9.6527
     9.6590   9.6590   9.6670   9.6705   9.7502   9.7502  10.0431  10.0431
    10.1360  10.1360  10.3763  10.3766  10.4388  10.4391  10.5039  10.5043
    10.5474  10.5474  10.6386  10.6386  10.9023  10.9034  11.1047  11.1047
    11.1182  11.1182  11.1420  11.1428  11.1631  11.1666  11.4038  11.4038
    11.6930  11.6936  11.7268  11.7277  11.7703  11.7709  11.7738  11.7739
    11.7755  11.7758  11.8155  11.8155  11.8532  11.8539  11.8563  11.8564
    11.9300  11.9305  11.9861  11.9864  11.9984  11.9987  12.0220  12.0220
    12.0320  12.0321  13.1646  13.1656  13.1957  13.1980  13.2123  13.2148
    13.6949  13.6949  13.8880  13.8880  14.1274  14.1274  14.2709  14.2709
    14.4879  14.4879  14.5935  14.5935  14.9492  14.9492  16.3147  16.3147
    16.3855  16.3875  16.5774  16.5778  16.6779  16.6780  16.7802  16.7804
    16.8792  16.8792  17.0072  17.0072  17.4863  17.4866  17.5079  17.5079
    17.5567  17.5569  17.6875  17.6875  17.8429  17.8449  17.8843  17.8844
    17.9262  17.9278  17.9412  17.9434  18.1500  18.1504  18.5068  18.5082
    18.5768  18.5768

     the Fermi energy is    15.0038 ev

!    total energy              =  -14694.02340723 Ry
     Harris-Foulkes estimate   =  -14694.02340468 Ry
     estimated scf accuracy    <       0.00000049 Ry

     total all-electron energy =   -626921.619129 Ry

     The total energy is the sum of the following terms:

     one-electron contribution =    -729.93379742 Ry
     hartree contribution      =     661.56493404 Ry
     xc contribution           =    -737.65565395 Ry
     ewald contribution        =   -2186.64874840 Ry
     Hubbard energy            =       0.44989745 Ry
     one-center paw contrib.   =  -11701.80003895 Ry

     total magnetization       =    17.20 Bohr mag/cell
     absolute magnetization    =    37.18 Bohr mag/cell

     convergence has been achieved in  31 iterations

     Writing output data file mnau2.save/
 
     init_run     :     23.69s CPU     24.44s WALL (       1 calls)
     electrons    :   1501.12s CPU   1533.95s WALL (       1 calls)

     Called by init_run:
     wfcinit      :     22.02s CPU     22.62s WALL (       1 calls)
     potinit      :      0.82s CPU      0.89s WALL (       1 calls)
     hinit0       :      0.55s CPU      0.59s WALL (       1 calls)

     Called by electrons:
     c_bands      :   1308.72s CPU   1332.46s WALL (      31 calls)
     sum_band     :    170.79s CPU    176.29s WALL (      31 calls)
     v_of_rho     :      1.83s CPU      1.86s WALL (      32 calls)
     newd         :      4.60s CPU      4.63s WALL (      32 calls)
     PAW_pot      :     15.15s CPU     15.40s WALL (      32 calls)
     mix_rho      :      0.42s CPU      0.47s WALL (      31 calls)

     Called by c_bands:
     init_us_2    :      8.55s CPU      8.64s WALL (    5120 calls)
     cegterg      :   1257.84s CPU   1280.80s WALL (    2480 calls)

     Called by sum_band:
     sum_band:bec :      2.07s CPU      2.08s WALL (    2480 calls)
     addusdens    :      8.12s CPU      8.56s WALL (      31 calls)

     Called by *egterg:
     h_psi        :    581.12s CPU    595.29s WALL (    7061 calls)
     s_psi        :     82.73s CPU     82.83s WALL (    7141 calls)
     g_psi        :      2.18s CPU      2.19s WALL (    4501 calls)
     cdiaghg      :    397.59s CPU    405.75s WALL (    6981 calls)

     Called by h_psi:
     h_psi:pot    :    544.74s CPU    558.68s WALL (    7061 calls)
     h_psi:calbec :     94.82s CPU     98.03s WALL (    7061 calls)
     vloc_psi     :    369.41s CPU    380.01s WALL (    7061 calls)
     add_vuspsi   :     80.43s CPU     80.59s WALL (    7061 calls)
     vhpsi        :     34.58s CPU     34.79s WALL (    7061 calls)

     General routines
     calbec       :    166.00s CPU    171.07s WALL (   19162 calls)
     fft          :      1.37s CPU      1.45s WALL (     796 calls)
     ffts         :      0.09s CPU      0.10s WALL (     126 calls)
     fftw         :    438.85s CPU    452.22s WALL ( 2286692 calls)
     interpolate  :      0.15s CPU      0.16s WALL (      64 calls)
     davcio       :      0.01s CPU      2.15s WALL (      80 calls)
 
     Parallel routines
     fft_scatt_xy :     22.38s CPU     22.86s WALL ( 2287614 calls)
     fft_scatt_yz :    298.25s CPU    308.22s WALL ( 2287614 calls)

     Hubbard U routines
     new_ns       :      7.90s CPU      8.17s WALL (      31 calls)
     vhpsi        :     34.58s CPU     34.79s WALL (    7061 calls)
 
     PWSCF        : 25m34.93s CPU    26m55.68s WALL

 
   This run was terminated on:  16: 5:17  29Mar2019            

=------------------------------------------------------------------------------=
   JOB DONE.
=------------------------------------------------------------------------------=
