
     Program PWSCF v.6.3MaX starts on 29Mar2019 at 16: 5:20 

     This program is part of the open-source Quantum ESPRESSO suite
     for quantum simulation of materials; please cite
         "P. Giannozzi et al., J. Phys.:Condens. Matter 21 395502 (2009);
         "P. Giannozzi et al., J. Phys.:Condens. Matter 29 465901 (2017);
          URL http://www.quantum-espresso.org", 
     in publications or presentations arising from this work. More details at
     http://www.quantum-espresso.org/quote

     Parallel version (MPI), running on    32 processors

     MPI processes distributed on     2 nodes
     R & G space division:  proc/nbgrp/npool/nimage =      32
     Waiting for input...
     Reading input from standard input

     Current dimensions of program PWSCF are:
     Max number of different atomic species (ntypx) = 10
     Max number of k-points (npk) =  40000
     Max angular momentum in pseudopotentials (lmaxx) =  3
     Message from routine read_upf::
     Pseudo file ./pseudo/Mn.pbe-spn-kjpaw_psl.0.3.1.UPF has been successfully fixed on the fly.
To avoid this message in the future you can permanently fix 
 your pseudo files following instructions given in: 
https://gitlab.com/QEF/q-e/blob/master/upftools/how_to_fix_upf.md
               file Mn.pbe-spn-kjpaw_psl.0.3.1.UPF: wavefunction(s)  3P 3D renormalized
     Message from routine read_upf::
     Pseudo file ./pseudo/Mn.pbe-spn-kjpaw_psl.0.3.1.UPF has been successfully fixed on the fly.
To avoid this message in the future you can permanently fix 
 your pseudo files following instructions given in: 
https://gitlab.com/QEF/q-e/blob/master/upftools/how_to_fix_upf.md
               file Mn.pbe-spn-kjpaw_psl.0.3.1.UPF: wavefunction(s)  3P 3D renormalized
     Message from routine read_upf::
     Pseudo file ./pseudo/Au.pbe-dn-kjpaw_psl.0.1.UPF has been successfully fixed on the fly.
To avoid this message in the future you can permanently fix 
 your pseudo files following instructions given in: 
https://gitlab.com/QEF/q-e/blob/master/upftools/how_to_fix_upf.md
               file Au.pbe-dn-kjpaw_psl.0.1.UPF: wavefunction(s)  6S 6P 5D renormalized

     Subspace diagonalization in iterative solution of the eigenvalue problem:
     one sub-group per band group will be used
     scalapack distributed-memory algorithm (size of sub-group:  4*  4 procs)

 
     Parallelization info
     --------------------
     sticks:   dense  smooth     PW     G-vecs:    dense   smooth      PW
     Min          41      18      5                11647     3506     571
     Max          42      19      6                11691     3549     614
     Sum        1313     593    177               373547   112863   18983
 


     bravais-lattice index     =            0
     lattice parameter (alat)  =       6.4153  a.u.
     unit-cell volume          =    2762.7331 (a.u.)^3
     number of atoms/cell      =           24
     number of atomic types    =            3
     number of electrons       =       296.00
     number of Kohn-Sham states=          178
     kinetic-energy cutoff     =      45.0000  Ry
     charge density cutoff     =     400.0000  Ry
     convergence threshold     =      1.0E-06
     mixing beta               =       0.1000
     number of iterations used =            8  plain     mixing
     Exchange-correlation      = SLA PW PBX PBC ( 1  4  3  4 0 0)

     celldm(1)=   6.415315  celldm(2)=   0.000000  celldm(3)=   0.000000
     celldm(4)=   0.000000  celldm(5)=   0.000000  celldm(6)=   0.000000

     crystal axes: (cart. coord. in units of alat)
               a(1) = (   1.000000   0.000000   0.000000 )  
               a(2) = (   0.000000   1.000000   0.000000 )  
               a(3) = (   0.000000   0.000000  10.463692 )  

     reciprocal axes: (cart. coord. in units 2 pi/alat)
               b(1) = (  1.000000  0.000000  0.000000 )  
               b(2) = (  0.000000  1.000000  0.000000 )  
               b(3) = (  0.000000  0.000000  0.095569 )  


     PseudoPot. # 1 for Mn read from file:
     ./pseudo/Mn.pbe-spn-kjpaw_psl.0.3.1.UPF
     MD5 check sum: 7eef95dd2aae66803482eea66ebeebf1
     Pseudo is Projector augmented-wave + core cor, Zval = 15.0
     Generated using "atomic" code by A. Dal Corso v.5.0.99 svn rev. 10869
     Shape of augmentation charge: PSQ
     Using radial grid of 1187 points,  6 beta functions with: 
                l(1) =   0
                l(2) =   0
                l(3) =   1
                l(4) =   1
                l(5) =   2
                l(6) =   2
     Q(r) pseudized with 0 coefficients 


     PseudoPot. # 2 for Mn read from file:
     ./pseudo/Mn.pbe-spn-kjpaw_psl.0.3.1.UPF
     MD5 check sum: 7eef95dd2aae66803482eea66ebeebf1
     Pseudo is Projector augmented-wave + core cor, Zval = 15.0
     Generated using "atomic" code by A. Dal Corso v.5.0.99 svn rev. 10869
     Shape of augmentation charge: PSQ
     Using radial grid of 1187 points,  6 beta functions with: 
                l(1) =   0
                l(2) =   0
                l(3) =   1
                l(4) =   1
                l(5) =   2
                l(6) =   2
     Q(r) pseudized with 0 coefficients 


     PseudoPot. # 3 for Au read from file:
     ./pseudo/Au.pbe-dn-kjpaw_psl.0.1.UPF
     MD5 check sum: 5c9b92683623e7ae2ab3f8e525febab6
     Pseudo is Projector augmented-wave + core cor, Zval = 11.0
     Generated using "atomic" code by A. Dal Corso v.5.0.2 svn rev. 9415
     Shape of augmentation charge: PSQ
     Using radial grid of 1279 points,  6 beta functions with: 
                l(1) =   0
                l(2) =   0
                l(3) =   1
                l(4) =   1
                l(5) =   2
                l(6) =   2
     Q(r) pseudized with 0 coefficients 


     atomic species   valence    mass     pseudopotential
        Mn1           15.00    54.93800     Mn( 1.00)
        Mn2           15.00    54.93800     Mn( 1.00)
        Au            11.00   196.96600     Au( 1.00)

     Starting magnetic structure 
     atomic species   magnetization
        Mn1          0.800
        Mn2         -0.800
        Au           0.000


     Full LDA+U calculation (l_max = 2) with parameters (eV):
     U(  1) =   3.1200   J(  1) =   0.7000   B(  1) =   0.0803
     U(  2) =   3.1200   J(  2) =   0.7000   B(  2) =   0.0803



     16 Sym. Ops., with inversion, found ( 8 have fractional translation)



   Cartesian axes

     site n.     atom                  positions (alat units)
         1           Mn1 tau(   1) = (   0.0000000   0.0000000   0.0000000  )
         2           Mn1 tau(   2) = (   0.5000000   0.5000000   1.3079615  )
         3           Mn1 tau(   3) = (   0.0000000   0.0000000   2.6159231  )
         4           Mn1 tau(   4) = (   0.5000000   0.5000000   3.9238846  )
         5           Mn1 tau(   5) = (   0.0000000   0.0000000   5.2318461  )
         6           Mn2 tau(   6) = (   0.5000000   0.5000000   6.5398077  )
         7           Mn1 tau(   7) = (   0.0000000   0.0000000   7.8477692  )
         8           Mn2 tau(   8) = (   0.5000000   0.5000000   9.1557307  )
         9           Au  tau(   9) = (   0.5000000   0.5000000   0.4185477  )
        10           Au  tau(  10) = (   0.0000000   0.0000000   0.8894138  )
        11           Au  tau(  11) = (   0.0000000   0.0000000   1.7265092  )
        12           Au  tau(  12) = (   0.5000000   0.5000000   2.1973754  )
        13           Au  tau(  13) = (   0.5000000   0.5000000   3.0344708  )
        14           Au  tau(  14) = (   0.0000000   0.0000000   3.5053369  )
        15           Au  tau(  15) = (   0.0000000   0.0000000   4.3424323  )
        16           Au  tau(  16) = (   0.5000000   0.5000000   4.8132984  )
        17           Au  tau(  17) = (   0.5000000   0.5000000   5.6503938  )
        18           Au  tau(  18) = (   0.0000000   0.0000000   6.1212600  )
        19           Au  tau(  19) = (   0.0000000   0.0000000   6.9583554  )
        20           Au  tau(  20) = (   0.5000000   0.5000000   7.4292215  )
        21           Au  tau(  21) = (   0.5000000   0.5000000   8.2663169  )
        22           Au  tau(  22) = (   0.0000000   0.0000000   8.7371830  )
        23           Au  tau(  23) = (   0.0000000   0.0000000   9.5742784  )
        24           Au  tau(  24) = (   0.5000000   0.5000000  10.0451446  )

     number of k points=    40 (tetrahedron method)
                       cart. coord. in units 2pi/alat
        k(    1) = (   0.0000000   0.0000000   0.0000000), wk =   0.0046296
        k(    2) = (   0.0000000   0.0000000   0.0159281), wk =   0.0092593
        k(    3) = (   0.0000000   0.0000000   0.0318562), wk =   0.0092593
        k(    4) = (   0.0000000   0.0000000  -0.0477843), wk =   0.0046296
        k(    5) = (   0.0000000   0.1666667   0.0000000), wk =   0.0185185
        k(    6) = (   0.0000000   0.1666667   0.0159281), wk =   0.0370370
        k(    7) = (   0.0000000   0.1666667   0.0318562), wk =   0.0370370
        k(    8) = (   0.0000000   0.1666667  -0.0477843), wk =   0.0185185
        k(    9) = (   0.0000000   0.3333333   0.0000000), wk =   0.0185185
        k(   10) = (   0.0000000   0.3333333   0.0159281), wk =   0.0370370
        k(   11) = (   0.0000000   0.3333333   0.0318562), wk =   0.0370370
        k(   12) = (   0.0000000   0.3333333  -0.0477843), wk =   0.0185185
        k(   13) = (   0.0000000  -0.5000000   0.0000000), wk =   0.0092593
        k(   14) = (   0.0000000  -0.5000000   0.0159281), wk =   0.0185185
        k(   15) = (   0.0000000  -0.5000000   0.0318562), wk =   0.0185185
        k(   16) = (   0.0000000  -0.5000000  -0.0477843), wk =   0.0092593
        k(   17) = (   0.1666667   0.1666667   0.0000000), wk =   0.0185185
        k(   18) = (   0.1666667   0.1666667   0.0159281), wk =   0.0370370
        k(   19) = (   0.1666667   0.1666667   0.0318562), wk =   0.0370370
        k(   20) = (   0.1666667   0.1666667  -0.0477843), wk =   0.0185185
        k(   21) = (   0.1666667   0.3333333   0.0000000), wk =   0.0370370
        k(   22) = (   0.1666667   0.3333333   0.0159281), wk =   0.0740741
        k(   23) = (   0.1666667   0.3333333   0.0318562), wk =   0.0740741
        k(   24) = (   0.1666667   0.3333333  -0.0477843), wk =   0.0370370
        k(   25) = (   0.1666667  -0.5000000   0.0000000), wk =   0.0185185
        k(   26) = (   0.1666667  -0.5000000   0.0159281), wk =   0.0370370
        k(   27) = (   0.1666667  -0.5000000   0.0318562), wk =   0.0370370
        k(   28) = (   0.1666667  -0.5000000  -0.0477843), wk =   0.0185185
        k(   29) = (   0.3333333   0.3333333   0.0000000), wk =   0.0185185
        k(   30) = (   0.3333333   0.3333333   0.0159281), wk =   0.0370370
        k(   31) = (   0.3333333   0.3333333   0.0318562), wk =   0.0370370
        k(   32) = (   0.3333333   0.3333333  -0.0477843), wk =   0.0185185
        k(   33) = (   0.3333333  -0.5000000   0.0000000), wk =   0.0185185
        k(   34) = (   0.3333333  -0.5000000   0.0159281), wk =   0.0370370
        k(   35) = (   0.3333333  -0.5000000   0.0318562), wk =   0.0370370
        k(   36) = (   0.3333333  -0.5000000  -0.0477843), wk =   0.0185185
        k(   37) = (  -0.5000000  -0.5000000   0.0000000), wk =   0.0046296
        k(   38) = (  -0.5000000  -0.5000000   0.0159281), wk =   0.0092593
        k(   39) = (  -0.5000000  -0.5000000   0.0318562), wk =   0.0092593
        k(   40) = (  -0.5000000  -0.5000000  -0.0477843), wk =   0.0046296

     Dense  grid:   373547 G-vectors     FFT dimensions: (  45,  45, 432)

     Smooth grid:   112863 G-vectors     FFT dimensions: (  27,  27, 288)

     Estimated max dynamical RAM per process >     174.65 MB

     Estimated total dynamical RAM >       5.46 GB
     Generating pointlists ...
     new r_m :   0.3389 (alat units)  2.1745 (a.u.) for type    1
     new r_m :   0.3389 (alat units)  2.1745 (a.u.) for type    2
     new r_m :   0.3389 (alat units)  2.1745 (a.u.) for type    3

     Check: negative/imaginary core charge=   -0.000006    0.000000

     Initial potential from superposition of free atoms

     starting charge  295.99426, renormalised to  296.00000
     Number of +U iterations with fixed ns =  0
     Starting occupations:
 --- enter write_ns ---
 LDA+U parameters:
U(  1) =   3.1200   J(  1) =   0.7000   B(  1) =   0.0803
U(  2) =   3.1200   J(  2) =   0.7000   B(  2) =   0.0803
atom    1   Tr[ns(na)] (up, down, total) =   5.00000  0.00000  5.00000
   spin  1
    eigenvalues: 
  1.000  1.000  1.000  1.000  1.000
    eigenvectors:
  1.000  0.000  0.000  0.000  0.000
  0.000  1.000  0.000  0.000  0.000
  0.000  0.000  1.000  0.000  0.000
  0.000  0.000  0.000  1.000  0.000
  0.000  0.000  0.000  0.000  1.000
    occupations:
  1.000  0.000  0.000  0.000  0.000
  0.000  1.000  0.000  0.000  0.000
  0.000  0.000  1.000  0.000  0.000
  0.000  0.000  0.000  1.000  0.000
  0.000  0.000  0.000  0.000  1.000
   spin  2
    eigenvalues: 
  0.000  0.000  0.000  0.000  0.000
    eigenvectors:
  1.000  0.000  0.000  0.000  0.000
  0.000  1.000  0.000  0.000  0.000
  0.000  0.000  1.000  0.000  0.000
  0.000  0.000  0.000  1.000  0.000
  0.000  0.000  0.000  0.000  1.000
    occupations:
  0.000  0.000  0.000  0.000  0.000
  0.000  0.000  0.000  0.000  0.000
  0.000  0.000  0.000  0.000  0.000
  0.000  0.000  0.000  0.000  0.000
  0.000  0.000  0.000  0.000  0.000
atomic mag. moment =     5.000000
atom    2   Tr[ns(na)] (up, down, total) =   5.00000  0.00000  5.00000
   spin  1
    eigenvalues: 
  1.000  1.000  1.000  1.000  1.000
    eigenvectors:
  1.000  0.000  0.000  0.000  0.000
  0.000  1.000  0.000  0.000  0.000
  0.000  0.000  1.000  0.000  0.000
  0.000  0.000  0.000  1.000  0.000
  0.000  0.000  0.000  0.000  1.000
    occupations:
  1.000  0.000  0.000  0.000  0.000
  0.000  1.000  0.000  0.000  0.000
  0.000  0.000  1.000  0.000  0.000
  0.000  0.000  0.000  1.000  0.000
  0.000  0.000  0.000  0.000  1.000
   spin  2
    eigenvalues: 
  0.000  0.000  0.000  0.000  0.000
    eigenvectors:
  1.000  0.000  0.000  0.000  0.000
  0.000  1.000  0.000  0.000  0.000
  0.000  0.000  1.000  0.000  0.000
  0.000  0.000  0.000  1.000  0.000
  0.000  0.000  0.000  0.000  1.000
    occupations:
  0.000  0.000  0.000  0.000  0.000
  0.000  0.000  0.000  0.000  0.000
  0.000  0.000  0.000  0.000  0.000
  0.000  0.000  0.000  0.000  0.000
  0.000  0.000  0.000  0.000  0.000
atomic mag. moment =     5.000000
atom    3   Tr[ns(na)] (up, down, total) =   5.00000  0.00000  5.00000
   spin  1
    eigenvalues: 
  1.000  1.000  1.000  1.000  1.000
    eigenvectors:
  1.000  0.000  0.000  0.000  0.000
  0.000  1.000  0.000  0.000  0.000
  0.000  0.000  1.000  0.000  0.000
  0.000  0.000  0.000  1.000  0.000
  0.000  0.000  0.000  0.000  1.000
    occupations:
  1.000  0.000  0.000  0.000  0.000
  0.000  1.000  0.000  0.000  0.000
  0.000  0.000  1.000  0.000  0.000
  0.000  0.000  0.000  1.000  0.000
  0.000  0.000  0.000  0.000  1.000
   spin  2
    eigenvalues: 
  0.000  0.000  0.000  0.000  0.000
    eigenvectors:
  1.000  0.000  0.000  0.000  0.000
  0.000  1.000  0.000  0.000  0.000
  0.000  0.000  1.000  0.000  0.000
  0.000  0.000  0.000  1.000  0.000
  0.000  0.000  0.000  0.000  1.000
    occupations:
  0.000  0.000  0.000  0.000  0.000
  0.000  0.000  0.000  0.000  0.000
  0.000  0.000  0.000  0.000  0.000
  0.000  0.000  0.000  0.000  0.000
  0.000  0.000  0.000  0.000  0.000
atomic mag. moment =     5.000000
atom    4   Tr[ns(na)] (up, down, total) =   5.00000  0.00000  5.00000
   spin  1
    eigenvalues: 
  1.000  1.000  1.000  1.000  1.000
    eigenvectors:
  1.000  0.000  0.000  0.000  0.000
  0.000  1.000  0.000  0.000  0.000
  0.000  0.000  1.000  0.000  0.000
  0.000  0.000  0.000  1.000  0.000
  0.000  0.000  0.000  0.000  1.000
    occupations:
  1.000  0.000  0.000  0.000  0.000
  0.000  1.000  0.000  0.000  0.000
  0.000  0.000  1.000  0.000  0.000
  0.000  0.000  0.000  1.000  0.000
  0.000  0.000  0.000  0.000  1.000
   spin  2
    eigenvalues: 
  0.000  0.000  0.000  0.000  0.000
    eigenvectors:
  1.000  0.000  0.000  0.000  0.000
  0.000  1.000  0.000  0.000  0.000
  0.000  0.000  1.000  0.000  0.000
  0.000  0.000  0.000  1.000  0.000
  0.000  0.000  0.000  0.000  1.000
    occupations:
  0.000  0.000  0.000  0.000  0.000
  0.000  0.000  0.000  0.000  0.000
  0.000  0.000  0.000  0.000  0.000
  0.000  0.000  0.000  0.000  0.000
  0.000  0.000  0.000  0.000  0.000
atomic mag. moment =     5.000000
atom    5   Tr[ns(na)] (up, down, total) =   5.00000  0.00000  5.00000
   spin  1
    eigenvalues: 
  1.000  1.000  1.000  1.000  1.000
    eigenvectors:
  1.000  0.000  0.000  0.000  0.000
  0.000  1.000  0.000  0.000  0.000
  0.000  0.000  1.000  0.000  0.000
  0.000  0.000  0.000  1.000  0.000
  0.000  0.000  0.000  0.000  1.000
    occupations:
  1.000  0.000  0.000  0.000  0.000
  0.000  1.000  0.000  0.000  0.000
  0.000  0.000  1.000  0.000  0.000
  0.000  0.000  0.000  1.000  0.000
  0.000  0.000  0.000  0.000  1.000
   spin  2
    eigenvalues: 
  0.000  0.000  0.000  0.000  0.000
    eigenvectors:
  1.000  0.000  0.000  0.000  0.000
  0.000  1.000  0.000  0.000  0.000
  0.000  0.000  1.000  0.000  0.000
  0.000  0.000  0.000  1.000  0.000
  0.000  0.000  0.000  0.000  1.000
    occupations:
  0.000  0.000  0.000  0.000  0.000
  0.000  0.000  0.000  0.000  0.000
  0.000  0.000  0.000  0.000  0.000
  0.000  0.000  0.000  0.000  0.000
  0.000  0.000  0.000  0.000  0.000
atomic mag. moment =     5.000000
atom    6   Tr[ns(na)] (up, down, total) =   0.00000  5.00000  5.00000
   spin  1
    eigenvalues: 
  0.000  0.000  0.000  0.000  0.000
    eigenvectors:
  1.000  0.000  0.000  0.000  0.000
  0.000  1.000  0.000  0.000  0.000
  0.000  0.000  1.000  0.000  0.000
  0.000  0.000  0.000  1.000  0.000
  0.000  0.000  0.000  0.000  1.000
    occupations:
  0.000  0.000  0.000  0.000  0.000
  0.000  0.000  0.000  0.000  0.000
  0.000  0.000  0.000  0.000  0.000
  0.000  0.000  0.000  0.000  0.000
  0.000  0.000  0.000  0.000  0.000
   spin  2
    eigenvalues: 
  1.000  1.000  1.000  1.000  1.000
    eigenvectors:
  1.000  0.000  0.000  0.000  0.000
  0.000  1.000  0.000  0.000  0.000
  0.000  0.000  1.000  0.000  0.000
  0.000  0.000  0.000  1.000  0.000
  0.000  0.000  0.000  0.000  1.000
    occupations:
  1.000  0.000  0.000  0.000  0.000
  0.000  1.000  0.000  0.000  0.000
  0.000  0.000  1.000  0.000  0.000
  0.000  0.000  0.000  1.000  0.000
  0.000  0.000  0.000  0.000  1.000
atomic mag. moment =    -5.000000
atom    7   Tr[ns(na)] (up, down, total) =   5.00000  0.00000  5.00000
   spin  1
    eigenvalues: 
  1.000  1.000  1.000  1.000  1.000
    eigenvectors:
  1.000  0.000  0.000  0.000  0.000
  0.000  1.000  0.000  0.000  0.000
  0.000  0.000  1.000  0.000  0.000
  0.000  0.000  0.000  1.000  0.000
  0.000  0.000  0.000  0.000  1.000
    occupations:
  1.000  0.000  0.000  0.000  0.000
  0.000  1.000  0.000  0.000  0.000
  0.000  0.000  1.000  0.000  0.000
  0.000  0.000  0.000  1.000  0.000
  0.000  0.000  0.000  0.000  1.000
   spin  2
    eigenvalues: 
  0.000  0.000  0.000  0.000  0.000
    eigenvectors:
  1.000  0.000  0.000  0.000  0.000
  0.000  1.000  0.000  0.000  0.000
  0.000  0.000  1.000  0.000  0.000
  0.000  0.000  0.000  1.000  0.000
  0.000  0.000  0.000  0.000  1.000
    occupations:
  0.000  0.000  0.000  0.000  0.000
  0.000  0.000  0.000  0.000  0.000
  0.000  0.000  0.000  0.000  0.000
  0.000  0.000  0.000  0.000  0.000
  0.000  0.000  0.000  0.000  0.000
atomic mag. moment =     5.000000
atom    8   Tr[ns(na)] (up, down, total) =   0.00000  5.00000  5.00000
   spin  1
    eigenvalues: 
  0.000  0.000  0.000  0.000  0.000
    eigenvectors:
  1.000  0.000  0.000  0.000  0.000
  0.000  1.000  0.000  0.000  0.000
  0.000  0.000  1.000  0.000  0.000
  0.000  0.000  0.000  1.000  0.000
  0.000  0.000  0.000  0.000  1.000
    occupations:
  0.000  0.000  0.000  0.000  0.000
  0.000  0.000  0.000  0.000  0.000
  0.000  0.000  0.000  0.000  0.000
  0.000  0.000  0.000  0.000  0.000
  0.000  0.000  0.000  0.000  0.000
   spin  2
    eigenvalues: 
  1.000  1.000  1.000  1.000  1.000
    eigenvectors:
  1.000  0.000  0.000  0.000  0.000
  0.000  1.000  0.000  0.000  0.000
  0.000  0.000  1.000  0.000  0.000
  0.000  0.000  0.000  1.000  0.000
  0.000  0.000  0.000  0.000  1.000
    occupations:
  1.000  0.000  0.000  0.000  0.000
  0.000  1.000  0.000  0.000  0.000
  0.000  0.000  1.000  0.000  0.000
  0.000  0.000  0.000  1.000  0.000
  0.000  0.000  0.000  0.000  1.000
atomic mag. moment =    -5.000000
N of occupied +U levels =   40.000000
 --- exit write_ns ---
 Atomic wfc used for LDA+U Projector are NOT orthogonalized
     Starting wfcs are  224 randomized atomic wfcs
     Checking if some PAW data can be deallocated... 

     total cpu time spent up to now is       28.4 secs

     Self-consistent Calculation

     iteration #  1     ecut=    45.00 Ry     beta= 0.10
     Davidson diagonalization with overlap
     ethr =  1.00E-02,  avg # of iterations =  3.9
 --- enter write_ns ---
 LDA+U parameters:
U(  1) =   3.1200   J(  1) =   0.7000   B(  1) =   0.0803
U(  2) =   3.1200   J(  2) =   0.7000   B(  2) =   0.0803
atom    1   Tr[ns(na)] (up, down, total) =   5.01747  0.39531  5.41278
   spin  1
    eigenvalues: 
  1.003  1.003  1.003  1.004  1.004
    eigenvectors:
  0.000  0.000  0.000  1.000  0.000
  0.000  0.282  0.718  0.000  0.000
  0.000  0.718  0.282  0.000  0.000
  0.000  0.000  0.000  0.000  1.000
  1.000  0.000  0.000  0.000  0.000
    occupations:
  1.004 -0.000 -0.000  0.000  0.000
 -0.000  1.003 -0.000  0.000  0.000
 -0.000 -0.000  1.003  0.000  0.000
  0.000  0.000  0.000  1.004 -0.000
  0.000  0.000  0.000 -0.000  1.003
   spin  2
    eigenvalues: 
  0.051  0.069  0.079  0.079  0.117
    eigenvectors:
  0.000  1.000  0.000  0.000  0.000
  0.000  0.000  0.310  0.690  0.000
  0.000  0.000  0.690  0.310  0.000
  1.000  0.000  0.000  0.000  0.000
  0.000  0.000  0.000  0.000  1.000
    occupations:
  0.069 -0.000 -0.000  0.000  0.000
 -0.000  0.079 -0.000  0.000  0.000
 -0.000 -0.000  0.079  0.000  0.000
  0.000  0.000  0.000  0.051 -0.000
  0.000  0.000  0.000 -0.000  0.117
atomic mag. moment =     4.622164
atom    2   Tr[ns(na)] (up, down, total) =   5.01756  0.39123  5.40879
   spin  1
    eigenvalues: 
  1.003  1.003  1.003  1.004  1.004
    eigenvectors:
  0.000  0.000  0.000  1.000  0.000
  0.000  0.413  0.587  0.000  0.000
  0.000  0.587  0.413  0.000  0.000
  0.000  0.000  0.000  0.000  1.000
  1.000  0.000  0.000  0.000  0.000
    occupations:
  1.004 -0.000 -0.000  0.000  0.000
 -0.000  1.003 -0.000  0.000  0.000
 -0.000 -0.000  1.003  0.000  0.000
  0.000  0.000  0.000  1.004 -0.000
  0.000  0.000  0.000 -0.000  1.003
   spin  2
    eigenvalues: 
  0.051  0.070  0.080  0.080  0.111
    eigenvectors:
  0.000  1.000  0.000  0.000  0.000
  0.000  0.000  0.290  0.710  0.000
  0.000  0.000  0.710  0.290  0.000
  1.000  0.000  0.000  0.000  0.000
  0.000  0.000  0.000  0.000  1.000
    occupations:
  0.070 -0.000 -0.000  0.000  0.000
 -0.000  0.080 -0.000  0.000  0.000
 -0.000 -0.000  0.080  0.000  0.000
  0.000  0.000  0.000  0.051 -0.000
  0.000  0.000  0.000 -0.000  0.111
atomic mag. moment =     4.626326
atom    3   Tr[ns(na)] (up, down, total) =   5.01761  0.38846  5.40607
   spin  1
    eigenvalues: 
  1.003  1.003  1.003  1.004  1.004
    eigenvectors:
  0.000  0.000  0.000  1.000  0.000
  0.000  0.300  0.700  0.000  0.000
  0.000  0.700  0.300  0.000  0.000
  0.000  0.000  0.000  0.000  1.000
  1.000  0.000  0.000  0.000  0.000
    occupations:
  1.004 -0.000 -0.000  0.000  0.000
 -0.000  1.003 -0.000  0.000  0.000
 -0.000 -0.000  1.003  0.000  0.000
  0.000  0.000  0.000  1.004 -0.000
  0.000  0.000  0.000 -0.000  1.003
   spin  2
    eigenvalues: 
  0.051  0.069  0.080  0.080  0.109
    eigenvectors:
  0.000  1.000  0.000  0.000  0.000
  0.000  0.000  0.390  0.610  0.000
  0.000  0.000  0.610  0.390  0.000
  1.000  0.000  0.000  0.000  0.000
  0.000  0.000  0.000  0.000  1.000
    occupations:
  0.069 -0.000 -0.000  0.000  0.000
 -0.000  0.080 -0.000  0.000  0.000
 -0.000 -0.000  0.080  0.000  0.000
  0.000  0.000  0.000  0.051 -0.000
  0.000  0.000  0.000 -0.000  0.109
atomic mag. moment =     4.629142
atom    4   Tr[ns(na)] (up, down, total) =   5.01756  0.39123  5.40879
   spin  1
    eigenvalues: 
  1.003  1.003  1.003  1.004  1.004
    eigenvectors:
  0.000  0.000  0.000  1.000  0.000
  0.000  0.332  0.668  0.000  0.000
  0.000  0.668  0.332  0.000  0.000
  0.000  0.000  0.000  0.000  1.000
  1.000  0.000  0.000  0.000  0.000
    occupations:
  1.004 -0.000 -0.000  0.000  0.000
 -0.000  1.003 -0.000  0.000  0.000
 -0.000 -0.000  1.003  0.000  0.000
  0.000  0.000  0.000  1.004 -0.000
  0.000  0.000  0.000 -0.000  1.003
   spin  2
    eigenvalues: 
  0.051  0.070  0.080  0.080  0.111
    eigenvectors:
  0.000  1.000  0.000  0.000  0.000
  0.000  0.000  0.314  0.686  0.000
  0.000  0.000  0.686  0.314  0.000
  1.000  0.000  0.000  0.000  0.000
  0.000  0.000  0.000  0.000  1.000
    occupations:
  0.070 -0.000 -0.000  0.000  0.000
 -0.000  0.080 -0.000  0.000  0.000
 -0.000 -0.000  0.080  0.000  0.000
  0.000  0.000  0.000  0.051 -0.000
  0.000  0.000  0.000 -0.000  0.111
atomic mag. moment =     4.626326
atom    5   Tr[ns(na)] (up, down, total) =   5.01747  0.39531  5.41278
   spin  1
    eigenvalues: 
  1.003  1.003  1.003  1.004  1.004
    eigenvectors:
  0.000  0.000  0.000  1.000  0.000
  0.000  0.293  0.707  0.000  0.000
  0.000  0.707  0.293  0.000  0.000
  0.000  0.000  0.000  0.000  1.000
  1.000  0.000  0.000  0.000  0.000
    occupations:
  1.004 -0.000 -0.000  0.000  0.000
 -0.000  1.003 -0.000  0.000  0.000
 -0.000 -0.000  1.003  0.000  0.000
  0.000  0.000  0.000  1.004 -0.000
  0.000  0.000  0.000 -0.000  1.003
   spin  2
    eigenvalues: 
  0.051  0.069  0.079  0.079  0.117
    eigenvectors:
  0.000  1.000  0.000  0.000  0.000
  0.000  0.000  0.304  0.696  0.000
  0.000  0.000  0.696  0.304  0.000
  1.000  0.000  0.000  0.000  0.000
  0.000  0.000  0.000  0.000  1.000
    occupations:
  0.069 -0.000 -0.000  0.000  0.000
 -0.000  0.079 -0.000  0.000  0.000
 -0.000 -0.000  0.079  0.000  0.000
  0.000  0.000  0.000  0.051 -0.000
  0.000  0.000  0.000 -0.000  0.117
atomic mag. moment =     4.622164
atom    6   Tr[ns(na)] (up, down, total) =   0.39967  5.01759  5.41726
   spin  1
    eigenvalues: 
  0.052  0.070  0.078  0.078  0.121
    eigenvectors:
  0.000  1.000  0.000  0.000  0.000
  0.000  0.000  0.256  0.744  0.000
  0.000  0.000  0.744  0.256  0.000
  1.000  0.000  0.000  0.000  0.000
  0.000  0.000  0.000  0.000  1.000
    occupations:
  0.070 -0.000 -0.000  0.000  0.000
 -0.000  0.078 -0.000  0.000  0.000
 -0.000 -0.000  0.078  0.000  0.000
  0.000  0.000  0.000  0.052 -0.000
  0.000  0.000  0.000 -0.000  0.121
   spin  2
    eigenvalues: 
  1.003  1.003  1.003  1.004  1.004
    eigenvectors:
  0.000  0.000  0.000  1.000  0.000
  0.000  0.270  0.730  0.000  0.000
  0.000  0.730  0.270  0.000  0.000
  0.000  0.000  0.000  0.000  1.000
  1.000  0.000  0.000  0.000  0.000
    occupations:
  1.004 -0.000 -0.000  0.000  0.000
 -0.000  1.003 -0.000  0.000  0.000
 -0.000 -0.000  1.003  0.000  0.000
  0.000  0.000  0.000  1.004 -0.000
  0.000  0.000  0.000 -0.000  1.003
atomic mag. moment =    -4.617915
atom    7   Tr[ns(na)] (up, down, total) =   5.01742  0.39673  5.41415
   spin  1
    eigenvalues: 
  1.003  1.003  1.003  1.004  1.004
    eigenvectors:
  0.000  0.000  0.000  1.000  0.000
  0.000  0.332  0.668  0.000  0.000
  0.000  0.668  0.332  0.000  0.000
  0.000  0.000  0.000  0.000  1.000
  1.000  0.000  0.000  0.000  0.000
    occupations:
  1.004 -0.000 -0.000  0.000  0.000
 -0.000  1.003 -0.000  0.000  0.000
 -0.000 -0.000  1.003  0.000  0.000
  0.000  0.000  0.000  1.004 -0.000
  0.000  0.000  0.000 -0.000  1.003
   spin  2
    eigenvalues: 
  0.052  0.069  0.077  0.077  0.122
    eigenvectors:
  0.000  1.000  0.000  0.000  0.000
  0.000  0.000  0.267  0.733  0.000
  0.000  0.000  0.733  0.267  0.000
  1.000  0.000  0.000  0.000  0.000
  0.000  0.000  0.000  0.000  1.000
    occupations:
  0.069 -0.000 -0.000  0.000  0.000
 -0.000  0.077 -0.000  0.000  0.000
 -0.000 -0.000  0.077  0.000  0.000
  0.000  0.000  0.000  0.052 -0.000
  0.000  0.000  0.000 -0.000  0.122
atomic mag. moment =     4.620687
atom    8   Tr[ns(na)] (up, down, total) =   0.39967  5.01759  5.41726
   spin  1
    eigenvalues: 
  0.052  0.070  0.078  0.078  0.121
    eigenvectors:
  0.000  1.000  0.000  0.000  0.000
  0.000  0.000  0.261  0.739  0.000
  0.000  0.000  0.739  0.261  0.000
  1.000  0.000  0.000  0.000  0.000
  0.000  0.000  0.000  0.000  1.000
    occupations:
  0.070 -0.000 -0.000  0.000  0.000
 -0.000  0.078 -0.000  0.000  0.000
 -0.000 -0.000  0.078  0.000  0.000
  0.000  0.000  0.000  0.052 -0.000
  0.000  0.000  0.000 -0.000  0.121
   spin  2
    eigenvalues: 
  1.003  1.003  1.003  1.004  1.004
    eigenvectors:
  0.000  0.000  0.000  1.000  0.000
  0.000  0.315  0.685  0.000  0.000
  0.000  0.685  0.315  0.000  0.000
  0.000  0.000  0.000  0.000  1.000
  1.000  0.000  0.000  0.000  0.000
    occupations:
  1.004 -0.000 -0.000  0.000  0.000
 -0.000  1.003 -0.000  0.000  0.000
 -0.000 -0.000  1.003  0.000  0.000
  0.000  0.000  0.000  1.004 -0.000
  0.000  0.000  0.000 -0.000  1.003
atomic mag. moment =    -4.617915
N of occupied +U levels =   43.297888
 --- exit write_ns ---

     total cpu time spent up to now is      104.2 secs

     total energy              =  -14687.30234478 Ry
     Harris-Foulkes estimate   =  -14685.84046983 Ry
     estimated scf accuracy    <      11.49689177 Ry

     total magnetization       =    20.35 Bohr mag/cell
     absolute magnetization    =    41.74 Bohr mag/cell

     iteration #  2     ecut=    45.00 Ry     beta= 0.10
     Davidson diagonalization with overlap
     ethr =  3.88E-03,  avg # of iterations =  1.0

     total cpu time spent up to now is      146.6 secs

     total energy              =  -14692.59527468 Ry
     Harris-Foulkes estimate   =  -14687.37528140 Ry
     estimated scf accuracy    <       9.26727306 Ry

     total magnetization       =    20.13 Bohr mag/cell
     absolute magnetization    =    41.42 Bohr mag/cell

     iteration #  3     ecut=    45.00 Ry     beta= 0.10
     Davidson diagonalization with overlap
     ethr =  3.13E-03,  avg # of iterations =  3.0

     total cpu time spent up to now is      208.7 secs

     total energy              =  -14693.64539109 Ry
     Harris-Foulkes estimate   =  -14694.17265192 Ry
     estimated scf accuracy    <      36.93765707 Ry

     total magnetization       =    18.73 Bohr mag/cell
     absolute magnetization    =    38.67 Bohr mag/cell

     iteration #  4     ecut=    45.00 Ry     beta= 0.10
     Davidson diagonalization with overlap
     ethr =  3.13E-03,  avg # of iterations =  1.5

     total cpu time spent up to now is      253.9 secs

     total energy              =  -14694.00127816 Ry
     Harris-Foulkes estimate   =  -14693.99660956 Ry
     estimated scf accuracy    <       3.42209644 Ry

     total magnetization       =    18.69 Bohr mag/cell
     absolute magnetization    =    38.81 Bohr mag/cell

     iteration #  5     ecut=    45.00 Ry     beta= 0.10
     Davidson diagonalization with overlap
     ethr =  1.16E-03,  avg # of iterations =  1.3

     total cpu time spent up to now is      298.3 secs

     total energy              =  -14694.13557214 Ry
     Harris-Foulkes estimate   =  -14694.00495255 Ry
     estimated scf accuracy    <       3.47152105 Ry

     total magnetization       =    18.69 Bohr mag/cell
     absolute magnetization    =    38.80 Bohr mag/cell

     iteration #  6     ecut=    45.00 Ry     beta= 0.10
     Davidson diagonalization with overlap
     ethr =  1.16E-03,  avg # of iterations =  1.4

     total cpu time spent up to now is      343.1 secs

     total energy              =  -14693.68425613 Ry
     Harris-Foulkes estimate   =  -14694.16374596 Ry
     estimated scf accuracy    <       2.71191774 Ry

     total magnetization       =    18.51 Bohr mag/cell
     absolute magnetization    =    38.64 Bohr mag/cell

     iteration #  7     ecut=    45.00 Ry     beta= 0.10
     Davidson diagonalization with overlap
     ethr =  9.16E-04,  avg # of iterations =  4.2

     total cpu time spent up to now is      425.4 secs

     total energy              =  -14694.08126949 Ry
     Harris-Foulkes estimate   =  -14694.16384567 Ry
     estimated scf accuracy    <       1.25799376 Ry

     total magnetization       =    16.90 Bohr mag/cell
     absolute magnetization    =    37.31 Bohr mag/cell

     iteration #  8     ecut=    45.00 Ry     beta= 0.10
     Davidson diagonalization with overlap
     ethr =  4.25E-04,  avg # of iterations =  1.5

     total cpu time spent up to now is      471.0 secs

     total energy              =  -14694.07473111 Ry
     Harris-Foulkes estimate   =  -14694.11817046 Ry
     estimated scf accuracy    <       0.69795842 Ry

     total magnetization       =    17.39 Bohr mag/cell
     absolute magnetization    =    37.73 Bohr mag/cell

     iteration #  9     ecut=    45.00 Ry     beta= 0.10
     Davidson diagonalization with overlap
     ethr =  2.36E-04,  avg # of iterations =  1.5

     total cpu time spent up to now is      516.7 secs

     total energy              =  -14693.99869947 Ry
     Harris-Foulkes estimate   =  -14694.08150946 Ry
     estimated scf accuracy    <       0.71591736 Ry

     total magnetization       =    17.32 Bohr mag/cell
     absolute magnetization    =    37.66 Bohr mag/cell

     iteration # 10     ecut=    45.00 Ry     beta= 0.10
     Davidson diagonalization with overlap
     ethr =  2.36E-04,  avg # of iterations =  1.5

     total cpu time spent up to now is      562.5 secs

     total energy              =  -14694.00102189 Ry
     Harris-Foulkes estimate   =  -14694.02583488 Ry
     estimated scf accuracy    <       0.14147153 Ry

     total magnetization       =    17.55 Bohr mag/cell
     absolute magnetization    =    37.77 Bohr mag/cell

     iteration # 11     ecut=    45.00 Ry     beta= 0.10
     Davidson diagonalization with overlap
     ethr =  4.78E-05,  avg # of iterations =  3.7

     total cpu time spent up to now is      630.1 secs

     total energy              =  -14694.00727808 Ry
     Harris-Foulkes estimate   =  -14694.01258236 Ry
     estimated scf accuracy    <       0.05220258 Ry

     total magnetization       =    17.51 Bohr mag/cell
     absolute magnetization    =    37.66 Bohr mag/cell

     iteration # 12     ecut=    45.00 Ry     beta= 0.10
     Davidson diagonalization with overlap
     ethr =  1.76E-05,  avg # of iterations =  1.6

     total cpu time spent up to now is      676.7 secs

     total energy              =  -14694.00936032 Ry
     Harris-Foulkes estimate   =  -14694.00975829 Ry
     estimated scf accuracy    <       0.02096584 Ry

     total magnetization       =    17.42 Bohr mag/cell
     absolute magnetization    =    37.54 Bohr mag/cell

     iteration # 13     ecut=    45.00 Ry     beta= 0.10
     Davidson diagonalization with overlap
     ethr =  7.08E-06,  avg # of iterations =  2.9

     total cpu time spent up to now is      736.8 secs

     total energy              =  -14694.01334398 Ry
     Harris-Foulkes estimate   =  -14694.01177763 Ry
     estimated scf accuracy    <       0.03414205 Ry

     total magnetization       =    17.37 Bohr mag/cell
     absolute magnetization    =    37.49 Bohr mag/cell

     iteration # 14     ecut=    45.00 Ry     beta= 0.10
     Davidson diagonalization with overlap
     ethr =  7.08E-06,  avg # of iterations =  1.5

     total cpu time spent up to now is      782.6 secs

     total energy              =  -14694.01475488 Ry
     Harris-Foulkes estimate   =  -14694.01411792 Ry
     estimated scf accuracy    <       0.00405029 Ry

     total magnetization       =    17.38 Bohr mag/cell
     absolute magnetization    =    37.42 Bohr mag/cell

     iteration # 15     ecut=    45.00 Ry     beta= 0.10
     Davidson diagonalization with overlap
     ethr =  1.37E-06,  avg # of iterations =  4.4

     total cpu time spent up to now is      851.1 secs

     total energy              =  -14694.01496982 Ry
     Harris-Foulkes estimate   =  -14694.01497357 Ry
     estimated scf accuracy    <       0.00125195 Ry

     total magnetization       =    17.35 Bohr mag/cell
     absolute magnetization    =    37.37 Bohr mag/cell

     iteration # 16     ecut=    45.00 Ry     beta= 0.10
     Davidson diagonalization with overlap
     ethr =  4.23E-07,  avg # of iterations =  2.7

     total cpu time spent up to now is      913.0 secs

     total energy              =  -14694.01504360 Ry
     Harris-Foulkes estimate   =  -14694.01510169 Ry
     estimated scf accuracy    <       0.00043735 Ry

     total magnetization       =    17.32 Bohr mag/cell
     absolute magnetization    =    37.33 Bohr mag/cell

     iteration # 17     ecut=    45.00 Ry     beta= 0.10
     Davidson diagonalization with overlap
     ethr =  1.48E-07,  avg # of iterations =  2.0

     total cpu time spent up to now is      962.7 secs

     total energy              =  -14694.01509902 Ry
     Harris-Foulkes estimate   =  -14694.01508163 Ry
     estimated scf accuracy    <       0.00015938 Ry

     total magnetization       =    17.32 Bohr mag/cell
     absolute magnetization    =    37.32 Bohr mag/cell

     iteration # 18     ecut=    45.00 Ry     beta= 0.10
     Davidson diagonalization with overlap
     ethr =  5.38E-08,  avg # of iterations =  2.5

     total cpu time spent up to now is     1019.9 secs

     total energy              =  -14694.01515153 Ry
     Harris-Foulkes estimate   =  -14694.01512911 Ry
     estimated scf accuracy    <       0.00018062 Ry

     total magnetization       =    17.33 Bohr mag/cell
     absolute magnetization    =    37.32 Bohr mag/cell

     iteration # 19     ecut=    45.00 Ry     beta= 0.10
     Davidson diagonalization with overlap
     ethr =  5.38E-08,  avg # of iterations =  1.5

     total cpu time spent up to now is     1065.2 secs

     total energy              =  -14694.01517082 Ry
     Harris-Foulkes estimate   =  -14694.01514655 Ry
     estimated scf accuracy    <       0.00008049 Ry

     total magnetization       =    17.33 Bohr mag/cell
     absolute magnetization    =    37.32 Bohr mag/cell

     iteration # 20     ecut=    45.00 Ry     beta= 0.10
     Davidson diagonalization with overlap
     ethr =  2.72E-08,  avg # of iterations =  2.0

     total cpu time spent up to now is     1115.3 secs

     total energy              =  -14694.01517557 Ry
     Harris-Foulkes estimate   =  -14694.01516702 Ry
     estimated scf accuracy    <       0.00002750 Ry

     total magnetization       =    17.33 Bohr mag/cell
     absolute magnetization    =    37.31 Bohr mag/cell

     iteration # 21     ecut=    45.00 Ry     beta= 0.10
     Davidson diagonalization with overlap
     ethr =  9.29E-09,  avg # of iterations =  2.0

     total cpu time spent up to now is     1164.7 secs

     total energy              =  -14694.01519204 Ry
     Harris-Foulkes estimate   =  -14694.01518252 Ry
     estimated scf accuracy    <       0.00001778 Ry

     total magnetization       =    17.33 Bohr mag/cell
     absolute magnetization    =    37.31 Bohr mag/cell

     iteration # 22     ecut=    45.00 Ry     beta= 0.10
     Davidson diagonalization with overlap
     ethr =  6.01E-09,  avg # of iterations =  2.5

     total cpu time spent up to now is     1221.6 secs

     total energy              =  -14694.01519418 Ry
     Harris-Foulkes estimate   =  -14694.01519147 Ry
     estimated scf accuracy    <       0.00000594 Ry

     total magnetization       =    17.33 Bohr mag/cell
     absolute magnetization    =    37.31 Bohr mag/cell

     iteration # 23     ecut=    45.00 Ry     beta= 0.10
     Davidson diagonalization with overlap
     ethr =  2.01E-09,  avg # of iterations =  2.8

     total cpu time spent up to now is     1277.8 secs

     total energy              =  -14694.01519462 Ry
     Harris-Foulkes estimate   =  -14694.01519322 Ry
     estimated scf accuracy    <       0.00000792 Ry

     total magnetization       =    17.33 Bohr mag/cell
     absolute magnetization    =    37.30 Bohr mag/cell

     iteration # 24     ecut=    45.00 Ry     beta= 0.10
     Davidson diagonalization with overlap
     ethr =  2.01E-09,  avg # of iterations =  1.3

     total cpu time spent up to now is     1322.1 secs

     total energy              =  -14694.01518968 Ry
     Harris-Foulkes estimate   =  -14694.01518881 Ry
     estimated scf accuracy    <       0.00000127 Ry

     total magnetization       =    17.33 Bohr mag/cell
     absolute magnetization    =    37.30 Bohr mag/cell

     iteration # 25     ecut=    45.00 Ry     beta= 0.10
     Davidson diagonalization with overlap
     ethr =  4.29E-10,  avg # of iterations =  2.5
 
     Magnetic moment per site:
     atom:    1    charge:   13.5470    magn:    4.2528    constr:    0.0000
     atom:    2    charge:   13.5529    magn:    4.2144    constr:    0.0000
     atom:    3    charge:   13.5533    magn:    4.2158    constr:    0.0000
     atom:    4    charge:   13.5529    magn:    4.2144    constr:    0.0000
     atom:    5    charge:   13.5470    magn:    4.2528    constr:    0.0000
     atom:    6    charge:   13.5444    magn:   -4.2718    constr:    0.0000
     atom:    7    charge:   13.5412    magn:    4.2901    constr:    0.0000
     atom:    8    charge:   13.5444    magn:   -4.2718    constr:    0.0000
     atom:    9    charge:    9.1375    magn:    0.0289    constr:    0.0000
     atom:   10    charge:    9.1369    magn:    0.0290    constr:    0.0000
     atom:   11    charge:    9.1363    magn:    0.0302    constr:    0.0000
     atom:   12    charge:    9.1349    magn:    0.0265    constr:    0.0000
     atom:   13    charge:    9.1349    magn:    0.0265    constr:    0.0000
     atom:   14    charge:    9.1363    magn:    0.0302    constr:    0.0000
     atom:   15    charge:    9.1369    magn:    0.0290    constr:    0.0000
     atom:   16    charge:    9.1375    magn:    0.0289    constr:    0.0000
     atom:   17    charge:    9.1393    magn:    0.0385    constr:    0.0000
     atom:   18    charge:    9.1400    magn:   -0.0372    constr:    0.0000
     atom:   19    charge:    9.1407    magn:   -0.0330    constr:    0.0000
     atom:   20    charge:    9.1406    magn:    0.0368    constr:    0.0000
     atom:   21    charge:    9.1406    magn:    0.0368    constr:    0.0000
     atom:   22    charge:    9.1407    magn:   -0.0330    constr:    0.0000
     atom:   23    charge:    9.1400    magn:   -0.0372    constr:    0.0000
     atom:   24    charge:    9.1393    magn:    0.0385    constr:    0.0000

     total cpu time spent up to now is     1374.8 secs

     End of self-consistent calculation
 --- enter write_ns ---
 LDA+U parameters:
U(  1) =   3.1200   J(  1) =   0.7000   B(  1) =   0.0803
U(  2) =   3.1200   J(  2) =   0.7000   B(  2) =   0.0803
atom    1   Tr[ns(na)] (up, down, total) =   4.97511  0.71968  5.69479
   spin  1
    eigenvalues: 
  0.986  0.995  0.995  0.998  1.002
    eigenvectors:
  0.000  0.000  0.000  1.000  0.000
  0.000  0.307  0.693  0.000  0.000
  0.000  0.693  0.307  0.000  0.000
  0.000  0.000  0.000  0.000  1.000
  1.000  0.000  0.000  0.000  0.000
    occupations:
  0.998 -0.000 -0.000  0.000  0.000
 -0.000  0.995 -0.000  0.000  0.000
 -0.000 -0.000  0.995  0.000  0.000
  0.000  0.000  0.000  1.002 -0.000
  0.000  0.000  0.000 -0.000  0.986
   spin  2
    eigenvalues: 
  0.066  0.124  0.140  0.140  0.248
    eigenvectors:
  0.000  1.000  0.000  0.000  0.000
  0.000  0.000  0.382  0.618  0.000
  0.000  0.000  0.618  0.382  0.000
  1.000  0.000  0.000  0.000  0.000
  0.000  0.000  0.000  0.000  1.000
    occupations:
  0.124 -0.000 -0.000  0.000  0.000
 -0.000  0.140 -0.000  0.000  0.000
 -0.000 -0.000  0.140  0.000  0.000
  0.000  0.000  0.000  0.066 -0.000
  0.000  0.000  0.000 -0.000  0.248
atomic mag. moment =     4.255424
atom    2   Tr[ns(na)] (up, down, total) =   4.97205  0.75242  5.72447
   spin  1
    eigenvalues: 
  0.985  0.994  0.994  0.997  1.002
    eigenvectors:
  0.000  0.000  0.000  1.000  0.000
  0.000  0.339  0.661  0.000  0.000
  0.000  0.661  0.339  0.000  0.000
  0.000  0.000  0.000  0.000  1.000
  1.000  0.000  0.000  0.000  0.000
    occupations:
  0.997 -0.000 -0.000  0.000  0.000
 -0.000  0.994 -0.000  0.000  0.000
 -0.000 -0.000  0.994  0.000  0.000
  0.000  0.000  0.000  1.002 -0.000
  0.000  0.000  0.000 -0.000  0.985
   spin  2
    eigenvalues: 
  0.064  0.136  0.143  0.143  0.268
    eigenvectors:
  0.000  1.000  0.000  0.000  0.000
  0.000  0.000  0.338  0.662  0.000
  0.000  0.000  0.662  0.338  0.000
  1.000  0.000  0.000  0.000  0.000
  0.000  0.000  0.000  0.000  1.000
    occupations:
  0.136 -0.000 -0.000  0.000  0.000
 -0.000  0.143 -0.000  0.000  0.000
 -0.000 -0.000  0.143  0.000  0.000
  0.000  0.000  0.000  0.064 -0.000
  0.000  0.000  0.000 -0.000  0.268
atomic mag. moment =     4.219635
atom    3   Tr[ns(na)] (up, down, total) =   4.97238  0.75111  5.72350
   spin  1
    eigenvalues: 
  0.985  0.994  0.994  0.998  1.002
    eigenvectors:
  0.000  0.000  0.000  1.000  0.000
  0.000  0.393  0.607  0.000  0.000
  0.000  0.607  0.393  0.000  0.000
  0.000  0.000  0.000  0.000  1.000
  1.000  0.000  0.000  0.000  0.000
    occupations:
  0.998 -0.000 -0.000  0.000  0.000
 -0.000  0.994 -0.000  0.000  0.000
 -0.000 -0.000  0.994  0.000  0.000
  0.000  0.000  0.000  1.002 -0.000
  0.000  0.000  0.000 -0.000  0.985
   spin  2
    eigenvalues: 
  0.064  0.138  0.141  0.141  0.267
    eigenvectors:
  0.000  1.000  0.000  0.000  0.000
  0.000  0.000  0.297  0.703  0.000
  0.000  0.000  0.703  0.297  0.000
  1.000  0.000  0.000  0.000  0.000
  0.000  0.000  0.000  0.000  1.000
    occupations:
  0.138 -0.000 -0.000  0.000  0.000
 -0.000  0.141 -0.000  0.000  0.000
 -0.000 -0.000  0.141  0.000  0.000
  0.000  0.000  0.000  0.064 -0.000
  0.000  0.000  0.000 -0.000  0.267
atomic mag. moment =     4.221270
atom    4   Tr[ns(na)] (up, down, total) =   4.97205  0.75242  5.72447
   spin  1
    eigenvalues: 
  0.985  0.994  0.994  0.997  1.002
    eigenvectors:
  0.000  0.000  0.000  1.000  0.000
  0.000  0.292  0.708  0.000  0.000
  0.000  0.708  0.292  0.000  0.000
  0.000  0.000  0.000  0.000  1.000
  1.000  0.000  0.000  0.000  0.000
    occupations:
  0.997 -0.000 -0.000  0.000  0.000
 -0.000  0.994 -0.000  0.000  0.000
 -0.000 -0.000  0.994  0.000  0.000
  0.000  0.000  0.000  1.002 -0.000
  0.000  0.000  0.000 -0.000  0.985
   spin  2
    eigenvalues: 
  0.064  0.136  0.143  0.143  0.268
    eigenvectors:
  0.000  1.000  0.000  0.000  0.000
  0.000  0.000  0.376  0.624  0.000
  0.000  0.000  0.624  0.376  0.000
  1.000  0.000  0.000  0.000  0.000
  0.000  0.000  0.000  0.000  1.000
    occupations:
  0.136 -0.000 -0.000  0.000  0.000
 -0.000  0.143 -0.000  0.000  0.000
 -0.000 -0.000  0.143  0.000  0.000
  0.000  0.000  0.000  0.064 -0.000
  0.000  0.000  0.000 -0.000  0.268
atomic mag. moment =     4.219635
atom    5   Tr[ns(na)] (up, down, total) =   4.97511  0.71968  5.69479
   spin  1
    eigenvalues: 
  0.986  0.995  0.995  0.998  1.002
    eigenvectors:
  0.000  0.000  0.000  1.000  0.000
  0.000  0.303  0.697  0.000  0.000
  0.000  0.697  0.303  0.000  0.000
  0.000  0.000  0.000  0.000  1.000
  1.000  0.000  0.000  0.000  0.000
    occupations:
  0.998 -0.000 -0.000  0.000  0.000
 -0.000  0.995 -0.000  0.000  0.000
 -0.000 -0.000  0.995  0.000  0.000
  0.000  0.000  0.000  1.002 -0.000
  0.000  0.000  0.000 -0.000  0.986
   spin  2
    eigenvalues: 
  0.066  0.124  0.140  0.140  0.248
    eigenvectors:
  0.000  1.000  0.000  0.000  0.000
  0.000  0.000  0.367  0.633  0.000
  0.000  0.000  0.633  0.367  0.000
  1.000  0.000  0.000  0.000  0.000
  0.000  0.000  0.000  0.000  1.000
    occupations:
  0.124 -0.000 -0.000  0.000  0.000
 -0.000  0.140 -0.000  0.000  0.000
 -0.000 -0.000  0.140  0.000  0.000
  0.000  0.000  0.000  0.066 -0.000
  0.000  0.000  0.000 -0.000  0.248
atomic mag. moment =     4.255424
atom    6   Tr[ns(na)] (up, down, total) =   0.70722  4.97479  5.68201
   spin  1
    eigenvalues: 
  0.066  0.115  0.142  0.142  0.243
    eigenvectors:
  0.000  1.000  0.000  0.000  0.000
  0.000  0.000  0.309  0.691  0.000
  0.000  0.000  0.691  0.309  0.000
  1.000  0.000  0.000  0.000  0.000
  0.000  0.000  0.000  0.000  1.000
    occupations:
  0.115 -0.000 -0.000  0.000  0.000
 -0.000  0.142 -0.000  0.000  0.000
 -0.000 -0.000  0.142  0.000  0.000
  0.000  0.000  0.000  0.066 -0.000
  0.000  0.000  0.000 -0.000  0.243
   spin  2
    eigenvalues: 
  0.985  0.994  0.994  0.998  1.002
    eigenvectors:
  0.000  0.000  0.000  1.000  0.000
  0.000  0.279  0.721  0.000  0.000
  0.000  0.721  0.279  0.000  0.000
  0.000  0.000  0.000  0.000  1.000
  1.000  0.000  0.000  0.000  0.000
    occupations:
  0.998 -0.000 -0.000  0.000  0.000
 -0.000  0.994 -0.000  0.000  0.000
 -0.000 -0.000  0.994  0.000  0.000
  0.000  0.000  0.000  1.002 -0.000
  0.000  0.000  0.000 -0.000  0.985
atomic mag. moment =    -4.267577
atom    7   Tr[ns(na)] (up, down, total) =   4.97721  0.68835  5.66556
   spin  1
    eigenvalues: 
  0.986  0.995  0.995  0.999  1.003
    eigenvectors:
  0.000  0.000  0.000  1.000  0.000
  0.000  0.312  0.688  0.000  0.000
  0.000  0.688  0.312  0.000  0.000
  0.000  0.000  0.000  0.000  1.000
  1.000  0.000  0.000  0.000  0.000
    occupations:
  0.999 -0.000 -0.000  0.000  0.000
 -0.000  0.995 -0.000  0.000  0.000
 -0.000 -0.000  0.995  0.000  0.000
  0.000  0.000  0.000  1.003 -0.000
  0.000  0.000  0.000 -0.000  0.986
   spin  2
    eigenvalues: 
  0.067  0.103  0.140  0.140  0.239
    eigenvectors:
  0.000  1.000  0.000  0.000  0.000
  0.000  0.000  0.303  0.697  0.000
  0.000  0.000  0.697  0.303  0.000
  1.000  0.000  0.000  0.000  0.000
  0.000  0.000  0.000  0.000  1.000
    occupations:
  0.103 -0.000 -0.000  0.000  0.000
 -0.000  0.140 -0.000  0.000  0.000
 -0.000 -0.000  0.140  0.000  0.000
  0.000  0.000  0.000  0.067 -0.000
  0.000  0.000  0.000 -0.000  0.239
atomic mag. moment =     4.288860
atom    8   Tr[ns(na)] (up, down, total) =   0.70722  4.97479  5.68201
   spin  1
    eigenvalues: 
  0.066  0.115  0.142  0.142  0.243
    eigenvectors:
  0.000  1.000  0.000  0.000  0.000
  0.000  0.000  0.333  0.667  0.000
  0.000  0.000  0.667  0.333  0.000
  1.000  0.000  0.000  0.000  0.000
  0.000  0.000  0.000  0.000  1.000
    occupations:
  0.115 -0.000 -0.000  0.000  0.000
 -0.000  0.142 -0.000  0.000  0.000
 -0.000 -0.000  0.142  0.000  0.000
  0.000  0.000  0.000  0.066 -0.000
  0.000  0.000  0.000 -0.000  0.243
   spin  2
    eigenvalues: 
  0.985  0.994  0.994  0.998  1.002
    eigenvectors:
  0.000  0.000  0.000  1.000  0.000
  0.000  0.322  0.678  0.000  0.000
  0.000  0.678  0.322  0.000  0.000
  0.000  0.000  0.000  0.000  1.000
  1.000  0.000  0.000  0.000  0.000
    occupations:
  0.998 -0.000 -0.000  0.000  0.000
 -0.000  0.994 -0.000  0.000  0.000
 -0.000 -0.000  0.994  0.000  0.000
  0.000  0.000  0.000  1.002 -0.000
  0.000  0.000  0.000 -0.000  0.985
atomic mag. moment =    -4.267577
N of occupied +U levels =   45.591599
 --- exit write_ns ---

 ------ SPIN UP ------------


          k = 0.0000 0.0000 0.0000 ( 14071 PWs)   bands (ev):

   -67.1486 -67.0304 -67.0304 -66.9006 -66.9006 -66.8792 -62.4952 -62.4952
   -35.9204 -35.8607 -35.8607 -35.8003 -35.8003 -35.7460 -35.7460 -35.7460
   -35.7460 -35.6817 -35.6817 -35.6587 -35.6131 -35.6131 -35.6131 -35.6131
   -35.5929 -35.5929 -31.3143 -31.3143 -31.3143 -31.3143 -31.3136 -31.3136
     5.5825   5.7245   5.7299   6.1064   6.2096   6.8132   6.8144   7.4000
     7.9875   8.1929   8.2059   8.2506   8.2876   8.3021   8.3360   8.3853
     8.5155   8.5651   8.5715   8.6013   8.7022   8.8171   8.9852   8.9935
     9.0143   9.1449   9.1686   9.2052   9.3299   9.3629   9.4359   9.6990
     9.7196   9.7578   9.7679   9.8401   9.8658   9.8950   9.9108   9.9243
     9.9243   9.9826   9.9826  10.0040  10.0040  10.0182  10.0630  10.1417
    10.1417  10.1528  10.1528  10.2172  10.2759  10.2759  10.3283  10.3283
    10.3324  10.3324  10.3571  10.3611  10.3914  10.3914  10.3973  10.3973
    10.4140  10.4140  10.4694  10.5108  10.5108  10.5154  10.5154  10.6538
    10.6934  10.8001  10.8001  10.8153  10.8642  10.8642  10.9140  10.9765
    11.0259  11.0341  11.1120  11.1884  11.2016  11.2369  11.2369  11.2848
    11.2910  11.3184  11.3184  11.4574  11.5043  11.5156  11.5800  11.6932
    11.6944  11.6944  11.7374  11.7951  11.8390  11.8555  11.9162  11.9162
    11.9456  11.9741  12.0942  12.0942  12.2389  12.2885  12.2885  12.4206
    12.4808  12.5186  12.5186  12.5197  12.5887  12.7257  12.7560  12.8275
    12.8550  13.4935  13.8661  14.7764  14.9538  16.0556  16.6111  16.6111
    16.6442  16.6444  16.6569  16.6569  16.8480  16.8481  17.0194  17.2094
    17.7467  18.9460  18.9907  19.8543  19.8543  20.2013  20.2013  20.2139
    20.2139  20.8517

          k = 0.0000 0.0000 0.0159 ( 14107 PWs)   bands (ev):

   -67.1486 -67.0304 -67.0304 -66.9006 -66.9006 -66.8792 -62.4952 -62.4952
   -35.9204 -35.8607 -35.8607 -35.8003 -35.8003 -35.7460 -35.7460 -35.7460
   -35.7460 -35.6817 -35.6817 -35.6587 -35.6131 -35.6131 -35.6131 -35.6131
   -35.5929 -35.5929 -31.3143 -31.3143 -31.3143 -31.3143 -31.3136 -31.3136
     5.5866   5.6834   5.7781   6.0572   6.2651   6.6962   6.9339   7.3675
     8.0194   8.1930   8.2072   8.2499   8.2886   8.2917   8.3493   8.3846
     8.4656   8.5090   8.5722   8.6848   8.7184   8.8155   8.9445   9.0191
     9.0305   9.1291   9.1617   9.1988   9.3385   9.3687   9.4358   9.6891
     9.7198   9.7564   9.7693   9.8529   9.8655   9.8949   9.9108   9.9248
     9.9248   9.9762   9.9762  10.0141  10.0141  10.0186  10.0549  10.1138
    10.1138  10.1834  10.1834  10.2160  10.2758  10.2758  10.3260  10.3260
    10.3322  10.3322  10.3577  10.3577  10.3621  10.3645  10.4125  10.4125
    10.4283  10.4283  10.4652  10.4963  10.4963  10.5380  10.5380  10.6569
    10.6842  10.7611  10.7611  10.8266  10.9062  10.9062  10.9083  10.9712
    11.0259  11.0416  11.1119  11.1888  11.1961  11.1961  11.1970  11.2844
    11.2927  11.3556  11.3556  11.4600  11.5017  11.5158  11.5823  11.6783
    11.6783  11.6925  11.7326  11.7949  11.8391  11.8621  11.9324  11.9324
    11.9456  11.9704  12.0842  12.0842  12.2401  12.2909  12.2909  12.4188
    12.4824  12.5184  12.5184  12.5283  12.5884  12.7131  12.7258  12.8275
    12.9033  13.4476  13.9272  14.6470  15.0796  16.0123  16.6111  16.6111
    16.6442  16.6444  16.6569  16.6569  16.8480  16.8481  17.0427  17.2055
    17.7768  18.6911  19.2684  19.8643  19.8643  20.1032  20.1032  20.3282
    20.3282  20.5748

          k = 0.0000 0.0000 0.0319 ( 14080 PWs)   bands (ev):

   -67.1486 -67.0304 -67.0304 -66.9006 -66.9006 -66.8792 -62.4952 -62.4952
   -35.9204 -35.8607 -35.8607 -35.8003 -35.8003 -35.7460 -35.7460 -35.7460
   -35.7460 -35.6817 -35.6817 -35.6587 -35.6131 -35.6131 -35.6131 -35.6131
   -35.5929 -35.5929 -31.3143 -31.3143 -31.3143 -31.3143 -31.3136 -31.3136
     5.5988   5.6473   5.8344   5.9851   6.3561   6.5843   7.0530   7.2869
     8.0961   8.1932   8.2114   8.2485   8.2777   8.2906   8.3468   8.3773
     8.3833   8.4885   8.5735   8.7289   8.7839   8.8122   8.9061   9.0298
     9.0456   9.1118   9.1472   9.1821   9.3534   9.3802   9.4355   9.6716
     9.7200   9.7543   9.7716   9.8648   9.8778   9.8945   9.9109   9.9260
     9.9260   9.9684   9.9684  10.0194  10.0335  10.0335  10.0372  10.0839
    10.0839  10.2137  10.2210  10.2210  10.2747  10.2747  10.3056  10.3056
    10.3319  10.3319  10.3379  10.3379  10.3720  10.3721  10.4128  10.4128
    10.4509  10.4509  10.4563  10.4840  10.4840  10.5713  10.5713  10.6630
    10.6682  10.7082  10.7082  10.8486  10.8979  10.9588  10.9684  10.9684
    11.0259  11.0564  11.1117  11.1327  11.1327  11.1868  11.1896  11.2837
    11.2962  11.4057  11.4057  11.4652  11.4968  11.5163  11.5866  11.6457
    11.6457  11.6913  11.7239  11.7944  11.8393  11.8757  11.9456  11.9619
    11.9686  11.9686  12.0579  12.0579  12.2424  12.2955  12.2955  12.4153
    12.4853  12.5179  12.5179  12.5534  12.5877  12.6510  12.7258  12.8275
    12.9745  13.3666  14.0563  14.4686  15.2386  15.9175  16.6111  16.6111
    16.6442  16.6444  16.6569  16.6569  16.8480  16.8481  17.0882  17.1944
    17.8555  18.4612  19.5793  19.8936  19.8936  20.0169  20.0169  20.2463
    20.4627  20.4627

          k = 0.0000 0.0000-0.0478 ( 14088 PWs)   bands (ev):

   -67.1486 -67.0304 -67.0304 -66.9006 -66.9006 -66.8792 -62.4952 -62.4952
   -35.9204 -35.8607 -35.8607 -35.8003 -35.8003 -35.7460 -35.7460 -35.7460
   -35.7460 -35.6817 -35.6817 -35.6587 -35.6131 -35.6131 -35.6131 -35.6131
   -35.5929 -35.5929 -31.3143 -31.3143 -31.3143 -31.3143 -31.3136 -31.3136
     5.6182   5.6200   5.8771   5.9364   6.4282   6.5060   7.1436   7.2067
     8.1563   8.1932   8.2247   8.2479   8.2575   8.2837   8.2916   8.3826
     8.3846   8.4774   8.5742   8.7430   8.8106   8.8219   8.8891   9.0326
     9.0359   9.1201   9.1394   9.1690   9.3600   9.3858   9.4352   9.6636
     9.7202   9.7534   9.7725   9.8644   9.8909   9.8943   9.9109   9.9266
     9.9266   9.9653   9.9653  10.0198  10.0269  10.0569  10.0569  10.0573
    10.0573  10.2126  10.2564  10.2564  10.2607  10.2607  10.2847  10.2847
    10.3317  10.3317  10.3358  10.3358  10.3764  10.3769  10.4128  10.4128
    10.4514  10.4617  10.4617  10.4765  10.4765  10.5939  10.5939  10.6609
    10.6661  10.6790  10.6790  10.8603  10.8931  10.9510  11.0093  11.0093
    11.0259  11.0640  11.0911  11.0911  11.1115  11.1812  11.1900  11.2833
    11.2979  11.4287  11.4287  11.4677  11.4944  11.5165  11.5886  11.6279
    11.6279  11.6907  11.7199  11.7942  11.8393  11.8830  11.9456  11.9568
    11.9977  11.9977  12.0330  12.0330  12.2436  12.2976  12.2976  12.4136
    12.4867  12.5177  12.5177  12.5854  12.5874  12.6057  12.7259  12.8275
    13.0102  13.3255  14.1534  14.3567  15.3131  15.8617  16.6111  16.6111
    16.6443  16.6444  16.6569  16.6569  16.8480  16.8481  17.1129  17.1853
    17.9132  18.3528  19.8432  19.9300  19.9300  19.9616  19.9616  19.9764
    20.5854  20.5854

          k = 0.0000 0.1667 0.0000 ( 14044 PWs)   bands (ev):

   -67.1482 -67.0300 -67.0300 -66.9002 -66.9002 -66.8788 -62.4952 -62.4952
   -35.9201 -35.8637 -35.8605 -35.8000 -35.8000 -35.7490 -35.7490 -35.7458
   -35.7458 -35.6814 -35.6814 -35.6584 -35.6161 -35.6161 -35.6129 -35.6129
   -35.5959 -35.5927 -31.3179 -31.3179 -31.3140 -31.3140 -31.3132 -31.3132
     6.0110   6.1451   6.1508   6.5045   6.5906   7.1290   7.1320   7.6197
     8.0237   8.3616   8.4104   8.4259   8.4297   8.4530   8.4635   8.4830
     8.5160   8.5714   8.6778   8.7089   8.7521   8.7820   8.8718   8.9433
     8.9582   8.9930   9.0307   9.2411   9.2849   9.4819   9.4820   9.5165
     9.5203   9.5223   9.5359   9.6211   9.6657   9.6881   9.6937   9.7286
     9.7330   9.7545   9.7690   9.8388   9.9455   9.9525   9.9576  10.0178
    10.0975  10.1282  10.1582  10.2150  10.2298  10.2563  10.2669  10.3404
    10.3722  10.3857  10.4043  10.4149  10.4548  10.4831  10.5858  10.6130
    10.6326  10.6468  10.6997  10.7306  10.7967  10.8063  10.8239  10.8654
    10.9026  10.9584  10.9781  11.0273  11.0303  11.0787  11.0957  11.1089
    11.1264  11.1547  11.1552  11.1817  11.1954  11.2548  11.2826  11.3246
    11.4071  11.4174  11.4455  11.5205  11.5273  11.5700  11.5713  11.6277
    11.6677  11.7032  11.7123  11.7292  11.8023  11.8264  11.9038  11.9205
    11.9370  11.9610  12.0264  12.1838  12.2088  12.2238  12.3199  12.3371
    12.4261  12.4265  12.4371  12.6050  12.6144  12.7265  12.7445  12.7448
    12.7972  13.5783  13.9410  15.0104  15.1812  16.2013  16.2869  16.4205
    16.6286  16.6507  16.6926  16.7077  16.8267  16.8403  17.2313  17.5641
    17.5932  17.8746  17.9418  18.0700  18.6815  18.7893  19.4909  19.5116
    19.7487  19.7534

          k = 0.0000 0.1667 0.0159 ( 14046 PWs)   bands (ev):

   -67.1482 -67.0300 -67.0300 -66.9002 -66.9002 -66.8788 -62.4952 -62.4952
   -35.9201 -35.8637 -35.8605 -35.8000 -35.8000 -35.7490 -35.7490 -35.7458
   -35.7458 -35.6814 -35.6814 -35.6584 -35.6161 -35.6161 -35.6129 -35.6129
   -35.5959 -35.5927 -31.3179 -31.3179 -31.3140 -31.3140 -31.3132 -31.3132
     6.0149   6.1066   6.1960   6.4568   6.6436   7.0280   7.2339   7.5923
     8.0476   8.3346   8.3791   8.4263   8.4421   8.4682   8.4755   8.4898
     8.5266   8.5717   8.6686   8.7032   8.7380   8.7961   8.8751   8.9492
     8.9523   8.9942   9.0316   9.2171   9.3119   9.4814   9.4828   9.5012
     9.5090   9.5305   9.5488   9.6155   9.6706   9.6875   9.6960   9.7276
     9.7351   9.7521   9.7691   9.8399   9.9390   9.9458   9.9652  10.0255
    10.0801  10.1525  10.1541  10.2169  10.2296  10.2513  10.2715  10.3418
    10.3507  10.3723  10.3867  10.4476  10.4705  10.4882  10.5867  10.6125
    10.6321  10.6465  10.6959  10.7227  10.7813  10.8063  10.8134  10.8910
    10.9207  10.9326  10.9992  11.0279  11.0324  11.0710  11.0951  11.1175
    11.1248  11.1444  11.1552  11.1589  11.2131  11.2533  11.2916  11.3174
    11.4051  11.4296  11.4465  11.5060  11.5156  11.5695  11.5894  11.6218
    11.6829  11.6982  11.7134  11.7361  11.7892  11.8265  11.9037  11.9049
    11.9445  11.9655  12.0347  12.1821  12.2046  12.2232  12.3133  12.3498
    12.4253  12.4342  12.4363  12.6052  12.6146  12.6588  12.7445  12.7448
    12.8753  13.5078  14.0254  14.8608  15.3222  16.1657  16.2834  16.4314
    16.6284  16.6513  16.6926  16.7077  16.8267  16.8403  17.2391  17.4913
    17.6131  17.8673  17.9894  18.1443  18.5755  18.9010  19.1862  19.5660
    19.8429  19.9244

          k = 0.0000 0.1667 0.0319 ( 14043 PWs)   bands (ev):

   -67.1482 -67.0300 -67.0300 -66.9002 -66.9002 -66.8788 -62.4952 -62.4952
   -35.9201 -35.8637 -35.8605 -35.8000 -35.8000 -35.7490 -35.7490 -35.7458
   -35.7458 -35.6814 -35.6814 -35.6584 -35.6161 -35.6161 -35.6129 -35.6129
   -35.5959 -35.5927 -31.3179 -31.3179 -31.3140 -31.3140 -31.3132 -31.3132
     6.0264   6.0725   6.2492   6.3888   6.7277   6.9288   7.3359   7.5245
     8.1042   8.2657   8.3785   8.4265   8.4294   8.4705   8.4776   8.5370
     8.5480   8.5767   8.6427   8.6910   8.7203   8.8125   8.8872   8.9342
     8.9633   8.9967   9.0331   9.1886   9.3495   9.4686   9.4851   9.4854
     9.5012   9.5400   9.5596   9.6056   9.6779   9.6863   9.7030   9.7239
     9.7393   9.7474   9.7692   9.8420   9.9280   9.9395   9.9736  10.0396
    10.0614  10.1455  10.1925  10.2211  10.2286  10.2448  10.2768  10.2959
    10.3444  10.3736  10.3885  10.4358  10.4952  10.5300  10.5887  10.6093
    10.6310  10.6461  10.6884  10.6894  10.7615  10.8091  10.8301  10.8976
    10.8981  10.9729  11.0140  11.0300  11.0433  11.0608  11.0942  11.1155
    11.1224  11.1261  11.1362  11.1543  11.2276  11.2477  11.3089  11.3157
    11.3972  11.4483  11.4497  11.4785  11.5024  11.5678  11.6183  11.6224
    11.6830  11.6954  11.7150  11.7641  11.7649  11.8267  11.8698  11.9039
    11.9537  11.9777  12.0480  12.1801  12.1941  12.2220  12.3089  12.3679
    12.4235  12.4270  12.4654  12.5788  12.6055  12.6149  12.7445  12.7447
    12.9791  13.3877  14.1902  14.6567  15.4924  16.0839  16.2806  16.4471
    16.6282  16.6525  16.6926  16.7077  16.8267  16.8403  17.2631  17.3950
    17.6336  17.8114  18.1373  18.2996  18.4406  18.8922  19.0571  19.3975
    20.0994  20.1798

          k = 0.0000 0.1667-0.0478 ( 14036 PWs)   bands (ev):

   -67.1482 -67.0300 -67.0300 -66.9002 -66.9002 -66.8788 -62.4952 -62.4952
   -35.9201 -35.8637 -35.8605 -35.8000 -35.8000 -35.7490 -35.7490 -35.7458
   -35.7458 -35.6814 -35.6814 -35.6584 -35.6161 -35.6161 -35.6129 -35.6129
   -35.5959 -35.5927 -31.3179 -31.3179 -31.3140 -31.3140 -31.3132 -31.3132
     6.0441   6.0472   6.2903   6.3422   6.7962   6.8558   7.4226   7.4472
     8.1540   8.2126   8.3803   8.4237   8.4266   8.4700   8.4786   8.5530
     8.5585   8.6058   8.6086   8.6807   8.7152   8.8181   8.9023   8.9176
     8.9694   8.9983   9.0338   9.1770   9.3693   9.4531   9.4845   9.4870
     9.4974   9.5443   9.5631   9.6008   9.6808   9.6854   9.7104   9.7186
     9.7415   9.7451   9.7692   9.8431   9.9232   9.9372   9.9772  10.0465
    10.0541  10.1408  10.2243  10.2270  10.2274  10.2422  10.2562  10.2787
    10.3455  10.3750  10.3894  10.4302  10.4980  10.5705  10.5897  10.5985
    10.6304  10.6459  10.6619  10.6865  10.7588  10.8073  10.8568  10.8676
    10.8998  11.0041  11.0165  11.0308  11.0548  11.0559  11.0935  11.0964
    11.1115  11.1205  11.1468  11.1469  11.2371  11.2402  11.3064  11.3334
    11.3878  11.4551  11.4554  11.4621  11.4986  11.5668  11.6178  11.6551
    11.6579  11.6977  11.7154  11.7532  11.7905  11.8274  11.8423  11.9038
    11.9567  11.9847  12.0537  12.1823  12.1854  12.2213  12.3082  12.3769
    12.4210  12.4237  12.5120  12.5148  12.6057  12.6150  12.7444  12.7447
    13.0366  13.3220  14.3145  14.5210  15.5724  16.0327  16.2799  16.4532
    16.6281  16.6530  16.6926  16.7077  16.8267  16.8403  17.2919  17.3393
    17.6458  17.7847  18.2610  18.3019  18.4654  18.7047  19.1921  19.2582
    20.2484  20.3012

          k = 0.0000 0.3333 0.0000 ( 14062 PWs)   bands (ev):

   -67.1485 -67.0303 -67.0303 -66.9005 -66.9005 -66.8791 -62.4942 -62.4942
   -35.9196 -35.8694 -35.8601 -35.7995 -35.7995 -35.7548 -35.7548 -35.7454
   -35.7454 -35.6809 -35.6809 -35.6579 -35.6219 -35.6219 -35.6126 -35.6126
   -35.6017 -35.5923 -31.3254 -31.3254 -31.3135 -31.3135 -31.3124 -31.3124
     7.1482   7.2515   7.2572   7.5082   7.5334   7.7943   7.7964   7.9483
     7.9969   8.0888   8.0927   8.2262   8.2360   8.4167   8.4315   8.5929
     8.6828   8.7287   8.8202   8.8531   8.8945   8.9040   8.9491   8.9513
     8.9739   9.1064   9.1087   9.1457   9.1586   9.1759   9.1856   9.2282
     9.2877   9.3176   9.3423   9.4329   9.4662   9.4816   9.4936   9.6213
     9.7168   9.7489   9.8246   9.8424   9.8512   9.9021   9.9591  10.1021
    10.2126  10.2218  10.2936  10.3037  10.3189  10.3728  10.4170  10.4226
    10.4790  10.5510  10.5959  10.6673  10.6692  10.7587  10.8139  10.8379
    10.9740  10.9741  11.0005  11.0032  11.0351  11.0489  11.1323  11.1632
    11.1660  11.1934  11.2188  11.2386  11.2541  11.2634  11.3215  11.3357
    11.3426  11.3507  11.3965  11.4253  11.4433  11.4797  11.5040  11.5200
    11.5716  11.5816  11.5833  11.6529  11.6692  11.6913  11.6975  11.7318
    11.7735  11.7759  11.8032  11.8342  11.8787  11.8847  11.9142  11.9215
    11.9561  12.0975  12.1825  12.1952  12.2030  12.3023  12.4284  12.4634
    12.4683  12.5163  12.6067  12.6452  12.6540  12.6802  12.7362  12.8024
    12.8393  13.8086  13.9843  14.3668  14.6243  14.6341  14.9859  15.1202
    15.2821  15.3809  15.7595  15.9418  16.1359  16.3984  16.5597  16.5615
    16.7004  16.8534  16.8657  17.1381  17.1384  17.1706  17.6269  17.8245
    18.8447  19.2382

          k = 0.0000 0.3333 0.0159 ( 14056 PWs)   bands (ev):

   -67.1485 -67.0303 -67.0303 -66.9005 -66.9005 -66.8791 -62.4942 -62.4942
   -35.9196 -35.8694 -35.8601 -35.7995 -35.7995 -35.7548 -35.7548 -35.7454
   -35.7454 -35.6809 -35.6809 -35.6579 -35.6219 -35.6219 -35.6126 -35.6126
   -35.6017 -35.5923 -31.3254 -31.3254 -31.3135 -31.3135 -31.3124 -31.3124
     7.1512   7.2230   7.2903   7.4699   7.5721   7.7560   7.8309   7.9400
     8.0039   8.0714   8.1111   8.2039   8.2597   8.3891   8.4596   8.5824
     8.6894   8.7308   8.8170   8.8368   8.8975   8.9233   8.9453   8.9559
     8.9740   9.1064   9.1084   9.1453   9.1542   9.1601   9.1868   9.2231
     9.2921   9.3176   9.3650   9.4330   9.4625   9.4819   9.4939   9.6273
     9.7119   9.7480   9.7580   9.8453   9.8994   9.9220   9.9611  10.1024
    10.2109  10.2214  10.2728  10.2884  10.3147  10.3829  10.4291  10.4302
    10.4743  10.5604  10.6100  10.6133  10.7256  10.7578  10.8090  10.8480
    10.9347  10.9617  10.9937  11.0200  11.0489  11.0714  11.0818  11.1630
    11.1658  11.1802  11.2213  11.2390  11.2653  11.2856  11.3223  11.3228
    11.3466  11.3597  11.4013  11.4389  11.4434  11.4792  11.4909  11.5335
    11.5633  11.5663  11.5983  11.6523  11.6858  11.6867  11.6998  11.7196
    11.7715  11.7899  11.8078  11.8347  11.8544  11.8787  11.9120  11.9496
    11.9511  12.0963  12.1662  12.1890  12.2299  12.3038  12.4179  12.4618
    12.4768  12.4865  12.5174  12.6053  12.6802  12.7365  12.8024  12.8330
    12.8393  13.6655  14.1247  14.3742  14.5550  14.7065  14.8911  15.1456
    15.2682  15.4599  15.7212  15.9305  16.1388  16.4009  16.5597  16.5615
    16.7028  16.8387  16.8937  17.1381  17.1384  17.1629  17.6296  17.8195
    18.8454  19.1608

          k = 0.0000 0.3333 0.0319 ( 14062 PWs)   bands (ev):

   -67.1485 -67.0303 -67.0303 -66.9005 -66.9005 -66.8791 -62.4942 -62.4942
   -35.9196 -35.8694 -35.8601 -35.7995 -35.7995 -35.7548 -35.7548 -35.7454
   -35.7454 -35.6809 -35.6809 -35.6579 -35.6219 -35.6219 -35.6126 -35.6126
   -35.6017 -35.5923 -31.3254 -31.3254 -31.3135 -31.3135 -31.3124 -31.3124
     7.1601   7.1970   7.3295   7.4231   7.6205   7.7134   7.8618   7.9221
     8.0183   8.0531   8.1324   8.1788   8.2885   8.3566   8.4937   8.5578
     8.7011   8.7359   8.8105   8.8155   8.9030   8.9356   8.9525   8.9670
     8.9769   9.1064   9.1079   9.1132   9.1447   9.1630   9.1909   9.2122
     9.2999   9.3176   9.4060   9.4338   9.4555   9.4833   9.4943   9.6416
     9.6933   9.6994   9.7468   9.8512   9.8939   9.9647  10.0018  10.1030
    10.1863  10.2191  10.2352  10.2793  10.3172  10.3782  10.4433  10.4579
    10.4737  10.5633  10.5722  10.6430  10.7555  10.7840  10.8118  10.8553
    10.9055  10.9124  10.9741  11.0111  11.0490  11.0700  11.1093  11.1551
    11.1659  11.1701  11.1976  11.2404  11.2862  11.2978  11.3060  11.3202
    11.3574  11.3772  11.4180  11.4441  11.4666  11.4692  11.4826  11.5368
    11.5467  11.5632  11.6187  11.6509  11.6769  11.6964  11.7088  11.7228
    11.7705  11.8000  11.8107  11.8229  11.8394  11.8786  11.9081  11.9362
    11.9844  12.0916  12.1396  12.2117  12.2516  12.3087  12.3552  12.3997
    12.4617  12.4858  12.5205  12.6023  12.6801  12.7369  12.8024  12.8393
    13.0267  13.4629  14.3201  14.3957  14.4930  14.6827  14.8461  15.0512
    15.3807  15.5620  15.6321  15.8872  16.1514  16.4038  16.5597  16.5615
    16.7070  16.8291  16.9336  17.1381  17.1384  17.1441  17.6356  17.8086
    18.8496  19.0789

          k = 0.0000 0.3333-0.0478 ( 14060 PWs)   bands (ev):

   -67.1485 -67.0303 -67.0303 -66.9005 -66.9005 -66.8791 -62.4942 -62.4942
   -35.9196 -35.8694 -35.8601 -35.7995 -35.7995 -35.7548 -35.7548 -35.7454
   -35.7454 -35.6809 -35.6809 -35.6579 -35.6219 -35.6219 -35.6126 -35.6126
   -35.6017 -35.5923 -31.3254 -31.3254 -31.3135 -31.3135 -31.3124 -31.3124
     7.1715   7.1799   7.3621   7.3879   7.6676   7.6683   7.8799   7.9079
     8.0326   8.0380   8.1543   8.1556   8.3103   8.3336   8.5250   8.5291
     8.7066   8.7391   8.8061   8.8074   8.9059   8.9338   8.9558   8.9712
     8.9906   9.0896   9.1064   9.1076   9.1445   9.1643   9.1962   9.2040
     9.3036   9.3175   9.4241   9.4366   9.4521   9.4851   9.4945   9.6514
     9.6645   9.6902   9.7464   9.8545   9.8909   9.9664  10.0512  10.1033
    10.1462  10.2185  10.2309  10.2753  10.3194  10.3723  10.4477  10.4753
    10.4813  10.5336  10.5777  10.6600  10.7569  10.8167  10.8317  10.8513
    10.8583  10.9217  10.9356  10.9975  11.0490  11.1061  11.1251  11.1259
    11.1670  11.1680  11.1928  11.2419  11.2848  11.2901  11.3140  11.3174
    11.3661  11.3779  11.4401  11.4476  11.4479  11.4831  11.4895  11.5133
    11.5521  11.5664  11.6280  11.6502  11.6741  11.6902  11.7082  11.7584
    11.7700  11.7730  11.8028  11.8273  11.8490  11.8785  11.9085  11.9225
    12.0010  12.0861  12.1297  12.2503  12.2592  12.2767  12.3129  12.3904
    12.4619  12.4887  12.5225  12.6008  12.6801  12.7371  12.8024  12.8393
    13.1790  13.3067  14.4163  14.4559  14.4980  14.5299  14.9215  14.9587
    15.4878  15.5324  15.6180  15.8531  16.1594  16.4042  16.5597  16.5615
    16.7090  16.8263  16.9545  17.1319  17.1381  17.1384  17.6391  17.8027
    18.8535  19.0464

          k = 0.0000-0.5000 0.0000 ( 14098 PWs)   bands (ev):

   -67.1491 -67.0309 -67.0309 -66.9012 -66.9012 -66.8798 -62.4933 -62.4933
   -35.9193 -35.8722 -35.8600 -35.7992 -35.7992 -35.7576 -35.7576 -35.7453
   -35.7453 -35.6806 -35.6806 -35.6576 -35.6248 -35.6247 -35.6124 -35.6124
   -35.6045 -35.5922 -31.3293 -31.3293 -31.3133 -31.3133 -31.3120 -31.3120
     7.9225   7.9254   7.9622   7.9732   7.9830   7.9931   8.0633   8.1122
     8.1248   8.2279   8.2333   8.2504   8.3219   8.3311   8.3500   8.4962
     8.5114   8.6089   8.7203   8.7407   8.9311   8.9364   8.9517   8.9934
     8.9999   9.0188   9.0524   9.0768   9.1092   9.1308   9.1595   9.2878
     9.2968   9.3597   9.5149   9.5449   9.5495   9.5548   9.6021   9.6088
     9.6138   9.6214   9.6427   9.7726   9.8119   9.8281   9.8415   9.9163
    10.0428  10.1269  10.1625  10.1691  10.3193  10.3209  10.3823  10.4073
    10.4500  10.5176  10.5756  10.8029  10.9055  10.9298  10.9920  11.0630
    11.1121  11.1392  11.1571  11.1996  11.2415  11.2551  11.2954  11.2976
    11.3018  11.3176  11.3307  11.3344  11.3885  11.3981  11.4008  11.4196
    11.4735  11.4992  11.5207  11.5327  11.5705  11.5744  11.6018  11.7231
    11.7589  11.7886  11.7890  11.9057  11.9466  12.1070  12.1297  12.1379
    12.1532  12.1573  12.2168  12.2437  12.2891  12.3022  12.3535  12.3855
    12.3929  12.4354  12.4507  12.4638  12.5005  12.5134  12.5860  12.5986
    12.6630  12.6844  12.7146  12.7563  12.7601  12.7693  12.8621  12.8636
    12.8996  13.0907  13.1085  13.1332  13.4667  13.5340  13.6539  13.6995
    14.1007  14.1358  14.1906  14.1951  14.4733  14.5338  16.2163  16.4542
    16.5238  16.5256  16.5927  16.5957  17.2625  17.2626  17.6252  17.6856
    18.9712  19.0080

          k = 0.0000-0.5000 0.0159 ( 14106 PWs)   bands (ev):

   -67.1491 -67.0309 -67.0309 -66.9012 -66.9012 -66.8798 -62.4933 -62.4933
   -35.9193 -35.8722 -35.8600 -35.7992 -35.7992 -35.7576 -35.7576 -35.7453
   -35.7453 -35.6806 -35.6806 -35.6576 -35.6248 -35.6247 -35.6124 -35.6124
   -35.6045 -35.5922 -31.3293 -31.3293 -31.3133 -31.3133 -31.3120 -31.3120
     7.9230   7.9266   7.9597   7.9634   7.9948   7.9963   8.0588   8.1032
     8.1342   8.2232   8.2383   8.2538   8.3195   8.3216   8.3584   8.4918
     8.5159   8.6093   8.7186   8.7400   8.9318   8.9364   8.9561   8.9875
     8.9999   9.0262   9.0524   9.0784   9.1048   9.1308   9.1541   9.2863
     9.3031   9.3597   9.5131   9.5350   9.5462   9.5476   9.6034   9.6088
     9.6206   9.6368   9.6432   9.7808   9.8119   9.8190   9.8415   9.9297
    10.0312  10.1318  10.1691  10.1694  10.2130  10.3823  10.4037  10.4336
    10.4500  10.5176  10.5745  10.8067  10.8689  10.9300  10.9941  11.0737
    11.1062  11.1414  11.1563  11.1987  11.2382  11.2564  11.2943  11.2946
    11.2983  11.3191  11.3320  11.3349  11.3698  11.3905  11.4306  11.4433
    11.4770  11.5009  11.5196  11.5326  11.5744  11.5748  11.6008  11.6797
    11.7890  11.7939  11.8033  11.8444  11.9964  12.0872  12.1070  12.1379
    12.1532  12.1927  12.2128  12.2468  12.2892  12.3028  12.3480  12.3745
    12.3909  12.4328  12.4608  12.4638  12.5134  12.5151  12.5803  12.5986
    12.6550  12.6600  12.7256  12.7571  12.7693  12.7913  12.8621  12.8635
    12.8873  13.0411  13.1199  13.1841  13.4466  13.4992  13.6821  13.7380
    14.0263  14.1015  14.2091  14.2800  14.4605  14.5229  16.2174  16.4534
    16.5238  16.5256  16.5928  16.5957  17.2625  17.2626  17.6257  17.6852
    18.9825  19.0140

          k = 0.0000-0.5000 0.0319 ( 14114 PWs)   bands (ev):

   -67.1491 -67.0309 -67.0309 -66.9012 -66.9012 -66.8798 -62.4933 -62.4933
   -35.9193 -35.8722 -35.8600 -35.7992 -35.7992 -35.7576 -35.7576 -35.7453
   -35.7453 -35.6806 -35.6806 -35.6576 -35.6248 -35.6247 -35.6124 -35.6124
   -35.6045 -35.5922 -31.3293 -31.3293 -31.3133 -31.3133 -31.3120 -31.3120
     7.9242   7.9297   7.9528   7.9553   8.0020   8.0115   8.0471   8.0930
     8.1455   8.2153   8.2506   8.2588   8.3013   8.3210   8.3676   8.4859
     8.5221   8.6100   8.7152   8.7384   8.9334   8.9364   8.9654   8.9793
     8.9999   9.0378   9.0524   9.0817   9.0954   9.1308   9.1436   9.2832
     9.3159   9.3597   9.5085   9.5102   9.5438   9.5479   9.6061   9.6088
     9.6192   9.6439   9.6724   9.7976   9.7980   9.8120   9.8414   9.9688
    10.0089  10.1164  10.1415  10.1691  10.1810  10.3823  10.3961  10.4500
    10.5176  10.5480  10.5722  10.7859  10.8145  10.9304  10.9983  11.0885
    11.0946  11.1466  11.1544  11.1962  11.2326  11.2596  11.2830  11.2937
    11.2990  11.3238  11.3334  11.3365  11.3627  11.3702  11.4559  11.4816
    11.4984  11.5058  11.5165  11.5317  11.5744  11.5967  11.5990  11.6304
    11.7617  11.7890  11.8045  11.8556  12.0385  12.0446  12.1071  12.1378
    12.1452  12.2032  12.2328  12.2531  12.2892  12.3044  12.3392  12.3532
    12.3992  12.4048  12.4637  12.5035  12.5134  12.5348  12.5701  12.5986
    12.6069  12.6536  12.7499  12.7588  12.7693  12.8439  12.8604  12.8621
    12.8634  12.9787  13.1425  13.2486  13.4124  13.4371  13.7418  13.8124
    13.9423  14.0110  14.2920  14.3574  14.4234  14.4923  16.2197  16.4520
    16.5238  16.5256  16.5929  16.5956  17.2625  17.2626  17.6269  17.6845
    19.0098  19.0270

          k = 0.0000-0.5000-0.0478 ( 14104 PWs)   bands (ev):

   -67.1491 -67.0309 -67.0309 -66.9012 -66.9012 -66.8798 -62.4933 -62.4933
   -35.9193 -35.8722 -35.8600 -35.7992 -35.7992 -35.7576 -35.7576 -35.7453
   -35.7453 -35.6806 -35.6806 -35.6576 -35.6248 -35.6247 -35.6124 -35.6124
   -35.6045 -35.5922 -31.3293 -31.3293 -31.3133 -31.3133 -31.3120 -31.3120
     7.9248   7.9321   7.9478   7.9533   8.0047   8.0244   8.0355   8.0889
     8.1503   8.2115   8.2601   8.2609   8.2900   8.3206   8.3711   8.4835
     8.5247   8.6103   8.7135   8.7377   8.9343   8.9364   8.9705   8.9760
     8.9999   9.0432   9.0524   9.0834   9.0902   9.1308   9.1382   9.2816
     9.3224   9.3597   9.4974   9.5090   9.5420   9.5484   9.6076   9.6088
     9.6186   9.6442   9.6913   9.7834   9.8073   9.8120   9.8414   9.9976
    10.0208  10.0452  10.1464  10.1691  10.1860  10.3823  10.3923  10.4500
    10.5176  10.5711  10.6309  10.7115  10.8185  10.9306  11.0004  11.0889
    11.0941  11.1498  11.1534  11.1945  11.2302  11.2619  11.2779  11.2935
    11.2991  11.3291  11.3293  11.3421  11.3572  11.3610  11.4718  11.4831
    11.5113  11.5120  11.5203  11.5296  11.5744  11.5982  11.6072  11.6354
    11.7023  11.7890  11.8097  11.8820  12.0133  12.0640  12.1071  12.1378
    12.1412  12.1971  12.2505  12.2564  12.2892  12.3054  12.3353  12.3449
    12.3908  12.4028  12.4637  12.5134  12.5391  12.5431  12.5655  12.5695
    12.5986  12.6501  12.7596  12.7656  12.7693  12.8436  12.8621  12.8633
    12.8837  12.9361  13.1541  13.2865  13.3964  13.3987  13.7851  13.8703
    13.8923  13.9490  14.3598  14.3709  14.4038  14.4617  16.2208  16.4512
    16.5238  16.5256  16.5930  16.5955  17.2625  17.2626  17.6275  17.6841
    19.0269  19.0342

          k = 0.1667 0.1667 0.0000 ( 14064 PWs)   bands (ev):

   -67.1477 -67.0295 -67.0295 -66.8997 -66.8997 -66.8783 -62.4953 -62.4953
   -35.9199 -35.8635 -35.8634 -35.7998 -35.7998 -35.7488 -35.7488 -35.7487
   -35.7487 -35.6812 -35.6812 -35.6582 -35.6160 -35.6160 -35.6159 -35.6159
   -35.5957 -35.5956 -31.3178 -31.3178 -31.3175 -31.3175 -31.3128 -31.3128
     6.3990   6.5301   6.5364   6.8795   6.9637   7.4665   7.4702   7.8994
     8.1799   8.4535   8.4580   8.5131   8.5979   8.6183   8.6796   8.7117
     8.7131   8.7313   8.7335   8.8028   8.8530   8.9244   8.9652   9.0436
     9.0716   9.0891   9.2342   9.2537   9.3107   9.3184   9.3520   9.4003
     9.4430   9.4595   9.4805   9.5272   9.5499   9.5830   9.5850   9.5926
[...]
    11.3276  11.3364  11.4926  11.5841  11.6773  11.6840  11.6935  11.7314
    11.7390  11.7892  11.8041  11.8416  11.9444  12.0176  12.0320  12.0417
    12.1289  12.2367  12.2368  12.2952  12.3603  12.4155  12.5510  12.6608
    12.8549  13.0583  13.3330  13.5657  13.9199  14.1061  14.4328  14.7014
    15.4607  15.4623  15.4779  15.4933  15.5308  15.5774  15.6983  15.8773
    16.1949  16.3991  16.5031  16.5919  16.6751  16.6934  16.8627  16.9018
    16.9088  16.9577  16.9940  17.0012  17.0635  17.1342  17.1354  17.2778
    17.3654  17.4547  17.5336  17.6400  17.6606  17.7726  17.8896  18.0635
    18.0642  18.1200  18.1509  18.2758  18.4700  18.5124  18.5697  18.6753
    18.7776  18.8542

          k = 0.3333 0.3333-0.0478 ( 14082 PWs)   bands (ev):

   -67.1143 -67.1143 -62.5080 -62.4229 -62.4229 -62.3292 -62.3292 -62.3063
   -35.8834 -35.8834 -35.8381 -35.8381 -35.8380 -35.8380 -31.3384 -31.3382
   -31.3235 -31.2537 -31.2537 -31.2534 -31.2534 -31.2426 -31.2426 -31.1588
   -31.1588 -31.1570 -31.1570 -31.1567 -31.1567 -31.1356 -31.1353 -31.1340
     7.8399   7.9751   8.2232   8.3249   8.4421   8.5086   8.6395   8.7272
     8.7898   8.8063   8.8403   8.8626   8.9473   9.0856   9.1553   9.1575
     9.1689   9.1924   9.2176   9.2325   9.2488   9.2800   9.3048   9.3079
     9.3626   9.3829   9.4060   9.4334   9.4339   9.5426   9.5876   9.6205
     9.6240   9.6317   9.7225   9.7478   9.8208   9.8297   9.8506   9.8569
     9.8866   9.9825  10.0160  10.0872  10.1196  10.2008  10.2313  10.2717
    10.3315  10.3668  10.3793  10.4436  10.4751  10.5009  10.5410  10.5511
    10.5842  10.5935  10.6898  10.8055  10.8389  10.8992  10.9596  11.0017
    11.0539  11.0834  11.0838  11.1251  11.1260  11.1328  11.2292  11.2544
    11.3276  11.3364  11.5358  11.5436  11.6773  11.6839  11.6939  11.7371
    11.7434  11.7955  11.7978  11.8342  11.9508  12.0183  12.0266  12.0413
    12.1310  12.2364  12.2369  12.2926  12.3798  12.3927  12.5712  12.6380
    12.8762  13.0350  13.3651  13.5289  14.0139  14.0140  14.4530  14.6942
    15.4610  15.4620  15.4777  15.4936  15.5307  15.5774  15.7002  15.8753
    16.1951  16.3988  16.5054  16.5902  16.6741  16.6938  16.8621  16.9026
    16.9095  16.9570  16.9954  17.0020  17.0614  17.1328  17.1371  17.2781
    17.3654  17.4545  17.5336  17.6400  17.6609  17.7720  17.9119  18.0191
    18.0960  18.1037  18.1272  18.2579  18.4908  18.6029  18.6374  18.6406
    18.7762  18.8328

          k = 0.3333-0.5000 0.0000 ( 14154 PWs)   bands (ev):

   -67.1145 -67.1145 -62.5076 -62.4225 -62.4225 -62.3288 -62.3288 -62.3059
   -35.8832 -35.8832 -35.8408 -35.8408 -35.8378 -35.8378 -31.3420 -31.3380
   -31.3232 -31.2573 -31.2573 -31.2532 -31.2532 -31.2423 -31.2423 -31.1606
   -31.1606 -31.1586 -31.1586 -31.1566 -31.1566 -31.1392 -31.1351 -31.1338
     8.1269   8.1377   8.2013   8.2901   8.5009   8.5156   8.6253   8.6301
     8.7720   8.8765   8.8870   8.9157   8.9200   8.9666   8.9796   9.0101
     9.0466   9.0618   9.1056   9.1511   9.1895   9.2033   9.2444   9.3086
     9.3366   9.3738   9.3784   9.4439   9.5132   9.5166   9.6231   9.6554
     9.7257   9.7266   9.7511   9.7943   9.8803   9.9004   9.9716  10.0173
    10.0822  10.1358  10.1619  10.1664  10.2904  10.3224  10.3991  10.5091
    10.5101  10.5745  10.5838  10.6103  10.6620  10.7188  10.8001  10.8075
    10.8646  10.9091  10.9163  10.9186  11.0354  11.0705  11.1079  11.1257
    11.1829  11.2328  11.2390  11.2614  11.3237  11.3257  11.4513  11.4832
    11.6386  11.6739  11.6802  11.7038  11.7361  11.7368  11.7897  11.8304
    11.8640  11.8804  11.9369  12.0006  12.0202  12.0322  12.0798  12.1124
    12.1393  12.1945  12.6267  12.6948  12.7912  12.8059  12.8184  12.9971
    13.1817  13.4227  13.7282  13.8383  13.9177  13.9275  14.0374  14.2913
    14.3358  14.4295  14.6633  14.6711  14.7879  14.9175  15.1721  15.5598
    16.3452  16.3839  16.7663  16.7816  16.8337  16.8442  16.8522  16.8787
    16.8815  16.8963  16.8993  16.9054  16.9597  17.2683  17.3535  17.4456
    17.5239  17.5662  17.6378  17.7028  17.7318  17.8931  17.9187  17.9899
    18.0101  18.0316  18.2571  18.2743  18.3534  18.3801  18.8921  19.0015
    19.0554  19.0590

          k = 0.3333-0.5000 0.0159 ( 14140 PWs)   bands (ev):

   -67.1145 -67.1145 -62.5076 -62.4225 -62.4225 -62.3288 -62.3288 -62.3059
   -35.8832 -35.8832 -35.8408 -35.8408 -35.8378 -35.8378 -31.3420 -31.3380
   -31.3232 -31.2573 -31.2573 -31.2532 -31.2532 -31.2423 -31.2423 -31.1606
   -31.1606 -31.1586 -31.1586 -31.1566 -31.1566 -31.1392 -31.1351 -31.1338
     8.1270   8.1378   8.2012   8.2893   8.5075   8.5164   8.6161   8.6239
     8.7865   8.8765   8.8868   8.9172   8.9202   8.9677   8.9816   8.9885
     9.0554   9.0621   9.1077   9.1528   9.1876   9.1942   9.2582   9.3080
     9.3351   9.3662   9.3827   9.4537   9.4832   9.5489   9.5993   9.6772
     9.6969   9.7270   9.7791   9.7935   9.8793   9.8971   9.9617  10.0274
    10.0641  10.1510  10.1551  10.1775  10.2885  10.3182  10.4019  10.5100
    10.5108  10.5453  10.6089  10.6148  10.6618  10.7157  10.8014  10.8095
    10.8645  10.8869  10.9120  10.9486  11.0200  11.0860  11.0937  11.1370
    11.1819  11.2173  11.2518  11.2617  11.3232  11.3250  11.4517  11.4830
    11.6390  11.6725  11.6811  11.7042  11.7357  11.7367  11.7899  11.8304
    11.8640  11.8805  11.9378  11.9928  12.0175  12.0428  12.0810  12.1179
    12.1354  12.1897  12.6326  12.6969  12.7619  12.8160  12.8329  12.9940
    13.1832  13.4212  13.7339  13.8406  13.8743  13.9737  14.0345  14.2531
    14.3700  14.4333  14.6568  14.6660  14.7932  14.9161  15.1733  15.5595
    16.3452  16.3839  16.7711  16.7824  16.8336  16.8437  16.8523  16.8735
    16.8809  16.8861  16.8961  16.8986  16.9866  17.2537  17.3582  17.4588
    17.5085  17.5788  17.6274  17.7018  17.7388  17.8922  17.9229  17.9887
    18.0047  18.0277  18.2305  18.2548  18.3944  18.4317  18.8157  18.9506
    19.0069  19.1281

          k = 0.3333-0.5000 0.0319 ( 14128 PWs)   bands (ev):

   -67.1145 -67.1145 -62.5076 -62.4225 -62.4225 -62.3288 -62.3288 -62.3059
   -35.8832 -35.8832 -35.8408 -35.8408 -35.8378 -35.8378 -31.3420 -31.3380
   -31.3232 -31.2573 -31.2573 -31.2532 -31.2532 -31.2423 -31.2423 -31.1606
   -31.1606 -31.1586 -31.1586 -31.1566 -31.1566 -31.1392 -31.1351 -31.1338
     8.1272   8.1379   8.2010   8.2877   8.5181   8.5260   8.5862   8.6210
     8.8154   8.8766   8.8861   8.9201   8.9216   8.9555   8.9696   8.9882
     9.0413   9.0788   9.1107   9.1572   9.1827   9.1833   9.2815   9.3067
     9.3322   9.3507   9.3937   9.4563   9.4744   9.5674   9.5840   9.6593
     9.7028   9.7280   9.7911   9.8121   9.8769   9.8880   9.9477  10.0402
    10.0424  10.1405  10.1828  10.1881  10.2843  10.3080  10.4091  10.5081
    10.5118  10.5231  10.6059  10.6462  10.6615  10.7065  10.8041  10.8150
    10.8613  10.8643  10.9190  10.9757  10.9987  11.0737  11.1075  11.1494
    11.1795  11.1999  11.2624  11.2625  11.3221  11.3236  11.4525  11.4824
    11.6400  11.6702  11.6823  11.7051  11.7349  11.7364  11.7901  11.8302
    11.8640  11.8808  11.9398  11.9821  12.0126  12.0603  12.0826  12.1260
    12.1322  12.1770  12.6477  12.7015  12.7290  12.8109  12.8584  12.9872
    13.1863  13.4183  13.7490  13.8334  13.8456  14.0210  14.0284  14.2036
    14.4077  14.4410  14.6444  14.6549  14.8031  14.9131  15.1755  15.5589
    16.3452  16.3838  16.7840  16.7852  16.8335  16.8414  16.8428  16.8524
    16.8802  16.8827  16.8955  16.8976  17.0247  17.2246  17.3691  17.4853
    17.4853  17.5952  17.6061  17.6994  17.7510  17.8909  17.9331  17.9856
    17.9916  18.0207  18.2000  18.2344  18.4749  18.5352  18.6995  18.8048
    19.0052  19.1280

          k = 0.3333-0.5000-0.0478 ( 14140 PWs)   bands (ev):

   -67.1145 -67.1145 -62.5076 -62.4225 -62.4225 -62.3288 -62.3288 -62.3059
   -35.8832 -35.8832 -35.8408 -35.8408 -35.8378 -35.8378 -31.3420 -31.3380
   -31.3232 -31.2573 -31.2573 -31.2532 -31.2532 -31.2423 -31.2423 -31.1606
   -31.1606 -31.1586 -31.1586 -31.1566 -31.1566 -31.1392 -31.1351 -31.1338
     8.1273   8.1379   8.2009   8.2869   8.5189   8.5498   8.5577   8.6195
     8.8320   8.8766   8.8852   8.9215   8.9253   8.9356   8.9704   8.9940
     9.0323   9.0848   9.1119   9.1605   9.1793   9.1794   9.2948   9.3061
     9.3301   9.3410   9.4020   9.4428   9.4878   9.5503   9.6143   9.6280
     9.7135   9.7285   9.7895   9.8285   9.8754   9.8806   9.9420  10.0303
    10.0490  10.1360  10.1925  10.1954  10.2821  10.3016  10.4139  10.5006
    10.5127  10.5201  10.6044  10.6595  10.6646  10.6980  10.8054  10.8199
    10.8491  10.8642  10.9236  10.9884  10.9889  11.0633  11.1177  11.1547
    11.1778  11.1914  11.2627  11.2664  11.3216  11.3229  11.4529  11.4821
    11.6405  11.6692  11.6828  11.7055  11.7345  11.7363  11.7903  11.8302
    11.8640  11.8809  11.9411  11.9777  12.0105  12.0696  12.0831  12.1196
    12.1441  12.1660  12.6594  12.7040  12.7114  12.8082  12.8687  12.9833
    13.1878  13.4168  13.7615  13.8123  13.8481  14.0253  14.0451  14.1784
    14.4229  14.4451  14.6384  14.6488  14.8079  14.9114  15.1767  15.5586
    16.3452  16.3838  16.7849  16.8031  16.8158  16.8334  16.8423  16.8525
    16.8802  16.8825  16.8949  16.8973  17.0429  17.2088  17.3757  17.4743
    17.5001  17.5936  17.6018  17.6981  17.7566  17.8903  17.9402  17.9826
    17.9835  18.0176  18.1893  18.2277  18.5496  18.6122  18.6480  18.6774
    19.0051  19.1279

          k =-0.5000-0.5000 0.0000 ( 14124 PWs)   bands (ev):

   -67.1144 -67.1144 -62.5074 -62.4223 -62.4223 -62.3286 -62.3286 -62.3057
   -35.8830 -35.8830 -35.8405 -35.8405 -35.8405 -35.8405 -31.3417 -31.3417
   -31.3230 -31.2570 -31.2570 -31.2570 -31.2570 -31.2421 -31.2421 -31.1603
   -31.1603 -31.1603 -31.1603 -31.1584 -31.1584 -31.1388 -31.1388 -31.1336
     7.9911   8.0040   8.0668   8.1559   8.4244   8.4274   8.5597   8.6058
     8.6553   8.7894   8.9912   8.9953   9.0127   9.0285   9.0441   9.0441
     9.1009   9.1009   9.1432   9.1432   9.2036   9.2282   9.2640   9.2640
     9.2659   9.2659   9.5081   9.5081   9.5110   9.5110   9.6278   9.6467
     9.6467   9.6484   9.6484   9.7568   9.8195   9.8195   9.9151   9.9151
    10.3198  10.3198  10.3201  10.3291  10.3291  10.4188  10.4269  10.4415
    10.5154  10.5176  10.7619  10.7619  10.9449  10.9449  10.9722  10.9829
    10.9944  11.0288  11.1175  11.1175  11.3211  11.3211  11.5276  11.5276
    11.7037  11.7038  11.7308  11.7504  11.7504  11.7850  11.7850  11.7912
    11.7912  11.7976  11.8135  11.8402  11.8402  11.8499  11.8499  11.8739
    11.8739  11.8799  11.9117  11.9258  11.9642  12.0046  12.0145  12.0169
    12.0189  12.0844  13.1699  13.1955  13.1956  13.2135  13.2275  13.2360
    13.6989  13.6989  13.9280  13.9280  13.9834  13.9834  14.2460  14.2460
    14.4346  14.4346  14.5989  14.5989  15.5891  15.5891  15.7031  15.7031
    16.3264  16.3809  16.5313  16.6077  16.6965  16.7012  16.7439  16.8676
    16.8676  16.9664  17.1590  17.1590  17.3384  17.3384  17.4394  17.4613
    17.5346  17.6814  17.7493  17.8280  17.8280  17.8838  17.8930  17.9432
    17.9432  17.9620  18.0362  18.0362  18.0569  18.0959  18.0959  18.3013
    18.4357  18.4874

          k =-0.5000-0.5000 0.0159 ( 14144 PWs)   bands (ev):

   -67.1144 -67.1144 -62.5074 -62.4223 -62.4223 -62.3286 -62.3286 -62.3057
   -35.8830 -35.8830 -35.8405 -35.8405 -35.8405 -35.8405 -31.3417 -31.3417
   -31.3230 -31.2570 -31.2570 -31.2570 -31.2570 -31.2421 -31.2421 -31.1603
   -31.1603 -31.1603 -31.1603 -31.1584 -31.1584 -31.1388 -31.1388 -31.1336
     7.9912   8.0041   8.0667   8.1554   8.4288   8.4305   8.5559   8.5746
     8.6905   8.8000   8.9380   8.9677   9.0441   9.0443   9.0443   9.0726
     9.0985   9.0985   9.1490   9.1490   9.1983   9.2204   9.2347   9.2347
     9.2983   9.2983   9.4615   9.4615   9.5602   9.5602   9.6290   9.6467
     9.6467   9.6485   9.6485   9.7563   9.7864   9.7864   9.9504   9.9504
    10.2465  10.2465  10.3220  10.4034  10.4034  10.4056  10.4395  10.4415
    10.5154  10.5164  10.7307  10.7307  10.9719  10.9719  10.9723  10.9829
    10.9944  11.0288  11.1175  11.1175  11.3049  11.3049  11.5371  11.5371
    11.7037  11.7038  11.7308  11.7504  11.7504  11.7850  11.7850  11.7912
    11.7912  11.7976  11.8135  11.8402  11.8402  11.8481  11.8481  11.8739
    11.8739  11.8799  11.9118  11.9258  11.9645  12.0047  12.0106  12.0189
    12.0207  12.0842  13.1699  13.1944  13.1967  13.2135  13.2275  13.2359
    13.7026  13.7026  13.9038  13.9038  14.0090  14.0090  14.2389  14.2389
    14.4370  14.4370  14.5985  14.5985  15.5891  15.5891  15.7030  15.7030
    16.3265  16.3803  16.5355  16.6077  16.6593  16.7420  16.7438  16.8726
    16.8726  16.9550  17.1275  17.1275  17.3872  17.3872  17.4442  17.4798
    17.5256  17.6866  17.7493  17.7921  17.8280  17.8280  17.9043  17.9043
    17.9432  17.9432  17.9620  17.9837  18.0558  18.2352  18.2352  18.2848
    18.4363  18.4870

          k =-0.5000-0.5000 0.0319 ( 14180 PWs)   bands (ev):

   -67.1144 -67.1144 -62.5074 -62.4223 -62.4223 -62.3286 -62.3286 -62.3057
   -35.8830 -35.8830 -35.8405 -35.8405 -35.8405 -35.8405 -31.3417 -31.3417
   -31.3230 -31.2570 -31.2570 -31.2570 -31.2570 -31.2421 -31.2421 -31.1603
   -31.1603 -31.1603 -31.1603 -31.1584 -31.1584 -31.1388 -31.1388 -31.1336
     7.9912   8.0043   8.0665   8.1544   8.4318   8.4464   8.5345   8.5483
     8.7425   8.8286   8.8829   8.9169   9.0448   9.0448   9.0857   9.0947
     9.0947   9.1205   9.1634   9.1634   9.1848   9.1982   9.2078   9.2078
     9.3346   9.3346   9.4162   9.4162   9.6120   9.6120   9.6313   9.6466
     9.6466   9.6498   9.6498   9.7308   9.7308   9.7552  10.0115  10.0115
    10.1726  10.1726  10.3262  10.3919  10.4415  10.4517  10.4788  10.4788
    10.5137  10.5154  10.6686  10.6686  10.9724  10.9829  10.9943  11.0186
    11.0186  11.0287  11.1175  11.1175  11.2713  11.2713  11.5540  11.5540
    11.7037  11.7038  11.7308  11.7504  11.7504  11.7850  11.7850  11.7912
    11.7912  11.7976  11.8135  11.8402  11.8402  11.8445  11.8445  11.8739
    11.8739  11.8799  11.9118  11.9258  11.9651  12.0047  12.0068  12.0189
    12.0241  12.0840  13.1700  13.1935  13.1975  13.2135  13.2275  13.2359
    13.7110  13.7110  13.8728  13.8728  14.0434  14.0434  14.2234  14.2234
    14.4415  14.4415  14.5978  14.5978  15.5891  15.5891  15.7030  15.7030
    16.3268  16.3793  16.5460  16.6077  16.6276  16.7437  16.7827  16.8842
    16.8842  16.9286  17.0811  17.0811  17.4580  17.4884  17.4884  17.5043
    17.5287  17.6959  17.7006  17.7493  17.7567  17.7567  17.8280  17.8280
    17.9432  17.9432  17.9620  18.0537  18.0717  18.2413  18.4053  18.4053
    18.4374  18.4862

          k =-0.5000-0.5000-0.0478 ( 14176 PWs)   bands (ev):

   -67.1144 -67.1144 -62.5074 -62.4223 -62.4223 -62.3286 -62.3286 -62.3057
   -35.8830 -35.8830 -35.8405 -35.8405 -35.8405 -35.8405 -31.3417 -31.3417
   -31.3230 -31.2570 -31.2570 -31.2570 -31.2570 -31.2421 -31.2421 -31.1603
   -31.1603 -31.1603 -31.1603 -31.1584 -31.1584 -31.1388 -31.1388 -31.1336
     7.9913   8.0044   8.0664   8.1539   8.4335   8.4593   8.5133   8.5446
     8.7764   8.8482   8.8659   8.8726   9.0450   9.0450   9.0930   9.0930
     9.1052   9.1579   9.1692   9.1747   9.1793   9.1793   9.1881   9.1881
     9.3738   9.3738   9.3741   9.3741   9.6325   9.6407   9.6407   9.6466
     9.6466   9.6697   9.6697   9.6807   9.6807   9.7546  10.0567  10.0567
    10.1239  10.1239  10.3287  10.3862  10.4415  10.4565  10.5122  10.5154
    10.5248  10.5248  10.6256  10.6256  10.9724  10.9829  10.9943  11.0287
    11.0419  11.0419  11.1175  11.1175  11.2527  11.2527  11.5616  11.5616
    11.7037  11.7038  11.7308  11.7504  11.7504  11.7850  11.7850  11.7912
    11.7912  11.7976  11.8135  11.8402  11.8402  11.8426  11.8426  11.8739
    11.8739  11.8799  11.9118  11.9257  11.9654  12.0047  12.0053  12.0188
    12.0253  12.0838  13.1700  13.1932  13.1978  13.2135  13.2275  13.2359
    13.7158  13.7158  13.8598  13.8598  14.0588  14.0588  14.2145  14.2145
    14.4437  14.4437  14.5974  14.5974  15.5891  15.5891  15.7030  15.7030
    16.3269  16.3788  16.5533  16.6077  16.6132  16.7437  16.8034  16.8912
    16.8912  16.9116  17.0608  17.0608  17.4750  17.4839  17.5773  17.5892
    17.5892  17.6388  17.6418  17.6418  17.7003  17.7493  17.8280  17.8280
    17.9432  17.9432  17.9620  18.0526  18.1262  18.2010  18.4380  18.4858
    18.5741  18.5741

     the Fermi energy is    15.0280 ev

!    total energy              =  -14694.01519497 Ry
     Harris-Foulkes estimate   =  -14694.01519180 Ry
     estimated scf accuracy    <       0.00000090 Ry

     total all-electron energy =   -626921.610917 Ry

     The total energy is the sum of the following terms:

     one-electron contribution =    -729.72854319 Ry
     hartree contribution      =     661.40749291 Ry
     xc contribution           =    -737.67219481 Ry
     ewald contribution        =   -2186.64874840 Ry
     Hubbard energy            =       0.44210554 Ry
     one-center paw contrib.   =  -11701.81530702 Ry

     total magnetization       =    17.33 Bohr mag/cell
     absolute magnetization    =    37.30 Bohr mag/cell

     convergence has been achieved in  25 iterations

     Writing output data file mnau2.save/
 
     init_run     :     23.68s CPU     24.21s WALL (       1 calls)
     electrons    :   1316.81s CPU   1346.87s WALL (       1 calls)

     Called by init_run:
     wfcinit      :     22.00s CPU     22.46s WALL (       1 calls)
     potinit      :      0.81s CPU      0.83s WALL (       1 calls)
     hinit0       :      0.55s CPU      0.58s WALL (       1 calls)

     Called by electrons:
     c_bands      :   1163.30s CPU   1188.12s WALL (      25 calls)
     sum_band     :    136.03s CPU    140.64s WALL (      25 calls)
     v_of_rho     :      1.49s CPU      1.53s WALL (      26 calls)
     newd         :      3.76s CPU      3.79s WALL (      26 calls)
     PAW_pot      :     12.36s CPU     12.52s WALL (      26 calls)
     mix_rho      :      0.33s CPU      0.36s WALL (      25 calls)

     Called by c_bands:
     init_us_2    :      6.38s CPU      6.44s WALL (    4160 calls)
     cegterg      :   1121.94s CPU   1145.74s WALL (    2000 calls)

     Called by sum_band:
     sum_band:bec :      1.68s CPU      1.69s WALL (    2000 calls)
     addusdens    :      6.56s CPU      6.94s WALL (      25 calls)

     Called by *egterg:
     h_psi        :    481.69s CPU    493.40s WALL (    6639 calls)
     s_psi        :     69.29s CPU     69.36s WALL (    6719 calls)
     g_psi        :      1.85s CPU      1.86s WALL (    4559 calls)
     cdiaghg      :    402.06s CPU    413.24s WALL (    6559 calls)

     Called by h_psi:
     h_psi:pot    :    450.67s CPU    462.16s WALL (    6639 calls)
     h_psi:calbec :     79.68s CPU     81.85s WALL (    6639 calls)
     vloc_psi     :    303.81s CPU    313.05s WALL (    6639 calls)
     add_vuspsi   :     67.09s CPU     67.21s WALL (    6639 calls)
     vhpsi        :     29.59s CPU     29.81s WALL (    6639 calls)

     General routines
     calbec       :    138.61s CPU    142.06s WALL (   17358 calls)
     fft          :      1.19s CPU      1.23s WALL (     646 calls)
     ffts         :      0.09s CPU      0.09s WALL (     102 calls)
     fftw         :    358.44s CPU    370.36s WALL ( 1888818 calls)
     interpolate  :      0.13s CPU      0.13s WALL (      52 calls)
     davcio       :      0.00s CPU      0.01s WALL (      80 calls)
 
     Parallel routines
     fft_scatt_xy :     18.32s CPU     18.77s WALL ( 1889566 calls)
     fft_scatt_yz :    243.29s CPU    252.18s WALL ( 1889566 calls)

     Hubbard U routines
     new_ns       :      6.38s CPU      6.60s WALL (      25 calls)
     vhpsi        :     29.59s CPU     29.81s WALL (    6639 calls)
 
     PWSCF        : 22m31.32s CPU    23m40.54s WALL

 
   This run was terminated on:  16:29: 0  29Mar2019            

=------------------------------------------------------------------------------=
   JOB DONE.
=------------------------------------------------------------------------------=
