
     Program PWSCF v.6.3MaX starts on 29Mar2019 at 16:29: 5 

     This program is part of the open-source Quantum ESPRESSO suite
     for quantum simulation of materials; please cite
         "P. Giannozzi et al., J. Phys.:Condens. Matter 21 395502 (2009);
         "P. Giannozzi et al., J. Phys.:Condens. Matter 29 465901 (2017);
          URL http://www.quantum-espresso.org", 
     in publications or presentations arising from this work. More details at
     http://www.quantum-espresso.org/quote

     Parallel version (MPI), running on    32 processors

     MPI processes distributed on     2 nodes
     R & G space division:  proc/nbgrp/npool/nimage =      32
     Waiting for input...
     Reading input from standard input

     Current dimensions of program PWSCF are:
     Max number of different atomic species (ntypx) = 10
     Max number of k-points (npk) =  40000
     Max angular momentum in pseudopotentials (lmaxx) =  3
     Message from routine read_upf::
     Pseudo file ./pseudo/Mn.pbe-spn-kjpaw_psl.0.3.1.UPF has been successfully fixed on the fly.
To avoid this message in the future you can permanently fix 
 your pseudo files following instructions given in: 
https://gitlab.com/QEF/q-e/blob/master/upftools/how_to_fix_upf.md
               file Mn.pbe-spn-kjpaw_psl.0.3.1.UPF: wavefunction(s)  3P 3D renormalized
     Message from routine read_upf::
     Pseudo file ./pseudo/Mn.pbe-spn-kjpaw_psl.0.3.1.UPF has been successfully fixed on the fly.
To avoid this message in the future you can permanently fix 
 your pseudo files following instructions given in: 
https://gitlab.com/QEF/q-e/blob/master/upftools/how_to_fix_upf.md
               file Mn.pbe-spn-kjpaw_psl.0.3.1.UPF: wavefunction(s)  3P 3D renormalized
     Message from routine read_upf::
     Pseudo file ./pseudo/Au.pbe-dn-kjpaw_psl.0.1.UPF has been successfully fixed on the fly.
To avoid this message in the future you can permanently fix 
 your pseudo files following instructions given in: 
https://gitlab.com/QEF/q-e/blob/master/upftools/how_to_fix_upf.md
               file Au.pbe-dn-kjpaw_psl.0.1.UPF: wavefunction(s)  6S 6P 5D renormalized

     Subspace diagonalization in iterative solution of the eigenvalue problem:
     one sub-group per band group will be used
     scalapack distributed-memory algorithm (size of sub-group:  4*  4 procs)

 
     Parallelization info
     --------------------
     sticks:   dense  smooth     PW     G-vecs:    dense   smooth      PW
     Min          41      18      5                11647     3506     571
     Max          42      19      6                11691     3549     614
     Sum        1313     593    177               373547   112863   18983
 


     bravais-lattice index     =            0
     lattice parameter (alat)  =       6.4153  a.u.
     unit-cell volume          =    2762.7331 (a.u.)^3
     number of atoms/cell      =           24
     number of atomic types    =            3
     number of electrons       =       296.00
     number of Kohn-Sham states=          178
     kinetic-energy cutoff     =      45.0000  Ry
     charge density cutoff     =     400.0000  Ry
     convergence threshold     =      1.0E-06
     mixing beta               =       0.1000
     number of iterations used =            8  plain     mixing
     Exchange-correlation      = SLA PW PBX PBC ( 1  4  3  4 0 0)

     celldm(1)=   6.415315  celldm(2)=   0.000000  celldm(3)=   0.000000
     celldm(4)=   0.000000  celldm(5)=   0.000000  celldm(6)=   0.000000

     crystal axes: (cart. coord. in units of alat)
               a(1) = (   1.000000   0.000000   0.000000 )  
               a(2) = (   0.000000   1.000000   0.000000 )  
               a(3) = (   0.000000   0.000000  10.463692 )  

     reciprocal axes: (cart. coord. in units 2 pi/alat)
               b(1) = (  1.000000  0.000000  0.000000 )  
               b(2) = (  0.000000  1.000000  0.000000 )  
               b(3) = (  0.000000  0.000000  0.095569 )  


     PseudoPot. # 1 for Mn read from file:
     ./pseudo/Mn.pbe-spn-kjpaw_psl.0.3.1.UPF
     MD5 check sum: 7eef95dd2aae66803482eea66ebeebf1
     Pseudo is Projector augmented-wave + core cor, Zval = 15.0
     Generated using "atomic" code by A. Dal Corso v.5.0.99 svn rev. 10869
     Shape of augmentation charge: PSQ
     Using radial grid of 1187 points,  6 beta functions with: 
                l(1) =   0
                l(2) =   0
                l(3) =   1
                l(4) =   1
                l(5) =   2
                l(6) =   2
     Q(r) pseudized with 0 coefficients 


     PseudoPot. # 2 for Mn read from file:
     ./pseudo/Mn.pbe-spn-kjpaw_psl.0.3.1.UPF
     MD5 check sum: 7eef95dd2aae66803482eea66ebeebf1
     Pseudo is Projector augmented-wave + core cor, Zval = 15.0
     Generated using "atomic" code by A. Dal Corso v.5.0.99 svn rev. 10869
     Shape of augmentation charge: PSQ
     Using radial grid of 1187 points,  6 beta functions with: 
                l(1) =   0
                l(2) =   0
                l(3) =   1
                l(4) =   1
                l(5) =   2
                l(6) =   2
     Q(r) pseudized with 0 coefficients 


     PseudoPot. # 3 for Au read from file:
     ./pseudo/Au.pbe-dn-kjpaw_psl.0.1.UPF
     MD5 check sum: 5c9b92683623e7ae2ab3f8e525febab6
     Pseudo is Projector augmented-wave + core cor, Zval = 11.0
     Generated using "atomic" code by A. Dal Corso v.5.0.2 svn rev. 9415
     Shape of augmentation charge: PSQ
     Using radial grid of 1279 points,  6 beta functions with: 
                l(1) =   0
                l(2) =   0
                l(3) =   1
                l(4) =   1
                l(5) =   2
                l(6) =   2
     Q(r) pseudized with 0 coefficients 


     atomic species   valence    mass     pseudopotential
        Mn1           15.00    54.93800     Mn( 1.00)
        Mn2           15.00    54.93800     Mn( 1.00)
        Au            11.00   196.96600     Au( 1.00)

     Starting magnetic structure 
     atomic species   magnetization
        Mn1          0.800
        Mn2         -0.800
        Au           0.000


     Full LDA+U calculation (l_max = 2) with parameters (eV):
     U(  1) =   3.1200   J(  1) =   0.7000   B(  1) =   0.0803
     U(  2) =   3.1200   J(  2) =   0.7000   B(  2) =   0.0803



     16 Sym. Ops., with inversion, found ( 8 have fractional translation)



   Cartesian axes

     site n.     atom                  positions (alat units)
         1           Mn1 tau(   1) = (   0.0000000   0.0000000   0.0000000  )
         2           Mn1 tau(   2) = (   0.5000000   0.5000000   1.3079615  )
         3           Mn1 tau(   3) = (   0.0000000   0.0000000   2.6159231  )
         4           Mn1 tau(   4) = (   0.5000000   0.5000000   3.9238846  )
         5           Mn1 tau(   5) = (   0.0000000   0.0000000   5.2318461  )
         6           Mn2 tau(   6) = (   0.5000000   0.5000000   6.5398077  )
         7           Mn2 tau(   7) = (   0.0000000   0.0000000   7.8477692  )
         8           Mn2 tau(   8) = (   0.5000000   0.5000000   9.1557307  )
         9           Au  tau(   9) = (   0.5000000   0.5000000   0.4185477  )
        10           Au  tau(  10) = (   0.0000000   0.0000000   0.8894138  )
        11           Au  tau(  11) = (   0.0000000   0.0000000   1.7265092  )
        12           Au  tau(  12) = (   0.5000000   0.5000000   2.1973754  )
        13           Au  tau(  13) = (   0.5000000   0.5000000   3.0344708  )
        14           Au  tau(  14) = (   0.0000000   0.0000000   3.5053369  )
        15           Au  tau(  15) = (   0.0000000   0.0000000   4.3424323  )
        16           Au  tau(  16) = (   0.5000000   0.5000000   4.8132984  )
        17           Au  tau(  17) = (   0.5000000   0.5000000   5.6503938  )
        18           Au  tau(  18) = (   0.0000000   0.0000000   6.1212600  )
        19           Au  tau(  19) = (   0.0000000   0.0000000   6.9583554  )
        20           Au  tau(  20) = (   0.5000000   0.5000000   7.4292215  )
        21           Au  tau(  21) = (   0.5000000   0.5000000   8.2663169  )
        22           Au  tau(  22) = (   0.0000000   0.0000000   8.7371830  )
        23           Au  tau(  23) = (   0.0000000   0.0000000   9.5742784  )
        24           Au  tau(  24) = (   0.5000000   0.5000000  10.0451446  )

     number of k points=    40 (tetrahedron method)
                       cart. coord. in units 2pi/alat
        k(    1) = (   0.0000000   0.0000000   0.0000000), wk =   0.0046296
        k(    2) = (   0.0000000   0.0000000   0.0159281), wk =   0.0092593
        k(    3) = (   0.0000000   0.0000000   0.0318562), wk =   0.0092593
        k(    4) = (   0.0000000   0.0000000  -0.0477843), wk =   0.0046296
        k(    5) = (   0.0000000   0.1666667   0.0000000), wk =   0.0185185
        k(    6) = (   0.0000000   0.1666667   0.0159281), wk =   0.0370370
        k(    7) = (   0.0000000   0.1666667   0.0318562), wk =   0.0370370
        k(    8) = (   0.0000000   0.1666667  -0.0477843), wk =   0.0185185
        k(    9) = (   0.0000000   0.3333333   0.0000000), wk =   0.0185185
        k(   10) = (   0.0000000   0.3333333   0.0159281), wk =   0.0370370
        k(   11) = (   0.0000000   0.3333333   0.0318562), wk =   0.0370370
        k(   12) = (   0.0000000   0.3333333  -0.0477843), wk =   0.0185185
        k(   13) = (   0.0000000  -0.5000000   0.0000000), wk =   0.0092593
        k(   14) = (   0.0000000  -0.5000000   0.0159281), wk =   0.0185185
        k(   15) = (   0.0000000  -0.5000000   0.0318562), wk =   0.0185185
        k(   16) = (   0.0000000  -0.5000000  -0.0477843), wk =   0.0092593
        k(   17) = (   0.1666667   0.1666667   0.0000000), wk =   0.0185185
        k(   18) = (   0.1666667   0.1666667   0.0159281), wk =   0.0370370
        k(   19) = (   0.1666667   0.1666667   0.0318562), wk =   0.0370370
        k(   20) = (   0.1666667   0.1666667  -0.0477843), wk =   0.0185185
        k(   21) = (   0.1666667   0.3333333   0.0000000), wk =   0.0370370
        k(   22) = (   0.1666667   0.3333333   0.0159281), wk =   0.0740741
        k(   23) = (   0.1666667   0.3333333   0.0318562), wk =   0.0740741
        k(   24) = (   0.1666667   0.3333333  -0.0477843), wk =   0.0370370
        k(   25) = (   0.1666667  -0.5000000   0.0000000), wk =   0.0185185
        k(   26) = (   0.1666667  -0.5000000   0.0159281), wk =   0.0370370
        k(   27) = (   0.1666667  -0.5000000   0.0318562), wk =   0.0370370
        k(   28) = (   0.1666667  -0.5000000  -0.0477843), wk =   0.0185185
        k(   29) = (   0.3333333   0.3333333   0.0000000), wk =   0.0185185
        k(   30) = (   0.3333333   0.3333333   0.0159281), wk =   0.0370370
        k(   31) = (   0.3333333   0.3333333   0.0318562), wk =   0.0370370
        k(   32) = (   0.3333333   0.3333333  -0.0477843), wk =   0.0185185
        k(   33) = (   0.3333333  -0.5000000   0.0000000), wk =   0.0185185
        k(   34) = (   0.3333333  -0.5000000   0.0159281), wk =   0.0370370
        k(   35) = (   0.3333333  -0.5000000   0.0318562), wk =   0.0370370
        k(   36) = (   0.3333333  -0.5000000  -0.0477843), wk =   0.0185185
        k(   37) = (  -0.5000000  -0.5000000   0.0000000), wk =   0.0046296
        k(   38) = (  -0.5000000  -0.5000000   0.0159281), wk =   0.0092593
        k(   39) = (  -0.5000000  -0.5000000   0.0318562), wk =   0.0092593
        k(   40) = (  -0.5000000  -0.5000000  -0.0477843), wk =   0.0046296

     Dense  grid:   373547 G-vectors     FFT dimensions: (  45,  45, 432)

     Smooth grid:   112863 G-vectors     FFT dimensions: (  27,  27, 288)

     Estimated max dynamical RAM per process >     174.65 MB

     Estimated total dynamical RAM >       5.46 GB
     Generating pointlists ...
     new r_m :   0.3389 (alat units)  2.1745 (a.u.) for type    1
     new r_m :   0.3389 (alat units)  2.1745 (a.u.) for type    2
     new r_m :   0.3389 (alat units)  2.1745 (a.u.) for type    3

     Check: negative/imaginary core charge=   -0.000006    0.000000

     Initial potential from superposition of free atoms

     starting charge  295.99426, renormalised to  296.00000
     Number of +U iterations with fixed ns =  0
     Starting occupations:
 --- enter write_ns ---
 LDA+U parameters:
U(  1) =   3.1200   J(  1) =   0.7000   B(  1) =   0.0803
U(  2) =   3.1200   J(  2) =   0.7000   B(  2) =   0.0803
atom    1   Tr[ns(na)] (up, down, total) =   5.00000  0.00000  5.00000
   spin  1
    eigenvalues: 
  1.000  1.000  1.000  1.000  1.000
    eigenvectors:
  1.000  0.000  0.000  0.000  0.000
  0.000  1.000  0.000  0.000  0.000
  0.000  0.000  1.000  0.000  0.000
  0.000  0.000  0.000  1.000  0.000
  0.000  0.000  0.000  0.000  1.000
    occupations:
  1.000  0.000  0.000  0.000  0.000
  0.000  1.000  0.000  0.000  0.000
  0.000  0.000  1.000  0.000  0.000
  0.000  0.000  0.000  1.000  0.000
  0.000  0.000  0.000  0.000  1.000
   spin  2
    eigenvalues: 
  0.000  0.000  0.000  0.000  0.000
    eigenvectors:
  1.000  0.000  0.000  0.000  0.000
  0.000  1.000  0.000  0.000  0.000
  0.000  0.000  1.000  0.000  0.000
  0.000  0.000  0.000  1.000  0.000
  0.000  0.000  0.000  0.000  1.000
    occupations:
  0.000  0.000  0.000  0.000  0.000
  0.000  0.000  0.000  0.000  0.000
  0.000  0.000  0.000  0.000  0.000
  0.000  0.000  0.000  0.000  0.000
  0.000  0.000  0.000  0.000  0.000
atomic mag. moment =     5.000000
atom    2   Tr[ns(na)] (up, down, total) =   5.00000  0.00000  5.00000
   spin  1
    eigenvalues: 
  1.000  1.000  1.000  1.000  1.000
    eigenvectors:
  1.000  0.000  0.000  0.000  0.000
  0.000  1.000  0.000  0.000  0.000
  0.000  0.000  1.000  0.000  0.000
  0.000  0.000  0.000  1.000  0.000
  0.000  0.000  0.000  0.000  1.000
    occupations:
  1.000  0.000  0.000  0.000  0.000
  0.000  1.000  0.000  0.000  0.000
  0.000  0.000  1.000  0.000  0.000
  0.000  0.000  0.000  1.000  0.000
  0.000  0.000  0.000  0.000  1.000
   spin  2
    eigenvalues: 
  0.000  0.000  0.000  0.000  0.000
    eigenvectors:
  1.000  0.000  0.000  0.000  0.000
  0.000  1.000  0.000  0.000  0.000
  0.000  0.000  1.000  0.000  0.000
  0.000  0.000  0.000  1.000  0.000
  0.000  0.000  0.000  0.000  1.000
    occupations:
  0.000  0.000  0.000  0.000  0.000
  0.000  0.000  0.000  0.000  0.000
  0.000  0.000  0.000  0.000  0.000
  0.000  0.000  0.000  0.000  0.000
  0.000  0.000  0.000  0.000  0.000
atomic mag. moment =     5.000000
atom    3   Tr[ns(na)] (up, down, total) =   5.00000  0.00000  5.00000
   spin  1
    eigenvalues: 
  1.000  1.000  1.000  1.000  1.000
    eigenvectors:
  1.000  0.000  0.000  0.000  0.000
  0.000  1.000  0.000  0.000  0.000
  0.000  0.000  1.000  0.000  0.000
  0.000  0.000  0.000  1.000  0.000
  0.000  0.000  0.000  0.000  1.000
    occupations:
  1.000  0.000  0.000  0.000  0.000
  0.000  1.000  0.000  0.000  0.000
  0.000  0.000  1.000  0.000  0.000
  0.000  0.000  0.000  1.000  0.000
  0.000  0.000  0.000  0.000  1.000
   spin  2
    eigenvalues: 
  0.000  0.000  0.000  0.000  0.000
    eigenvectors:
  1.000  0.000  0.000  0.000  0.000
  0.000  1.000  0.000  0.000  0.000
  0.000  0.000  1.000  0.000  0.000
  0.000  0.000  0.000  1.000  0.000
  0.000  0.000  0.000  0.000  1.000
    occupations:
  0.000  0.000  0.000  0.000  0.000
  0.000  0.000  0.000  0.000  0.000
  0.000  0.000  0.000  0.000  0.000
  0.000  0.000  0.000  0.000  0.000
  0.000  0.000  0.000  0.000  0.000
atomic mag. moment =     5.000000
atom    4   Tr[ns(na)] (up, down, total) =   5.00000  0.00000  5.00000
   spin  1
    eigenvalues: 
  1.000  1.000  1.000  1.000  1.000
    eigenvectors:
  1.000  0.000  0.000  0.000  0.000
  0.000  1.000  0.000  0.000  0.000
  0.000  0.000  1.000  0.000  0.000
  0.000  0.000  0.000  1.000  0.000
  0.000  0.000  0.000  0.000  1.000
    occupations:
  1.000  0.000  0.000  0.000  0.000
  0.000  1.000  0.000  0.000  0.000
  0.000  0.000  1.000  0.000  0.000
  0.000  0.000  0.000  1.000  0.000
  0.000  0.000  0.000  0.000  1.000
   spin  2
    eigenvalues: 
  0.000  0.000  0.000  0.000  0.000
    eigenvectors:
  1.000  0.000  0.000  0.000  0.000
  0.000  1.000  0.000  0.000  0.000
  0.000  0.000  1.000  0.000  0.000
  0.000  0.000  0.000  1.000  0.000
  0.000  0.000  0.000  0.000  1.000
    occupations:
  0.000  0.000  0.000  0.000  0.000
  0.000  0.000  0.000  0.000  0.000
  0.000  0.000  0.000  0.000  0.000
  0.000  0.000  0.000  0.000  0.000
  0.000  0.000  0.000  0.000  0.000
atomic mag. moment =     5.000000
atom    5   Tr[ns(na)] (up, down, total) =   5.00000  0.00000  5.00000
   spin  1
    eigenvalues: 
  1.000  1.000  1.000  1.000  1.000
    eigenvectors:
  1.000  0.000  0.000  0.000  0.000
  0.000  1.000  0.000  0.000  0.000
  0.000  0.000  1.000  0.000  0.000
  0.000  0.000  0.000  1.000  0.000
  0.000  0.000  0.000  0.000  1.000
    occupations:
  1.000  0.000  0.000  0.000  0.000
  0.000  1.000  0.000  0.000  0.000
  0.000  0.000  1.000  0.000  0.000
  0.000  0.000  0.000  1.000  0.000
  0.000  0.000  0.000  0.000  1.000
   spin  2
    eigenvalues: 
  0.000  0.000  0.000  0.000  0.000
    eigenvectors:
  1.000  0.000  0.000  0.000  0.000
  0.000  1.000  0.000  0.000  0.000
  0.000  0.000  1.000  0.000  0.000
  0.000  0.000  0.000  1.000  0.000
  0.000  0.000  0.000  0.000  1.000
    occupations:
  0.000  0.000  0.000  0.000  0.000
  0.000  0.000  0.000  0.000  0.000
  0.000  0.000  0.000  0.000  0.000
  0.000  0.000  0.000  0.000  0.000
  0.000  0.000  0.000  0.000  0.000
atomic mag. moment =     5.000000
atom    6   Tr[ns(na)] (up, down, total) =   0.00000  5.00000  5.00000
   spin  1
    eigenvalues: 
  0.000  0.000  0.000  0.000  0.000
    eigenvectors:
  1.000  0.000  0.000  0.000  0.000
  0.000  1.000  0.000  0.000  0.000
  0.000  0.000  1.000  0.000  0.000
  0.000  0.000  0.000  1.000  0.000
  0.000  0.000  0.000  0.000  1.000
    occupations:
  0.000  0.000  0.000  0.000  0.000
  0.000  0.000  0.000  0.000  0.000
  0.000  0.000  0.000  0.000  0.000
  0.000  0.000  0.000  0.000  0.000
  0.000  0.000  0.000  0.000  0.000
   spin  2
    eigenvalues: 
  1.000  1.000  1.000  1.000  1.000
    eigenvectors:
  1.000  0.000  0.000  0.000  0.000
  0.000  1.000  0.000  0.000  0.000
  0.000  0.000  1.000  0.000  0.000
  0.000  0.000  0.000  1.000  0.000
  0.000  0.000  0.000  0.000  1.000
    occupations:
  1.000  0.000  0.000  0.000  0.000
  0.000  1.000  0.000  0.000  0.000
  0.000  0.000  1.000  0.000  0.000
  0.000  0.000  0.000  1.000  0.000
  0.000  0.000  0.000  0.000  1.000
atomic mag. moment =    -5.000000
atom    7   Tr[ns(na)] (up, down, total) =   0.00000  5.00000  5.00000
   spin  1
    eigenvalues: 
  0.000  0.000  0.000  0.000  0.000
    eigenvectors:
  1.000  0.000  0.000  0.000  0.000
  0.000  1.000  0.000  0.000  0.000
  0.000  0.000  1.000  0.000  0.000
  0.000  0.000  0.000  1.000  0.000
  0.000  0.000  0.000  0.000  1.000
    occupations:
  0.000  0.000  0.000  0.000  0.000
  0.000  0.000  0.000  0.000  0.000
  0.000  0.000  0.000  0.000  0.000
  0.000  0.000  0.000  0.000  0.000
  0.000  0.000  0.000  0.000  0.000
   spin  2
    eigenvalues: 
  1.000  1.000  1.000  1.000  1.000
    eigenvectors:
  1.000  0.000  0.000  0.000  0.000
  0.000  1.000  0.000  0.000  0.000
  0.000  0.000  1.000  0.000  0.000
  0.000  0.000  0.000  1.000  0.000
  0.000  0.000  0.000  0.000  1.000
    occupations:
  1.000  0.000  0.000  0.000  0.000
  0.000  1.000  0.000  0.000  0.000
  0.000  0.000  1.000  0.000  0.000
  0.000  0.000  0.000  1.000  0.000
  0.000  0.000  0.000  0.000  1.000
atomic mag. moment =    -5.000000
atom    8   Tr[ns(na)] (up, down, total) =   0.00000  5.00000  5.00000
   spin  1
    eigenvalues: 
  0.000  0.000  0.000  0.000  0.000
    eigenvectors:
  1.000  0.000  0.000  0.000  0.000
  0.000  1.000  0.000  0.000  0.000
  0.000  0.000  1.000  0.000  0.000
  0.000  0.000  0.000  1.000  0.000
  0.000  0.000  0.000  0.000  1.000
    occupations:
  0.000  0.000  0.000  0.000  0.000
  0.000  0.000  0.000  0.000  0.000
  0.000  0.000  0.000  0.000  0.000
  0.000  0.000  0.000  0.000  0.000
  0.000  0.000  0.000  0.000  0.000
   spin  2
    eigenvalues: 
  1.000  1.000  1.000  1.000  1.000
    eigenvectors:
  1.000  0.000  0.000  0.000  0.000
  0.000  1.000  0.000  0.000  0.000
  0.000  0.000  1.000  0.000  0.000
  0.000  0.000  0.000  1.000  0.000
  0.000  0.000  0.000  0.000  1.000
    occupations:
  1.000  0.000  0.000  0.000  0.000
  0.000  1.000  0.000  0.000  0.000
  0.000  0.000  1.000  0.000  0.000
  0.000  0.000  0.000  1.000  0.000
  0.000  0.000  0.000  0.000  1.000
atomic mag. moment =    -5.000000
N of occupied +U levels =   40.000000
 --- exit write_ns ---
 Atomic wfc used for LDA+U Projector are NOT orthogonalized
     Starting wfcs are  224 randomized atomic wfcs
     Checking if some PAW data can be deallocated... 

     total cpu time spent up to now is       27.7 secs

     Self-consistent Calculation

     iteration #  1     ecut=    45.00 Ry     beta= 0.10
     Davidson diagonalization with overlap
     ethr =  1.00E-02,  avg # of iterations =  4.2
 --- enter write_ns ---
 LDA+U parameters:
U(  1) =   3.1200   J(  1) =   0.7000   B(  1) =   0.0803
U(  2) =   3.1200   J(  2) =   0.7000   B(  2) =   0.0803
atom    1   Tr[ns(na)] (up, down, total) =   5.01750  0.39513  5.41263
   spin  1
    eigenvalues: 
  1.003  1.003  1.003  1.004  1.004
    eigenvectors:
  0.000  0.000  0.000  1.000  0.000
  0.000  0.267  0.733  0.000  0.000
  0.000  0.733  0.267  0.000  0.000
  0.000  0.000  0.000  0.000  1.000
  1.000  0.000  0.000  0.000  0.000
    occupations:
  1.004 -0.000 -0.000  0.000  0.000
 -0.000  1.003 -0.000  0.000  0.000
 -0.000 -0.000  1.003  0.000  0.000
  0.000  0.000  0.000  1.004 -0.000
  0.000  0.000  0.000 -0.000  1.003
   spin  2
    eigenvalues: 
  0.051  0.069  0.079  0.079  0.116
    eigenvectors:
  0.000  1.000  0.000  0.000  0.000
  0.000  0.000  0.345  0.655  0.000
  0.000  0.000  0.655  0.345  0.000
  1.000  0.000  0.000  0.000  0.000
  0.000  0.000  0.000  0.000  1.000
    occupations:
  0.069 -0.000 -0.000  0.000  0.000
 -0.000  0.079 -0.000  0.000  0.000
 -0.000 -0.000  0.079  0.000  0.000
  0.000  0.000  0.000  0.051 -0.000
  0.000  0.000  0.000 -0.000  0.116
atomic mag. moment =     4.622362
atom    2   Tr[ns(na)] (up, down, total) =   5.01757  0.38954  5.40711
   spin  1
    eigenvalues: 
  1.003  1.003  1.003  1.004  1.004
    eigenvectors:
  0.000  0.000  0.000  1.000  0.000
  0.000  0.253  0.747  0.000  0.000
  0.000  0.747  0.253  0.000  0.000
  0.000  0.000  0.000  0.000  1.000
  1.000  0.000  0.000  0.000  0.000
    occupations:
  1.004 -0.000 -0.000  0.000  0.000
 -0.000  1.003 -0.000  0.000  0.000
 -0.000 -0.000  1.003  0.000  0.000
  0.000  0.000  0.000  1.004 -0.000
  0.000  0.000  0.000 -0.000  1.003
   spin  2
    eigenvalues: 
  0.051  0.070  0.080  0.080  0.109
    eigenvectors:
  0.000  1.000  0.000  0.000  0.000
  0.000  0.000  0.350  0.650  0.000
  0.000  0.000  0.650  0.350  0.000
  1.000  0.000  0.000  0.000  0.000
  0.000  0.000  0.000  0.000  1.000
    occupations:
  0.070 -0.000 -0.000  0.000  0.000
 -0.000  0.080 -0.000  0.000  0.000
 -0.000 -0.000  0.080  0.000  0.000
  0.000  0.000  0.000  0.051 -0.000
  0.000  0.000  0.000 -0.000  0.109
atomic mag. moment =     4.628029
atom    3   Tr[ns(na)] (up, down, total) =   5.01762  0.38890  5.40652
   spin  1
    eigenvalues: 
  1.003  1.003  1.003  1.004  1.004
    eigenvectors:
  0.000  0.000  0.000  1.000  0.000
  0.000  0.295  0.705  0.000  0.000
  0.000  0.705  0.295  0.000  0.000
  0.000  0.000  0.000  0.000  1.000
  1.000  0.000  0.000  0.000  0.000
    occupations:
  1.004 -0.000 -0.000  0.000  0.000
 -0.000  1.003 -0.000  0.000  0.000
 -0.000 -0.000  1.003  0.000  0.000
  0.000  0.000  0.000  1.004 -0.000
  0.000  0.000  0.000 -0.000  1.003
   spin  2
    eigenvalues: 
  0.051  0.069  0.080  0.080  0.110
    eigenvectors:
  0.000  1.000  0.000  0.000  0.000
  0.000  0.000  0.235  0.765  0.000
  0.000  0.000  0.765  0.235  0.000
  1.000  0.000  0.000  0.000  0.000
  0.000  0.000  0.000  0.000  1.000
    occupations:
  0.069 -0.000 -0.000  0.000  0.000
 -0.000  0.080 -0.000  0.000  0.000
 -0.000 -0.000  0.080  0.000  0.000
  0.000  0.000  0.000  0.051 -0.000
  0.000  0.000  0.000 -0.000  0.110
atomic mag. moment =     4.628724
atom    4   Tr[ns(na)] (up, down, total) =   5.01757  0.38954  5.40711
   spin  1
    eigenvalues: 
  1.003  1.003  1.003  1.004  1.004
    eigenvectors:
  0.000  0.000  0.000  1.000  0.000
  0.000  0.309  0.691  0.000  0.000
  0.000  0.691  0.309  0.000  0.000
  0.000  0.000  0.000  0.000  1.000
  1.000  0.000  0.000  0.000  0.000
    occupations:
  1.004 -0.000 -0.000  0.000  0.000
 -0.000  1.003 -0.000  0.000  0.000
 -0.000 -0.000  1.003  0.000  0.000
  0.000  0.000  0.000  1.004 -0.000
  0.000  0.000  0.000 -0.000  1.003
   spin  2
    eigenvalues: 
  0.051  0.070  0.080  0.080  0.109
    eigenvectors:
  0.000  1.000  0.000  0.000  0.000
  0.000  0.000  0.312  0.688  0.000
  0.000  0.000  0.688  0.312  0.000
  1.000  0.000  0.000  0.000  0.000
  0.000  0.000  0.000  0.000  1.000
    occupations:
  0.070 -0.000 -0.000  0.000  0.000
 -0.000  0.080 -0.000  0.000  0.000
 -0.000 -0.000  0.080  0.000  0.000
  0.000  0.000  0.000  0.051 -0.000
  0.000  0.000  0.000 -0.000  0.109
atomic mag. moment =     4.628029
atom    5   Tr[ns(na)] (up, down, total) =   5.01750  0.39513  5.41263
   spin  1
    eigenvalues: 
  1.003  1.003  1.003  1.004  1.004
    eigenvectors:
  0.000  0.000  0.000  1.000  0.000
  0.000  0.371  0.629  0.000  0.000
  0.000  0.629  0.371  0.000  0.000
  0.000  0.000  0.000  0.000  1.000
  1.000  0.000  0.000  0.000  0.000
    occupations:
  1.004 -0.000 -0.000  0.000  0.000
 -0.000  1.003 -0.000  0.000  0.000
 -0.000 -0.000  1.003  0.000  0.000
  0.000  0.000  0.000  1.004 -0.000
  0.000  0.000  0.000 -0.000  1.003
   spin  2
    eigenvalues: 
  0.051  0.069  0.079  0.079  0.116
    eigenvectors:
  0.000  1.000  0.000  0.000  0.000
  0.000  0.000  0.291  0.709  0.000
  0.000  0.000  0.709  0.291  0.000
  1.000  0.000  0.000  0.000  0.000
  0.000  0.000  0.000  0.000  1.000
    occupations:
  0.069 -0.000 -0.000  0.000  0.000
 -0.000  0.079 -0.000  0.000  0.000
 -0.000 -0.000  0.079  0.000  0.000
  0.000  0.000  0.000  0.051 -0.000
  0.000  0.000  0.000 -0.000  0.116
atomic mag. moment =     4.622362
atom    6   Tr[ns(na)] (up, down, total) =   0.39597  5.01764  5.41361
   spin  1
    eigenvalues: 
  0.052  0.070  0.079  0.079  0.116
    eigenvectors:
  0.000  1.000  0.000  0.000  0.000
  0.000  0.000  0.455  0.545  0.000
  0.000  0.000  0.545  0.455  0.000
  1.000  0.000  0.000  0.000  0.000
  0.000  0.000  0.000  0.000  1.000
    occupations:
  0.070 -0.000 -0.000  0.000  0.000
 -0.000  0.079 -0.000  0.000  0.000
 -0.000 -0.000  0.079  0.000  0.000
  0.000  0.000  0.000  0.052 -0.000
  0.000  0.000  0.000 -0.000  0.116
   spin  2
    eigenvalues: 
  1.003  1.003  1.003  1.004  1.004
    eigenvectors:
  0.000  0.000  0.000  1.000  0.000
  0.000  0.378  0.622  0.000  0.000
  0.000  0.622  0.378  0.000  0.000
  0.000  0.000  0.000  0.000  1.000
  1.000  0.000  0.000  0.000  0.000
    occupations:
  1.004 -0.000 -0.000  0.000  0.000
 -0.000  1.003 -0.000  0.000  0.000
 -0.000 -0.000  1.003  0.000  0.000
  0.000  0.000  0.000  1.004 -0.000
  0.000  0.000  0.000 -0.000  1.003
atomic mag. moment =    -4.621669
atom    7   Tr[ns(na)] (up, down, total) =   0.39135  5.01773  5.40908
   spin  1
    eigenvalues: 
  0.052  0.070  0.081  0.081  0.108
    eigenvectors:
  0.000  1.000  0.000  0.000  0.000
  0.000  0.000  0.318  0.682  0.000
  0.000  0.000  0.682  0.318  0.000
  1.000  0.000  0.000  0.000  0.000
  0.000  0.000  0.000  0.000  1.000
    occupations:
  0.070 -0.000 -0.000  0.000  0.000
 -0.000  0.081 -0.000  0.000  0.000
 -0.000 -0.000  0.081  0.000  0.000
  0.000  0.000  0.000  0.052 -0.000
  0.000  0.000  0.000 -0.000  0.108
   spin  2
    eigenvalues: 
  1.003  1.003  1.003  1.004  1.004
    eigenvectors:
  0.000  0.000  0.000  1.000  0.000
  0.000  0.221  0.779  0.000  0.000
  0.000  0.779  0.221  0.000  0.000
  0.000  0.000  0.000  0.000  1.000
  1.000  0.000  0.000  0.000  0.000
    occupations:
  1.004 -0.000 -0.000  0.000  0.000
 -0.000  1.003 -0.000  0.000  0.000
 -0.000 -0.000  1.003  0.000  0.000
  0.000  0.000  0.000  1.004 -0.000
  0.000  0.000  0.000 -0.000  1.003
atomic mag. moment =    -4.626386
atom    8   Tr[ns(na)] (up, down, total) =   0.39597  5.01764  5.41361
   spin  1
    eigenvalues: 
  0.052  0.070  0.079  0.079  0.116
    eigenvectors:
  0.000  1.000  0.000  0.000  0.000
  0.000  0.000  0.304  0.696  0.000
  0.000  0.000  0.696  0.304  0.000
  1.000  0.000  0.000  0.000  0.000
  0.000  0.000  0.000  0.000  1.000
    occupations:
  0.070 -0.000 -0.000  0.000  0.000
 -0.000  0.079 -0.000  0.000  0.000
 -0.000 -0.000  0.079  0.000  0.000
  0.000  0.000  0.000  0.052 -0.000
  0.000  0.000  0.000 -0.000  0.116
   spin  2
    eigenvalues: 
  1.003  1.003  1.003  1.004  1.004
    eigenvectors:
  0.000  0.000  0.000  1.000  0.000
  0.000  0.281  0.719  0.000  0.000
  0.000  0.719  0.281  0.000  0.000
  0.000  0.000  0.000  0.000  1.000
  1.000  0.000  0.000  0.000  0.000
    occupations:
  1.004 -0.000 -0.000  0.000  0.000
 -0.000  1.003 -0.000  0.000  0.000
 -0.000 -0.000  1.003  0.000  0.000
  0.000  0.000  0.000  1.004 -0.000
  0.000  0.000  0.000 -0.000  1.003
atomic mag. moment =    -4.621669
N of occupied +U levels =   43.282309
 --- exit write_ns ---

     total cpu time spent up to now is      104.6 secs

     total energy              =  -14687.29803887 Ry
     Harris-Foulkes estimate   =  -14685.83649103 Ry
     estimated scf accuracy    <      11.48751462 Ry

     total magnetization       =    10.20 Bohr mag/cell
     absolute magnetization    =    41.74 Bohr mag/cell

     iteration #  2     ecut=    45.00 Ry     beta= 0.10
     Davidson diagonalization with overlap
     ethr =  3.88E-03,  avg # of iterations =  1.0

     total cpu time spent up to now is      146.4 secs

     total energy              =  -14689.80925209 Ry
     Harris-Foulkes estimate   =  -14687.37499695 Ry
     estimated scf accuracy    <       9.54330750 Ry

     total magnetization       =    10.05 Bohr mag/cell
     absolute magnetization    =    41.41 Bohr mag/cell

     iteration #  3     ecut=    45.00 Ry     beta= 0.10
     Davidson diagonalization with overlap
     ethr =  3.22E-03,  avg # of iterations =  4.7

     total cpu time spent up to now is      220.7 secs

     total energy              =  -14690.83364129 Ry
     Harris-Foulkes estimate   =  -14691.65675203 Ry
     estimated scf accuracy    <     238.85986918 Ry

     total magnetization       =    10.13 Bohr mag/cell
     absolute magnetization    =    40.31 Bohr mag/cell

     iteration #  4     ecut=    45.00 Ry     beta= 0.10
     Davidson diagonalization with overlap
     ethr =  3.22E-03,  avg # of iterations =  4.6

     total cpu time spent up to now is      291.4 secs

     total energy              =  -14694.72484256 Ry
     Harris-Foulkes estimate   =  -14694.25000829 Ry
     estimated scf accuracy    <       4.08279802 Ry

     total magnetization       =     9.22 Bohr mag/cell
     absolute magnetization    =    38.46 Bohr mag/cell

     iteration #  5     ecut=    45.00 Ry     beta= 0.10
     Davidson diagonalization with overlap
     ethr =  1.38E-03,  avg # of iterations =  4.4

     total cpu time spent up to now is      358.3 secs

     total energy              =  -14694.37117566 Ry
     Harris-Foulkes estimate   =  -14694.78630122 Ry
     estimated scf accuracy    <       6.44921665 Ry

     total magnetization       =     9.13 Bohr mag/cell
     absolute magnetization    =    38.03 Bohr mag/cell

     iteration #  6     ecut=    45.00 Ry     beta= 0.10
     Davidson diagonalization with overlap
     ethr =  1.38E-03,  avg # of iterations =  1.3

     total cpu time spent up to now is      401.7 secs

     total energy              =  -14693.27220831 Ry
     Harris-Foulkes estimate   =  -14694.40002565 Ry
     estimated scf accuracy    <       5.25731966 Ry

     total magnetization       =     9.24 Bohr mag/cell
     absolute magnetization    =    38.32 Bohr mag/cell

     iteration #  7     ecut=    45.00 Ry     beta= 0.10
     Davidson diagonalization with overlap
     ethr =  1.38E-03,  avg # of iterations =  4.4

     total cpu time spent up to now is      484.7 secs

     total energy              =  -14693.99472237 Ry
     Harris-Foulkes estimate   =  -14693.96759976 Ry
     estimated scf accuracy    <       0.20088683 Ry

     total magnetization       =     8.84 Bohr mag/cell
     absolute magnetization    =    37.64 Bohr mag/cell

     iteration #  8     ecut=    45.00 Ry     beta= 0.10
     Davidson diagonalization with overlap
     ethr =  6.79E-05,  avg # of iterations =  4.3

     total cpu time spent up to now is      553.0 secs

     total energy              =  -14694.02013602 Ry
     Harris-Foulkes estimate   =  -14694.00716855 Ry
     estimated scf accuracy    <       0.08185691 Ry

     total magnetization       =     8.73 Bohr mag/cell
     absolute magnetization    =    37.43 Bohr mag/cell

     iteration #  9     ecut=    45.00 Ry     beta= 0.10
     Davidson diagonalization with overlap
     ethr =  2.77E-05,  avg # of iterations =  4.2

     total cpu time spent up to now is      621.5 secs

     total energy              =  -14694.00636580 Ry
     Harris-Foulkes estimate   =  -14694.03195551 Ry
     estimated scf accuracy    <       0.17814233 Ry

     total magnetization       =     8.58 Bohr mag/cell
     absolute magnetization    =    37.07 Bohr mag/cell

     iteration # 10     ecut=    45.00 Ry     beta= 0.10
     Davidson diagonalization with overlap
     ethr =  2.77E-05,  avg # of iterations =  2.7

     total cpu time spent up to now is      677.0 secs

     total energy              =  -14694.01947311 Ry
     Harris-Foulkes estimate   =  -14694.01712765 Ry
     estimated scf accuracy    <       0.02015940 Ry

     total magnetization       =     8.60 Bohr mag/cell
     absolute magnetization    =    37.18 Bohr mag/cell

     iteration # 11     ecut=    45.00 Ry     beta= 0.10
     Davidson diagonalization with overlap
     ethr =  6.81E-06,  avg # of iterations =  3.5

     total cpu time spent up to now is      738.1 secs

     total energy              =  -14694.01502773 Ry
     Harris-Foulkes estimate   =  -14694.02082547 Ry
     estimated scf accuracy    <       0.02804465 Ry

     total magnetization       =     8.63 Bohr mag/cell
     absolute magnetization    =    37.22 Bohr mag/cell

     iteration # 12     ecut=    45.00 Ry     beta= 0.10
     Davidson diagonalization with overlap
     ethr =  6.81E-06,  avg # of iterations =  3.7

     total cpu time spent up to now is      824.7 secs

     total energy              =  -14694.01809250 Ry
     Harris-Foulkes estimate   =  -14694.02436020 Ry
     estimated scf accuracy    <       0.01371044 Ry

     total magnetization       =     8.57 Bohr mag/cell
     absolute magnetization    =    37.18 Bohr mag/cell

     iteration # 13     ecut=    45.00 Ry     beta= 0.10
     Davidson diagonalization with overlap
     ethr =  4.63E-06,  avg # of iterations =  3.1

     total cpu time spent up to now is      892.1 secs

     total energy              =  -14694.02207186 Ry
     Harris-Foulkes estimate   =  -14694.02138341 Ry
     estimated scf accuracy    <       0.01793314 Ry

     total magnetization       =     8.56 Bohr mag/cell
     absolute magnetization    =    37.18 Bohr mag/cell

     iteration # 14     ecut=    45.00 Ry     beta= 0.10
     Davidson diagonalization with overlap
     ethr =  4.63E-06,  avg # of iterations =  1.0

     total cpu time spent up to now is      933.9 secs

     total energy              =  -14694.02207162 Ry
     Harris-Foulkes estimate   =  -14694.02258045 Ry
     estimated scf accuracy    <       0.00521248 Ry

     total magnetization       =     8.57 Bohr mag/cell
     absolute magnetization    =    37.17 Bohr mag/cell

     iteration # 15     ecut=    45.00 Ry     beta= 0.10
     Davidson diagonalization with overlap
     ethr =  1.76E-06,  avg # of iterations =  2.4

     total cpu time spent up to now is      988.3 secs

     total energy              =  -14694.02265039 Ry
     Harris-Foulkes estimate   =  -14694.02260574 Ry
     estimated scf accuracy    <       0.00021926 Ry

     total magnetization       =     8.56 Bohr mag/cell
     absolute magnetization    =    37.17 Bohr mag/cell

     iteration # 16     ecut=    45.00 Ry     beta= 0.10
     Davidson diagonalization with overlap
     ethr =  7.41E-08,  avg # of iterations =  3.1

     total cpu time spent up to now is     1053.0 secs

     total energy              =  -14694.02273592 Ry
     Harris-Foulkes estimate   =  -14694.02267581 Ry
     estimated scf accuracy    <       0.00017957 Ry

     total magnetization       =     8.55 Bohr mag/cell
     absolute magnetization    =    37.17 Bohr mag/cell

     iteration # 17     ecut=    45.00 Ry     beta= 0.10
     Davidson diagonalization with overlap
     ethr =  6.07E-08,  avg # of iterations =  1.5

     total cpu time spent up to now is     1098.0 secs

     total energy              =  -14694.02278315 Ry
     Harris-Foulkes estimate   =  -14694.02272409 Ry
     estimated scf accuracy    <       0.00009877 Ry

     total magnetization       =     8.55 Bohr mag/cell
     absolute magnetization    =    37.17 Bohr mag/cell

     iteration # 18     ecut=    45.00 Ry     beta= 0.10
     Davidson diagonalization with overlap
     ethr =  3.34E-08,  avg # of iterations =  2.5

     total cpu time spent up to now is     1153.9 secs

     total energy              =  -14694.02274163 Ry
     Harris-Foulkes estimate   =  -14694.02274121 Ry
     estimated scf accuracy    <       0.00004999 Ry

     total magnetization       =     8.54 Bohr mag/cell
     absolute magnetization    =    37.16 Bohr mag/cell

     iteration # 19     ecut=    45.00 Ry     beta= 0.10
     Davidson diagonalization with overlap
     ethr =  1.69E-08,  avg # of iterations =  2.7

     total cpu time spent up to now is     1217.9 secs

     total energy              =  -14694.02275995 Ry
     Harris-Foulkes estimate   =  -14694.02276284 Ry
     estimated scf accuracy    <       0.00005571 Ry

     total magnetization       =     8.54 Bohr mag/cell
     absolute magnetization    =    37.16 Bohr mag/cell

     iteration # 20     ecut=    45.00 Ry     beta= 0.10
     Davidson diagonalization with overlap
     ethr =  1.69E-08,  avg # of iterations =  1.6

     total cpu time spent up to now is     1264.0 secs

     total energy              =  -14694.02274882 Ry
     Harris-Foulkes estimate   =  -14694.02274611 Ry
     estimated scf accuracy    <       0.00000870 Ry

     total magnetization       =     8.54 Bohr mag/cell
     absolute magnetization    =    37.16 Bohr mag/cell

     iteration # 21     ecut=    45.00 Ry     beta= 0.10
     Davidson diagonalization with overlap
     ethr =  2.94E-09,  avg # of iterations =  2.6

     total cpu time spent up to now is     1319.2 secs

     total energy              =  -14694.02274231 Ry
     Harris-Foulkes estimate   =  -14694.02274004 Ry
     estimated scf accuracy    <       0.00000222 Ry

     total magnetization       =     8.54 Bohr mag/cell
     absolute magnetization    =    37.16 Bohr mag/cell

     iteration # 22     ecut=    45.00 Ry     beta= 0.10
     Davidson diagonalization with overlap
     ethr =  7.51E-10,  avg # of iterations =  2.4

     total cpu time spent up to now is     1372.0 secs

     total energy              =  -14694.02274351 Ry
     Harris-Foulkes estimate   =  -14694.02274163 Ry
     estimated scf accuracy    <       0.00000159 Ry

     total magnetization       =     8.54 Bohr mag/cell
     absolute magnetization    =    37.16 Bohr mag/cell

     iteration # 23     ecut=    45.00 Ry     beta= 0.10
     Davidson diagonalization with overlap
     ethr =  5.37E-10,  avg # of iterations =  2.2

     total cpu time spent up to now is     1423.2 secs

     total energy              =  -14694.02274362 Ry
     Harris-Foulkes estimate   =  -14694.02274227 Ry
     estimated scf accuracy    <       0.00000619 Ry

     total magnetization       =     8.54 Bohr mag/cell
     absolute magnetization    =    37.16 Bohr mag/cell

     iteration # 24     ecut=    45.00 Ry     beta= 0.10
     Davidson diagonalization with overlap
     ethr =  5.37E-10,  avg # of iterations =  1.8

     total cpu time spent up to now is     1470.5 secs

     total energy              =  -14694.02274565 Ry
     Harris-Foulkes estimate   =  -14694.02274479 Ry
     estimated scf accuracy    <       0.00000137 Ry

     total magnetization       =     8.54 Bohr mag/cell
     absolute magnetization    =    37.16 Bohr mag/cell

     iteration # 25     ecut=    45.00 Ry     beta= 0.10
     Davidson diagonalization with overlap
     ethr =  4.62E-10,  avg # of iterations =  2.5
 
     Magnetic moment per site:
     atom:    1    charge:   13.5495    magn:    4.2396    constr:    0.0000
     atom:    2    charge:   13.5536    magn:    4.2119    constr:    0.0000
     atom:    3    charge:   13.5545    magn:    4.2138    constr:    0.0000
     atom:    4    charge:   13.5536    magn:    4.2119    constr:    0.0000
     atom:    5    charge:   13.5495    magn:    4.2396    constr:    0.0000
     atom:    6    charge:   13.5493    magn:   -4.2486    constr:    0.0000
     atom:    7    charge:   13.5509    magn:   -4.2246    constr:    0.0000
     atom:    8    charge:   13.5493    magn:   -4.2486    constr:    0.0000
     atom:    9    charge:    9.1371    magn:    0.0287    constr:    0.0000
     atom:   10    charge:    9.1369    magn:    0.0289    constr:    0.0000
     atom:   11    charge:    9.1367    magn:    0.0306    constr:    0.0000
     atom:   12    charge:    9.1348    magn:    0.0249    constr:    0.0000
     atom:   13    charge:    9.1348    magn:    0.0249    constr:    0.0000
     atom:   14    charge:    9.1367    magn:    0.0306    constr:    0.0000
     atom:   15    charge:    9.1369    magn:    0.0289    constr:    0.0000
     atom:   16    charge:    9.1371    magn:    0.0287    constr:    0.0000
     atom:   17    charge:    9.1385    magn:    0.0364    constr:    0.0000
     atom:   18    charge:    9.1385    magn:   -0.0399    constr:    0.0000
     atom:   19    charge:    9.1371    magn:   -0.0311    constr:    0.0000
     atom:   20    charge:    9.1370    magn:   -0.0365    constr:    0.0000
     atom:   21    charge:    9.1370    magn:   -0.0365    constr:    0.0000
     atom:   22    charge:    9.1371    magn:   -0.0311    constr:    0.0000
     atom:   23    charge:    9.1385    magn:   -0.0399    constr:    0.0000
     atom:   24    charge:    9.1385    magn:    0.0364    constr:    0.0000

     total cpu time spent up to now is     1524.3 secs

     End of self-consistent calculation
 --- enter write_ns ---
 LDA+U parameters:
U(  1) =   3.1200   J(  1) =   0.7000   B(  1) =   0.0803
U(  2) =   3.1200   J(  2) =   0.7000   B(  2) =   0.0803
atom    1   Tr[ns(na)] (up, down, total) =   4.97305  0.73228  5.70532
   spin  1
    eigenvalues: 
  0.985  0.994  0.994  0.998  1.002
    eigenvectors:
  0.000  0.000  0.000  1.000  0.000
  0.000  0.339  0.661  0.000  0.000
  0.000  0.661  0.339  0.000  0.000
  0.000  0.000  0.000  0.000  1.000
  1.000  0.000  0.000  0.000  0.000
    occupations:
  0.998 -0.000 -0.000  0.000  0.000
 -0.000  0.994 -0.000  0.000  0.000
 -0.000 -0.000  0.994  0.000  0.000
  0.000  0.000  0.000  1.002 -0.000
  0.000  0.000  0.000 -0.000  0.985
   spin  2
    eigenvalues: 
  0.065  0.130  0.141  0.141  0.256
    eigenvectors:
  0.000  1.000  0.000  0.000  0.000
  0.000  0.000  0.280  0.720  0.000
  0.000  0.000  0.720  0.280  0.000
  1.000  0.000  0.000  0.000  0.000
  0.000  0.000  0.000  0.000  1.000
    occupations:
  0.130 -0.000 -0.000  0.000  0.000
 -0.000  0.141 -0.000  0.000  0.000
 -0.000 -0.000  0.141  0.000  0.000
  0.000  0.000  0.000  0.065 -0.000
  0.000  0.000  0.000 -0.000  0.256
atomic mag. moment =     4.240770
atom    2   Tr[ns(na)] (up, down, total) =   4.97184  0.75507  5.72691
   spin  1
    eigenvalues: 
  0.985  0.994  0.994  0.997  1.002
    eigenvectors:
  0.000  0.000  0.000  1.000  0.000
  0.000  0.326  0.674  0.000  0.000
  0.000  0.674  0.326  0.000  0.000
  0.000  0.000  0.000  0.000  1.000
  1.000  0.000  0.000  0.000  0.000
    occupations:
  0.997 -0.000 -0.000  0.000  0.000
 -0.000  0.994 -0.000  0.000  0.000
 -0.000 -0.000  0.994  0.000  0.000
  0.000  0.000  0.000  1.002 -0.000
  0.000  0.000  0.000 -0.000  0.985
   spin  2
    eigenvalues: 
  0.064  0.139  0.143  0.143  0.267
    eigenvectors:
  0.000  1.000  0.000  0.000  0.000
  0.000  0.000  0.300  0.700  0.000
  0.000  0.000  0.700  0.300  0.000
  1.000  0.000  0.000  0.000  0.000
  0.000  0.000  0.000  0.000  1.000
    occupations:
  0.139 -0.000 -0.000  0.000  0.000
 -0.000  0.143 -0.000  0.000  0.000
 -0.000 -0.000  0.143  0.000  0.000
  0.000  0.000  0.000  0.064 -0.000
  0.000  0.000  0.000 -0.000  0.267
atomic mag. moment =     4.216767
atom    3   Tr[ns(na)] (up, down, total) =   4.97205  0.75414  5.72619
   spin  1
    eigenvalues: 
  0.985  0.993  0.993  0.998  1.002
    eigenvectors:
  0.000  0.000  0.000  1.000  0.000
  0.000  0.298  0.702  0.000  0.000
  0.000  0.702  0.298  0.000  0.000
  0.000  0.000  0.000  0.000  1.000
  1.000  0.000  0.000  0.000  0.000
    occupations:
  0.998 -0.000 -0.000  0.000  0.000
 -0.000  0.993 -0.000  0.000  0.000
 -0.000 -0.000  0.993  0.000  0.000
  0.000  0.000  0.000  1.002 -0.000
  0.000  0.000  0.000 -0.000  0.985
   spin  2
    eigenvalues: 
  0.064  0.140  0.140  0.140  0.270
    eigenvectors:
  0.000  1.000  0.000  0.000  0.000
  0.000  0.000  0.376  0.624  0.000
  0.000  0.000  0.624  0.376  0.000
  1.000  0.000  0.000  0.000  0.000
  0.000  0.000  0.000  0.000  1.000
    occupations:
  0.140 -0.000 -0.000  0.000  0.000
 -0.000  0.140 -0.000  0.000  0.000
 -0.000 -0.000  0.140  0.000  0.000
  0.000  0.000  0.000  0.064 -0.000
  0.000  0.000  0.000 -0.000  0.270
atomic mag. moment =     4.217911
atom    4   Tr[ns(na)] (up, down, total) =   4.97184  0.75507  5.72691
   spin  1
    eigenvalues: 
  0.985  0.994  0.994  0.997  1.002
    eigenvectors:
  0.000  0.000  0.000  1.000  0.000
  0.000  0.315  0.685  0.000  0.000
  0.000  0.685  0.315  0.000  0.000
  0.000  0.000  0.000  0.000  1.000
  1.000  0.000  0.000  0.000  0.000
    occupations:
  0.997 -0.000 -0.000  0.000  0.000
 -0.000  0.994 -0.000  0.000  0.000
 -0.000 -0.000  0.994  0.000  0.000
  0.000  0.000  0.000  1.002 -0.000
  0.000  0.000  0.000 -0.000  0.985
   spin  2
    eigenvalues: 
  0.064  0.139  0.143  0.143  0.267
    eigenvectors:
  0.000  1.000  0.000  0.000  0.000
  0.000  0.000  0.348  0.652  0.000
  0.000  0.000  0.652  0.348  0.000
  1.000  0.000  0.000  0.000  0.000
  0.000  0.000  0.000  0.000  1.000
    occupations:
  0.139 -0.000 -0.000  0.000  0.000
 -0.000  0.143 -0.000  0.000  0.000
 -0.000 -0.000  0.143  0.000  0.000
  0.000  0.000  0.000  0.064 -0.000
  0.000  0.000  0.000 -0.000  0.267
atomic mag. moment =     4.216767
atom    5   Tr[ns(na)] (up, down, total) =   4.97305  0.73228  5.70532
   spin  1
    eigenvalues: 
  0.985  0.994  0.994  0.998  1.002
    eigenvectors:
  0.000  0.000  0.000  1.000  0.000
  0.000  0.305  0.695  0.000  0.000
  0.000  0.695  0.305  0.000  0.000
  0.000  0.000  0.000  0.000  1.000
  1.000  0.000  0.000  0.000  0.000
    occupations:
  0.998 -0.000 -0.000  0.000  0.000
 -0.000  0.994 -0.000  0.000  0.000
 -0.000 -0.000  0.994  0.000  0.000
  0.000  0.000  0.000  1.002 -0.000
  0.000  0.000  0.000 -0.000  0.985
   spin  2
    eigenvalues: 
  0.065  0.130  0.141  0.141  0.256
    eigenvectors:
  0.000  1.000  0.000  0.000  0.000
  0.000  0.000  0.349  0.651  0.000
  0.000  0.000  0.651  0.349  0.000
  1.000  0.000  0.000  0.000  0.000
  0.000  0.000  0.000  0.000  1.000
    occupations:
  0.130 -0.000 -0.000  0.000  0.000
 -0.000  0.141 -0.000  0.000  0.000
 -0.000 -0.000  0.141  0.000  0.000
  0.000  0.000  0.000  0.065 -0.000
  0.000  0.000  0.000 -0.000  0.256
atomic mag. moment =     4.240770
atom    6   Tr[ns(na)] (up, down, total) =   0.72692  4.97394  5.70086
   spin  1
    eigenvalues: 
  0.065  0.125  0.141  0.141  0.256
    eigenvectors:
  0.000  1.000  0.000  0.000  0.000
  0.000  0.000  0.263  0.737  0.000
  0.000  0.000  0.737  0.263  0.000
  1.000  0.000  0.000  0.000  0.000
  0.000  0.000  0.000  0.000  1.000
    occupations:
  0.125 -0.000 -0.000  0.000  0.000
 -0.000  0.141 -0.000  0.000  0.000
 -0.000 -0.000  0.141  0.000  0.000
  0.000  0.000  0.000  0.065 -0.000
  0.000  0.000  0.000 -0.000  0.256
   spin  2
    eigenvalues: 
  0.985  0.994  0.994  0.999  1.002
    eigenvectors:
  0.000  0.000  0.000  1.000  0.000
  0.000  0.358  0.642  0.000  0.000
  0.000  0.642  0.358  0.000  0.000
  0.000  0.000  0.000  0.000  1.000
  1.000  0.000  0.000  0.000  0.000
    occupations:
  0.999 -0.000 -0.000  0.000  0.000
 -0.000  0.994 -0.000  0.000  0.000
 -0.000 -0.000  0.994  0.000  0.000
  0.000  0.000  0.000  1.002 -0.000
  0.000  0.000  0.000 -0.000  0.985
atomic mag. moment =    -4.247022
atom    7   Tr[ns(na)] (up, down, total) =   0.74572  4.97309  5.71882
   spin  1
    eigenvalues: 
  0.065  0.135  0.140  0.140  0.266
    eigenvectors:
  0.000  1.000  0.000  0.000  0.000
  0.000  0.000  0.340  0.660  0.000
  0.000  0.000  0.660  0.340  0.000
  1.000  0.000  0.000  0.000  0.000
  0.000  0.000  0.000  0.000  1.000
    occupations:
  0.135 -0.000 -0.000  0.000  0.000
 -0.000  0.140 -0.000  0.000  0.000
 -0.000 -0.000  0.140  0.000  0.000
  0.000  0.000  0.000  0.065 -0.000
  0.000  0.000  0.000 -0.000  0.266
   spin  2
    eigenvalues: 
  0.986  0.994  0.994  0.997  1.002
    eigenvectors:
  0.000  0.000  0.000  1.000  0.000
  0.000  0.341  0.659  0.000  0.000
  0.000  0.659  0.341  0.000  0.000
  0.000  0.000  0.000  0.000  1.000
  1.000  0.000  0.000  0.000  0.000
    occupations:
  0.997 -0.000 -0.000  0.000  0.000
 -0.000  0.994 -0.000  0.000  0.000
 -0.000 -0.000  0.994  0.000  0.000
  0.000  0.000  0.000  1.002 -0.000
  0.000  0.000  0.000 -0.000  0.986
atomic mag. moment =    -4.227371
atom    8   Tr[ns(na)] (up, down, total) =   0.72692  4.97394  5.70086
   spin  1
    eigenvalues: 
  0.065  0.125  0.141  0.141  0.256
    eigenvectors:
  0.000  1.000  0.000  0.000  0.000
  0.000  0.000  0.357  0.643  0.000
  0.000  0.000  0.643  0.357  0.000
  1.000  0.000  0.000  0.000  0.000
  0.000  0.000  0.000  0.000  1.000
    occupations:
  0.125 -0.000 -0.000  0.000  0.000
 -0.000  0.141 -0.000  0.000  0.000
 -0.000 -0.000  0.141  0.000  0.000
  0.000  0.000  0.000  0.065 -0.000
  0.000  0.000  0.000 -0.000  0.256
   spin  2
    eigenvalues: 
  0.985  0.994  0.994  0.999  1.002
    eigenvectors:
  0.000  0.000  0.000  1.000  0.000
  0.000  0.252  0.748  0.000  0.000
  0.000  0.748  0.252  0.000  0.000
  0.000  0.000  0.000  0.000  1.000
  1.000  0.000  0.000  0.000  0.000
    occupations:
  0.999 -0.000 -0.000  0.000  0.000
 -0.000  0.994 -0.000  0.000  0.000
 -0.000 -0.000  0.994  0.000  0.000
  0.000  0.000  0.000  1.002 -0.000
  0.000  0.000  0.000 -0.000  0.985
atomic mag. moment =    -4.247022
N of occupied +U levels =   45.711193
 --- exit write_ns ---

 ------ SPIN UP ------------


          k = 0.0000 0.0000 0.0000 ( 14071 PWs)   bands (ev):

   -67.0277 -67.0277 -66.9185 -66.9185 -66.8923 -62.4289 -62.4289 -62.3773
   -35.8004 -35.8004 -35.7424 -35.7424 -35.7424 -35.7424 -35.6981 -35.6981
   -35.6738 -35.6319 -35.6319 -35.6319 -35.6319 -35.6054 -35.6054 -31.2515
   -31.2515 -31.2482 -31.2482 -31.2482 -31.2482 -31.2082 -31.1935 -31.1935
     5.5865   5.7096   5.8062   6.1644   6.2041   6.8200   6.8385   7.3958
     8.0313   8.1713   8.1913   8.2300   8.2860   8.3634   8.4452   8.5521
     8.5680   8.6228   8.6897   8.7862   8.9130   8.9431   8.9931   9.0136
     9.0286   9.1560   9.2111   9.3142   9.3615   9.3918   9.4845   9.6824
     9.7011   9.7416   9.8494   9.9193   9.9317   9.9317   9.9696   9.9696
    10.0005  10.0020  10.0020  10.0058  10.1213  10.1442  10.1442  10.1456
    10.1456  10.1913  10.3032  10.3162  10.3162  10.3209  10.3209  10.3395
    10.3805  10.3805  10.3818  10.3861  10.3861  10.3969  10.3969  10.4610
    10.4989  10.4989  10.4994  10.4994  10.5716  10.6471  10.7273  10.7773
    10.7773  10.8360  10.8637  10.8637  10.9000  10.9660  11.0079  11.0975
    11.1664  11.2559  11.2559  11.2698  11.2746  11.2746  11.2783  11.4409
    11.4871  11.5027  11.6575  11.6575  11.6726  11.6763  11.6834  11.6834
    11.7778  11.7832  11.8184  11.8797  11.9245  11.9665  11.9925  11.9925
    12.2269  12.2695  12.2695  12.4069  12.4965  12.4965  12.5195  12.5733
    12.7068  12.7842  12.7845  12.8075  13.4884  13.5698  14.4289  14.9490
    15.9767  16.5294  16.5294  16.6742  16.6742  16.6844  16.7057  16.7732
    16.8350  16.8613  16.9076  16.9272  16.9272  17.0327  17.2063  17.2591
    17.8498  18.9565  19.2440  19.8685  19.8685  20.2008  20.2008  20.3242
    20.3242  21.0118

          k = 0.0000 0.0000 0.0159 ( 14107 PWs)   bands (ev):

   -67.0277 -67.0277 -66.9185 -66.9185 -66.8923 -62.4289 -62.4289 -62.3773
   -35.8004 -35.8004 -35.7424 -35.7424 -35.7424 -35.7424 -35.6981 -35.6981
   -35.6738 -35.6319 -35.6319 -35.6319 -35.6319 -35.6054 -35.6054 -31.2515
   -31.2515 -31.2482 -31.2482 -31.2482 -31.2482 -31.2082 -31.1935 -31.1935
     5.5890   5.6957   5.8290   6.0952   6.2799   6.7114   6.9485   7.3664
     8.0566   8.1713   8.1922   8.2300   8.2852   8.3635   8.4424   8.5067
     8.5519   8.6637   8.6995   8.7874   8.9090   8.9404   8.9671   9.0351
     9.0563   9.1509   9.2040   9.2918   9.3636   9.4016   9.4882   9.6812
     9.7011   9.7416   9.8494   9.9192   9.9330   9.9330   9.9636   9.9636
    10.0004  10.0072  10.0108  10.0108  10.1121  10.1121  10.1212  10.1804
    10.1804  10.1920  10.3002  10.3143  10.3143  10.3204  10.3204  10.3365
    10.3488  10.3488  10.3874  10.3959  10.3959  10.4139  10.4139  10.4571
    10.4806  10.4806  10.5257  10.5257  10.5808  10.6482  10.7116  10.7468
    10.7468  10.8490  10.8961  10.8961  10.8994  10.9614  11.0079  11.0975
    11.1670  11.1977  11.1977  11.2699  11.2787  11.3332  11.3332  11.4398
    11.4869  11.5024  11.6162  11.6162  11.6727  11.6814  11.7169  11.7169
    11.7738  11.7780  11.8183  11.8884  11.9245  11.9628  11.9901  11.9901
    12.2272  12.2699  12.2699  12.4068  12.4964  12.4964  12.5244  12.5733
    12.7068  12.7132  12.8075  12.8686  13.3795  13.6880  14.3676  14.9998
    15.9481  16.5294  16.5294  16.6742  16.6742  16.6844  16.7058  16.7732
    16.8350  16.8613  16.9076  16.9272  16.9272  17.0505  17.2066  17.2576
    17.8639  18.8201  19.4149  19.8767  19.8767  20.1435  20.1435  20.4000
    20.4000  20.6506

          k = 0.0000 0.0000 0.0319 ( 14080 PWs)   bands (ev):

   -67.0277 -67.0277 -66.9185 -66.9185 -66.8923 -62.4289 -62.4289 -62.3773
   -35.8004 -35.8004 -35.7424 -35.7424 -35.7424 -35.7424 -35.6981 -35.6981
   -35.6738 -35.6319 -35.6319 -35.6319 -35.6319 -35.6054 -35.6054 -31.2515
   -31.2515 -31.2482 -31.2482 -31.2482 -31.2482 -31.2082 -31.1935 -31.1935
     5.5950   5.6740   5.8782   6.0172   6.3780   6.5978   7.0652   7.2918
     8.1130   8.1713   8.1967   8.2300   8.2831   8.3635   8.4001   8.4664
     8.5517   8.6614   8.7594   8.7900   8.8868   8.9014   8.9992   9.0488
     9.1047   9.1395   9.1837   9.2509   9.3676   9.4134   9.4954   9.6788
     9.7011   9.7416   9.8494   9.9189   9.9368   9.9368   9.9536   9.9536
    10.0003  10.0098  10.0292  10.0292  10.0826  10.0826  10.1212  10.1934
    10.2182  10.2182  10.2946  10.2958  10.2958  10.3196  10.3196  10.3280
    10.3280  10.3307  10.3960  10.3960  10.4000  10.4347  10.4347  10.4474
    10.4670  10.4670  10.5587  10.5587  10.6053  10.6502  10.6782  10.7002
    10.7002  10.8733  10.8983  10.9478  10.9478  10.9496  11.0078  11.0974
    11.1375  11.1375  11.1681  11.2702  11.2796  11.3952  11.3952  11.4376
    11.4866  11.5019  11.5629  11.5629  11.6728  11.6944  11.7473  11.7473
    11.7541  11.7786  11.8183  11.9061  11.9245  11.9528  11.9848  11.9848
    12.2278  12.2707  12.2707  12.4066  12.4963  12.4963  12.5369  12.5733
    12.6600  12.7067  12.8075  12.9591  13.2553  13.8380  14.2387  15.0904
    15.8881  16.5294  16.5294  16.6742  16.6742  16.6844  16.7057  16.7732
    16.8350  16.8613  16.9076  16.9272  16.9272  17.0851  17.2074  17.2540
    17.8973  18.6549  19.6970  19.8977  19.8977  20.0716  20.0716  20.3240
    20.5301  20.5301

          k = 0.0000 0.0000-0.0478 ( 14088 PWs)   bands (ev):

   -67.0277 -67.0277 -66.9185 -66.9185 -66.8923 -62.4289 -62.4289 -62.3773
   -35.8004 -35.8004 -35.7424 -35.7424 -35.7424 -35.7424 -35.6981 -35.6981
   -35.6738 -35.6319 -35.6319 -35.6319 -35.6319 -35.6054 -35.6054 -31.2515
   -31.2515 -31.2482 -31.2482 -31.2482 -31.2482 -31.2082 -31.1935 -31.1935
     5.5988   5.6641   5.9263   5.9602   6.4643   6.5063   7.1520   7.2169
     8.1451   8.1713   8.2060   8.2300   8.2805   8.3574   8.3636   8.4644
     8.5516   8.6565   8.7913   8.8116   8.8381   8.8979   9.0185   9.0566
     9.1328   9.1440   9.1548   9.2291   9.3696   9.4174   9.4989   9.6777
     9.7012   9.7416   9.8495   9.9188   9.9411   9.9411   9.9471   9.9471
    10.0002  10.0112  10.0459  10.0459  10.0625  10.0625  10.1211  10.1941
    10.2536  10.2536  10.2620  10.2620  10.2920  10.3193  10.3193  10.3255
    10.3255  10.3278  10.3960  10.3960  10.4081  10.4404  10.4453  10.4453
    10.4586  10.4586  10.5791  10.5791  10.6332  10.6471  10.6513  10.6749
    10.6749  10.8869  10.8977  10.9410  10.9769  10.9769  11.0078  11.0974
    11.1063  11.1063  11.1687  11.2703  11.2800  11.4300  11.4300  11.4365
    11.4864  11.5016  11.5309  11.5309  11.6729  11.7046  11.7412  11.7587
    11.7587  11.7789  11.8183  11.9178  11.9245  11.9444  11.9821  11.9821
    12.2280  12.2711  12.2711  12.4065  12.4962  12.4962  12.5458  12.5734
    12.6374  12.7067  12.8075  13.0163  13.1864  13.9318  14.1482  15.1339
    15.8559  16.5294  16.5294  16.6742  16.6742  16.6844  16.7057  16.7732
    16.8350  16.8613  16.9076  16.9272  16.9272  17.1020  17.2081  17.2516
    17.9175  18.5866  19.9131  19.9131  19.9955  20.0131  20.0382  20.0382
    20.6633  20.6633

          k = 0.0000 0.1667 0.0000 ( 14044 PWs)   bands (ev):

   -67.0273 -67.0273 -66.9181 -66.9181 -66.8920 -62.4289 -62.4289 -62.3773
   -35.8001 -35.8001 -35.7454 -35.7454 -35.7422 -35.7422 -35.6978 -35.6978
   -35.6736 -35.6350 -35.6350 -35.6318 -35.6318 -35.6084 -35.6052 -31.2519
   -31.2519 -31.2511 -31.2511 -31.2480 -31.2480 -31.2078 -31.1972 -31.1932
     6.0148   6.1311   6.2244   6.5613   6.5907   7.1554   7.1556   7.6415
     8.0579   8.3539   8.4050   8.4243   8.4378   8.4693   8.4732   8.5549
     8.6518   8.6736   8.7681   8.7736   8.8577   8.9309   8.9537   8.9740
     9.0704   9.1037   9.2438   9.2936   9.3071   9.4792   9.5092   9.5252
     9.5486   9.5916   9.6591   9.6719   9.6728   9.6925   9.7219   9.7471
     9.7789   9.8137   9.9140   9.9343   9.9353  10.0658  10.0916  10.1183
    10.1186  10.2049  10.2071  10.2095  10.2628  10.2932  10.3578  10.3612
    10.4064  10.4585  10.4769  10.5162  10.5261  10.5485  10.5975  10.6302
    10.6795  10.7045  10.7251  10.8276  10.8461  10.8751  10.8764  10.9673
    11.0085  11.0114  11.0158  11.0256  11.0667  11.0858  11.1070  11.1813
    11.1870  11.2287  11.2610  11.2681  11.3917  11.4051  11.4207  11.4368
    11.5407  11.5523  11.5597  11.6171  11.6555  11.6939  11.7082  11.7524
    11.8049  11.8217  11.8497  11.8826  11.8896  11.9503  11.9517  12.0083
    12.1672  12.2026  12.2155  12.3979  12.4010  12.4235  12.5878  12.5941
    12.7229  12.7253  12.7285  12.7493  13.5746  13.6897  14.6713  15.1523
    16.0861  16.1681  16.4304  16.5879  16.5937  16.6473  16.6501  16.7623
    16.8134  16.8157  16.8475  16.9725  17.0695  17.1152  17.2622  17.6168
    17.6382  17.9535  18.0986  18.2089  18.8615  18.8622  19.5243  19.6947
    19.8542  19.8668

          k = 0.0000 0.1667 0.0159 ( 14046 PWs)   bands (ev):

   -67.0273 -67.0273 -66.9181 -66.9181 -66.8920 -62.4289 -62.4289 -62.3773
   -35.8001 -35.8001 -35.7454 -35.7454 -35.7422 -35.7422 -35.6978 -35.6978
   -35.6736 -35.6350 -35.6350 -35.6318 -35.6318 -35.6084 -35.6052 -31.2519
   -31.2519 -31.2511 -31.2511 -31.2480 -31.2480 -31.2078 -31.1972 -31.1932
     6.0171   6.1183   6.2454   6.4946   6.6631   7.0519   7.2596   7.6150
     8.0789   8.3511   8.3885   8.4050   8.4346   8.4617   8.5131   8.5589
     8.6538   8.6722   8.7390   8.7974   8.8644   8.9223   8.9485   8.9757
     9.0789   9.1043   9.2249   9.2862   9.3359   9.4792   9.5090   9.5202
     9.5378   9.5920   9.6590   9.6728   9.6850   9.6920   9.7217   9.7471
     9.7744   9.8144   9.9129   9.9340   9.9377  10.0610  10.0781  10.1202
    10.1339  10.2066  10.2079  10.2128  10.2658  10.2922  10.3571  10.3619
    10.3834  10.4520  10.4822  10.5264  10.5385  10.5490  10.5977  10.6302
    10.6763  10.7080  10.7238  10.8270  10.8298  10.8757  10.8789  10.9559
    11.0106  11.0129  11.0234  11.0407  11.0649  11.0880  11.1065  11.1673
    11.1958  11.2328  11.2429  11.2962  11.3740  11.3905  11.4213  11.4476
    11.5161  11.5523  11.5790  11.6349  11.6574  11.6965  11.7131  11.7486
    11.8048  11.8112  11.8390  11.8823  11.8826  11.9488  11.9670  12.0125
    12.1674  12.2017  12.2128  12.3985  12.4011  12.4313  12.5877  12.5941
    12.6467  12.7229  12.7253  12.8465  13.4480  13.8261  14.5929  15.2182
    16.0206  16.2203  16.4214  16.5879  16.5948  16.6473  16.6502  16.7623
    16.8130  16.8160  16.8475  16.9725  17.0695  17.1116  17.2785  17.5846
    17.6246  17.9306  18.1679  18.2561  18.7160  19.0151  19.3000  19.6780
    19.9488  20.0318

          k = 0.0000 0.1667 0.0319 ( 14043 PWs)   bands (ev):

   -67.0273 -67.0273 -66.9181 -66.9181 -66.8920 -62.4289 -62.4289 -62.3773
   -35.8001 -35.8001 -35.7454 -35.7454 -35.7422 -35.7422 -35.6978 -35.6978
   -35.6736 -35.6350 -35.6350 -35.6318 -35.6318 -35.6084 -35.6052 -31.2519
   -31.2519 -31.2511 -31.2511 -31.2480 -31.2480 -31.2078 -31.1972 -31.1932
     6.0228   6.0981   6.2911   6.4221   6.7530   6.9506   7.3622   7.5482
     8.1259   8.3179   8.3628   8.4050   8.4333   8.4603   8.5386   8.5831
     8.6484   8.6730   8.7128   8.8114   8.8835   8.9076   8.9338   8.9774
     9.0959   9.1082   9.1937   9.2838   9.3765   9.4793   9.4934   9.5087
     9.5317   9.5927   9.6589   9.6729   9.6910   9.7120   9.7213   9.7472
     9.7609   9.8158   9.9113   9.9315   9.9447  10.0443  10.0726  10.1235
    10.1478  10.2036  10.2072  10.2361  10.2728  10.2888  10.3419  10.3564
    10.3627  10.4432  10.4887  10.5269  10.5502  10.5751  10.5992  10.6303
    10.6715  10.7135  10.7191  10.8006  10.8260  10.8762  10.8851  10.9382
    11.0116  11.0130  11.0381  11.0615  11.0681  11.0955  11.1052  11.1468
    11.2030  11.2320  11.2471  11.3252  11.3321  11.3843  11.4257  11.4533
    11.4754  11.5521  11.6191  11.6533  11.6601  11.6994  11.7359  11.7415
    11.7822  11.8032  11.8127  11.8797  11.8826  11.9455  11.9891  12.0202
    12.1677  12.1999  12.2071  12.3995  12.4014  12.4530  12.5742  12.5874
    12.5942  12.7228  12.7253  12.9635  13.2935  14.0093  14.4317  15.3332
    15.9291  16.2833  16.3974  16.5879  16.5968  16.6473  16.6502  16.7623
    16.8124  16.8165  16.8475  16.9725  17.0695  17.1053  17.3219  17.4927
    17.6326  17.8938  18.2895  18.3836  18.5822  19.0390  19.1765  19.5090
    20.1987  20.2715

          k = 0.0000 0.1667-0.0478 ( 14036 PWs)   bands (ev):

   -67.0273 -67.0273 -66.9181 -66.9181 -66.8920 -62.4289 -62.4289 -62.3773
   -35.8001 -35.8001 -35.7454 -35.7454 -35.7422 -35.7422 -35.6978 -35.6978
   -35.6736 -35.6350 -35.6350 -35.6318 -35.6318 -35.6084 -35.6052 -31.2519
   -31.2519 -31.2511 -31.2511 -31.2480 -31.2480 -31.2078 -31.1972 -31.1932
     6.0263   6.0889   6.3344   6.3706   6.8328   6.8670   7.4578   7.4627
     8.1570   8.2860   8.3611   8.4050   8.4328   8.4598   8.5424   8.6168
     8.6250   8.6767   8.7027   8.8151   8.8968   8.9080   8.9159   8.9778
     9.1008   9.1171   9.1765   9.2832   9.4008   9.4718   9.4794   9.5085
     9.5311   9.5931   9.6588   9.6730   9.6905   9.7210   9.7386   9.7400
     9.7472   9.8165   9.9106   9.9303   9.9486  10.0356  10.0719  10.1252
    10.1518  10.2019  10.2071  10.2565  10.2783  10.2849  10.3155  10.3562
    10.3629  10.4395  10.4911  10.5272  10.5507  10.5894  10.6041  10.6304
    10.6695  10.7144  10.7159  10.7869  10.8255  10.8764  10.8895  10.9294
    11.0123  11.0128  11.0442  11.0597  11.0816  11.1035  11.1040  11.1336
    11.2057  11.2288  11.2681  11.2898  11.3595  11.3705  11.4372  11.4474
    11.4543  11.5520  11.6511  11.6519  11.6583  11.7001  11.7392  11.7623
    11.7705  11.7751  11.8061  11.8808  11.8826  11.9437  11.9982  12.0238
    12.1679  12.1989  12.2041  12.3999  12.4017  12.4732  12.5370  12.5873
    12.5943  12.7228  12.7253  13.0467  13.1972  14.1414  14.3033  15.3906
    15.8833  16.3174  16.3761  16.5879  16.5977  16.6473  16.6503  16.7623
    16.8121  16.8167  16.8475  16.9725  17.0695  17.1025  17.3666  17.4285
    17.6375  17.8775  18.3657  18.4894  18.4957  18.9015  19.3267  19.3543
    20.3147  20.4488

          k = 0.0000 0.3333 0.0000 ( 14062 PWs)   bands (ev):

   -67.0276 -67.0276 -66.9184 -66.9184 -66.8923 -62.4279 -62.4279 -62.3763
   -35.7995 -35.7995 -35.7512 -35.7512 -35.7419 -35.7419 -35.6973 -35.6973
   -35.6730 -35.6408 -35.6408 -35.6314 -35.6314 -35.6142 -35.6049 -31.2594
   -31.2594 -31.2503 -31.2503 -31.2475 -31.2475 -31.2070 -31.2047 -31.1928
     7.1517   7.2406   7.3175   7.5472   7.5514   7.8162   7.8210   7.9888
     8.0030   8.1323   8.1389   8.2997   8.3477   8.5048   8.5725   8.7112
     8.7167   8.7535   8.8452   8.8560   8.9007   8.9479   9.0069   9.0480
     9.0865   9.0882   9.1303   9.1631   9.2642   9.2883   9.3000   9.3483
     9.3728   9.4304   9.4753   9.4996   9.6019   9.6716   9.6842   9.6852
     9.7863   9.8089   9.8615   9.8650   9.8886   9.8950   9.9958  10.0861
    10.1946  10.2071  10.2994  10.3066  10.3479  10.3589  10.4494  10.5066
    10.5840  10.7056  10.7454  10.7983  10.8049  10.8867  10.9711  10.9730
    10.9738  11.0039  11.0302  11.1434  11.1475  11.1626  11.2134  11.2348
    11.2491  11.2563  11.2736  11.2921  11.3260  11.3349  11.3515  11.3575
    11.4021  11.4546  11.4702  11.4863  11.4881  11.4952  11.5673  11.5751
    11.6452  11.6825  11.6860  11.7135  11.7379  11.7550  11.8054  11.8127
    11.8234  11.8570  11.8968  11.9229  11.9395  12.0470  12.0807  12.1694
    12.2044  12.2325  12.2979  12.4281  12.4955  12.5840  12.6253  12.6596
    12.6601  12.7175  12.7807  12.8195  13.7599  13.8296  14.3803  14.6147
    14.6750  14.8463  14.8558  15.2109  15.3614  15.6172  15.8660  16.1251
    16.3944  16.4280  16.5684  16.6120  16.6358  16.7207  16.8432  16.9175
    16.9624  17.2007  17.2058  17.2597  17.2874  17.6542  17.8077  18.0803
    18.8542  19.2789

          k = 0.0000 0.3333 0.0159 ( 14056 PWs)   bands (ev):

   -67.0276 -67.0276 -66.9184 -66.9184 -66.8923 -62.4279 -62.4279 -62.3763
   -35.7995 -35.7995 -35.7512 -35.7512 -35.7419 -35.7419 -35.6973 -35.6973
   -35.6730 -35.6408 -35.6408 -35.6314 -35.6314 -35.6142 -35.6049 -31.2594
   -31.2594 -31.2503 -31.2503 -31.2475 -31.2475 -31.2070 -31.2047 -31.1928
     7.1534   7.2320   7.3315   7.5007   7.5987   7.7812   7.8510   7.9751
     8.0175   8.1088   8.1636   8.2838   8.3629   8.4933   8.5846   8.6949
     8.7200   8.7670   8.8408   8.8495   8.9045   8.9474   9.0048   9.0580
     9.0865   9.0882   9.1303   9.1630   9.2643   9.2873   9.3000   9.3066
     9.4124   9.4301   9.4753   9.5065   9.6031   9.6685   9.6844   9.6873
     9.7847   9.8012   9.8110   9.8618   9.8930   9.9539   9.9972  10.0864
    10.1942  10.2072  10.2970  10.2985  10.3076  10.3747  10.4794  10.5105
    10.5847  10.6895  10.7407  10.7979  10.8125  10.8938  10.9599  10.9742
    10.9776  11.0287  11.0302  11.1407  11.1474  11.1512  11.1933  11.2138
    11.2415  11.2477  11.2729  11.2959  11.3242  11.3456  11.3604  11.3785
    11.4140  11.4525  11.4586  11.4803  11.4978  11.5094  11.5527  11.5931
    11.6401  11.6812  11.6869  11.6919  11.7514  11.7695  11.8093  11.8130
    11.8191  11.8570  11.8935  11.9239  11.9347  12.0520  12.0805  12.1769
    12.1919  12.2409  12.2998  12.4268  12.4836  12.4953  12.5845  12.6596
    12.7174  12.7807  12.8193  12.8195  13.5956  13.9900  14.3876  14.5634
    14.6909  14.7425  14.9956  15.1507  15.4053  15.5951  15.8686  16.1200
    16.3890  16.4280  16.5684  16.6184  16.6367  16.7207  16.8455  16.9051
    16.9803  17.2007  17.2058  17.2597  17.2848  17.6534  17.8087  18.0751
    18.8579  19.2408

          k = 0.0000 0.3333 0.0319 ( 14062 PWs)   bands (ev):

   -67.0276 -67.0276 -66.9184 -66.9184 -66.8923 -62.4279 -62.4279 -62.3763
   -35.7995 -35.7995 -35.7512 -35.7512 -35.7419 -35.7419 -35.6973 -35.6973
   -35.6730 -35.6408 -35.6408 -35.6314 -35.6314 -35.6142 -35.6049 -31.2594
   -31.2594 -31.2503 -31.2503 -31.2475 -31.2475 -31.2070 -31.2047 -31.1928
     7.1574   7.2179   7.3620   7.4549   7.6475   7.7399   7.8763   7.9583
     8.0381   8.0838   8.1919   8.2562   8.3870   8.4719   8.6089   8.6689
     8.7235   8.7900   8.8306   8.8360   8.9106   8.9465   9.0022   9.0784
     9.0864   9.0882   9.1303   9.1629   9.2602   9.2645   9.2899   9.3000
     9.4295   9.4428   9.4755   9.5308   9.6058   9.6633   9.6859   9.6901
     9.7358   9.7823   9.8147   9.8627   9.8889  10.0001  10.0242  10.0871
    10.1910  10.2078  10.2400  10.2922  10.3058  10.3775  10.5183  10.5328
    10.5867  10.6537  10.7314  10.7967  10.8190  10.9123  10.9611  10.9787
    10.9867  11.0300  11.0681  11.0901  11.1430  11.1463  11.1626  11.2080
    11.2153  11.2324  11.2807  11.3036  11.3226  11.3674  11.3688  11.3924
    11.4252  11.4376  11.4699  11.4783  11.5120  11.5247  11.5438  11.6037
    11.6307  11.6719  11.6845  11.6890  11.7521  11.7993  11.8106  11.8147
    11.8234  11.8570  11.8874  11.9192  11.9255  12.0632  12.0796  12.1734
    12.2031  12.2498  12.3040  12.3526  12.4240  12.4950  12.5854  12.6596
    12.7172  12.7807  12.8196  13.0050  13.3998  14.1743  14.4080  14.5022
    14.5323  14.8336  15.0445  15.1235  15.4267  15.5800  15.8600  16.1156
    16.3779  16.4280  16.5684  16.6299  16.6385  16.7207  16.8515  16.8882
    17.0079  17.2007  17.2058  17.2597  17.2790  17.6517  17.8113  18.0642
    18.8668  19.1816

          k = 0.0000 0.3333-0.0478 ( 14060 PWs)   bands (ev):

   -67.0276 -67.0276 -66.9184 -66.9184 -66.8923 -62.4279 -62.4279 -62.3763
   -35.7995 -35.7995 -35.7512 -35.7512 -35.7419 -35.7419 -35.6973 -35.6973
   -35.6730 -35.6408 -35.6408 -35.6314 -35.6314 -35.6142 -35.6049 -31.2594
   -31.2594 -31.2503 -31.2503 -31.2475 -31.2475 -31.2070 -31.2047 -31.1928
     7.1599   7.2114   7.3876   7.4248   7.6913   7.6986   7.8874   7.9499
     8.0599   8.0607   8.2130   8.2350   8.4003   8.4594   8.6290   8.6484
     8.7253   8.8106   8.8146   8.8300   8.9133   8.9460   9.0012   9.0865
     9.0882   9.0899   9.1303   9.1629   9.2415   9.2646   9.2896   9.3000
     9.4292   9.4508   9.4755   9.5505   9.6073   9.6609   9.6912   9.6952
     9.6958   9.7812   9.8164   9.8633   9.8867  10.0015  10.0624  10.0874
    10.1808  10.2106  10.2115  10.2899  10.3054  10.3776  10.5224  10.5653
    10.5929  10.6226  10.7267  10.7958  10.8199  10.9181  10.9722  10.9913
    11.0054  11.0276  11.0299  11.1054  11.1306  11.1423  11.1504  11.1977
    11.2180  11.2236  11.2822  11.3081  11.3220  11.3653  11.3916  11.4009
    11.4015  11.4468  11.4695  11.4775  11.5291  11.5305  11.5407  11.5929
    11.6350  11.6681  11.6842  11.6902  11.7520  11.8064  11.8068  11.8180
    11.8383  11.8568  11.8905  11.9007  11.9263  12.0708  12.0781  12.1648
    12.2528  12.2581  12.2587  12.3063  12.4225  12.4949  12.5859  12.6596
    12.7170  12.7807  12.8196  13.1723  13.2292  14.3327  14.3707  14.4445
    14.4628  14.9270  14.9474  15.1857  15.4008  15.5945  15.8483  16.1163
    16.3722  16.4280  16.5684  16.6352  16.6394  16.7207  16.8562  16.8798
    17.0205  17.2007  17.2058  17.2597  17.2758  17.6507  17.8128  18.0585
    18.8723  19.1559

          k = 0.0000-0.5000 0.0000 ( 14098 PWs)   bands (ev):

   -67.0283 -67.0283 -66.9191 -66.9191 -66.8930 -62.4270 -62.4270 -62.3754
   -35.7992 -35.7992 -35.7540 -35.7540 -35.7417 -35.7417 -35.6970 -35.6970
   -35.6727 -35.6436 -35.6436 -35.6312 -35.6312 -35.6170 -35.6047 -31.2633
   -31.2633 -31.2499 -31.2499 -31.2473 -31.2473 -31.2086 -31.2067 -31.1925
     7.9032   7.9106   7.9418   7.9555   8.0045   8.0833   8.1050   8.2214
     8.2247   8.2542   8.2862   8.3186   8.3224   8.4456   8.5046   8.5868
     8.6552   8.6835   8.7530   8.7827   8.9129   8.9164   8.9643   8.9744
     8.9831   9.0993   9.1152   9.1215   9.2811   9.3426   9.3725   9.3897
     9.4911   9.5252   9.5383   9.5453   9.5835   9.5907   9.5993   9.6247
     9.6429   9.7217   9.8209   9.8258   9.8516   9.8817   9.8854  10.0612
    10.1291  10.1563  10.1676  10.1878  10.3272  10.3742  10.3873  10.5051
    10.5588  10.7153  10.9775  11.0476  11.0978  11.1207  11.1353  11.1396
    11.1901  11.2271  11.2545  11.2719  11.2908  11.2922  11.3095  11.3119
    11.3120  11.3374  11.3753  11.4036  11.4163  11.4575  11.4936  11.5046
    11.5537  11.5539  11.5795  11.5807  11.6006  11.7700  11.7725  11.7729
    11.8961  11.9417  12.1157  12.1271  12.1328  12.1670  12.1758  12.2460
    12.2502  12.2531  12.2723  12.2913  12.3208  12.3716  12.4317  12.4353
    12.4510  12.5576  12.5860  12.6155  12.6320  12.6964  12.7078  12.7358
    12.7508  12.8417  12.8428  12.9465  13.0282  13.0722  13.1300  13.4652
    13.5511  13.5782  13.6140  14.0822  14.1076  14.1644  14.2078  14.5223
    14.5631  16.2053  16.3450  16.5340  16.5343  16.5392  16.5535  16.6220
    16.7290  16.7662  17.3264  17.3268  17.3810  17.7233  17.7416  17.7918
    18.9920  19.0054

          k = 0.0000-0.5000 0.0159 ( 14106 PWs)   bands (ev):

   -67.0283 -67.0283 -66.9191 -66.9191 -66.8930 -62.4270 -62.4270 -62.3754
   -35.7992 -35.7992 -35.7540 -35.7540 -35.7417 -35.7417 -35.6970 -35.6970
   -35.6727 -35.6436 -35.6436 -35.6312 -35.6312 -35.6170 -35.6047 -31.2633
   -31.2633 -31.2499 -31.2499 -31.2473 -31.2473 -31.2086 -31.2067 -31.1925
     7.9032   7.9107   7.9419   7.9552   8.0049   8.0822   8.1064   8.2170
     8.2234   8.2617   8.2883   8.3174   8.3187   8.4489   8.4992   8.5854
     8.6631   8.6887   8.7485   8.7742   8.9129   8.9164   8.9689   8.9744
     8.9831   9.1009   9.1152   9.1215   9.2810   9.3426   9.3701   9.3892
     9.4913   9.5231   9.5383   9.5434   9.5834   9.5906   9.5985   9.6249
     9.6422   9.7227   9.8209   9.8255   9.8516   9.8950   9.8972  10.0503
    10.1292  10.1527  10.1563  10.1706  10.3528  10.3742  10.3873  10.5051
    10.5588  10.7147  10.9797  11.0457  11.0975  11.1210  11.1358  11.1416
    11.1895  11.2271  11.2553  11.2704  11.2911  11.2949  11.3082  11.3110
    11.3149  11.3327  11.3753  11.3903  11.4096  11.4638  11.4932  11.5061
    11.5480  11.5539  11.5787  11.5996  11.6003  11.7700  11.7732  11.7772
    11.8953  11.9351  12.1157  12.1276  12.1312  12.1670  12.1775  12.2456
    12.2502  12.2553  12.2723  12.2882  12.3200  12.3725  12.4349  12.4354
    12.4510  12.5560  12.5860  12.6059  12.6319  12.7076  12.7129  12.7359
    12.7508  12.8417  12.8428  12.9291  13.0041  13.0940  13.1636  13.4325
    13.4737  13.6538  13.6587  14.0186  14.0482  14.2239  14.2603  14.5106
    14.5533  16.2062  16.3452  16.5340  16.5343  16.5386  16.5535  16.6219
    16.7292  16.7662  17.3264  17.3269  17.3810  17.7237  17.7412  17.7918
    18.9960  19.0082

          k = 0.0000-0.5000 0.0319 ( 14114 PWs)   bands (ev):

   -67.0283 -67.0283 -66.9191 -66.9191 -66.8930 -62.4270 -62.4270 -62.3754
   -35.7992 -35.7992 -35.7540 -35.7540 -35.7417 -35.7417 -35.6970 -35.6970
   -35.6727 -35.6436 -35.6436 -35.6312 -35.6312 -35.6170 -35.6047 -31.2633
   -31.2633 -31.2499 -31.2499 -31.2473 -31.2473 -31.2086 -31.2067 -31.1925
     7.9031   7.9108   7.9420   7.9546   8.0057   8.0802   8.1090   8.2106
     8.2209   8.2769   8.2931   8.3085   8.3143   8.4579   8.4865   8.5830
     8.6821   8.7019   8.7363   8.7539   8.9129   8.9164   8.9744   8.9777
     8.9831   9.1040   9.1152   9.1215   9.2809   9.3426   9.3653   9.3881
     9.4917   9.5193   9.5384   9.5395   9.5832   9.5906   9.5972   9.6252
     9.6407   9.7245   9.8209   9.8247   9.8515   9.9183   9.9379  10.0252
    10.0873  10.1293  10.1563  10.1756  10.3742  10.3873  10.3892  10.5051
    10.5588  10.7134  10.9840  11.0418  11.0970  11.1216  11.1368  11.1465
    11.1875  11.2274  11.2567  11.2687  11.2916  11.3006  11.3046  11.3107
    11.3220  11.3221  11.3648  11.3753  11.4001  11.4726  11.4921  11.5081
    11.5437  11.5539  11.5773  11.5998  11.6295  11.7700  11.7746  11.7857
    11.8939  11.9212  12.1157  12.1280  12.1286  12.1669  12.1808  12.2448
    12.2504  12.2615  12.2723  12.2805  12.3186  12.3742  12.4356  12.4416
    12.4509  12.5529  12.5860  12.5903  12.6319  12.7241  12.7272  12.7359
    12.7508  12.8417  12.8428  12.9010  12.9704  13.1337  13.2283  13.3808
    13.3885  13.7298  13.7531  13.9279  13.9553  14.2997  14.3286  14.4801
    14.5288  16.2081  16.3458  16.5340  16.5343  16.5372  16.5535  16.6219
    16.7294  16.7662  17.3264  17.3269  17.3810  17.7246  17.7403  17.7918
    19.0044  19.0141

          k = 0.0000-0.5000-0.0478 ( 14104 PWs)   bands (ev):

   -67.0283 -67.0283 -66.9191 -66.9191 -66.8930 -62.4270 -62.4270 -62.3754
   -35.7992 -35.7992 -35.7540 -35.7540 -35.7417 -35.7417 -35.6970 -35.6970
   -35.6727 -35.6436 -35.6436 -35.6312 -35.6312 -35.6170 -35.6047 -31.2633
   -31.2633 -31.2499 -31.2499 -31.2473 -31.2473 -31.2086 -31.2067 -31.1925
     7.9031   7.9109   7.9421   7.9543   8.0060   8.0794   8.1103   8.2081
     8.2197   8.2910   8.2960   8.2961   8.3122   8.4683   8.4744   8.5818
     8.6963   8.7167   8.7220   8.7391   8.9129   8.9164   8.9744   8.9818
     8.9831   9.1056   9.1152   9.1215   9.2809   9.3426   9.3628   9.3875
     9.4919   9.5175   9.5376   9.5384   9.5831   9.5906   9.5966   9.6254
     9.6400   9.7254   9.8209   9.8243   9.8515   9.9346   9.9752  10.0083
    10.0410  10.1293  10.1563  10.1777  10.3742  10.3873  10.4040  10.5051
    10.5588  10.7127  10.9861  11.0398  11.0968  11.1219  11.1373  11.1495
    11.1860  11.2278  11.2571  11.2687  11.2918  11.3015  11.3052  11.3106
    11.3152  11.3315  11.3471  11.3753  11.3968  11.4762  11.4913  11.5087
    11.5426  11.5539  11.5766  11.5996  11.6433  11.7700  11.7754  11.7898
    11.8932  11.9137  12.1158  12.1264  12.1292  12.1669  12.1823  12.2445
    12.2504  12.2685  12.2723  12.2728  12.3180  12.3751  12.4357  12.4450
    12.4509  12.5514  12.5833  12.5860  12.6318  12.7303  12.7359  12.7366
    12.7508  12.8417  12.8428  12.8882  12.9562  13.1545  13.2905  13.3203
    13.3558  13.7908  13.8300  13.8627  13.8780  14.3392  14.3611  14.4563
    14.5118  16.2090  16.3460  16.5340  16.5343  16.5365  16.5535  16.6218
    16.7296  16.7662  17.3264  17.3268  17.3810  17.7251  17.7399  17.7918
    19.0089  19.0171

          k = 0.1667 0.1667 0.0000 ( 14064 PWs)   bands (ev):

   -67.0268 -67.0268 -66.9176 -66.9176 -66.8915 -62.4290 -62.4290 -62.3774
   -35.7998 -35.7998 -35.7452 -35.7452 -35.7452 -35.7452 -35.6976 -35.6976
   -35.6733 -35.6348 -35.6348 -35.6347 -35.6347 -35.6082 -35.6082 -31.2518
   -31.2518 -31.2515 -31.2515 -31.2507 -31.2507 -31.2075 -31.1970 -31.1968
     6.4011   6.5163   6.6161   6.9408   6.9664   7.4952   7.5001   7.9354
     8.2056   8.4701   8.4868   8.5417   8.5927   8.6588   8.6918   8.7250
     8.7829   8.7977   8.8449   8.9044   8.9728   9.0493   9.0621   9.1364
     9.2258   9.2345   9.2545   9.2693   9.3534   9.3567   9.4242   9.4464
     9.4661   9.4930   9.5225   9.5284   9.5589   9.5668   9.5783   9.6553
[...]
    11.2985  11.3423  11.3493  11.3880  11.4505  11.4617  11.6072  11.6483
    11.6806  11.6834  11.7156  11.7276  11.7518  11.7865  11.7903  11.8339
    11.9423  12.0174  12.0508  12.1341  12.1904  12.2324  12.2636  12.2922
    12.3619  12.4263  12.5143  12.5773  12.6902  12.9459  13.1766  13.5147
    13.7316  14.1568  14.3421  14.6896  15.1834  15.4503  15.4658  15.5075
    15.5258  15.5589  15.7968  16.0825  16.4726  16.5485  16.5756  16.6552
    16.6711  16.8322  16.8634  16.9301  16.9659  16.9810  17.0358  17.0710
    17.1075  17.2606  17.3449  17.4104  17.5240  17.7471  17.8139  17.9154
    17.9478  18.0137  18.0750  18.0808  18.3040  18.3963  18.4950  18.5766
    18.6553  18.7856

          k = 0.3333 0.3333-0.0478 ( 14082 PWs)   bands (ev):

   -67.0267 -67.0267 -66.9563 -62.4355 -62.4355 -62.3500 -62.3500 -62.3226
   -35.8027 -35.8027 -35.7494 -35.7494 -35.7493 -35.7493 -35.7395 -35.6764
   -35.6763 -31.2652 -31.2652 -31.2650 -31.2650 -31.2576 -31.2576 -31.1798
   -31.1798 -31.1780 -31.1780 -31.1777 -31.1777 -31.1519 -31.1516 -31.1510
     7.7348   7.9806   8.2066   8.2578   8.3278   8.5025   8.5971   8.6761
     8.6919   8.7316   8.8128   8.8833   8.9459   8.9732   9.1059   9.1331
     9.1446   9.1529   9.1577   9.1826   9.1985   9.2272   9.2702   9.2828
     9.3368   9.3391   9.3431   9.3925   9.4184   9.4433   9.5133   9.5834
     9.5885   9.6287   9.6820   9.7541   9.7798   9.8004   9.8213   9.8303
     9.8654   9.8808   9.9077   9.9177  10.0183  10.0696  10.0838  10.1684
    10.1768  10.2125  10.2522  10.2693  10.3462  10.4244  10.4298  10.4513
    10.4819  10.5274  10.5494  10.5698  10.6193  10.7725  10.8047  10.8728
    11.0320  11.0598  11.0602  11.0995  11.1013  11.1022  11.1082  11.1352
    11.3070  11.3493  11.3496  11.3880  11.4341  11.4617  11.6328  11.6483
    11.6615  11.6812  11.7161  11.7241  11.7518  11.7937  11.8031  11.8154
    11.9528  12.0101  12.0505  12.1354  12.1905  12.2329  12.2637  12.2885
    12.3810  12.4041  12.5143  12.6031  12.6618  12.9736  13.1431  13.5735
    13.6721  14.2511  14.2521  14.7036  15.1796  15.4506  15.4651  15.5090
    15.5244  15.5592  15.7968  16.0851  16.4662  16.5478  16.5785  16.6604
    16.6690  16.8357  16.8576  16.9316  16.9640  16.9890  17.0435  17.0643
    17.0969  17.2643  17.3444  17.4104  17.5242  17.7466  17.8094  17.9527
    17.9607  17.9616  18.0624  18.0731  18.2907  18.5186  18.5191  18.5691
    18.6402  18.7165

          k = 0.3333-0.5000 0.0000 ( 14154 PWs)   bands (ev):

   -67.0268 -67.0268 -66.9564 -62.4351 -62.4351 -62.3496 -62.3496 -62.3222
   -35.8025 -35.8025 -35.7521 -35.7521 -35.7491 -35.7491 -35.7394 -35.6791
   -35.6761 -31.2688 -31.2688 -31.2648 -31.2648 -31.2574 -31.2574 -31.1816
   -31.1816 -31.1796 -31.1796 -31.1775 -31.1775 -31.1555 -31.1514 -31.1508
     8.0151   8.0159   8.2142   8.2896   8.4340   8.4863   8.5764   8.6030
     8.7640   8.7734   8.8482   8.8546   8.8682   8.9417   8.9434   8.9921
     9.0086   9.0280   9.0737   9.1193   9.1634   9.1710   9.1807   9.2166
     9.2820   9.3062   9.3422   9.4166   9.4194   9.4522   9.5811   9.6140
     9.6372   9.6839   9.7490   9.7705   9.8095   9.8544   9.9024   9.9108
    10.0005  10.0609  10.0965  10.1257  10.1578  10.1971  10.2680  10.3611
    10.4091  10.4836  10.5100  10.5198  10.5764  10.5927  10.5947  10.6267
    10.7294  10.7697  10.8405  10.8621  10.9187  10.9389  10.9692  11.0416
    11.0468  11.1668  11.1759  11.2234  11.2281  11.2919  11.3013  11.3040
    11.3516  11.4549  11.4765  11.4840  11.6472  11.6665  11.6804  11.7111
    11.7144  11.7599  11.7824  11.8128  11.8654  11.9449  11.9735  11.9974
    12.0467  12.0571  12.0652  12.1044  12.1470  12.2246  12.2633  12.6566
    12.6737  12.8038  12.8150  12.8521  13.2072  13.4916  13.7527  13.8016
    13.8177  14.0631  14.0965  14.1079  14.4123  14.5083  14.6099  14.6637
    14.8079  14.9966  15.4422  15.7599  16.3746  16.6860  16.7472  16.7882
    16.8082  16.8117  16.8500  16.8544  16.8712  16.8790  17.0518  17.0764
    17.1826  17.3902  17.4978  17.5075  17.6444  17.8037  17.8461  17.9014
    17.9580  17.9671  18.1141  18.2104  18.2929  18.3187  18.8697  18.9273
    18.9501  18.9684

          k = 0.3333-0.5000 0.0159 ( 14140 PWs)   bands (ev):

   -67.0268 -67.0268 -66.9564 -62.4351 -62.4351 -62.3496 -62.3496 -62.3222
   -35.8025 -35.8025 -35.7521 -35.7521 -35.7491 -35.7491 -35.7394 -35.6791
   -35.6761 -31.2688 -31.2688 -31.2648 -31.2648 -31.2574 -31.2574 -31.1816
   -31.1816 -31.1796 -31.1796 -31.1775 -31.1775 -31.1555 -31.1514 -31.1508
     8.0151   8.0159   8.2141   8.2885   8.4394   8.4886   8.5669   8.5979
     8.7759   8.7779   8.8472   8.8580   8.8685   8.9319   8.9512   8.9712
     9.0003   9.0423   9.0787   9.1217   9.1605   9.1618   9.1893   9.2232
     9.2824   9.3054   9.3345   9.4024   9.4307   9.4708   9.5609   9.6162
     9.6286   9.6986   9.7534   9.7668   9.8186   9.8552   9.8990   9.9060
     9.9901  10.0529  10.1024  10.1318  10.1674  10.1985  10.2642  10.3600
    10.4085  10.4853  10.5072  10.5195  10.5549  10.5860  10.6218  10.6309
    10.7278  10.7759  10.8275  10.8749  10.8979  10.9584  10.9616  11.0369
    11.0550  11.1676  11.1703  11.2203  11.2344  11.2930  11.2997  11.3037
    11.3518  11.4545  11.4768  11.4840  11.6484  11.6653  11.6805  11.7110
    11.7145  11.7599  11.7824  11.8129  11.8654  11.9478  11.9711  11.9957
    12.0253  12.0621  12.0879  12.1071  12.1470  12.2199  12.2576  12.6650
    12.6776  12.7935  12.8002  12.8672  13.2086  13.4896  13.7373  13.8102
    13.8402  14.0388  14.0513  14.1695  14.4213  14.4781  14.6312  14.6550
    14.8117  14.9944  15.4421  15.7600  16.3746  16.6821  16.7505  16.7990
    16.8033  16.8137  16.8499  16.8547  16.8710  16.8756  17.0281  17.0828
    17.2060  17.3816  17.4854  17.5137  17.6530  17.8028  17.8398  17.9031
    17.9510  17.9674  18.1091  18.1985  18.3275  18.3508  18.7585  18.8261
    19.0010  19.0068

          k = 0.3333-0.5000 0.0319 ( 14128 PWs)   bands (ev):

   -67.0268 -67.0268 -66.9564 -62.4351 -62.4351 -62.3496 -62.3496 -62.3222
   -35.8025 -35.8025 -35.7521 -35.7521 -35.7491 -35.7491 -35.7394 -35.6791
   -35.6761 -31.2688 -31.2688 -31.2648 -31.2648 -31.2574 -31.2574 -31.1816
   -31.1816 -31.1796 -31.1796 -31.1775 -31.1775 -31.1555 -31.1514 -31.1508
     8.0152   8.0160   8.2138   8.2865   8.4519   8.4937   8.5472   8.5878
     8.7861   8.8030   8.8430   8.8681   8.8697   8.9181   8.9402   8.9597
     8.9843   9.0574   9.0863   9.1278   9.1505   9.1560   9.1983   9.2360
     9.2836   9.3037   9.3205   9.3852   9.4558   9.5018   9.5287   9.5816
     9.6447   9.7128   9.7611   9.7656   9.8397   9.8578   9.8871   9.8941
     9.9732  10.0400  10.1082  10.1474  10.1845  10.2007  10.2554  10.3580
    10.4072  10.4889  10.4967  10.5220  10.5388  10.5754  10.6365  10.6529
    10.7226  10.7910  10.8111  10.8712  10.8924  10.9466  10.9830  11.0243
    11.0714  11.1517  11.1784  11.2128  11.2449  11.2953  11.2960  11.3030
    11.3522  11.4538  11.4773  11.4840  11.6516  11.6620  11.6807  11.7109
    11.7145  11.7598  11.7824  11.8132  11.8655  11.9556  11.9663  11.9937
    12.0013  12.0698  12.1138  12.1148  12.1468  12.2092  12.2450  12.6860
    12.6877  12.7577  12.7922  12.8840  13.2114  13.4857  13.7177  13.8310
    13.8783  13.9866  14.0240  14.2333  14.4240  14.4400  14.6371  14.6603
    14.8185  14.9897  15.4420  15.7603  16.3745  16.6754  16.7595  16.7935
    16.8152  16.8220  16.8498  16.8558  16.8680  16.8721  16.9875  17.0955
    17.2452  17.3657  17.4598  17.5245  17.6689  17.8008  17.8269  17.9087
    17.9355  17.9680  18.1022  18.1853  18.4050  18.4324  18.6271  18.6825
    19.0124  19.0205

          k = 0.3333-0.5000-0.0478 ( 14140 PWs)   bands (ev):

   -67.0268 -67.0268 -66.9564 -62.4351 -62.4351 -62.3496 -62.3496 -62.3222
   -35.8025 -35.8025 -35.7521 -35.7521 -35.7491 -35.7491 -35.7394 -35.6791
   -35.6761 -31.2688 -31.2688 -31.2648 -31.2648 -31.2574 -31.2574 -31.1816
   -31.1816 -31.1796 -31.1796 -31.1775 -31.1775 -31.1555 -31.1514 -31.1508
     8.0152   8.0160   8.2136   8.2855   8.4598   8.4966   8.5362   8.5826
     8.7898   8.8261   8.8326   8.8709   8.8771   8.9080   8.9244   8.9687
     8.9717   9.0627   9.0894   9.1330   9.1438   9.1541   9.2017   9.2428
     9.2843   9.3028   9.3135   9.3784   9.4771   9.5051   9.5253   9.5567
     9.6506   9.7167   9.7587   9.7732   9.8608   9.8620   9.8686   9.8859
     9.9661  10.0345  10.1098  10.1564  10.1933  10.2008  10.2502  10.3571
    10.4066  10.4901  10.4908  10.5251  10.5329  10.5706  10.6386  10.6679
    10.7178  10.8018  10.8041  10.8569  10.9020  10.9374  11.0019  11.0093
    11.0805  11.1429  11.1839  11.2076  11.2498  11.2938  11.2966  11.3024
    11.3524  11.4534  11.4776  11.4840  11.6546  11.6591  11.6808  11.7109
    11.7146  11.7597  11.7823  11.8134  11.8655  11.9624  11.9639  11.9890
    11.9931  12.0727  12.1201  12.1255  12.1466  12.2030  12.2376  12.6907
    12.7156  12.7254  12.7877  12.8902  13.2128  13.4839  13.7101  13.8448
    13.8994  13.9625  14.0061  14.2686  14.3911  14.4501  14.6276  14.6720
    14.8216  14.9873  15.4419  15.7604  16.3745  16.6726  16.7671  16.7856
    16.8157  16.8349  16.8496  16.8578  16.8653  16.8719  16.9667  17.1019
    17.2642  17.3580  17.4458  17.5294  17.6768  17.7998  17.8201  17.9162
    17.9234  17.9682  18.0997  18.1808  18.5060  18.5083  18.5265  18.5684
    19.0133  19.0496

          k =-0.5000-0.5000 0.0000 ( 14124 PWs)   bands (ev):

   -67.0268 -67.0268 -66.9564 -62.4349 -62.4349 -62.3494 -62.3494 -62.3220
   -35.8023 -35.8023 -35.7518 -35.7518 -35.7518 -35.7518 -35.7392 -35.6788
   -35.6788 -31.2685 -31.2685 -31.2685 -31.2685 -31.2572 -31.2571 -31.1812
   -31.1812 -31.1812 -31.1812 -31.1794 -31.1794 -31.1551 -31.1551 -31.1506
     7.8654   7.8676   8.0826   8.1630   8.3560   8.3937   8.5096   8.5378
     8.6457   8.6507   8.9265   8.9449   8.9970   9.0059   9.0466   9.0466
     9.0875   9.0875   9.1249   9.1249   9.1897   9.2031   9.2493   9.2493
     9.2494   9.2494   9.4891   9.4891   9.5019   9.5019   9.6096   9.6286
     9.6286   9.6843   9.6967   9.6967   9.7563   9.7563   9.7705   9.8809
     9.8809   9.8990   9.8990  10.3101  10.3101  10.3665  10.3979  10.4087
    10.4087  10.4177  10.4881  10.4915  10.8627  10.8627  10.8981  10.9094
    10.9263  10.9263  11.0167  11.0391  11.1957  11.1958  11.2427  11.2609
    11.2668  11.3297  11.3297  11.5192  11.5192  11.7036  11.7040  11.7254
    11.7254  11.7449  11.7670  11.7671  11.7725  11.7956  11.7966  11.8141
    11.8142  11.8249  11.8500  11.8501  11.8548  11.9309  11.9556  11.9790
    11.9889  11.9947  12.0013  12.0393  12.0994  12.2411  12.2411  13.1604
    13.1625  13.1903  13.2042  13.2088  13.6673  13.6673  13.9588  13.9588
    14.1125  14.1125  14.4133  14.4133  14.5281  14.5281  14.6398  14.6398
    15.6413  15.6413  16.3911  16.3985  16.5205  16.5791  16.6019  16.6680
    16.6680  16.6928  16.7148  16.7959  16.9720  16.9720  17.1336  17.1336
    17.4425  17.4527  17.5727  17.6372  17.6633  17.8209  17.8209  17.8286
    17.8286  17.8670  17.9199  17.9199  17.9474  18.0342  18.0485  18.0485
    18.1857  18.4596

          k =-0.5000-0.5000 0.0159 ( 14144 PWs)   bands (ev):

   -67.0268 -67.0268 -66.9564 -62.4349 -62.4349 -62.3494 -62.3494 -62.3220
   -35.8023 -35.8023 -35.7518 -35.7518 -35.7518 -35.7518 -35.7392 -35.6788
   -35.6788 -31.2685 -31.2685 -31.2685 -31.2685 -31.2572 -31.2571 -31.1812
   -31.1812 -31.1812 -31.1812 -31.1794 -31.1794 -31.1551 -31.1551 -31.1506
     7.8655   7.8676   8.0825   8.1622   8.3624   8.3973   8.4922   8.5246
     8.6678   8.6680   8.8910   8.9123   9.0292   9.0388   9.0471   9.0471
     9.0843   9.0843   9.1313   9.1313   9.1822   9.1946   9.2190   9.2190
     9.2828   9.2828   9.4468   9.4468   9.5466   9.5466   9.6109   9.6286
     9.6286   9.6846   9.6965   9.6965   9.7434   9.7434   9.7700   9.8464
     9.8464   9.9480   9.9480  10.2658  10.2658  10.3658  10.3985  10.4177
    10.4570  10.4570  10.4881  10.4915  10.8005  10.8005  10.8981  10.9094
    10.9854  10.9854  11.0167  11.0392  11.1957  11.1958  11.2427  11.2609
    11.2668  11.3095  11.3095  11.5283  11.5283  11.7036  11.7040  11.7254
    11.7254  11.7449  11.7670  11.7671  11.7725  11.7956  11.7966  11.8141
    11.8142  11.8249  11.8500  11.8501  11.8548  11.9309  11.9562  11.9794
    11.9868  11.9944  12.0028  12.0394  12.0993  12.2405  12.2405  13.1604
    13.1625  13.1903  13.2042  13.2088  13.6710  13.6710  13.9427  13.9427
    14.1328  14.1328  14.3958  14.3958  14.5412  14.5412  14.6364  14.6364
    15.6413  15.6413  16.3916  16.3980  16.5205  16.5792  16.6012  16.6729
    16.6729  16.6952  16.7148  16.7937  16.9389  16.9389  17.1811  17.1811
    17.4466  17.4604  17.5614  17.6231  17.6713  17.7416  17.7416  17.8286
    17.8286  17.8761  17.9199  17.9199  17.9474  18.0335  18.1390  18.1390
    18.1836  18.4597

          k =-0.5000-0.5000 0.0319 ( 14180 PWs)   bands (ev):

   -67.0268 -67.0268 -66.9564 -62.4349 -62.4349 -62.3494 -62.3494 -62.3220
   -35.8023 -35.8023 -35.7518 -35.7518 -35.7518 -35.7518 -35.7392 -35.6788
   -35.6788 -31.2685 -31.2685 -31.2685 -31.2685 -31.2571 -31.2571 -31.1812
   -31.1812 -31.1812 -31.1812 -31.1794 -31.1794 -31.1551 -31.1551 -31.1506
     7.8655   7.8677   8.0822   8.1608   8.3796   8.4059   8.4593   8.5016
     8.7019   8.7159   8.8331   8.8669   9.0483   9.0483   9.0765   9.0791
     9.0791   9.0878   9.1464   9.1464   9.1612   9.1701   9.1920   9.1920
     9.3193   9.3193   9.4015   9.4015   9.5988   9.5988   9.6134   9.6288
     9.6288   9.6853   9.6938   9.6938   9.7085   9.7085   9.7689   9.8266
     9.8266  10.0067  10.0067  10.2008  10.2008  10.3646  10.3998  10.4178
    10.4879  10.4915  10.5365  10.5365  10.7146  10.7146  10.8981  10.9094
    11.0167  11.0392  11.0586  11.0586  11.1957  11.1958  11.2427  11.2609
    11.2644  11.2644  11.2668  11.5436  11.5436  11.7036  11.7040  11.7254
    11.7254  11.7449  11.7670  11.7671  11.7725  11.7956  11.7966  11.8141
    11.8142  11.8249  11.8500  11.8501  11.8548  11.9307  11.9574  11.9802
    11.9833  11.9936  12.0052  12.0395  12.0992  12.2392  12.2392  13.1604
    13.1625  13.1903  13.2042  13.2088  13.6788  13.6788  13.9160  13.9160
    14.1712  14.1712  14.3622  14.3622  14.5648  14.5648  14.6272  14.6272
    15.6413  15.6413  16.3929  16.3967  16.5204  16.5793  16.6000  16.6842
    16.6842  16.7001  16.7146  16.7891  16.8915  16.8915  17.2684  17.2684
    17.4567  17.4798  17.5400  17.5925  17.6216  17.6216  17.6841  17.8286
    17.8286  17.8928  17.9199  17.9199  17.9474  18.0320  18.1794  18.2972
    18.2972  18.4597

          k =-0.5000-0.5000-0.0478 ( 14176 PWs)   bands (ev):

   -67.0268 -67.0268 -66.9564 -62.4349 -62.4349 -62.3494 -62.3494 -62.3220
   -35.8023 -35.8023 -35.7518 -35.7518 -35.7518 -35.7518 -35.7392 -35.6788
   -35.6788 -31.2685 -31.2685 -31.2685 -31.2685 -31.2571 -31.2571 -31.1812
   -31.1812 -31.1812 -31.1812 -31.1794 -31.1794 -31.1551 -31.1551 -31.1506
     7.8655   7.8677   8.0820   8.1601   8.3942   8.4114   8.4386   8.4904
     8.7214   8.7717   8.7745   8.8440   9.0489   9.0489   9.0768   9.0768
     9.1079   9.1323   9.1341   9.1392   9.1622   9.1622   9.1726   9.1726
     9.3569   9.3569   9.3610   9.3610   9.6146   9.6277   9.6277   9.6466
     9.6466   9.6596   9.6596   9.6856   9.6989   9.6989   9.7684   9.8219
     9.8219  10.0405  10.0405  10.1645  10.1645  10.3641  10.4004  10.4178
    10.4878  10.4915  10.6060  10.6060  10.6434  10.6434  10.8981  10.9093
    11.0167  11.0392  11.0972  11.0972  11.1957  11.1958  11.2341  11.2341
    11.2427  11.2609  11.2668  11.5503  11.5503  11.7036  11.7040  11.7254
    11.7254  11.7449  11.7670  11.7671  11.7725  11.7956  11.7966  11.8141
    11.8142  11.8249  11.8500  11.8501  11.8548  11.9307  11.9581  11.9806
    11.9817  11.9931  12.0061  12.0395  12.0992  12.2385  12.2385  13.1604
    13.1625  13.1903  13.2042  13.2088  13.6831  13.6831  13.9040  13.9040
    14.1918  14.1918  14.3437  14.3437  14.5776  14.5776  14.6202  14.6202
    15.6413  15.6413  16.3944  16.3952  16.5204  16.5793  16.5993  16.6909
    16.6909  16.7028  16.7145  16.7866  16.8712  16.8712  17.3224  17.3224
    17.4635  17.4939  17.5285  17.5563  17.5563  17.5735  17.6896  17.8286
    17.8286  17.9006  17.9199  17.9199  17.9474  18.0312  18.1772  18.4353
    18.4353  18.4597

     the Fermi energy is    15.0035 ev

!    total energy              =  -14694.02274748 Ry
     Harris-Foulkes estimate   =  -14694.02274223 Ry
     estimated scf accuracy    <       0.00000025 Ry

     total all-electron energy =   -626921.618469 Ry

     The total energy is the sum of the following terms:

     one-electron contribution =    -729.92928288 Ry
     hartree contribution      =     661.56426066 Ry
     xc contribution           =    -737.65729126 Ry
     ewald contribution        =   -2186.64874840 Ry
     Hubbard energy            =       0.44985300 Ry
     one-center paw contrib.   =  -11701.80153860 Ry

     total magnetization       =     8.54 Bohr mag/cell
     absolute magnetization    =    37.16 Bohr mag/cell

     convergence has been achieved in  25 iterations

     Writing output data file mnau2.save/
 
     init_run     :     23.46s CPU     23.93s WALL (       1 calls)
     electrons    :   1460.62s CPU   1496.81s WALL (       1 calls)

     Called by init_run:
     wfcinit      :     21.77s CPU     22.19s WALL (       1 calls)
     potinit      :      0.81s CPU      0.83s WALL (       1 calls)
     hinit0       :      0.54s CPU      0.57s WALL (       1 calls)

     Called by electrons:
     c_bands      :   1306.99s CPU   1338.65s WALL (      25 calls)
     sum_band     :    135.76s CPU    139.85s WALL (      25 calls)
     v_of_rho     :      1.48s CPU      1.50s WALL (      26 calls)
     newd         :      4.12s CPU      4.14s WALL (      26 calls)
     PAW_pot      :     12.37s CPU     12.54s WALL (      26 calls)
     mix_rho      :      0.35s CPU      0.36s WALL (      25 calls)

     Called by c_bands:
     init_us_2    :      6.81s CPU      6.87s WALL (    4160 calls)
     cegterg      :   1265.09s CPU   1295.91s WALL (    2001 calls)

     Called by sum_band:
     sum_band:bec :      1.71s CPU      1.72s WALL (    2000 calls)
     addusdens    :      6.56s CPU      6.91s WALL (      25 calls)

     Called by *egterg:
     h_psi        :    493.36s CPU    506.65s WALL (    7860 calls)
     s_psi        :     73.45s CPU     73.55s WALL (    7940 calls)
     g_psi        :      1.97s CPU      1.98s WALL (    5779 calls)
     cdiaghg      :    511.30s CPU    527.56s WALL (    7780 calls)

     Called by h_psi:
     h_psi:pot    :    460.89s CPU    473.90s WALL (    7860 calls)
     h_psi:calbec :     83.84s CPU     86.40s WALL (    7860 calls)
     vloc_psi     :    306.07s CPU    316.41s WALL (    7860 calls)
     add_vuspsi   :     70.88s CPU     71.03s WALL (    7860 calls)
     vhpsi        :     30.98s CPU     31.25s WALL (    7860 calls)

     General routines
     calbec       :    143.88s CPU    147.87s WALL (   19800 calls)
     fft          :      1.21s CPU      1.23s WALL (     646 calls)
     ffts         :      0.09s CPU      0.09s WALL (     102 calls)
     fftw         :    359.36s CPU    371.97s WALL ( 1941528 calls)
     interpolate  :      0.13s CPU      0.13s WALL (      52 calls)
     davcio       :      0.00s CPU      0.01s WALL (      80 calls)
 
     Parallel routines
     fft_scatt_xy :     18.91s CPU     19.36s WALL ( 1942276 calls)
     fft_scatt_yz :    240.74s CPU    249.97s WALL ( 1942276 calls)

     Hubbard U routines
     new_ns       :      6.60s CPU      6.70s WALL (      25 calls)
     vhpsi        :     30.98s CPU     31.25s WALL (    7860 calls)
 
     PWSCF        : 24m53.40s CPU    26m 4.33s WALL

 
   This run was terminated on:  16:55: 9  29Mar2019            

=------------------------------------------------------------------------------=
   JOB DONE.
=------------------------------------------------------------------------------=
