
     Program PWSCF v.6.3MaX starts on 29Mar2019 at 16:55:10 

     This program is part of the open-source Quantum ESPRESSO suite
     for quantum simulation of materials; please cite
         "P. Giannozzi et al., J. Phys.:Condens. Matter 21 395502 (2009);
         "P. Giannozzi et al., J. Phys.:Condens. Matter 29 465901 (2017);
          URL http://www.quantum-espresso.org", 
     in publications or presentations arising from this work. More details at
     http://www.quantum-espresso.org/quote

     Parallel version (MPI), running on    32 processors

     MPI processes distributed on     2 nodes
     R & G space division:  proc/nbgrp/npool/nimage =      32
     Waiting for input...
     Reading input from standard input

     Current dimensions of program PWSCF are:
     Max number of different atomic species (ntypx) = 10
     Max number of k-points (npk) =  40000
     Max angular momentum in pseudopotentials (lmaxx) =  3
     Message from routine read_upf::
     Pseudo file ./pseudo/Mn.pbe-spn-kjpaw_psl.0.3.1.UPF has been successfully fixed on the fly.
To avoid this message in the future you can permanently fix 
 your pseudo files following instructions given in: 
https://gitlab.com/QEF/q-e/blob/master/upftools/how_to_fix_upf.md
               file Mn.pbe-spn-kjpaw_psl.0.3.1.UPF: wavefunction(s)  3P 3D renormalized
     Message from routine read_upf::
     Pseudo file ./pseudo/Mn.pbe-spn-kjpaw_psl.0.3.1.UPF has been successfully fixed on the fly.
To avoid this message in the future you can permanently fix 
 your pseudo files following instructions given in: 
https://gitlab.com/QEF/q-e/blob/master/upftools/how_to_fix_upf.md
               file Mn.pbe-spn-kjpaw_psl.0.3.1.UPF: wavefunction(s)  3P 3D renormalized
     Message from routine read_upf::
     Pseudo file ./pseudo/Au.pbe-dn-kjpaw_psl.0.1.UPF has been successfully fixed on the fly.
To avoid this message in the future you can permanently fix 
 your pseudo files following instructions given in: 
https://gitlab.com/QEF/q-e/blob/master/upftools/how_to_fix_upf.md
               file Au.pbe-dn-kjpaw_psl.0.1.UPF: wavefunction(s)  6S 6P 5D renormalized

     Subspace diagonalization in iterative solution of the eigenvalue problem:
     one sub-group per band group will be used
     scalapack distributed-memory algorithm (size of sub-group:  4*  4 procs)

 
     Parallelization info
     --------------------
     sticks:   dense  smooth     PW     G-vecs:    dense   smooth      PW
     Min          41      18      5                11647     3506     571
     Max          42      19      6                11691     3549     614
     Sum        1313     593    177               373547   112863   18983
 


     bravais-lattice index     =            0
     lattice parameter (alat)  =       6.4153  a.u.
     unit-cell volume          =    2762.7331 (a.u.)^3
     number of atoms/cell      =           24
     number of atomic types    =            3
     number of electrons       =       296.00
     number of Kohn-Sham states=          178
     kinetic-energy cutoff     =      45.0000  Ry
     charge density cutoff     =     400.0000  Ry
     convergence threshold     =      1.0E-06
     mixing beta               =       0.1000
     number of iterations used =            8  plain     mixing
     Exchange-correlation      = SLA PW PBX PBC ( 1  4  3  4 0 0)

     celldm(1)=   6.415315  celldm(2)=   0.000000  celldm(3)=   0.000000
     celldm(4)=   0.000000  celldm(5)=   0.000000  celldm(6)=   0.000000

     crystal axes: (cart. coord. in units of alat)
               a(1) = (   1.000000   0.000000   0.000000 )  
               a(2) = (   0.000000   1.000000   0.000000 )  
               a(3) = (   0.000000   0.000000  10.463692 )  

     reciprocal axes: (cart. coord. in units 2 pi/alat)
               b(1) = (  1.000000  0.000000  0.000000 )  
               b(2) = (  0.000000  1.000000  0.000000 )  
               b(3) = (  0.000000  0.000000  0.095569 )  


     PseudoPot. # 1 for Mn read from file:
     ./pseudo/Mn.pbe-spn-kjpaw_psl.0.3.1.UPF
     MD5 check sum: 7eef95dd2aae66803482eea66ebeebf1
     Pseudo is Projector augmented-wave + core cor, Zval = 15.0
     Generated using "atomic" code by A. Dal Corso v.5.0.99 svn rev. 10869
     Shape of augmentation charge: PSQ
     Using radial grid of 1187 points,  6 beta functions with: 
                l(1) =   0
                l(2) =   0
                l(3) =   1
                l(4) =   1
                l(5) =   2
                l(6) =   2
     Q(r) pseudized with 0 coefficients 


     PseudoPot. # 2 for Mn read from file:
     ./pseudo/Mn.pbe-spn-kjpaw_psl.0.3.1.UPF
     MD5 check sum: 7eef95dd2aae66803482eea66ebeebf1
     Pseudo is Projector augmented-wave + core cor, Zval = 15.0
     Generated using "atomic" code by A. Dal Corso v.5.0.99 svn rev. 10869
     Shape of augmentation charge: PSQ
     Using radial grid of 1187 points,  6 beta functions with: 
                l(1) =   0
                l(2) =   0
                l(3) =   1
                l(4) =   1
                l(5) =   2
                l(6) =   2
     Q(r) pseudized with 0 coefficients 


     PseudoPot. # 3 for Au read from file:
     ./pseudo/Au.pbe-dn-kjpaw_psl.0.1.UPF
     MD5 check sum: 5c9b92683623e7ae2ab3f8e525febab6
     Pseudo is Projector augmented-wave + core cor, Zval = 11.0
     Generated using "atomic" code by A. Dal Corso v.5.0.2 svn rev. 9415
     Shape of augmentation charge: PSQ
     Using radial grid of 1279 points,  6 beta functions with: 
                l(1) =   0
                l(2) =   0
                l(3) =   1
                l(4) =   1
                l(5) =   2
                l(6) =   2
     Q(r) pseudized with 0 coefficients 


     atomic species   valence    mass     pseudopotential
        Mn1           15.00    54.93800     Mn( 1.00)
        Mn2           15.00    54.93800     Mn( 1.00)
        Au            11.00   196.96600     Au( 1.00)

     Starting magnetic structure 
     atomic species   magnetization
        Mn1          0.800
        Mn2         -0.800
        Au           0.000


     Full LDA+U calculation (l_max = 2) with parameters (eV):
     U(  1) =   3.1200   J(  1) =   0.7000   B(  1) =   0.0803
     U(  2) =   3.1200   J(  2) =   0.7000   B(  2) =   0.0803



      8 Sym. Ops. (no inversion) found



   Cartesian axes

     site n.     atom                  positions (alat units)
         1           Mn1 tau(   1) = (   0.0000000   0.0000000   0.0000000  )
         2           Mn1 tau(   2) = (   0.5000000   0.5000000   1.3079615  )
         3           Mn1 tau(   3) = (   0.0000000   0.0000000   2.6159231  )
         4           Mn1 tau(   4) = (   0.5000000   0.5000000   3.9238846  )
         5           Mn2 tau(   5) = (   0.0000000   0.0000000   5.2318461  )
         6           Mn1 tau(   6) = (   0.5000000   0.5000000   6.5398077  )
         7           Mn1 tau(   7) = (   0.0000000   0.0000000   7.8477692  )
         8           Mn2 tau(   8) = (   0.5000000   0.5000000   9.1557307  )
         9           Au  tau(   9) = (   0.5000000   0.5000000   0.4185477  )
        10           Au  tau(  10) = (   0.0000000   0.0000000   0.8894138  )
        11           Au  tau(  11) = (   0.0000000   0.0000000   1.7265092  )
        12           Au  tau(  12) = (   0.5000000   0.5000000   2.1973754  )
        13           Au  tau(  13) = (   0.5000000   0.5000000   3.0344708  )
        14           Au  tau(  14) = (   0.0000000   0.0000000   3.5053369  )
        15           Au  tau(  15) = (   0.0000000   0.0000000   4.3424323  )
        16           Au  tau(  16) = (   0.5000000   0.5000000   4.8132984  )
        17           Au  tau(  17) = (   0.5000000   0.5000000   5.6503938  )
        18           Au  tau(  18) = (   0.0000000   0.0000000   6.1212600  )
        19           Au  tau(  19) = (   0.0000000   0.0000000   6.9583554  )
        20           Au  tau(  20) = (   0.5000000   0.5000000   7.4292215  )
        21           Au  tau(  21) = (   0.5000000   0.5000000   8.2663169  )
        22           Au  tau(  22) = (   0.0000000   0.0000000   8.7371830  )
        23           Au  tau(  23) = (   0.0000000   0.0000000   9.5742784  )
        24           Au  tau(  24) = (   0.5000000   0.5000000  10.0451446  )

     number of k points=    40 (tetrahedron method)
                       cart. coord. in units 2pi/alat
        k(    1) = (   0.0000000   0.0000000   0.0000000), wk =   0.0046296
        k(    2) = (   0.0000000   0.0000000   0.0159281), wk =   0.0092593
        k(    3) = (   0.0000000   0.0000000   0.0318562), wk =   0.0092593
        k(    4) = (   0.0000000   0.0000000  -0.0477843), wk =   0.0046296
        k(    5) = (   0.0000000   0.1666667   0.0000000), wk =   0.0185185
        k(    6) = (   0.0000000   0.1666667   0.0159281), wk =   0.0370370
        k(    7) = (   0.0000000   0.1666667   0.0318562), wk =   0.0370370
        k(    8) = (   0.0000000   0.1666667  -0.0477843), wk =   0.0185185
        k(    9) = (   0.0000000   0.3333333   0.0000000), wk =   0.0185185
        k(   10) = (   0.0000000   0.3333333   0.0159281), wk =   0.0370370
        k(   11) = (   0.0000000   0.3333333   0.0318562), wk =   0.0370370
        k(   12) = (   0.0000000   0.3333333  -0.0477843), wk =   0.0185185
        k(   13) = (   0.0000000  -0.5000000   0.0000000), wk =   0.0092593
        k(   14) = (   0.0000000  -0.5000000   0.0159281), wk =   0.0185185
        k(   15) = (   0.0000000  -0.5000000   0.0318562), wk =   0.0185185
        k(   16) = (   0.0000000  -0.5000000  -0.0477843), wk =   0.0092593
        k(   17) = (   0.1666667   0.1666667   0.0000000), wk =   0.0185185
        k(   18) = (   0.1666667   0.1666667   0.0159281), wk =   0.0370370
        k(   19) = (   0.1666667   0.1666667   0.0318562), wk =   0.0370370
        k(   20) = (   0.1666667   0.1666667  -0.0477843), wk =   0.0185185
        k(   21) = (   0.1666667   0.3333333   0.0000000), wk =   0.0370370
        k(   22) = (   0.1666667   0.3333333   0.0159281), wk =   0.0740741
        k(   23) = (   0.1666667   0.3333333   0.0318562), wk =   0.0740741
        k(   24) = (   0.1666667   0.3333333  -0.0477843), wk =   0.0370370
        k(   25) = (   0.1666667  -0.5000000   0.0000000), wk =   0.0185185
        k(   26) = (   0.1666667  -0.5000000   0.0159281), wk =   0.0370370
        k(   27) = (   0.1666667  -0.5000000   0.0318562), wk =   0.0370370
        k(   28) = (   0.1666667  -0.5000000  -0.0477843), wk =   0.0185185
        k(   29) = (   0.3333333   0.3333333   0.0000000), wk =   0.0185185
        k(   30) = (   0.3333333   0.3333333   0.0159281), wk =   0.0370370
        k(   31) = (   0.3333333   0.3333333   0.0318562), wk =   0.0370370
        k(   32) = (   0.3333333   0.3333333  -0.0477843), wk =   0.0185185
        k(   33) = (   0.3333333  -0.5000000   0.0000000), wk =   0.0185185
        k(   34) = (   0.3333333  -0.5000000   0.0159281), wk =   0.0370370
        k(   35) = (   0.3333333  -0.5000000   0.0318562), wk =   0.0370370
        k(   36) = (   0.3333333  -0.5000000  -0.0477843), wk =   0.0185185
        k(   37) = (  -0.5000000  -0.5000000   0.0000000), wk =   0.0046296
        k(   38) = (  -0.5000000  -0.5000000   0.0159281), wk =   0.0092593
        k(   39) = (  -0.5000000  -0.5000000   0.0318562), wk =   0.0092593
        k(   40) = (  -0.5000000  -0.5000000  -0.0477843), wk =   0.0046296

     Dense  grid:   373547 G-vectors     FFT dimensions: (  45,  45, 432)

     Smooth grid:   112863 G-vectors     FFT dimensions: (  27,  27, 288)

     Estimated max dynamical RAM per process >     174.65 MB

     Estimated total dynamical RAM >       5.46 GB
     Generating pointlists ...
     new r_m :   0.3389 (alat units)  2.1745 (a.u.) for type    1
     new r_m :   0.3389 (alat units)  2.1745 (a.u.) for type    2
     new r_m :   0.3389 (alat units)  2.1745 (a.u.) for type    3

     Check: negative/imaginary core charge=   -0.000006    0.000000

     Initial potential from superposition of free atoms

     starting charge  295.99426, renormalised to  296.00000
     Number of +U iterations with fixed ns =  0
     Starting occupations:
 --- enter write_ns ---
 LDA+U parameters:
U(  1) =   3.1200   J(  1) =   0.7000   B(  1) =   0.0803
U(  2) =   3.1200   J(  2) =   0.7000   B(  2) =   0.0803
atom    1   Tr[ns(na)] (up, down, total) =   5.00000  0.00000  5.00000
   spin  1
    eigenvalues: 
  1.000  1.000  1.000  1.000  1.000
    eigenvectors:
  1.000  0.000  0.000  0.000  0.000
  0.000  1.000  0.000  0.000  0.000
  0.000  0.000  1.000  0.000  0.000
  0.000  0.000  0.000  1.000  0.000
  0.000  0.000  0.000  0.000  1.000
    occupations:
  1.000  0.000  0.000  0.000  0.000
  0.000  1.000  0.000  0.000  0.000
  0.000  0.000  1.000  0.000  0.000
  0.000  0.000  0.000  1.000  0.000
  0.000  0.000  0.000  0.000  1.000
   spin  2
    eigenvalues: 
  0.000  0.000  0.000  0.000  0.000
    eigenvectors:
  1.000  0.000  0.000  0.000  0.000
  0.000  1.000  0.000  0.000  0.000
  0.000  0.000  1.000  0.000  0.000
  0.000  0.000  0.000  1.000  0.000
  0.000  0.000  0.000  0.000  1.000
    occupations:
  0.000  0.000  0.000  0.000  0.000
  0.000  0.000  0.000  0.000  0.000
  0.000  0.000  0.000  0.000  0.000
  0.000  0.000  0.000  0.000  0.000
  0.000  0.000  0.000  0.000  0.000
atomic mag. moment =     5.000000
atom    2   Tr[ns(na)] (up, down, total) =   5.00000  0.00000  5.00000
   spin  1
    eigenvalues: 
  1.000  1.000  1.000  1.000  1.000
    eigenvectors:
  1.000  0.000  0.000  0.000  0.000
  0.000  1.000  0.000  0.000  0.000
  0.000  0.000  1.000  0.000  0.000
  0.000  0.000  0.000  1.000  0.000
  0.000  0.000  0.000  0.000  1.000
    occupations:
  1.000  0.000  0.000  0.000  0.000
  0.000  1.000  0.000  0.000  0.000
  0.000  0.000  1.000  0.000  0.000
  0.000  0.000  0.000  1.000  0.000
  0.000  0.000  0.000  0.000  1.000
   spin  2
    eigenvalues: 
  0.000  0.000  0.000  0.000  0.000
    eigenvectors:
  1.000  0.000  0.000  0.000  0.000
  0.000  1.000  0.000  0.000  0.000
  0.000  0.000  1.000  0.000  0.000
  0.000  0.000  0.000  1.000  0.000
  0.000  0.000  0.000  0.000  1.000
    occupations:
  0.000  0.000  0.000  0.000  0.000
  0.000  0.000  0.000  0.000  0.000
  0.000  0.000  0.000  0.000  0.000
  0.000  0.000  0.000  0.000  0.000
  0.000  0.000  0.000  0.000  0.000
atomic mag. moment =     5.000000
atom    3   Tr[ns(na)] (up, down, total) =   5.00000  0.00000  5.00000
   spin  1
    eigenvalues: 
  1.000  1.000  1.000  1.000  1.000
    eigenvectors:
  1.000  0.000  0.000  0.000  0.000
  0.000  1.000  0.000  0.000  0.000
  0.000  0.000  1.000  0.000  0.000
  0.000  0.000  0.000  1.000  0.000
  0.000  0.000  0.000  0.000  1.000
    occupations:
  1.000  0.000  0.000  0.000  0.000
  0.000  1.000  0.000  0.000  0.000
  0.000  0.000  1.000  0.000  0.000
  0.000  0.000  0.000  1.000  0.000
  0.000  0.000  0.000  0.000  1.000
   spin  2
    eigenvalues: 
  0.000  0.000  0.000  0.000  0.000
    eigenvectors:
  1.000  0.000  0.000  0.000  0.000
  0.000  1.000  0.000  0.000  0.000
  0.000  0.000  1.000  0.000  0.000
  0.000  0.000  0.000  1.000  0.000
  0.000  0.000  0.000  0.000  1.000
    occupations:
  0.000  0.000  0.000  0.000  0.000
  0.000  0.000  0.000  0.000  0.000
  0.000  0.000  0.000  0.000  0.000
  0.000  0.000  0.000  0.000  0.000
  0.000  0.000  0.000  0.000  0.000
atomic mag. moment =     5.000000
atom    4   Tr[ns(na)] (up, down, total) =   5.00000  0.00000  5.00000
   spin  1
    eigenvalues: 
  1.000  1.000  1.000  1.000  1.000
    eigenvectors:
  1.000  0.000  0.000  0.000  0.000
  0.000  1.000  0.000  0.000  0.000
  0.000  0.000  1.000  0.000  0.000
  0.000  0.000  0.000  1.000  0.000
  0.000  0.000  0.000  0.000  1.000
    occupations:
  1.000  0.000  0.000  0.000  0.000
  0.000  1.000  0.000  0.000  0.000
  0.000  0.000  1.000  0.000  0.000
  0.000  0.000  0.000  1.000  0.000
  0.000  0.000  0.000  0.000  1.000
   spin  2
    eigenvalues: 
  0.000  0.000  0.000  0.000  0.000
    eigenvectors:
  1.000  0.000  0.000  0.000  0.000
  0.000  1.000  0.000  0.000  0.000
  0.000  0.000  1.000  0.000  0.000
  0.000  0.000  0.000  1.000  0.000
  0.000  0.000  0.000  0.000  1.000
    occupations:
  0.000  0.000  0.000  0.000  0.000
  0.000  0.000  0.000  0.000  0.000
  0.000  0.000  0.000  0.000  0.000
  0.000  0.000  0.000  0.000  0.000
  0.000  0.000  0.000  0.000  0.000
atomic mag. moment =     5.000000
atom    5   Tr[ns(na)] (up, down, total) =   0.00000  5.00000  5.00000
   spin  1
    eigenvalues: 
  0.000  0.000  0.000  0.000  0.000
    eigenvectors:
  1.000  0.000  0.000  0.000  0.000
  0.000  1.000  0.000  0.000  0.000
  0.000  0.000  1.000  0.000  0.000
  0.000  0.000  0.000  1.000  0.000
  0.000  0.000  0.000  0.000  1.000
    occupations:
  0.000  0.000  0.000  0.000  0.000
  0.000  0.000  0.000  0.000  0.000
  0.000  0.000  0.000  0.000  0.000
  0.000  0.000  0.000  0.000  0.000
  0.000  0.000  0.000  0.000  0.000
   spin  2
    eigenvalues: 
  1.000  1.000  1.000  1.000  1.000
    eigenvectors:
  1.000  0.000  0.000  0.000  0.000
  0.000  1.000  0.000  0.000  0.000
  0.000  0.000  1.000  0.000  0.000
  0.000  0.000  0.000  1.000  0.000
  0.000  0.000  0.000  0.000  1.000
    occupations:
  1.000  0.000  0.000  0.000  0.000
  0.000  1.000  0.000  0.000  0.000
  0.000  0.000  1.000  0.000  0.000
  0.000  0.000  0.000  1.000  0.000
  0.000  0.000  0.000  0.000  1.000
atomic mag. moment =    -5.000000
atom    6   Tr[ns(na)] (up, down, total) =   5.00000  0.00000  5.00000
   spin  1
    eigenvalues: 
  1.000  1.000  1.000  1.000  1.000
    eigenvectors:
  1.000  0.000  0.000  0.000  0.000
  0.000  1.000  0.000  0.000  0.000
  0.000  0.000  1.000  0.000  0.000
  0.000  0.000  0.000  1.000  0.000
  0.000  0.000  0.000  0.000  1.000
    occupations:
  1.000  0.000  0.000  0.000  0.000
  0.000  1.000  0.000  0.000  0.000
  0.000  0.000  1.000  0.000  0.000
  0.000  0.000  0.000  1.000  0.000
  0.000  0.000  0.000  0.000  1.000
   spin  2
    eigenvalues: 
  0.000  0.000  0.000  0.000  0.000
    eigenvectors:
  1.000  0.000  0.000  0.000  0.000
  0.000  1.000  0.000  0.000  0.000
  0.000  0.000  1.000  0.000  0.000
  0.000  0.000  0.000  1.000  0.000
  0.000  0.000  0.000  0.000  1.000
    occupations:
  0.000  0.000  0.000  0.000  0.000
  0.000  0.000  0.000  0.000  0.000
  0.000  0.000  0.000  0.000  0.000
  0.000  0.000  0.000  0.000  0.000
  0.000  0.000  0.000  0.000  0.000
atomic mag. moment =     5.000000
atom    7   Tr[ns(na)] (up, down, total) =   5.00000  0.00000  5.00000
   spin  1
    eigenvalues: 
  1.000  1.000  1.000  1.000  1.000
    eigenvectors:
  1.000  0.000  0.000  0.000  0.000
  0.000  1.000  0.000  0.000  0.000
  0.000  0.000  1.000  0.000  0.000
  0.000  0.000  0.000  1.000  0.000
  0.000  0.000  0.000  0.000  1.000
    occupations:
  1.000  0.000  0.000  0.000  0.000
  0.000  1.000  0.000  0.000  0.000
  0.000  0.000  1.000  0.000  0.000
  0.000  0.000  0.000  1.000  0.000
  0.000  0.000  0.000  0.000  1.000
   spin  2
    eigenvalues: 
  0.000  0.000  0.000  0.000  0.000
    eigenvectors:
  1.000  0.000  0.000  0.000  0.000
  0.000  1.000  0.000  0.000  0.000
  0.000  0.000  1.000  0.000  0.000
  0.000  0.000  0.000  1.000  0.000
  0.000  0.000  0.000  0.000  1.000
    occupations:
  0.000  0.000  0.000  0.000  0.000
  0.000  0.000  0.000  0.000  0.000
  0.000  0.000  0.000  0.000  0.000
  0.000  0.000  0.000  0.000  0.000
  0.000  0.000  0.000  0.000  0.000
atomic mag. moment =     5.000000
atom    8   Tr[ns(na)] (up, down, total) =   0.00000  5.00000  5.00000
   spin  1
    eigenvalues: 
  0.000  0.000  0.000  0.000  0.000
    eigenvectors:
  1.000  0.000  0.000  0.000  0.000
  0.000  1.000  0.000  0.000  0.000
  0.000  0.000  1.000  0.000  0.000
  0.000  0.000  0.000  1.000  0.000
  0.000  0.000  0.000  0.000  1.000
    occupations:
  0.000  0.000  0.000  0.000  0.000
  0.000  0.000  0.000  0.000  0.000
  0.000  0.000  0.000  0.000  0.000
  0.000  0.000  0.000  0.000  0.000
  0.000  0.000  0.000  0.000  0.000
   spin  2
    eigenvalues: 
  1.000  1.000  1.000  1.000  1.000
    eigenvectors:
  1.000  0.000  0.000  0.000  0.000
  0.000  1.000  0.000  0.000  0.000
  0.000  0.000  1.000  0.000  0.000
  0.000  0.000  0.000  1.000  0.000
  0.000  0.000  0.000  0.000  1.000
    occupations:
  1.000  0.000  0.000  0.000  0.000
  0.000  1.000  0.000  0.000  0.000
  0.000  0.000  1.000  0.000  0.000
  0.000  0.000  0.000  1.000  0.000
  0.000  0.000  0.000  0.000  1.000
atomic mag. moment =    -5.000000
N of occupied +U levels =   40.000000
 --- exit write_ns ---
 Atomic wfc used for LDA+U Projector are NOT orthogonalized
     Starting wfcs are  224 randomized atomic wfcs
     Checking if some PAW data can be deallocated... 

     total cpu time spent up to now is       27.6 secs

     Self-consistent Calculation

     iteration #  1     ecut=    45.00 Ry     beta= 0.10
     Davidson diagonalization with overlap
     ethr =  1.00E-02,  avg # of iterations =  3.8
 --- enter write_ns ---
 LDA+U parameters:
U(  1) =   3.1200   J(  1) =   0.7000   B(  1) =   0.0803
U(  2) =   3.1200   J(  2) =   0.7000   B(  2) =   0.0803
atom    1   Tr[ns(na)] (up, down, total) =   5.01746  0.39508  5.41255
   spin  1
    eigenvalues: 
  1.003  1.003  1.003  1.004  1.004
    eigenvectors:
  0.000  0.000  0.000  1.000  0.000
  0.000  0.292  0.708  0.000  0.000
  0.000  0.708  0.292  0.000  0.000
  0.000  0.000  0.000  0.000  1.000
  1.000  0.000  0.000  0.000  0.000
    occupations:
  1.004 -0.000 -0.000  0.000  0.000
 -0.000  1.003 -0.000  0.000  0.000
 -0.000 -0.000  1.003  0.000  0.000
  0.000  0.000  0.000  1.004 -0.000
  0.000  0.000  0.000 -0.000  1.003
   spin  2
    eigenvalues: 
  0.051  0.069  0.079  0.079  0.117
    eigenvectors:
  0.000  1.000  0.000  0.000  0.000
  0.000  0.000  0.365  0.635  0.000
  0.000  0.000  0.635  0.365  0.000
  1.000  0.000  0.000  0.000  0.000
  0.000  0.000  0.000  0.000  1.000
    occupations:
  0.069 -0.000 -0.000  0.000  0.000
 -0.000  0.079 -0.000  0.000  0.000
 -0.000 -0.000  0.079  0.000  0.000
  0.000  0.000  0.000  0.051 -0.000
  0.000  0.000  0.000 -0.000  0.117
atomic mag. moment =     4.622381
atom    2   Tr[ns(na)] (up, down, total) =   5.01761  0.38888  5.40649
   spin  1
    eigenvalues: 
  1.003  1.003  1.003  1.004  1.004
    eigenvectors:
  0.000  0.000  0.000  1.000  0.000
  0.000  0.366  0.634  0.000  0.000
  0.000  0.634  0.366  0.000  0.000
  0.000  0.000  0.000  0.000  1.000
  1.000  0.000  0.000  0.000  0.000
    occupations:
  1.004 -0.000 -0.000  0.000  0.000
 -0.000  1.003 -0.000  0.000  0.000
 -0.000 -0.000  1.003  0.000  0.000
  0.000  0.000  0.000  1.004 -0.000
  0.000  0.000  0.000 -0.000  1.003
   spin  2
    eigenvalues: 
  0.051  0.069  0.080  0.080  0.109
    eigenvectors:
  0.000  1.000  0.000  0.000  0.000
  0.000  0.000  0.347  0.653  0.000
  0.000  0.000  0.653  0.347  0.000
  1.000  0.000  0.000  0.000  0.000
  0.000  0.000  0.000  0.000  1.000
    occupations:
  0.069 -0.000 -0.000  0.000  0.000
 -0.000  0.080 -0.000  0.000  0.000
 -0.000 -0.000  0.080  0.000  0.000
  0.000  0.000  0.000  0.051 -0.000
  0.000  0.000  0.000 -0.000  0.109
atomic mag. moment =     4.628736
atom    3   Tr[ns(na)] (up, down, total) =   5.01758  0.38945  5.40703
   spin  1
    eigenvalues: 
  1.003  1.003  1.003  1.004  1.004
    eigenvectors:
  0.000  0.000  0.000  1.000  0.000
  0.000  0.262  0.738  0.000  0.000
  0.000  0.738  0.262  0.000  0.000
  0.000  0.000  0.000  0.000  1.000
  1.000  0.000  0.000  0.000  0.000
    occupations:
  1.004 -0.000 -0.000  0.000  0.000
 -0.000  1.003 -0.000  0.000  0.000
 -0.000 -0.000  1.003  0.000  0.000
  0.000  0.000  0.000  1.004 -0.000
  0.000  0.000  0.000 -0.000  1.003
   spin  2
    eigenvalues: 
  0.051  0.070  0.080  0.080  0.109
    eigenvectors:
  0.000  1.000  0.000  0.000  0.000
  0.000  0.000  0.538  0.462  0.000
  0.000  0.000  0.462  0.538  0.000
  1.000  0.000  0.000  0.000  0.000
  0.000  0.000  0.000  0.000  1.000
    occupations:
  0.070 -0.000 -0.000  0.000  0.000
 -0.000  0.080 -0.000  0.000  0.000
 -0.000 -0.000  0.080  0.000  0.000
  0.000  0.000  0.000  0.051 -0.000
  0.000  0.000  0.000 -0.000  0.109
atomic mag. moment =     4.628131
atom    4   Tr[ns(na)] (up, down, total) =   5.01738  0.39571  5.41309
   spin  1
    eigenvalues: 
  1.003  1.003  1.003  1.004  1.004
    eigenvectors:
  0.000  0.000  0.000  1.000  0.000
  0.000  0.338  0.662  0.000  0.000
  0.000  0.662  0.338  0.000  0.000
  0.000  0.000  0.000  0.000  1.000
  1.000  0.000  0.000  0.000  0.000
    occupations:
  1.004 -0.000 -0.000  0.000  0.000
 -0.000  1.003 -0.000  0.000  0.000
 -0.000 -0.000  1.003  0.000  0.000
  0.000  0.000  0.000  1.004 -0.000
  0.000  0.000  0.000 -0.000  1.003
   spin  2
    eigenvalues: 
  0.051  0.069  0.079  0.079  0.117
    eigenvectors:
  0.000  1.000  0.000  0.000  0.000
  0.000  0.000  0.366  0.634  0.000
  0.000  0.000  0.634  0.366  0.000
  1.000  0.000  0.000  0.000  0.000
  0.000  0.000  0.000  0.000  1.000
    occupations:
  0.069 -0.000 -0.000  0.000  0.000
 -0.000  0.079 -0.000  0.000  0.000
 -0.000 -0.000  0.079  0.000  0.000
  0.000  0.000  0.000  0.051 -0.000
  0.000  0.000  0.000 -0.000  0.117
atomic mag. moment =     4.621667
atom    5   Tr[ns(na)] (up, down, total) =   0.40096  5.01758  5.41854
   spin  1
    eigenvalues: 
  0.052  0.070  0.079  0.079  0.120
    eigenvectors:
  0.000  1.000  0.000  0.000  0.000
  0.000  0.000  0.305  0.695  0.000
  0.000  0.000  0.695  0.305  0.000
  1.000  0.000  0.000  0.000  0.000
  0.000  0.000  0.000  0.000  1.000
    occupations:
  0.070 -0.000 -0.000  0.000  0.000
 -0.000  0.079 -0.000  0.000  0.000
 -0.000 -0.000  0.079  0.000  0.000
  0.000  0.000  0.000  0.052 -0.000
  0.000  0.000  0.000 -0.000  0.120
   spin  2
    eigenvalues: 
  1.003  1.003  1.003  1.004  1.004
    eigenvectors:
  0.000  0.000  0.000  1.000  0.000
  0.000  0.333  0.667  0.000  0.000
  0.000  0.667  0.333  0.000  0.000
  0.000  0.000  0.000  0.000  1.000
  1.000  0.000  0.000  0.000  0.000
    occupations:
  1.004 -0.000 -0.000  0.000  0.000
 -0.000  1.003 -0.000  0.000  0.000
 -0.000 -0.000  1.003  0.000  0.000
  0.000  0.000  0.000  1.004 -0.000
  0.000  0.000  0.000 -0.000  1.003
atomic mag. moment =    -4.616621
atom    6   Tr[ns(na)] (up, down, total) =   5.01758  0.39670  5.41428
   spin  1
    eigenvalues: 
  1.003  1.003  1.003  1.004  1.004
    eigenvectors:
  0.000  0.000  0.000  1.000  0.000
  0.000  0.312  0.688  0.000  0.000
  0.000  0.688  0.312  0.000  0.000
  0.000  0.000  0.000  0.000  1.000
  1.000  0.000  0.000  0.000  0.000
    occupations:
  1.004 -0.000 -0.000  0.000  0.000
 -0.000  1.003 -0.000  0.000  0.000
 -0.000 -0.000  1.003  0.000  0.000
  0.000  0.000  0.000  1.004 -0.000
  0.000  0.000  0.000 -0.000  1.003
   spin  2
    eigenvalues: 
  0.051  0.070  0.079  0.079  0.118
    eigenvectors:
  0.000  1.000  0.000  0.000  0.000
  0.000  0.000  0.275  0.725  0.000
  0.000  0.000  0.725  0.275  0.000
  1.000  0.000  0.000  0.000  0.000
  0.000  0.000  0.000  0.000  1.000
    occupations:
  0.070 -0.000 -0.000  0.000  0.000
 -0.000  0.079 -0.000  0.000  0.000
 -0.000 -0.000  0.079  0.000  0.000
  0.000  0.000  0.000  0.051 -0.000
  0.000  0.000  0.000 -0.000  0.118
atomic mag. moment =     4.620880
atom    7   Tr[ns(na)] (up, down, total) =   5.01748  0.39670  5.41418
   spin  1
    eigenvalues: 
  1.003  1.003  1.003  1.004  1.004
    eigenvectors:
  0.000  0.000  0.000  1.000  0.000
  0.000  0.347  0.653  0.000  0.000
  0.000  0.653  0.347  0.000  0.000
  0.000  0.000  0.000  0.000  1.000
  1.000  0.000  0.000  0.000  0.000
    occupations:
  1.004 -0.000 -0.000  0.000  0.000
 -0.000  1.003 -0.000  0.000  0.000
 -0.000 -0.000  1.003  0.000  0.000
  0.000  0.000  0.000  1.004 -0.000
  0.000  0.000  0.000 -0.000  1.003
   spin  2
    eigenvalues: 
  0.051  0.070  0.079  0.079  0.117
    eigenvectors:
  0.000  1.000  0.000  0.000  0.000
  0.000  0.000  0.348  0.652  0.000
  0.000  0.000  0.652  0.348  0.000
  1.000  0.000  0.000  0.000  0.000
  0.000  0.000  0.000  0.000  1.000
    occupations:
  0.070 -0.000 -0.000  0.000  0.000
 -0.000  0.079 -0.000  0.000  0.000
 -0.000 -0.000  0.079  0.000  0.000
  0.000  0.000  0.000  0.051 -0.000
  0.000  0.000  0.000 -0.000  0.117
atomic mag. moment =     4.620789
atom    8   Tr[ns(na)] (up, down, total) =   0.40048  5.01752  5.41800
   spin  1
    eigenvalues: 
  0.052  0.070  0.079  0.079  0.120
    eigenvectors:
  0.000  1.000  0.000  0.000  0.000
  0.000  0.000  0.294  0.706  0.000
  0.000  0.000  0.706  0.294  0.000
  1.000  0.000  0.000  0.000  0.000
  0.000  0.000  0.000  0.000  1.000
    occupations:
  0.070 -0.000 -0.000  0.000  0.000
 -0.000  0.079 -0.000  0.000  0.000
 -0.000 -0.000  0.079  0.000  0.000
  0.000  0.000  0.000  0.052 -0.000
  0.000  0.000  0.000 -0.000  0.120
   spin  2
    eigenvalues: 
  1.003  1.003  1.003  1.004  1.004
    eigenvectors:
  0.000  0.000  0.000  1.000  0.000
  0.000  0.273  0.727  0.000  0.000
  0.000  0.727  0.273  0.000  0.000
  0.000  0.000  0.000  0.000  1.000
  1.000  0.000  0.000  0.000  0.000
    occupations:
  1.004 -0.000 -0.000  0.000  0.000
 -0.000  1.003 -0.000  0.000  0.000
 -0.000 -0.000  1.003  0.000  0.000
  0.000  0.000  0.000  1.004 -0.000
  0.000  0.000  0.000 -0.000  1.003
atomic mag. moment =    -4.617045
N of occupied +U levels =   43.304168
 --- exit write_ns ---

     total cpu time spent up to now is      101.6 secs

     total energy              =  -14687.30013124 Ry
     Harris-Foulkes estimate   =  -14685.83944416 Ry
     estimated scf accuracy    <      11.50523541 Ry

     total magnetization       =    20.34 Bohr mag/cell
     absolute magnetization    =    41.71 Bohr mag/cell

     iteration #  2     ecut=    45.00 Ry     beta= 0.10
     Davidson diagonalization with overlap
     ethr =  3.89E-03,  avg # of iterations =  1.0

     total cpu time spent up to now is      143.8 secs

     total energy              =  -14689.72483970 Ry
     Harris-Foulkes estimate   =  -14687.37624827 Ry
     estimated scf accuracy    <       9.57770291 Ry

     total magnetization       =    20.13 Bohr mag/cell
     absolute magnetization    =    41.38 Bohr mag/cell

     iteration #  3     ecut=    45.00 Ry     beta= 0.10
     Davidson diagonalization with overlap
     ethr =  3.24E-03,  avg # of iterations =  4.7

     total cpu time spent up to now is      215.8 secs

     total energy              =  -14690.90752582 Ry
     Harris-Foulkes estimate   =  -14691.55469365 Ry
     estimated scf accuracy    <     236.13019800 Ry

     total magnetization       =    18.26 Bohr mag/cell
     absolute magnetization    =    40.30 Bohr mag/cell

     iteration #  4     ecut=    45.00 Ry     beta= 0.10
     Davidson diagonalization with overlap
     ethr =  3.24E-03,  avg # of iterations =  4.4

     total cpu time spent up to now is      285.8 secs

     total energy              =  -14694.25950887 Ry
     Harris-Foulkes estimate   =  -14694.24102600 Ry
     estimated scf accuracy    <       4.75616573 Ry

     total magnetization       =    18.55 Bohr mag/cell
     absolute magnetization    =    38.56 Bohr mag/cell

     iteration #  5     ecut=    45.00 Ry     beta= 0.10
     Davidson diagonalization with overlap
     ethr =  1.61E-03,  avg # of iterations =  2.4

     total cpu time spent up to now is      338.6 secs

     total energy              =  -14694.38729751 Ry
     Harris-Foulkes estimate   =  -14694.27491724 Ry
     estimated scf accuracy    <       5.09114686 Ry

     total magnetization       =    18.54 Bohr mag/cell
     absolute magnetization    =    38.55 Bohr mag/cell

     iteration #  6     ecut=    45.00 Ry     beta= 0.10
     Davidson diagonalization with overlap
     ethr =  1.61E-03,  avg # of iterations =  1.2

     total cpu time spent up to now is      382.0 secs

     total energy              =  -14694.30220425 Ry
     Harris-Foulkes estimate   =  -14694.41218250 Ry
     estimated scf accuracy    <       5.33935375 Ry

     total magnetization       =    18.44 Bohr mag/cell
     absolute magnetization    =    38.41 Bohr mag/cell

     iteration #  7     ecut=    45.00 Ry     beta= 0.10
     Davidson diagonalization with overlap
     ethr =  1.61E-03,  avg # of iterations =  1.2

     total cpu time spent up to now is      425.2 secs

     total energy              =  -14693.70393774 Ry
     Harris-Foulkes estimate   =  -14694.30596145 Ry
     estimated scf accuracy    <       5.21972294 Ry

     total magnetization       =    18.46 Bohr mag/cell
     absolute magnetization    =    38.48 Bohr mag/cell

     iteration #  8     ecut=    45.00 Ry     beta= 0.10
     Davidson diagonalization with overlap
     ethr =  1.61E-03,  avg # of iterations =  4.1

     total cpu time spent up to now is      490.8 secs

     total energy              =  -14693.91806390 Ry
     Harris-Foulkes estimate   =  -14694.01256724 Ry
     estimated scf accuracy    <       0.82043749 Ry

     total magnetization       =    17.93 Bohr mag/cell
     absolute magnetization    =    38.05 Bohr mag/cell

     iteration #  9     ecut=    45.00 Ry     beta= 0.10
     Davidson diagonalization with overlap
     ethr =  2.77E-04,  avg # of iterations =  4.8

     total cpu time spent up to now is      570.5 secs

     total energy              =  -14694.00693606 Ry
     Harris-Foulkes estimate   =  -14694.00701133 Ry
     estimated scf accuracy    <       0.19708088 Ry

     total magnetization       =    17.72 Bohr mag/cell
     absolute magnetization    =    37.63 Bohr mag/cell

     iteration # 10     ecut=    45.00 Ry     beta= 0.10
     Davidson diagonalization with overlap
     ethr =  6.66E-05,  avg # of iterations =  1.6

     total cpu time spent up to now is      617.7 secs

     total energy              =  -14694.00190049 Ry
     Harris-Foulkes estimate   =  -14694.00965765 Ry
     estimated scf accuracy    <       0.12269492 Ry

     total magnetization       =    17.66 Bohr mag/cell
     absolute magnetization    =    37.57 Bohr mag/cell

     iteration # 11     ecut=    45.00 Ry     beta= 0.10
     Davidson diagonalization with overlap
     ethr =  4.15E-05,  avg # of iterations =  1.2

     total cpu time spent up to now is      661.2 secs

     total energy              =  -14694.00425163 Ry
     Harris-Foulkes estimate   =  -14694.00519037 Ry
     estimated scf accuracy    <       0.07832194 Ry

     total magnetization       =    17.68 Bohr mag/cell
     absolute magnetization    =    37.62 Bohr mag/cell

     iteration # 12     ecut=    45.00 Ry     beta= 0.10
     Davidson diagonalization with overlap
     ethr =  2.65E-05,  avg # of iterations =  1.2

     total cpu time spent up to now is      704.8 secs

     total energy              =  -14694.00892833 Ry
     Harris-Foulkes estimate   =  -14694.00794838 Ry
     estimated scf accuracy    <       0.06069246 Ry

     total magnetization       =    17.59 Bohr mag/cell
     absolute magnetization    =    37.57 Bohr mag/cell

     iteration # 13     ecut=    45.00 Ry     beta= 0.10
     Davidson diagonalization with overlap
     ethr =  2.05E-05,  avg # of iterations =  1.1

     total cpu time spent up to now is      747.2 secs

     total energy              =  -14694.00968088 Ry
     Harris-Foulkes estimate   =  -14694.00960795 Ry
     estimated scf accuracy    <       0.04247109 Ry

     total magnetization       =    17.56 Bohr mag/cell
     absolute magnetization    =    37.55 Bohr mag/cell

     iteration # 14     ecut=    45.00 Ry     beta= 0.10
     Davidson diagonalization with overlap
     ethr =  1.43E-05,  avg # of iterations =  3.8

     total cpu time spent up to now is      810.9 secs

     total energy              =  -14694.01298504 Ry
     Harris-Foulkes estimate   =  -14694.01335678 Ry
     estimated scf accuracy    <       0.03795139 Ry

     total magnetization       =    17.49 Bohr mag/cell
     absolute magnetization    =    37.46 Bohr mag/cell

     iteration # 15     ecut=    45.00 Ry     beta= 0.10
     Davidson diagonalization with overlap
     ethr =  1.28E-05,  avg # of iterations =  1.0

     total cpu time spent up to now is      852.8 secs

     total energy              =  -14694.01555665 Ry
     Harris-Foulkes estimate   =  -14694.01355203 Ry
     estimated scf accuracy    <       0.00957278 Ry

     total magnetization       =    17.49 Bohr mag/cell
     absolute magnetization    =    37.47 Bohr mag/cell

     iteration # 16     ecut=    45.00 Ry     beta= 0.10
     Davidson diagonalization with overlap
     ethr =  3.23E-06,  avg # of iterations =  4.4

     total cpu time spent up to now is      921.0 secs

     total energy              =  -14694.01597452 Ry
     Harris-Foulkes estimate   =  -14694.01664547 Ry
     estimated scf accuracy    <       0.04833424 Ry

     total magnetization       =    17.41 Bohr mag/cell
     absolute magnetization    =    37.38 Bohr mag/cell

     iteration # 17     ecut=    45.00 Ry     beta= 0.10
     Davidson diagonalization with overlap
     ethr =  3.23E-06,  avg # of iterations =  2.0

     total cpu time spent up to now is      969.7 secs

     total energy              =  -14694.01660546 Ry
     Harris-Foulkes estimate   =  -14694.01653021 Ry
     estimated scf accuracy    <       0.00246422 Ry

     total magnetization       =    17.39 Bohr mag/cell
     absolute magnetization    =    37.35 Bohr mag/cell

     iteration # 18     ecut=    45.00 Ry     beta= 0.10
     Davidson diagonalization with overlap
     ethr =  8.33E-07,  avg # of iterations =  3.0

     total cpu time spent up to now is     1027.7 secs

     total energy              =  -14694.01674372 Ry
     Harris-Foulkes estimate   =  -14694.01674576 Ry
     estimated scf accuracy    <       0.00057941 Ry

     total magnetization       =    17.39 Bohr mag/cell
     absolute magnetization    =    37.36 Bohr mag/cell

     iteration # 19     ecut=    45.00 Ry     beta= 0.10
     Davidson diagonalization with overlap
     ethr =  1.96E-07,  avg # of iterations =  3.4

     total cpu time spent up to now is     1088.2 secs

     total energy              =  -14694.01681202 Ry
     Harris-Foulkes estimate   =  -14694.01678016 Ry
     estimated scf accuracy    <       0.00028096 Ry

     total magnetization       =    17.39 Bohr mag/cell
     absolute magnetization    =    37.35 Bohr mag/cell

     iteration # 20     ecut=    45.00 Ry     beta= 0.10
     Davidson diagonalization with overlap
     ethr =  9.49E-08,  avg # of iterations =  1.6

     total cpu time spent up to now is     1133.9 secs

     total energy              =  -14694.01685014 Ry
     Harris-Foulkes estimate   =  -14694.01681771 Ry
     estimated scf accuracy    <       0.00015249 Ry

     total magnetization       =    17.39 Bohr mag/cell
     absolute magnetization    =    37.36 Bohr mag/cell

     iteration # 21     ecut=    45.00 Ry     beta= 0.10
     Davidson diagonalization with overlap
     ethr =  5.15E-08,  avg # of iterations =  1.5

     total cpu time spent up to now is     1179.3 secs

     total energy              =  -14694.01685639 Ry
     Harris-Foulkes estimate   =  -14694.01684478 Ry
     estimated scf accuracy    <       0.00010454 Ry

     total magnetization       =    17.38 Bohr mag/cell
     absolute magnetization    =    37.35 Bohr mag/cell

     iteration # 22     ecut=    45.00 Ry     beta= 0.10
     Davidson diagonalization with overlap
     ethr =  3.53E-08,  avg # of iterations =  1.1

     total cpu time spent up to now is     1221.5 secs

     total energy              =  -14694.01687971 Ry
     Harris-Foulkes estimate   =  -14694.01685475 Ry
     estimated scf accuracy    <       0.00007041 Ry

     total magnetization       =    17.38 Bohr mag/cell
     absolute magnetization    =    37.35 Bohr mag/cell

     iteration # 23     ecut=    45.00 Ry     beta= 0.10
     Davidson diagonalization with overlap
     ethr =  2.38E-08,  avg # of iterations =  1.6

     total cpu time spent up to now is     1268.1 secs

     total energy              =  -14694.01688064 Ry
     Harris-Foulkes estimate   =  -14694.01687386 Ry
     estimated scf accuracy    <       0.00016025 Ry

     total magnetization       =    17.38 Bohr mag/cell
     absolute magnetization    =    37.35 Bohr mag/cell

     iteration # 24     ecut=    45.00 Ry     beta= 0.10
     Davidson diagonalization with overlap
     ethr =  2.38E-08,  avg # of iterations =  1.0

     total cpu time spent up to now is     1310.0 secs

     total energy              =  -14694.01688578 Ry
     Harris-Foulkes estimate   =  -14694.01688002 Ry
     estimated scf accuracy    <       0.00016052 Ry

     total magnetization       =    17.38 Bohr mag/cell
     absolute magnetization    =    37.35 Bohr mag/cell

     iteration # 25     ecut=    45.00 Ry     beta= 0.10
     Davidson diagonalization with overlap
     ethr =  2.38E-08,  avg # of iterations =  1.2

     total cpu time spent up to now is     1353.6 secs

     total energy              =  -14694.01689015 Ry
     Harris-Foulkes estimate   =  -14694.01688196 Ry
     estimated scf accuracy    <       0.00003619 Ry

     total magnetization       =    17.37 Bohr mag/cell
     absolute magnetization    =    37.34 Bohr mag/cell

     iteration # 26     ecut=    45.00 Ry     beta= 0.10
     Davidson diagonalization with overlap
     ethr =  1.22E-08,  avg # of iterations =  1.6

     total cpu time spent up to now is     1401.6 secs

     total energy              =  -14694.01689003 Ry
     Harris-Foulkes estimate   =  -14694.01688761 Ry
     estimated scf accuracy    <       0.00001029 Ry

     total magnetization       =    17.37 Bohr mag/cell
     absolute magnetization    =    37.34 Bohr mag/cell

     iteration # 27     ecut=    45.00 Ry     beta= 0.10
     Davidson diagonalization with overlap
     ethr =  3.48E-09,  avg # of iterations =  2.6

     total cpu time spent up to now is     1458.9 secs

     total energy              =  -14694.01689273 Ry
     Harris-Foulkes estimate   =  -14694.01689157 Ry
     estimated scf accuracy    <       0.00002396 Ry

     total magnetization       =    17.37 Bohr mag/cell
     absolute magnetization    =    37.34 Bohr mag/cell

     iteration # 28     ecut=    45.00 Ry     beta= 0.10
     Davidson diagonalization with overlap
     ethr =  3.48E-09,  avg # of iterations =  1.2

     total cpu time spent up to now is     1502.0 secs

     total energy              =  -14694.01689316 Ry
     Harris-Foulkes estimate   =  -14694.01689240 Ry
     estimated scf accuracy    <       0.00001229 Ry

     total magnetization       =    17.37 Bohr mag/cell
     absolute magnetization    =    37.34 Bohr mag/cell

     iteration # 29     ecut=    45.00 Ry     beta= 0.10
     Davidson diagonalization with overlap
     ethr =  3.48E-09,  avg # of iterations =  1.1

     total cpu time spent up to now is     1544.2 secs

     total energy              =  -14694.01689359 Ry
     Harris-Foulkes estimate   =  -14694.01689291 Ry
     estimated scf accuracy    <       0.00000381 Ry

     total magnetization       =    17.37 Bohr mag/cell
     absolute magnetization    =    37.34 Bohr mag/cell

     iteration # 30     ecut=    45.00 Ry     beta= 0.10
     Davidson diagonalization with overlap
     ethr =  1.29E-09,  avg # of iterations =  1.2

     total cpu time spent up to now is     1587.6 secs

     total energy              =  -14694.01689442 Ry
     Harris-Foulkes estimate   =  -14694.01689382 Ry
     estimated scf accuracy    <       0.00000133 Ry

     total magnetization       =    17.37 Bohr mag/cell
     absolute magnetization    =    37.34 Bohr mag/cell

     iteration # 31     ecut=    45.00 Ry     beta= 0.10
     Davidson diagonalization with overlap
     ethr =  4.49E-10,  avg # of iterations =  2.5
 
     Magnetic moment per site:
     atom:    1    charge:   13.5472    magn:    4.2548    constr:    0.0000
     atom:    2    charge:   13.5523    magn:    4.2183    constr:    0.0000
     atom:    3    charge:   13.5521    magn:    4.2187    constr:    0.0000
     atom:    4    charge:   13.5474    magn:    4.2554    constr:    0.0000
     atom:    5    charge:   13.5465    magn:   -4.2635    constr:    0.0000
     atom:    6    charge:   13.5462    magn:    4.2559    constr:    0.0000
     atom:    7    charge:   13.5461    magn:    4.2555    constr:    0.0000
     atom:    8    charge:   13.5464    magn:   -4.2643    constr:    0.0000
     atom:    9    charge:    9.1371    magn:    0.0284    constr:    0.0000
     atom:   10    charge:    9.1372    magn:    0.0309    constr:    0.0000
     atom:   11    charge:    9.1359    magn:    0.0317    constr:    0.0000
     atom:   12    charge:    9.1355    magn:    0.0317    constr:    0.0000
     atom:   13    charge:    9.1369    magn:    0.0309    constr:    0.0000
     atom:   14    charge:    9.1375    magn:    0.0286    constr:    0.0000
     atom:   15    charge:    9.1393    magn:    0.0354    constr:    0.0000
     atom:   16    charge:    9.1393    magn:   -0.0389    constr:    0.0000
     atom:   17    charge:    9.1381    magn:   -0.0386    constr:    0.0000
     atom:   18    charge:    9.1397    magn:    0.0393    constr:    0.0000
     atom:   19    charge:    9.1388    magn:    0.0309    constr:    0.0000
     atom:   20    charge:    9.1383    magn:    0.0307    constr:    0.0000
     atom:   21    charge:    9.1392    magn:    0.0390    constr:    0.0000
     atom:   22    charge:    9.1385    magn:   -0.0389    constr:    0.0000
     atom:   23    charge:    9.1398    magn:   -0.0391    constr:    0.0000
     atom:   24    charge:    9.1390    magn:    0.0352    constr:    0.0000

     total cpu time spent up to now is     1641.2 secs

     End of self-consistent calculation
 --- enter write_ns ---
 LDA+U parameters:
U(  1) =   3.1200   J(  1) =   0.7000   B(  1) =   0.0803
U(  2) =   3.1200   J(  2) =   0.7000   B(  2) =   0.0803
atom    1   Tr[ns(na)] (up, down, total) =   4.97517  0.71840  5.69357
   spin  1
    eigenvalues: 
  0.986  0.994  0.994  0.999  1.002
    eigenvectors:
  0.000  0.000  0.000  1.000  0.000
  0.000  0.305  0.695  0.000  0.000
  0.000  0.695  0.305  0.000  0.000
  0.000  0.000  0.000  0.000  1.000
  1.000  0.000  0.000  0.000  0.000
    occupations:
  0.999 -0.000 -0.000  0.000  0.000
 -0.000  0.994 -0.000  0.000  0.000
 -0.000 -0.000  0.994  0.000  0.000
  0.000  0.000  0.000  1.002 -0.000
  0.000  0.000  0.000 -0.000  0.986
   spin  2
    eigenvalues: 
  0.066  0.122  0.141  0.141  0.248
    eigenvectors:
  0.000  1.000  0.000  0.000  0.000
  0.000  0.000  0.334  0.666  0.000
  0.000  0.000  0.666  0.334  0.000
  1.000  0.000  0.000  0.000  0.000
  0.000  0.000  0.000  0.000  1.000
    occupations:
  0.122 -0.000 -0.000  0.000  0.000
 -0.000  0.141 -0.000  0.000  0.000
 -0.000 -0.000  0.141  0.000  0.000
  0.000  0.000  0.000  0.066 -0.000
  0.000  0.000  0.000 -0.000  0.248
atomic mag. moment =     4.256769
atom    2   Tr[ns(na)] (up, down, total) =   4.97244  0.74906  5.72150
   spin  1
    eigenvalues: 
  0.985  0.994  0.994  0.998  1.002
    eigenvectors:
  0.000  0.000  0.000  1.000  0.000
  0.000  0.313  0.687  0.000  0.000
  0.000  0.687  0.313  0.000  0.000
  0.000  0.000  0.000  0.000  1.000
  1.000  0.000  0.000  0.000  0.000
    occupations:
  0.998 -0.000 -0.000  0.000  0.000
 -0.000  0.994 -0.000  0.000  0.000
 -0.000 -0.000  0.994  0.000  0.000
  0.000  0.000  0.000  1.002 -0.000
  0.000  0.000  0.000 -0.000  0.985
   spin  2
    eigenvalues: 
  0.064  0.133  0.142  0.142  0.268
    eigenvectors:
  0.000  1.000  0.000  0.000  0.000
  0.000  0.000  0.275  0.725  0.000
  0.000  0.000  0.725  0.275  0.000
  1.000  0.000  0.000  0.000  0.000
  0.000  0.000  0.000  0.000  1.000
    occupations:
  0.133 -0.000 -0.000  0.000  0.000
 -0.000  0.142 -0.000  0.000  0.000
 -0.000 -0.000  0.142  0.000  0.000
  0.000  0.000  0.000  0.064 -0.000
  0.000  0.000  0.000 -0.000  0.268
atomic mag. moment =     4.223382
atom    3   Tr[ns(na)] (up, down, total) =   4.97257  0.74866  5.72123
   spin  1
    eigenvalues: 
  0.986  0.994  0.994  0.998  1.002
    eigenvectors:
  0.000  0.000  0.000  1.000  0.000
  0.000  0.291  0.709  0.000  0.000
  0.000  0.709  0.291  0.000  0.000
  0.000  0.000  0.000  0.000  1.000
  1.000  0.000  0.000  0.000  0.000
    occupations:
  0.998 -0.000 -0.000  0.000  0.000
 -0.000  0.994 -0.000  0.000  0.000
 -0.000 -0.000  0.994  0.000  0.000
  0.000  0.000  0.000  1.002 -0.000
  0.000  0.000  0.000 -0.000  0.986
   spin  2
    eigenvalues: 
  0.064  0.133  0.143  0.143  0.267
    eigenvectors:
  0.000  1.000  0.000  0.000  0.000
  0.000  0.000  0.317  0.683  0.000
  0.000  0.000  0.683  0.317  0.000
  1.000  0.000  0.000  0.000  0.000
  0.000  0.000  0.000  0.000  1.000
    occupations:
  0.133 -0.000 -0.000  0.000  0.000
 -0.000  0.143 -0.000  0.000  0.000
 -0.000 -0.000  0.143  0.000  0.000
  0.000  0.000  0.000  0.064 -0.000
  0.000  0.000  0.000 -0.000  0.267
atomic mag. moment =     4.223911
atom    4   Tr[ns(na)] (up, down, total) =   4.97520  0.71815  5.69335
   spin  1
    eigenvalues: 
  0.986  0.994  0.994  0.999  1.002
    eigenvectors:
  0.000  0.000  0.000  1.000  0.000
  0.000  0.355  0.645  0.000  0.000
  0.000  0.645  0.355  0.000  0.000
  0.000  0.000  0.000  0.000  1.000
  1.000  0.000  0.000  0.000  0.000
    occupations:
  0.999 -0.000 -0.000  0.000  0.000
 -0.000  0.994 -0.000  0.000  0.000
 -0.000 -0.000  0.994  0.000  0.000
  0.000  0.000  0.000  1.002 -0.000
  0.000  0.000  0.000 -0.000  0.986
   spin  2
    eigenvalues: 
  0.066  0.122  0.141  0.141  0.249
    eigenvectors:
  0.000  1.000  0.000  0.000  0.000
  0.000  0.000  0.298  0.702  0.000
  0.000  0.000  0.702  0.298  0.000
  1.000  0.000  0.000  0.000  0.000
  0.000  0.000  0.000  0.000  1.000
    occupations:
  0.122 -0.000 -0.000  0.000  0.000
 -0.000  0.141 -0.000  0.000  0.000
 -0.000 -0.000  0.141  0.000  0.000
  0.000  0.000  0.000  0.066 -0.000
  0.000  0.000  0.000 -0.000  0.249
atomic mag. moment =     4.257048
atom    5   Tr[ns(na)] (up, down, total) =   0.71536  4.97352  5.68888
   spin  1
    eigenvalues: 
  0.063  0.116  0.142  0.142  0.253
    eigenvectors:
  0.000  1.000  0.000  0.000  0.000
  0.000  0.000  0.363  0.637  0.000
  0.000  0.000  0.637  0.363  0.000
  1.000  0.000  0.000  0.000  0.000
  0.000  0.000  0.000  0.000  1.000
    occupations:
  0.116 -0.000 -0.000  0.000  0.000
 -0.000  0.142 -0.000  0.000  0.000
 -0.000 -0.000  0.142  0.000  0.000
  0.000  0.000  0.000  0.063 -0.000
  0.000  0.000  0.000 -0.000  0.253
   spin  2
    eigenvalues: 
  0.985  0.994  0.994  0.998  1.002
    eigenvectors:
  0.000  0.000  0.000  1.000  0.000
  0.000  0.344  0.656  0.000  0.000
  0.000  0.656  0.344  0.000  0.000
  0.000  0.000  0.000  0.000  1.000
  1.000  0.000  0.000  0.000  0.000
    occupations:
  0.998 -0.000 -0.000  0.000  0.000
 -0.000  0.994 -0.000  0.000  0.000
 -0.000 -0.000  0.994  0.000  0.000
  0.000  0.000  0.000  1.002 -0.000
  0.000  0.000  0.000 -0.000  0.985
atomic mag. moment =    -4.258165
atom    6   Tr[ns(na)] (up, down, total) =   4.97534  0.71727  5.69262
   spin  1
    eigenvalues: 
  0.986  0.995  0.995  0.998  1.002
    eigenvectors:
  0.000  0.000  0.000  1.000  0.000
  0.000  0.314  0.686  0.000  0.000
  0.000  0.686  0.314  0.000  0.000
  0.000  0.000  0.000  0.000  1.000
  1.000  0.000  0.000  0.000  0.000
    occupations:
  0.998 -0.000 -0.000  0.000  0.000
 -0.000  0.995 -0.000  0.000  0.000
 -0.000 -0.000  0.995  0.000  0.000
  0.000  0.000  0.000  1.002 -0.000
  0.000  0.000  0.000 -0.000  0.986
   spin  2
    eigenvalues: 
  0.066  0.116  0.143  0.143  0.249
    eigenvectors:
  0.000  1.000  0.000  0.000  0.000
  0.000  0.000  0.284  0.716  0.000
  0.000  0.000  0.716  0.284  0.000
  1.000  0.000  0.000  0.000  0.000
  0.000  0.000  0.000  0.000  1.000
    occupations:
  0.116 -0.000 -0.000  0.000  0.000
 -0.000  0.143 -0.000  0.000  0.000
 -0.000 -0.000  0.143  0.000  0.000
  0.000  0.000  0.000  0.066 -0.000
  0.000  0.000  0.000 -0.000  0.249
atomic mag. moment =     4.258068
atom    7   Tr[ns(na)] (up, down, total) =   4.97532  0.71747  5.69279
   spin  1
    eigenvalues: 
  0.986  0.995  0.995  0.998  1.002
    eigenvectors:
  0.000  0.000  0.000  1.000  0.000
  0.000  0.361  0.639  0.000  0.000
  0.000  0.639  0.361  0.000  0.000
  0.000  0.000  0.000  0.000  1.000
  1.000  0.000  0.000  0.000  0.000
    occupations:
  0.998 -0.000 -0.000  0.000  0.000
 -0.000  0.995 -0.000  0.000  0.000
 -0.000 -0.000  0.995  0.000  0.000
  0.000  0.000  0.000  1.002 -0.000
  0.000  0.000  0.000 -0.000  0.986
   spin  2
    eigenvalues: 
  0.066  0.116  0.143  0.143  0.249
    eigenvectors:
  0.000  1.000  0.000  0.000  0.000
  0.000  0.000  0.305  0.695  0.000
  0.000  0.000  0.695  0.305  0.000
  1.000  0.000  0.000  0.000  0.000
  0.000  0.000  0.000  0.000  1.000
    occupations:
  0.116 -0.000 -0.000  0.000  0.000
 -0.000  0.143 -0.000  0.000  0.000
 -0.000 -0.000  0.143  0.000  0.000
  0.000  0.000  0.000  0.066 -0.000
  0.000  0.000  0.000 -0.000  0.249
atomic mag. moment =     4.257857
atom    8   Tr[ns(na)] (up, down, total) =   0.71463  4.97365  5.68828
   spin  1
    eigenvalues: 
  0.063  0.116  0.142  0.142  0.251
    eigenvectors:
  0.000  1.000  0.000  0.000  0.000
  0.000  0.000  0.285  0.715  0.000
  0.000  0.000  0.715  0.285  0.000
  1.000  0.000  0.000  0.000  0.000
  0.000  0.000  0.000  0.000  1.000
    occupations:
  0.116 -0.000 -0.000  0.000  0.000
 -0.000  0.142 -0.000  0.000  0.000
 -0.000 -0.000  0.142  0.000  0.000
  0.000  0.000  0.000  0.063 -0.000
  0.000  0.000  0.000 -0.000  0.251
   spin  2
    eigenvalues: 
  0.985  0.994  0.994  0.998  1.002
    eigenvectors:
  0.000  0.000  0.000  1.000  0.000
  0.000  0.316  0.684  0.000  0.000
  0.000  0.684  0.316  0.000  0.000
  0.000  0.000  0.000  0.000  1.000
  1.000  0.000  0.000  0.000  0.000
    occupations:
  0.998 -0.000 -0.000  0.000  0.000
 -0.000  0.994 -0.000  0.000  0.000
 -0.000 -0.000  0.994  0.000  0.000
  0.000  0.000  0.000  1.002 -0.000
  0.000  0.000  0.000 -0.000  0.985
atomic mag. moment =    -4.259011
N of occupied +U levels =   45.592222
 --- exit write_ns ---

 ------ SPIN UP ------------


          k = 0.0000 0.0000 0.0000 ( 14071 PWs)   bands (ev):

   -67.0397 -67.0389 -67.0288 -67.0276 -66.8971 -66.8964 -62.4807 -62.4798
   -35.8150 -35.8142 -35.7997 -35.7983 -35.7522 -35.7522 -35.7516 -35.7516
   -35.7440 -35.7440 -35.7429 -35.7429 -35.6794 -35.6791 -35.6089 -35.6089
   -35.6077 -35.6077 -31.3003 -31.2998 -31.2995 -31.2995 -31.2985 -31.2985
     5.5817   5.7144   5.7389   6.1553   6.1587   6.7772   6.8509   7.3993
     7.9887   8.2001   8.2095   8.2227   8.2668   8.2860   8.3412   8.4822
     8.5142   8.5296   8.5639   8.6231   8.6981   8.7584   8.9360   9.0146
     9.0552   9.1678   9.2027   9.2146   9.2465   9.3989   9.4305   9.6330
     9.7217   9.7304   9.7826   9.8076   9.8892   9.9198   9.9299   9.9299
     9.9435   9.9603   9.9711   9.9711  10.0072  10.0072  10.1442  10.1442
    10.1482  10.1482  10.1683  10.2197  10.2787  10.3040  10.3040  10.3249
    10.3249  10.3460  10.3460  10.3706  10.3706  10.3853  10.3853  10.3906
    10.4317  10.4317  10.4684  10.4714  10.4714  10.5234  10.5234  10.6253
    10.6834  10.7895  10.7895  10.8565  10.8594  10.8633  10.8633  10.9756
    11.0024  11.0346  11.0780  11.1618  11.1984  11.1984  11.3215  11.3385
    11.3620  11.3620  11.3887  11.4073  11.4535  11.4671  11.5714  11.6770
    11.7328  11.7328  11.7331  11.7770  11.7970  11.8031  11.8031  11.8886
    11.9296  11.9728  12.1836  12.1836  12.2641  12.2865  12.2865  12.3707
    12.4782  12.4857  12.4857  12.5192  12.6658  12.6794  12.7185  12.8116
    12.9171  13.6055  13.6856  14.7566  15.0584  15.9976  16.6431  16.6431
    16.6498  16.6498  16.6718  16.6737  16.8302  16.8324  17.0188  17.1979
    17.8053  18.8433  19.0641  19.8540  19.8540  20.1837  20.1837  20.2284
    20.2284  20.9186

          k = 0.0000 0.0000 0.0159 ( 14107 PWs)   bands (ev):

   -67.0397 -67.0389 -67.0288 -67.0276 -66.8971 -66.8964 -62.4807 -62.4798
   -35.8151 -35.8142 -35.7997 -35.7983 -35.7522 -35.7522 -35.7516 -35.7516
   -35.7440 -35.7440 -35.7429 -35.7429 -35.6794 -35.6791 -35.6089 -35.6089
   -35.6077 -35.6077 -31.3003 -31.2998 -31.2995 -31.2995 -31.2985 -31.2985
     5.5857   5.6815   5.7787   6.0712   6.2491   6.6910   6.9401   7.3665
     8.0213   8.2003   8.2114   8.2222   8.2610   8.2864   8.3469   8.4536
     8.4797   8.5170   8.5595   8.6588   8.7402   8.7572   8.9177   9.0257
     9.0606   9.1599   9.1630   9.2111   9.2800   9.4062   9.4278   9.6237
     9.7222   9.7298   9.7829   9.8151   9.8901   9.9189   9.9308   9.9308
     9.9412   9.9628   9.9662   9.9662  10.0153  10.0153  10.1133  10.1133
    10.1676  10.1819  10.1819  10.2033  10.2954  10.3034  10.3034  10.3233
    10.3233  10.3438  10.3438  10.3522  10.3522  10.3906  10.3906  10.3943
    10.4377  10.4377  10.4635  10.4716  10.4716  10.5370  10.5370  10.6195
    10.6875  10.7513  10.7513  10.8510  10.8676  10.9042  10.9042  10.9696
    11.0067  11.0348  11.0776  11.1621  11.1697  11.1697  11.3238  11.3290
    11.3875  11.3875  11.3984  11.4066  11.4510  11.4679  11.5726  11.6739
    11.7019  11.7019  11.7328  11.7761  11.7977  11.8283  11.8283  11.8939
    11.9296  11.9686  12.1767  12.1767  12.2657  12.2908  12.2908  12.3690
    12.4790  12.4853  12.4853  12.5275  12.6651  12.6800  12.6914  12.8116
    12.9510  13.5034  13.7960  14.6620  15.1609  15.9492  16.6431  16.6431
    16.6497  16.6497  16.6718  16.6737  16.8302  16.8324  17.0429  17.1929
    17.8390  18.6498  19.2757  19.8641  19.8641  20.0995  20.0995  20.3283
    20.3283  20.5845

          k = 0.0000 0.0000 0.0319 ( 14080 PWs)   bands (ev):

   -67.0397 -67.0389 -67.0288 -67.0276 -66.8971 -66.8964 -62.4807 -62.4798
   -35.8151 -35.8142 -35.7997 -35.7983 -35.7522 -35.7522 -35.7516 -35.7516
   -35.7440 -35.7440 -35.7429 -35.7429 -35.6794 -35.6791 -35.6089 -35.6089
   -35.6077 -35.6077 -31.3003 -31.2998 -31.2995 -31.2995 -31.2985 -31.2985
     5.5978   5.6463   5.8330   5.9949   6.3440   6.5831   7.0579   7.2848
     8.1015   8.2008   8.2167   8.2212   8.2499   8.2872   8.3288   8.3733
     8.4755   8.5217   8.5382   8.6970   8.7549   8.8192   8.8887   9.0230
     9.0741   9.1263   9.1418   9.2005   9.3159   9.4212   9.4213   9.6054
     9.7233   9.7283   9.7835   9.8292   9.8921   9.9171   9.9331   9.9331
     9.9376   9.9585   9.9585   9.9666  10.0334  10.0334  10.0834  10.0834
    10.1660  10.1807  10.2195  10.2195  10.2950  10.2950  10.3111  10.3111
    10.3188  10.3312  10.3312  10.3474  10.3474  10.3927  10.3927  10.4038
    10.4440  10.4440  10.4520  10.4718  10.4718  10.5715  10.5715  10.6081
    10.6955  10.6955  10.6962  10.8399  10.8869  10.9544  10.9689  10.9689
    11.0149  11.0352  11.0769  11.1111  11.1111  11.1625  11.3149  11.3286
    11.4054  11.4128  11.4330  11.4330  11.4459  11.4693  11.5749  11.6552
    11.6552  11.6677  11.7322  11.7744  11.7990  11.8600  11.8600  11.9067
    11.9296  11.9579  12.1636  12.1636  12.2691  12.2984  12.2984  12.3655
    12.4804  12.4844  12.4844  12.5519  12.6399  12.6638  12.6811  12.8116
    13.0158  13.3934  13.9268  14.5189  15.3289  15.8347  16.6432  16.6432
    16.6497  16.6497  16.6718  16.6737  16.8302  16.8324  17.0930  17.1774
    17.9337  18.4100  19.5762  19.8942  19.8942  20.0135  20.0135  20.2568
    20.4605  20.4605

          k = 0.0000 0.0000-0.0478 ( 14088 PWs)   bands (ev):

   -67.0397 -67.0389 -67.0288 -67.0276 -66.8971 -66.8964 -62.4807 -62.4798
   -35.8151 -35.8142 -35.7997 -35.7983 -35.7522 -35.7522 -35.7516 -35.7516
   -35.7440 -35.7440 -35.7429 -35.7429 -35.6794 -35.6791 -35.6089 -35.6089
   -35.6077 -35.6077 -31.3003 -31.2998 -31.2995 -31.2995 -31.2985 -31.2985
     5.6152   5.6211   5.8707   5.9499   6.4106   6.5119   7.1582   7.1944
     8.1755   8.2011   8.2207   8.2319   8.2378   8.2467   8.2876   8.3735
     8.4737   8.5239   8.5283   8.7134   8.7538   8.8551   8.8859   8.9990
     9.0842   9.1216   9.1296   9.1939   9.3304   9.4169   9.4294   9.5960
     9.7243   9.7272   9.7837   9.8358   9.8933   9.9160   9.9346   9.9346
     9.9362   9.9549   9.9549   9.9682  10.0538  10.0538  10.0594  10.0594
    10.1653  10.1714  10.2522  10.2522  10.2669  10.2669  10.3077  10.3077
    10.3285  10.3296  10.3296  10.3472  10.3472  10.3931  10.3931  10.4105
    10.4443  10.4459  10.4459  10.4719  10.4719  10.6006  10.6006  10.6024
    10.6600  10.6600  10.7008  10.8343  10.9005  10.9426  11.0188  11.0218
    11.0218  11.0354  11.0593  11.0593  11.0765  11.1628  11.3090  11.3311
    11.4048  11.4189  11.4433  11.4568  11.4568  11.4700  11.5760  11.6316
    11.6316  11.6646  11.7319  11.7736  11.7996  11.8727  11.8727  11.9155
    11.9296  11.9500  12.1571  12.1571  12.2709  12.3018  12.3018  12.3637
    12.4811  12.4840  12.4840  12.5892  12.5919  12.6632  12.6815  12.8116
    13.0524  13.3428  13.9916  14.4478  15.4264  15.7538  16.6432  16.6432
    16.6496  16.6496  16.6718  16.6737  16.8302  16.8324  17.1276  17.1585
    18.0203  18.2733  19.8160  19.9379  19.9379  19.9509  19.9509  20.0094
    20.5715  20.5715

          k = 0.0000 0.1667 0.0000 ( 14044 PWs)   bands (ev):

   -67.0393 -67.0385 -67.0284 -67.0272 -66.8967 -66.8960 -62.4806 -62.4798
   -35.8148 -35.8139 -35.7994 -35.7980 -35.7552 -35.7546 -35.7521 -35.7514
   -35.7470 -35.7459 -35.7438 -35.7427 -35.6791 -35.6788 -35.6119 -35.6107
   -35.6087 -35.6075 -31.3032 -31.3022 -31.2999 -31.2994 -31.2993 -31.2983
     6.0101   6.1368   6.1579   6.5457   6.5485   7.1060   7.1536   7.6192
     8.0241   8.3632   8.3894   8.4228   8.4311   8.4374   8.4585   8.4833
     8.5199   8.6381   8.6528   8.7414   8.7476   8.8337   8.8419   8.8680
     8.9359   9.0132   9.0308   9.1847   9.3281   9.4838   9.4939   9.5128
     9.5167   9.5331   9.5356   9.6415   9.6596   9.6731   9.6859   9.7052
     9.7507   9.7633   9.8024   9.8181   9.8940   9.9209   9.9806  10.0123
    10.0818  10.1465  10.1828  10.1964  10.2369  10.2600  10.2839  10.3565
    10.3571  10.3810  10.4067  10.4096  10.4452  10.5039  10.5363  10.6035
    10.6342  10.6752  10.6756  10.6845  10.7888  10.8014  10.8157  10.9126
    10.9348  10.9563  11.0209  11.0251  11.0253  11.0529  11.0601  11.0681
    11.1320  11.1437  11.1783  11.2196  11.2241  11.2589  11.2671  11.3654
    11.3704  11.3823  11.4418  11.4797  11.5239  11.5570  11.6005  11.6136
    11.6591  11.6681  11.7336  11.7499  11.7813  11.7857  11.8922  11.9503
    11.9584  12.0182  12.0346  12.1323  12.1740  12.2005  12.2877  12.3088
    12.4243  12.4853  12.5549  12.5593  12.5902  12.6809  12.7229  12.7237
    12.8566  13.7041  13.7659  14.9862  15.2717  16.2208  16.2531  16.4136
    16.6584  16.6686  16.6829  16.6853  16.8448  16.8460  17.2235  17.5451
    17.6417  17.8645  17.9300  18.0928  18.7348  18.7466  19.4214  19.5646
    19.7533  19.7539

          k = 0.0000 0.1667 0.0159 ( 14046 PWs)   bands (ev):

   -67.0393 -67.0385 -67.0284 -67.0272 -66.8967 -66.8960 -62.4806 -62.4798
   -35.8148 -35.8139 -35.7994 -35.7980 -35.7552 -35.7546 -35.7521 -35.7514
   -35.7470 -35.7459 -35.7438 -35.7427 -35.6791 -35.6788 -35.6119 -35.6107
   -35.6087 -35.6075 -31.3032 -31.3022 -31.2999 -31.2994 -31.2993 -31.2983
     6.0140   6.1050   6.1962   6.4678   6.6318   7.0246   7.2359   7.5919
     8.0482   8.3301   8.3764   8.4184   8.4314   8.4470   8.4825   8.4915
     8.5256   8.6341   8.6553   8.7103   8.7731   8.8071   8.8511   8.8887
     8.9322   9.0132   9.0309   9.1736   9.3425   9.4826   9.4847   9.5086
     9.5171   9.5381   9.5382   9.6306   9.6700   9.6732   9.6864   9.7058
     9.7551   9.7631   9.7935   9.8253   9.8882   9.9196   9.9835  10.0168
    10.0705  10.1640  10.1748  10.2040  10.2371  10.2565  10.2881  10.3507
    10.3525  10.3566  10.3823  10.4484  10.4672  10.4993  10.5390  10.6025
    10.6345  10.6697  10.6808  10.6848  10.7442  10.8202  10.8277  10.9149
    10.9279  10.9742  11.0200  11.0294  11.0294  11.0519  11.0588  11.0617
    11.1178  11.1439  11.1715  11.2237  11.2367  11.2599  11.2705  11.3570
    11.3677  11.3877  11.4386  11.4725  11.5295  11.5497  11.6019  11.6196
    11.6545  11.6896  11.7114  11.7669  11.7795  11.7867  11.8922  11.9344
    11.9489  12.0233  12.0456  12.1358  12.1770  12.1994  12.2863  12.3036
    12.4339  12.4897  12.5540  12.5582  12.5899  12.6389  12.7229  12.7238
    12.9098  13.5610  13.9177  14.8709  15.3879  16.1426  16.3022  16.4103
    16.6586  16.6681  16.6829  16.6853  16.8448  16.8460  17.2314  17.4822
    17.6497  17.8685  17.9721  18.1641  18.5910  18.8963  19.1683  19.5693
    19.8373  19.9320

          k = 0.0000 0.1667 0.0319 ( 14043 PWs)   bands (ev):

   -67.0393 -67.0385 -67.0284 -67.0272 -66.8967 -66.8960 -62.4806 -62.4798
   -35.8148 -35.8139 -35.7994 -35.7980 -35.7552 -35.7546 -35.7521 -35.7514
   -35.7470 -35.7459 -35.7438 -35.7427 -35.6791 -35.6788 -35.6119 -35.6107
   -35.6087 -35.6075 -31.3032 -31.3022 -31.2999 -31.2994 -31.2993 -31.2983
     6.0254   6.0716   6.2476   6.3968   6.7193   6.9276   7.3368   7.5239
     8.1064   8.2592   8.3804   8.4078   8.4321   8.4449   8.4881   8.5374
     8.5411   8.6249   8.6577   8.6799   8.7767   8.7904   8.8667   8.9084
     8.9265   9.0134   9.0308   9.1536   9.3738   9.4570   9.4871   9.5019
     9.5178   9.5413   9.5466   9.6171   9.6731   9.6800   9.6891   9.7082
     9.7622   9.7645   9.7816   9.8334   9.8765   9.9170   9.9900  10.0252
    10.0533  10.1649  10.2007  10.2132  10.2380  10.2499  10.2962  10.2964
    10.3439  10.3567  10.3839  10.4560  10.4899  10.5250  10.5433  10.5970
    10.6370  10.6654  10.6835  10.6845  10.6927  10.8325  10.8388  10.8886
    10.9623  10.9946  11.0177  11.0347  11.0395  11.0505  11.0508  11.0551
    11.0952  11.1411  11.1533  11.2337  11.2466  11.2646  11.2923  11.3435
    11.3611  11.3891  11.4256  11.4640  11.5411  11.5418  11.6038  11.6348
    11.6515  11.6819  11.7260  11.7749  11.7815  11.7880  11.8922  11.9056
    11.9344  12.0285  12.0621  12.1448  12.1825  12.1970  12.2822  12.2938
    12.4623  12.4990  12.5496  12.5578  12.5700  12.5894  12.7229  12.7239
    13.0052  13.4150  14.0855  14.6980  15.5663  16.0256  16.3418  16.4015
    16.6592  16.6672  16.6829  16.6853  16.8448  16.8460  17.2557  17.3869
    17.6713  17.8093  18.1212  18.3249  18.4527  18.8701  19.0580  19.3995
    20.0935  20.1860

          k = 0.0000 0.1667-0.0478 ( 14036 PWs)   bands (ev):

   -67.0393 -67.0385 -67.0284 -67.0272 -66.8967 -66.8960 -62.4806 -62.4798
   -35.8148 -35.8139 -35.7994 -35.7980 -35.7552 -35.7546 -35.7521 -35.7514
   -35.7470 -35.7459 -35.7438 -35.7427 -35.6791 -35.6788 -35.6119 -35.6107
   -35.6087 -35.6075 -31.3032 -31.3022 -31.2999 -31.2994 -31.2993 -31.2983
     6.0415   6.0480   6.2840   6.3539   6.7836   6.8598   7.4273   7.4426
     8.1658   8.1967   8.3852   8.4005   8.4325   8.4438   8.4892   8.5442
     8.5697   8.6150   8.6552   8.6690   8.7648   8.7945   8.8801   8.9031
     8.9313   9.0137   9.0307   9.1442   9.3975   9.4358   9.4891   9.4983
     9.5182   9.5423   9.5507   9.6113   9.6731   9.6820   9.6917   9.7105
     9.7613   9.7696   9.7765   9.8365   9.8703   9.9157   9.9940  10.0293
    10.0454  10.1608  10.2171  10.2393  10.2420  10.2457  10.2498  10.3007
    10.3392  10.3567  10.3845  10.4613  10.4839  10.5450  10.5670  10.5804
    10.6467  10.6546  10.6638  10.6858  10.6868  10.8409  10.8433  10.8730
    10.9857  11.0052  11.0142  11.0237  11.0471  11.0489  11.0547  11.0552
    11.0817  11.1397  11.1411  11.2399  11.2459  11.2681  11.3175  11.3310
    11.3571  11.3818  11.4190  11.4623  11.5384  11.5487  11.6045  11.6504
    11.6552  11.6560  11.7491  11.7679  11.7863  11.7885  11.8906  11.8922
    11.9283  12.0297  12.0691  12.1503  12.1852  12.1957  12.2787  12.2900
    12.5043  12.5050  12.5122  12.5463  12.5580  12.5891  12.7229  12.7240
    13.0625  13.3419  14.1736  14.6060  15.6695  15.9456  16.3586  16.3940
    16.6595  16.6667  16.6829  16.6853  16.8448  16.8460  17.2854  17.3306
    17.6888  17.7771  18.2195  18.3535  18.5038  18.6561  19.1943  19.2590
    20.2577  20.2874

          k = 0.0000 0.3333 0.0000 ( 14062 PWs)   bands (ev):

   -67.0396 -67.0388 -67.0287 -67.0275 -66.8970 -66.8963 -62.4797 -62.4788
   -35.8142 -35.8134 -35.7989 -35.7975 -35.7610 -35.7604 -35.7528 -35.7517
   -35.7517 -35.7511 -35.7435 -35.7424 -35.6785 -35.6782 -35.6177 -35.6165
   -35.6083 -35.6071 -31.3107 -31.3097 -31.2991 -31.2988 -31.2986 -31.2978
     7.1475   7.2497   7.2576   7.5201   7.5227   7.7882   7.8018   7.9441
     7.9950   8.0863   8.0926   8.2324   8.2359   8.4086   8.4426   8.5910
     8.6904   8.7303   8.8020   8.8478   8.8481   8.9163   8.9509   8.9595
     8.9740   9.1121   9.1137   9.1203   9.1421   9.1776   9.2297   9.2663
     9.2741   9.3407   9.3946   9.4292   9.4471   9.4599   9.4630   9.6113
     9.6454   9.7568   9.7640   9.8713   9.8806   9.9059   9.9450  10.1583
    10.2178  10.2322  10.2825  10.3167  10.3391  10.3444  10.3616  10.3988
    10.4191  10.5536  10.6435  10.6553  10.6829  10.7589  10.8042  10.8437
    10.9585  10.9780  10.9849  11.0866  11.0908  11.1103  11.1193  11.1243
    11.1720  11.1833  11.2106  11.2432  11.2532  11.2787  11.2852  11.3029
    11.3076  11.3414  11.3647  11.4104  11.4155  11.4454  11.5509  11.5612
    11.5640  11.5650  11.5762  11.6330  11.6374  11.6687  11.7182  11.7405
    11.7766  11.8023  11.8050  11.8052  11.8694  11.8734  11.9130  11.9400
    11.9752  12.1327  12.1762  12.1914  12.1981  12.2923  12.3623  12.4126
    12.4907  12.6056  12.6126  12.6522  12.6772  12.6809  12.6909  12.7845
    12.8221  13.8774  13.9056  14.3771  14.5933  14.6258  15.0497  15.0958
    15.2558  15.3786  15.9056  15.9308  16.0525  16.3100  16.5430  16.5452
    16.7856  16.8746  16.8759  17.1501  17.1509  17.1709  17.6485  17.8072
    18.8874  19.2577

          k = 0.0000 0.3333 0.0159 ( 14056 PWs)   bands (ev):

   -67.0396 -67.0388 -67.0287 -67.0275 -66.8970 -66.8963 -62.4797 -62.4788
   -35.8142 -35.8134 -35.7989 -35.7975 -35.7610 -35.7604 -35.7528 -35.7517
   -35.7517 -35.7511 -35.7435 -35.7424 -35.6785 -35.6782 -35.6177 -35.6165
   -35.6083 -35.6071 -31.3107 -31.3097 -31.2991 -31.2988 -31.2986 -31.2978
     7.1505   7.2222   7.2895   7.4722   7.5710   7.7552   7.8312   7.9356
     8.0020   8.0697   8.1103   8.2067   8.2628   8.3885   8.4631   8.5806
     8.6984   8.7335   8.7948   8.8267   8.8632   8.9297   8.9486   8.9620
     8.9738   9.1114   9.1144   9.1204   9.1411   9.1804   9.2089   9.2263
     9.3346   9.3445   9.3938   9.4269   9.4464   9.4602   9.4630   9.6135
     9.6431   9.7291   9.7587   9.8712   9.8788   9.9453   9.9454  10.1588
    10.2121  10.2323  10.2762  10.2913  10.3146  10.3638  10.3773  10.4025
    10.4295  10.5643  10.5885  10.6926  10.7115  10.7552  10.8110  10.8497
    10.9251  10.9579  11.0107  11.0555  11.0871  11.1013  11.1190  11.1491
    11.1751  11.1852  11.2106  11.2143  11.2578  11.2737  11.2904  11.2988
    11.3317  11.3513  11.3710  11.4156  11.4220  11.4481  11.5233  11.5388
    11.5579  11.5783  11.5978  11.6388  11.6608  11.6658  11.7164  11.7327
    11.7819  11.8041  11.8047  11.8091  11.8497  11.8734  11.9117  11.9356
    11.9929  12.1327  12.1593  12.1826  12.2254  12.2945  12.3605  12.4073
    12.4793  12.4946  12.6127  12.6525  12.6707  12.6864  12.7845  12.8221
    12.8370  13.6803  14.0954  14.3889  14.5341  14.6932  14.9209  15.1193
    15.2814  15.4477  15.8469  15.9192  16.0776  16.3140  16.5430  16.5452
    16.7856  16.8493  16.9183  17.1501  17.1509  17.1592  17.6552  17.7991
    18.8893  19.1585

          k = 0.0000 0.3333 0.0319 ( 14062 PWs)   bands (ev):

   -67.0396 -67.0388 -67.0287 -67.0275 -66.8970 -66.8963 -62.4797 -62.4788
   -35.8142 -35.8134 -35.7989 -35.7975 -35.7610 -35.7604 -35.7528 -35.7517
   -35.7517 -35.7511 -35.7435 -35.7424 -35.6785 -35.6782 -35.6177 -35.6165
   -35.6083 -35.6071 -31.3107 -31.3097 -31.2991 -31.2988 -31.2986 -31.2978
     7.1593   7.1963   7.3281   7.4252   7.6201   7.7130   7.8626   7.9167
     8.0164   8.0514   8.1319   8.1807   8.2918   8.3586   8.4946   8.5563
     8.7136   8.7430   8.7780   8.8072   8.8726   8.9436   8.9542   8.9679
     8.9741   9.1106   9.1154   9.1206   9.1394   9.1593   9.1869   9.2185
     9.3529   9.3915   9.3929   9.4223   9.4431   9.4613   9.4630   9.6193
     9.6372   9.6746   9.7627   9.8706   9.8759   9.9459  10.0178  10.1598
    10.1754  10.2330  10.2498  10.2878  10.2977  10.3577  10.4017  10.4192
    10.4482  10.5315  10.5861  10.7001  10.7706  10.7724  10.8290  10.8582
    10.8852  10.9142  10.9627  11.0655  11.0810  11.0972  11.1274  11.1626
    11.1838  11.1865  11.1902  11.2115  11.2597  11.2620  11.2852  11.2955
    11.3569  11.3582  11.3983  11.4304  11.4329  11.4563  11.4878  11.5006
    11.5662  11.5824  11.6324  11.6457  11.6579  11.7042  11.7078  11.7243
    11.7885  11.8036  11.8049  11.8091  11.8239  11.8734  11.9087  11.9231
    12.0264  12.1229  12.1335  12.2054  12.2455  12.3021  12.3493  12.3543
    12.3982  12.5012  12.6127  12.6535  12.6636  12.6911  12.7845  12.8220
    13.0277  13.4720  14.2692  14.4351  14.4731  14.7533  14.7766  15.0379
    15.3842  15.5577  15.7567  15.8561  16.1184  16.3188  16.5430  16.5452
    16.7857  16.8367  16.9731  17.1279  17.1501  17.1509  17.6721  17.7794
    18.8979  19.0684

          k = 0.0000 0.3333-0.0478 ( 14060 PWs)   bands (ev):

   -67.0396 -67.0388 -67.0287 -67.0275 -66.8970 -66.8963 -62.4797 -62.4788
   -35.8142 -35.8134 -35.7989 -35.7975 -35.7610 -35.7604 -35.7528 -35.7517
   -35.7517 -35.7511 -35.7435 -35.7424 -35.6785 -35.6782 -35.6177 -35.6165
   -35.6083 -35.6071 -31.3107 -31.3097 -31.2991 -31.2988 -31.2986 -31.2978
     7.1704   7.1795   7.3577   7.3929   7.6674   7.6679   7.8855   7.8977
     8.0307   8.0363   8.1514   8.1598   8.3130   8.3368   8.5262   8.5266
     8.7215   8.7568   8.7606   8.7988   8.8760   8.9423   8.9608   8.9709
     8.9797   9.1103   9.1157   9.1207   9.1378   9.1386   9.1913   9.2135
     9.3578   9.3896   9.4199   9.4284   9.4323   9.4623   9.4630   9.6245
     9.6319   9.6482   9.7648   9.8696   9.8749   9.9462  10.0767  10.1240
    10.1603  10.2338  10.2439  10.2888  10.2919  10.3532  10.4016  10.4529
    10.4550  10.4928  10.5982  10.6950  10.8065  10.8207  10.8257  10.8440
    10.8822  10.8873  10.9095  11.0654  11.0964  11.1137  11.1185  11.1414
    11.1860  11.1883  11.2001  11.2166  11.2466  11.2635  11.2829  11.2946
    11.3594  11.3627  11.4264  11.4306  11.4449  11.4615  11.4650  11.4773
    11.5768  11.5802  11.6461  11.6491  11.6691  11.6830  11.7229  11.7466
    11.7723  11.7912  11.8032  11.8049  11.8348  11.8732  11.9062  11.9143
    12.0488  12.1008  12.1334  12.2452  12.2519  12.2697  12.3090  12.3485
    12.3944  12.5043  12.6128  12.6546  12.6602  12.6928  12.7845  12.8220
    13.1739  13.3203  14.3442  14.4371  14.5241  14.6227  14.8263  14.9837
    15.4390  15.6373  15.6884  15.8106  16.1360  16.3197  16.5430  16.5452
    16.7858  16.8331  17.0079  17.1022  17.1501  17.1509  17.6836  17.7664
    18.9067  19.0301

          k = 0.0000-0.5000 0.0000 ( 14098 PWs)   bands (ev):

   -67.0402 -67.0395 -67.0294 -67.0282 -66.8977 -66.8970 -62.4787 -62.4778
   -35.8139 -35.8131 -35.7986 -35.7972 -35.7638 -35.7632 -35.7556 -35.7545
   -35.7515 -35.7509 -35.7433 -35.7422 -35.6782 -35.6780 -35.6205 -35.6193
   -35.6082 -35.6070 -31.3145 -31.3135 -31.2987 -31.2985 -31.2982 -31.2975
     7.9308   7.9312   7.9381   7.9386   8.0030   8.0031   8.0816   8.0819
     8.1803   8.1806   8.2530   8.2533   8.3193   8.3194   8.4484   8.4488
     8.5330   8.5336   8.6962   8.6965   8.9402   8.9408   8.9655   8.9658
     9.0269   9.0274   9.0355   9.0359   9.2179   9.2183   9.2199   9.2201
     9.2902   9.2905   9.5161   9.5165   9.5180   9.5184   9.5599   9.5599
     9.6325   9.6329   9.7474   9.7476   9.8318   9.8319   9.8777   9.8779
    10.0812  10.0816  10.1925  10.1931  10.3301  10.3306  10.3462  10.3463
    10.4615  10.4616  10.6393  10.6398  10.9873  10.9880  10.9990  10.9994
    11.1304  11.1305  11.1832  11.1833  11.2501  11.2504  11.2964  11.2966
    11.3170  11.3174  11.3243  11.3247  11.3910  11.3913  11.4273  11.4274
    11.4917  11.4924  11.5131  11.5133  11.5746  11.5747  11.6635  11.6635
    11.6929  11.6932  11.9539  11.9543  11.9573  11.9575  12.1285  12.1286
    12.1383  12.1387  12.2813  12.2814  12.2818  12.2820  12.3726  12.3731
    12.4029  12.4029  12.4195  12.4197  12.5177  12.5178  12.6242  12.6242
    12.6939  12.6943  12.7002  12.7002  12.7252  12.7255  12.8465  12.8471
    12.9997  12.9997  13.1652  13.1654  13.5569  13.5572  13.5995  13.5999
    14.1188  14.1196  14.1923  14.1927  14.5038  14.5045  16.3428  16.3432
    16.5070  16.5092  16.6068  16.6075  17.2745  17.2753  17.6744  17.6758
    19.0377  19.0377

          k = 0.0000-0.5000 0.0159 ( 14106 PWs)   bands (ev):

   -67.0402 -67.0395 -67.0294 -67.0282 -66.8977 -66.8970 -62.4787 -62.4778
   -35.8139 -35.8131 -35.7986 -35.7972 -35.7638 -35.7632 -35.7556 -35.7545
   -35.7515 -35.7509 -35.7433 -35.7422 -35.6782 -35.6780 -35.6205 -35.6193
   -35.6082 -35.6070 -31.3145 -31.3135 -31.2987 -31.2986 -31.2982 -31.2975
     7.9281   7.9284   7.9423   7.9428   7.9998   7.9999   8.0856   8.0860
     8.1753   8.1757   8.2572   8.2575   8.3177   8.3177   8.4482   8.4486
     8.5341   8.5346   8.6946   8.6949   8.9402   8.9408   8.9654   8.9657
     9.0305   9.0309   9.0356   9.0359   9.2158   9.2159   9.2177   9.2181
     9.2905   9.2908   9.5154   9.5157   9.5179   9.5182   9.5622   9.5623
     9.6318   9.6322   9.7478   9.7480   9.8315   9.8315   9.8850   9.8852
    10.0714  10.0718  10.1926  10.1933  10.3297  10.3302  10.3461  10.3462
    10.4615  10.4616  10.6466  10.6470  10.9873  10.9880  11.0043  11.0047
    11.1178  11.1179  11.1857  11.1858  11.2507  11.2511  11.2911  11.2912
    11.3160  11.3164  11.3252  11.3255  11.3746  11.3749  11.4488  11.4489
    11.4917  11.4924  11.5110  11.5112  11.5731  11.5732  11.6762  11.6763
    11.6930  11.6933  11.9442  11.9445  11.9537  11.9541  12.1289  12.1290
    12.1435  12.1440  12.2813  12.2815  12.2821  12.2822  12.3649  12.3654
    12.4033  12.4033  12.4293  12.4295  12.5175  12.5176  12.6075  12.6075
    12.6940  12.6944  12.7201  12.7202  12.7251  12.7254  12.8465  12.8471
    12.9808  12.9809  13.1870  13.1871  13.5005  13.5007  13.6592  13.6596
    14.0599  14.0605  14.2502  14.2508  14.4920  14.4927  16.3431  16.3435
    16.5070  16.5092  16.6068  16.6075  17.2745  17.2753  17.6744  17.6758
    19.0493  19.0494

          k = 0.0000-0.5000 0.0319 ( 14114 PWs)   bands (ev):

   -67.0402 -67.0395 -67.0294 -67.0282 -66.8977 -66.8970 -62.4787 -62.4778
   -35.8139 -35.8131 -35.7986 -35.7972 -35.7638 -35.7632 -35.7556 -35.7545
   -35.7515 -35.7509 -35.7433 -35.7422 -35.6782 -35.6780 -35.6205 -35.6193
   -35.6082 -35.6070 -31.3145 -31.3135 -31.2987 -31.2986 -31.2982 -31.2975
     7.9251   7.9254   7.9486   7.9491   7.9933   7.9934   8.0942   8.0945
     8.1654   8.1658   8.2654   8.2657   8.3138   8.3139   8.4478   8.4483
     8.5363   8.5368   8.6914   8.6917   8.9403   8.9409   8.9652   8.9655
     9.0357   9.0361   9.0380   9.0384   9.2071   9.2072   9.2173   9.2177
     9.2910   9.2912   9.5140   9.5143   9.5175   9.5179   9.5667   9.5667
     9.6303   9.6307   9.7486   9.7488   9.8307   9.8308   9.9022   9.9022
    10.0493  10.0499  10.1929  10.1935  10.3290  10.3293  10.3458  10.3460
    10.4616  10.4617  10.6609  10.6614  10.9873  10.9880  11.0209  11.0212
    11.0871  11.0873  11.1893  11.1893  11.2523  11.2527  11.2804  11.2807
    11.3140  11.3143  11.3265  11.3266  11.3611  11.3614  11.4752  11.4753
    11.4916  11.4923  11.5047  11.5049  11.5709  11.5709  11.6932  11.6935
    11.7044  11.7045  11.9161  11.9164  11.9532  11.9536  12.1298  12.1299
    12.1529  12.1533  12.2802  12.2804  12.2840  12.2841  12.3532  12.3536
[...]
    11.3429  11.3445  11.4993  11.6023  11.6789  11.6805  11.6984  11.7202
    11.7471  11.7989  11.8030  11.8524  11.9290  12.0026  12.0220  12.0358
    12.1744  12.2107  12.2468  12.2782  12.3590  12.4135  12.5592  12.6671
    12.8739  13.0150  13.3639  13.5665  13.9206  14.1199  14.4524  14.6584
    15.4577  15.4683  15.4825  15.4911  15.5095  15.5675  15.7528  15.8628
    16.2738  16.3284  16.5177  16.5672  16.6586  16.6701  16.8681  16.8818
    16.9213  16.9886  16.9956  17.0186  17.0629  17.1416  17.2111  17.3028
    17.3127  17.3477  17.6043  17.6103  17.7177  17.7238  17.9034  18.0556
    18.0572  18.1385  18.1459  18.2310  18.4786  18.5094  18.5765  18.7343
    18.7753  18.8173

          k = 0.3333 0.3333-0.0478 ( 14082 PWs)   bands (ev):

   -67.0906 -67.0888 -62.4288 -62.4284 -62.4187 -62.4178 -62.3207 -62.3206
   -35.8644 -35.8638 -35.8126 -35.8125 -35.8103 -35.8103 -31.2577 -31.2574
   -31.2571 -31.2568 -31.2519 -31.2517 -31.2495 -31.2493 -31.2486 -31.2483
   -31.2386 -31.2379 -31.1503 -31.1503 -31.1484 -31.1483 -31.1482 -31.1480
     7.8833   7.9228   8.2500   8.3240   8.4586   8.4986   8.6330   8.6932
     8.8016   8.8031   8.8482   8.8820   8.9670   9.1011   9.1582   9.1673
     9.1779   9.1986   9.2042   9.2159   9.2502   9.2622   9.3061   9.3096
     9.3779   9.3785   9.4149   9.4291   9.4415   9.4909   9.5940   9.6249
     9.6263   9.6309   9.7342   9.7473   9.8285   9.8302   9.8436   9.8527
     9.9175   9.9999  10.0398  10.1031  10.1175  10.1559  10.2179  10.2869
    10.3024  10.3941  10.4260  10.4285  10.4607  10.5321  10.5323  10.5427
    10.5714  10.5836  10.7237  10.8094  10.8568  10.8848  10.9707  10.9794
    11.0812  11.0822  11.0842  11.0903  11.1344  11.1377  11.2430  11.2495
    11.3430  11.3445  11.5293  11.5750  11.6790  11.6803  11.6993  11.7186
    11.7624  11.7933  11.8043  11.8439  11.9361  12.0042  12.0178  12.0346
    12.1769  12.2092  12.2475  12.2755  12.3795  12.3891  12.5839  12.6396
    12.9048  12.9854  13.3978  13.5246  13.9941  14.0475  14.4788  14.6459
    15.4579  15.4675  15.4854  15.4884  15.5098  15.5675  15.7580  15.8574
    16.2747  16.3274  16.5227  16.5619  16.6595  16.6701  16.8680  16.8810
    16.9224  16.9885  16.9956  17.0208  17.0631  17.1382  17.2126  17.3034
    17.3120  17.3476  17.6043  17.6104  17.7180  17.7253  17.9206  18.0150
    18.0865  18.1011  18.1533  18.2073  18.4925  18.6342  18.6386  18.6569
    18.7680  18.8225

          k = 0.3333-0.5000 0.0000 ( 14154 PWs)   bands (ev):

   -67.0907 -67.0890 -62.4284 -62.4280 -62.4183 -62.4174 -62.3203 -62.3202
   -35.8642 -35.8636 -35.8153 -35.8131 -35.8123 -35.8101 -31.2613 -31.2607
   -31.2572 -31.2566 -31.2531 -31.2522 -31.2516 -31.2514 -31.2491 -31.2481
   -31.2383 -31.2376 -31.1521 -31.1520 -31.1501 -31.1500 -31.1480 -31.1479
     8.1667   8.1681   8.2065   8.2076   8.5208   8.5214   8.6127   8.6132
     8.8520   8.8523   8.9053   8.9054   8.9256   8.9259   9.0115   9.0117
     9.0570   9.0575   9.1385   9.1388   9.1771   9.1774   9.2832   9.2835
     9.3221   9.3224   9.4556   9.4557   9.4706   9.4709   9.6673   9.6674
     9.7227   9.7228   9.7966   9.7967   9.8867   9.8868   9.9755   9.9756
    10.0909  10.0910  10.2032  10.2039  10.3334  10.3334  10.4156  10.4160
    10.5601  10.5602  10.6290  10.6290  10.6475  10.6477  10.8170  10.8174
    10.8667  10.8667  10.9691  10.9692  11.0165  11.0166  11.1592  11.1596
    11.1897  11.1899  11.2614  11.2615  11.3160  11.3162  11.4757  11.4763
    11.6658  11.6660  11.6808  11.6813  11.7329  11.7330  11.8140  11.8141
    11.8736  11.8737  11.9543  11.9545  12.0463  12.0464  12.0899  12.0899
    12.1662  12.1662  12.6566  12.6568  12.7860  12.7862  12.9181  12.9186
    13.3022  13.3026  13.7750  13.7750  13.9500  13.9500  14.1527  14.1529
    14.3958  14.3965  14.6005  14.6017  14.8776  14.8782  15.3944  15.3947
    16.3775  16.3784  16.7902  16.7902  16.8209  16.8213  16.8618  16.8624
    16.8835  16.8839  16.8958  16.8960  17.1017  17.1019  17.4127  17.4133
    17.5696  17.5702  17.6617  17.6618  17.8053  17.8054  17.9235  17.9237
    18.0503  18.0507  18.2494  18.2497  18.3678  18.3684  18.9669  18.9669
    19.0711  19.0725

          k = 0.3333-0.5000 0.0159 ( 14140 PWs)   bands (ev):

   -67.0907 -67.0890 -62.4284 -62.4280 -62.4183 -62.4174 -62.3203 -62.3202
   -35.8642 -35.8636 -35.8153 -35.8131 -35.8123 -35.8101 -31.2613 -31.2607
   -31.2572 -31.2566 -31.2531 -31.2522 -31.2516 -31.2514 -31.2491 -31.2481
   -31.2383 -31.2376 -31.1521 -31.1519 -31.1501 -31.1500 -31.1480 -31.1479
     8.1670   8.1684   8.2061   8.2072   8.5235   8.5241   8.6084   8.6088
     8.8553   8.8556   8.9048   8.9048   8.9302   8.9306   9.0114   9.0117
     9.0439   9.0443   9.1467   9.1470   9.1768   9.1772   9.2851   9.2854
     9.3219   9.3221   9.4362   9.4363   9.4939   9.4940   9.6468   9.6469
     9.7411   9.7412   9.7970   9.7971   9.8873   9.8874   9.9661   9.9662
    10.0942  10.0943  10.2077  10.2083  10.3310  10.3310  10.4146  10.4150
    10.5574  10.5574  10.6296  10.6298  10.6509  10.6509  10.8178  10.8182
    10.8670  10.8670  10.9565  10.9567  11.0316  11.0316  11.1476  11.1480
    11.1966  11.1969  11.2620  11.2622  11.3154  11.3155  11.4757  11.4763
    11.6664  11.6667  11.6803  11.6807  11.7326  11.7327  11.8141  11.8142
    11.8735  11.8736  11.9540  11.9543  12.0443  12.0445  12.0959  12.0960
    12.1620  12.1620  12.6601  12.6603  12.7803  12.7805  12.9213  12.9218
    13.3013  13.3017  13.7786  13.7786  13.9420  13.9420  14.1625  14.1627
    14.3868  14.3874  14.6057  14.6070  14.8764  14.8770  15.3944  15.3948
    16.3775  16.3784  16.7848  16.7848  16.8285  16.8288  16.8611  16.8617
    16.8833  16.8838  16.8958  16.8960  17.0989  17.0991  17.4184  17.4190
    17.5599  17.5605  17.6686  17.6687  17.8041  17.8043  17.9249  17.9251
    18.0487  18.0491  18.2236  18.2241  18.4142  18.4147  18.8811  18.8813
    19.0715  19.0719

          k = 0.3333-0.5000 0.0319 ( 14128 PWs)   bands (ev):

   -67.0907 -67.0890 -62.4284 -62.4280 -62.4183 -62.4174 -62.3203 -62.3202
   -35.8642 -35.8636 -35.8153 -35.8131 -35.8123 -35.8101 -31.2613 -31.2607
   -31.2572 -31.2566 -31.2531 -31.2522 -31.2516 -31.2514 -31.2491 -31.2481
   -31.2383 -31.2376 -31.1521 -31.1519 -31.1501 -31.1500 -31.1480 -31.1479
     8.1675   8.1689   8.2052   8.2063   8.5296   8.5303   8.5991   8.5995
     8.8614   8.8616   8.9039   8.9040   8.9432   8.9436   9.0102   9.0104
     9.0190   9.0193   9.1589   9.1591   9.1766   9.1770   9.2888   9.2891
     9.3219   9.3221   9.4176   9.4178   9.5241   9.5242   9.6137   9.6139
     9.7657   9.7658   9.7987   9.7988   9.8894   9.8895   9.9465   9.9466
    10.0996  10.0997  10.2173  10.2178  10.3257  10.3257  10.4126  10.4130
    10.5526  10.5527  10.6304  10.6307  10.6574  10.6575  10.8198  10.8201
    10.8678  10.8679  10.9389  10.9392  11.0574  11.0574  11.1262  11.1265
    11.2050  11.2055  11.2634  11.2635  11.3139  11.3141  11.4757  11.4762
    11.6680  11.6683  11.6791  11.6795  11.7320  11.7321  11.8142  11.8143
    11.8735  11.8736  11.9536  11.9538  12.0412  12.0413  12.1097  12.1098
    12.1510  12.1511  12.6679  12.6680  12.7685  12.7687  12.9273  12.9278
    13.2996  13.2999  13.7865  13.7866  13.9262  13.9263  14.1826  14.1828
    14.3678  14.3685  14.6155  14.6168  14.8738  14.8744  15.3946  15.3949
    16.3775  16.3784  16.7775  16.7775  16.8414  16.8418  16.8586  16.8592
    16.8829  16.8833  16.8958  16.8960  17.0933  17.0935  17.4316  17.4322
    17.5410  17.5416  17.6805  17.6806  17.8017  17.8019  17.9279  17.9280
    18.0451  18.0453  18.1923  18.1929  18.5071  18.5075  18.7510  18.7513
    19.0717  19.0718

          k = 0.3333-0.5000-0.0478 ( 14140 PWs)   bands (ev):

   -67.0907 -67.0890 -62.4284 -62.4280 -62.4183 -62.4174 -62.3203 -62.3202
   -35.8642 -35.8636 -35.8153 -35.8131 -35.8123 -35.8101 -31.2613 -31.2607
   -31.2572 -31.2566 -31.2531 -31.2522 -31.2516 -31.2514 -31.2491 -31.2481
   -31.2383 -31.2376 -31.1521 -31.1519 -31.1501 -31.1500 -31.1480 -31.1479
     8.1677   8.1692   8.2048   8.2059   8.5333   8.5340   8.5939   8.5943
     8.8642   8.8644   8.9035   8.9036   8.9542   8.9548   8.9997   8.9999
     9.0130   9.0132   9.1635   9.1638   9.1770   9.1774   9.2904   9.2908
     9.3223   9.3225   9.4103   9.4105   9.5431   9.5431   9.5934   9.5936
     9.7752   9.7753   9.8007   9.8008   9.8916   9.8917   9.9353   9.9354
    10.1018  10.1020  10.2224  10.2229  10.3227  10.3227  10.4116  10.4119
    10.5506  10.5506  10.6306  10.6309  10.6606  10.6608  10.8209  10.8212
    10.8683  10.8685  10.9314  10.9318  11.0738  11.0738  11.1115  11.1118
    11.2081  11.2086  11.2642  11.2643  11.3132  11.3134  11.4757  11.4762
    11.6689  11.6693  11.6783  11.6787  11.7317  11.7318  11.8143  11.8144
    11.8735  11.8736  11.9534  11.9536  12.0400  12.0401  12.1202  12.1203
    12.1417  12.1418  12.6723  12.6725  12.7622  12.7624  12.9301  12.9305
    13.2987  13.2991  13.7910  13.7911  13.9182  13.9183  14.1933  14.1935
    14.3576  14.3583  14.6202  14.6215  14.8725  14.8731  15.3946  15.3950
    16.3775  16.3784  16.7746  16.7746  16.8499  16.8504  16.8546  16.8551
    16.8827  16.8830  16.8958  16.8960  17.0905  17.0907  17.4395  17.4401
    17.5310  17.5314  17.6859  17.6860  17.8004  17.8006  17.9295  17.9296
    18.0429  18.0431  18.1809  18.1816  18.6024  18.6028  18.6429  18.6433
    19.0717  19.0718

          k =-0.5000-0.5000 0.0000 ( 14124 PWs)   bands (ev):

   -67.0907 -67.0889 -62.4282 -62.4277 -62.4181 -62.4172 -62.3200 -62.3200
   -35.8640 -35.8634 -35.8150 -35.8150 -35.8128 -35.8128 -31.2609 -31.2609
   -31.2603 -31.2603 -31.2528 -31.2528 -31.2518 -31.2518 -31.2514 -31.2512
   -31.2381 -31.2374 -31.1517 -31.1517 -31.1516 -31.1516 -31.1499 -31.1498
     8.0274   8.0290   8.0761   8.0772   8.4447   8.4454   8.5713   8.5718
     8.7264   8.7269   8.9975   8.9981   9.0190   9.0198   9.0541   9.0541
     9.0842   9.0842   9.1479   9.1479   9.2123   9.2129   9.2638   9.2638
     9.2669   9.2669   9.5087   9.5087   9.5107   9.5107   9.6546   9.6546
     9.6578   9.6578   9.7045   9.7063   9.8213   9.8213   9.9164   9.9164
    10.2813  10.2813  10.3673  10.3673  10.3706  10.3711  10.4458  10.4463
    10.5077  10.5080  10.8466  10.8466  10.8556  10.8556  10.9908  10.9914
    11.0167  11.0169  11.1363  11.1383  11.2737  11.2737  11.6419  11.6419
    11.6975  11.6983  11.7482  11.7482  11.7544  11.7545  11.7783  11.7791
    11.7938  11.7938  11.8010  11.8015  11.8400  11.8402  11.8445  11.8445
    11.8845  11.8850  11.9112  11.9114  11.9741  11.9743  12.0221  12.0225
    12.0606  12.0607  13.1910  13.1917  13.2016  13.2023  13.2332  13.2345
    13.7137  13.7137  13.8570  13.8570  14.0370  14.0370  14.3425  14.3425
    14.3461  14.3461  14.5711  14.5711  15.6444  15.6444  15.6601  15.6601
    16.3605  16.3610  16.5716  16.5720  16.6869  16.6870  16.8679  16.8680
    16.8856  16.8856  17.1882  17.1882  17.2628  17.2628  17.4524  17.4526
    17.6529  17.6532  17.8314  17.8317  17.8337  17.8343  17.8551  17.8551
    17.9519  17.9533  18.0326  18.0326  18.1046  18.1046  18.1489  18.1491
    18.5352  18.5360

          k =-0.5000-0.5000 0.0159 ( 14144 PWs)   bands (ev):

   -67.0907 -67.0889 -62.4282 -62.4277 -62.4181 -62.4172 -62.3200 -62.3200
   -35.8640 -35.8634 -35.8150 -35.8150 -35.8128 -35.8128 -31.2609 -31.2609
   -31.2603 -31.2603 -31.2528 -31.2528 -31.2518 -31.2518 -31.2514 -31.2512
   -31.2381 -31.2374 -31.1517 -31.1517 -31.1516 -31.1516 -31.1499 -31.1498
     8.0276   8.0292   8.0758   8.0769   8.4484   8.4491   8.5610   8.5616
     8.7412   8.7417   8.9546   8.9553   9.0547   9.0547   9.0599   9.0606
     9.0823   9.0823   9.1529   9.1529   9.2058   9.2064   9.2352   9.2352
     9.2987   9.2987   9.4617   9.4617   9.5602   9.5602   9.6545   9.6545
     9.6582   9.6582   9.7048   9.7065   9.7881   9.7881   9.9523   9.9523
    10.2348  10.2348  10.3703  10.3709  10.4138  10.4138  10.4461  10.4466
    10.5076  10.5079  10.7734  10.7734  10.9250  10.9250  10.9907  10.9913
    11.0167  11.0169  11.1363  11.1383  11.2614  11.2614  11.6500  11.6500
    11.6975  11.6983  11.7482  11.7482  11.7544  11.7545  11.7783  11.7791
    11.7896  11.7896  11.8010  11.8015  11.8400  11.8402  11.8445  11.8445
    11.8845  11.8850  11.9112  11.9114  11.9741  11.9743  12.0220  12.0224
    12.0606  12.0608  13.1910  13.1917  13.2016  13.2023  13.2332  13.2345
    13.7190  13.7190  13.8448  13.8448  14.0483  14.0483  14.3150  14.3150
    14.3697  14.3697  14.5706  14.5706  15.6444  15.6444  15.6601  15.6601
    16.3605  16.3610  16.5714  16.5717  16.6877  16.6878  16.8668  16.8670
    16.8922  16.8922  17.1324  17.1324  17.3321  17.3321  17.4598  17.4600
    17.6367  17.6369  17.8314  17.8317  17.8337  17.8343  17.8685  17.8685
    17.9097  17.9097  17.9519  17.9534  18.1444  18.1446  18.2374  18.2374
    18.5368  18.5376

          k =-0.5000-0.5000 0.0319 ( 14180 PWs)   bands (ev):

   -67.0907 -67.0889 -62.4282 -62.4277 -62.4181 -62.4172 -62.3200 -62.3200
   -35.8641 -35.8634 -35.8150 -35.8150 -35.8128 -35.8128 -31.2609 -31.2609
   -31.2603 -31.2603 -31.2528 -31.2528 -31.2518 -31.2518 -31.2514 -31.2512
   -31.2381 -31.2374 -31.1517 -31.1517 -31.1516 -31.1516 -31.1499 -31.1498
     8.0280   8.0295   8.0752   8.0763   8.4574   8.4581   8.5413   8.5418
     8.7743   8.7747   8.9057   8.9065   9.0561   9.0561   9.0786   9.0786
     9.1040   9.1047   9.1662   9.1662   9.1882   9.1888   9.2084   9.2084
     9.3349   9.3349   9.4166   9.4166   9.6117   9.6117   9.6537   9.6537
     9.6602   9.6602   9.7053   9.7070   9.7328   9.7328  10.0153  10.0153
    10.1637  10.1637  10.3699  10.3704  10.4467  10.4472  10.4819  10.4819
    10.5073  10.5076  10.7003  10.7003  10.9853  10.9853  10.9907  10.9913
    11.0167  11.0169  11.1363  11.1383  11.2342  11.2342  11.6672  11.6672
    11.6975  11.6983  11.7482  11.7482  11.7544  11.7545  11.7783  11.7791
    11.7797  11.7797  11.8010  11.8015  11.8400  11.8402  11.8445  11.8445
    11.8845  11.8850  11.9111  11.9114  11.9743  11.9744  12.0219  12.0223
    12.0607  12.0608  13.1910  13.1917  13.2016  13.2023  13.2332  13.2345
    13.7325  13.7325  13.8196  13.8196  14.0700  14.0700  14.2890  14.2890
    14.3869  14.3869  14.5696  14.5696  15.6445  15.6445  15.6600  15.6600
    16.3605  16.3611  16.5708  16.5712  16.6893  16.6894  16.8648  16.8649
    16.9090  16.9090  17.0702  17.0702  17.4322  17.4322  17.4783  17.4785
    17.6036  17.6039  17.7749  17.7749  17.8314  17.8317  17.8337  17.8343
    17.8927  17.8927  17.9519  17.9534  18.1346  18.1348  18.4059  18.4059
    18.5401  18.5408

          k =-0.5000-0.5000-0.0478 ( 14176 PWs)   bands (ev):

   -67.0907 -67.0889 -62.4282 -62.4277 -62.4181 -62.4172 -62.3200 -62.3200
   -35.8641 -35.8634 -35.8150 -35.8150 -35.8128 -35.8128 -31.2609 -31.2609
   -31.2603 -31.2603 -31.2528 -31.2528 -31.2518 -31.2518 -31.2514 -31.2512
   -31.2381 -31.2374 -31.1517 -31.1517 -31.1516 -31.1516 -31.1499 -31.1498
     8.0281   8.0297   8.0749   8.0760   8.4632   8.4640   8.5309   8.5313
     8.7972   8.7976   8.8783   8.8792   9.0570   9.0570   9.0767   9.0767
     9.1290   9.1297   9.1722   9.1728   9.1845   9.1845   9.1858   9.1858
     9.3735   9.3735   9.3750   9.3750   9.6459   9.6459   9.6508   9.6508
     9.6771   9.6771   9.6829   9.6829   9.7055   9.7072  10.0698  10.0698
    10.1066  10.1066  10.3697  10.3702  10.4470  10.4475  10.5072  10.5075
    10.5209  10.5209  10.6602  10.6602  10.9907  10.9913  11.0115  11.0115
    11.0167  11.0169  11.1363  11.1383  11.2181  11.2181  11.6766  11.6766
    11.6975  11.6983  11.7482  11.7482  11.7544  11.7545  11.7737  11.7737
    11.7783  11.7791  11.8010  11.8015  11.8400  11.8402  11.8445  11.8445
    11.8845  11.8850  11.9111  11.9114  11.9743  11.9745  12.0218  12.0222
    12.0607  12.0608  13.1910  13.1917  13.2016  13.2023  13.2332  13.2345
    13.7423  13.7423  13.8047  13.8047  14.0808  14.0808  14.2778  14.2778
    14.3929  14.3929  14.5690  14.5690  15.6445  15.6445  15.6600  15.6600
    16.3605  16.3611  16.5706  16.5709  16.6902  16.6902  16.8637  16.8639
    16.9208  16.9208  17.0428  17.0428  17.4912  17.4913  17.4939  17.4939
    17.5845  17.5848  17.7019  17.7019  17.8314  17.8317  17.8337  17.8343
    17.9042  17.9042  17.9519  17.9533  18.1293  18.1295  18.5419  18.5426
    18.5763  18.5763

     the Fermi energy is    15.0357 ev

!    total energy              =  -14694.01689686 Ry
     Harris-Foulkes estimate   =  -14694.01689429 Ry
     estimated scf accuracy    <       0.00000097 Ry

     total all-electron energy =   -626921.612619 Ry

     The total energy is the sum of the following terms:

     one-electron contribution =    -729.72766713 Ry
     hartree contribution      =     661.40227431 Ry
     xc contribution           =    -737.66996147 Ry
     ewald contribution        =   -2186.64874840 Ry
     Hubbard energy            =       0.44200811 Ry
     one-center paw contrib.   =  -11701.81480228 Ry

     total magnetization       =    17.37 Bohr mag/cell
     absolute magnetization    =    37.34 Bohr mag/cell

     convergence has been achieved in  31 iterations

     Writing output data file mnau2.save/
 
     init_run     :     23.50s CPU     23.99s WALL (       1 calls)
     electrons    :   1576.02s CPU   1614.11s WALL (       1 calls)

     Called by init_run:
     wfcinit      :     21.88s CPU     22.31s WALL (       1 calls)
     potinit      :      0.80s CPU      0.82s WALL (       1 calls)
     hinit0       :      0.51s CPU      0.54s WALL (       1 calls)

     Called by electrons:
     c_bands      :   1385.20s CPU   1417.81s WALL (      31 calls)
     sum_band     :    169.09s CPU    173.84s WALL (      31 calls)
     v_of_rho     :      1.82s CPU      1.85s WALL (      32 calls)
     newd         :      4.64s CPU      4.66s WALL (      32 calls)
     PAW_pot      :     15.19s CPU     15.40s WALL (      32 calls)
     mix_rho      :      0.44s CPU      0.46s WALL (      31 calls)

     Called by c_bands:
     init_us_2    :      8.02s CPU      8.11s WALL (    5120 calls)
     cegterg      :   1333.78s CPU   1364.97s WALL (    2480 calls)

     Called by sum_band:
     sum_band:bec :      2.16s CPU      2.18s WALL (    2480 calls)
     addusdens    :      8.09s CPU      8.56s WALL (      31 calls)

     Called by *egterg:
     h_psi        :    574.04s CPU    588.40s WALL (    8041 calls)
     s_psi        :     83.30s CPU     83.40s WALL (    8121 calls)
     g_psi        :      2.19s CPU      2.20s WALL (    5481 calls)
     cdiaghg      :    474.25s CPU    489.60s WALL (    7961 calls)

     Called by h_psi:
     h_psi:pot    :    536.55s CPU    550.66s WALL (    8041 calls)
     h_psi:calbec :     96.11s CPU     98.73s WALL (    8041 calls)
     vloc_psi     :    359.50s CPU    370.87s WALL (    8041 calls)
     add_vuspsi   :     80.84s CPU     81.00s WALL (    8041 calls)
     vhpsi        :     35.76s CPU     36.00s WALL (    8041 calls)

     General routines
     calbec       :    168.41s CPU    172.57s WALL (   21122 calls)
     fft          :      1.41s CPU      1.44s WALL (     796 calls)
     ffts         :      0.10s CPU      0.11s WALL (     126 calls)
     fftw         :    427.49s CPU    441.21s WALL ( 2291002 calls)
     interpolate  :      0.15s CPU      0.16s WALL (      64 calls)
     davcio       :      0.00s CPU      0.01s WALL (      80 calls)
 
     Parallel routines
     fft_scatt_xy :     22.41s CPU     22.94s WALL ( 2291924 calls)
     fft_scatt_yz :    287.03s CPU    297.08s WALL ( 2291924 calls)

     Hubbard U routines
     new_ns       :      8.00s CPU      8.31s WALL (      31 calls)
     vhpsi        :     35.76s CPU     36.00s WALL (    8041 calls)
 
     PWSCF        : 26m49.01s CPU    28m 2.85s WALL

 
   This run was terminated on:  17:23:13  29Mar2019            

=------------------------------------------------------------------------------=
   JOB DONE.
=------------------------------------------------------------------------------=
