
     Program PWSCF v.6.3MaX starts on 29Mar2019 at 17:23:16 

     This program is part of the open-source Quantum ESPRESSO suite
     for quantum simulation of materials; please cite
         "P. Giannozzi et al., J. Phys.:Condens. Matter 21 395502 (2009);
         "P. Giannozzi et al., J. Phys.:Condens. Matter 29 465901 (2017);
          URL http://www.quantum-espresso.org", 
     in publications or presentations arising from this work. More details at
     http://www.quantum-espresso.org/quote

     Parallel version (MPI), running on    32 processors

     MPI processes distributed on     2 nodes
     R & G space division:  proc/nbgrp/npool/nimage =      32
     Waiting for input...
     Reading input from standard input

     Current dimensions of program PWSCF are:
     Max number of different atomic species (ntypx) = 10
     Max number of k-points (npk) =  40000
     Max angular momentum in pseudopotentials (lmaxx) =  3
     Message from routine read_upf::
     Pseudo file ./pseudo/Mn.pbe-spn-kjpaw_psl.0.3.1.UPF has been successfully fixed on the fly.
To avoid this message in the future you can permanently fix 
 your pseudo files following instructions given in: 
https://gitlab.com/QEF/q-e/blob/master/upftools/how_to_fix_upf.md
               file Mn.pbe-spn-kjpaw_psl.0.3.1.UPF: wavefunction(s)  3P 3D renormalized
     Message from routine read_upf::
     Pseudo file ./pseudo/Mn.pbe-spn-kjpaw_psl.0.3.1.UPF has been successfully fixed on the fly.
To avoid this message in the future you can permanently fix 
 your pseudo files following instructions given in: 
https://gitlab.com/QEF/q-e/blob/master/upftools/how_to_fix_upf.md
               file Mn.pbe-spn-kjpaw_psl.0.3.1.UPF: wavefunction(s)  3P 3D renormalized
     Message from routine read_upf::
     Pseudo file ./pseudo/Au.pbe-dn-kjpaw_psl.0.1.UPF has been successfully fixed on the fly.
To avoid this message in the future you can permanently fix 
 your pseudo files following instructions given in: 
https://gitlab.com/QEF/q-e/blob/master/upftools/how_to_fix_upf.md
               file Au.pbe-dn-kjpaw_psl.0.1.UPF: wavefunction(s)  6S 6P 5D renormalized

     Subspace diagonalization in iterative solution of the eigenvalue problem:
     one sub-group per band group will be used
     scalapack distributed-memory algorithm (size of sub-group:  4*  4 procs)

 
     Parallelization info
     --------------------
     sticks:   dense  smooth     PW     G-vecs:    dense   smooth      PW
     Min          41      18      5                11647     3506     571
     Max          42      19      6                11691     3549     614
     Sum        1313     593    177               373547   112863   18983
 


     bravais-lattice index     =            0
     lattice parameter (alat)  =       6.4153  a.u.
     unit-cell volume          =    2762.7331 (a.u.)^3
     number of atoms/cell      =           24
     number of atomic types    =            3
     number of electrons       =       296.00
     number of Kohn-Sham states=          178
     kinetic-energy cutoff     =      45.0000  Ry
     charge density cutoff     =     400.0000  Ry
     convergence threshold     =      1.0E-06
     mixing beta               =       0.1000
     number of iterations used =            8  plain     mixing
     Exchange-correlation      = SLA PW PBX PBC ( 1  4  3  4 0 0)

     celldm(1)=   6.415315  celldm(2)=   0.000000  celldm(3)=   0.000000
     celldm(4)=   0.000000  celldm(5)=   0.000000  celldm(6)=   0.000000

     crystal axes: (cart. coord. in units of alat)
               a(1) = (   1.000000   0.000000   0.000000 )  
               a(2) = (   0.000000   1.000000   0.000000 )  
               a(3) = (   0.000000   0.000000  10.463692 )  

     reciprocal axes: (cart. coord. in units 2 pi/alat)
               b(1) = (  1.000000  0.000000  0.000000 )  
               b(2) = (  0.000000  1.000000  0.000000 )  
               b(3) = (  0.000000  0.000000  0.095569 )  


     PseudoPot. # 1 for Mn read from file:
     ./pseudo/Mn.pbe-spn-kjpaw_psl.0.3.1.UPF
     MD5 check sum: 7eef95dd2aae66803482eea66ebeebf1
     Pseudo is Projector augmented-wave + core cor, Zval = 15.0
     Generated using "atomic" code by A. Dal Corso v.5.0.99 svn rev. 10869
     Shape of augmentation charge: PSQ
     Using radial grid of 1187 points,  6 beta functions with: 
                l(1) =   0
                l(2) =   0
                l(3) =   1
                l(4) =   1
                l(5) =   2
                l(6) =   2
     Q(r) pseudized with 0 coefficients 


     PseudoPot. # 2 for Mn read from file:
     ./pseudo/Mn.pbe-spn-kjpaw_psl.0.3.1.UPF
     MD5 check sum: 7eef95dd2aae66803482eea66ebeebf1
     Pseudo is Projector augmented-wave + core cor, Zval = 15.0
     Generated using "atomic" code by A. Dal Corso v.5.0.99 svn rev. 10869
     Shape of augmentation charge: PSQ
     Using radial grid of 1187 points,  6 beta functions with: 
                l(1) =   0
                l(2) =   0
                l(3) =   1
                l(4) =   1
                l(5) =   2
                l(6) =   2
     Q(r) pseudized with 0 coefficients 


     PseudoPot. # 3 for Au read from file:
     ./pseudo/Au.pbe-dn-kjpaw_psl.0.1.UPF
     MD5 check sum: 5c9b92683623e7ae2ab3f8e525febab6
     Pseudo is Projector augmented-wave + core cor, Zval = 11.0
     Generated using "atomic" code by A. Dal Corso v.5.0.2 svn rev. 9415
     Shape of augmentation charge: PSQ
     Using radial grid of 1279 points,  6 beta functions with: 
                l(1) =   0
                l(2) =   0
                l(3) =   1
                l(4) =   1
                l(5) =   2
                l(6) =   2
     Q(r) pseudized with 0 coefficients 


     atomic species   valence    mass     pseudopotential
        Mn1           15.00    54.93800     Mn( 1.00)
        Mn2           15.00    54.93800     Mn( 1.00)
        Au            11.00   196.96600     Au( 1.00)

     Starting magnetic structure 
     atomic species   magnetization
        Mn1          0.800
        Mn2         -0.800
        Au           0.000


     Full LDA+U calculation (l_max = 2) with parameters (eV):
     U(  1) =   3.1200   J(  1) =   0.7000   B(  1) =   0.0803
     U(  2) =   3.1200   J(  2) =   0.7000   B(  2) =   0.0803



      8 Sym. Ops. (no inversion) found



   Cartesian axes

     site n.     atom                  positions (alat units)
         1           Mn1 tau(   1) = (   0.0000000   0.0000000   0.0000000  )
         2           Mn1 tau(   2) = (   0.5000000   0.5000000   1.3079615  )
         3           Mn1 tau(   3) = (   0.0000000   0.0000000   2.6159231  )
         4           Mn1 tau(   4) = (   0.5000000   0.5000000   3.9238846  )
         5           Mn2 tau(   5) = (   0.0000000   0.0000000   5.2318461  )
         6           Mn1 tau(   6) = (   0.5000000   0.5000000   6.5398077  )
         7           Mn2 tau(   7) = (   0.0000000   0.0000000   7.8477692  )
         8           Mn2 tau(   8) = (   0.5000000   0.5000000   9.1557307  )
         9           Au  tau(   9) = (   0.5000000   0.5000000   0.4185477  )
        10           Au  tau(  10) = (   0.0000000   0.0000000   0.8894138  )
        11           Au  tau(  11) = (   0.0000000   0.0000000   1.7265092  )
        12           Au  tau(  12) = (   0.5000000   0.5000000   2.1973754  )
        13           Au  tau(  13) = (   0.5000000   0.5000000   3.0344708  )
        14           Au  tau(  14) = (   0.0000000   0.0000000   3.5053369  )
        15           Au  tau(  15) = (   0.0000000   0.0000000   4.3424323  )
        16           Au  tau(  16) = (   0.5000000   0.5000000   4.8132984  )
        17           Au  tau(  17) = (   0.5000000   0.5000000   5.6503938  )
        18           Au  tau(  18) = (   0.0000000   0.0000000   6.1212600  )
        19           Au  tau(  19) = (   0.0000000   0.0000000   6.9583554  )
        20           Au  tau(  20) = (   0.5000000   0.5000000   7.4292215  )
        21           Au  tau(  21) = (   0.5000000   0.5000000   8.2663169  )
        22           Au  tau(  22) = (   0.0000000   0.0000000   8.7371830  )
        23           Au  tau(  23) = (   0.0000000   0.0000000   9.5742784  )
        24           Au  tau(  24) = (   0.5000000   0.5000000  10.0451446  )

     number of k points=    40 (tetrahedron method)
                       cart. coord. in units 2pi/alat
        k(    1) = (   0.0000000   0.0000000   0.0000000), wk =   0.0046296
        k(    2) = (   0.0000000   0.0000000   0.0159281), wk =   0.0092593
        k(    3) = (   0.0000000   0.0000000   0.0318562), wk =   0.0092593
        k(    4) = (   0.0000000   0.0000000  -0.0477843), wk =   0.0046296
        k(    5) = (   0.0000000   0.1666667   0.0000000), wk =   0.0185185
        k(    6) = (   0.0000000   0.1666667   0.0159281), wk =   0.0370370
        k(    7) = (   0.0000000   0.1666667   0.0318562), wk =   0.0370370
        k(    8) = (   0.0000000   0.1666667  -0.0477843), wk =   0.0185185
        k(    9) = (   0.0000000   0.3333333   0.0000000), wk =   0.0185185
        k(   10) = (   0.0000000   0.3333333   0.0159281), wk =   0.0370370
        k(   11) = (   0.0000000   0.3333333   0.0318562), wk =   0.0370370
        k(   12) = (   0.0000000   0.3333333  -0.0477843), wk =   0.0185185
        k(   13) = (   0.0000000  -0.5000000   0.0000000), wk =   0.0092593
        k(   14) = (   0.0000000  -0.5000000   0.0159281), wk =   0.0185185
        k(   15) = (   0.0000000  -0.5000000   0.0318562), wk =   0.0185185
        k(   16) = (   0.0000000  -0.5000000  -0.0477843), wk =   0.0092593
        k(   17) = (   0.1666667   0.1666667   0.0000000), wk =   0.0185185
        k(   18) = (   0.1666667   0.1666667   0.0159281), wk =   0.0370370
        k(   19) = (   0.1666667   0.1666667   0.0318562), wk =   0.0370370
        k(   20) = (   0.1666667   0.1666667  -0.0477843), wk =   0.0185185
        k(   21) = (   0.1666667   0.3333333   0.0000000), wk =   0.0370370
        k(   22) = (   0.1666667   0.3333333   0.0159281), wk =   0.0740741
        k(   23) = (   0.1666667   0.3333333   0.0318562), wk =   0.0740741
        k(   24) = (   0.1666667   0.3333333  -0.0477843), wk =   0.0370370
        k(   25) = (   0.1666667  -0.5000000   0.0000000), wk =   0.0185185
        k(   26) = (   0.1666667  -0.5000000   0.0159281), wk =   0.0370370
        k(   27) = (   0.1666667  -0.5000000   0.0318562), wk =   0.0370370
        k(   28) = (   0.1666667  -0.5000000  -0.0477843), wk =   0.0185185
        k(   29) = (   0.3333333   0.3333333   0.0000000), wk =   0.0185185
        k(   30) = (   0.3333333   0.3333333   0.0159281), wk =   0.0370370
        k(   31) = (   0.3333333   0.3333333   0.0318562), wk =   0.0370370
        k(   32) = (   0.3333333   0.3333333  -0.0477843), wk =   0.0185185
        k(   33) = (   0.3333333  -0.5000000   0.0000000), wk =   0.0185185
        k(   34) = (   0.3333333  -0.5000000   0.0159281), wk =   0.0370370
        k(   35) = (   0.3333333  -0.5000000   0.0318562), wk =   0.0370370
        k(   36) = (   0.3333333  -0.5000000  -0.0477843), wk =   0.0185185
        k(   37) = (  -0.5000000  -0.5000000   0.0000000), wk =   0.0046296
        k(   38) = (  -0.5000000  -0.5000000   0.0159281), wk =   0.0092593
        k(   39) = (  -0.5000000  -0.5000000   0.0318562), wk =   0.0092593
        k(   40) = (  -0.5000000  -0.5000000  -0.0477843), wk =   0.0046296

     Dense  grid:   373547 G-vectors     FFT dimensions: (  45,  45, 432)

     Smooth grid:   112863 G-vectors     FFT dimensions: (  27,  27, 288)

     Estimated max dynamical RAM per process >     174.65 MB

     Estimated total dynamical RAM >       5.46 GB
     Generating pointlists ...
     new r_m :   0.3389 (alat units)  2.1745 (a.u.) for type    1
     new r_m :   0.3389 (alat units)  2.1745 (a.u.) for type    2
     new r_m :   0.3389 (alat units)  2.1745 (a.u.) for type    3

     Check: negative/imaginary core charge=   -0.000006    0.000000

     Initial potential from superposition of free atoms

     starting charge  295.99426, renormalised to  296.00000
     Number of +U iterations with fixed ns =  0
     Starting occupations:
 --- enter write_ns ---
 LDA+U parameters:
U(  1) =   3.1200   J(  1) =   0.7000   B(  1) =   0.0803
U(  2) =   3.1200   J(  2) =   0.7000   B(  2) =   0.0803
atom    1   Tr[ns(na)] (up, down, total) =   5.00000  0.00000  5.00000
   spin  1
    eigenvalues: 
  1.000  1.000  1.000  1.000  1.000
    eigenvectors:
  1.000  0.000  0.000  0.000  0.000
  0.000  1.000  0.000  0.000  0.000
  0.000  0.000  1.000  0.000  0.000
  0.000  0.000  0.000  1.000  0.000
  0.000  0.000  0.000  0.000  1.000
    occupations:
  1.000  0.000  0.000  0.000  0.000
  0.000  1.000  0.000  0.000  0.000
  0.000  0.000  1.000  0.000  0.000
  0.000  0.000  0.000  1.000  0.000
  0.000  0.000  0.000  0.000  1.000
   spin  2
    eigenvalues: 
  0.000  0.000  0.000  0.000  0.000
    eigenvectors:
  1.000  0.000  0.000  0.000  0.000
  0.000  1.000  0.000  0.000  0.000
  0.000  0.000  1.000  0.000  0.000
  0.000  0.000  0.000  1.000  0.000
  0.000  0.000  0.000  0.000  1.000
    occupations:
  0.000  0.000  0.000  0.000  0.000
  0.000  0.000  0.000  0.000  0.000
  0.000  0.000  0.000  0.000  0.000
  0.000  0.000  0.000  0.000  0.000
  0.000  0.000  0.000  0.000  0.000
atomic mag. moment =     5.000000
atom    2   Tr[ns(na)] (up, down, total) =   5.00000  0.00000  5.00000
   spin  1
    eigenvalues: 
  1.000  1.000  1.000  1.000  1.000
    eigenvectors:
  1.000  0.000  0.000  0.000  0.000
  0.000  1.000  0.000  0.000  0.000
  0.000  0.000  1.000  0.000  0.000
  0.000  0.000  0.000  1.000  0.000
  0.000  0.000  0.000  0.000  1.000
    occupations:
  1.000  0.000  0.000  0.000  0.000
  0.000  1.000  0.000  0.000  0.000
  0.000  0.000  1.000  0.000  0.000
  0.000  0.000  0.000  1.000  0.000
  0.000  0.000  0.000  0.000  1.000
   spin  2
    eigenvalues: 
  0.000  0.000  0.000  0.000  0.000
    eigenvectors:
  1.000  0.000  0.000  0.000  0.000
  0.000  1.000  0.000  0.000  0.000
  0.000  0.000  1.000  0.000  0.000
  0.000  0.000  0.000  1.000  0.000
  0.000  0.000  0.000  0.000  1.000
    occupations:
  0.000  0.000  0.000  0.000  0.000
  0.000  0.000  0.000  0.000  0.000
  0.000  0.000  0.000  0.000  0.000
  0.000  0.000  0.000  0.000  0.000
  0.000  0.000  0.000  0.000  0.000
atomic mag. moment =     5.000000
atom    3   Tr[ns(na)] (up, down, total) =   5.00000  0.00000  5.00000
   spin  1
    eigenvalues: 
  1.000  1.000  1.000  1.000  1.000
    eigenvectors:
  1.000  0.000  0.000  0.000  0.000
  0.000  1.000  0.000  0.000  0.000
  0.000  0.000  1.000  0.000  0.000
  0.000  0.000  0.000  1.000  0.000
  0.000  0.000  0.000  0.000  1.000
    occupations:
  1.000  0.000  0.000  0.000  0.000
  0.000  1.000  0.000  0.000  0.000
  0.000  0.000  1.000  0.000  0.000
  0.000  0.000  0.000  1.000  0.000
  0.000  0.000  0.000  0.000  1.000
   spin  2
    eigenvalues: 
  0.000  0.000  0.000  0.000  0.000
    eigenvectors:
  1.000  0.000  0.000  0.000  0.000
  0.000  1.000  0.000  0.000  0.000
  0.000  0.000  1.000  0.000  0.000
  0.000  0.000  0.000  1.000  0.000
  0.000  0.000  0.000  0.000  1.000
    occupations:
  0.000  0.000  0.000  0.000  0.000
  0.000  0.000  0.000  0.000  0.000
  0.000  0.000  0.000  0.000  0.000
  0.000  0.000  0.000  0.000  0.000
  0.000  0.000  0.000  0.000  0.000
atomic mag. moment =     5.000000
atom    4   Tr[ns(na)] (up, down, total) =   5.00000  0.00000  5.00000
   spin  1
    eigenvalues: 
  1.000  1.000  1.000  1.000  1.000
    eigenvectors:
  1.000  0.000  0.000  0.000  0.000
  0.000  1.000  0.000  0.000  0.000
  0.000  0.000  1.000  0.000  0.000
  0.000  0.000  0.000  1.000  0.000
  0.000  0.000  0.000  0.000  1.000
    occupations:
  1.000  0.000  0.000  0.000  0.000
  0.000  1.000  0.000  0.000  0.000
  0.000  0.000  1.000  0.000  0.000
  0.000  0.000  0.000  1.000  0.000
  0.000  0.000  0.000  0.000  1.000
   spin  2
    eigenvalues: 
  0.000  0.000  0.000  0.000  0.000
    eigenvectors:
  1.000  0.000  0.000  0.000  0.000
  0.000  1.000  0.000  0.000  0.000
  0.000  0.000  1.000  0.000  0.000
  0.000  0.000  0.000  1.000  0.000
  0.000  0.000  0.000  0.000  1.000
    occupations:
  0.000  0.000  0.000  0.000  0.000
  0.000  0.000  0.000  0.000  0.000
  0.000  0.000  0.000  0.000  0.000
  0.000  0.000  0.000  0.000  0.000
  0.000  0.000  0.000  0.000  0.000
atomic mag. moment =     5.000000
atom    5   Tr[ns(na)] (up, down, total) =   0.00000  5.00000  5.00000
   spin  1
    eigenvalues: 
  0.000  0.000  0.000  0.000  0.000
    eigenvectors:
  1.000  0.000  0.000  0.000  0.000
  0.000  1.000  0.000  0.000  0.000
  0.000  0.000  1.000  0.000  0.000
  0.000  0.000  0.000  1.000  0.000
  0.000  0.000  0.000  0.000  1.000
    occupations:
  0.000  0.000  0.000  0.000  0.000
  0.000  0.000  0.000  0.000  0.000
  0.000  0.000  0.000  0.000  0.000
  0.000  0.000  0.000  0.000  0.000
  0.000  0.000  0.000  0.000  0.000
   spin  2
    eigenvalues: 
  1.000  1.000  1.000  1.000  1.000
    eigenvectors:
  1.000  0.000  0.000  0.000  0.000
  0.000  1.000  0.000  0.000  0.000
  0.000  0.000  1.000  0.000  0.000
  0.000  0.000  0.000  1.000  0.000
  0.000  0.000  0.000  0.000  1.000
    occupations:
  1.000  0.000  0.000  0.000  0.000
  0.000  1.000  0.000  0.000  0.000
  0.000  0.000  1.000  0.000  0.000
  0.000  0.000  0.000  1.000  0.000
  0.000  0.000  0.000  0.000  1.000
atomic mag. moment =    -5.000000
atom    6   Tr[ns(na)] (up, down, total) =   5.00000  0.00000  5.00000
   spin  1
    eigenvalues: 
  1.000  1.000  1.000  1.000  1.000
    eigenvectors:
  1.000  0.000  0.000  0.000  0.000
  0.000  1.000  0.000  0.000  0.000
  0.000  0.000  1.000  0.000  0.000
  0.000  0.000  0.000  1.000  0.000
  0.000  0.000  0.000  0.000  1.000
    occupations:
  1.000  0.000  0.000  0.000  0.000
  0.000  1.000  0.000  0.000  0.000
  0.000  0.000  1.000  0.000  0.000
  0.000  0.000  0.000  1.000  0.000
  0.000  0.000  0.000  0.000  1.000
   spin  2
    eigenvalues: 
  0.000  0.000  0.000  0.000  0.000
    eigenvectors:
  1.000  0.000  0.000  0.000  0.000
  0.000  1.000  0.000  0.000  0.000
  0.000  0.000  1.000  0.000  0.000
  0.000  0.000  0.000  1.000  0.000
  0.000  0.000  0.000  0.000  1.000
    occupations:
  0.000  0.000  0.000  0.000  0.000
  0.000  0.000  0.000  0.000  0.000
  0.000  0.000  0.000  0.000  0.000
  0.000  0.000  0.000  0.000  0.000
  0.000  0.000  0.000  0.000  0.000
atomic mag. moment =     5.000000
atom    7   Tr[ns(na)] (up, down, total) =   0.00000  5.00000  5.00000
   spin  1
    eigenvalues: 
  0.000  0.000  0.000  0.000  0.000
    eigenvectors:
  1.000  0.000  0.000  0.000  0.000
  0.000  1.000  0.000  0.000  0.000
  0.000  0.000  1.000  0.000  0.000
  0.000  0.000  0.000  1.000  0.000
  0.000  0.000  0.000  0.000  1.000
    occupations:
  0.000  0.000  0.000  0.000  0.000
  0.000  0.000  0.000  0.000  0.000
  0.000  0.000  0.000  0.000  0.000
  0.000  0.000  0.000  0.000  0.000
  0.000  0.000  0.000  0.000  0.000
   spin  2
    eigenvalues: 
  1.000  1.000  1.000  1.000  1.000
    eigenvectors:
  1.000  0.000  0.000  0.000  0.000
  0.000  1.000  0.000  0.000  0.000
  0.000  0.000  1.000  0.000  0.000
  0.000  0.000  0.000  1.000  0.000
  0.000  0.000  0.000  0.000  1.000
    occupations:
  1.000  0.000  0.000  0.000  0.000
  0.000  1.000  0.000  0.000  0.000
  0.000  0.000  1.000  0.000  0.000
  0.000  0.000  0.000  1.000  0.000
  0.000  0.000  0.000  0.000  1.000
atomic mag. moment =    -5.000000
atom    8   Tr[ns(na)] (up, down, total) =   0.00000  5.00000  5.00000
   spin  1
    eigenvalues: 
  0.000  0.000  0.000  0.000  0.000
    eigenvectors:
  1.000  0.000  0.000  0.000  0.000
  0.000  1.000  0.000  0.000  0.000
  0.000  0.000  1.000  0.000  0.000
  0.000  0.000  0.000  1.000  0.000
  0.000  0.000  0.000  0.000  1.000
    occupations:
  0.000  0.000  0.000  0.000  0.000
  0.000  0.000  0.000  0.000  0.000
  0.000  0.000  0.000  0.000  0.000
  0.000  0.000  0.000  0.000  0.000
  0.000  0.000  0.000  0.000  0.000
   spin  2
    eigenvalues: 
  1.000  1.000  1.000  1.000  1.000
    eigenvectors:
  1.000  0.000  0.000  0.000  0.000
  0.000  1.000  0.000  0.000  0.000
  0.000  0.000  1.000  0.000  0.000
  0.000  0.000  0.000  1.000  0.000
  0.000  0.000  0.000  0.000  1.000
    occupations:
  1.000  0.000  0.000  0.000  0.000
  0.000  1.000  0.000  0.000  0.000
  0.000  0.000  1.000  0.000  0.000
  0.000  0.000  0.000  1.000  0.000
  0.000  0.000  0.000  0.000  1.000
atomic mag. moment =    -5.000000
N of occupied +U levels =   40.000000
 --- exit write_ns ---
 Atomic wfc used for LDA+U Projector are NOT orthogonalized
     Starting wfcs are  224 randomized atomic wfcs
     Checking if some PAW data can be deallocated... 

     total cpu time spent up to now is       28.4 secs

     Self-consistent Calculation

     iteration #  1     ecut=    45.00 Ry     beta= 0.10
     Davidson diagonalization with overlap
     ethr =  1.00E-02,  avg # of iterations =  4.1
 --- enter write_ns ---
 LDA+U parameters:
U(  1) =   3.1200   J(  1) =   0.7000   B(  1) =   0.0803
U(  2) =   3.1200   J(  2) =   0.7000   B(  2) =   0.0803
atom    1   Tr[ns(na)] (up, down, total) =   5.01749  0.39457  5.41206
   spin  1
    eigenvalues: 
  1.003  1.003  1.003  1.004  1.004
    eigenvectors:
  0.000  0.000  0.000  1.000  0.000
  0.000  0.339  0.661  0.000  0.000
  0.000  0.661  0.339  0.000  0.000
  0.000  0.000  0.000  0.000  1.000
  1.000  0.000  0.000  0.000  0.000
    occupations:
  1.004 -0.000 -0.000  0.000  0.000
 -0.000  1.003 -0.000  0.000  0.000
 -0.000 -0.000  1.003  0.000  0.000
  0.000  0.000  0.000  1.004 -0.000
  0.000  0.000  0.000 -0.000  1.003
   spin  2
    eigenvalues: 
  0.051  0.069  0.080  0.080  0.115
    eigenvectors:
  0.000  1.000  0.000  0.000  0.000
  0.000  0.000  0.362  0.638  0.000
  0.000  0.000  0.638  0.362  0.000
  1.000  0.000  0.000  0.000  0.000
  0.000  0.000  0.000  0.000  1.000
    occupations:
  0.069 -0.000 -0.000  0.000  0.000
 -0.000  0.080 -0.000  0.000  0.000
 -0.000 -0.000  0.080  0.000  0.000
  0.000  0.000  0.000  0.051 -0.000
  0.000  0.000  0.000 -0.000  0.115
atomic mag. moment =     4.622919
atom    2   Tr[ns(na)] (up, down, total) =   5.01764  0.38881  5.40645
   spin  1
    eigenvalues: 
  1.003  1.003  1.003  1.004  1.004
    eigenvectors:
  0.000  0.000  0.000  1.000  0.000
  0.000  0.327  0.673  0.000  0.000
  0.000  0.673  0.327  0.000  0.000
  0.000  0.000  0.000  0.000  1.000
  1.000  0.000  0.000  0.000  0.000
    occupations:
  1.004 -0.000 -0.000  0.000  0.000
 -0.000  1.003 -0.000  0.000  0.000
 -0.000 -0.000  1.003  0.000  0.000
  0.000  0.000  0.000  1.004 -0.000
  0.000  0.000  0.000 -0.000  1.003
   spin  2
    eigenvalues: 
  0.051  0.070  0.080  0.080  0.109
    eigenvectors:
  0.000  1.000  0.000  0.000  0.000
  0.000  0.000  0.371  0.629  0.000
  0.000  0.000  0.629  0.371  0.000
  1.000  0.000  0.000  0.000  0.000
  0.000  0.000  0.000  0.000  1.000
    occupations:
  0.070 -0.000 -0.000  0.000  0.000
 -0.000  0.080 -0.000  0.000  0.000
 -0.000 -0.000  0.080  0.000  0.000
  0.000  0.000  0.000  0.051 -0.000
  0.000  0.000  0.000 -0.000  0.109
atomic mag. moment =     4.628832
atom    3   Tr[ns(na)] (up, down, total) =   5.01764  0.39016  5.40779
   spin  1
    eigenvalues: 
  1.003  1.003  1.003  1.004  1.004
    eigenvectors:
  0.000  0.000  0.000  1.000  0.000
  0.000  0.306  0.694  0.000  0.000
  0.000  0.694  0.306  0.000  0.000
  0.000  0.000  0.000  0.000  1.000
  1.000  0.000  0.000  0.000  0.000
    occupations:
  1.004 -0.000 -0.000  0.000  0.000
 -0.000  1.003 -0.000  0.000  0.000
 -0.000 -0.000  1.003  0.000  0.000
  0.000  0.000  0.000  1.004 -0.000
  0.000  0.000  0.000 -0.000  1.003
   spin  2
    eigenvalues: 
  0.051  0.069  0.080  0.080  0.110
    eigenvectors:
  0.000  1.000  0.000  0.000  0.000
  0.000  0.000  0.333  0.667  0.000
  0.000  0.000  0.667  0.333  0.000
  1.000  0.000  0.000  0.000  0.000
  0.000  0.000  0.000  0.000  1.000
    occupations:
  0.069 -0.000 -0.000  0.000  0.000
 -0.000  0.080 -0.000  0.000  0.000
 -0.000 -0.000  0.080  0.000  0.000
  0.000  0.000  0.000  0.051 -0.000
  0.000  0.000  0.000 -0.000  0.110
atomic mag. moment =     4.627477
atom    4   Tr[ns(na)] (up, down, total) =   5.01737  0.39512  5.41249
   spin  1
    eigenvalues: 
  1.003  1.003  1.003  1.004  1.004
    eigenvectors:
  0.000  0.000  0.000  1.000  0.000
  0.000  0.312  0.688  0.000  0.000
  0.000  0.688  0.312  0.000  0.000
  0.000  0.000  0.000  0.000  1.000
  1.000  0.000  0.000  0.000  0.000
    occupations:
  1.004 -0.000 -0.000  0.000  0.000
 -0.000  1.003 -0.000  0.000  0.000
 -0.000 -0.000  1.003  0.000  0.000
  0.000  0.000  0.000  1.004 -0.000
  0.000  0.000  0.000 -0.000  1.003
   spin  2
    eigenvalues: 
  0.051  0.068  0.079  0.079  0.117
    eigenvectors:
  0.000  1.000  0.000  0.000  0.000
  0.000  0.000  0.402  0.598  0.000
  0.000  0.000  0.598  0.402  0.000
  1.000  0.000  0.000  0.000  0.000
  0.000  0.000  0.000  0.000  1.000
    occupations:
  0.068 -0.000 -0.000  0.000  0.000
 -0.000  0.079 -0.000  0.000  0.000
 -0.000 -0.000  0.079  0.000  0.000
  0.000  0.000  0.000  0.051 -0.000
  0.000  0.000  0.000 -0.000  0.117
atomic mag. moment =     4.622257
atom    5   Tr[ns(na)] (up, down, total) =   0.39924  5.01752  5.41676
   spin  1
    eigenvalues: 
  0.052  0.069  0.078  0.078  0.121
    eigenvectors:
  0.000  1.000  0.000  0.000  0.000
  0.000  0.000  0.266  0.734  0.000
  0.000  0.000  0.734  0.266  0.000
  1.000  0.000  0.000  0.000  0.000
  0.000  0.000  0.000  0.000  1.000
    occupations:
  0.069 -0.000 -0.000  0.000  0.000
 -0.000  0.078 -0.000  0.000  0.000
 -0.000 -0.000  0.078  0.000  0.000
  0.000  0.000  0.000  0.052 -0.000
  0.000  0.000  0.000 -0.000  0.121
   spin  2
    eigenvalues: 
  1.003  1.003  1.003  1.004  1.004
    eigenvectors:
  0.000  0.000  0.000  1.000  0.000
  0.000  0.343  0.657  0.000  0.000
  0.000  0.657  0.343  0.000  0.000
  0.000  0.000  0.000  0.000  1.000
  1.000  0.000  0.000  0.000  0.000
    occupations:
  1.004 -0.000 -0.000  0.000  0.000
 -0.000  1.003 -0.000  0.000  0.000
 -0.000 -0.000  1.003  0.000  0.000
  0.000  0.000  0.000  1.004 -0.000
  0.000  0.000  0.000 -0.000  1.003
atomic mag. moment =    -4.618289
atom    6   Tr[ns(na)] (up, down, total) =   5.01753  0.39744  5.41497
   spin  1
    eigenvalues: 
  1.003  1.003  1.003  1.004  1.004
    eigenvectors:
  0.000  0.000  0.000  1.000  0.000
  0.000  0.245  0.755  0.000  0.000
  0.000  0.755  0.245  0.000  0.000
  0.000  0.000  0.000  0.000  1.000
  1.000  0.000  0.000  0.000  0.000
    occupations:
  1.004 -0.000 -0.000  0.000  0.000
 -0.000  1.003 -0.000  0.000  0.000
 -0.000 -0.000  1.003  0.000  0.000
  0.000  0.000  0.000  1.004 -0.000
  0.000  0.000  0.000 -0.000  1.003
   spin  2
    eigenvalues: 
  0.052  0.069  0.078  0.078  0.121
    eigenvectors:
  0.000  1.000  0.000  0.000  0.000
  0.000  0.000  0.304  0.696  0.000
  0.000  0.000  0.696  0.304  0.000
  1.000  0.000  0.000  0.000  0.000
  0.000  0.000  0.000  0.000  1.000
    occupations:
  0.069 -0.000 -0.000  0.000  0.000
 -0.000  0.078 -0.000  0.000  0.000
 -0.000 -0.000  0.078  0.000  0.000
  0.000  0.000  0.000  0.052 -0.000
  0.000  0.000  0.000 -0.000  0.121
atomic mag. moment =     4.620094
atom    7   Tr[ns(na)] (up, down, total) =   0.39707  5.01760  5.41467
   spin  1
    eigenvalues: 
  0.052  0.070  0.079  0.079  0.117
    eigenvectors:
  0.000  1.000  0.000  0.000  0.000
  0.000  0.000  0.415  0.585  0.000
  0.000  0.000  0.585  0.415  0.000
  1.000  0.000  0.000  0.000  0.000
  0.000  0.000  0.000  0.000  1.000
    occupations:
  0.070 -0.000 -0.000  0.000  0.000
 -0.000  0.079 -0.000  0.000  0.000
 -0.000 -0.000  0.079  0.000  0.000
  0.000  0.000  0.000  0.052 -0.000
  0.000  0.000  0.000 -0.000  0.117
   spin  2
    eigenvalues: 
  1.003  1.003  1.003  1.004  1.004
    eigenvectors:
  0.000  0.000  0.000  1.000  0.000
  0.000  0.358  0.642  0.000  0.000
  0.000  0.642  0.358  0.000  0.000
  0.000  0.000  0.000  0.000  1.000
  1.000  0.000  0.000  0.000  0.000
    occupations:
  1.004 -0.000 -0.000  0.000  0.000
 -0.000  1.003 -0.000  0.000  0.000
 -0.000 -0.000  1.003  0.000  0.000
  0.000  0.000  0.000  1.004 -0.000
  0.000  0.000  0.000 -0.000  1.003
atomic mag. moment =    -4.620524
atom    8   Tr[ns(na)] (up, down, total) =   0.39824  5.01755  5.41580
   spin  1
    eigenvalues: 
  0.052  0.070  0.081  0.081  0.115
    eigenvectors:
  0.000  1.000  0.000  0.000  0.000
  0.000  0.000  0.301  0.699  0.000
  0.000  0.000  0.699  0.301  0.000
  1.000  0.000  0.000  0.000  0.000
  0.000  0.000  0.000  0.000  1.000
    occupations:
  0.070 -0.000 -0.000  0.000  0.000
 -0.000  0.081 -0.000  0.000  0.000
 -0.000 -0.000  0.081  0.000  0.000
  0.000  0.000  0.000  0.052 -0.000
  0.000  0.000  0.000 -0.000  0.115
   spin  2
    eigenvalues: 
  1.003  1.003  1.003  1.004  1.004
    eigenvectors:
  0.000  0.000  0.000  1.000  0.000
  0.000  0.335  0.665  0.000  0.000
  0.000  0.665  0.335  0.000  0.000
  0.000  0.000  0.000  0.000  1.000
  1.000  0.000  0.000  0.000  0.000
    occupations:
  1.004 -0.000 -0.000  0.000  0.000
 -0.000  1.003 -0.000  0.000  0.000
 -0.000 -0.000  1.003  0.000  0.000
  0.000  0.000  0.000  1.004 -0.000
  0.000  0.000  0.000 -0.000  1.003
atomic mag. moment =    -4.619309
N of occupied +U levels =   43.300987
 --- exit write_ns ---

     total cpu time spent up to now is      100.9 secs

     total energy              =  -14687.29973442 Ry
     Harris-Foulkes estimate   =  -14685.83990928 Ry
     estimated scf accuracy    <      11.50836342 Ry

     total magnetization       =    10.15 Bohr mag/cell
     absolute magnetization    =    41.73 Bohr mag/cell

     iteration #  2     ecut=    45.00 Ry     beta= 0.10
     Davidson diagonalization with overlap
     ethr =  3.89E-03,  avg # of iterations =  1.0

     total cpu time spent up to now is      143.0 secs

     total energy              =  -14689.17819861 Ry
     Harris-Foulkes estimate   =  -14687.37777793 Ry
     estimated scf accuracy    <       9.73062684 Ry

     total magnetization       =    10.01 Bohr mag/cell
     absolute magnetization    =    41.38 Bohr mag/cell

     iteration #  3     ecut=    45.00 Ry     beta= 0.10
     Davidson diagonalization with overlap
     ethr =  3.29E-03,  avg # of iterations =  4.3

     total cpu time spent up to now is      211.5 secs

     total energy              =  -14691.60663117 Ry
     Harris-Foulkes estimate   =  -14690.67896920 Ry
     estimated scf accuracy    <     158.49992802 Ry

     total magnetization       =    10.26 Bohr mag/cell
     absolute magnetization    =    40.55 Bohr mag/cell

     iteration #  4     ecut=    45.00 Ry     beta= 0.10
     Davidson diagonalization with overlap
     ethr =  3.29E-03,  avg # of iterations =  3.9

     total cpu time spent up to now is      276.7 secs

     total energy              =  -14693.92676561 Ry
     Harris-Foulkes estimate   =  -14694.08774365 Ry
     estimated scf accuracy    <       5.69015711 Ry

     total magnetization       =     9.37 Bohr mag/cell
     absolute magnetization    =    38.71 Bohr mag/cell

     iteration #  5     ecut=    45.00 Ry     beta= 0.10
     Davidson diagonalization with overlap
     ethr =  1.92E-03,  avg # of iterations =  2.4

     total cpu time spent up to now is      328.2 secs

     total energy              =  -14693.94496221 Ry
     Harris-Foulkes estimate   =  -14693.98267871 Ry
     estimated scf accuracy    <       3.90817623 Ry

     total magnetization       =     9.37 Bohr mag/cell
     absolute magnetization    =    38.81 Bohr mag/cell

     iteration #  6     ecut=    45.00 Ry     beta= 0.10
     Davidson diagonalization with overlap
     ethr =  1.32E-03,  avg # of iterations =  2.1

     total cpu time spent up to now is      378.1 secs

     total energy              =  -14694.24640847 Ry
     Harris-Foulkes estimate   =  -14693.95359236 Ry
     estimated scf accuracy    <       3.34178457 Ry

     total magnetization       =     9.38 Bohr mag/cell
     absolute magnetization    =    38.82 Bohr mag/cell

     iteration #  7     ecut=    45.00 Ry     beta= 0.10
     Davidson diagonalization with overlap
     ethr =  1.13E-03,  avg # of iterations =  1.8

     total cpu time spent up to now is      425.8 secs

     total energy              =  -14693.28057720 Ry
     Harris-Foulkes estimate   =  -14694.26865937 Ry
     estimated scf accuracy    <       4.64170524 Ry

     total magnetization       =     9.34 Bohr mag/cell
     absolute magnetization    =    38.56 Bohr mag/cell

     iteration #  8     ecut=    45.00 Ry     beta= 0.10
     Davidson diagonalization with overlap
     ethr =  1.13E-03,  avg # of iterations =  4.7

     total cpu time spent up to now is      514.7 secs

     total energy              =  -14694.00979328 Ry
     Harris-Foulkes estimate   =  -14694.00411748 Ry
     estimated scf accuracy    <       0.30903676 Ry

     total magnetization       =     8.77 Bohr mag/cell
     absolute magnetization    =    37.57 Bohr mag/cell

     iteration #  9     ecut=    45.00 Ry     beta= 0.10
     Davidson diagonalization with overlap
     ethr =  1.04E-04,  avg # of iterations =  1.8

     total cpu time spent up to now is      562.9 secs

     total energy              =  -14694.00851689 Ry
     Harris-Foulkes estimate   =  -14694.01631919 Ry
     estimated scf accuracy    <       0.20044523 Ry

     total magnetization       =     8.73 Bohr mag/cell
     absolute magnetization    =    37.47 Bohr mag/cell

     iteration # 10     ecut=    45.00 Ry     beta= 0.10
     Davidson diagonalization with overlap
     ethr =  6.77E-05,  avg # of iterations =  1.1

     total cpu time spent up to now is      605.4 secs

     total energy              =  -14693.98971276 Ry
     Harris-Foulkes estimate   =  -14694.01182093 Ry
     estimated scf accuracy    <       0.11953048 Ry

     total magnetization       =     8.73 Bohr mag/cell
     absolute magnetization    =    37.47 Bohr mag/cell

     iteration # 11     ecut=    45.00 Ry     beta= 0.10
     Davidson diagonalization with overlap
     ethr =  4.04E-05,  avg # of iterations =  3.2

     total cpu time spent up to now is      673.0 secs

     total energy              =  -14694.00094058 Ry
     Harris-Foulkes estimate   =  -14694.01438310 Ry
     estimated scf accuracy    <       0.06203258 Ry

     total magnetization       =     8.72 Bohr mag/cell
     absolute magnetization    =    37.46 Bohr mag/cell

     iteration # 12     ecut=    45.00 Ry     beta= 0.10
     Davidson diagonalization with overlap
     ethr =  2.10E-05,  avg # of iterations =  2.5

     total cpu time spent up to now is      736.3 secs

     total energy              =  -14694.01209085 Ry
     Harris-Foulkes estimate   =  -14694.01397450 Ry
     estimated scf accuracy    <       0.02544361 Ry

     total magnetization       =     8.66 Bohr mag/cell
     absolute magnetization    =    37.37 Bohr mag/cell

     iteration # 13     ecut=    45.00 Ry     beta= 0.10
     Davidson diagonalization with overlap
     c_bands:  3 eigenvalues not converged
     ethr =  8.60E-06,  avg # of iterations =  1.7

     total cpu time spent up to now is      783.1 secs

     total energy              =  -14694.01374284 Ry
     Harris-Foulkes estimate   =  -14694.01352700 Ry
     estimated scf accuracy    <       0.01388264 Ry

     total magnetization       =     8.67 Bohr mag/cell
     absolute magnetization    =    37.37 Bohr mag/cell

     iteration # 14     ecut=    45.00 Ry     beta= 0.10
     Davidson diagonalization with overlap
     c_bands:  1 eigenvalues not converged
     ethr =  4.69E-06,  avg # of iterations =  2.1

     total cpu time spent up to now is      833.2 secs

     total energy              =  -14694.01574599 Ry
     Harris-Foulkes estimate   =  -14694.01427169 Ry
     estimated scf accuracy    <       0.02198975 Ry

     total magnetization       =     8.63 Bohr mag/cell
     absolute magnetization    =    37.36 Bohr mag/cell

     iteration # 15     ecut=    45.00 Ry     beta= 0.10
     Davidson diagonalization with overlap
     ethr =  4.69E-06,  avg # of iterations =  1.1

     total cpu time spent up to now is      875.5 secs

     total energy              =  -14694.01656393 Ry
     Harris-Foulkes estimate   =  -14694.01595370 Ry
     estimated scf accuracy    <       0.00667033 Ry

     total magnetization       =     8.62 Bohr mag/cell
     absolute magnetization    =    37.36 Bohr mag/cell

     iteration # 16     ecut=    45.00 Ry     beta= 0.10
     Davidson diagonalization with overlap
     c_bands:  4 eigenvalues not converged
     c_bands:  3 eigenvalues not converged
     ethr =  2.25E-06,  avg # of iterations =  4.7

     total cpu time spent up to now is      943.6 secs

     total energy              =  -14694.01653032 Ry
     Harris-Foulkes estimate   =  -14694.01697719 Ry
     estimated scf accuracy    <       0.03035668 Ry

     total magnetization       =     8.62 Bohr mag/cell
     absolute magnetization    =    37.33 Bohr mag/cell

     iteration # 17     ecut=    45.00 Ry     beta= 0.10
     Davidson diagonalization with overlap
     ethr =  2.25E-06,  avg # of iterations =  3.1

     total cpu time spent up to now is     1000.0 secs

     total energy              =  -14694.01719616 Ry
     Harris-Foulkes estimate   =  -14694.01697858 Ry
     estimated scf accuracy    <       0.00226599 Ry

     total magnetization       =     8.62 Bohr mag/cell
     absolute magnetization    =    37.35 Bohr mag/cell

     iteration # 18     ecut=    45.00 Ry     beta= 0.10
     Davidson diagonalization with overlap
     ethr =  7.66E-07,  avg # of iterations =  1.2

     total cpu time spent up to now is     1043.1 secs

     total energy              =  -14694.01729489 Ry
     Harris-Foulkes estimate   =  -14694.01720892 Ry
     estimated scf accuracy    <       0.00098617 Ry

     total magnetization       =     8.61 Bohr mag/cell
     absolute magnetization    =    37.34 Bohr mag/cell

     iteration # 19     ecut=    45.00 Ry     beta= 0.10
     Davidson diagonalization with overlap
     ethr =  3.33E-07,  avg # of iterations =  1.8

     total cpu time spent up to now is     1091.8 secs

     total energy              =  -14694.01738778 Ry
     Harris-Foulkes estimate   =  -14694.01731218 Ry
     estimated scf accuracy    <       0.00026477 Ry

     total magnetization       =     8.60 Bohr mag/cell
     absolute magnetization    =    37.34 Bohr mag/cell

     iteration # 20     ecut=    45.00 Ry     beta= 0.10
     Davidson diagonalization with overlap
     ethr =  8.94E-08,  avg # of iterations =  3.3

     total cpu time spent up to now is     1152.3 secs

     total energy              =  -14694.01742415 Ry
     Harris-Foulkes estimate   =  -14694.01738522 Ry
     estimated scf accuracy    <       0.00017742 Ry

     total magnetization       =     8.60 Bohr mag/cell
     absolute magnetization    =    37.33 Bohr mag/cell

     iteration # 21     ecut=    45.00 Ry     beta= 0.10
     Davidson diagonalization with overlap
     ethr =  5.99E-08,  avg # of iterations =  1.2

     total cpu time spent up to now is     1195.4 secs

     total energy              =  -14694.01745438 Ry
     Harris-Foulkes estimate   =  -14694.01741569 Ry
     estimated scf accuracy    <       0.00012657 Ry

     total magnetization       =     8.60 Bohr mag/cell
     absolute magnetization    =    37.33 Bohr mag/cell

     iteration # 22     ecut=    45.00 Ry     beta= 0.10
     Davidson diagonalization with overlap
     ethr =  4.28E-08,  avg # of iterations =  1.4

     total cpu time spent up to now is     1240.5 secs

     total energy              =  -14694.01747790 Ry
     Harris-Foulkes estimate   =  -14694.01744388 Ry
     estimated scf accuracy    <       0.00006453 Ry

     total magnetization       =     8.60 Bohr mag/cell
     absolute magnetization    =    37.33 Bohr mag/cell

     iteration # 23     ecut=    45.00 Ry     beta= 0.10
     Davidson diagonalization with overlap
     ethr =  2.18E-08,  avg # of iterations =  2.5

     total cpu time spent up to now is     1303.6 secs

     total energy              =  -14694.01747658 Ry
     Harris-Foulkes estimate   =  -14694.01746956 Ry
     estimated scf accuracy    <       0.00009005 Ry

     total magnetization       =     8.59 Bohr mag/cell
     absolute magnetization    =    37.32 Bohr mag/cell

     iteration # 24     ecut=    45.00 Ry     beta= 0.10
     Davidson diagonalization with overlap
     ethr =  2.18E-08,  avg # of iterations =  1.1

     total cpu time spent up to now is     1346.3 secs

     total energy              =  -14694.01747093 Ry
     Harris-Foulkes estimate   =  -14694.01746842 Ry
     estimated scf accuracy    <       0.00000814 Ry

     total magnetization       =     8.59 Bohr mag/cell
     absolute magnetization    =    37.31 Bohr mag/cell

     iteration # 25     ecut=    45.00 Ry     beta= 0.10
     Davidson diagonalization with overlap
     ethr =  2.75E-09,  avg # of iterations =  1.8

     total cpu time spent up to now is     1393.9 secs

     total energy              =  -14694.01747384 Ry
     Harris-Foulkes estimate   =  -14694.01747103 Ry
     estimated scf accuracy    <       0.00000490 Ry

     total magnetization       =     8.59 Bohr mag/cell
     absolute magnetization    =    37.31 Bohr mag/cell

     iteration # 26     ecut=    45.00 Ry     beta= 0.10
     Davidson diagonalization with overlap
     ethr =  1.66E-09,  avg # of iterations =  2.4

     total cpu time spent up to now is     1447.1 secs

     total energy              =  -14694.01747217 Ry
     Harris-Foulkes estimate   =  -14694.01747095 Ry
     estimated scf accuracy    <       0.00000774 Ry

     total magnetization       =     8.58 Bohr mag/cell
     absolute magnetization    =    37.31 Bohr mag/cell

     iteration # 27     ecut=    45.00 Ry     beta= 0.10
     Davidson diagonalization with overlap
     ethr =  1.66E-09,  avg # of iterations =  1.0

     total cpu time spent up to now is     1489.2 secs

     total energy              =  -14694.01747441 Ry
     Harris-Foulkes estimate   =  -14694.01747318 Ry
     estimated scf accuracy    <       0.00000279 Ry

     total magnetization       =     8.58 Bohr mag/cell
     absolute magnetization    =    37.31 Bohr mag/cell

     iteration # 28     ecut=    45.00 Ry     beta= 0.10
     Davidson diagonalization with overlap
     ethr =  9.41E-10,  avg # of iterations =  1.6

     total cpu time spent up to now is     1535.6 secs

     total energy              =  -14694.01747452 Ry
     Harris-Foulkes estimate   =  -14694.01747369 Ry
     estimated scf accuracy    <       0.00000142 Ry

     total magnetization       =     8.58 Bohr mag/cell
     absolute magnetization    =    37.31 Bohr mag/cell

     iteration # 29     ecut=    45.00 Ry     beta= 0.10
     Davidson diagonalization with overlap
     ethr =  4.81E-10,  avg # of iterations =  1.8

     total cpu time spent up to now is     1582.9 secs

     total energy              =  -14694.01747620 Ry
     Harris-Foulkes estimate   =  -14694.01747554 Ry
     estimated scf accuracy    <       0.00000141 Ry

     total magnetization       =     8.58 Bohr mag/cell
     absolute magnetization    =    37.31 Bohr mag/cell

     iteration # 30     ecut=    45.00 Ry     beta= 0.10
     Davidson diagonalization with overlap
     ethr =  4.76E-10,  avg # of iterations =  1.7
 
     Magnetic moment per site:
     atom:    1    charge:   13.5494    magn:    4.2418    constr:    0.0000
     atom:    2    charge:   13.5533    magn:    4.2156    constr:    0.0000
     atom:    3    charge:   13.5531    magn:    4.2176    constr:    0.0000
     atom:    4    charge:   13.5476    magn:    4.2528    constr:    0.0000
     atom:    5    charge:   13.5442    magn:   -4.2768    constr:    0.0000
     atom:    6    charge:   13.5449    magn:    4.2700    constr:    0.0000
     atom:    7    charge:   13.5458    magn:   -4.2604    constr:    0.0000
     atom:    8    charge:   13.5486    magn:   -4.2492    constr:    0.0000
     atom:    9    charge:    9.1367    magn:    0.0308    constr:    0.0000
     atom:   10    charge:    9.1367    magn:    0.0305    constr:    0.0000
     atom:   11    charge:    9.1360    magn:    0.0319    constr:    0.0000
     atom:   12    charge:    9.1351    magn:    0.0311    constr:    0.0000
     atom:   13    charge:    9.1364    magn:    0.0292    constr:    0.0000
     atom:   14    charge:    9.1380    magn:    0.0294    constr:    0.0000
     atom:   15    charge:    9.1400    magn:    0.0349    constr:    0.0000
     atom:   16    charge:    9.1399    magn:   -0.0374    constr:    0.0000
     atom:   17    charge:    9.1401    magn:   -0.0358    constr:    0.0000
     atom:   18    charge:    9.1406    magn:    0.0350    constr:    0.0000
     atom:   19    charge:    9.1392    magn:    0.0363    constr:    0.0000
     atom:   20    charge:    9.1392    magn:   -0.0411    constr:    0.0000
     atom:   21    charge:    9.1385    magn:   -0.0337    constr:    0.0000
     atom:   22    charge:    9.1383    magn:   -0.0343    constr:    0.0000
     atom:   23    charge:    9.1386    magn:   -0.0428    constr:    0.0000
     atom:   24    charge:    9.1376    magn:    0.0365    constr:    0.0000

     total cpu time spent up to now is     1631.4 secs

     End of self-consistent calculation
 --- enter write_ns ---
 LDA+U parameters:
U(  1) =   3.1200   J(  1) =   0.7000   B(  1) =   0.0803
U(  2) =   3.1200   J(  2) =   0.7000   B(  2) =   0.0803
atom    1   Tr[ns(na)] (up, down, total) =   4.97327  0.73046  5.70373
   spin  1
    eigenvalues: 
  0.985  0.994  0.994  0.998  1.002
    eigenvectors:
  0.000  0.000  0.000  1.000  0.000
  0.000  0.272  0.728  0.000  0.000
  0.000  0.728  0.272  0.000  0.000
  0.000  0.000  0.000  0.000  1.000
  1.000  0.000  0.000  0.000  0.000
    occupations:
  0.998 -0.000 -0.000  0.000  0.000
 -0.000  0.994 -0.000  0.000  0.000
 -0.000 -0.000  0.994  0.000  0.000
  0.000  0.000  0.000  1.002 -0.000
  0.000  0.000  0.000 -0.000  0.985
   spin  2
    eigenvalues: 
  0.064  0.125  0.142  0.142  0.258
    eigenvectors:
  0.000  1.000  0.000  0.000  0.000
  0.000  0.000  0.300  0.700  0.000
  0.000  0.000  0.700  0.300  0.000
  1.000  0.000  0.000  0.000  0.000
  0.000  0.000  0.000  0.000  1.000
    occupations:
  0.125 -0.000 -0.000  0.000  0.000
 -0.000  0.142 -0.000  0.000  0.000
 -0.000 -0.000  0.142  0.000  0.000
  0.000  0.000  0.000  0.064 -0.000
  0.000  0.000  0.000 -0.000  0.258
atomic mag. moment =     4.242815
atom    2   Tr[ns(na)] (up, down, total) =   4.97220  0.75240  5.72460
   spin  1
    eigenvalues: 
  0.985  0.994  0.994  0.998  1.002
    eigenvectors:
  0.000  0.000  0.000  1.000  0.000
  0.000  0.326  0.674  0.000  0.000
  0.000  0.674  0.326  0.000  0.000
  0.000  0.000  0.000  0.000  1.000
  1.000  0.000  0.000  0.000  0.000
    occupations:
  0.998 -0.000 -0.000  0.000  0.000
 -0.000  0.994 -0.000  0.000  0.000
 -0.000 -0.000  0.994  0.000  0.000
  0.000  0.000  0.000  1.002 -0.000
  0.000  0.000  0.000 -0.000  0.985
   spin  2
    eigenvalues: 
  0.064  0.136  0.142  0.142  0.269
    eigenvectors:
  0.000  1.000  0.000  0.000  0.000
  0.000  0.000  0.359  0.641  0.000
  0.000  0.000  0.641  0.359  0.000
  1.000  0.000  0.000  0.000  0.000
  0.000  0.000  0.000  0.000  1.000
    occupations:
  0.136 -0.000 -0.000  0.000  0.000
 -0.000  0.142 -0.000  0.000  0.000
 -0.000 -0.000  0.142  0.000  0.000
  0.000  0.000  0.000  0.064 -0.000
  0.000  0.000  0.000 -0.000  0.269
atomic mag. moment =     4.219794
atom    3   Tr[ns(na)] (up, down, total) =   4.97239  0.75132  5.72372
   spin  1
    eigenvalues: 
  0.985  0.994  0.994  0.998  1.002
    eigenvectors:
  0.000  0.000  0.000  1.000  0.000
  0.000  0.353  0.647  0.000  0.000
  0.000  0.647  0.353  0.000  0.000
  0.000  0.000  0.000  0.000  1.000
  1.000  0.000  0.000  0.000  0.000
    occupations:
  0.998 -0.000 -0.000  0.000  0.000
 -0.000  0.994 -0.000  0.000  0.000
 -0.000 -0.000  0.994  0.000  0.000
  0.000  0.000  0.000  1.002 -0.000
  0.000  0.000  0.000 -0.000  0.985
   spin  2
    eigenvalues: 
  0.063  0.134  0.143  0.143  0.267
    eigenvectors:
  0.000  1.000  0.000  0.000  0.000
  0.000  0.000  0.412  0.588  0.000
  0.000  0.000  0.588  0.412  0.000
  1.000  0.000  0.000  0.000  0.000
  0.000  0.000  0.000  0.000  1.000
    occupations:
  0.134 -0.000 -0.000  0.000  0.000
 -0.000  0.143 -0.000  0.000  0.000
 -0.000 -0.000  0.143  0.000  0.000
  0.000  0.000  0.000  0.063 -0.000
  0.000  0.000  0.000 -0.000  0.267
atomic mag. moment =     4.221070
atom    4   Tr[ns(na)] (up, down, total) =   4.97488  0.72052  5.69539
   spin  1
    eigenvalues: 
  0.986  0.994  0.994  0.998  1.002
    eigenvectors:
  0.000  0.000  0.000  1.000  0.000
  0.000  0.306  0.694  0.000  0.000
  0.000  0.694  0.306  0.000  0.000
  0.000  0.000  0.000  0.000  1.000
  1.000  0.000  0.000  0.000  0.000
    occupations:
  0.998 -0.000 -0.000  0.000  0.000
 -0.000  0.994 -0.000  0.000  0.000
 -0.000 -0.000  0.994  0.000  0.000
  0.000  0.000  0.000  1.002 -0.000
  0.000  0.000  0.000 -0.000  0.986
   spin  2
    eigenvalues: 
  0.066  0.126  0.140  0.140  0.248
    eigenvectors:
  0.000  1.000  0.000  0.000  0.000
  0.000  0.000  0.318  0.682  0.000
  0.000  0.000  0.682  0.318  0.000
  1.000  0.000  0.000  0.000  0.000
  0.000  0.000  0.000  0.000  1.000
    occupations:
  0.126 -0.000 -0.000  0.000  0.000
 -0.000  0.140 -0.000  0.000  0.000
 -0.000 -0.000  0.140  0.000  0.000
  0.000  0.000  0.000  0.066 -0.000
  0.000  0.000  0.000 -0.000  0.248
atomic mag. moment =     4.254360
atom    5   Tr[ns(na)] (up, down, total) =   0.70220  4.97531  5.67752
   spin  1
    eigenvalues: 
  0.065  0.110  0.140  0.140  0.246
    eigenvectors:
  0.000  1.000  0.000  0.000  0.000
  0.000  0.000  0.482  0.518  0.000
  0.000  0.000  0.518  0.482  0.000
  1.000  0.000  0.000  0.000  0.000
  0.000  0.000  0.000  0.000  1.000
    occupations:
  0.110 -0.000 -0.000  0.000  0.000
 -0.000  0.140 -0.000  0.000  0.000
 -0.000 -0.000  0.140  0.000  0.000
  0.000  0.000  0.000  0.065 -0.000
  0.000  0.000  0.000 -0.000  0.246
   spin  2
    eigenvalues: 
  0.985  0.994  0.994  0.999  1.002
    eigenvectors:
  0.000  0.000  0.000  1.000  0.000
  0.000  0.264  0.736  0.000  0.000
  0.000  0.736  0.264  0.000  0.000
  0.000  0.000  0.000  0.000  1.000
  1.000  0.000  0.000  0.000  0.000
    occupations:
  0.999 -0.000 -0.000  0.000  0.000
 -0.000  0.994 -0.000  0.000  0.000
 -0.000 -0.000  0.994  0.000  0.000
  0.000  0.000  0.000  1.002 -0.000
  0.000  0.000  0.000 -0.000  0.985
atomic mag. moment =    -4.273109
atom    6   Tr[ns(na)] (up, down, total) =   4.97482  0.70629  5.68110
   spin  1
    eigenvalues: 
  0.985  0.994  0.994  0.998  1.002
    eigenvectors:
  0.000  0.000  0.000  1.000  0.000
  0.000  0.327  0.673  0.000  0.000
  0.000  0.673  0.327  0.000  0.000
  0.000  0.000  0.000  0.000  1.000
  1.000  0.000  0.000  0.000  0.000
    occupations:
  0.998 -0.000 -0.000  0.000  0.000
 -0.000  0.994 -0.000  0.000  0.000
 -0.000 -0.000  0.994  0.000  0.000
  0.000  0.000  0.000  1.002 -0.000
  0.000  0.000  0.000 -0.000  0.985
   spin  2
    eigenvalues: 
  0.065  0.113  0.141  0.141  0.246
    eigenvectors:
  0.000  1.000  0.000  0.000  0.000
  0.000  0.000  0.354  0.646  0.000
  0.000  0.000  0.646  0.354  0.000
  1.000  0.000  0.000  0.000  0.000
  0.000  0.000  0.000  0.000  1.000
    occupations:
  0.113 -0.000 -0.000  0.000  0.000
 -0.000  0.141 -0.000  0.000  0.000
 -0.000 -0.000  0.141  0.000  0.000
  0.000  0.000  0.000  0.065 -0.000
  0.000  0.000  0.000 -0.000  0.246
atomic mag. moment =     4.268535
atom    7   Tr[ns(na)] (up, down, total) =   0.71533  4.97580  5.69113
   spin  1
    eigenvalues: 
  0.067  0.124  0.137  0.137  0.250
    eigenvectors:
  0.000  1.000  0.000  0.000  0.000
  0.000  0.000  0.320  0.680  0.000
  0.000  0.000  0.680  0.320  0.000
  1.000  0.000  0.000  0.000  0.000
  0.000  0.000  0.000  0.000  1.000
    occupations:
  0.124 -0.000 -0.000  0.000  0.000
 -0.000  0.137 -0.000  0.000  0.000
 -0.000 -0.000  0.137  0.000  0.000
  0.000  0.000  0.000  0.067 -0.000
  0.000  0.000  0.000 -0.000  0.250
   spin  2
    eigenvalues: 
  0.986  0.995  0.995  0.998  1.002
    eigenvectors:
  0.000  0.000  0.000  1.000  0.000
  0.000  0.340  0.660  0.000  0.000
  0.000  0.660  0.340  0.000  0.000
  0.000  0.000  0.000  0.000  1.000
  1.000  0.000  0.000  0.000  0.000
    occupations:
  0.998 -0.000 -0.000  0.000  0.000
 -0.000  0.995 -0.000  0.000  0.000
 -0.000 -0.000  0.995  0.000  0.000
  0.000  0.000  0.000  1.002 -0.000
  0.000  0.000  0.000 -0.000  0.986
atomic mag. moment =    -4.260471
atom    8   Tr[ns(na)] (up, down, total) =   0.72702  4.97409  5.70111
   spin  1
    eigenvalues: 
  0.064  0.123  0.142  0.142  0.256
    eigenvectors:
  0.000  1.000  0.000  0.000  0.000
  0.000  0.000  0.359  0.641  0.000
  0.000  0.000  0.641  0.359  0.000
  1.000  0.000  0.000  0.000  0.000
  0.000  0.000  0.000  0.000  1.000
    occupations:
  0.123 -0.000 -0.000  0.000  0.000
 -0.000  0.142 -0.000  0.000  0.000
 -0.000 -0.000  0.142  0.000  0.000
  0.000  0.000  0.000  0.064 -0.000
  0.000  0.000  0.000 -0.000  0.256
   spin  2
    eigenvalues: 
  0.986  0.994  0.994  0.998  1.002
    eigenvectors:
  0.000  0.000  0.000  1.000  0.000
  0.000  0.345  0.655  0.000  0.000
  0.000  0.655  0.345  0.000  0.000
  0.000  0.000  0.000  0.000  1.000
  1.000  0.000  0.000  0.000  0.000
    occupations:
  0.998 -0.000 -0.000  0.000  0.000
 -0.000  0.994 -0.000  0.000  0.000
 -0.000 -0.000  0.994  0.000  0.000
  0.000  0.000  0.000  1.002 -0.000
  0.000  0.000  0.000 -0.000  0.986
atomic mag. moment =    -4.247074
N of occupied +U levels =   45.598300
 --- exit write_ns ---

 ------ SPIN UP ------------


          k = 0.0000 0.0000 0.0000 ( 14071 PWs)   bands (ev):

   -67.1036 -67.0195 -66.9987 -66.8942 -66.8881 -62.4913 -62.4317 -62.4225
   -35.8749 -35.8170 -35.8170 -35.7886 -35.7758 -35.7355 -35.7355 -35.7113
   -35.7113 -35.6749 -35.6703 -35.6071 -35.6071 -35.6002 -35.6002 -31.3110
   -31.3110 -31.3087 -31.2557 -31.2494 -31.2494 -31.2474 -31.2403 -31.2403
     5.5986   5.7268   5.7720   6.1579   6.2130   6.8110   6.8560   7.4011
     8.0463   8.2001   8.2183   8.2876   8.3041   8.3361   8.3800   8.4866
     8.5801   8.6069   8.6481   8.7535   8.8426   8.9509   8.9950   9.0385
     9.0530   9.1666   9.2122   9.2445   9.4023   9.4274   9.6701   9.7262
     9.7836   9.7935   9.8021   9.8905   9.9120   9.9329   9.9329   9.9501
     9.9831   9.9831  10.0039  10.0039  10.0784  10.1470  10.1470  10.1540
    10.1540  10.1675  10.2238  10.3020  10.3020  10.3291  10.3330  10.3330
    10.3571  10.3571  10.3877  10.3877  10.3921  10.4034  10.4034  10.4703
    10.4777  10.4777  10.5118  10.5118  10.5779  10.7048  10.7435  10.7685
    10.7685  10.8595  10.8686  10.8686  10.9761  11.0038  11.0377  11.0749
    11.1693  11.1934  11.1934  11.2142  11.3160  11.3160  11.3348  11.3450
    11.4160  11.5735  11.5920  11.5920  11.6024  11.6588  11.7377  11.7794
    11.8045  11.8045  11.8095  11.8915  11.9281  11.9756  12.0586  12.0586
    12.1889  12.1889  12.2778  12.4835  12.4835  12.4841  12.5051  12.5236
    12.6705  12.6954  12.8114  12.8552  13.3738  13.6822  14.6560  14.8146
    15.8902  16.5585  16.5585  16.6394  16.6394  16.6553  16.6798  16.7370
    16.8425  16.8425  16.8434  16.8524  16.9034  17.0364  17.2198  17.2251
    17.9299  19.0105  19.1530  19.8825  19.8825  20.2266  20.2266  20.2839
    20.2839  20.9494

          k = 0.0000 0.0000 0.0159 ( 14107 PWs)   bands (ev):

   -67.1036 -67.0195 -66.9987 -66.8942 -66.8881 -62.4913 -62.4317 -62.4225
   -35.8749 -35.8170 -35.8170 -35.7886 -35.7758 -35.7355 -35.7355 -35.7113
   -35.7113 -35.6749 -35.6703 -35.6071 -35.6071 -35.6002 -35.6002 -31.3110
   -31.3110 -31.3087 -31.2557 -31.2494 -31.2494 -31.2474 -31.2403 -31.2403
     5.6021   5.7023   5.8034   6.0966   6.2817   6.7144   6.9546   7.3714
     8.0737   8.2001   8.2190   8.2874   8.3043   8.3313   8.3852   8.4865
     8.5103   8.5983   8.7107   8.7539   8.8555   8.9481   8.9626   9.0587
     9.0683   9.1623   9.2038   9.2350   9.4066   9.4291   9.6710   9.7263
     9.7834   9.7936   9.7976   9.8953   9.9118   9.9337   9.9337   9.9500
     9.9759   9.9759  10.0145  10.0145  10.0783  10.1175  10.1175  10.1678
    10.1863  10.1863  10.2218  10.3014  10.3014  10.3267  10.3312  10.3312
    10.3546  10.3546  10.3614  10.3614  10.3967  10.4249  10.4249  10.4675
    10.4755  10.4755  10.5245  10.5245  10.5827  10.7056  10.7337  10.7397
    10.7397  10.8692  10.9002  10.9002  10.9722  11.0016  11.0377  11.0772
    11.1621  11.1621  11.1688  11.2148  11.3351  11.3442  11.3461  11.3461
    11.4159  11.5727  11.5763  11.5763  11.6030  11.6608  11.7378  11.7794
    11.8038  11.8132  11.8132  11.8981  11.9281  11.9728  12.0544  12.0544
    12.1905  12.1905  12.2780  12.4835  12.4835  12.4836  12.5055  12.5296
    12.6703  12.6705  12.8114  12.8903  13.3233  13.7383  14.5454  14.9228
    15.8607  16.5585  16.5585  16.6394  16.6394  16.6553  16.6798  16.7370
    16.8425  16.8425  16.8434  16.8524  16.9034  17.0546  17.2145  17.2254
    17.9511  18.8197  19.3726  19.8918  19.8918  20.1470  20.1470  20.3801
    20.3801  20.6517

          k = 0.0000 0.0000 0.0319 ( 14080 PWs)   bands (ev):

   -67.1036 -67.0195 -66.9987 -66.8942 -66.8881 -62.4913 -62.4317 -62.4225
   -35.8749 -35.8170 -35.8170 -35.7886 -35.7758 -35.7355 -35.7355 -35.7113
   -35.7113 -35.6749 -35.6703 -35.6071 -35.6071 -35.6002 -35.6002 -31.3110
   -31.3110 -31.3087 -31.2557 -31.2494 -31.2494 -31.2474 -31.2403 -31.2403
     5.6113   5.6720   5.8525   6.0252   6.3764   6.6037   7.0710   7.2960
     8.1384   8.2001   8.2223   8.2871   8.3047   8.3198   8.3923   8.4187
     8.4864   8.5886   8.7548   8.7788   8.8816   8.9176   8.9430   9.0709
     9.1080   9.1525   9.1794   9.2177   9.4140   9.4326   9.6729   9.7263
     9.7832   9.7895   9.7939   9.9040   9.9115   9.9358   9.9358   9.9500
     9.9668   9.9668  10.0337  10.0337  10.0782  10.0882  10.0882  10.1683
    10.2179  10.2241  10.2241  10.2948  10.2948  10.3155  10.3155  10.3225
    10.3392  10.3392  10.3580  10.3580  10.4062  10.4398  10.4398  10.4608
    10.4726  10.4726  10.5542  10.5542  10.5936  10.6933  10.6933  10.7072
    10.7149  10.8881  10.9561  10.9561  10.9626  10.9975  11.0379  11.0815
    11.1053  11.1053  11.1677  11.2159  11.3359  11.3425  11.3989  11.3989
    11.4157  11.5392  11.5392  11.5713  11.6042  11.6651  11.7379  11.7793
    11.7936  11.8294  11.8294  11.9114  11.9281  11.9659  12.0458  12.0458
    12.1936  12.1936  12.2784  12.4827  12.4833  12.4833  12.5063  12.5468
    12.6270  12.6704  12.8114  12.9600  13.2314  13.8404  14.4044  15.0539
    15.7968  16.5585  16.5585  16.6394  16.6394  16.6553  16.6798  16.7370
    16.8425  16.8425  16.8434  16.8524  16.9034  17.0940  17.2000  17.2256
    18.0037  18.6256  19.6636  19.9178  19.9178  20.0648  20.0648  20.3304
    20.5123  20.5123

          k = 0.0000 0.0000-0.0478 ( 14088 PWs)   bands (ev):

   -67.1036 -67.0195 -66.9987 -66.8942 -66.8881 -62.4913 -62.4317 -62.4225
   -35.8749 -35.8170 -35.8170 -35.7886 -35.7758 -35.7355 -35.7355 -35.7113
   -35.7113 -35.6749 -35.6703 -35.6071 -35.6071 -35.6002 -35.6002 -31.3110
   -31.3110 -31.3087 -31.2557 -31.2494 -31.2494 -31.2474 -31.2403 -31.2403
     5.6189   5.6571   5.8840   5.9864   6.4504   6.5244   7.1602   7.2183
     8.1810   8.2001   8.2327   8.2869   8.3013   8.3049   8.3685   8.4009
     8.4863   8.5840   8.7552   8.8160   8.8774   8.9060   8.9407   9.0778
     9.1357   9.1466   9.1550   9.2090   9.4173   9.4343   9.6738   9.7263
     9.7830   9.7859   9.7941   9.9079   9.9113   9.9370   9.9370   9.9499
     9.9630   9.9630  10.0499  10.0499  10.0687  10.0687  10.0782  10.1686
    10.2159  10.2616  10.2616  10.2646  10.2646  10.3085  10.3085  10.3206
    10.3376  10.3376  10.3579  10.3579  10.4115  10.4442  10.4442  10.4567
    10.4714  10.4714  10.5747  10.5747  10.6000  10.6675  10.6675  10.7053
    10.7081  10.8985  10.9561  10.9954  10.9954  10.9955  11.0380  11.0656
    11.0656  11.0835  11.1672  11.2164  11.3362  11.3416  11.4155  11.4320
    11.4320  11.5112  11.5112  11.5706  11.6048  11.6674  11.7380  11.7793
    11.7889  11.8371  11.8371  11.9188  11.9281  11.9612  12.0414  12.0414
    12.1950  12.1950  12.2787  12.4822  12.4833  12.4833  12.5067  12.5640
    12.5996  12.6704  12.8114  13.0057  13.1770  13.8956  14.3374  15.1107
    15.7612  16.5585  16.5585  16.6394  16.6394  16.6553  16.6798  16.7370
    16.8425  16.8425  16.8434  16.8524  16.9034  17.1180  17.1879  17.2256
    18.0383  18.5418  19.8938  19.9410  19.9410  20.0226  20.0226  20.0908
    20.6183  20.6183

          k = 0.0000 0.1667 0.0000 ( 14044 PWs)   bands (ev):

   -67.1032 -67.0191 -66.9983 -66.8938 -66.8877 -62.4913 -62.4316 -62.4224
   -35.8746 -35.8200 -35.8169 -35.7883 -35.7756 -35.7385 -35.7353 -35.7143
   -35.7112 -35.6746 -35.6701 -35.6101 -35.6069 -35.6032 -35.6000 -31.3146
   -31.3107 -31.3083 -31.2553 -31.2530 -31.2491 -31.2470 -31.2440 -31.2401
     6.0270   6.1486   6.1917   6.5529   6.6009   7.1436   7.1712   7.6429
     8.0721   8.3756   8.4318   8.4516   8.4709   8.4748   8.4963   8.5178
     8.5574   8.6448   8.7395   8.7846   8.8443   8.8596   8.9513   9.0089
     9.0647   9.1045   9.2432   9.3359   9.3784   9.4967   9.5200   9.5212
     9.5426   9.5543   9.6610   9.6629   9.6813   9.7041   9.7146   9.7608
     9.7853   9.8008   9.9235   9.9633   9.9904  10.0120  10.0532  10.1036
    10.1165  10.1898  10.2071  10.2266  10.2656  10.2965  10.3430  10.3569
    10.4223  10.4238  10.4729  10.5041  10.5374  10.6034  10.6190  10.6437
    10.6888  10.7081  10.7662  10.7974  10.8412  10.8619  10.8686  10.9525
    10.9776  11.0129  11.0381  11.0492  11.0715  11.1099  11.1391  11.1555
    11.1752  11.2363  11.2622  11.2648  11.3481  11.3593  11.4430  11.4661
    11.5204  11.5365  11.5671  11.6192  11.6304  11.6670  11.6747  11.7334
    11.7829  11.8002  11.8721  11.8901  11.9047  11.9572  11.9669  12.0604
    12.1973  12.2706  12.2897  12.3430  12.3916  12.4216  12.5081  12.5622
    12.6582  12.7224  12.7238  12.7991  13.5019  13.7617  14.8799  15.0262
    16.0674  16.1741  16.3537  16.5402  16.6168  16.6441  16.6679  16.6952
    16.7544  16.7916  16.8369  16.8723  17.0180  17.1619  17.2841  17.6234
    17.6736  17.9619  18.1115  18.2029  18.8090  18.8967  19.5508  19.6489
    19.8532  19.8692

          k = 0.0000 0.1667 0.0159 ( 14046 PWs)   bands (ev):

   -67.1032 -67.0191 -66.9983 -66.8938 -66.8877 -62.4913 -62.4316 -62.4224
   -35.8746 -35.8200 -35.8169 -35.7883 -35.7756 -35.7385 -35.7353 -35.7143
   -35.7112 -35.6746 -35.6701 -35.6101 -35.6069 -35.6032 -35.6000 -31.3146
   -31.3107 -31.3083 -31.2553 -31.2530 -31.2491 -31.2470 -31.2440 -31.2401
     6.0302   6.1255   6.2213   6.4949   6.6653   7.0533   7.2623   7.6166
     8.0940   8.3672   8.4046   8.4321   8.4720   8.4929   8.5138   8.5258
     8.5639   8.6447   8.7213   8.7956   8.8398   8.8649   8.9464   9.0096
     9.0673   9.1092   9.2262   9.3536   9.3785   9.4970   9.5144   9.5203
     9.5370   9.5553   9.6613   9.6675   9.6815   9.7041   9.7158   9.7608
     9.7841   9.8007   9.9231   9.9631   9.9929  10.0082  10.0569  10.0919
    10.1189  10.2042  10.2071  10.2265  10.2639  10.3001  10.3406  10.3566
    10.3962  10.4231  10.4720  10.5328  10.5378  10.6040  10.6192  10.6441
    10.6889  10.7029  10.7740  10.7817  10.8367  10.8584  10.8678  10.9638
    10.9729  11.0249  11.0390  11.0497  11.0708  11.1099  11.1317  11.1558
    11.1756  11.2408  11.2649  11.2687  11.3317  11.3575  11.4418  11.4782
    11.5010  11.5392  11.5800  11.6236  11.6291  11.6594  11.6936  11.7201
    11.7823  11.8060  11.8685  11.8861  11.8909  11.9692  11.9717  12.0590
    12.1966  12.2704  12.2909  12.3403  12.3933  12.4297  12.5080  12.5622
    12.6158  12.7224  12.7238  12.8548  13.4198  13.8502  14.7461  15.1530
    16.0173  16.1995  16.3592  16.5380  16.6168  16.6441  16.6680  16.6952
    16.7544  16.7915  16.8369  16.8723  17.0180  17.1602  17.2968  17.5766
    17.6766  17.9519  18.1428  18.2770  18.6988  19.0142  19.2958  19.6738
    19.9348  20.0348

          k = 0.0000 0.1667 0.0319 ( 14043 PWs)   bands (ev):

   -67.1032 -67.0191 -66.9983 -66.8938 -66.8877 -62.4913 -62.4316 -62.4224
   -35.8746 -35.8200 -35.8169 -35.7883 -35.7756 -35.7385 -35.7353 -35.7143
   -35.7112 -35.6746 -35.6701 -35.6101 -35.6069 -35.6032 -35.6000 -31.3146
   -31.3107 -31.3083 -31.2553 -31.2530 -31.2491 -31.2470 -31.2440 -31.2401
     6.0389   6.0969   6.2679   6.4281   6.7529   6.9534   7.3643   7.5502
     8.1448   8.3174   8.3887   8.4321   8.4681   8.4948   8.5107   8.5676
     8.5811   8.6452   8.6893   8.8078   8.8296   8.8800   8.9339   9.0109
     9.0715   9.1235   9.1954   9.3750   9.3898   9.4937   9.4976   9.5184
     9.5326   9.5573   9.6585   9.6791   9.6819   9.7042   9.7179   9.7607
     9.7817   9.8005   9.9224   9.9628   9.9986  10.0019  10.0630  10.0749
    10.1201  10.2072  10.2262  10.2349  10.2610  10.3079  10.3348  10.3527
    10.3562  10.4246  10.4702  10.5385  10.5776  10.6052  10.6205  10.6450
    10.6895  10.6943  10.7440  10.7885  10.8318  10.8573  10.8655  10.9450
    11.0064  11.0341  11.0463  11.0529  11.0688  11.1059  11.1211  11.1575
    11.1748  11.2442  11.2643  11.2897  11.3044  11.3511  11.4368  11.4764
    11.4929  11.5495  11.5932  11.6268  11.6369  11.6554  11.6914  11.7246
    11.7799  11.8137  11.8563  11.8629  11.8904  11.9805  11.9846  12.0558
    12.1953  12.2699  12.2938  12.3347  12.3965  12.4535  12.5077  12.5520
    12.5622  12.7224  12.7238  12.9540  13.2886  13.9941  14.5769  15.2999
    15.9333  16.2254  16.3710  16.5332  16.6168  16.6441  16.6683  16.6952
    16.7544  16.7912  16.8369  16.8723  17.0180  17.1572  17.3325  17.4887
    17.6880  17.9130  18.2474  18.4275  18.5685  19.0239  19.1720  19.5058
    20.1963  20.2693

          k = 0.0000 0.1667-0.0478 ( 14036 PWs)   bands (ev):

   -67.1032 -67.0191 -66.9983 -66.8938 -66.8877 -62.4913 -62.4316 -62.4224
   -35.8746 -35.8200 -35.8169 -35.7883 -35.7756 -35.7385 -35.7353 -35.7143
   -35.7112 -35.6746 -35.6701 -35.6101 -35.6069 -35.6032 -35.6000 -31.3146
   -31.3107 -31.3083 -31.2553 -31.2530 -31.2491 -31.2470 -31.2440 -31.2401
     6.0461   6.0828   6.2979   6.3914   6.8256   6.8767   7.4566   7.4680
     8.1828   8.2773   8.3877   8.4321   8.4662   8.4954   8.5092   8.5766
     8.6018   8.6489   8.6667   8.8131   8.8229   8.8917   8.9240   9.0115
     9.0731   9.1369   9.1759   9.3758   9.4086   9.4774   9.4980   9.5176
     9.5319   9.5583   9.6571   9.6820   9.6845   9.7042   9.7190   9.7607
     9.7803   9.8004   9.9221   9.9626   9.9992  10.0020  10.0656  10.0671
    10.1204  10.2072  10.2261  10.2559  10.2598  10.3130  10.3275  10.3304
    10.3561  10.4254  10.4693  10.5388  10.5996  10.6058  10.6241  10.6455
    10.6906  10.6907  10.7191  10.7959  10.8304  10.8574  10.8639  10.9370
    11.0224  11.0349  11.0485  11.0601  11.0670  11.0990  11.1191  11.1586
    11.1739  11.2447  11.2633  11.2926  11.3056  11.3436  11.4319  11.4682
    11.4968  11.5571  11.5975  11.6258  11.6544  11.6580  11.6629  11.7449
    11.7754  11.8162  11.8401  11.8608  11.8904  11.9848  11.9906  12.0541
    12.1947  12.2695  12.2957  12.3318  12.3979  12.4833  12.5075  12.5076
    12.5622  12.7224  12.7238  13.0208  13.2099  14.0735  14.4901  15.3649
    15.8894  16.2336  16.3773  16.5306  16.6168  16.6440  16.6684  16.6952
    16.7544  16.7911  16.8369  16.8722  17.0180  17.1559  17.3703  17.4299
    17.6952  17.8933  18.3244  18.4722  18.5620  18.8664  19.3221  19.3517
    20.3316  20.4217

          k = 0.0000 0.3333 0.0000 ( 14062 PWs)   bands (ev):

   -67.1035 -67.0194 -66.9986 -66.8941 -66.8880 -62.4904 -62.4307 -62.4215
   -35.8741 -35.8258 -35.8165 -35.7877 -35.7750 -35.7443 -35.7349 -35.7202
   -35.7108 -35.6741 -35.6695 -35.6159 -35.6090 -35.6065 -35.5997 -31.3221
   -31.3103 -31.3075 -31.2606 -31.2545 -31.2515 -31.2486 -31.2462 -31.2396
     7.1636   7.2572   7.2932   7.5395   7.5569   7.8154   7.8332   7.9930
     8.0187   8.1363   8.1425   8.2899   8.3224   8.4971   8.5233   8.7032
     8.7484   8.7572   8.8631   8.9026   8.9307   8.9472   8.9676   9.0114
     9.1113   9.1184   9.1784   9.2037   9.2096   9.2442   9.2738   9.3608
     9.3923   9.3968   9.4011   9.4712   9.6124   9.6221   9.6437   9.6952
     9.8056   9.8318   9.8354   9.8797   9.9091   9.9264   9.9898  10.1693
    10.2340  10.2373  10.3487  10.3880  10.3947  10.4098  10.4923  10.5135
    10.5446  10.6396  10.7190  10.7225  10.8229  10.8482  10.8790  10.9083
    10.9858  11.0085  11.0207  11.0921  11.1249  11.1525  11.1992  11.2072
    11.2306  11.2634  11.2691  11.2987  11.3242  11.3676  11.3890  11.3967
    11.4221  11.4257  11.4424  11.4684  11.5008  11.5655  11.5795  11.5827
    11.6543  11.6647  11.6880  11.7042  11.7249  11.7338  11.8045  11.8105
    11.8238  11.8704  11.9004  11.9158  11.9252  12.0381  12.1373  12.1688
    12.2099  12.2640  12.3920  12.4675  12.4787  12.5147  12.6088  12.6167
    12.6642  12.6800  12.7833  12.8221  13.7629  13.8595  14.3783  14.6043
    14.6295  14.8498  14.9682  15.2571  15.3201  15.6408  15.7751  16.0543
    16.3080  16.4812  16.5564  16.6120  16.6877  16.7245  16.8418  16.9163
    16.9578  17.1427  17.2049  17.2169  17.2685  17.6472  17.7451  17.9968
    18.9298  19.3721

          k = 0.0000 0.3333 0.0159 ( 14056 PWs)   bands (ev):

   -67.1035 -67.0194 -66.9986 -66.8941 -66.8880 -62.4904 -62.4307 -62.4215
   -35.8741 -35.8258 -35.8165 -35.7877 -35.7750 -35.7443 -35.7349 -35.7202
   -35.7108 -35.6741 -35.6695 -35.6159 -35.6090 -35.6065 -35.5997 -31.3221
   -31.3103 -31.3075 -31.2606 -31.2545 -31.2515 -31.2486 -31.2462 -31.2396
     7.1661   7.2406   7.3142   7.4988   7.5986   7.7839   7.8605   7.9807
     8.0307   8.1157   8.1642   8.2715   8.3416   8.4756   8.5427   8.6942
     8.7502   8.7643   8.8605   8.8872   8.9409   8.9543   8.9695   9.0113
     9.1112   9.1184   9.1784   9.2032   9.2104   9.2439   9.2563   9.3562
     9.3925   9.4011   9.4172   9.4779   9.6112   9.6236   9.6448   9.6943
     9.7903   9.8047   9.8353   9.8792   9.9061   9.9735   9.9912  10.1697
    10.2324  10.2381  10.3090  10.3852  10.3980  10.4318  10.4939  10.5138
    10.5520  10.6388  10.7097  10.7299  10.8235  10.8602  10.8750  10.9109
    10.9678  11.0160  11.0376  11.0916  11.1227  11.1264  11.1912  11.2097
    11.2098  11.2463  11.2801  11.3118  11.3418  11.3664  11.3934  11.3977
    11.4213  11.4327  11.4515  11.4655  11.5105  11.5629  11.5688  11.5863
    11.6526  11.6713  11.6747  11.6992  11.7277  11.7531  11.8044  11.8137
    11.8216  11.8704  11.8953  11.9156  11.9205  12.0459  12.1373  12.1755
    12.1991  12.2722  12.3926  12.4648  12.4757  12.4773  12.5174  12.6167
    12.6798  12.7833  12.8150  12.8222  13.6064  14.0112  14.3862  14.5419
    14.6936  14.7543  15.0385  15.2013  15.3946  15.6030  15.7801  16.0531
    16.3037  16.4812  16.5564  16.6129  16.6877  16.7266  16.8440  16.8983
    16.9867  17.1427  17.2049  17.2169  17.2610  17.6452  17.7503  17.9901
    18.9326  19.3075

          k = 0.0000 0.3333 0.0319 ( 14062 PWs)   bands (ev):

   -67.1035 -67.0194 -66.9986 -66.8941 -66.8880 -62.4904 -62.4307 -62.4215
   -35.8741 -35.8258 -35.8165 -35.7877 -35.7750 -35.7443 -35.7349 -35.7202
   -35.7108 -35.6741 -35.6695 -35.6159 -35.6090 -35.6065 -35.5997 -31.3221
   -31.3103 -31.3075 -31.2606 -31.2545 -31.2515 -31.2486 -31.2462 -31.2396
     7.1728   7.2192   7.3484   7.4544   7.6475   7.7415   7.8893   7.9614
     8.0503   8.0931   8.1896   8.2440   8.3708   8.4452   8.5655   8.6782
     8.7536   8.7762   8.8544   8.8703   8.9452   8.9614   8.9840   9.0110
     9.1112   9.1184   9.1783   9.2025   9.2118   9.2269   9.2432   9.3535
     9.3928   9.4009   9.4375   9.5030   9.6095   9.6260   9.6499   9.6925
     9.7258   9.8034   9.8429   9.8776   9.9001   9.9936  10.0442  10.1704
    10.2201  10.2396  10.2573  10.3799  10.3950  10.4546  10.4990  10.5161
    10.5687  10.6364  10.6851  10.7535  10.8266  10.8632  10.8828  10.9155
    10.9643  11.0048  11.0578  11.0837  11.0929  11.1188  11.1713  11.1907
    11.2142  11.2317  11.2846  11.3367  11.3497  11.3677  11.3888  11.4030
    11.4239  11.4461  11.4610  11.4718  11.5327  11.5494  11.5614  11.5925
    11.6360  11.6580  11.6919  11.6973  11.7284  11.7818  11.8042  11.8163
    11.8196  11.8705  11.8884  11.9105  11.9123  12.0616  12.1373  12.1803
    12.1994  12.2842  12.3463  12.3941  12.4584  12.4760  12.5217  12.6168
    12.6795  12.7833  12.8222  12.9996  13.4110  14.1911  14.4093  14.4767
    14.5950  14.7891  15.0213  15.2461  15.4511  15.5518  15.7654  16.0561
    16.2945  16.4812  16.5564  16.6148  16.6877  16.7303  16.8504  16.8775
    17.0307  17.1427  17.2049  17.2169  17.2427  17.6412  17.7616  17.9757
    18.9401  19.2326

          k = 0.0000 0.3333-0.0478 ( 14060 PWs)   bands (ev):

   -67.1035 -67.0194 -66.9986 -66.8941 -66.8880 -62.4904 -62.4307 -62.4215
   -35.8741 -35.8258 -35.8165 -35.7877 -35.7750 -35.7443 -35.7349 -35.7202
   -35.7108 -35.6741 -35.6695 -35.6159 -35.6090 -35.6065 -35.5997 -31.3221
   -31.3103 -31.3075 -31.2606 -31.2545 -31.2515 -31.2486 -31.2462 -31.2396
     7.1780   7.2087   7.3712   7.4283   7.6911   7.7001   7.9041   7.9498
     8.0696   8.0729   8.2143   8.2184   8.3909   8.4248   8.5756   8.6701
     8.7554   8.7816   8.8507   8.8641   8.9466   8.9617   8.9942   9.0105
     9.1112   9.1184   9.1782   9.2022   9.2124   9.2135   9.2429   9.3529
     9.3930   9.4009   9.4422   9.5219   9.6089   9.6271   9.6611   9.6865
     9.6917   9.8029   9.8473   9.8761   9.8971   9.9947  10.0870  10.1708
    10.1919  10.2409  10.2443  10.3774  10.3932  10.4603  10.5024  10.5186
    10.5790  10.6349  10.6718  10.7661  10.8328  10.8517  10.8943  10.9178
    10.9810  10.9979  11.0161  11.0886  11.1171  11.1259  11.1329  11.1883
    11.2163  11.2289  11.2859  11.3446  11.3542  11.3675  11.3870  11.4019
    11.4248  11.4533  11.4640  11.4765  11.5396  11.5454  11.5643  11.5966
    11.6210  11.6566  11.6967  11.7000  11.7286  11.7983  11.8030  11.8131
    11.8199  11.8707  11.8893  11.9033  11.9087  12.0701  12.1373  12.1709
    12.2429  12.2634  12.2892  12.3949  12.4551  12.4756  12.5236  12.6168
    12.6794  12.7833  12.8222  13.1480  13.2589  14.3135  14.4030  14.4711
    14.4814  14.8420  14.9708  15.3250  15.4047  15.5687  15.7450  16.0599
    16.2895  16.4812  16.5564  16.6156  16.6876  16.7321  16.8583  16.8649
    17.0527  17.1427  17.2049  17.2169  17.2311  17.6392  17.7678  17.9679
    18.9450  19.2030

          k = 0.0000-0.5000 0.0000 ( 14098 PWs)   bands (ev):

   -67.1042 -67.0200 -66.9993 -66.8948 -66.8887 -62.4894 -62.4297 -62.4205
   -35.8738 -35.8286 -35.8163 -35.7875 -35.7747 -35.7471 -35.7348 -35.7230
   -35.7106 -35.6738 -35.6692 -35.6187 -35.6118 -35.6064 -35.5995 -31.3260
   -31.3100 -31.3071 -31.2644 -31.2554 -31.2541 -31.2484 -31.2458 -31.2394
     7.9314   7.9319   7.9802   7.9883   8.0203   8.0360   8.1267   8.1300
     8.2222   8.2567   8.2616   8.3259   8.3262   8.3804   8.4966   8.5085
     8.6778   8.6832   8.8201   8.8449   8.9426   8.9434   9.0224   9.0249
     9.0390   9.0589   9.0684   9.1318   9.2388   9.2464   9.3351   9.3797
     9.4967   9.4972   9.5312   9.5461   9.5729   9.5822   9.6297   9.6309
     9.6903   9.7652   9.7801   9.8181   9.8340   9.8411   9.8898  10.0694
    10.1326  10.1791  10.2032  10.2064  10.3364  10.4633  10.4703  10.4710
    10.5879  10.6591  10.8610  10.9537  11.0359  11.0696  11.1297  11.1722
    11.1783  11.2133  11.2203  11.2769  11.2855  11.3007  11.3091  11.3189
    11.3262  11.3374  11.3380  11.3986  11.4081  11.4766  11.4898  11.5222
    11.5445  11.5749  11.5752  11.6378  11.6410  11.7233  11.7452  11.8552
    11.9217  11.9869  12.1100  12.1326  12.1339  12.1406  12.1441  12.2368
    12.2818  12.2924  12.3118  12.3259  12.3612  12.3764  12.4062  12.4967
    12.5221  12.5328  12.5553  12.5770  12.6105  12.7018  12.7072  12.7115
    12.7152  12.8461  12.8465  12.8822  12.9822  13.1039  13.1511  13.4608
    13.5326  13.5909  13.6148  14.1140  14.1313  14.1507  14.2128  14.5212
    14.5492  16.2394  16.3469  16.4512  16.5206  16.5448  16.5588  16.6074
    16.6950  16.7142  17.2670  17.3303  17.3376  17.6574  17.7366  17.7428
    19.0754  19.0914

          k = 0.0000-0.5000 0.0159 ( 14106 PWs)   bands (ev):

   -67.1042 -67.0200 -66.9993 -66.8948 -66.8887 -62.4894 -62.4297 -62.4205
   -35.8738 -35.8286 -35.8163 -35.7875 -35.7747 -35.7471 -35.7348 -35.7230
   -35.7106 -35.6738 -35.6692 -35.6187 -35.6118 -35.6064 -35.5995 -31.3260
   -31.3100 -31.3071 -31.2644 -31.2554 -31.2541 -31.2484 -31.2458 -31.2394
     7.9315   7.9318   7.9796   7.9892   8.0190   8.0372   8.1281   8.1285
     8.2193   8.2594   8.2643   8.3230   8.3253   8.3819   8.4965   8.5080
     8.6787   8.6843   8.8178   8.8430   8.9426   8.9434   9.0224   9.0280
     9.0390   9.0590   9.0684   9.1355   9.2388   9.2464   9.3314   9.3750
     9.4970   9.4972   9.5298   9.5450   9.5760   9.5818   9.6290   9.6309
     9.6903   9.7657   9.7902   9.8181   9.8336   9.8411   9.9003  10.0513
    10.1138  10.1912  10.2032  10.2064  10.3446  10.4633  10.4702  10.4710
    10.5864  10.6644  10.8610  10.9533  11.0398  11.0647  11.1297  11.1712
    11.1790  11.2133  11.2207  11.2774  11.2826  11.2998  11.3120  11.3208
    11.3236  11.3386  11.3387  11.3861  11.3993  11.4853  11.4924  11.5218
    11.5456  11.5746  11.5747  11.6378  11.6520  11.7236  11.7496  11.8552
    11.9119  11.9865  12.1101  12.1305  12.1344  12.1433  12.1441  12.2377
    12.2822  12.2921  12.3118  12.3239  12.3561  12.3787  12.4135  12.4969
    12.5220  12.5328  12.5551  12.5731  12.5998  12.7072  12.7116  12.7153
    12.7239  12.8461  12.8465  12.8715  12.9663  13.1151  13.1724  13.4347
    13.4759  13.6485  13.6512  14.0366  14.0692  14.2269  14.2725  14.5086
    14.5373  16.2407  16.3472  16.4503  16.5206  16.5448  16.5588  16.6074
    16.6950  16.7142  17.2670  17.3303  17.3376  17.6574  17.7366  17.7428
    19.0811  19.0954

          k = 0.0000-0.5000 0.0319 ( 14114 PWs)   bands (ev):

   -67.1042 -67.0200 -66.9993 -66.8948 -66.8887 -62.4894 -62.4297 -62.4205
   -35.8738 -35.8286 -35.8163 -35.7875 -35.7747 -35.7471 -35.7348 -35.7230
   -35.7106 -35.6738 -35.6692 -35.6187 -35.6118 -35.6064 -35.5995 -31.3260
   -31.3100 -31.3071 -31.2644 -31.2554 -31.2541 -31.2484 -31.2458 -31.2394
     7.9316   7.9318   7.9782   7.9913   8.0162   8.0398   8.1254   8.1309
     8.2139   8.2654   8.2690   8.3163   8.3240   8.3848   8.4963   8.5071
     8.6806   8.6866   8.8133   8.8392   8.9426   8.9434   9.0223   9.0341
     9.0390   9.0590   9.0684   9.1432   9.2388   9.2463   9.3238   9.3653
     9.4972   9.4975   9.5275   9.5430   9.5810   9.5814   9.6276   9.6308
     9.6902   9.7667   9.8125   9.8182   9.8329   9.8410   9.9269  10.0185
    10.0736  10.2032  10.2064  10.2095  10.3580  10.4633  10.4702  10.4710
    10.5836  10.6756  10.8610  10.9525  11.0479  11.0545  11.1297  11.1688
    11.1803  11.2134  11.2216  11.2780  11.2782  11.2989  11.3134  11.3220
    11.3246  11.3407  11.3414  11.3675  11.3809  11.4957  11.4967  11.5211
    11.5474  11.5737  11.5744  11.6378  11.6769  11.7241  11.7584  11.8552
    11.8905  11.9858  12.1101  12.1261  12.1353  12.1440  12.1483  12.2395
    12.2832  12.2915  12.3118  12.3201  12.3483  12.3830  12.4261  12.4974
    12.5220  12.5329  12.5548  12.5660  12.5820  12.7072  12.7116  12.7396
    12.7436  12.8461  12.8465  12.8482  12.9377  13.1381  13.2170  13.3936
    13.4073  13.7123  13.7294  13.9511  13.9857  14.3095  14.3506  14.4742
    14.5049  16.2433  16.3478  16.4485  16.5206  16.5448  16.5588  16.6074
    16.6949  16.7142  17.2670  17.3303  17.3376  17.6576  17.7365  17.7428
[...]
    11.2195  11.3138  11.3337  11.3538  11.4037  11.4241  11.5881  11.6706
    11.6745  11.6826  11.7004  11.7328  11.7431  11.7979  11.8010  11.8525
    11.9558  12.0306  12.0314  12.1011  12.1838  12.1937  12.2408  12.2982
    12.3866  12.4070  12.4523  12.6353  12.7453  13.0033  13.2110  13.5112
    13.7683  14.1285  14.3021  14.6550  15.3740  15.4665  15.4804  15.5036
    15.5178  15.5679  15.8041  15.9554  16.3152  16.4766  16.6001  16.6654
    16.6859  16.8779  16.8988  16.9249  16.9597  16.9843  17.0599  17.0644
    17.2286  17.2425  17.3515  17.5117  17.5829  17.6948  17.8313  17.8611
    17.8755  17.9731  18.0871  18.1161  18.2868  18.3914  18.4928  18.5012
    18.6504  18.7394

          k = 0.3333 0.3333-0.0478 ( 14082 PWs)   bands (ev):

   -67.1141 -67.0434 -67.0201 -62.4840 -62.4132 -62.4048 -62.3213 -62.3169
   -35.8874 -35.8359 -35.8358 -35.8194 -35.7967 -35.7650 -35.7649 -35.7424
   -35.7424 -31.3144 -31.3141 -31.3008 -31.2436 -31.2433 -31.2343 -31.2340
   -31.2336 -31.2279 -31.1501 -31.1498 -31.1495 -31.1464 -31.1450 -31.1447
     7.7797   7.9157   8.1979   8.2570   8.3793   8.4606   8.5930   8.6696
     8.7269   8.7375   8.8025   8.8522   8.8994   8.9910   9.0280   9.0814
     9.1580   9.1621   9.1813   9.1957   9.2074   9.2342   9.2505   9.2621
     9.3026   9.3487   9.3790   9.3990   9.4204   9.4684   9.5260   9.5832
     9.6144   9.6183   9.6859   9.7302   9.8102   9.8185   9.8279   9.8410
     9.8454   9.8597   9.9473   9.9628   9.9760   9.9922  10.0882  10.1191
    10.2037  10.2357  10.2892  10.3191  10.3356  10.4124  10.4346  10.4849
    10.5397  10.5397  10.5570  10.5761  10.6651  10.7553  10.8346  10.8953
    10.9485  11.0302  11.0556  11.0837  11.0907  11.1271  11.1284  11.1323
    11.2163  11.3337  11.3471  11.3538  11.3664  11.4241  11.6143  11.6532
    11.6706  11.6825  11.7013  11.7304  11.7431  11.8044  11.8065  11.8415
    11.9655  12.0240  12.0310  12.1012  12.1849  12.1940  12.2415  12.2938
    12.4069  12.4141  12.4218  12.6716  12.7059  13.0325  13.1787  13.5470
    13.7304  14.1941  14.2442  14.6634  15.3719  15.4666  15.4803  15.5035
    15.5180  15.5679  15.8057  15.9555  16.3148  16.4720  16.6088  16.6639
    16.6816  16.8774  16.8986  16.9274  16.9653  16.9843  17.0575  17.0610
    17.2301  17.2413  17.3515  17.5122  17.5829  17.6942  17.8360  17.8625
    17.8957  17.9274  18.0725  18.1256  18.2680  18.5087  18.5108  18.5167
    18.6504  18.6665

          k = 0.3333-0.5000 0.0000 ( 14154 PWs)   bands (ev):

   -67.1142 -67.0436 -67.0203 -62.4836 -62.4128 -62.4044 -62.3209 -62.3165
   -35.8872 -35.8386 -35.8356 -35.8192 -35.7965 -35.7677 -35.7647 -35.7452
   -35.7422 -31.3180 -31.3140 -31.3006 -31.2472 -31.2431 -31.2379 -31.2338
   -31.2334 -31.2276 -31.1534 -31.1499 -31.1493 -31.1486 -31.1461 -31.1445
     8.0592   8.0682   8.1777   8.2039   8.4170   8.4514   8.5790   8.5909
     8.7361   8.8342   8.8666   8.8744   8.9055   8.9083   8.9482   8.9609
     9.0121   9.0295   9.0401   9.0557   9.1636   9.1715   9.2012   9.2402
     9.2936   9.2990   9.3387   9.4230   9.4388   9.4514   9.5947   9.6476
     9.6489   9.7023   9.7372   9.7796   9.8135   9.8304   9.8978   9.9015
     9.9729  10.0783  10.0862  10.1234  10.1612  10.2176  10.2673  10.3232
    10.3365  10.4682  10.5311  10.5546  10.5706  10.5829  10.6489  10.6711
    10.7133  10.8023  10.8103  10.8664  10.9117  10.9415  10.9711  11.0155
    11.0949  11.1357  11.1393  11.2082  11.2156  11.2678  11.2748  11.3116
    11.3147  11.4527  11.4767  11.4854  11.6461  11.6774  11.6794  11.7271
    11.7304  11.7851  11.7870  11.8172  11.8782  11.9439  11.9615  11.9723
    12.0250  12.0545  12.0746  12.0941  12.1244  12.1966  12.2286  12.6676
    12.7103  12.8055  12.8363  12.9260  13.2463  13.4339  13.4974  13.8004
    13.8808  13.9888  14.1547  14.2247  14.4745  14.5100  14.6191  14.6642
    14.8604  15.2491  15.4265  15.5478  16.3699  16.5899  16.6143  16.7987
    16.8212  16.8476  16.8547  16.8639  16.8901  16.8926  16.9909  17.0920
    17.2562  17.4602  17.4911  17.5912  17.6576  17.7191  17.8711  17.8746
    17.9554  17.9691  18.1485  18.1540  18.3040  18.3051  18.8649  18.9456
    18.9659  18.9747

          k = 0.3333-0.5000 0.0159 ( 14140 PWs)   bands (ev):

   -67.1142 -67.0436 -67.0203 -62.4836 -62.4128 -62.4044 -62.3209 -62.3165
   -35.8872 -35.8386 -35.8356 -35.8192 -35.7965 -35.7677 -35.7647 -35.7452
   -35.7422 -31.3180 -31.3140 -31.3006 -31.2472 -31.2431 -31.2379 -31.2338
   -31.2334 -31.2276 -31.1534 -31.1499 -31.1493 -31.1486 -31.1461 -31.1445
     8.0593   8.0682   8.1775   8.2034   8.4179   8.4553   8.5770   8.5816
     8.7458   8.8373   8.8669   8.8755   8.9068   8.9079   8.9470   8.9600
     8.9940   9.0210   9.0554   9.0596   9.1615   9.1706   9.2072   9.2427
     9.2938   9.2983   9.3325   9.4189   9.4322   9.4759   9.5753   9.6268
     9.6668   9.7180   9.7421   9.7752   9.8168   9.8269   9.8973   9.9012
     9.9663  10.0588  10.0888  10.1443  10.1656  10.2190  10.2670  10.3207
    10.3320  10.4677  10.5313  10.5462  10.5680  10.5895  10.6536  10.6740
    10.7122  10.8054  10.8120  10.8672  10.8916  10.9580  10.9607  11.0296
    11.0868  11.1292  11.1447  11.2077  11.2203  11.2668  11.2719  11.3122
    11.3155  11.4526  11.4767  11.4855  11.6465  11.6776  11.6791  11.7270
    11.7303  11.7849  11.7869  11.8173  11.8783  11.9448  11.9610  11.9691
    12.0215  12.0572  12.0791  12.0977  12.1275  12.1921  12.2238  12.6739
    12.7142  12.7953  12.8321  12.9315  13.2488  13.4322  13.4946  13.8074
    13.8848  13.9759  14.1489  14.2399  14.4829  14.4897  14.6320  14.6565
    14.8628  15.2480  15.4264  15.5482  16.3699  16.5904  16.6131  16.8053
    16.8202  16.8455  16.8557  16.8628  16.8901  16.8926  16.9817  17.0963
    17.2668  17.4503  17.4806  17.6024  17.6651  17.7157  17.8716  17.8727
    17.9497  17.9643  18.1393  18.1433  18.3369  18.3425  18.7703  18.8264
    18.9933  19.0286

          k = 0.3333-0.5000 0.0319 ( 14128 PWs)   bands (ev):

   -67.1142 -67.0436 -67.0203 -62.4836 -62.4128 -62.4044 -62.3209 -62.3165
   -35.8872 -35.8386 -35.8356 -35.8192 -35.7965 -35.7677 -35.7647 -35.7452
   -35.7422 -31.3180 -31.3140 -31.3006 -31.2472 -31.2431 -31.2379 -31.2338
   -31.2334 -31.2276 -31.1534 -31.1499 -31.1493 -31.1486 -31.1461 -31.1445
     8.0595   8.0683   8.1771   8.2025   8.4199   8.4644   8.5634   8.5731
     8.7641   8.8435   8.8677   8.8788   8.9065   8.9106   8.9419   8.9571
     8.9732   9.0075   9.0639   9.0716   9.1591   9.1687   9.2178   9.2479
     9.2958   9.2968   9.3198   9.4013   9.4523   9.5074   9.5448   9.5929
     9.6928   9.7288   9.7641   9.7656   9.8160   9.8231   9.8960   9.9009
     9.9540  10.0345  10.0932  10.1722  10.1746  10.2215  10.2668  10.3151
    10.3221  10.4661  10.5317  10.5359  10.5629  10.5960  10.6642  10.6795
    10.7094  10.8146  10.8156  10.8640  10.8694  10.9391  10.9853  11.0527
    11.0712  11.1141  11.1530  11.2066  11.2299  11.2649  11.2652  11.3135
    11.3171  11.4523  11.4767  11.4856  11.6472  11.6781  11.6784  11.7268
    11.7301  11.7844  11.7867  11.8175  11.8785  11.9473  11.9599  11.9625
    12.0161  12.0611  12.0859  12.1071  12.1361  12.1817  12.2128  12.6895
    12.7228  12.7732  12.8231  12.9411  13.2539  13.4287  13.4888  13.8242
    13.8930  13.9491  14.1375  14.2725  14.4516  14.5014  14.6394  14.6511
    14.8674  15.2457  15.4262  15.5490  16.3699  16.5912  16.6108  16.8180
    16.8214  16.8425  16.8569  16.8588  16.8901  16.8925  16.9630  17.1050
    17.2891  17.4330  17.4589  17.6242  17.6793  17.7069  17.8681  17.8729
    17.9386  17.9552  18.1270  18.1295  18.4157  18.4301  18.6415  18.6831
    18.9965  19.0399

          k = 0.3333-0.5000-0.0478 ( 14140 PWs)   bands (ev):

   -67.1142 -67.0436 -67.0203 -62.4836 -62.4128 -62.4044 -62.3209 -62.3165
   -35.8872 -35.8386 -35.8356 -35.8192 -35.7965 -35.7677 -35.7647 -35.7452
   -35.7422 -31.3180 -31.3140 -31.3006 -31.2472 -31.2431 -31.2379 -31.2338
   -31.2334 -31.2276 -31.1534 -31.1499 -31.1493 -31.1486 -31.1461 -31.1445
     8.0595   8.0684   8.1770   8.2021   8.4209   8.4700   8.5539   8.5711
     8.7730   8.8464   8.8683   8.8819   8.9047   8.9135   8.9368   8.9547
     8.9667   9.0015   9.0653   9.0776   9.1584   9.1679   9.2226   9.2505
     9.2960   9.2994   9.3113   9.3948   9.4656   9.5281   9.5283   9.5708
     9.7052   9.7305   9.7594   9.7837   9.8033   9.8262   9.8952   9.9009
     9.9480  10.0247  10.0951  10.1792  10.1846  10.2225  10.2669  10.3120
    10.3164  10.4650  10.5320  10.5324  10.5606  10.5980  10.6701  10.6821
    10.7074  10.8175  10.8242  10.8475  10.8709  10.9306  10.9972  11.0623
    11.0664  11.1030  11.1566  11.2060  11.2357  11.2606  11.2640  11.3141
    11.3178  11.4522  11.4767  11.4857  11.6476  11.6781  11.6783  11.7267
    11.7300  11.7842  11.7866  11.8176  11.8787  11.9496  11.9583  11.9594
    12.0139  12.0626  12.0884  12.1134  12.1421  12.1753  12.2060  12.7007
    12.7277  12.7593  12.8180  12.9453  13.2565  13.4270  13.4859  13.8351
    13.8972  13.9340  14.1317  14.2919  14.4306  14.5120  14.6295  14.6590
    14.8695  15.2445  15.4261  15.5494  16.3698  16.5916  16.6097  16.8168
    16.8334  16.8414  16.8537  16.8572  16.8901  16.8925  16.9532  17.1095
    17.3015  17.4251  17.4469  17.6360  17.6862  17.7007  17.8653  17.8737
    17.9330  17.9509  18.1226  18.1247  18.5092  18.5287  18.5318  18.5667
    18.9970  19.0412

          k =-0.5000-0.5000 0.0000 ( 14124 PWs)   bands (ev):

   -67.1142 -67.0435 -67.0202 -62.4834 -62.4126 -62.4042 -62.3207 -62.3163
   -35.8870 -35.8383 -35.8383 -35.8190 -35.7963 -35.7674 -35.7674 -35.7449
   -35.7449 -31.3177 -31.3177 -31.3004 -31.2469 -31.2469 -31.2375 -31.2375
   -31.2331 -31.2274 -31.1530 -31.1530 -31.1497 -31.1483 -31.1483 -31.1459
     7.9176   7.9205   8.0381   8.0746   8.3233   8.3574   8.4997   8.5170
     8.6346   8.7163   8.9564   8.9801   8.9964   9.0010   9.0476   9.0476
     9.0917   9.0917   9.1330   9.1330   9.1969   9.2124   9.2504   9.2504
     9.2603   9.2603   9.4977   9.4977   9.5050   9.5050   9.6250   9.6375
     9.6375   9.6464   9.6464   9.6981   9.7439   9.7439   9.7613   9.8491
     9.8491   9.9031   9.9031  10.3075  10.3075  10.3464  10.3758  10.3758
    10.4026  10.4275  10.4996  10.5032  10.8397  10.8397  10.9246  10.9354
    10.9864  10.9864  10.9928  10.9961  11.1203  11.1671  11.1729  11.1900
    11.2026  11.3292  11.3292  11.6631  11.6631  11.7050  11.7227  11.7303
    11.7343  11.7502  11.7592  11.7855  11.7925  11.7956  11.8102  11.8132
    11.8184  11.8378  11.8459  11.8763  11.8803  11.9207  11.9562  11.9644
    12.0118  12.0123  12.0167  12.0605  12.0828  12.0828  12.0871  13.1645
    13.1856  13.2034  13.2266  13.2297  13.6774  13.6774  13.9005  13.9005
    14.0364  14.0364  14.3383  14.3383  14.5620  14.5620  14.9629  14.9629
    15.6473  15.6473  16.3395  16.3589  16.3589  16.4159  16.4317  16.5979
    16.6433  16.6944  16.7826  16.8815  16.9603  16.9603  17.2382  17.2382
    17.4451  17.4589  17.5408  17.6606  17.6999  17.7802  17.8378  17.8667
    17.8879  17.9115  17.9115  17.9514  17.9571  17.9932  17.9932  18.0982
    18.1665  18.4390

          k =-0.5000-0.5000 0.0159 ( 14144 PWs)   bands (ev):

   -67.1142 -67.0435 -67.0202 -62.4834 -62.4126 -62.4042 -62.3207 -62.3163
   -35.8870 -35.8383 -35.8383 -35.8190 -35.7963 -35.7674 -35.7674 -35.7449
   -35.7449 -31.3177 -31.3177 -31.3004 -31.2469 -31.2469 -31.2375 -31.2375
   -31.2331 -31.2274 -31.1530 -31.1530 -31.1497 -31.1483 -31.1483 -31.1459
     7.9176   7.9205   8.0379   8.0742   8.3248   8.3620   8.4952   8.5015
     8.6535   8.7266   8.9180   8.9362   9.0339   9.0454   9.0480   9.0480
     9.0891   9.0891   9.1389   9.1389   9.1898   9.2040   9.2250   9.2250
     9.2890   9.2890   9.4528   9.4528   9.5526   9.5526   9.6263   9.6375
     9.6375   9.6464   9.6464   9.6984   9.7385   9.7385   9.7607   9.8124
     9.8124   9.9477   9.9477  10.2550  10.2550  10.3461  10.4026  10.4278
    10.4284  10.4284  10.4996  10.5031  10.8013  10.8013  10.9246  10.9354
    10.9928  10.9961  11.0242  11.0242  11.1203  11.1671  11.1729  11.1900
    11.2026  11.3128  11.3128  11.6694  11.6694  11.7050  11.7227  11.7303
    11.7343  11.7502  11.7592  11.7855  11.7925  11.7956  11.8102  11.8132
    11.8184  11.8378  11.8459  11.8763  11.8803  11.9207  11.9565  11.9645
    12.0090  12.0123  12.0193  12.0606  12.0814  12.0814  12.0870  13.1645
    13.1856  13.2034  13.2266  13.2297  13.6822  13.6822  13.8848  13.8848
    14.0508  14.0508  14.3339  14.3339  14.5630  14.5630  14.9629  14.9629
    15.6473  15.6473  16.3395  16.3595  16.3595  16.4159  16.4317  16.5972
    16.6434  16.6958  16.7825  16.8801  16.9490  16.9490  17.2672  17.2672
    17.4501  17.4666  17.5321  17.6457  17.7043  17.7802  17.7937  17.7937
    17.8378  17.8667  17.8989  17.9514  17.9571  18.0975  18.1235  18.1235
    18.1633  18.4391

          k =-0.5000-0.5000 0.0319 ( 14180 PWs)   bands (ev):

   -67.1142 -67.0435 -67.0202 -62.4834 -62.4126 -62.4042 -62.3207 -62.3163
   -35.8870 -35.8383 -35.8383 -35.8190 -35.7963 -35.7674 -35.7674 -35.7449
   -35.7449 -31.3177 -31.3177 -31.3004 -31.2469 -31.2469 -31.2375 -31.2375
   -31.2331 -31.2274 -31.1530 -31.1530 -31.1497 -31.1483 -31.1483 -31.1459
     7.9177   7.9206   8.0376   8.0735   8.3278   8.3731   8.4747   8.4867
     8.6892   8.7510   8.8709   8.8894   9.0488   9.0488   9.0804   9.0847
     9.0847   9.0957   9.1530   9.1530   9.1706   9.1804   9.1987   9.1987
     9.3250   9.3250   9.4075   9.4075   9.6053   9.6053   9.6290   9.6375
     9.6375   9.6467   9.6467   9.6990   9.7118   9.7118   9.7594   9.7802
     9.7802  10.0124  10.0124  10.1829  10.1829  10.3457  10.4027  10.4284
    10.4981  10.4981  10.4996  10.5029  10.7364  10.7364  10.9245  10.9354
    10.9928  10.9962  11.0882  11.0882  11.1203  11.1671  11.1729  11.1900
    11.2026  11.2732  11.2732  11.6811  11.6811  11.7050  11.7227  11.7303
    11.7343  11.7502  11.7592  11.7855  11.7925  11.7956  11.8102  11.8132
    11.8184  11.8378  11.8459  11.8763  11.8803  11.9206  11.9569  11.9647
    12.0058  12.0121  12.0223  12.0606  12.0784  12.0784  12.0868  13.1645
    13.1856  13.2035  13.2266  13.2297  13.6932  13.6932  13.8570  13.8570
    14.0753  14.0753  14.3245  14.3245  14.5651  14.5651  14.9629  14.9629
    15.6473  15.6473  16.3395  16.3606  16.3606  16.4159  16.4318  16.5959
    16.6434  16.6987  16.7824  16.8772  16.9299  16.9299  17.3338  17.3338
    17.4641  17.4854  17.5113  17.6146  17.6652  17.6652  17.7125  17.7802
    17.8378  17.8667  17.9193  17.9514  17.9571  18.0961  18.1562  18.2943
    18.2943  18.4393

          k =-0.5000-0.5000-0.0478 ( 14176 PWs)   bands (ev):

   -67.1142 -67.0435 -67.0202 -62.4834 -62.4126 -62.4042 -62.3207 -62.3163
   -35.8870 -35.8383 -35.8383 -35.8190 -35.7963 -35.7674 -35.7674 -35.7449
   -35.7449 -31.3177 -31.3177 -31.3004 -31.2469 -31.2469 -31.2375 -31.2375
   -31.2331 -31.2274 -31.1530 -31.1530 -31.1497 -31.1483 -31.1483 -31.1459
     7.9178   7.9207   8.0374   8.0731   8.3294   8.3804   8.4612   8.4826
     8.7092   8.7674   8.8478   8.8661   9.0493   9.0493   9.0828   9.0828
     9.1073   9.1324   9.1525   9.1530   9.1669   9.1669   9.1810   9.1810
     9.3599   9.3599   9.3695   9.3695   9.6303   9.6367   9.6367   9.6420
     9.6420   9.6589   9.6589   9.6686   9.6686   9.6993   9.7588   9.7730
     9.7730  10.0566  10.0566  10.1362  10.1362  10.3454  10.4027  10.4287
    10.4996  10.5028  10.5354  10.5354  10.6998  10.6998  10.9245  10.9354
    10.9928  10.9962  11.1203  11.1251  11.1251  11.1671  11.1729  11.1900
    11.2026  11.2445  11.2445  11.6867  11.6867  11.7050  11.7227  11.7303
    11.7343  11.7502  11.7592  11.7855  11.7925  11.7956  11.8102  11.8132
    11.8184  11.8378  11.8459  11.8763  11.8803  11.9206  11.9572  11.9647
    12.0045  12.0121  12.0234  12.0606  12.0769  12.0769  12.0866  13.1645
    13.1856  13.2035  13.2266  13.2297  13.6997  13.6997  13.8436  13.8436
    14.0863  14.0863  14.3195  14.3195  14.5661  14.5661  14.9628  14.9628
    15.6472  15.6472  16.3395  16.3612  16.3612  16.4159  16.4318  16.5953
    16.6435  16.7001  16.7823  16.8757  16.9215  16.9215  17.3796  17.3796
    17.4808  17.4916  17.4983  17.5964  17.6000  17.6000  17.7163  17.7802
    17.8378  17.8667  17.9291  17.9514  17.9571  18.0953  18.1524  18.4394
    18.4424  18.4424

     the Fermi energy is    15.0344 ev

!    total energy              =  -14694.01747929 Ry
     Harris-Foulkes estimate   =  -14694.01747641 Ry
     estimated scf accuracy    <       0.00000030 Ry

     total all-electron energy =   -626921.613201 Ry

     The total energy is the sum of the following terms:

     one-electron contribution =    -729.75032862 Ry
     hartree contribution      =     661.42535571 Ry
     xc contribution           =    -737.67185951 Ry
     ewald contribution        =   -2186.64874840 Ry
     Hubbard energy            =       0.44232380 Ry
     one-center paw contrib.   =  -11701.81422226 Ry

     total magnetization       =     8.58 Bohr mag/cell
     absolute magnetization    =    37.32 Bohr mag/cell

     convergence has been achieved in  30 iterations

     Writing output data file mnau2.save/
 
     init_run     :     23.48s CPU     24.06s WALL (       1 calls)
     electrons    :   1570.53s CPU   1603.26s WALL (       1 calls)

     Called by init_run:
     wfcinit      :     21.82s CPU     22.31s WALL (       1 calls)
     potinit      :      0.80s CPU      0.82s WALL (       1 calls)
     hinit0       :      0.55s CPU      0.59s WALL (       1 calls)

     Called by electrons:
     c_bands      :   1384.64s CPU   1411.47s WALL (      30 calls)
     sum_band     :    164.58s CPU    170.00s WALL (      30 calls)
     v_of_rho     :      1.76s CPU      1.79s WALL (      31 calls)
     newd         :      4.92s CPU      4.95s WALL (      31 calls)
     PAW_pot      :     14.66s CPU     14.87s WALL (      31 calls)
     mix_rho      :      0.40s CPU      0.44s WALL (      30 calls)

     Called by c_bands:
     init_us_2    :      8.39s CPU      8.48s WALL (    4960 calls)
     cegterg      :   1335.15s CPU   1361.30s WALL (    2400 calls)

     Called by sum_band:
     sum_band:bec :      1.99s CPU      2.00s WALL (    2400 calls)
     addusdens    :      7.85s CPU      8.29s WALL (      30 calls)

     Called by *egterg:
     h_psi        :    568.19s CPU    582.34s WALL (    7957 calls)
     s_psi        :     82.96s CPU     83.04s WALL (    8037 calls)
     g_psi        :      2.21s CPU      2.23s WALL (    5477 calls)
     cdiaghg      :    479.12s CPU    490.38s WALL (    7877 calls)

     Called by h_psi:
     h_psi:pot    :    531.24s CPU    545.16s WALL (    7957 calls)
     h_psi:calbec :     95.18s CPU     98.45s WALL (    7957 calls)
     vloc_psi     :    355.49s CPU    366.02s WALL (    7957 calls)
     add_vuspsi   :     80.47s CPU     80.63s WALL (    7957 calls)
     vhpsi        :     35.20s CPU     35.42s WALL (    7957 calls)

     General routines
     calbec       :    165.75s CPU    170.95s WALL (   20794 calls)
     fft          :      1.32s CPU      1.40s WALL (     771 calls)
     ffts         :      0.09s CPU      0.10s WALL (     122 calls)
     fftw         :    421.30s CPU    434.39s WALL ( 2259318 calls)
     interpolate  :      0.15s CPU      0.16s WALL (      62 calls)
     davcio       :      0.01s CPU      0.01s WALL (      80 calls)
 
     Parallel routines
     fft_scatt_xy :     21.97s CPU     22.45s WALL ( 2260211 calls)
     fft_scatt_yz :    283.19s CPU    292.94s WALL ( 2260211 calls)

     Hubbard U routines
     new_ns       :      7.89s CPU      8.21s WALL (      30 calls)
     vhpsi        :     35.20s CPU     35.42s WALL (    7957 calls)
 
     PWSCF        : 26m43.62s CPU    27m45.31s WALL

 
   This run was terminated on:  17:51: 1  29Mar2019            

=------------------------------------------------------------------------------=
   JOB DONE.
=------------------------------------------------------------------------------=
