
     Program PWSCF v.6.3MaX starts on 29Mar2019 at 17:51: 2 

     This program is part of the open-source Quantum ESPRESSO suite
     for quantum simulation of materials; please cite
         "P. Giannozzi et al., J. Phys.:Condens. Matter 21 395502 (2009);
         "P. Giannozzi et al., J. Phys.:Condens. Matter 29 465901 (2017);
          URL http://www.quantum-espresso.org", 
     in publications or presentations arising from this work. More details at
     http://www.quantum-espresso.org/quote

     Parallel version (MPI), running on    32 processors

     MPI processes distributed on     2 nodes
     R & G space division:  proc/nbgrp/npool/nimage =      32
     Waiting for input...
     Reading input from standard input

     Current dimensions of program PWSCF are:
     Max number of different atomic species (ntypx) = 10
     Max number of k-points (npk) =  40000
     Max angular momentum in pseudopotentials (lmaxx) =  3
     Message from routine read_upf::
     Pseudo file ./pseudo/Mn.pbe-spn-kjpaw_psl.0.3.1.UPF has been successfully fixed on the fly.
To avoid this message in the future you can permanently fix 
 your pseudo files following instructions given in: 
https://gitlab.com/QEF/q-e/blob/master/upftools/how_to_fix_upf.md
               file Mn.pbe-spn-kjpaw_psl.0.3.1.UPF: wavefunction(s)  3P 3D renormalized
     Message from routine read_upf::
     Pseudo file ./pseudo/Mn.pbe-spn-kjpaw_psl.0.3.1.UPF has been successfully fixed on the fly.
To avoid this message in the future you can permanently fix 
 your pseudo files following instructions given in: 
https://gitlab.com/QEF/q-e/blob/master/upftools/how_to_fix_upf.md
               file Mn.pbe-spn-kjpaw_psl.0.3.1.UPF: wavefunction(s)  3P 3D renormalized
     Message from routine read_upf::
     Pseudo file ./pseudo/Au.pbe-dn-kjpaw_psl.0.1.UPF has been successfully fixed on the fly.
To avoid this message in the future you can permanently fix 
 your pseudo files following instructions given in: 
https://gitlab.com/QEF/q-e/blob/master/upftools/how_to_fix_upf.md
               file Au.pbe-dn-kjpaw_psl.0.1.UPF: wavefunction(s)  6S 6P 5D renormalized

     Subspace diagonalization in iterative solution of the eigenvalue problem:
     one sub-group per band group will be used
     scalapack distributed-memory algorithm (size of sub-group:  4*  4 procs)

 
     Parallelization info
     --------------------
     sticks:   dense  smooth     PW     G-vecs:    dense   smooth      PW
     Min          41      18      5                11647     3506     571
     Max          42      19      6                11691     3549     614
     Sum        1313     593    177               373547   112863   18983
 


     bravais-lattice index     =            0
     lattice parameter (alat)  =       6.4153  a.u.
     unit-cell volume          =    2762.7331 (a.u.)^3
     number of atoms/cell      =           24
     number of atomic types    =            3
     number of electrons       =       296.00
     number of Kohn-Sham states=          178
     kinetic-energy cutoff     =      45.0000  Ry
     charge density cutoff     =     400.0000  Ry
     convergence threshold     =      1.0E-06
     mixing beta               =       0.1000
     number of iterations used =            8  plain     mixing
     Exchange-correlation      = SLA PW PBX PBC ( 1  4  3  4 0 0)

     celldm(1)=   6.415315  celldm(2)=   0.000000  celldm(3)=   0.000000
     celldm(4)=   0.000000  celldm(5)=   0.000000  celldm(6)=   0.000000

     crystal axes: (cart. coord. in units of alat)
               a(1) = (   1.000000   0.000000   0.000000 )  
               a(2) = (   0.000000   1.000000   0.000000 )  
               a(3) = (   0.000000   0.000000  10.463692 )  

     reciprocal axes: (cart. coord. in units 2 pi/alat)
               b(1) = (  1.000000  0.000000  0.000000 )  
               b(2) = (  0.000000  1.000000  0.000000 )  
               b(3) = (  0.000000  0.000000  0.095569 )  


     PseudoPot. # 1 for Mn read from file:
     ./pseudo/Mn.pbe-spn-kjpaw_psl.0.3.1.UPF
     MD5 check sum: 7eef95dd2aae66803482eea66ebeebf1
     Pseudo is Projector augmented-wave + core cor, Zval = 15.0
     Generated using "atomic" code by A. Dal Corso v.5.0.99 svn rev. 10869
     Shape of augmentation charge: PSQ
     Using radial grid of 1187 points,  6 beta functions with: 
                l(1) =   0
                l(2) =   0
                l(3) =   1
                l(4) =   1
                l(5) =   2
                l(6) =   2
     Q(r) pseudized with 0 coefficients 


     PseudoPot. # 2 for Mn read from file:
     ./pseudo/Mn.pbe-spn-kjpaw_psl.0.3.1.UPF
     MD5 check sum: 7eef95dd2aae66803482eea66ebeebf1
     Pseudo is Projector augmented-wave + core cor, Zval = 15.0
     Generated using "atomic" code by A. Dal Corso v.5.0.99 svn rev. 10869
     Shape of augmentation charge: PSQ
     Using radial grid of 1187 points,  6 beta functions with: 
                l(1) =   0
                l(2) =   0
                l(3) =   1
                l(4) =   1
                l(5) =   2
                l(6) =   2
     Q(r) pseudized with 0 coefficients 


     PseudoPot. # 3 for Au read from file:
     ./pseudo/Au.pbe-dn-kjpaw_psl.0.1.UPF
     MD5 check sum: 5c9b92683623e7ae2ab3f8e525febab6
     Pseudo is Projector augmented-wave + core cor, Zval = 11.0
     Generated using "atomic" code by A. Dal Corso v.5.0.2 svn rev. 9415
     Shape of augmentation charge: PSQ
     Using radial grid of 1279 points,  6 beta functions with: 
                l(1) =   0
                l(2) =   0
                l(3) =   1
                l(4) =   1
                l(5) =   2
                l(6) =   2
     Q(r) pseudized with 0 coefficients 


     atomic species   valence    mass     pseudopotential
        Mn1           15.00    54.93800     Mn( 1.00)
        Mn2           15.00    54.93800     Mn( 1.00)
        Au            11.00   196.96600     Au( 1.00)

     Starting magnetic structure 
     atomic species   magnetization
        Mn1          0.800
        Mn2         -0.800
        Au           0.000


     Full LDA+U calculation (l_max = 2) with parameters (eV):
     U(  1) =   3.1200   J(  1) =   0.7000   B(  1) =   0.0803
     U(  2) =   3.1200   J(  2) =   0.7000   B(  2) =   0.0803



      8 Sym. Ops. (no inversion) found



   Cartesian axes

     site n.     atom                  positions (alat units)
         1           Mn1 tau(   1) = (   0.0000000   0.0000000   0.0000000  )
         2           Mn1 tau(   2) = (   0.5000000   0.5000000   1.3079615  )
         3           Mn1 tau(   3) = (   0.0000000   0.0000000   2.6159231  )
         4           Mn1 tau(   4) = (   0.5000000   0.5000000   3.9238846  )
         5           Mn2 tau(   5) = (   0.0000000   0.0000000   5.2318461  )
         6           Mn2 tau(   6) = (   0.5000000   0.5000000   6.5398077  )
         7           Mn2 tau(   7) = (   0.0000000   0.0000000   7.8477692  )
         8           Mn2 tau(   8) = (   0.5000000   0.5000000   9.1557307  )
         9           Au  tau(   9) = (   0.5000000   0.5000000   0.4185477  )
        10           Au  tau(  10) = (   0.0000000   0.0000000   0.8894138  )
        11           Au  tau(  11) = (   0.0000000   0.0000000   1.7265092  )
        12           Au  tau(  12) = (   0.5000000   0.5000000   2.1973754  )
        13           Au  tau(  13) = (   0.5000000   0.5000000   3.0344708  )
        14           Au  tau(  14) = (   0.0000000   0.0000000   3.5053369  )
        15           Au  tau(  15) = (   0.0000000   0.0000000   4.3424323  )
        16           Au  tau(  16) = (   0.5000000   0.5000000   4.8132984  )
        17           Au  tau(  17) = (   0.5000000   0.5000000   5.6503938  )
        18           Au  tau(  18) = (   0.0000000   0.0000000   6.1212600  )
        19           Au  tau(  19) = (   0.0000000   0.0000000   6.9583554  )
        20           Au  tau(  20) = (   0.5000000   0.5000000   7.4292215  )
        21           Au  tau(  21) = (   0.5000000   0.5000000   8.2663169  )
        22           Au  tau(  22) = (   0.0000000   0.0000000   8.7371830  )
        23           Au  tau(  23) = (   0.0000000   0.0000000   9.5742784  )
        24           Au  tau(  24) = (   0.5000000   0.5000000  10.0451446  )

     number of k points=    40 (tetrahedron method)
                       cart. coord. in units 2pi/alat
        k(    1) = (   0.0000000   0.0000000   0.0000000), wk =   0.0046296
        k(    2) = (   0.0000000   0.0000000   0.0159281), wk =   0.0092593
        k(    3) = (   0.0000000   0.0000000   0.0318562), wk =   0.0092593
        k(    4) = (   0.0000000   0.0000000  -0.0477843), wk =   0.0046296
        k(    5) = (   0.0000000   0.1666667   0.0000000), wk =   0.0185185
        k(    6) = (   0.0000000   0.1666667   0.0159281), wk =   0.0370370
        k(    7) = (   0.0000000   0.1666667   0.0318562), wk =   0.0370370
        k(    8) = (   0.0000000   0.1666667  -0.0477843), wk =   0.0185185
        k(    9) = (   0.0000000   0.3333333   0.0000000), wk =   0.0185185
        k(   10) = (   0.0000000   0.3333333   0.0159281), wk =   0.0370370
        k(   11) = (   0.0000000   0.3333333   0.0318562), wk =   0.0370370
        k(   12) = (   0.0000000   0.3333333  -0.0477843), wk =   0.0185185
        k(   13) = (   0.0000000  -0.5000000   0.0000000), wk =   0.0092593
        k(   14) = (   0.0000000  -0.5000000   0.0159281), wk =   0.0185185
        k(   15) = (   0.0000000  -0.5000000   0.0318562), wk =   0.0185185
        k(   16) = (   0.0000000  -0.5000000  -0.0477843), wk =   0.0092593
        k(   17) = (   0.1666667   0.1666667   0.0000000), wk =   0.0185185
        k(   18) = (   0.1666667   0.1666667   0.0159281), wk =   0.0370370
        k(   19) = (   0.1666667   0.1666667   0.0318562), wk =   0.0370370
        k(   20) = (   0.1666667   0.1666667  -0.0477843), wk =   0.0185185
        k(   21) = (   0.1666667   0.3333333   0.0000000), wk =   0.0370370
        k(   22) = (   0.1666667   0.3333333   0.0159281), wk =   0.0740741
        k(   23) = (   0.1666667   0.3333333   0.0318562), wk =   0.0740741
        k(   24) = (   0.1666667   0.3333333  -0.0477843), wk =   0.0370370
        k(   25) = (   0.1666667  -0.5000000   0.0000000), wk =   0.0185185
        k(   26) = (   0.1666667  -0.5000000   0.0159281), wk =   0.0370370
        k(   27) = (   0.1666667  -0.5000000   0.0318562), wk =   0.0370370
        k(   28) = (   0.1666667  -0.5000000  -0.0477843), wk =   0.0185185
        k(   29) = (   0.3333333   0.3333333   0.0000000), wk =   0.0185185
        k(   30) = (   0.3333333   0.3333333   0.0159281), wk =   0.0370370
        k(   31) = (   0.3333333   0.3333333   0.0318562), wk =   0.0370370
        k(   32) = (   0.3333333   0.3333333  -0.0477843), wk =   0.0185185
        k(   33) = (   0.3333333  -0.5000000   0.0000000), wk =   0.0185185
        k(   34) = (   0.3333333  -0.5000000   0.0159281), wk =   0.0370370
        k(   35) = (   0.3333333  -0.5000000   0.0318562), wk =   0.0370370
        k(   36) = (   0.3333333  -0.5000000  -0.0477843), wk =   0.0185185
        k(   37) = (  -0.5000000  -0.5000000   0.0000000), wk =   0.0046296
        k(   38) = (  -0.5000000  -0.5000000   0.0159281), wk =   0.0092593
        k(   39) = (  -0.5000000  -0.5000000   0.0318562), wk =   0.0092593
        k(   40) = (  -0.5000000  -0.5000000  -0.0477843), wk =   0.0046296

     Dense  grid:   373547 G-vectors     FFT dimensions: (  45,  45, 432)

     Smooth grid:   112863 G-vectors     FFT dimensions: (  27,  27, 288)

     Estimated max dynamical RAM per process >     174.65 MB

     Estimated total dynamical RAM >       5.46 GB
     Generating pointlists ...
     new r_m :   0.3389 (alat units)  2.1745 (a.u.) for type    1
     new r_m :   0.3389 (alat units)  2.1745 (a.u.) for type    2
     new r_m :   0.3389 (alat units)  2.1745 (a.u.) for type    3

     Check: negative/imaginary core charge=   -0.000006    0.000000

     Initial potential from superposition of free atoms

     starting charge  295.99426, renormalised to  296.00000
     Number of +U iterations with fixed ns =  0
     Starting occupations:
 --- enter write_ns ---
 LDA+U parameters:
U(  1) =   3.1200   J(  1) =   0.7000   B(  1) =   0.0803
U(  2) =   3.1200   J(  2) =   0.7000   B(  2) =   0.0803
atom    1   Tr[ns(na)] (up, down, total) =   5.00000  0.00000  5.00000
   spin  1
    eigenvalues: 
  1.000  1.000  1.000  1.000  1.000
    eigenvectors:
  1.000  0.000  0.000  0.000  0.000
  0.000  1.000  0.000  0.000  0.000
  0.000  0.000  1.000  0.000  0.000
  0.000  0.000  0.000  1.000  0.000
  0.000  0.000  0.000  0.000  1.000
    occupations:
  1.000  0.000  0.000  0.000  0.000
  0.000  1.000  0.000  0.000  0.000
  0.000  0.000  1.000  0.000  0.000
  0.000  0.000  0.000  1.000  0.000
  0.000  0.000  0.000  0.000  1.000
   spin  2
    eigenvalues: 
  0.000  0.000  0.000  0.000  0.000
    eigenvectors:
  1.000  0.000  0.000  0.000  0.000
  0.000  1.000  0.000  0.000  0.000
  0.000  0.000  1.000  0.000  0.000
  0.000  0.000  0.000  1.000  0.000
  0.000  0.000  0.000  0.000  1.000
    occupations:
  0.000  0.000  0.000  0.000  0.000
  0.000  0.000  0.000  0.000  0.000
  0.000  0.000  0.000  0.000  0.000
  0.000  0.000  0.000  0.000  0.000
  0.000  0.000  0.000  0.000  0.000
atomic mag. moment =     5.000000
atom    2   Tr[ns(na)] (up, down, total) =   5.00000  0.00000  5.00000
   spin  1
    eigenvalues: 
  1.000  1.000  1.000  1.000  1.000
    eigenvectors:
  1.000  0.000  0.000  0.000  0.000
  0.000  1.000  0.000  0.000  0.000
  0.000  0.000  1.000  0.000  0.000
  0.000  0.000  0.000  1.000  0.000
  0.000  0.000  0.000  0.000  1.000
    occupations:
  1.000  0.000  0.000  0.000  0.000
  0.000  1.000  0.000  0.000  0.000
  0.000  0.000  1.000  0.000  0.000
  0.000  0.000  0.000  1.000  0.000
  0.000  0.000  0.000  0.000  1.000
   spin  2
    eigenvalues: 
  0.000  0.000  0.000  0.000  0.000
    eigenvectors:
  1.000  0.000  0.000  0.000  0.000
  0.000  1.000  0.000  0.000  0.000
  0.000  0.000  1.000  0.000  0.000
  0.000  0.000  0.000  1.000  0.000
  0.000  0.000  0.000  0.000  1.000
    occupations:
  0.000  0.000  0.000  0.000  0.000
  0.000  0.000  0.000  0.000  0.000
  0.000  0.000  0.000  0.000  0.000
  0.000  0.000  0.000  0.000  0.000
  0.000  0.000  0.000  0.000  0.000
atomic mag. moment =     5.000000
atom    3   Tr[ns(na)] (up, down, total) =   5.00000  0.00000  5.00000
   spin  1
    eigenvalues: 
  1.000  1.000  1.000  1.000  1.000
    eigenvectors:
  1.000  0.000  0.000  0.000  0.000
  0.000  1.000  0.000  0.000  0.000
  0.000  0.000  1.000  0.000  0.000
  0.000  0.000  0.000  1.000  0.000
  0.000  0.000  0.000  0.000  1.000
    occupations:
  1.000  0.000  0.000  0.000  0.000
  0.000  1.000  0.000  0.000  0.000
  0.000  0.000  1.000  0.000  0.000
  0.000  0.000  0.000  1.000  0.000
  0.000  0.000  0.000  0.000  1.000
   spin  2
    eigenvalues: 
  0.000  0.000  0.000  0.000  0.000
    eigenvectors:
  1.000  0.000  0.000  0.000  0.000
  0.000  1.000  0.000  0.000  0.000
  0.000  0.000  1.000  0.000  0.000
  0.000  0.000  0.000  1.000  0.000
  0.000  0.000  0.000  0.000  1.000
    occupations:
  0.000  0.000  0.000  0.000  0.000
  0.000  0.000  0.000  0.000  0.000
  0.000  0.000  0.000  0.000  0.000
  0.000  0.000  0.000  0.000  0.000
  0.000  0.000  0.000  0.000  0.000
atomic mag. moment =     5.000000
atom    4   Tr[ns(na)] (up, down, total) =   5.00000  0.00000  5.00000
   spin  1
    eigenvalues: 
  1.000  1.000  1.000  1.000  1.000
    eigenvectors:
  1.000  0.000  0.000  0.000  0.000
  0.000  1.000  0.000  0.000  0.000
  0.000  0.000  1.000  0.000  0.000
  0.000  0.000  0.000  1.000  0.000
  0.000  0.000  0.000  0.000  1.000
    occupations:
  1.000  0.000  0.000  0.000  0.000
  0.000  1.000  0.000  0.000  0.000
  0.000  0.000  1.000  0.000  0.000
  0.000  0.000  0.000  1.000  0.000
  0.000  0.000  0.000  0.000  1.000
   spin  2
    eigenvalues: 
  0.000  0.000  0.000  0.000  0.000
    eigenvectors:
  1.000  0.000  0.000  0.000  0.000
  0.000  1.000  0.000  0.000  0.000
  0.000  0.000  1.000  0.000  0.000
  0.000  0.000  0.000  1.000  0.000
  0.000  0.000  0.000  0.000  1.000
    occupations:
  0.000  0.000  0.000  0.000  0.000
  0.000  0.000  0.000  0.000  0.000
  0.000  0.000  0.000  0.000  0.000
  0.000  0.000  0.000  0.000  0.000
  0.000  0.000  0.000  0.000  0.000
atomic mag. moment =     5.000000
atom    5   Tr[ns(na)] (up, down, total) =   0.00000  5.00000  5.00000
   spin  1
    eigenvalues: 
  0.000  0.000  0.000  0.000  0.000
    eigenvectors:
  1.000  0.000  0.000  0.000  0.000
  0.000  1.000  0.000  0.000  0.000
  0.000  0.000  1.000  0.000  0.000
  0.000  0.000  0.000  1.000  0.000
  0.000  0.000  0.000  0.000  1.000
    occupations:
  0.000  0.000  0.000  0.000  0.000
  0.000  0.000  0.000  0.000  0.000
  0.000  0.000  0.000  0.000  0.000
  0.000  0.000  0.000  0.000  0.000
  0.000  0.000  0.000  0.000  0.000
   spin  2
    eigenvalues: 
  1.000  1.000  1.000  1.000  1.000
    eigenvectors:
  1.000  0.000  0.000  0.000  0.000
  0.000  1.000  0.000  0.000  0.000
  0.000  0.000  1.000  0.000  0.000
  0.000  0.000  0.000  1.000  0.000
  0.000  0.000  0.000  0.000  1.000
    occupations:
  1.000  0.000  0.000  0.000  0.000
  0.000  1.000  0.000  0.000  0.000
  0.000  0.000  1.000  0.000  0.000
  0.000  0.000  0.000  1.000  0.000
  0.000  0.000  0.000  0.000  1.000
atomic mag. moment =    -5.000000
atom    6   Tr[ns(na)] (up, down, total) =   0.00000  5.00000  5.00000
   spin  1
    eigenvalues: 
  0.000  0.000  0.000  0.000  0.000
    eigenvectors:
  1.000  0.000  0.000  0.000  0.000
  0.000  1.000  0.000  0.000  0.000
  0.000  0.000  1.000  0.000  0.000
  0.000  0.000  0.000  1.000  0.000
  0.000  0.000  0.000  0.000  1.000
    occupations:
  0.000  0.000  0.000  0.000  0.000
  0.000  0.000  0.000  0.000  0.000
  0.000  0.000  0.000  0.000  0.000
  0.000  0.000  0.000  0.000  0.000
  0.000  0.000  0.000  0.000  0.000
   spin  2
    eigenvalues: 
  1.000  1.000  1.000  1.000  1.000
    eigenvectors:
  1.000  0.000  0.000  0.000  0.000
  0.000  1.000  0.000  0.000  0.000
  0.000  0.000  1.000  0.000  0.000
  0.000  0.000  0.000  1.000  0.000
  0.000  0.000  0.000  0.000  1.000
    occupations:
  1.000  0.000  0.000  0.000  0.000
  0.000  1.000  0.000  0.000  0.000
  0.000  0.000  1.000  0.000  0.000
  0.000  0.000  0.000  1.000  0.000
  0.000  0.000  0.000  0.000  1.000
atomic mag. moment =    -5.000000
atom    7   Tr[ns(na)] (up, down, total) =   0.00000  5.00000  5.00000
   spin  1
    eigenvalues: 
  0.000  0.000  0.000  0.000  0.000
    eigenvectors:
  1.000  0.000  0.000  0.000  0.000
  0.000  1.000  0.000  0.000  0.000
  0.000  0.000  1.000  0.000  0.000
  0.000  0.000  0.000  1.000  0.000
  0.000  0.000  0.000  0.000  1.000
    occupations:
  0.000  0.000  0.000  0.000  0.000
  0.000  0.000  0.000  0.000  0.000
  0.000  0.000  0.000  0.000  0.000
  0.000  0.000  0.000  0.000  0.000
  0.000  0.000  0.000  0.000  0.000
   spin  2
    eigenvalues: 
  1.000  1.000  1.000  1.000  1.000
    eigenvectors:
  1.000  0.000  0.000  0.000  0.000
  0.000  1.000  0.000  0.000  0.000
  0.000  0.000  1.000  0.000  0.000
  0.000  0.000  0.000  1.000  0.000
  0.000  0.000  0.000  0.000  1.000
    occupations:
  1.000  0.000  0.000  0.000  0.000
  0.000  1.000  0.000  0.000  0.000
  0.000  0.000  1.000  0.000  0.000
  0.000  0.000  0.000  1.000  0.000
  0.000  0.000  0.000  0.000  1.000
atomic mag. moment =    -5.000000
atom    8   Tr[ns(na)] (up, down, total) =   0.00000  5.00000  5.00000
   spin  1
    eigenvalues: 
  0.000  0.000  0.000  0.000  0.000
    eigenvectors:
  1.000  0.000  0.000  0.000  0.000
  0.000  1.000  0.000  0.000  0.000
  0.000  0.000  1.000  0.000  0.000
  0.000  0.000  0.000  1.000  0.000
  0.000  0.000  0.000  0.000  1.000
    occupations:
  0.000  0.000  0.000  0.000  0.000
  0.000  0.000  0.000  0.000  0.000
  0.000  0.000  0.000  0.000  0.000
  0.000  0.000  0.000  0.000  0.000
  0.000  0.000  0.000  0.000  0.000
   spin  2
    eigenvalues: 
  1.000  1.000  1.000  1.000  1.000
    eigenvectors:
  1.000  0.000  0.000  0.000  0.000
  0.000  1.000  0.000  0.000  0.000
  0.000  0.000  1.000  0.000  0.000
  0.000  0.000  0.000  1.000  0.000
  0.000  0.000  0.000  0.000  1.000
    occupations:
  1.000  0.000  0.000  0.000  0.000
  0.000  1.000  0.000  0.000  0.000
  0.000  0.000  1.000  0.000  0.000
  0.000  0.000  0.000  1.000  0.000
  0.000  0.000  0.000  0.000  1.000
atomic mag. moment =    -5.000000
N of occupied +U levels =   40.000000
 --- exit write_ns ---
 Atomic wfc used for LDA+U Projector are NOT orthogonalized
     Starting wfcs are  224 randomized atomic wfcs
     Checking if some PAW data can be deallocated... 

     total cpu time spent up to now is       27.8 secs

     Self-consistent Calculation

     iteration #  1     ecut=    45.00 Ry     beta= 0.10
     Davidson diagonalization with overlap
     ethr =  1.00E-02,  avg # of iterations =  4.4
 --- enter write_ns ---
 LDA+U parameters:
U(  1) =   3.1200   J(  1) =   0.7000   B(  1) =   0.0803
U(  2) =   3.1200   J(  2) =   0.7000   B(  2) =   0.0803
atom    1   Tr[ns(na)] (up, down, total) =   5.01752  0.39504  5.41255
   spin  1
    eigenvalues: 
  1.003  1.003  1.003  1.004  1.004
    eigenvectors:
  0.000  0.000  0.000  1.000  0.000
  0.000  0.304  0.696  0.000  0.000
  0.000  0.696  0.304  0.000  0.000
  0.000  0.000  0.000  0.000  1.000
  1.000  0.000  0.000  0.000  0.000
    occupations:
  1.004 -0.000 -0.000  0.000  0.000
 -0.000  1.003 -0.000  0.000  0.000
 -0.000 -0.000  1.003  0.000  0.000
  0.000  0.000  0.000  1.004 -0.000
  0.000  0.000  0.000 -0.000  1.003
   spin  2
    eigenvalues: 
  0.051  0.069  0.080  0.080  0.115
    eigenvectors:
  0.000  1.000  0.000  0.000  0.000
  0.000  0.000  0.389  0.611  0.000
  0.000  0.000  0.611  0.389  0.000
  1.000  0.000  0.000  0.000  0.000
  0.000  0.000  0.000  0.000  1.000
    occupations:
  0.069 -0.000 -0.000  0.000  0.000
 -0.000  0.080 -0.000  0.000  0.000
 -0.000 -0.000  0.080  0.000  0.000
  0.000  0.000  0.000  0.051 -0.000
  0.000  0.000  0.000 -0.000  0.115
atomic mag. moment =     4.622480
atom    2   Tr[ns(na)] (up, down, total) =   5.01769  0.38861  5.40630
   spin  1
    eigenvalues: 
  1.003  1.003  1.003  1.004  1.004
    eigenvectors:
  0.000  0.000  0.000  1.000  0.000
  0.000  0.363  0.637  0.000  0.000
  0.000  0.637  0.363  0.000  0.000
  0.000  0.000  0.000  0.000  1.000
  1.000  0.000  0.000  0.000  0.000
    occupations:
  1.004 -0.000 -0.000  0.000  0.000
 -0.000  1.003 -0.000  0.000  0.000
 -0.000 -0.000  1.003  0.000  0.000
  0.000  0.000  0.000  1.004 -0.000
  0.000  0.000  0.000 -0.000  1.003
   spin  2
    eigenvalues: 
  0.051  0.069  0.080  0.080  0.109
    eigenvectors:
  0.000  1.000  0.000  0.000  0.000
  0.000  0.000  0.473  0.527  0.000
  0.000  0.000  0.527  0.473  0.000
  1.000  0.000  0.000  0.000  0.000
  0.000  0.000  0.000  0.000  1.000
    occupations:
  0.069 -0.000 -0.000  0.000  0.000
 -0.000  0.080 -0.000  0.000  0.000
 -0.000 -0.000  0.080  0.000  0.000
  0.000  0.000  0.000  0.051 -0.000
  0.000  0.000  0.000 -0.000  0.109
atomic mag. moment =     4.629076
atom    3   Tr[ns(na)] (up, down, total) =   5.01766  0.38930  5.40696
   spin  1
    eigenvalues: 
  1.003  1.003  1.003  1.004  1.004
    eigenvectors:
  0.000  0.000  0.000  1.000  0.000
  0.000  0.362  0.638  0.000  0.000
  0.000  0.638  0.362  0.000  0.000
  0.000  0.000  0.000  0.000  1.000
  1.000  0.000  0.000  0.000  0.000
    occupations:
  1.004 -0.000 -0.000  0.000  0.000
 -0.000  1.003 -0.000  0.000  0.000
 -0.000 -0.000  1.003  0.000  0.000
  0.000  0.000  0.000  1.004 -0.000
  0.000  0.000  0.000 -0.000  1.003
   spin  2
    eigenvalues: 
  0.051  0.070  0.080  0.080  0.109
    eigenvectors:
  0.000  1.000  0.000  0.000  0.000
  0.000  0.000  0.325  0.675  0.000
  0.000  0.000  0.675  0.325  0.000
  1.000  0.000  0.000  0.000  0.000
  0.000  0.000  0.000  0.000  1.000
    occupations:
  0.070 -0.000 -0.000  0.000  0.000
 -0.000  0.080 -0.000  0.000  0.000
 -0.000 -0.000  0.080  0.000  0.000
  0.000  0.000  0.000  0.051 -0.000
  0.000  0.000  0.000 -0.000  0.109
atomic mag. moment =     4.628359
atom    4   Tr[ns(na)] (up, down, total) =   5.01743  0.39609  5.41353
   spin  1
    eigenvalues: 
  1.003  1.003  1.003  1.004  1.004
    eigenvectors:
  0.000  0.000  0.000  1.000  0.000
  0.000  0.303  0.697  0.000  0.000
  0.000  0.697  0.303  0.000  0.000
  0.000  0.000  0.000  0.000  1.000
  1.000  0.000  0.000  0.000  0.000
    occupations:
  1.004 -0.000 -0.000  0.000  0.000
 -0.000  1.003 -0.000  0.000  0.000
 -0.000 -0.000  1.003  0.000  0.000
  0.000  0.000  0.000  1.004 -0.000
  0.000  0.000  0.000 -0.000  1.003
   spin  2
    eigenvalues: 
  0.051  0.069  0.080  0.080  0.116
    eigenvectors:
  0.000  1.000  0.000  0.000  0.000
  0.000  0.000  0.392  0.608  0.000
  0.000  0.000  0.608  0.392  0.000
  1.000  0.000  0.000  0.000  0.000
  0.000  0.000  0.000  0.000  1.000
    occupations:
  0.069 -0.000 -0.000  0.000  0.000
 -0.000  0.080 -0.000  0.000  0.000
 -0.000 -0.000  0.080  0.000  0.000
  0.000  0.000  0.000  0.051 -0.000
  0.000  0.000  0.000 -0.000  0.116
atomic mag. moment =     4.621339
atom    5   Tr[ns(na)] (up, down, total) =   0.39677  5.01757  5.41434
   spin  1
    eigenvalues: 
  0.051  0.070  0.080  0.080  0.115
    eigenvectors:
  0.000  1.000  0.000  0.000  0.000
  0.000  0.000  0.328  0.672  0.000
  0.000  0.000  0.672  0.328  0.000
  1.000  0.000  0.000  0.000  0.000
  0.000  0.000  0.000  0.000  1.000
    occupations:
  0.070 -0.000 -0.000  0.000  0.000
 -0.000  0.080 -0.000  0.000  0.000
 -0.000 -0.000  0.080  0.000  0.000
  0.000  0.000  0.000  0.051 -0.000
  0.000  0.000  0.000 -0.000  0.115
   spin  2
    eigenvalues: 
  1.003  1.003  1.003  1.004  1.004
    eigenvectors:
  0.000  0.000  0.000  1.000  0.000
  0.000  0.385  0.615  0.000  0.000
  0.000  0.615  0.385  0.000  0.000
  0.000  0.000  0.000  0.000  1.000
  1.000  0.000  0.000  0.000  0.000
    occupations:
  1.004 -0.000 -0.000  0.000  0.000
 -0.000  1.003 -0.000  0.000  0.000
 -0.000 -0.000  1.003  0.000  0.000
  0.000  0.000  0.000  1.004 -0.000
  0.000  0.000  0.000 -0.000  1.003
atomic mag. moment =    -4.620799
atom    6   Tr[ns(na)] (up, down, total) =   0.38873  5.01780  5.40653
   spin  1
    eigenvalues: 
  0.051  0.069  0.080  0.080  0.109
    eigenvectors:
  0.000  1.000  0.000  0.000  0.000
  0.000  0.000  0.381  0.619  0.000
  0.000  0.000  0.619  0.381  0.000
  1.000  0.000  0.000  0.000  0.000
  0.000  0.000  0.000  0.000  1.000
    occupations:
  0.069 -0.000 -0.000  0.000  0.000
 -0.000  0.080 -0.000  0.000  0.000
 -0.000 -0.000  0.080  0.000  0.000
  0.000  0.000  0.000  0.051 -0.000
  0.000  0.000  0.000 -0.000  0.109
   spin  2
    eigenvalues: 
  1.003  1.003  1.003  1.004  1.004
    eigenvectors:
  0.000  0.000  0.000  1.000  0.000
  0.000  0.324  0.676  0.000  0.000
  0.000  0.676  0.324  0.000  0.000
  0.000  0.000  0.000  0.000  1.000
  1.000  0.000  0.000  0.000  0.000
    occupations:
  1.004 -0.000 -0.000  0.000  0.000
 -0.000  1.003 -0.000  0.000  0.000
 -0.000 -0.000  1.003  0.000  0.000
  0.000  0.000  0.000  1.004 -0.000
  0.000  0.000  0.000 -0.000  1.003
atomic mag. moment =    -4.629067
atom    7   Tr[ns(na)] (up, down, total) =   0.38823  5.01769  5.40592
   spin  1
    eigenvalues: 
  0.051  0.069  0.080  0.080  0.109
    eigenvectors:
  0.000  1.000  0.000  0.000  0.000
  0.000  0.000  0.391  0.609  0.000
  0.000  0.000  0.609  0.391  0.000
  1.000  0.000  0.000  0.000  0.000
  0.000  0.000  0.000  0.000  1.000
    occupations:
  0.069 -0.000 -0.000  0.000  0.000
 -0.000  0.080 -0.000  0.000  0.000
 -0.000 -0.000  0.080  0.000  0.000
  0.000  0.000  0.000  0.051 -0.000
  0.000  0.000  0.000 -0.000  0.109
   spin  2
    eigenvalues: 
  1.003  1.003  1.003  1.004  1.004
    eigenvectors:
  0.000  0.000  0.000  1.000  0.000
  0.000  0.313  0.687  0.000  0.000
  0.000  0.687  0.313  0.000  0.000
  0.000  0.000  0.000  0.000  1.000
  1.000  0.000  0.000  0.000  0.000
    occupations:
  1.004 -0.000 -0.000  0.000  0.000
 -0.000  1.003 -0.000  0.000  0.000
 -0.000 -0.000  1.003  0.000  0.000
  0.000  0.000  0.000  1.004 -0.000
  0.000  0.000  0.000 -0.000  1.003
atomic mag. moment =    -4.629463
atom    8   Tr[ns(na)] (up, down, total) =   0.39591  5.01751  5.41342
   spin  1
    eigenvalues: 
  0.051  0.069  0.080  0.080  0.115
    eigenvectors:
  0.000  1.000  0.000  0.000  0.000
  0.000  0.000  0.288  0.712  0.000
  0.000  0.000  0.712  0.288  0.000
  1.000  0.000  0.000  0.000  0.000
  0.000  0.000  0.000  0.000  1.000
    occupations:
  0.069 -0.000 -0.000  0.000  0.000
 -0.000  0.080 -0.000  0.000  0.000
 -0.000 -0.000  0.080  0.000  0.000
  0.000  0.000  0.000  0.051 -0.000
  0.000  0.000  0.000 -0.000  0.115
   spin  2
    eigenvalues: 
  1.003  1.003  1.003  1.004  1.004
    eigenvectors:
  0.000  0.000  0.000  1.000  0.000
  0.000  0.321  0.679  0.000  0.000
  0.000  0.679  0.321  0.000  0.000
  0.000  0.000  0.000  0.000  1.000
  1.000  0.000  0.000  0.000  0.000
    occupations:
  1.004 -0.000 -0.000  0.000  0.000
 -0.000  1.003 -0.000  0.000  0.000
 -0.000 -0.000  1.003  0.000  0.000
  0.000  0.000  0.000  1.004 -0.000
  0.000  0.000  0.000 -0.000  1.003
atomic mag. moment =    -4.621598
N of occupied +U levels =   43.279537
 --- exit write_ns ---

     total cpu time spent up to now is      102.7 secs

     total energy              =  -14687.29997102 Ry
     Harris-Foulkes estimate   =  -14685.83991484 Ry
     estimated scf accuracy    <      11.48578938 Ry

     total magnetization       =     0.00 Bohr mag/cell
     absolute magnetization    =    41.76 Bohr mag/cell

     iteration #  2     ecut=    45.00 Ry     beta= 0.10
     Davidson diagonalization with overlap
     ethr =  3.88E-03,  avg # of iterations =  1.0

     total cpu time spent up to now is      144.9 secs

     total energy              =  -14692.30691511 Ry
     Harris-Foulkes estimate   =  -14687.37309944 Ry
     estimated scf accuracy    <       9.27844322 Ry

     total magnetization       =     0.00 Bohr mag/cell
     absolute magnetization    =    41.43 Bohr mag/cell

     iteration #  3     ecut=    45.00 Ry     beta= 0.10
     Davidson diagonalization with overlap
     ethr =  3.13E-03,  avg # of iterations =  4.4

     total cpu time spent up to now is      217.4 secs

     total energy              =  -14693.02001533 Ry
     Harris-Foulkes estimate   =  -14694.23852992 Ry
     estimated scf accuracy    <      96.21611646 Ry

     total magnetization       =    -0.07 Bohr mag/cell
     absolute magnetization    =    38.73 Bohr mag/cell

     iteration #  4     ecut=    45.00 Ry     beta= 0.10
     Davidson diagonalization with overlap
     ethr =  3.13E-03,  avg # of iterations =  3.5

     total cpu time spent up to now is      277.9 secs

     total energy              =  -14693.91521639 Ry
     Harris-Foulkes estimate   =  -14693.99176197 Ry
     estimated scf accuracy    <       3.60424765 Ry

     total magnetization       =    -0.01 Bohr mag/cell
     absolute magnetization    =    38.83 Bohr mag/cell

     iteration #  5     ecut=    45.00 Ry     beta= 0.10
     Davidson diagonalization with overlap
     ethr =  1.22E-03,  avg # of iterations =  2.7

     total cpu time spent up to now is      332.0 secs

     total energy              =  -14693.98683623 Ry
     Harris-Foulkes estimate   =  -14693.92368219 Ry
     estimated scf accuracy    <       3.26383053 Ry

     total magnetization       =    -0.01 Bohr mag/cell
     absolute magnetization    =    38.83 Bohr mag/cell

     iteration #  6     ecut=    45.00 Ry     beta= 0.10
     Davidson diagonalization with overlap
     ethr =  1.10E-03,  avg # of iterations =  1.1

     total cpu time spent up to now is      374.5 secs

     total energy              =  -14693.47852107 Ry
     Harris-Foulkes estimate   =  -14693.99149958 Ry
     estimated scf accuracy    <       3.81953650 Ry

     total magnetization       =    -0.03 Bohr mag/cell
     absolute magnetization    =    38.75 Bohr mag/cell

     iteration #  7     ecut=    45.00 Ry     beta= 0.10
     Davidson diagonalization with overlap
     ethr =  1.10E-03,  avg # of iterations =  2.4

     total cpu time spent up to now is      426.4 secs

     total energy              =  -14693.75504916 Ry
     Harris-Foulkes estimate   =  -14693.56970541 Ry
     estimated scf accuracy    <       5.03337195 Ry

     total magnetization       =    -0.15 Bohr mag/cell
     absolute magnetization    =    38.97 Bohr mag/cell

     iteration #  8     ecut=    45.00 Ry     beta= 0.10
     Davidson diagonalization with overlap
     ethr =  1.10E-03,  avg # of iterations =  4.4

     total cpu time spent up to now is      498.3 secs

     total energy              =  -14694.00674540 Ry
     Harris-Foulkes estimate   =  -14694.00205166 Ry
     estimated scf accuracy    <       0.22003736 Ry

     total magnetization       =    -0.04 Bohr mag/cell
     absolute magnetization    =    37.45 Bohr mag/cell

     iteration #  9     ecut=    45.00 Ry     beta= 0.10
     Davidson diagonalization with overlap
     ethr =  7.43E-05,  avg # of iterations =  3.7

     total cpu time spent up to now is      561.2 secs

     total energy              =  -14694.01466028 Ry
     Harris-Foulkes estimate   =  -14694.01083196 Ry
     estimated scf accuracy    <       0.15415907 Ry

     total magnetization       =    -0.03 Bohr mag/cell
     absolute magnetization    =    37.39 Bohr mag/cell

     iteration # 10     ecut=    45.00 Ry     beta= 0.10
     Davidson diagonalization with overlap
     ethr =  5.21E-05,  avg # of iterations =  1.1

     total cpu time spent up to now is      604.0 secs

     total energy              =  -14693.99504776 Ry
     Harris-Foulkes estimate   =  -14694.01544631 Ry
     estimated scf accuracy    <       0.15328898 Ry

     total magnetization       =    -0.02 Bohr mag/cell
     absolute magnetization    =    37.34 Bohr mag/cell

     iteration # 11     ecut=    45.00 Ry     beta= 0.10
     Davidson diagonalization with overlap
     ethr =  5.18E-05,  avg # of iterations =  2.5

     total cpu time spent up to now is      659.4 secs

     total energy              =  -14694.01363857 Ry
     Harris-Foulkes estimate   =  -14694.01431642 Ry
     estimated scf accuracy    <       0.20761615 Ry

     total magnetization       =    -0.00 Bohr mag/cell
     absolute magnetization    =    37.31 Bohr mag/cell

     iteration # 12     ecut=    45.00 Ry     beta= 0.10
     Davidson diagonalization with overlap
     ethr =  5.18E-05,  avg # of iterations =  1.0

     total cpu time spent up to now is      701.1 secs

     total energy              =  -14694.01907516 Ry
     Harris-Foulkes estimate   =  -14694.01765955 Ry
     estimated scf accuracy    <       0.01046433 Ry

     total magnetization       =    -0.00 Bohr mag/cell
     absolute magnetization    =    37.24 Bohr mag/cell

     iteration # 13     ecut=    45.00 Ry     beta= 0.10
     Davidson diagonalization with overlap
     c_bands:  2 eigenvalues not converged
     c_bands:  3 eigenvalues not converged
     c_bands:  1 eigenvalues not converged
     c_bands:  5 eigenvalues not converged
     ethr =  3.54E-06,  avg # of iterations =  7.0

     total cpu time spent up to now is      791.4 secs

     total energy              =  -14694.02125889 Ry
     Harris-Foulkes estimate   =  -14694.01957388 Ry
     estimated scf accuracy    <       0.00849826 Ry

     total magnetization       =     0.00 Bohr mag/cell
     absolute magnetization    =    37.20 Bohr mag/cell

     iteration # 14     ecut=    45.00 Ry     beta= 0.10
     Davidson diagonalization with overlap
     ethr =  2.87E-06,  avg # of iterations =  2.7

     total cpu time spent up to now is      845.9 secs

     total energy              =  -14694.02173577 Ry
     Harris-Foulkes estimate   =  -14694.02142751 Ry
     estimated scf accuracy    <       0.00243789 Ry

     total magnetization       =    -0.00 Bohr mag/cell
     absolute magnetization    =    37.18 Bohr mag/cell

     iteration # 15     ecut=    45.00 Ry     beta= 0.10
     Davidson diagonalization with overlap
     ethr =  8.24E-07,  avg # of iterations =  2.4

     total cpu time spent up to now is      897.2 secs

     total energy              =  -14694.02206025 Ry
     Harris-Foulkes estimate   =  -14694.02194471 Ry
     estimated scf accuracy    <       0.00828632 Ry

     total magnetization       =    -0.00 Bohr mag/cell
     absolute magnetization    =    37.18 Bohr mag/cell

     iteration # 16     ecut=    45.00 Ry     beta= 0.10
     Davidson diagonalization with overlap
     ethr =  8.24E-07,  avg # of iterations =  1.4

     total cpu time spent up to now is      942.1 secs

     total energy              =  -14694.02214408 Ry
     Harris-Foulkes estimate   =  -14694.02217964 Ry
     estimated scf accuracy    <       0.00217054 Ry

     total magnetization       =     0.01 Bohr mag/cell
     absolute magnetization    =    37.17 Bohr mag/cell

     iteration # 17     ecut=    45.00 Ry     beta= 0.10
     Davidson diagonalization with overlap
     ethr =  7.33E-07,  avg # of iterations =  1.0

     total cpu time spent up to now is      983.8 secs

     total energy              =  -14694.02228249 Ry
     Harris-Foulkes estimate   =  -14694.02224513 Ry
     estimated scf accuracy    <       0.00247464 Ry

     total magnetization       =    -0.01 Bohr mag/cell
     absolute magnetization    =    37.18 Bohr mag/cell

     iteration # 18     ecut=    45.00 Ry     beta= 0.10
     Davidson diagonalization with overlap
     ethr =  7.33E-07,  avg # of iterations =  1.0

     total cpu time spent up to now is     1025.8 secs

     total energy              =  -14694.02238750 Ry
     Harris-Foulkes estimate   =  -14694.02228530 Ry
     estimated scf accuracy    <       0.00040163 Ry

     total magnetization       =     0.00 Bohr mag/cell
     absolute magnetization    =    37.17 Bohr mag/cell

     iteration # 19     ecut=    45.00 Ry     beta= 0.10
     Davidson diagonalization with overlap
     ethr =  1.36E-07,  avg # of iterations =  1.8

     total cpu time spent up to now is     1072.9 secs

     total energy              =  -14694.02243600 Ry
     Harris-Foulkes estimate   =  -14694.02237193 Ry
     estimated scf accuracy    <       0.00026571 Ry

     total magnetization       =     0.00 Bohr mag/cell
     absolute magnetization    =    37.17 Bohr mag/cell

     iteration # 20     ecut=    45.00 Ry     beta= 0.10
     Davidson diagonalization with overlap
     ethr =  8.98E-08,  avg # of iterations =  1.4

     total cpu time spent up to now is     1117.8 secs

     total energy              =  -14694.02247321 Ry
     Harris-Foulkes estimate   =  -14694.02241360 Ry
     estimated scf accuracy    <       0.00048018 Ry

     total magnetization       =     0.00 Bohr mag/cell
     absolute magnetization    =    37.17 Bohr mag/cell

     iteration # 21     ecut=    45.00 Ry     beta= 0.10
     Davidson diagonalization with overlap
     ethr =  8.98E-08,  avg # of iterations =  1.3

     total cpu time spent up to now is     1161.6 secs

     total energy              =  -14694.02248544 Ry
     Harris-Foulkes estimate   =  -14694.02245908 Ry
     estimated scf accuracy    <       0.00005592 Ry

     total magnetization       =     0.00 Bohr mag/cell
     absolute magnetization    =    37.17 Bohr mag/cell

     iteration # 22     ecut=    45.00 Ry     beta= 0.10
     Davidson diagonalization with overlap
     ethr =  1.89E-08,  avg # of iterations =  2.5

     total cpu time spent up to now is     1215.3 secs

     total energy              =  -14694.02248788 Ry
     Harris-Foulkes estimate   =  -14694.02247994 Ry
     estimated scf accuracy    <       0.00003269 Ry

     total magnetization       =    -0.00 Bohr mag/cell
     absolute magnetization    =    37.17 Bohr mag/cell

     iteration # 23     ecut=    45.00 Ry     beta= 0.10
     Davidson diagonalization with overlap
     ethr =  1.10E-08,  avg # of iterations =  1.3

     total cpu time spent up to now is     1259.1 secs

     total energy              =  -14694.02248959 Ry
     Harris-Foulkes estimate   =  -14694.02248629 Ry
     estimated scf accuracy    <       0.00001671 Ry

     total magnetization       =     0.00 Bohr mag/cell
     absolute magnetization    =    37.17 Bohr mag/cell

     iteration # 24     ecut=    45.00 Ry     beta= 0.10
     Davidson diagonalization with overlap
     ethr =  5.64E-09,  avg # of iterations =  1.4

     total cpu time spent up to now is     1304.3 secs

     total energy              =  -14694.02249517 Ry
     Harris-Foulkes estimate   =  -14694.02249090 Ry
     estimated scf accuracy    <       0.00000937 Ry

     total magnetization       =    -0.00 Bohr mag/cell
     absolute magnetization    =    37.17 Bohr mag/cell

     iteration # 25     ecut=    45.00 Ry     beta= 0.10
     Davidson diagonalization with overlap
     ethr =  3.17E-09,  avg # of iterations =  1.7

     total cpu time spent up to now is     1354.3 secs

     total energy              =  -14694.02249610 Ry
     Harris-Foulkes estimate   =  -14694.02249310 Ry
     estimated scf accuracy    <       0.00000361 Ry

     total magnetization       =     0.00 Bohr mag/cell
     absolute magnetization    =    37.17 Bohr mag/cell

     iteration # 26     ecut=    45.00 Ry     beta= 0.10
     Davidson diagonalization with overlap
     ethr =  1.22E-09,  avg # of iterations =  3.0

     total cpu time spent up to now is     1415.8 secs

     total energy              =  -14694.02249447 Ry
     Harris-Foulkes estimate   =  -14694.02249314 Ry
     estimated scf accuracy    <       0.00000189 Ry

     total magnetization       =     0.00 Bohr mag/cell
     absolute magnetization    =    37.17 Bohr mag/cell

     iteration # 27     ecut=    45.00 Ry     beta= 0.10
     Davidson diagonalization with overlap
     ethr =  6.38E-10,  avg # of iterations =  2.4

     total cpu time spent up to now is     1467.3 secs

     total energy              =  -14694.02249346 Ry
     Harris-Foulkes estimate   =  -14694.02249261 Ry
     estimated scf accuracy    <       0.00000274 Ry

     total magnetization       =     0.00 Bohr mag/cell
     absolute magnetization    =    37.17 Bohr mag/cell

     iteration # 28     ecut=    45.00 Ry     beta= 0.10
     Davidson diagonalization with overlap
     ethr =  6.38E-10,  avg # of iterations =  1.6

     total cpu time spent up to now is     1513.3 secs

     total energy              =  -14694.02249267 Ry
     Harris-Foulkes estimate   =  -14694.02249184 Ry
     estimated scf accuracy    <       0.00000435 Ry

     total magnetization       =    -0.00 Bohr mag/cell
     absolute magnetization    =    37.17 Bohr mag/cell

     iteration # 29     ecut=    45.00 Ry     beta= 0.10
     Davidson diagonalization with overlap
     ethr =  6.38E-10,  avg # of iterations =  1.6
 
     Magnetic moment per site:
     atom:    1    charge:   13.5493    magn:    4.2442    constr:    0.0000
     atom:    2    charge:   13.5532    magn:    4.2179    constr:    0.0000
     atom:    3    charge:   13.5531    magn:    4.2177    constr:    0.0000
     atom:    4    charge:   13.5493    magn:    4.2441    constr:    0.0000
     atom:    5    charge:   13.5492    magn:   -4.2441    constr:    0.0000
     atom:    6    charge:   13.5533    magn:   -4.2178    constr:    0.0000
     atom:    7    charge:   13.5531    magn:   -4.2178    constr:    0.0000
     atom:    8    charge:   13.5495    magn:   -4.2442    constr:    0.0000
     atom:    9    charge:    9.1372    magn:    0.0309    constr:    0.0000
     atom:   10    charge:    9.1366    magn:    0.0303    constr:    0.0000
     atom:   11    charge:    9.1357    magn:    0.0313    constr:    0.0000
     atom:   12    charge:    9.1353    magn:    0.0314    constr:    0.0000
     atom:   13    charge:    9.1361    magn:    0.0303    constr:    0.0000
     atom:   14    charge:    9.1375    magn:    0.0306    constr:    0.0000
     atom:   15    charge:    9.1390    magn:    0.0380    constr:    0.0000
     atom:   16    charge:    9.1386    magn:   -0.0380    constr:    0.0000
     atom:   17    charge:    9.1371    magn:   -0.0306    constr:    0.0000
     atom:   18    charge:    9.1365    magn:   -0.0303    constr:    0.0000
     atom:   19    charge:    9.1357    magn:   -0.0314    constr:    0.0000
     atom:   20    charge:    9.1354    magn:   -0.0313    constr:    0.0000
     atom:   21    charge:    9.1362    magn:   -0.0303    constr:    0.0000
     atom:   22    charge:    9.1377    magn:   -0.0309    constr:    0.0000
     atom:   23    charge:    9.1388    magn:   -0.0382    constr:    0.0000
     atom:   24    charge:    9.1384    magn:    0.0382    constr:    0.0000

     total cpu time spent up to now is     1559.4 secs

     End of self-consistent calculation
 --- enter write_ns ---
 LDA+U parameters:
U(  1) =   3.1200   J(  1) =   0.7000   B(  1) =   0.0803
U(  2) =   3.1200   J(  2) =   0.7000   B(  2) =   0.0803
atom    1   Tr[ns(na)] (up, down, total) =   4.97337  0.72927  5.70264
   spin  1
    eigenvalues: 
  0.985  0.994  0.994  0.998  1.002
    eigenvectors:
  0.000  0.000  0.000  1.000  0.000
  0.000  0.341  0.659  0.000  0.000
  0.000  0.659  0.341  0.000  0.000
  0.000  0.000  0.000  0.000  1.000
  1.000  0.000  0.000  0.000  0.000
    occupations:
  0.998 -0.000 -0.000  0.000  0.000
 -0.000  0.994 -0.000  0.000  0.000
 -0.000 -0.000  0.994  0.000  0.000
  0.000  0.000  0.000  1.002 -0.000
  0.000  0.000  0.000 -0.000  0.985
   spin  2
    eigenvalues: 
  0.064  0.125  0.141  0.141  0.258
    eigenvectors:
  0.000  1.000  0.000  0.000  0.000
  0.000  0.000  0.325  0.675  0.000
  0.000  0.000  0.675  0.325  0.000
  1.000  0.000  0.000  0.000  0.000
  0.000  0.000  0.000  0.000  1.000
    occupations:
  0.125 -0.000 -0.000  0.000  0.000
 -0.000  0.141 -0.000  0.000  0.000
 -0.000 -0.000  0.141  0.000  0.000
  0.000  0.000  0.000  0.064 -0.000
  0.000  0.000  0.000 -0.000  0.258
atomic mag. moment =     4.244091
atom    2   Tr[ns(na)] (up, down, total) =   4.97242  0.75127  5.72369
   spin  1
    eigenvalues: 
  0.985  0.994  0.994  0.998  1.002
    eigenvectors:
  0.000  0.000  0.000  1.000  0.000
  0.000  0.235  0.765  0.000  0.000
  0.000  0.765  0.235  0.000  0.000
  0.000  0.000  0.000  0.000  1.000
  1.000  0.000  0.000  0.000  0.000
    occupations:
  0.998 -0.000 -0.000  0.000  0.000
 -0.000  0.994 -0.000  0.000  0.000
 -0.000 -0.000  0.994  0.000  0.000
  0.000  0.000  0.000  1.002 -0.000
  0.000  0.000  0.000 -0.000  0.985
   spin  2
    eigenvalues: 
  0.064  0.135  0.143  0.143  0.267
    eigenvectors:
  0.000  1.000  0.000  0.000  0.000
  0.000  0.000  0.278  0.722  0.000
  0.000  0.000  0.722  0.278  0.000
  1.000  0.000  0.000  0.000  0.000
  0.000  0.000  0.000  0.000  1.000
    occupations:
  0.135 -0.000 -0.000  0.000  0.000
 -0.000  0.143 -0.000  0.000  0.000
 -0.000 -0.000  0.143  0.000  0.000
  0.000  0.000  0.000  0.064 -0.000
  0.000  0.000  0.000 -0.000  0.267
atomic mag. moment =     4.221144
atom    3   Tr[ns(na)] (up, down, total) =   4.97229  0.75164  5.72393
   spin  1
    eigenvalues: 
  0.985  0.994  0.994  0.998  1.002
    eigenvectors:
  0.000  0.000  0.000  1.000  0.000
  0.000  0.329  0.671  0.000  0.000
  0.000  0.671  0.329  0.000  0.000
  0.000  0.000  0.000  0.000  1.000
  1.000  0.000  0.000  0.000  0.000
    occupations:
  0.998 -0.000 -0.000  0.000  0.000
 -0.000  0.994 -0.000  0.000  0.000
 -0.000 -0.000  0.994  0.000  0.000
  0.000  0.000  0.000  1.002 -0.000
  0.000  0.000  0.000 -0.000  0.985
   spin  2
    eigenvalues: 
  0.064  0.135  0.142  0.142  0.269
    eigenvectors:
  0.000  1.000  0.000  0.000  0.000
  0.000  0.000  0.300  0.700  0.000
  0.000  0.000  0.700  0.300  0.000
  1.000  0.000  0.000  0.000  0.000
  0.000  0.000  0.000  0.000  1.000
    occupations:
  0.135 -0.000 -0.000  0.000  0.000
 -0.000  0.142 -0.000  0.000  0.000
 -0.000 -0.000  0.142  0.000  0.000
  0.000  0.000  0.000  0.064 -0.000
  0.000  0.000  0.000 -0.000  0.269
atomic mag. moment =     4.220656
atom    4   Tr[ns(na)] (up, down, total) =   4.97339  0.72898  5.70237
   spin  1
    eigenvalues: 
  0.985  0.994  0.994  0.998  1.002
    eigenvectors:
  0.000  0.000  0.000  1.000  0.000
  0.000  0.405  0.595  0.000  0.000
  0.000  0.595  0.405  0.000  0.000
  0.000  0.000  0.000  0.000  1.000
  1.000  0.000  0.000  0.000  0.000
    occupations:
  0.998 -0.000 -0.000  0.000  0.000
 -0.000  0.994 -0.000  0.000  0.000
 -0.000 -0.000  0.994  0.000  0.000
  0.000  0.000  0.000  1.002 -0.000
  0.000  0.000  0.000 -0.000  0.985
   spin  2
    eigenvalues: 
  0.064  0.125  0.142  0.142  0.256
    eigenvectors:
  0.000  1.000  0.000  0.000  0.000
  0.000  0.000  0.291  0.709  0.000
  0.000  0.000  0.709  0.291  0.000
  1.000  0.000  0.000  0.000  0.000
  0.000  0.000  0.000  0.000  1.000
    occupations:
  0.125 -0.000 -0.000  0.000  0.000
 -0.000  0.142 -0.000  0.000  0.000
 -0.000 -0.000  0.142  0.000  0.000
  0.000  0.000  0.000  0.064 -0.000
  0.000  0.000  0.000 -0.000  0.256
atomic mag. moment =     4.244408
atom    5   Tr[ns(na)] (up, down, total) =   0.72901  4.97339  5.70240
   spin  1
    eigenvalues: 
  0.064  0.125  0.142  0.142  0.256
    eigenvectors:
  0.000  1.000  0.000  0.000  0.000
  0.000  0.000  0.327  0.673  0.000
  0.000  0.000  0.673  0.327  0.000
  1.000  0.000  0.000  0.000  0.000
  0.000  0.000  0.000  0.000  1.000
    occupations:
  0.125 -0.000 -0.000  0.000  0.000
 -0.000  0.142 -0.000  0.000  0.000
 -0.000 -0.000  0.142  0.000  0.000
  0.000  0.000  0.000  0.064 -0.000
  0.000  0.000  0.000 -0.000  0.256
   spin  2
    eigenvalues: 
  0.985  0.994  0.994  0.998  1.002
    eigenvectors:
  0.000  0.000  0.000  1.000  0.000
  0.000  0.285  0.715  0.000  0.000
  0.000  0.715  0.285  0.000  0.000
  0.000  0.000  0.000  0.000  1.000
  1.000  0.000  0.000  0.000  0.000
    occupations:
  0.998 -0.000 -0.000  0.000  0.000
 -0.000  0.994 -0.000  0.000  0.000
 -0.000 -0.000  0.994  0.000  0.000
  0.000  0.000  0.000  1.002 -0.000
  0.000  0.000  0.000 -0.000  0.985
atomic mag. moment =    -4.244375
atom    6   Tr[ns(na)] (up, down, total) =   0.75165  4.97231  5.72396
   spin  1
    eigenvalues: 
  0.064  0.135  0.142  0.142  0.269
    eigenvectors:
  0.000  1.000  0.000  0.000  0.000
  0.000  0.000  0.318  0.682  0.000
  0.000  0.000  0.682  0.318  0.000
  1.000  0.000  0.000  0.000  0.000
  0.000  0.000  0.000  0.000  1.000
    occupations:
  0.135 -0.000 -0.000  0.000  0.000
 -0.000  0.142 -0.000  0.000  0.000
 -0.000 -0.000  0.142  0.000  0.000
  0.000  0.000  0.000  0.064 -0.000
  0.000  0.000  0.000 -0.000  0.269
   spin  2
    eigenvalues: 
  0.985  0.994  0.994  0.998  1.002
    eigenvectors:
  0.000  0.000  0.000  1.000  0.000
  0.000  0.250  0.750  0.000  0.000
  0.000  0.750  0.250  0.000  0.000
  0.000  0.000  0.000  0.000  1.000
  1.000  0.000  0.000  0.000  0.000
    occupations:
  0.998 -0.000 -0.000  0.000  0.000
 -0.000  0.994 -0.000  0.000  0.000
 -0.000 -0.000  0.994  0.000  0.000
  0.000  0.000  0.000  1.002 -0.000
  0.000  0.000  0.000 -0.000  0.985
atomic mag. moment =    -4.220654
atom    7   Tr[ns(na)] (up, down, total) =   0.75134  4.97241  5.72375
   spin  1
    eigenvalues: 
  0.064  0.135  0.143  0.143  0.267
    eigenvectors:
  0.000  1.000  0.000  0.000  0.000
  0.000  0.000  0.309  0.691  0.000
  0.000  0.000  0.691  0.309  0.000
  1.000  0.000  0.000  0.000  0.000
  0.000  0.000  0.000  0.000  1.000
    occupations:
  0.135 -0.000 -0.000  0.000  0.000
 -0.000  0.143 -0.000  0.000  0.000
 -0.000 -0.000  0.143  0.000  0.000
  0.000  0.000  0.000  0.064 -0.000
  0.000  0.000  0.000 -0.000  0.267
   spin  2
    eigenvalues: 
  0.985  0.994  0.994  0.998  1.002
    eigenvectors:
  0.000  0.000  0.000  1.000  0.000
  0.000  0.324  0.676  0.000  0.000
  0.000  0.676  0.324  0.000  0.000
  0.000  0.000  0.000  0.000  1.000
  1.000  0.000  0.000  0.000  0.000
    occupations:
  0.998 -0.000 -0.000  0.000  0.000
 -0.000  0.994 -0.000  0.000  0.000
 -0.000 -0.000  0.994  0.000  0.000
  0.000  0.000  0.000  1.002 -0.000
  0.000  0.000  0.000 -0.000  0.985
atomic mag. moment =    -4.221074
atom    8   Tr[ns(na)] (up, down, total) =   0.72927  4.97337  5.70264
   spin  1
    eigenvalues: 
  0.064  0.125  0.141  0.141  0.258
    eigenvectors:
  0.000  1.000  0.000  0.000  0.000
  0.000  0.000  0.389  0.611  0.000
  0.000  0.000  0.611  0.389  0.000
  1.000  0.000  0.000  0.000  0.000
  0.000  0.000  0.000  0.000  1.000
    occupations:
  0.125 -0.000 -0.000  0.000  0.000
 -0.000  0.141 -0.000  0.000  0.000
 -0.000 -0.000  0.141  0.000  0.000
  0.000  0.000  0.000  0.064 -0.000
  0.000  0.000  0.000 -0.000  0.258
   spin  2
    eigenvalues: 
  0.985  0.994  0.994  0.998  1.002
    eigenvectors:
  0.000  0.000  0.000  1.000  0.000
  0.000  0.287  0.713  0.000  0.000
  0.000  0.713  0.287  0.000  0.000
  0.000  0.000  0.000  0.000  1.000
  1.000  0.000  0.000  0.000  0.000
    occupations:
  0.998 -0.000 -0.000  0.000  0.000
 -0.000  0.994 -0.000  0.000  0.000
 -0.000 -0.000  0.994  0.000  0.000
  0.000  0.000  0.000  1.002 -0.000
  0.000  0.000  0.000 -0.000  0.985
atomic mag. moment =    -4.244104
N of occupied +U levels =   45.705388
 --- exit write_ns ---

 ------ SPIN UP ------------


          k = 0.0000 0.0000 0.0000 ( 14071 PWs)   bands (ev):

   -67.0337 -67.0312 -66.9190 -66.9177 -62.4379 -62.4357 -62.3456 -62.3450
   -35.8091 -35.8083 -35.7470 -35.7470 -35.7437 -35.7437 -35.7007 -35.7002
   -35.6315 -35.6315 -35.6293 -35.6293 -31.2623 -31.2602 -31.2561 -31.2561
   -31.2539 -31.2539 -31.1765 -31.1759 -31.1627 -31.1627 -31.1621 -31.1621
     5.5918   5.7366   5.8319   6.1916   6.2182   6.8311   6.8634   7.3959
     8.0775   8.1746   8.1958   8.2635   8.3281   8.4599   8.5186   8.6091
     8.6536   8.7269   8.8137   8.8802   8.9736   9.0030   9.0042   9.0712
     9.1073   9.1547   9.2206   9.3789   9.3825   9.4113   9.7015   9.7549
     9.7657   9.7939   9.9250   9.9313   9.9313   9.9671   9.9671  10.0079
    10.0079  10.0351  10.1410  10.1444  10.1444  10.1480  10.1492  10.1492
    10.1857  10.2799  10.3073  10.3073  10.3304  10.3304  10.3460  10.3714
    10.3714  10.3900  10.3900  10.4090  10.4580  10.4580  10.4658  10.4910
    10.4910  10.5577  10.5833  10.6856  10.7414  10.7414  10.7783  10.8661
    10.8661  10.8799  10.9678  10.9910  11.0112  11.1424  11.2002  11.2002
    11.2704  11.2704  11.3111  11.3155  11.3885  11.5534  11.5689  11.5689
    11.6346  11.6722  11.6722  11.7101  11.7119  11.7533  11.8367  11.8421
    11.8421  11.9032  11.9090  11.9723  12.1583  12.1583  12.2539  12.4570
    12.4570  12.4647  12.5187  12.6455  12.7073  12.7829  12.7862  13.3287
    13.5235  14.2844  14.7202  15.8143  16.5266  16.5266  16.6015  16.6015
    16.6893  16.6948  16.7671  16.7762  16.7762  16.8150  16.8385  16.8465
    16.8940  16.9353  16.9884  16.9884  17.0436  17.1985  17.2603  17.2804
    17.9965  19.1267  19.3047  19.8891  19.8891  20.2593  20.2593  20.3673
    20.3673  21.0300

          k = 0.0000 0.0000 0.0159 ( 14107 PWs)   bands (ev):

   -67.0337 -67.0312 -66.9190 -66.9177 -62.4379 -62.4357 -62.3456 -62.3450
   -35.8091 -35.8083 -35.7470 -35.7470 -35.7437 -35.7437 -35.7007 -35.7002
   -35.6315 -35.6315 -35.6293 -35.6293 -31.2623 -31.2602 -31.2561 -31.2561
   -31.2539 -31.2539 -31.1765 -31.1759 -31.1627 -31.1627 -31.1621 -31.1621
     5.5934   5.7242   5.8541   6.1174   6.2990   6.7295   6.9662   7.3686
     8.0985   8.1746   8.1969   8.2635   8.3272   8.4599   8.5024   8.5736
     8.6966   8.7267   8.8092   8.8821   8.9582   8.9687   9.0512   9.0780
     9.1227   9.1506   9.2139   9.3436   9.4057   9.4119   9.7015   9.7568
     9.7657   9.7936   9.9250   9.9325   9.9325   9.9621   9.9621  10.0158
    10.0158  10.0347  10.1138  10.1138  10.1409  10.1480  10.1824  10.1824
    10.1863  10.2814  10.3064  10.3064  10.3300  10.3300  10.3419  10.3456
    10.3456  10.4059  10.4059  10.4146  10.4542  10.4542  10.4628  10.5064
    10.5064  10.5426  10.6031  10.6859  10.7185  10.7185  10.7667  10.8900
    10.8908  10.8908  10.9639  10.9908  11.0112  11.1423  11.1617  11.1617
    11.3101  11.3101  11.3112  11.3156  11.3886  11.5443  11.5443  11.5534
    11.6321  11.6904  11.6904  11.7101  11.7173  11.7533  11.8292  11.8378
    11.8378  11.9032  11.9163  11.9694  12.1585  12.1585  12.2539  12.4570
    12.4570  12.4647  12.5220  12.6455  12.6745  12.7862  12.8303  13.2548
    13.6077  14.2205  14.7673  15.7958  16.5266  16.5266  16.6015  16.6015
    16.6893  16.6948  16.7671  16.7762  16.7762  16.8150  16.8385  16.8465
    16.8940  16.9353  16.9884  16.9884  17.0565  17.1982  17.2604  17.2780
    18.0071  18.9763  19.4934  19.8963  19.8963  20.1981  20.1981  20.4483
    20.4483  20.7157

          k = 0.0000 0.0000 0.0319 ( 14080 PWs)   bands (ev):

   -67.0337 -67.0312 -66.9190 -66.9177 -62.4379 -62.4357 -62.3456 -62.3450
   -35.8091 -35.8083 -35.7470 -35.7470 -35.7437 -35.7437 -35.7007 -35.7002
   -35.6315 -35.6315 -35.6293 -35.6293 -31.2623 -31.2602 -31.2561 -31.2561
   -31.2539 -31.2539 -31.1765 -31.1759 -31.1627 -31.1627 -31.1621 -31.1621
     5.5971   5.7055   5.9029   6.0388   6.3970   6.6171   7.0813   7.2977
     8.1428   8.1746   8.2030   8.2635   8.3240   8.4510   8.4599   8.5585
     8.7263   8.7348   8.8150   8.8863   8.9103   8.9594   9.0932   9.1023
     9.1400   9.1567   9.1952   9.2986   9.4131   9.4195   9.7015   9.7604
     9.7657   9.7930   9.9250   9.9361   9.9361   9.9532   9.9532  10.0339
    10.0339  10.0341  10.0839  10.0839  10.1407  10.1480  10.1875  10.2201
    10.2201  10.2847  10.2953  10.2953  10.3163  10.3163  10.3312  10.3312
    10.3341  10.4171  10.4171  10.4272  10.4500  10.4500  10.4543  10.5270
    10.5379  10.5379  10.6309  10.6778  10.6778  10.6864  10.7437  10.9110
    10.9366  10.9366  10.9528  10.9906  11.0114  11.1069  11.1069  11.1421
    11.3113  11.3160  11.3711  11.3711  11.3888  11.4944  11.4944  11.5534
    11.6277  11.7100  11.7193  11.7193  11.7286  11.7533  11.8149  11.8275
    11.8275  11.9032  11.9314  11.9613  12.1590  12.1590  12.2540  12.4570
    12.4570  12.4647  12.5301  12.6359  12.6455  12.7862  12.9135  13.1397
    13.7532  14.0837  14.8458  15.7576  16.5267  16.5267  16.6014  16.6014
    16.6893  16.6948  16.7671  16.7762  16.7762  16.8150  16.8385  16.8465
    16.8940  16.9353  16.9884  16.9884  17.0828  17.1974  17.2606  17.2723
    18.0312  18.8226  19.7718  19.9138  19.9138  20.1277  20.1277  20.3942
    20.5818  20.5818

          k = 0.0000 0.0000-0.0478 ( 14088 PWs)   bands (ev):

   -67.0337 -67.0312 -66.9190 -66.9177 -62.4379 -62.4357 -62.3456 -62.3450
   -35.8091 -35.8083 -35.7470 -35.7470 -35.7437 -35.7437 -35.7007 -35.7002
   -35.6315 -35.6315 -35.6293 -35.6293 -31.2623 -31.2602 -31.2561 -31.2561
   -31.2539 -31.2539 -31.1765 -31.1759 -31.1627 -31.1627 -31.1621 -31.1621
     5.5991   5.6976   5.9543   5.9782   6.4813   6.5279   7.1701   7.2218
     8.1637   8.1746   8.2139   8.2635   8.3198   8.4200   8.4599   8.5571
     8.7261   8.7427   8.8403   8.8742   8.8887   8.9548   9.1037   9.1315
     9.1342   9.1730   9.1849   9.2696   9.4137   9.4239   9.7015   9.7622
     9.7657   9.7927   9.9250   9.9397   9.9397   9.9475   9.9475  10.0337
    10.0565  10.0565  10.0576  10.0576  10.1406  10.1480  10.1882  10.2588
    10.2588  10.2598  10.2598  10.2866  10.3123  10.3123  10.3303  10.3309
    10.3309  10.4204  10.4204  10.4399  10.4434  10.4485  10.4485  10.5213
    10.5578  10.5578  10.6453  10.6548  10.6548  10.6867  10.7303  10.9277
    10.9401  10.9644  10.9644  10.9905  11.0114  11.0768  11.0768  11.1419
    11.3114  11.3162  11.3889  11.4225  11.4225  11.4462  11.4462  11.5533
    11.6258  11.7100  11.7330  11.7330  11.7351  11.7533  11.8073  11.8208
    11.8208  11.9032  11.9440  11.9516  12.1592  12.1592  12.2541  12.4570
    12.4570  12.4647  12.5355  12.6197  12.6456  12.7862  12.9859  13.0557
    13.8791  13.9585  14.8810  15.7376  16.5267  16.5267  16.6014  16.6014
    16.6893  16.6948  16.7671  16.7763  16.7763  16.8150  16.8385  16.8465
    16.8940  16.9353  16.9884  16.9884  17.0965  17.1967  17.2609  17.2687
    18.0450  18.7630  19.9252  19.9252  20.0331  20.0978  20.0978  20.1200
    20.7189  20.7190

          k = 0.0000 0.1667 0.0000 ( 14044 PWs)   bands (ev):

   -67.0333 -67.0308 -66.9186 -66.9173 -62.4378 -62.4356 -62.3455 -62.3450
   -35.8088 -35.8081 -35.7500 -35.7468 -35.7467 -35.7435 -35.7005 -35.7000
   -35.6345 -35.6323 -35.6313 -35.6292 -31.2619 -31.2598 -31.2598 -31.2576
   -31.2558 -31.2537 -31.1761 -31.1755 -31.1664 -31.1658 -31.1624 -31.1618
     6.0197   6.1570   6.2517   6.5861   6.6112   7.1669   7.1940   7.6657
     8.0964   8.3576   8.4064   8.4579   8.4792   8.5049   8.5068   8.6239
     8.7447   8.7791   8.8097   8.8431   8.9430   9.0114   9.0671   9.0915
     9.1262   9.2350   9.2645   9.3609   9.4395   9.4779   9.5243   9.5420
     9.6352   9.6365   9.6562   9.6802   9.7190   9.7348   9.7669   9.8106
     9.8899   9.8992   9.9753  10.0009  10.0529  10.0870  10.1162  10.1810
    10.2024  10.2202  10.2281  10.2620  10.3019  10.3302  10.4227  10.4277
    10.4729  10.4846  10.5591  10.5601  10.5618  10.5949  10.6641  10.6794
    10.6908  10.7968  10.8028  10.8361  10.9233  10.9254  10.9854  11.0079
    11.0251  11.0282  11.0311  11.1044  11.1512  11.1712  11.2149  11.2402
    11.2484  11.3337  11.4062  11.4176  11.5104  11.5317  11.5338  11.5940
    11.6315  11.6409  11.6729  11.7568  11.7711  11.7911  11.8218  11.8655
    11.9011  11.9163  11.9284  11.9555  12.0415  12.1708  12.2691  12.2720
    12.4163  12.4785  12.5368  12.6650  12.6964  12.6986  12.7282  13.4585
    13.6150  14.5485  14.9256  15.9931  16.0309  16.3447  16.4290  16.5971
    16.6147  16.6193  16.6493  16.6843  16.7767  16.8244  16.8321  16.8405
    16.8713  16.9499  17.0388  17.0980  17.1075  17.2336  17.3282  17.6620
    17.7137  18.0432  18.2992  18.3026  18.9430  18.9859  19.6616  19.7519
    19.9574  19.9727

          k = 0.0000 0.1667 0.0159 ( 14046 PWs)   bands (ev):

   -67.0333 -67.0308 -66.9186 -66.9173 -62.4378 -62.4356 -62.3455 -62.3450
   -35.8088 -35.8081 -35.7500 -35.7468 -35.7467 -35.7435 -35.7005 -35.7000
   -35.6345 -35.6323 -35.6313 -35.6292 -31.2619 -31.2598 -31.2598 -31.2576
   -31.2558 -31.2537 -31.1761 -31.1755 -31.1664 -31.1658 -31.1624 -31.1618
     6.0213   6.1457   6.2721   6.5173   6.6858   7.0755   7.2857   7.6399
     8.1154   8.3573   8.4064   8.4291   8.4640   8.5041   8.5463   8.6255
     8.7293   8.7846   8.8067   8.8569   8.9389   9.0115   9.0503   9.1072
     9.1294   9.2347   9.2482   9.3807   9.4390   9.4779   9.5243   9.5330
     9.6295   9.6366   9.6562   9.6802   9.7302   9.7348   9.7665   9.8069
     9.8900   9.8986   9.9796  10.0001  10.0522  10.0806  10.1143  10.1807
    10.2026  10.2158  10.2459  10.2639  10.3009  10.3300  10.4095  10.4237
    10.4671  10.4888  10.5578  10.5619  10.5754  10.5963  10.6643  10.6774
    10.6930  10.7944  10.7990  10.8423  10.9131  10.9247  10.9773  11.0096
    11.0247  11.0334  11.0339  11.1039  11.1641  11.1657  11.2147  11.2412
    11.2616  11.3325  11.3797  11.4179  11.4954  11.5267  11.5609  11.6010
    11.6239  11.6595  11.6735  11.7540  11.7561  11.8034  11.8114  11.8655
    11.8936  11.9110  11.9330  11.9673  12.0404  12.1703  12.2691  12.2715
    12.4225  12.4786  12.5368  12.6086  12.6964  12.6986  12.8010  13.3501
    13.7332  14.4663  14.9901  15.9186  16.0993  16.3290  16.4365  16.5971
    16.6147  16.6184  16.6496  16.6843  16.7767  16.8246  16.8318  16.8405
    16.8712  16.9499  17.0388  17.1003  17.1075  17.2190  17.3544  17.6544
    17.6824  18.0301  18.3247  18.3720  18.8149  19.1204  19.4208  19.7769
    20.0339  20.1329

          k = 0.0000 0.1667 0.0319 ( 14043 PWs)   bands (ev):

   -67.0333 -67.0308 -66.9186 -66.9173 -62.4378 -62.4356 -62.3455 -62.3450
   -35.8088 -35.8081 -35.7500 -35.7468 -35.7467 -35.7435 -35.7005 -35.7000
   -35.6345 -35.6323 -35.6313 -35.6292 -31.2619 -31.2598 -31.2598 -31.2576
   -31.2558 -31.2537 -31.1761 -31.1755 -31.1664 -31.1658 -31.1624 -31.1618
     6.0246   6.1286   6.3177   6.4438   6.7763   6.9739   7.3878   7.5746
     8.1568   8.3543   8.3788   8.4066   8.4629   8.5034   8.5851   8.6342
     8.6973   8.7934   8.8039   8.8827   8.9268   9.0122   9.0301   9.1170
     9.1478   9.2134   9.2388   9.4191   9.4384   9.4779   9.5077   9.5242
     9.6219   9.6369   9.6562   9.6802   9.7347   9.7528   9.7659   9.7963
     9.8902   9.8975   9.9900   9.9985  10.0485  10.0681  10.1123  10.1801
    10.2031  10.2139  10.2679  10.2797  10.2987  10.3298  10.3711  10.4260
    10.4590  10.4933  10.5574  10.5632  10.5892  10.6086  10.6651  10.6744
    10.6965  10.7881  10.7933  10.8536  10.8955  10.9227  10.9648  11.0104
    11.0248  11.0364  11.0437  11.1022  11.1534  11.1988  11.2145  11.2471
    11.2883  11.3277  11.3286  11.4191  11.4602  11.5441  11.5753  11.6190
    11.6248  11.6718  11.6923  11.7294  11.7519  11.7886  11.8149  11.8655
    11.8815  11.9052  11.9410  11.9845  12.0376  12.1692  12.2689  12.2705
    12.4398  12.4789  12.5368  12.5476  12.6964  12.6986  12.9107  13.2023
    13.9095  14.3036  15.0912  15.8391  16.1712  16.2927  16.4480  16.5971
    16.6147  16.6168  16.6502  16.6843  16.7767  16.8251  16.8311  16.8405
    16.8711  16.9499  17.0388  17.1056  17.1075  17.1975  17.4127  17.5783
    17.6782  18.0025  18.4190  18.4987  18.6767  19.1770  19.2804  19.6109
    20.2933  20.3523

          k = 0.0000 0.1667-0.0478 ( 14036 PWs)   bands (ev):

   -67.0333 -67.0308 -66.9186 -66.9173 -62.4378 -62.4356 -62.3455 -62.3450
   -35.8088 -35.8081 -35.7500 -35.7468 -35.7467 -35.7435 -35.7005 -35.7000
   -35.6345 -35.6323 -35.6313 -35.6292 -31.2619 -31.2598 -31.2598 -31.2576
   -31.2558 -31.2537 -31.1761 -31.1755 -31.1664 -31.1658 -31.1624 -31.1618
     6.0265   6.1213   6.3683   6.3847   6.8583   6.8882   7.4742   7.4987
     8.1819   8.3413   8.3643   8.4065   8.4627   8.5030   8.5985   8.6579
     8.6648   8.7982   8.8024   8.9056   8.9096   9.0139   9.0206   9.1182
     9.1697   9.1886   9.2391   9.4368   9.4500   9.4779   9.4825   9.5242
     9.6194   9.6370   9.6562   9.6802   9.7347   9.7656   9.7698   9.7843
     9.8903   9.8969   9.9969   9.9977  10.0436  10.0633  10.1118  10.1798
    10.2033  10.2135  10.2702  10.2973  10.3100  10.3297  10.3387  10.4274
    10.4553  10.4949  10.5576  10.5635  10.5907  10.6192  10.6658  10.6732
    10.6981  10.7837  10.7909  10.8592  10.8877  10.9212  10.9594  11.0105
    11.0249  11.0374  11.0484  11.1007  11.1491  11.2144  11.2167  11.2768
    11.2772  11.3081  11.3190  11.4210  11.4434  11.5487  11.5793  11.6176
    11.6525  11.6587  11.7170  11.7194  11.7393  11.7765  11.8182  11.8655
    11.8774  11.9024  11.9445  11.9920  12.0357  12.1687  12.2687  12.2701
    12.4550  12.4790  12.5174  12.5368  12.6964  12.6986  13.0004  13.0992
    14.0492  14.1660  15.1365  15.8043  16.2162  16.2590  16.4528  16.5971
    16.6147  16.6160  16.6505  16.6843  16.7767  16.8254  16.8307  16.8405
    16.8711  16.9499  17.0388  17.1075  17.1088  17.1881  17.4834  17.4956
    17.6811  17.9893  18.5318  18.5341  18.6011  19.0573  19.4415  19.4462
    20.4000  20.5629

          k = 0.0000 0.3333 0.0000 ( 14062 PWs)   bands (ev):

   -67.0336 -67.0311 -66.9189 -66.9176 -62.4368 -62.4347 -62.3445 -62.3440
   -35.8083 -35.8075 -35.7558 -35.7525 -35.7465 -35.7432 -35.6999 -35.6994
   -35.6403 -35.6382 -35.6309 -35.6288 -31.2673 -31.2651 -31.2612 -31.2590
   -31.2554 -31.2532 -31.1753 -31.1748 -31.1739 -31.1733 -31.1620 -31.1614
     7.1550   7.2606   7.3472   7.5701   7.5743   7.8300   7.8653   8.0254
     8.0288   8.1907   8.2074   8.3726   8.4543   8.5990   8.6326   8.7278
     8.7685   8.8131   8.8794   8.9283   8.9335   9.0200   9.0858   9.0933
     9.1477   9.1620   9.1982   9.2673   9.3538   9.3639   9.3715   9.4217
     9.4329   9.5837   9.5939   9.6246   9.6580   9.6937   9.7180   9.7798
     9.7985   9.8653   9.8721   9.8786   9.9467   9.9605  10.0500  10.1481
    10.2115  10.2135  10.3539  10.3861  10.3919  10.4179  10.5456  10.6359
    10.6874  10.7948  10.8689  10.8864  10.8948  10.9211  10.9897  11.0157
    11.0639  11.0868  11.1505  11.1579  11.1860  11.2520  11.2594  11.2953
    11.3047  11.3050  11.3353  11.3649  11.3662  11.3683  11.4135  11.4409
    11.4650  11.4653  11.5119  11.5607  11.5621  11.6309  11.6315  11.6641
    11.6900  11.7016  11.7783  11.7944  11.8111  11.8456  11.8808  11.8939
    11.9191  12.0238  12.0978  12.1113  12.1523  12.2101  12.2636  12.3728
    12.4780  12.5897  12.6176  12.6327  12.6538  12.7574  12.7967  13.6991
    13.7460  14.3842  14.6010  14.6277  14.7249  14.7909  15.1951  15.2465
    15.4387  15.6891  16.0277  16.2878  16.4207  16.5079  16.5937  16.6383
    16.6451  16.6794  16.7590  16.8545  16.8663  16.9723  17.0309  17.1923
    17.1954  17.2740  17.2835  17.3762  17.6622  17.7427  17.9111  18.1876
    18.9382  19.4153

          k = 0.0000 0.3333 0.0159 ( 14056 PWs)   bands (ev):

   -67.0336 -67.0311 -66.9189 -66.9176 -62.4368 -62.4347 -62.3445 -62.3440
   -35.8083 -35.8075 -35.7558 -35.7525 -35.7465 -35.7432 -35.6999 -35.6994
   -35.6403 -35.6382 -35.6309 -35.6288 -31.2673 -31.2651 -31.2612 -31.2590
   -31.2554 -31.2532 -31.1753 -31.1748 -31.1739 -31.1733 -31.1620 -31.1614
     7.1561   7.2540   7.3602   7.5227   7.6223   7.8054   7.8853   8.0034
     8.0522   8.1665   8.2314   8.3627   8.4628   8.5846   8.6486   8.7288
     8.7557   8.8235   8.8779   8.9205   8.9360   9.0219   9.0858   9.0933
     9.1568   9.1620   9.1982   9.2673   9.3333   9.3639   9.3715   9.4017
     9.4702   9.5834   9.5944   9.6308   9.6574   9.6939   9.7179   9.7797
     9.7992   9.8308   9.8655   9.8787   9.9452  10.0026  10.0507  10.1487
    10.2110  10.2138  10.3183  10.3864  10.3908  10.4365  10.5561  10.6374
    10.6904  10.7877  10.8600  10.8729  10.8933  10.9486  10.9815  11.0374
    11.0647  11.0859  11.1466  11.1603  11.1815  11.2283  11.2435  11.2731
    11.2962  11.3249  11.3425  11.3617  11.3669  11.3957  11.4178  11.4318
    11.4715  11.4741  11.5175  11.5512  11.5718  11.6248  11.6313  11.6368
    11.7016  11.7229  11.7784  11.7942  11.8173  11.8456  11.8716  11.8963
    11.9181  12.0214  12.1045  12.1116  12.1600  12.2021  12.2676  12.3730
    12.4714  12.4777  12.5897  12.6538  12.7574  12.7941  12.7967  13.5357
    13.9055  14.3913  14.5255  14.6182  14.7012  14.9013  15.1171  15.3063
    15.4160  15.6992  16.0228  16.2804  16.4207  16.5079  16.5938  16.6383
    16.6499  16.6790  16.7590  16.8492  16.8740  16.9566  17.0527  17.1923
    17.1954  17.2740  17.2835  17.3737  17.6625  17.7387  17.9159  18.1804
    18.9425  19.3833

          k = 0.0000 0.3333 0.0319 ( 14062 PWs)   bands (ev):

   -67.0336 -67.0311 -66.9189 -66.9176 -62.4368 -62.4347 -62.3445 -62.3440
   -35.8083 -35.8075 -35.7558 -35.7525 -35.7465 -35.7432 -35.6999 -35.6994
   -35.6403 -35.6382 -35.6309 -35.6288 -31.2673 -31.2651 -31.2612 -31.2590
   -31.2554 -31.2532 -31.1753 -31.1748 -31.1739 -31.1733 -31.1620 -31.1614
     7.1583   7.2431   7.3907   7.4752   7.6718   7.7652   7.9109   7.9821
     8.0786   8.1363   8.2595   8.3422   8.4788   8.5646   8.6751   8.7308
     8.7314   8.8393   8.8754   8.9073   8.9377   9.0249   9.0858   9.0933
     9.1620   9.1803   9.1982   9.2673   9.2920   9.3639   9.3715   9.3957
     9.5051   9.5829   9.5952   9.6526   9.6563   9.6943   9.7174   9.7686
     9.7793   9.8005   9.8660   9.8788   9.9423  10.0520  10.0659  10.1500
    10.2096  10.2151  10.2608  10.3862  10.3885  10.4527  10.5788  10.6403
    10.7011  10.7653  10.8404  10.8703  10.8903  10.9713  10.9994  11.0619
    11.0798  11.0843  11.1211  11.1649  11.1660  11.1869  11.2177  11.2634
    11.2981  11.3326  11.3502  11.3576  11.3728  11.4139  11.4165  11.4427
    11.4832  11.4904  11.5265  11.5375  11.5704  11.6036  11.6321  11.6323
    11.7019  11.7593  11.7786  11.7939  11.8297  11.8457  11.8596  11.8932
    11.9160  12.0174  12.1107  12.1209  12.1854  12.1875  12.2739  12.3416
    12.3735  12.4770  12.5896  12.6539  12.7574  12.7967  12.9716  13.3500
    14.0798  14.4060  14.4119  14.5234  14.7884  15.0017  15.0475  15.2892
    15.4255  15.7106  16.0146  16.2657  16.4207  16.5079  16.5945  16.6383
    16.6584  16.6782  16.7590  16.8435  16.8864  16.9346  17.0856  17.1923
    17.1954  17.2740  17.2835  17.3682  17.6636  17.7301  17.9261  18.1654
    18.9521  19.3322

          k = 0.0000 0.3333-0.0478 ( 14060 PWs)   bands (ev):

   -67.0336 -67.0311 -66.9189 -66.9176 -62.4368 -62.4347 -62.3445 -62.3440
   -35.8083 -35.8075 -35.7558 -35.7525 -35.7465 -35.7432 -35.6999 -35.6994
   -35.6403 -35.6382 -35.6309 -35.6288 -31.2673 -31.2651 -31.2612 -31.2590
   -31.2554 -31.2532 -31.1753 -31.1748 -31.1739 -31.1733 -31.1620 -31.1614
     7.1596   7.2383   7.4254   7.4354   7.7150   7.7250   7.9241   7.9706
     8.1043   8.1093   8.2747   8.3290   8.4875   8.5549   8.6992   8.7077
     8.7320   8.8466   8.8751   8.8997   8.9383   9.0261   9.0858   9.0933
     9.1620   9.1982   9.1987   9.2665   9.2676   9.3640   9.3715   9.3946
     9.5179   9.5827   9.5957   9.6558   9.6799   9.6945   9.7129   9.7307
     9.7792   9.8012   9.8662   9.8789   9.9409  10.0526  10.1022  10.1506
    10.2067  10.2201  10.2242  10.3860  10.3873  10.4572  10.5906  10.6418
    10.7150  10.7438  10.8341  10.8698  10.8888  10.9701  11.0464  11.0633
    11.0666  11.0835  11.1266  11.1360  11.1671  11.1717  11.2109  11.2616
    11.2991  11.3361  11.3506  11.3571  11.3783  11.4030  11.4152  11.4743
    11.4918  11.5031  11.5070  11.5302  11.5628  11.6061  11.6307  11.6329
    11.7020  11.7753  11.7812  11.7937  11.8282  11.8459  11.8644  11.8856
    11.9150  12.0157  12.1109  12.1310  12.1748  12.2419  12.2490  12.2765
    12.3737  12.4767  12.5896  12.6540  12.7574  12.7967  13.1258  13.1932
    14.2237  14.2760  14.4314  14.4832  14.8493  14.9472  15.1205  15.2267
    15.4490  15.7122  16.0115  16.2583  16.4207  16.5079  16.5952  16.6383
    16.6621  16.6778  16.7590  16.8414  16.8943  16.9233  17.1003  17.1923
    17.1954  17.2740  17.2835  17.3650  17.6645  17.7254  17.9317  18.1574
    18.9575  19.3100

          k = 0.0000-0.5000 0.0000 ( 14098 PWs)   bands (ev):

   -67.0343 -67.0318 -66.9195 -66.9183 -62.4359 -62.4337 -62.3436 -62.3430
   -35.8080 -35.8072 -35.7586 -35.7553 -35.7463 -35.7430 -35.6996 -35.6991
   -35.6431 -35.6410 -35.6308 -35.6286 -31.2711 -31.2690 -31.2608 -31.2586
   -31.2551 -31.2530 -31.1778 -31.1772 -31.1749 -31.1744 -31.1617 -31.1611
     7.9063   7.9074   7.9678   7.9690   8.0953   8.0965   8.2310   8.2313
     8.2760   8.2762   8.3262   8.3263   8.4659   8.4664   8.6544   8.6546
     8.6853   8.6857   8.8923   8.8930   8.9170   8.9184   9.0133   9.0147
     9.1660   9.1666   9.2134   9.2143   9.4261   9.4265   9.4730   9.4739
     9.5372   9.5375   9.5442   9.5447   9.6041   9.6045   9.6733   9.6738
     9.8192   9.8195   9.8603   9.8610   9.8887   9.8895  10.0814  10.0818
    10.1831  10.1853  10.1998  10.2004  10.4443  10.4469  10.5642  10.5648
    11.0158  11.0159  11.1068  11.1075  11.1543  11.1549  11.2180  11.2182
    11.2692  11.2712  11.2959  11.2961  11.3018  11.3027  11.3432  11.3435
    11.3826  11.3832  11.4238  11.4238  11.4695  11.4701  11.5483  11.5484
    11.6126  11.6133  11.7208  11.7212  11.8317  11.8319  12.1039  12.1042
    12.1190  12.1192  12.1716  12.1717  12.2496  12.2497  12.2789  12.2791
    12.2853  12.2862  12.3510  12.3521  12.4990  12.5007  12.5488  12.5493
    12.6820  12.6830  12.7063  12.7063  12.8201  12.8213  12.9246  12.9247
    13.0616  13.0621  13.4601  13.4612  13.5653  13.5662  14.1206  14.1221
    14.1435  14.1455  14.5716  14.5738  16.2227  16.2240  16.5025  16.5026
    16.5265  16.5279  16.5716  16.5747  16.6846  16.6852  16.7888  16.7891
    17.3155  17.3186  17.3997  17.4017  17.7241  17.7270  17.8248  17.8260
    19.0812  19.0813

          k = 0.0000-0.5000 0.0159 ( 14106 PWs)   bands (ev):

   -67.0343 -67.0318 -66.9195 -66.9183 -62.4359 -62.4337 -62.3436 -62.3430
   -35.8080 -35.8072 -35.7586 -35.7553 -35.7463 -35.7430 -35.6996 -35.6991
   -35.6431 -35.6410 -35.6308 -35.6286 -31.2711 -31.2690 -31.2608 -31.2586
   -31.2551 -31.2530 -31.1778 -31.1772 -31.1749 -31.1744 -31.1617 -31.1611
     7.9063   7.9074   7.9678   7.9690   8.0955   8.0967   8.2293   8.2297
     8.2791   8.2793   8.3244   8.3246   8.4667   8.4672   8.6454   8.6456
     8.6960   8.6965   8.8881   8.8888   8.9170   8.9184   9.0133   9.0147
     9.1703   9.1708   9.2134   9.2143   9.4229   9.4231   9.4730   9.4739
     9.5355   9.5357   9.5442   9.5447   9.6040   9.6044   9.6733   9.6738
     9.8192   9.8195   9.8603   9.8609   9.9004   9.9013  10.0669  10.0674
    10.1831  10.1853  10.2043  10.2049  10.4443  10.4469  10.5650  10.5657
    11.0177  11.0178  11.1068  11.1075  11.1537  11.1543  11.2193  11.2195
    11.2694  11.2713  11.2976  11.2977  11.3015  11.3024  11.3416  11.3420
    11.3826  11.3832  11.4155  11.4156  11.4728  11.4734  11.5480  11.5481
    11.6126  11.6133  11.7246  11.7250  11.8316  11.8319  12.1029  12.1032
    12.1190  12.1192  12.1716  12.1716  12.2505  12.2506  12.2775  12.2777
    12.2853  12.2862  12.3519  12.3529  12.4990  12.5007  12.5476  12.5482
    12.6820  12.6830  12.7102  12.7103  12.8201  12.8213  12.9102  12.9103
    13.0822  13.0826  13.4151  13.4161  13.6169  13.6180  14.0311  14.0325
    14.2280  14.2300  14.5604  14.5625  16.2238  16.2251  16.5017  16.5019
    16.5265  16.5279  16.5716  16.5747  16.6846  16.6852  16.7889  16.7892
    17.3155  17.3186  17.3997  17.4018  17.7242  17.7270  17.8248  17.8260
    19.0831  19.0832

          k = 0.0000-0.5000 0.0319 ( 14114 PWs)   bands (ev):

   -67.0343 -67.0318 -66.9195 -66.9183 -62.4359 -62.4337 -62.3436 -62.3430
   -35.8080 -35.8072 -35.7586 -35.7553 -35.7463 -35.7430 -35.6996 -35.6991
   -35.6431 -35.6410 -35.6308 -35.6286 -31.2711 -31.2690 -31.2608 -31.2586
   -31.2551 -31.2530 -31.1778 -31.1772 -31.1749 -31.1744 -31.1617 -31.1611
     7.9063   7.9074   7.9677   7.9689   8.0958   8.0970   8.2262   8.2267
     8.2856   8.2857   8.3201   8.3204   8.4683   8.4689   8.6341   8.6342
     8.7114   8.7120   8.8794   8.8800   8.9171   8.9184   9.0133   9.0147
     9.1791   9.1794   9.2134   9.2143   9.4159   9.4160   9.4730   9.4739
     9.5323   9.5324   9.5442   9.5447   9.6039   9.6042   9.6733   9.6737
     9.8192   9.8195   9.8602   9.8609   9.9305   9.9314  10.0328  10.0334
    10.1831  10.1853  10.2115  10.2121  10.4443  10.4469  10.5667  10.5674
    11.0216  11.0217  11.1068  11.1075  11.1525  11.1531  11.2219  11.2219
    11.2704  11.2720  11.2995  11.2997  11.3024  11.3034  11.3372  11.3377
    11.3826  11.3832  11.4015  11.4017  11.4773  11.4778  11.5475  11.5475
    11.6126  11.6133  11.7320  11.7324  11.8316  11.8319  12.1009  12.1013
    12.1191  12.1192  12.1715  12.1716  12.2525  12.2526  12.2746  12.2748
    12.2853  12.2863  12.3535  12.3546  12.4990  12.5007  12.5454  12.5460
    12.6820  12.6830  12.7189  12.7189  12.8201  12.8213  12.8863  12.8865
    13.1224  13.1229  13.3532  13.3541  13.7001  13.7015  13.9343  13.9354
    14.3071  14.3094  14.5325  14.5345  16.2260  16.2273  16.5001  16.5003
    16.5265  16.5279  16.5716  16.5747  16.6847  16.6853  16.7890  16.7893
    17.3155  17.3186  17.3997  17.4018  17.7242  17.7270  17.8247  17.8260
    19.0869  19.0870

          k = 0.0000-0.5000-0.0478 ( 14104 PWs)   bands (ev):

   -67.0343 -67.0318 -66.9195 -66.9183 -62.4359 -62.4337 -62.3436 -62.3430
   -35.8080 -35.8072 -35.7586 -35.7553 -35.7463 -35.7430 -35.6996 -35.6991
   -35.6431 -35.6410 -35.6308 -35.6286 -31.2711 -31.2690 -31.2608 -31.2586
   -31.2551 -31.2530 -31.1778 -31.1772 -31.1749 -31.1744 -31.1617 -31.1611
     7.9063   7.9074   7.9677   7.9689   8.0960   8.0972   8.2249   8.2254
[...]
    11.1066  11.1978  11.2970  11.3561  11.3729  11.3733  11.4463  11.4687
    11.4973  11.5769  11.6507  11.6739  11.7067  11.7142  11.7223  11.7300
    11.7704  11.7723  11.7919  11.8486  11.9773  12.0268  12.0708  12.1324
    12.2306  12.2711  12.2771  12.2952  12.2979  12.3880  12.4674  12.5962
    12.6739  12.8061  13.1429  13.3526  13.7365  13.9657  14.3596  14.5859
    15.0788  15.4511  15.4781  15.5375  15.5454  15.7122  15.7673  16.2890
    16.4639  16.5486  16.6422  16.6830  16.8530  16.8906  16.9248  16.9567
    17.0271  17.0318  17.2132  17.2629  17.3246  17.5774  17.6400  17.7518
    17.8282  17.8788  17.9901  18.0013  18.0534  18.2656  18.3606  18.4153
    18.5171  18.6449

          k = 0.3333 0.3333-0.0478 ( 14082 PWs)   bands (ev):

   -67.0322 -67.0299 -66.9175 -66.9165 -62.4370 -62.4350 -62.3448 -62.3442
   -35.8079 -35.8069 -35.7551 -35.7550 -35.7521 -35.7520 -35.6995 -35.6991
   -35.6395 -35.6395 -35.6379 -35.6378 -31.2662 -31.2659 -31.2643 -31.2640
   -31.2603 -31.2582 -31.1744 -31.1738 -31.1729 -31.1726 -31.1723 -31.1720
     7.7188   7.8852   8.1668   8.2099   8.3176   8.4218   8.5575   8.6344
     8.6844   8.6971   8.7630   8.8090   8.8944   8.8968   8.9814   9.0206
     9.1196   9.1307   9.1574   9.1646   9.1684   9.1958   9.2184   9.2353
     9.2761   9.2991   9.3276   9.3793   9.3841   9.4125   9.4782   9.5404
     9.5477   9.6146   9.6772   9.7264   9.7361   9.7757   9.8061   9.8162
     9.8305   9.8441   9.8444   9.8712   9.9503   9.9746   9.9767  10.0507
    10.0548  10.0976  10.1662  10.1689  10.2378  10.2657  10.3136  10.3188
    10.4088  10.4196  10.4795  10.5109  10.5143  10.5459  10.6521  10.7387
    10.8056  10.8753  11.0045  11.0125  11.0586  11.0603  11.1011  11.1027
    11.1066  11.2274  11.2653  11.3561  11.3727  11.3733  11.4463  11.4877
    11.4973  11.5594  11.6506  11.6747  11.7162  11.7173  11.7195  11.7299
    11.7651  11.7706  11.8059  11.8321  12.0017  12.0068  12.0703  12.1336
    12.2318  12.2717  12.2728  12.2956  12.2960  12.4166  12.4352  12.5961
    12.7146  12.7624  13.1876  13.3035  13.7956  13.9061  14.4032  14.5528
    15.0862  15.4512  15.4777  15.5404  15.5427  15.7124  15.7632  16.2882
    16.4927  16.5174  16.6428  16.6904  16.8558  16.8838  16.9474  16.9567
    16.9989  17.0303  17.2198  17.2638  17.3238  17.5761  17.6399  17.7498
    17.8270  17.9118  17.9429  17.9910  18.0628  18.3467  18.3786  18.3870
    18.5523  18.5704

          k = 0.3333-0.5000 0.0000 ( 14154 PWs)   bands (ev):

   -67.0324 -67.0300 -66.9176 -66.9167 -62.4366 -62.4346 -62.3444 -62.3438
   -35.8078 -35.8067 -35.7578 -35.7548 -35.7548 -35.7518 -35.6993 -35.6989
   -35.6422 -35.6406 -35.6392 -35.6376 -31.2698 -31.2679 -31.2657 -31.2638
   -31.2600 -31.2579 -31.1765 -31.1759 -31.1741 -31.1735 -31.1724 -31.1718
     7.9993   8.0014   8.1516   8.1540   8.3852   8.3856   8.5570   8.5581
     8.7307   8.7320   8.8388   8.8389   8.8711   8.8721   8.9338   8.9349
     8.9803   8.9816   9.0181   9.0185   9.1307   9.1312   9.1594   9.1596
     9.2684   9.2694   9.3106   9.3113   9.4064   9.4064   9.5785   9.5786
     9.6009   9.6011   9.7408   9.7408   9.7665   9.7666   9.8898   9.8904
     9.9209   9.9209  10.0568  10.0569  10.1210  10.1227  10.1652  10.1657
    10.3126  10.3130  10.4367  10.4376  10.5200  10.5205  10.5609  10.5611
    10.6105  10.6108  10.7039  10.7041  10.8229  10.8233  10.9055  10.9060
    10.9840  10.9846  11.0486  11.0491  11.1933  11.1940  11.1996  11.1999
    11.2899  11.2904  11.3858  11.3862  11.4635  11.4656  11.5069  11.5076
    11.6544  11.6556  11.7047  11.7048  11.7698  11.7704  11.7969  11.7969
    11.9115  11.9124  11.9918  11.9923  12.0493  12.0494  12.0647  12.0650
    12.1744  12.1748  12.3170  12.3171  12.6928  12.6931  12.8365  12.8368
    13.2871  13.2880  13.7702  13.7705  13.8606  13.8606  14.2064  14.2070
    14.4782  14.4797  14.6930  14.6951  15.1163  15.1174  15.7242  15.7248
    16.4999  16.5013  16.8013  16.8015  16.8232  16.8243  16.8649  16.8654
    16.9434  16.9434  17.3189  17.3203  17.4352  17.4373  17.7512  17.7523
    17.9123  17.9150  18.0076  18.0084  18.2389  18.2405  18.8385  18.8387
    18.8600  18.8611

          k = 0.3333-0.5000 0.0159 ( 14140 PWs)   bands (ev):

   -67.0324 -67.0300 -66.9176 -66.9167 -62.4366 -62.4346 -62.3444 -62.3438
   -35.8078 -35.8067 -35.7578 -35.7548 -35.7548 -35.7518 -35.6993 -35.6989
   -35.6422 -35.6406 -35.6392 -35.6376 -31.2698 -31.2679 -31.2657 -31.2638
   -31.2600 -31.2579 -31.1765 -31.1759 -31.1741 -31.1735 -31.1724 -31.1718
     7.9993   8.0014   8.1513   8.1536   8.3876   8.3880   8.5507   8.5518
     8.7399   8.7412   8.8389   8.8390   8.8707   8.8717   8.9292   8.9302
     8.9696   8.9708   9.0289   9.0295   9.1274   9.1279   9.1647   9.1650
     9.2688   9.2698   9.3036   9.3042   9.4173   9.4173   9.5532   9.5532
     9.6207   9.6208   9.7375   9.7375   9.7741   9.7742   9.8836   9.8841
     9.9226   9.9226  10.0462  10.0466  10.1285  10.1301  10.1719  10.1723
    10.3101  10.3105  10.4354  10.4363  10.5195  10.5199  10.5513  10.5514
    10.6214  10.6217  10.7050  10.7053  10.8219  10.8223  10.9033  10.9036
    10.9821  10.9825  11.0543  11.0546  11.1791  11.1793  11.2124  11.2127
    11.2891  11.2896  11.3857  11.3862  11.4635  11.4655  11.5069  11.5076
    11.6545  11.6556  11.7047  11.7048  11.7699  11.7704  11.7968  11.7969
    11.9128  11.9136  11.9913  11.9917  12.0296  12.0297  12.0876  12.0879
    12.1744  12.1747  12.3111  12.3112  12.7000  12.7003  12.8302  12.8305
    13.2899  13.2907  13.7522  13.7522  13.8854  13.8856  14.1887  14.1892
    14.4971  14.4987  14.6820  14.6840  15.1179  15.1190  15.7240  15.7247
    16.5006  16.5020  16.7895  16.7897  16.8276  16.8287  16.8649  16.8655
    16.9562  16.9564  17.2978  17.2993  17.4530  17.4550  17.7453  17.7462
    17.9080  17.9106  18.0115  18.0126  18.2626  18.2640  18.7012  18.7019
    18.9712  18.9730

          k = 0.3333-0.5000 0.0319 ( 14128 PWs)   bands (ev):

   -67.0324 -67.0300 -66.9176 -66.9167 -62.4366 -62.4346 -62.3444 -62.3438
   -35.8078 -35.8067 -35.7578 -35.7548 -35.7548 -35.7518 -35.6993 -35.6989
   -35.6422 -35.6406 -35.6392 -35.6376 -31.2698 -31.2679 -31.2657 -31.2638
   -31.2600 -31.2579 -31.1765 -31.1759 -31.1741 -31.1735 -31.1724 -31.1718
     7.9995   8.0015   8.1505   8.1528   8.3927   8.3931   8.5386   8.5398
     8.7590   8.7602   8.8391   8.8393   8.8697   8.8703   8.9155   8.9162
     8.9595   8.9607   9.0424   9.0430   9.1226   9.1231   9.1739   9.1741
     9.2707   9.2717   9.2898   9.2904   9.4424   9.4424   9.5181   9.5181
     9.6391   9.6392   9.7332   9.7333   9.7893   9.7895   9.8700   9.8705
     9.9252   9.9252  10.0301  10.0309  10.1379  10.1394  10.1866  10.1870
    10.3046  10.3050  10.4320  10.4329  10.5187  10.5189  10.5386  10.5388
    10.6369  10.6370  10.7077  10.7082  10.8194  10.8198  10.8987  10.8989
    10.9790  10.9792  11.0655  11.0656  11.1643  11.1643  11.2235  11.2240
    11.2873  11.2879  11.3857  11.3862  11.4634  11.4655  11.5069  11.5076
    11.6546  11.6557  11.7047  11.7048  11.7699  11.7704  11.7968  11.7968
    11.9157  11.9165  11.9894  11.9896  12.0122  12.0128  12.1127  12.1129
    12.1744  12.1747  12.2984  12.2985  12.7166  12.7169  12.8152  12.8155
    13.2954  13.2963  13.7273  13.7275  13.9272  13.9276  14.1525  14.1528
    14.5394  14.5413  14.6529  14.6546  15.1211  15.1223  15.7237  15.7244
    16.5021  16.5035  16.7731  16.7734  16.8310  16.8322  16.8649  16.8655
    16.9816  16.9820  17.2626  17.2643  17.4805  17.4826  17.7329  17.7335
    17.9013  17.9040  18.0174  18.0189  18.3286  18.3298  18.5617  18.5625
    19.0064  19.0074

          k = 0.3333-0.5000-0.0478 ( 14140 PWs)   bands (ev):

   -67.0324 -67.0300 -66.9176 -66.9167 -62.4366 -62.4346 -62.3444 -62.3438
   -35.8078 -35.8067 -35.7578 -35.7548 -35.7548 -35.7518 -35.6993 -35.6989
   -35.6422 -35.6406 -35.6392 -35.6376 -31.2698 -31.2679 -31.2657 -31.2638
   -31.2600 -31.2579 -31.1765 -31.1759 -31.1741 -31.1735 -31.1724 -31.1718
     7.9995   8.0016   8.1501   8.1525   8.3955   8.3959   8.5327   8.5340
     8.7694   8.7706   8.8393   8.8396   8.8685   8.8689   8.9070   8.9075
     8.9570   8.9582   9.0475   9.0482   9.1208   9.1212   9.1781   9.1783
     9.2742   9.2753   9.2809   9.2814   9.4642   9.4642   9.4933   9.4933
     9.6456   9.6457   9.7315   9.7317   9.7983   9.7986   9.8616   9.8620
     9.9263   9.9263  10.0234  10.0243  10.1412  10.1427  10.1945  10.1947
    10.3016  10.3020  10.4300  10.4308  10.5184  10.5185  10.5338  10.5342
    10.6430  10.6431  10.7095  10.7100  10.8180  10.8184  10.8965  10.8966
    10.9778  10.9778  11.0713  11.0713  11.1577  11.1577  11.2277  11.2282
    11.2863  11.2869  11.3857  11.3862  11.4634  11.4654  11.5069  11.5076
    11.6547  11.6558  11.7047  11.7048  11.7699  11.7704  11.7967  11.7968
    11.9173  11.9181  11.9872  11.9878  12.0066  12.0076  12.1234  12.1235
    12.1743  12.1746  12.2915  12.2916  12.7269  12.7273  12.8058  12.8059
    13.2982  13.2991  13.7174  13.7176  13.9485  13.9491  14.1323  14.1326
    14.5707  14.5729  14.6272  14.6285  15.1227  15.1238  15.7235  15.7242
    16.5028  16.5042  16.7665  16.7667  16.8319  16.8331  16.8649  16.8655
    16.9947  16.9952  17.2460  17.2478  17.4924  17.4947  17.7264  17.7268
    17.8987  17.9014  18.0196  18.0213  18.4053  18.4063  18.4611  18.4620
    19.0109  19.0120

          k =-0.5000-0.5000 0.0000 ( 14124 PWs)   bands (ev):

   -67.0323 -67.0300 -66.9176 -66.9166 -62.4364 -62.4344 -62.3442 -62.3435
   -35.8076 -35.8065 -35.7575 -35.7575 -35.7545 -35.7545 -35.6991 -35.6987
   -35.6420 -35.6420 -35.6403 -35.6403 -31.2695 -31.2695 -31.2675 -31.2675
   -31.2598 -31.2577 -31.1761 -31.1761 -31.1755 -31.1755 -31.1739 -31.1733
     7.8490   7.8511   8.0114   8.0137   8.2832   8.2839   8.4792   8.4805
     8.6104   8.6119   8.8991   8.9001   8.9750   8.9766   9.0487   9.0487
     9.0772   9.0772   9.1213   9.1213   9.1873   9.1884   9.2400   9.2400
     9.2449   9.2449   9.4849   9.4849   9.4937   9.4937   9.6091   9.6122
     9.6387   9.6387   9.6673   9.6673   9.7654   9.7654   9.7692   9.7692
     9.7816   9.7840   9.8886   9.8886   9.9264   9.9264  10.3529  10.3529
    10.3787  10.3792  10.4223  10.4223  10.4750  10.4755  10.8934  10.8934
    10.9039  10.9048  10.9718  10.9726  11.0104  11.0104  11.1264  11.1269
    11.1896  11.1925  11.2974  11.2992  11.3190  11.3196  11.3617  11.3617
    11.7022  11.7038  11.7243  11.7263  11.7461  11.7461  11.7493  11.7496
    11.7685  11.7689  11.7913  11.7920  11.8136  11.8147  11.8312  11.8316
    11.8532  11.8538  11.9488  11.9492  11.9891  11.9894  11.9969  11.9976
    12.1096  12.1099  12.3818  12.3818  13.1612  13.1623  13.2025  13.2048
    13.6533  13.6533  14.0068  14.0068  14.1540  14.1540  14.4428  14.4428
    14.5380  14.5380  15.1976  15.1976  16.0972  16.0972  16.3953  16.3976
    16.5369  16.5382  16.6178  16.6181  16.7562  16.7570  16.9321  16.9321
    16.9324  16.9324  17.4502  17.4505  17.5844  17.5849  17.6290  17.6290
    17.6810  17.6813  17.8305  17.8350  17.9234  17.9234  17.9253  17.9282
    18.0739  18.0739

          k =-0.5000-0.5000 0.0159 ( 14144 PWs)   bands (ev):

   -67.0323 -67.0300 -66.9176 -66.9166 -62.4364 -62.4344 -62.3442 -62.3435
   -35.8076 -35.8065 -35.7575 -35.7575 -35.7545 -35.7545 -35.6991 -35.6987
   -35.6420 -35.6420 -35.6403 -35.6403 -31.2695 -31.2695 -31.2675 -31.2675
   -31.2598 -31.2577 -31.1761 -31.1761 -31.1755 -31.1755 -31.1739 -31.1733
     7.8491   7.8512   8.0110   8.0134   8.2861   8.2868   8.4667   8.4680
     8.6298   8.6312   8.8640   8.8652   9.0090   9.0104   9.0496   9.0496
     9.0741   9.0741   9.1272   9.1272   9.1780   9.1791   9.2122   9.2122
     9.2759   9.2759   9.4405   9.4405   9.5407   9.5407   9.6106   9.6136
     9.6387   9.6387   9.6672   9.6672   9.7490   9.7490   9.7676   9.7676
     9.7810   9.7834   9.8719   9.8719   9.9620   9.9620  10.2999  10.2999
    10.3787  10.3793  10.4750  10.4754  10.4801  10.4801  10.8409  10.8409
    10.9040  10.9048  10.9718  10.9726  11.0618  11.0618  11.1264  11.1269
    11.1896  11.1925  11.2974  11.2992  11.3190  11.3196  11.3432  11.3432
    11.7022  11.7038  11.7243  11.7263  11.7493  11.7496  11.7516  11.7516
    11.7685  11.7689  11.7913  11.7920  11.8136  11.8147  11.8312  11.8316
    11.8532  11.8538  11.9493  11.9497  11.9867  11.9871  11.9989  11.9995
    12.1096  12.1099  12.3805  12.3805  13.1612  13.1623  13.2025  13.2048
    13.6585  13.6585  13.9826  13.9826  14.1848  14.1848  14.4222  14.4222
    14.5472  14.5472  15.1976  15.1976  16.0977  16.0977  16.3953  16.3976
    16.5369  16.5382  16.6179  16.6182  16.7561  16.7569  16.8632  16.8632
    17.0221  17.0221  17.4543  17.4546  17.5563  17.5563  17.5738  17.5743
    17.6881  17.6884  17.8305  17.8350  17.9253  17.9282  18.0048  18.0048
    18.0734  18.0735

          k =-0.5000-0.5000 0.0319 ( 14180 PWs)   bands (ev):

   -67.0323 -67.0300 -66.9176 -66.9166 -62.4364 -62.4344 -62.3442 -62.3435
   -35.8076 -35.8065 -35.7575 -35.7575 -35.7545 -35.7545 -35.6991 -35.6987
   -35.6420 -35.6420 -35.6403 -35.6403 -31.2695 -31.2695 -31.2675 -31.2675
   -31.2598 -31.2577 -31.1761 -31.1761 -31.1755 -31.1755 -31.1739 -31.1733
     7.8492   7.8513   8.0104   8.0128   8.2926   8.2933   8.4458   8.4472
     8.6714   8.6728   8.8096   8.8108   9.0518   9.0518   9.0613   9.0626
     9.0683   9.0683   9.1417   9.1417   9.1518   9.1529   9.1854   9.1854
     9.3123   9.3123   9.3948   9.3948   9.5934   9.5934   9.6134   9.6165
     9.6388   9.6388   9.6663   9.6663   9.7068   9.7068   9.7674   9.7674
     9.7798   9.7822   9.8613   9.8613  10.0147  10.0147  10.2336  10.2336
    10.3788  10.3793  10.4750  10.4754  10.5640  10.5640  10.7560  10.7560
    10.9040  10.9049  10.9717  10.9725  11.1265  11.1270  11.1437  11.1437
    11.1896  11.1925  11.2936  11.2936  11.2974  11.2992  11.3189  11.3196
    11.7022  11.7038  11.7243  11.7263  11.7493  11.7496  11.7621  11.7621
    11.7685  11.7689  11.7913  11.7920  11.8136  11.8147  11.8312  11.8316
    11.8532  11.8538  11.9502  11.9506  11.9833  11.9837  12.0015  12.0020
    12.1095  12.1098  12.3778  12.3778  13.1612  13.1623  13.2025  13.2048
    13.6698  13.6698  13.9451  13.9451  14.2444  14.2444  14.3760  14.3760
    14.5606  14.5606  15.1975  15.1975  16.0985  16.0985  16.3953  16.3976
    16.5369  16.5382  16.6180  16.6183  16.7558  16.7566  16.8197  16.8197
    17.1246  17.1246  17.4318  17.4318  17.4643  17.4646  17.5534  17.5539
    17.6997  17.7000  17.8305  17.8350  17.9253  17.9282  18.0725  18.0725
    18.1556  18.1556

          k =-0.5000-0.5000-0.0478 ( 14176 PWs)   bands (ev):

   -67.0323 -67.0300 -66.9176 -66.9166 -62.4364 -62.4344 -62.3442 -62.3435
   -35.8076 -35.8065 -35.7575 -35.7575 -35.7545 -35.7545 -35.6991 -35.6987
   -35.6420 -35.6420 -35.6403 -35.6403 -31.2695 -31.2695 -31.2675 -31.2675
   -31.2598 -31.2577 -31.1761 -31.1761 -31.1755 -31.1755 -31.1739 -31.1733
     7.8492   7.8513   8.0101   8.0124   8.2962   8.2969   8.4364   8.4378
     8.7018   8.7032   8.7753   8.7766   9.0535   9.0535   9.0651   9.0651
     9.1036   9.1045   9.1186   9.1201   9.1584   9.1584   9.1648   9.1648
     9.3495   9.3495   9.3546   9.3546   9.6149   9.6179   9.6342   9.6342
     9.6451   9.6451   9.6510   9.6510   9.6765   9.6765   9.7674   9.7674
     9.7792   9.7816   9.8587   9.8587  10.0438  10.0438  10.2003  10.2003
    10.3788  10.3793  10.4749  10.4754  10.6286  10.6286  10.6906  10.6906
    10.9040  10.9049  10.9716  10.9724  11.1265  11.1270  11.1896  11.1925
    11.2198  11.2198  11.2281  11.2281  11.2974  11.2992  11.3189  11.3196
    11.7022  11.7038  11.7243  11.7263  11.7493  11.7496  11.7670  11.7670
    11.7685  11.7689  11.7913  11.7920  11.8136  11.8147  11.8312  11.8316
    11.8532  11.8538  11.9506  11.9511  11.9818  11.9823  12.0025  12.0030
    12.1095  12.1097  12.3765  12.3765  13.1612  13.1623  13.2025  13.2048
    13.6761  13.6761  13.9287  13.9287  14.2926  14.2926  14.3331  14.3331
    14.5660  14.5660  15.1975  15.1975  16.0990  16.0990  16.3952  16.3976
    16.5369  16.5382  16.6181  16.6184  16.7557  16.7565  16.8048  16.8048
    17.1950  17.1950  17.3516  17.3516  17.4708  17.4711  17.5424  17.5430
    17.7047  17.7050  17.8305  17.8350  17.9253  17.9282  18.0720  18.0720
    18.2661  18.2661

     the Fermi energy is    15.0130 ev

!    total energy              =  -14694.02249216 Ry
     Harris-Foulkes estimate   =  -14694.02249016 Ry
     estimated scf accuracy    <       0.00000099 Ry

     total all-electron energy =   -626921.618214 Ry

     The total energy is the sum of the following terms:

     one-electron contribution =    -729.91633709 Ry
     hartree contribution      =     661.54949308 Ry
     xc contribution           =    -737.65497329 Ry
     ewald contribution        =   -2186.64874840 Ry
     Hubbard energy            =       0.44932595 Ry
     one-center paw contrib.   =  -11701.80125240 Ry

     total magnetization       =     0.00 Bohr mag/cell
     absolute magnetization    =    37.17 Bohr mag/cell

     convergence has been achieved in  29 iterations

     Writing output data file mnau2.save/
 
     init_run     :     23.42s CPU     24.00s WALL (       1 calls)
     electrons    :   1496.47s CPU   1531.90s WALL (       1 calls)

     Called by init_run:
     wfcinit      :     21.79s CPU     22.27s WALL (       1 calls)
     potinit      :      0.82s CPU      0.84s WALL (       1 calls)
     hinit0       :      0.51s CPU      0.56s WALL (       1 calls)

     Called by electrons:
     c_bands      :   1318.56s CPU   1348.65s WALL (      29 calls)
     sum_band     :    157.50s CPU    162.32s WALL (      29 calls)
     v_of_rho     :      1.71s CPU      1.72s WALL (      30 calls)
     newd         :      4.42s CPU      4.45s WALL (      30 calls)
     PAW_pot      :     14.25s CPU     14.47s WALL (      30 calls)
     mix_rho      :      0.42s CPU      0.44s WALL (      29 calls)

     Called by c_bands:
     init_us_2    :      7.93s CPU      7.98s WALL (    4800 calls)
     cegterg      :   1270.71s CPU   1298.73s WALL (    2321 calls)

     Called by sum_band:
     sum_band:bec :      1.97s CPU      1.99s WALL (    2320 calls)
     addusdens    :      7.56s CPU      7.99s WALL (      29 calls)

     Called by *egterg:
     h_psi        :    536.48s CPU    550.93s WALL (    7834 calls)
     s_psi        :     78.97s CPU     79.06s WALL (    7914 calls)
     g_psi        :      2.05s CPU      2.06s WALL (    5433 calls)
     cdiaghg      :    465.65s CPU    478.22s WALL (    7754 calls)

     Called by h_psi:
     h_psi:pot    :    501.71s CPU    515.94s WALL (    7834 calls)
     h_psi:calbec :     90.35s CPU     93.65s WALL (    7834 calls)
     vloc_psi     :    334.64s CPU    345.47s WALL (    7834 calls)
     add_vuspsi   :     76.62s CPU     76.76s WALL (    7834 calls)
     vhpsi        :     33.07s CPU     33.27s WALL (    7834 calls)

     General routines
     calbec       :    157.60s CPU    162.69s WALL (   20388 calls)
     fft          :      1.33s CPU      1.35s WALL (     746 calls)
     ffts         :      0.10s CPU      0.11s WALL (     118 calls)
     fftw         :    397.47s CPU    410.67s WALL ( 2146868 calls)
     interpolate  :      0.14s CPU      0.15s WALL (      60 calls)
     davcio       :      0.00s CPU      0.01s WALL (      80 calls)
 
     Parallel routines
     fft_scatt_xy :     21.01s CPU     21.51s WALL ( 2147732 calls)
     fft_scatt_yz :    265.40s CPU    275.07s WALL ( 2147732 calls)

     Hubbard U routines
     new_ns       :      7.53s CPU      7.73s WALL (      29 calls)
     vhpsi        :     33.07s CPU     33.27s WALL (    7834 calls)
 
     PWSCF        : 25m30.88s CPU    26m29.65s WALL

 
   This run was terminated on:  18:17:32  29Mar2019            

=------------------------------------------------------------------------------=
   JOB DONE.
=------------------------------------------------------------------------------=
