
     Program PWSCF v.6.2 (svn rev. 14038) starts on  7Mar2019 at 21:34:59 

     This program is part of the open-source Quantum ESPRESSO suite
     for quantum simulation of materials; please cite
         "P. Giannozzi et al., J. Phys.:Condens. Matter 21 395502 (2009);
         "P. Giannozzi et al., J. Phys.:Condens. Matter 29 465901 (2017);
          URL http://www.quantum-espresso.org", 
     in publications or presentations arising from this work. More details at
     http://www.quantum-espresso.org/quote

     Parallel version (MPI), running on    16 processors

     MPI processes distributed on     1 nodes
     R & G space division:  proc/nbgrp/npool/nimage =      16
     Waiting for input...
     Reading input from standard input

     Current dimensions of program PWSCF are:
     Max number of different atomic species (ntypx) = 10
     Max number of k-points (npk) =  40000
     Max angular momentum in pseudopotentials (lmaxx) =  3
               file Mn.pbe-spn-kjpaw_psl.0.3.1.UPF: wavefunction(s)  3P 3D renormalized
               file Mn.pbe-spn-kjpaw_psl.0.3.1.UPF: wavefunction(s)  3P 3D renormalized
               file Au.pbe-dn-kjpaw_psl.0.1.UPF: wavefunction(s)  6S 6P 5D renormalized

     Subspace diagonalization in iterative solution of the eigenvalue problem:
     a serial algorithm will be used

 
     Parallelization info
     --------------------
     sticks:   dense  smooth     PW     G-vecs:    dense   smooth      PW
     Min         736     331     90                52486    15847    2256
     Max         737     332     91                52489    15850    2259
     Sum       11785    5297   1449               839803   253559   36125
 


     bravais-lattice index     =            0
     lattice parameter (alat)  =      19.2459  a.u.
     unit-cell volume          =    6216.1497 (a.u.)^3
     number of atoms/cell      =           54
     number of atomic types    =            3
     number of electrons       =       666.00
     number of Kohn-Sham states=          400
     kinetic-energy cutoff     =      45.0000  Ry
     charge density cutoff     =     400.0000  Ry
     convergence threshold     =      1.0E-06
     mixing beta               =       0.1000
     number of iterations used =            8  plain     mixing
     Exchange-correlation      = SLA PW PBX PBC ( 1  4  3  4 0 0)

     celldm(1)=  19.245946  celldm(2)=   0.000000  celldm(3)=   0.000000
     celldm(4)=   0.000000  celldm(5)=   0.000000  celldm(6)=   0.000000

     crystal axes: (cart. coord. in units of alat)
               a(1) = (   1.000000   0.000000   0.000000 )  
               a(2) = (   0.000000   1.000000   0.000000 )  
               a(3) = (   0.000000   0.000000   0.871974 )  

     reciprocal axes: (cart. coord. in units 2 pi/alat)
               b(1) = (  1.000000  0.000000  0.000000 )  
               b(2) = (  0.000000  1.000000  0.000000 )  
               b(3) = (  0.000000  0.000000  1.146823 )  


     PseudoPot. # 1 for Mn read from file:
     ./pseudo/Mn.pbe-spn-kjpaw_psl.0.3.1.UPF
     MD5 check sum: 7eef95dd2aae66803482eea66ebeebf1
     Pseudo is Projector augmented-wave + core cor, Zval = 15.0
     Generated using "atomic" code by A. Dal Corso v.5.0.99 svn rev. 10869
     Shape of augmentation charge: PSQ
     Using radial grid of 1187 points,  6 beta functions with: 
                l(1) =   0
                l(2) =   0
                l(3) =   1
                l(4) =   1
                l(5) =   2
                l(6) =   2
     Q(r) pseudized with 0 coefficients 


     PseudoPot. # 2 for Mn read from file:
     ./pseudo/Mn.pbe-spn-kjpaw_psl.0.3.1.UPF
     MD5 check sum: 7eef95dd2aae66803482eea66ebeebf1
     Pseudo is Projector augmented-wave + core cor, Zval = 15.0
     Generated using "atomic" code by A. Dal Corso v.5.0.99 svn rev. 10869
     Shape of augmentation charge: PSQ
     Using radial grid of 1187 points,  6 beta functions with: 
                l(1) =   0
                l(2) =   0
                l(3) =   1
                l(4) =   1
                l(5) =   2
                l(6) =   2
     Q(r) pseudized with 0 coefficients 


     PseudoPot. # 3 for Au read from file:
     ./pseudo/Au.pbe-dn-kjpaw_psl.0.1.UPF
     MD5 check sum: 5c9b92683623e7ae2ab3f8e525febab6
     Pseudo is Projector augmented-wave + core cor, Zval = 11.0
     Generated using "atomic" code by A. Dal Corso v.5.0.2 svn rev. 9415
     Shape of augmentation charge: PSQ
     Using radial grid of 1279 points,  6 beta functions with: 
                l(1) =   0
                l(2) =   0
                l(3) =   1
                l(4) =   1
                l(5) =   2
                l(6) =   2
     Q(r) pseudized with 0 coefficients 


     atomic species   valence    mass     pseudopotential
        Mn1           15.00    54.93800     Mn( 1.00)
        Mn2           15.00    54.93800     Mn( 1.00)
        Au            11.00   196.96600     Au( 1.00)

     Starting magnetic structure 
     atomic species   magnetization
        Mn1          0.800
        Mn2         -0.800
        Au           0.000

      2 Sym. Ops. (no inversion) found



   Cartesian axes

     site n.     atom                  positions (alat units)
         1           Mn1 tau(   1) = (   0.0000000   0.0000000   0.0000000  )
         2           Mn1 tau(   2) = (   0.0000000   0.3333300   0.0000000  )
         3           Mn2 tau(   3) = (   0.0000000   0.6666700   0.0000000  )
         4           Mn2 tau(   4) = (   0.3333300   0.0000000   0.0000000  )
         5           Mn1 tau(   5) = (   0.3333300   0.3333300   0.0000000  )
         6           Mn2 tau(   6) = (   0.3333300   0.6666700   0.0000000  )
         7           Mn1 tau(   7) = (   0.6666700   0.0000000   0.0000000  )
         8           Mn2 tau(   8) = (   0.6666700   0.3333300   0.0000000  )
         9           Mn1 tau(   9) = (   0.6666700   0.6666700   0.0000000  )
        10           Mn2 tau(  10) = (   0.1666700   0.1666700   0.4359871  )
        11           Mn2 tau(  11) = (   0.1666700   0.5000000   0.4359871  )
        12           Mn1 tau(  12) = (   0.1666700   0.8333300   0.4359871  )
        13           Mn1 tau(  13) = (   0.5000000   0.1666700   0.4359871  )
        14           Mn2 tau(  14) = (   0.5000000   0.5000000   0.4359871  )
        15           Mn1 tau(  15) = (   0.5000000   0.8333300   0.4359871  )
        16           Mn2 tau(  16) = (   0.8333300   0.1666700   0.4359871  )
        17           Mn1 tau(  17) = (   0.8333300   0.5000000   0.4359871  )
        18           Mn2 tau(  18) = (   0.8333300   0.8333300   0.4359871  )
        19           Au  tau(  19) = (   0.1666700   0.1666700   0.7327374  )
        20           Au  tau(  20) = (   0.1666700   0.5000000   0.7327374  )
        21           Au  tau(  21) = (   0.1666700   0.8333300   0.7327374  )
        22           Au  tau(  22) = (   0.5000000   0.1666700   0.7327374  )
        23           Au  tau(  23) = (   0.5000000   0.5000000   0.7327374  )
        24           Au  tau(  24) = (   0.5000000   0.8333300   0.7327374  )
        25           Au  tau(  25) = (   0.8333300   0.1666700   0.7327374  )
        26           Au  tau(  26) = (   0.8333300   0.5000000   0.7327374  )
        27           Au  tau(  27) = (   0.8333300   0.8333300   0.7327374  )
        28           Au  tau(  28) = (   0.1666700   0.1666700   0.1392369  )
        29           Au  tau(  29) = (   0.1666700   0.5000000   0.1392369  )
        30           Au  tau(  30) = (   0.1666700   0.8333300   0.1392369  )
        31           Au  tau(  31) = (   0.5000000   0.1666700   0.1392369  )
        32           Au  tau(  32) = (   0.5000000   0.5000000   0.1392369  )
        33           Au  tau(  33) = (   0.5000000   0.8333300   0.1392369  )
        34           Au  tau(  34) = (   0.8333300   0.1666700   0.1392369  )
        35           Au  tau(  35) = (   0.8333300   0.5000000   0.1392369  )
        36           Au  tau(  36) = (   0.8333300   0.8333300   0.1392369  )
        37           Au  tau(  37) = (   0.0000000   0.0000000   0.2967503  )
        38           Au  tau(  38) = (   0.0000000   0.3333300   0.2967503  )
        39           Au  tau(  39) = (   0.0000000   0.6666700   0.2967503  )
        40           Au  tau(  40) = (   0.3333300   0.0000000   0.2967503  )
        41           Au  tau(  41) = (   0.3333300   0.3333300   0.2967503  )
        42           Au  tau(  42) = (   0.3333300   0.6666700   0.2967503  )
        43           Au  tau(  43) = (   0.6666700   0.0000000   0.2967503  )
        44           Au  tau(  44) = (   0.6666700   0.3333300   0.2967503  )
        45           Au  tau(  45) = (   0.6666700   0.6666700   0.2967503  )
        46           Au  tau(  46) = (   0.0000000   0.0000000   0.5752240  )
        47           Au  tau(  47) = (   0.0000000   0.3333300   0.5752240  )
        48           Au  tau(  48) = (   0.0000000   0.6666700   0.5752240  )
        49           Au  tau(  49) = (   0.3333300   0.0000000   0.5752240  )
        50           Au  tau(  50) = (   0.3333300   0.3333300   0.5752240  )
        51           Au  tau(  51) = (   0.3333300   0.6666700   0.5752240  )
        52           Au  tau(  52) = (   0.6666700   0.0000000   0.5752240  )
        53           Au  tau(  53) = (   0.6666700   0.3333300   0.5752240  )
        54           Au  tau(  54) = (   0.6666700   0.6666700   0.5752240  )

     number of k points=     8 (tetrahedron method)
                       cart. coord. in units 2pi/alat
        k(    1) = (   0.0000000   0.0000000   0.0000000), wk =   0.1250000
        k(    2) = (   0.0000000   0.0000000  -0.5734114), wk =   0.1250000
        k(    3) = (   0.0000000  -0.5000000   0.0000000), wk =   0.1250000
        k(    4) = (   0.0000000  -0.5000000  -0.5734114), wk =   0.1250000
        k(    5) = (  -0.5000000  -0.5000000   0.0000000), wk =   0.1250000
        k(    6) = (  -0.5000000  -0.5000000  -0.5734114), wk =   0.1250000
        k(    7) = (  -0.5000000   0.0000000   0.0000000), wk =   0.1250000
        k(    8) = (  -0.5000000   0.0000000   0.5734114), wk =   0.1250000

     Dense  grid:   839803 G-vectors     FFT dimensions: ( 125, 125, 108)

     Smooth grid:   253559 G-vectors     FFT dimensions: (  90,  90,  72)

     Estimated max dynamical RAM per process >     570.13 MB

     Estimated total dynamical RAM >       8.91 GB
     Generating pointlists ...
     new r_m :   0.1129 (alat units)  2.1733 (a.u.) for type    1
     new r_m :   0.1129 (alat units)  2.1733 (a.u.) for type    2
     new r_m :   0.1129 (alat units)  2.1733 (a.u.) for type    3

     Check: negative/imaginary core charge=   -0.000006    0.000000

     Initial potential from superposition of free atoms

     starting charge  665.98709, renormalised to  666.00000
     Starting wfc are  504 randomized atomic wfcs
     Checking if some PAW data can be deallocated... 

     total cpu time spent up to now is       56.1 secs

     Self-consistent Calculation

     iteration #  1     ecut=    45.00 Ry     beta= 0.10
     Davidson diagonalization with overlap
     ethr =  1.00E-02,  avg # of iterations =  3.2

     total cpu time spent up to now is      218.4 secs

     total energy              =  -33047.23098089 Ry
     Harris-Foulkes estimate   =  -33044.09364816 Ry
     estimated scf accuracy    <      27.00931551 Ry

     total magnetization       =     0.00 Bohr mag/cell
     absolute magnetization    =    91.85 Bohr mag/cell

     iteration #  2     ecut=    45.00 Ry     beta= 0.10
     Davidson diagonalization with overlap
     ethr =  4.06E-03,  avg # of iterations =  1.1

     total cpu time spent up to now is      328.5 secs

     total energy              =  -33058.54611883 Ry
     Harris-Foulkes estimate   =  -33047.40793445 Ry
     estimated scf accuracy    <      21.34782843 Ry

     total magnetization       =     0.00 Bohr mag/cell
     absolute magnetization    =    91.47 Bohr mag/cell

     iteration #  3     ecut=    45.00 Ry     beta= 0.10
     Davidson diagonalization with overlap
     ethr =  3.21E-03,  avg # of iterations =  2.1

     total cpu time spent up to now is      462.3 secs

     total energy              =  -33066.70666794 Ry
     Harris-Foulkes estimate   =  -33061.33750732 Ry
     estimated scf accuracy    <       8.88632781 Ry

     total magnetization       =     0.00 Bohr mag/cell
     absolute magnetization    =    85.43 Bohr mag/cell

     iteration #  4     ecut=    45.00 Ry     beta= 0.10
     Davidson diagonalization with overlap
     ethr =  1.33E-03,  avg # of iterations =  4.3

     total cpu time spent up to now is      685.9 secs

     total energy              =  -33058.42707407 Ry
     Harris-Foulkes estimate   =  -33069.95310665 Ry
     estimated scf accuracy    <      60.86770116 Ry

     total magnetization       =     0.18 Bohr mag/cell
     absolute magnetization    =    69.43 Bohr mag/cell

     iteration #  5     ecut=    45.00 Ry     beta= 0.10
     Davidson diagonalization with overlap
     ethr =  1.33E-03,  avg # of iterations =  4.6

     total cpu time spent up to now is      925.1 secs

     total energy              =  -33061.86142269 Ry
     Harris-Foulkes estimate   =  -33062.68674788 Ry
     estimated scf accuracy    <       4.49700302 Ry

     total magnetization       =     0.01 Bohr mag/cell
     absolute magnetization    =    83.17 Bohr mag/cell

     iteration #  6     ecut=    45.00 Ry     beta= 0.10
     Davidson diagonalization with overlap
     ethr =  6.75E-04,  avg # of iterations =  3.7

     total cpu time spent up to now is     1082.5 secs

     total energy              =  -33062.54199007 Ry
     Harris-Foulkes estimate   =  -33062.53439872 Ry
     estimated scf accuracy    <       0.31641017 Ry

     total magnetization       =    -0.03 Bohr mag/cell
     absolute magnetization    =    79.61 Bohr mag/cell

     iteration #  7     ecut=    45.00 Ry     beta= 0.10
     Davidson diagonalization with overlap
     ethr =  4.75E-05,  avg # of iterations =  5.0

     total cpu time spent up to now is     1285.6 secs

     total energy              =  -33062.58762521 Ry
     Harris-Foulkes estimate   =  -33062.59451342 Ry
     estimated scf accuracy    <       0.06377025 Ry

     total magnetization       =    -0.00 Bohr mag/cell
     absolute magnetization    =    78.72 Bohr mag/cell

     iteration #  8     ecut=    45.00 Ry     beta= 0.10
     Davidson diagonalization with overlap
     ethr =  9.58E-06,  avg # of iterations =  4.4

     total cpu time spent up to now is     1453.1 secs

     total energy              =  -33062.59815192 Ry
     Harris-Foulkes estimate   =  -33062.59870151 Ry
     estimated scf accuracy    <       0.10478139 Ry

     total magnetization       =    -0.00 Bohr mag/cell
     absolute magnetization    =    77.99 Bohr mag/cell

     iteration #  9     ecut=    45.00 Ry     beta= 0.10
     Davidson diagonalization with overlap
     ethr =  9.58E-06,  avg # of iterations =  1.1

     total cpu time spent up to now is     1563.2 secs

     total energy              =  -33062.58509512 Ry
     Harris-Foulkes estimate   =  -33062.59901004 Ry
     estimated scf accuracy    <       0.09451433 Ry

     total magnetization       =    -0.00 Bohr mag/cell
     absolute magnetization    =    77.85 Bohr mag/cell

     iteration # 10     ecut=    45.00 Ry     beta= 0.10
     Davidson diagonalization with overlap
     ethr =  9.58E-06,  avg # of iterations =  2.1

     total cpu time spent up to now is     1691.8 secs

     total energy              =  -33062.59337572 Ry
     Harris-Foulkes estimate   =  -33062.59417386 Ry
     estimated scf accuracy    <       0.00835041 Ry

     total magnetization       =    -0.00 Bohr mag/cell
     absolute magnetization    =    77.94 Bohr mag/cell

     iteration # 11     ecut=    45.00 Ry     beta= 0.10
     Davidson diagonalization with overlap
     ethr =  1.25E-06,  avg # of iterations =  4.9

     total cpu time spent up to now is     1893.7 secs

     total energy              =  -33062.59868751 Ry
     Harris-Foulkes estimate   =  -33062.59729906 Ry
     estimated scf accuracy    <       0.00957857 Ry

     total magnetization       =    -0.00 Bohr mag/cell
     absolute magnetization    =    78.56 Bohr mag/cell

     iteration # 12     ecut=    45.00 Ry     beta= 0.10
     Davidson diagonalization with overlap
     ethr =  1.25E-06,  avg # of iterations =  1.0

     total cpu time spent up to now is     2002.5 secs

     total energy              =  -33062.59941129 Ry
     Harris-Foulkes estimate   =  -33062.59866988 Ry
     estimated scf accuracy    <       0.00362215 Ry

     total magnetization       =    -0.00 Bohr mag/cell
     absolute magnetization    =    78.45 Bohr mag/cell

     iteration # 13     ecut=    45.00 Ry     beta= 0.10
     Davidson diagonalization with overlap
     ethr =  5.44E-07,  avg # of iterations =  1.0

     total cpu time spent up to now is     2111.6 secs

     total energy              =  -33062.60026292 Ry
     Harris-Foulkes estimate   =  -33062.59939006 Ry
     estimated scf accuracy    <       0.00226325 Ry

     total magnetization       =    -0.00 Bohr mag/cell
     absolute magnetization    =    78.39 Bohr mag/cell

     iteration # 14     ecut=    45.00 Ry     beta= 0.10
     Davidson diagonalization with overlap
     ethr =  3.40E-07,  avg # of iterations =  2.9

     total cpu time spent up to now is     2257.1 secs

     total energy              =  -33062.60048731 Ry
     Harris-Foulkes estimate   =  -33062.60031020 Ry
     estimated scf accuracy    <       0.00015376 Ry

     total magnetization       =    -0.00 Bohr mag/cell
     absolute magnetization    =    78.21 Bohr mag/cell

     iteration # 15     ecut=    45.00 Ry     beta= 0.10
     Davidson diagonalization with overlap
     ethr =  2.31E-08,  avg # of iterations =  4.1

     total cpu time spent up to now is     2419.8 secs

     total energy              =  -33062.60060819 Ry
     Harris-Foulkes estimate   =  -33062.60047482 Ry
     estimated scf accuracy    <       0.00010452 Ry

     total magnetization       =    -0.00 Bohr mag/cell
     absolute magnetization    =    78.18 Bohr mag/cell

     iteration # 16     ecut=    45.00 Ry     beta= 0.10
     Davidson diagonalization with overlap
     ethr =  1.57E-08,  avg # of iterations =  2.0

     total cpu time spent up to now is     2544.8 secs

     total energy              =  -33062.60068572 Ry
     Harris-Foulkes estimate   =  -33062.60058428 Ry
     estimated scf accuracy    <       0.00005108 Ry

     total magnetization       =    -0.00 Bohr mag/cell
     absolute magnetization    =    78.16 Bohr mag/cell

     iteration # 17     ecut=    45.00 Ry     beta= 0.10
     Davidson diagonalization with overlap
     ethr =  7.67E-09,  avg # of iterations =  3.0

     total cpu time spent up to now is     2709.0 secs

     total energy              =  -33062.60068723 Ry
     Harris-Foulkes estimate   =  -33062.60065815 Ry
     estimated scf accuracy    <       0.00001676 Ry

     total magnetization       =     0.00 Bohr mag/cell
     absolute magnetization    =    78.14 Bohr mag/cell

     iteration # 18     ecut=    45.00 Ry     beta= 0.10
     Davidson diagonalization with overlap
     ethr =  2.52E-09,  avg # of iterations =  2.0

     total cpu time spent up to now is     2835.6 secs

     total energy              =  -33062.60068766 Ry
     Harris-Foulkes estimate   =  -33062.60067018 Ry
     estimated scf accuracy    <       0.00000747 Ry

     total magnetization       =     0.00 Bohr mag/cell
     absolute magnetization    =    78.13 Bohr mag/cell

     iteration # 19     ecut=    45.00 Ry     beta= 0.10
     Davidson diagonalization with overlap
     ethr =  1.12E-09,  avg # of iterations =  3.0

     total cpu time spent up to now is     3007.5 secs

     total energy              =  -33062.60067581 Ry
     Harris-Foulkes estimate   =  -33062.60066763 Ry
     estimated scf accuracy    <       0.00000270 Ry

     total magnetization       =    -0.00 Bohr mag/cell
     absolute magnetization    =    78.12 Bohr mag/cell

     iteration # 20     ecut=    45.00 Ry     beta= 0.10
     Davidson diagonalization with overlap
     ethr =  4.05E-10,  avg # of iterations =  3.0

     total cpu time spent up to now is     3158.3 secs

     total energy              =  -33062.60067172 Ry
     Harris-Foulkes estimate   =  -33062.60066614 Ry
     estimated scf accuracy    <       0.00000143 Ry

     total magnetization       =     0.00 Bohr mag/cell
     absolute magnetization    =    78.12 Bohr mag/cell

     iteration # 21     ecut=    45.00 Ry     beta= 0.10
     Davidson diagonalization with overlap
     ethr =  2.15E-10,  avg # of iterations =  2.3
 
     Magnetic moment per site:
     atom:    1    charge:   13.5797    magn:    3.9839    constr:    0.0000
     atom:    2    charge:   13.5738    magn:    4.0159    constr:    0.0000
     atom:    3    charge:   13.5800    magn:   -4.0002    constr:    0.0000
     atom:    4    charge:   13.5765    magn:   -4.0247    constr:    0.0000
     atom:    5    charge:   13.5771    magn:    4.0016    constr:    0.0000
     atom:    6    charge:   13.5776    magn:   -3.9912    constr:    0.0000
     atom:    7    charge:   13.5826    magn:    3.9515    constr:    0.0000
     atom:    8    charge:   13.5778    magn:   -4.0269    constr:    0.0000
     atom:    9    charge:   13.5806    magn:    3.9818    constr:    0.0000
     atom:   10    charge:   13.5797    magn:   -3.9838    constr:    0.0000
     atom:   11    charge:   13.5826    magn:   -3.9515    constr:    0.0000
     atom:   12    charge:   13.5766    magn:    4.0247    constr:    0.0000
     atom:   13    charge:   13.5799    magn:    4.0003    constr:    0.0000
     atom:   14    charge:   13.5805    magn:   -3.9820    constr:    0.0000
     atom:   15    charge:   13.5776    magn:    3.9912    constr:    0.0000
     atom:   16    charge:   13.5738    magn:   -4.0159    constr:    0.0000
     atom:   17    charge:   13.5779    magn:    4.0270    constr:    0.0000
     atom:   18    charge:   13.5772    magn:   -4.0017    constr:    0.0000
     atom:   19    charge:    9.1224    magn:    0.0163    constr:    0.0000
     atom:   20    charge:    9.1207    magn:   -0.0102    constr:    0.0000
     atom:   21    charge:    9.1218    magn:   -0.0182    constr:    0.0000
     atom:   22    charge:    9.1213    magn:    0.0090    constr:    0.0000
     atom:   23    charge:    9.1206    magn:   -0.0074    constr:    0.0000
     atom:   24    charge:    9.1210    magn:    0.0124    constr:    0.0000
     atom:   25    charge:    9.1210    magn:    0.0165    constr:    0.0000
     atom:   26    charge:    9.1206    magn:    0.0047    constr:    0.0000
     atom:   27    charge:    9.1207    magn:    0.0180    constr:    0.0000
     atom:   28    charge:    9.1224    magn:    0.0163    constr:    0.0000
     atom:   29    charge:    9.1207    magn:   -0.0102    constr:    0.0000
     atom:   30    charge:    9.1218    magn:   -0.0182    constr:    0.0000
     atom:   31    charge:    9.1213    magn:    0.0090    constr:    0.0000
     atom:   32    charge:    9.1206    magn:   -0.0074    constr:    0.0000
     atom:   33    charge:    9.1210    magn:    0.0124    constr:    0.0000
     atom:   34    charge:    9.1210    magn:    0.0165    constr:    0.0000
     atom:   35    charge:    9.1206    magn:    0.0047    constr:    0.0000
     atom:   36    charge:    9.1207    magn:    0.0180    constr:    0.0000
     atom:   37    charge:    9.1225    magn:   -0.0163    constr:    0.0000
     atom:   38    charge:    9.1211    magn:   -0.0165    constr:    0.0000
     atom:   39    charge:    9.1215    magn:   -0.0090    constr:    0.0000
     atom:   40    charge:    9.1219    magn:    0.0182    constr:    0.0000
     atom:   41    charge:    9.1206    magn:   -0.0180    constr:    0.0000
     atom:   42    charge:    9.1210    magn:   -0.0124    constr:    0.0000
     atom:   43    charge:    9.1209    magn:    0.0102    constr:    0.0000
     atom:   44    charge:    9.1206    magn:   -0.0047    constr:    0.0000
     atom:   45    charge:    9.1205    magn:    0.0074    constr:    0.0000
     atom:   46    charge:    9.1225    magn:   -0.0163    constr:    0.0000
     atom:   47    charge:    9.1211    magn:   -0.0165    constr:    0.0000
     atom:   48    charge:    9.1215    magn:   -0.0090    constr:    0.0000
     atom:   49    charge:    9.1219    magn:    0.0182    constr:    0.0000
     atom:   50    charge:    9.1206    magn:   -0.0180    constr:    0.0000
     atom:   51    charge:    9.1210    magn:   -0.0124    constr:    0.0000
     atom:   52    charge:    9.1209    magn:    0.0102    constr:    0.0000
     atom:   53    charge:    9.1206    magn:   -0.0047    constr:    0.0000
     atom:   54    charge:    9.1205    magn:    0.0074    constr:    0.0000

     total cpu time spent up to now is     3299.2 secs

     End of self-consistent calculation

 ------ SPIN UP ------------


          k = 0.0000 0.0000 0.0000 ( 31747 PWs)   bands (ev):

   -66.7027 -66.6817 -66.6714 -66.6470 -66.6468 -66.6432 -66.6318 -66.6088
   -66.5853 -62.3802 -62.3674 -62.3572 -62.3522 -62.3503 -62.3308 -62.3274
   -62.3249 -62.3153 -35.4646 -35.4570 -35.4414 -35.4338 -35.4325 -35.4199
   -35.4190 -35.4168 -35.4132 -35.4031 -35.3999 -35.3950 -35.3931 -35.3899
   -35.3891 -35.3881 -35.3860 -35.3768 -35.3763 -35.3750 -35.3659 -35.3588
   -35.3528 -35.3358 -35.3328 -35.3263 -35.3213 -31.2200 -31.2180 -31.2097
   -31.1949 -31.1945 -31.1930 -31.1911 -31.1890 -31.1812 -31.1801 -31.1773
   -31.1771 -31.1744 -31.1733 -31.1713 -31.1650 -31.1643 -31.1631 -31.1610
   -31.1577 -31.1471 -31.1463 -31.1376 -31.1347 -31.1333 -31.1324 -31.1313
     5.6158   7.1573   7.1693   7.1730   7.2098   7.3624   7.8717   7.8749
     7.9142   7.9411   8.0968   8.1232   8.1244   8.1560   8.1894   8.2563
     8.2665   8.2882   8.2953   8.5310   8.5530   8.5586   8.5753   8.5791
     8.6097   8.8588   8.8648   8.8731   8.8778   8.8828   8.8851   8.8952
     8.9046   8.9099   8.9267   8.9314   8.9416   8.9506   8.9611   8.9659
     8.9726   9.0818   9.1198   9.1264   9.1287   9.1296   9.1535   9.1626
     9.1810   9.1919   9.2013   9.2771   9.2896   9.2941   9.3032   9.3554
     9.3636   9.3637   9.3691   9.3928   9.3932   9.3967   9.4046   9.4168
     9.4373   9.4389   9.4472   9.4483   9.4562   9.4681   9.4717   9.5782
     9.5855   9.5863   9.5877   9.6158   9.6240   9.6627   9.6643   9.6676
     9.6700   9.6724   9.6734   9.7483   9.7681   9.7703   9.7795   9.8492
     9.8501   9.9139   9.9182   9.9384   9.9398   9.9490   9.9828  10.0097
    10.1109  10.1339  10.1651  10.1761  10.2880  10.2914  10.2935  10.3042
    10.3052  10.3120  10.3150  10.3183  10.3209  10.3263  10.3374  10.3460
    10.3466  10.3467  10.3508  10.3524  10.3602  10.3640  10.3821  10.3856
    10.3887  10.4996  10.5173  10.5847  10.6132  10.6172  10.6603  10.7049
    10.7537  10.7548  10.7847  10.7856  10.7874  10.8051  10.8317  10.8447
    10.8470  10.8511  10.8677  10.8705  10.8749  10.8792  10.8860  10.8947
    10.8995  10.9073  11.0335  11.0402  11.0700  11.0828  11.2040  11.2090
    11.2213  11.2274  11.2279  11.2693  11.2948  11.3291  11.3513  11.3636
    11.3680  11.3743  11.3839  11.3996  11.4030  11.4134  11.4167  11.4223
    11.4302  11.5294  11.5553  11.5738  11.5898  11.5902  11.5933  11.5967
    11.6205  11.6395  11.6519  11.6567  11.7277  11.7367  11.7380  11.7463
    11.8197  11.8245  11.8406  11.8515  11.8689  11.9105  11.9348  11.9499
    11.9503  11.9636  12.0967  12.0995  12.1002  12.1017  12.1033  12.1420
    12.1439  12.1454  12.1463  12.1501  12.1619  12.1782  12.1938  12.2182
    12.2219  12.2633  12.2979  12.3423  12.3704  12.3771  12.4329  12.4419
    12.4456  12.4613  12.4796  12.4946  12.4987  12.5229  12.5407  12.5548
    12.5590  12.5701  12.5968  12.6006  12.6303  12.6631  12.6804  12.7147
    12.7153  12.7697  12.8375  12.9662  12.9764  13.0047  13.0109  13.0648
    13.0836  13.1014  13.1486  13.1607  13.5833  13.7184  13.7327  13.7814
    13.8452  13.9669  14.0425  14.2352  14.2548  14.3190  14.3597  14.3806
    14.8574  14.8786  14.9412  14.9948  15.0736  15.1039  15.1252  15.2051
    15.2605  15.2910  15.3619  15.3709  15.4617  15.5029  15.5555  15.5728
    15.5777  15.6661  15.7459  15.8359  15.9264  15.9818  16.0092  16.0364
    16.0718  16.1007  16.1026  16.1240  16.1425  16.1554  16.1703  16.1816
    16.1868  16.2048  16.2331  16.2354  16.2717  16.3418  16.3963  16.4418
    16.4929  16.5759  16.5973  16.6248  16.6480  16.7304  16.8335  16.8706
    16.9267  17.0342  17.1760  17.2048  17.2115  17.2363  17.2719  17.3038
    17.4241  17.4661  17.8356  17.9015  17.9312  17.9451  17.9609  18.1269
    18.1941  18.2465  18.4115  19.0048  19.0365  19.0520  19.0958  19.1988

          k = 0.0000 0.0000-0.5734 ( 31692 PWs)   bands (ev):

   -66.7027 -66.6817 -66.6714 -66.6470 -66.6468 -66.6432 -66.6318 -66.6088
   -66.5853 -62.3802 -62.3674 -62.3572 -62.3522 -62.3503 -62.3308 -62.3274
   -62.3249 -62.3153 -35.4646 -35.4570 -35.4414 -35.4338 -35.4325 -35.4199
   -35.4190 -35.4168 -35.4132 -35.4031 -35.3999 -35.3950 -35.3931 -35.3899
   -35.3891 -35.3881 -35.3860 -35.3768 -35.3763 -35.3750 -35.3659 -35.3588
   -35.3528 -35.3358 -35.3328 -35.3263 -35.3213 -31.2200 -31.2180 -31.2097
   -31.1949 -31.1945 -31.1930 -31.1911 -31.1890 -31.1812 -31.1801 -31.1773
   -31.1771 -31.1744 -31.1733 -31.1713 -31.1650 -31.1643 -31.1631 -31.1610
   -31.1577 -31.1471 -31.1463 -31.1376 -31.1347 -31.1333 -31.1324 -31.1313
     6.1761   6.1942   7.5311   7.5427   7.5581   7.5624   7.5963   7.6070
     7.6207   7.6392   8.3121   8.3205   8.3359   8.3422   8.3590   8.3723
     8.3825   8.3934   8.4572   8.4607   8.4710   8.4711   8.4961   8.4965
     8.5144   8.5150   8.7000   8.7067   8.7641   8.7813   8.9465   8.9562
     8.9625   8.9687   8.9736   8.9918   8.9989   9.0065   9.0080   9.0219
     9.0273   9.0380   9.0427   9.0506   9.0760   9.0903   9.2224   9.2238
     9.2330   9.2385   9.2514   9.2548   9.2640   9.2692   9.2724   9.2811
     9.2841   9.2861   9.2888   9.2897   9.2919   9.2948   9.4089   9.4108
     9.4237   9.4276   9.4519   9.4550   9.4554   9.4632   9.4657   9.4778
     9.4844   9.4890   9.4931   9.5076   9.5120   9.5195   9.6425   9.6665
     9.7778   9.7809   9.7924   9.7950   9.8174   9.8226   9.8317   9.8463
     9.8706   9.8712   9.8819   9.8822   9.8849   9.8857   9.8923   9.8931
    10.0568  10.0587  10.0605  10.0618  10.1432  10.1518  10.1605  10.1674
    10.1725  10.1749  10.1764  10.1901  10.1989  10.2109  10.3517  10.3546
    10.3863  10.3885  10.3969  10.4052  10.4332  10.4374  10.4847  10.5074
    10.5765  10.5862  10.6056  10.6114  10.6219  10.6391  10.6432  10.6554
    10.6862  10.6961  10.7387  10.7495  10.7735  10.8079  10.8091  10.8627
    10.9111  10.9146  10.9822  11.0128  11.0266  11.0397  11.0399  11.0643
    11.0661  11.0846  11.1119  11.1403  11.1670  11.1709  11.1932  11.2192
    11.2484  11.2501  11.2557  11.2582  11.2594  11.2597  11.2656  11.2671
    11.2720  11.2796  11.2847  11.2866  11.2903  11.2909  11.3050  11.3087
    11.3165  11.3189  11.3196  11.3255  11.5307  11.5390  11.7103  11.7125
    11.7141  11.7188  11.7202  11.7236  11.7322  11.7329  11.7439  11.7529
    11.7637  11.7686  11.7699  11.7853  11.7873  11.8524  11.8950  11.9285
    11.9537  11.9644  11.9995  12.0149  12.0201  12.0551  12.0865  12.0971
    12.1542  12.1795  12.2011  12.2416  12.2544  12.2888  12.2990  12.4082
    12.4109  12.4423  12.4510  12.4650  12.4721  12.4944  12.4944  12.5013
    12.5245  12.5251  12.5397  12.5473  12.5620  12.5744  12.6142  12.6682
    12.6788  12.7068  12.7179  12.7643  12.7730  12.8025  12.8186  12.8554
    12.8842  12.8978  12.9498  13.0965  13.1898  13.2076  13.2206  13.2473
    13.3183  13.3573  13.4224  13.4946  13.5127  13.5395  13.7314  13.7417
    13.7561  13.9761  14.0091  14.0135  14.1181  14.1487  14.2693  14.5580
    14.6964  14.8098  14.9042  14.9390  14.9760  15.0016  15.1323  15.1667
    15.1814  15.2045  15.2462  15.2713  15.2800  15.3206  15.3511  15.4310
    15.6103  15.6477  15.6903  15.7480  15.8262  15.9906  15.9982  16.0653
    16.0687  16.0898  16.1286  16.1346  16.1458  16.1613  16.1706  16.2033
    16.2296  16.2371  16.2385  16.2584  16.2747  16.2857  16.2956  16.3070
    16.4344  16.4562  16.6148  16.6480  16.6605  16.7096  16.7477  16.7780
    16.8293  16.8572  17.2288  17.2935  17.3424  17.3475  17.5529  17.5779
    17.6379  17.6411  17.6682  17.6796  17.7248  17.7507  17.8457  17.8753
    17.9457  17.9690  18.0991  18.1469  18.1980  18.2504  18.3118  18.3545

          k = 0.0000-0.5000 0.0000 ( 31722 PWs)   bands (ev):

   -66.7027 -66.6817 -66.6714 -66.6470 -66.6468 -66.6432 -66.6318 -66.6088
   -66.5853 -62.3802 -62.3674 -62.3572 -62.3522 -62.3503 -62.3308 -62.3274
   -62.3249 -62.3153 -35.4646 -35.4570 -35.4414 -35.4338 -35.4325 -35.4199
   -35.4190 -35.4168 -35.4132 -35.4031 -35.3999 -35.3950 -35.3931 -35.3899
   -35.3891 -35.3881 -35.3860 -35.3768 -35.3763 -35.3750 -35.3659 -35.3588
   -35.3528 -35.3358 -35.3328 -35.3263 -35.3213 -31.2200 -31.2180 -31.2097
   -31.1949 -31.1945 -31.1930 -31.1911 -31.1890 -31.1812 -31.1801 -31.1773
   -31.1771 -31.1744 -31.1733 -31.1713 -31.1650 -31.1643 -31.1631 -31.1610
   -31.1577 -31.1471 -31.1463 -31.1376 -31.1347 -31.1333 -31.1324 -31.1313
     6.0312   6.0557   7.3935   7.4386   7.4594   7.4986   7.6730   7.6752
     8.1090   8.1136   8.1415   8.1507   8.2194   8.2390   8.2495   8.2753
     8.3834   8.4346   8.4559   8.4777   8.6150   8.6347   8.6560   8.6565
     8.6581   8.6747   8.6889   8.6984   8.7778   8.8041   8.8174   8.8314
     8.8505   8.8543   8.8669   8.8868   8.9034   8.9063   8.9106   8.9262
     8.9308   8.9334   8.9362   8.9578   9.0449   9.0459   9.1466   9.1686
     9.1829   9.2107   9.2174   9.2232   9.2344   9.2447   9.3054   9.3352
     9.3408   9.3655   9.3998   9.4221   9.4687   9.4772   9.4827   9.5194
     9.5437   9.5475   9.5673   9.5684   9.5915   9.5985   9.6069   9.6085
     9.6194   9.6259   9.6285   9.6323   9.6330   9.6338   9.6352   9.6498
     9.6633   9.6740   9.6818   9.6885   9.6924   9.7037   9.7119   9.7213
     9.7306   9.7485   9.7514   9.7861   9.8931   9.8986   9.9341   9.9554
    10.0158  10.0275  10.1672  10.1851  10.2100  10.2122  10.2533  10.2579
    10.2674  10.2700  10.2714  10.2758  10.2835  10.2858  10.3185  10.3530
    10.3727  10.3778  10.3824  10.3948  10.4133  10.4487  10.4677  10.4815
    10.5010  10.5206  10.5318  10.5496  10.5549  10.5697  10.5803  10.5962
    10.6030  10.6326  10.6783  10.7002  10.7082  10.7264  10.7411  10.7660
    10.8158  10.8257  10.8352  10.8367  10.8435  10.8583  10.8854  10.9588
    10.9956  11.0020  11.0175  11.0294  11.0408  11.0520  11.1719  11.1774
    11.2953  11.3460  11.3478  11.3668  11.3675  11.3790  11.3835  11.3867
    11.4158  11.4292  11.4640  11.4855  11.4876  11.5247  11.5506  11.5658
    11.5998  11.6171  11.6270  11.6353  11.6445  11.6679  11.7197  11.7472
    11.7676  11.7788  11.7995  11.8141  11.8186  11.8501  11.8593  11.8699
    11.8901  11.9080  11.9180  11.9233  11.9279  11.9393  11.9553  11.9602
    11.9701  11.9828  11.9838  11.9878  12.0228  12.1217  12.1455  12.1771
    12.1837  12.1980  12.2059  12.2168  12.2399  12.2419  12.2692  12.2813
    12.2978  12.3145  12.3443  12.3496  12.3729  12.4146  12.4222  12.4272
    12.4381  12.4624  12.4775  12.4866  12.5169  12.5180  12.5415  12.5703
    12.5793  12.5990  12.6109  12.6790  12.6834  12.7029  12.7251  12.7548
    12.8943  12.9636  12.9843  13.0159  13.0848  13.0919  13.0974  13.1450
    13.1703  13.2089  13.2368  13.2732  13.2936  13.3087  13.3467  13.3835
    13.4689  13.5635  13.6010  13.6130  13.6940  14.4856  14.5298  14.6096
    14.6695  14.6737  14.7134  14.8206  14.8599  14.8821  14.9173  14.9795
    15.0131  15.0507  15.1427  15.1827  15.3168  15.3571  15.4873  15.5018
    15.7152  15.7897  15.8344  15.8621  15.8727  15.9278  15.9415  15.9852
    16.0495  16.0647  16.0931  16.1247  16.1408  16.1606  16.1809  16.2009
    16.2207  16.2370  16.2373  16.2550  16.2870  16.3052  16.3279  16.3837
    16.4723  16.5196  16.5536  16.6536  16.7080  16.8173  17.0078  17.1103
    17.1356  17.2203  17.2818  17.3304  17.4059  17.4526  17.5977  17.6531
    17.6559  17.6792  17.8022  17.8076  17.8374  17.8814  17.9721  17.9917
    18.0183  18.0563  18.1504  18.2628  19.2158  19.2967  19.3509  19.3777

          k = 0.0000-0.5000-0.5734 ( 31696 PWs)   bands (ev):

   -66.7027 -66.6817 -66.6714 -66.6470 -66.6468 -66.6432 -66.6318 -66.6088
   -66.5853 -62.3802 -62.3674 -62.3572 -62.3522 -62.3503 -62.3308 -62.3274
   -62.3249 -62.3153 -35.4646 -35.4570 -35.4414 -35.4338 -35.4325 -35.4199
   -35.4190 -35.4168 -35.4132 -35.4031 -35.3999 -35.3950 -35.3931 -35.3899
   -35.3891 -35.3881 -35.3860 -35.3768 -35.3763 -35.3750 -35.3659 -35.3588
   -35.3528 -35.3358 -35.3328 -35.3263 -35.3213 -31.2200 -31.2180 -31.2097
   -31.1949 -31.1945 -31.1930 -31.1911 -31.1890 -31.1812 -31.1801 -31.1773
   -31.1771 -31.1744 -31.1733 -31.1713 -31.1650 -31.1643 -31.1631 -31.1610
   -31.1577 -31.1471 -31.1463 -31.1376 -31.1347 -31.1333 -31.1324 -31.1313
     6.5543   6.5714   6.5956   6.6124   7.8412   7.8486   7.8679   7.8869
     7.8944   7.9106   7.9297   7.9384   8.2701   8.2737   8.3045   8.3047
     8.5204   8.5231   8.5304   8.5331   8.6725   8.6733   8.6843   8.6893
     8.6894   8.6949   8.6984   8.6992   8.7012   8.7273   8.7451   8.7498
     8.7719   8.7737   8.7843   8.7986   8.9815   8.9965   9.0141   9.0335
     9.0391   9.0465   9.0482   9.0534   9.2117   9.2144   9.2160   9.2203
     9.2220   9.2303   9.2333   9.2368   9.2407   9.2503   9.2514   9.2519
     9.2639   9.2679   9.2790   9.2792   9.2970   9.3193   9.3941   9.4037
     9.4192   9.4259   9.4281   9.4570   9.4582   9.4608   9.4665   9.4741
     9.4901   9.4947   9.5117   9.5222   9.5288   9.5387   9.5516   9.5599
     9.5875   9.5967   9.7540   9.7560   9.7946   9.8059   9.8067   9.8273
     9.8309   9.8392   9.8436   9.8493   9.8590   9.8600   9.8605   9.8714
     9.9479   9.9534   9.9807   9.9877  10.0424  10.0455  10.0638  10.0661
    10.3847  10.3931  10.3956  10.3980  10.4130  10.4138  10.4274  10.4622
    10.4781  10.4802  10.4839  10.4856  10.4908  10.4930  10.5091  10.5105
    10.5167  10.5477  10.5580  10.5682  10.5851  10.5912  10.6075  10.6179
    10.6448  10.6472  10.6610  10.6675  10.6816  10.6934  10.7036  10.7087
    10.7801  10.8081  10.8865  10.8923  10.9957  11.0043  11.0350  11.0513
    11.1330  11.1401  11.1451  11.1530  11.1577  11.1859  11.1922  11.1955
    11.2107  11.2112  11.2837  11.3130  11.3524  11.3571  11.3641  11.3668
    11.3700  11.3745  11.4056  11.4132  11.4248  11.4327  11.5028  11.5099
    11.5349  11.5493  11.5705  11.5716  11.5807  11.5925  11.6026  11.6033
    11.6235  11.6274  11.7318  11.7499  11.7518  11.7595  11.8166  11.8639
    11.8817  11.9296  11.9364  11.9395  11.9423  11.9842  11.9917  11.9985
    12.0128  12.0156  12.0263  12.0360  12.0368  12.0500  12.1051  12.1252
    12.1634  12.1658  12.1730  12.2193  12.2251  12.2662  12.2972  12.3283
    12.3599  12.3662  12.3924  12.4262  12.4536  12.4657  12.4767  12.4988
    12.5019  12.5155  12.5318  12.5506  12.5626  12.5894  12.6039  12.6406
    12.6437  12.6498  12.6635  12.6691  12.6867  12.7398  12.8230  12.8262
    12.8386  12.9173  12.9286  12.9728  13.0023  13.0524  13.0633  13.1327
    13.1710  13.4328  13.4895  13.4918  13.6196  13.7039  13.7271  13.8600
    13.9146  13.9649  14.0289  14.0646  14.1180  14.1797  14.1897  14.2442
    14.3278  14.4162  14.4190  14.5464  14.5578  14.5984  14.6577  15.1497
    15.1912  15.2533  15.2591  15.3270  15.3556  15.3637  15.5461  15.6535
    15.6708  15.7354  15.7461  15.9267  15.9439  16.0543  16.0551  16.0762
    16.0937  16.1456  16.1465  16.1639  16.1688  16.1832  16.2060  16.2580
    16.2657  16.2903  16.3047  16.3135  16.3463  16.3616  16.4165  16.4958
    16.4960  16.5405  16.5467  16.5814  16.6091  16.6165  16.6943  16.7223
    16.7492  16.7567  16.7875  16.8103  16.8909  16.8995  16.9079  16.9757
    17.0593  17.0675  17.1392  17.2154  18.6651  18.6876  18.6925  18.7180
    18.8091  18.8174  18.8518  18.8635  18.9176  18.9416  18.9557  18.9603

          k =-0.5000-0.5000 0.0000 ( 31612 PWs)   bands (ev):

   -66.7027 -66.6817 -66.6714 -66.6470 -66.6468 -66.6432 -66.6318 -66.6088
   -66.5853 -62.3802 -62.3674 -62.3572 -62.3522 -62.3503 -62.3308 -62.3274
   -62.3249 -62.3153 -35.4646 -35.4570 -35.4414 -35.4338 -35.4325 -35.4199
   -35.4190 -35.4168 -35.4132 -35.4031 -35.3999 -35.3950 -35.3931 -35.3899
   -35.3891 -35.3881 -35.3860 -35.3768 -35.3763 -35.3750 -35.3659 -35.3588
   -35.3528 -35.3358 -35.3328 -35.3263 -35.3213 -31.2200 -31.2180 -31.2097
   -31.1949 -31.1945 -31.1930 -31.1911 -31.1890 -31.1812 -31.1801 -31.1773
   -31.1771 -31.1744 -31.1733 -31.1713 -31.1650 -31.1643 -31.1631 -31.1610
   -31.1577 -31.1471 -31.1463 -31.1376 -31.1347 -31.1333 -31.1324 -31.1313
     6.4175   6.4332   6.4420   6.4701   8.0072   8.0138   8.0185   8.0215
     8.0954   8.1178   8.2967   8.3248   8.3287   8.3321   8.3387   8.3410
     8.3452   8.3518   8.3627   8.3693   8.3722   8.3756   8.5900   8.6260
     8.6278   8.6581   8.6826   8.6996   8.7051   8.7255   8.7290   8.7423
     8.7560   8.7871   8.9464   8.9476   8.9709   8.9740   8.9760   8.9765
     8.9857   8.9902   8.9921   9.0000   9.0089   9.0100   9.0124   9.0276
     9.1167   9.1257   9.3082   9.3109   9.3140   9.3176   9.4036   9.4129
     9.4156   9.4168   9.4242   9.4293   9.4332   9.4404   9.4500   9.4578
     9.4583   9.4650   9.4786   9.4826   9.4858   9.4887   9.4993   9.5118
     9.5143   9.5198   9.5333   9.5395   9.5477   9.5742   9.5837   9.5982
     9.6047   9.6112   9.6946   9.6973   9.7730   9.8114   9.8175   9.8204
     9.8268   9.8340   9.8355   9.8404   9.8445   9.8499  10.0523  10.0600
    10.0840  10.0937  10.1270  10.1454  10.1546  10.1597  10.1649  10.1759
    10.1815  10.1853  10.1969  10.2069  10.2108  10.2148  10.2222  10.2270
    10.2299  10.2317  10.2337  10.2367  10.4496  10.4618  10.4848  10.4886
    10.4888  10.5008  10.5023  10.5160  10.6088  10.6329  10.6477  10.6620
    10.6650  10.6713  10.6723  10.6780  10.6785  10.6831  10.6994  10.7046
    10.7840  10.7901  10.8090  10.8138  10.8273  10.8291  10.8546  10.8592
    10.8967  10.9063  11.2023  11.2089  11.2107  11.2196  11.3200  11.3335
    11.3381  11.3492  11.3564  11.3607  11.3767  11.3789  11.5082  11.5846
    11.5917  11.5969  11.6397  11.6434  11.6439  11.6467  11.6469  11.6486
    11.6612  11.6931  11.7250  11.7279  11.7299  11.7445  11.7742  11.8402
    11.8686  11.8746  11.8803  11.8822  11.8839  11.8857  11.9484  12.0088
    12.0553  12.0716  12.0767  12.0830  12.0924  12.1012  12.1044  12.1055
    12.1077  12.1340  12.1413  12.1465  12.1538  12.1593  12.1602  12.1702
    12.1834  12.1857  12.1930  12.2197  12.2244  12.2320  12.2336  12.2362
    12.2490  12.2531  12.2652  12.2705  12.2828  12.2852  12.2902  12.3025
    12.3090  12.3382  12.3807  12.4560  12.4749  12.4780  12.4957  12.4998
    12.5112  12.5303  12.6049  12.6208  12.6571  12.6720  12.6879  12.7816
    12.7981  12.8485  12.8752  12.9222  12.9258  12.9457  12.9591  12.9639
    12.9967  13.0077  13.0184  13.0398  13.1152  13.6724  13.6774  13.7716
    13.7824  13.7987  13.8317  13.9395  13.9437  13.9489  14.0697  14.1098
    14.1124  14.2813  14.3115  14.3501  14.3633  14.4685  14.8258  14.8760
    14.9141  14.9469  15.1850  15.2731  15.4416  15.5183  15.6288  15.7148
    15.8022  15.8435  15.8529  15.8728  15.9140  15.9470  15.9485  15.9858
    16.0476  16.0847  16.1090  16.1243  16.1464  16.1543  16.1610  16.2391
    16.2626  16.3056  16.3472  16.3847  16.3950  16.4109  16.4119  16.4610
    16.4859  16.5476  16.5760  16.5816  16.6880  16.6934  16.7040  16.7313
    16.7855  16.7861  16.7895  16.8343  17.3834  17.3878  17.7234  17.8276
    18.0686  18.1708  18.2077  18.2285  18.3104  18.4648  18.5133  18.5506
    18.5921  18.6314  18.6410  18.6516  18.7145  18.7479  18.7992  18.8141

          k =-0.5000-0.5000-0.5734 ( 31672 PWs)   bands (ev):

   -66.7027 -66.6817 -66.6714 -66.6470 -66.6468 -66.6432 -66.6318 -66.6088
   -66.5853 -62.3802 -62.3674 -62.3572 -62.3522 -62.3503 -62.3308 -62.3274
   -62.3249 -62.3153 -35.4646 -35.4570 -35.4414 -35.4338 -35.4325 -35.4199
   -35.4190 -35.4168 -35.4132 -35.4031 -35.3999 -35.3950 -35.3931 -35.3899
   -35.3891 -35.3881 -35.3860 -35.3768 -35.3763 -35.3750 -35.3659 -35.3588
   -35.3528 -35.3358 -35.3328 -35.3263 -35.3213 -31.2200 -31.2180 -31.2097
   -31.1949 -31.1945 -31.1930 -31.1911 -31.1890 -31.1812 -31.1801 -31.1773
   -31.1771 -31.1744 -31.1733 -31.1713 -31.1650 -31.1643 -31.1631 -31.1610
   -31.1577 -31.1471 -31.1463 -31.1376 -31.1347 -31.1333 -31.1324 -31.1313
     6.9016   6.9131   6.9432   6.9637   6.9769   6.9950   7.0201   7.0368
     8.4588   8.4614   8.4745   8.4778   8.4870   8.4899   8.4910   8.4940
     8.4944   8.4954   8.5280   8.5354   8.5362   8.5417   8.5610   8.5653
     8.5693   8.5858   8.5864   8.5957   8.8646   8.8664   8.8843   8.8952
     8.9039   8.9095   8.9510   8.9512   9.0961   9.1052   9.1236   9.1280
     9.1330   9.1365   9.1371   9.1428   9.1511   9.1528   9.1652   9.1656
     9.1691   9.1694   9.1705   9.1722   9.1728   9.1729   9.1743   9.1756
     9.1819   9.1866   9.1916   9.1936   9.1970   9.2002   9.2056   9.2094
     9.2200   9.2240   9.2398   9.2471   9.2569   9.2706   9.2731   9.2816
     9.5432   9.5478   9.5614   9.5620   9.5866   9.5915   9.6132   9.6288
     9.6602   9.6734   9.6900   9.7107   9.7130   9.7250   9.7401   9.7585
     9.8154   9.8205   9.8543   9.8565   9.8641   9.8812   9.8880   9.8978
    10.1369  10.1407  10.1483  10.1554  10.1618  10.1733  10.1742  10.1822
    10.3008  10.3103  10.4469  10.4476  10.4638  10.4706  10.4725  10.4772
    10.4922  10.4949  10.4962  10.4994  10.5042  10.5048  10.5110  10.5147
    10.5265  10.5275  10.5298  10.5373  10.5430  10.5963  10.6036  10.6181
    10.6197  10.6221  10.6240  10.6404  10.6427  10.6520  10.6562  10.6650
    10.6813  10.6835  10.7033  10.7093  10.7485  10.7507  11.0051  11.0137
    11.0631  11.0699  11.0918  11.0982  11.1644  11.1650  11.3763  11.3831
    11.4016  11.4086  11.4291  11.4311  11.4395  11.4408  11.4445  11.4513
    11.4860  11.4898  11.5031  11.5192  11.5266  11.5440  11.5753  11.5840
    11.6434  11.6451  11.6460  11.6472  11.6557  11.6784  11.7049  11.7178
    11.7249  11.7285  11.7575  11.7598  11.7748  11.7818  11.7835  11.7874
    11.7986  11.8063  11.8215  11.8327  11.8833  11.9124  11.9809  12.0444
    12.0879  12.0895  12.1112  12.1168  12.1318  12.1461  12.1495  12.1705
    12.2087  12.2126  12.2219  12.2235  12.2476  12.2650  12.2817  12.2954
    12.3324  12.3431  12.3650  12.4084  12.4360  12.4427  12.4605  12.4693
    12.4732  12.4915  12.5102  12.5137  12.5411  12.5462  12.5893  12.6179
    12.6316  12.6669  12.6737  12.6782  12.6982  12.7297  12.7843  12.8025
    12.8189  12.9290  13.0233  13.0653  13.0916  13.1504  13.1721  13.2495
    13.2979  13.3291  13.4096  13.4363  13.4367  13.4955  13.5062  13.5565
    13.5673  13.6050  13.6078  13.9086  13.9563  14.0344  14.0539  14.1318
    14.2114  14.5237  14.5509  14.6621  14.7064  14.7625  14.8032  14.8986
    14.9647  15.0100  15.0265  15.2811  15.3602  15.4509  15.4701  15.6575
    15.7090  15.7246  15.7806  15.8416  15.8902  15.9646  16.0538  16.0857
    16.1160  16.1289  16.1596  16.1843  16.2054  16.2423  16.2539  16.2567
    16.2620  16.3043  16.3274  16.4412  16.4447  16.4721  16.4733  16.4941
    16.5394  16.5449  16.5703  16.6051  16.6347  16.6491  16.6893  16.7146
    16.7489  16.7693  16.8512  16.8709  16.8845  16.9060  16.9853  17.0069
    17.0164  17.0418  17.7017  17.8046  17.8106  17.8591  19.0076  19.0152
    19.0153  19.0346  19.0780  19.0896  19.1209  19.1685  19.2309  19.3426

          k =-0.5000 0.0000 0.0000 ( 31722 PWs)   bands (ev):

   -66.7027 -66.6817 -66.6714 -66.6470 -66.6468 -66.6432 -66.6318 -66.6088
   -66.5853 -62.3802 -62.3674 -62.3572 -62.3522 -62.3503 -62.3308 -62.3274
   -62.3249 -62.3153 -35.4646 -35.4570 -35.4414 -35.4338 -35.4325 -35.4199
   -35.4190 -35.4168 -35.4132 -35.4031 -35.3999 -35.3950 -35.3931 -35.3899
   -35.3891 -35.3881 -35.3860 -35.3768 -35.3763 -35.3750 -35.3659 -35.3588
   -35.3528 -35.3358 -35.3328 -35.3263 -35.3213 -31.2200 -31.2180 -31.2097
   -31.1949 -31.1945 -31.1930 -31.1911 -31.1890 -31.1812 -31.1801 -31.1773
   -31.1771 -31.1744 -31.1733 -31.1713 -31.1650 -31.1643 -31.1631 -31.1610
   -31.1577 -31.1471 -31.1463 -31.1376 -31.1347 -31.1333 -31.1324 -31.1313
     6.0377   6.0490   7.3984   7.4334   7.4536   7.5056   7.6706   7.6780
     8.1097   8.1136   8.1255   8.1647   8.2251   8.2330   8.2502   8.2755
     8.3908   8.4284   8.4440   8.4883   8.6195   8.6363   8.6506   8.6561
     8.6664   8.6675   8.6761   8.7078   8.7817   8.7950   8.8213   8.8398
     8.8470   8.8544   8.8707   8.8786   8.9056   8.9100   8.9182   8.9234
     8.9249   8.9290   8.9373   8.9578   9.0437   9.0483   9.1479   9.1679
     9.1746   9.2111   9.2181   9.2277   9.2369   9.2408   9.3068   9.3241
     9.3505   9.3776   9.3864   9.4226   9.4710   9.4739   9.4909   9.5209
     9.5297   9.5471   9.5628   9.5698   9.5960   9.5998   9.6076   9.6120
     9.6124   9.6265   9.6307   9.6335   9.6347   9.6354   9.6373   9.6506
     9.6660   9.6751   9.6792   9.6882   9.6911   9.7103   9.7114   9.7153
     9.7294   9.7417   9.7576   9.7877   9.8938   9.8983   9.9331   9.9554
    10.0117  10.0309  10.1618  10.1899  10.2085  10.2160  10.2471  10.2566
    10.2620  10.2741  10.2781  10.2782  10.2806  10.2846  10.3250  10.3583
    10.3657  10.3793  10.3811  10.3951  10.4138  10.4507  10.4637  10.4860
    10.5007  10.5257  10.5267  10.5364  10.5529  10.5796  10.5925  10.5950
    10.6041  10.6304  10.6448  10.7019  10.7201  10.7386  10.7451  10.7710
    10.8179  10.8224  10.8309  10.8382  10.8485  10.8617  10.8789  10.9520
    10.9983  11.0066  11.0176  11.0280  11.0391  11.0470  11.1737  11.1788
    11.2948  11.3445  11.3465  11.3518  11.3561  11.3705  11.3928  11.4020
    11.4228  11.4355  11.4584  11.4859  11.4925  11.4969  11.5841  11.6017
    11.6019  11.6100  11.6252  11.6308  11.6335  11.6831  11.6862  11.7587
    11.7721  11.7751  11.7995  11.8185  11.8301  11.8404  11.8530  11.8599
    11.8855  11.8917  11.9039  11.9121  11.9278  11.9343  11.9583  11.9671
    11.9680  11.9849  11.9869  11.9930  12.0464  12.1072  12.1553  12.1775
    12.2002  12.2055  12.2186  12.2199  12.2321  12.2673  12.2802  12.2802
    12.2835  12.2968  12.3213  12.3337  12.3669  12.3981  12.4128  12.4220
    12.4612  12.4783  12.4861  12.5040  12.5180  12.5359  12.5379  12.5630
    12.5681  12.5875  12.6120  12.6202  12.6664  12.7112  12.7319  12.7956
    12.8942  12.9863  13.0136  13.0242  13.0559  13.0657  13.1467  13.1527
    13.1789  13.2162  13.2355  13.2436  13.2526  13.3113  13.3219  13.4070
    13.4547  13.5561  13.6134  13.6414  13.6982  14.4805  14.5304  14.6262
    14.6478  14.7036  14.7279  14.7617  14.8405  14.8586  14.8733  14.9456
    15.0192  15.0533  15.1375  15.2129  15.3543  15.4523  15.5354  15.5732
    15.6091  15.7603  15.8113  15.8684  15.8765  15.9871  15.9872  16.0302
    16.0567  16.0578  16.0840  16.0977  16.1478  16.1701  16.1718  16.1775
    16.2123  16.2208  16.2244  16.2442  16.2573  16.2665  16.3031  16.3979
    16.4571  16.5228  16.5360  16.6316  16.7176  16.8711  16.9876  17.0747
    17.1460  17.2391  17.2876  17.3117  17.4005  17.4686  17.6291  17.6444
    17.7046  17.7249  17.8044  17.8099  17.8421  17.8518  17.9498  17.9797
    18.0078  18.0427  18.1329  18.2820  19.2139  19.3063  19.3383  19.3843

          k =-0.5000 0.0000 0.5734 ( 31696 PWs)   bands (ev):

   -66.7027 -66.6817 -66.6714 -66.6470 -66.6468 -66.6432 -66.6318 -66.6088
   -66.5853 -62.3802 -62.3674 -62.3572 -62.3522 -62.3503 -62.3308 -62.3274
   -62.3249 -62.3153 -35.4646 -35.4570 -35.4414 -35.4338 -35.4325 -35.4199
   -35.4190 -35.4168 -35.4132 -35.4031 -35.3999 -35.3950 -35.3931 -35.3899
   -35.3891 -35.3881 -35.3860 -35.3768 -35.3763 -35.3750 -35.3659 -35.3588
   -35.3528 -35.3358 -35.3328 -35.3263 -35.3213 -31.2200 -31.2180 -31.2097
   -31.1949 -31.1945 -31.1930 -31.1911 -31.1890 -31.1812 -31.1801 -31.1773
   -31.1771 -31.1744 -31.1733 -31.1713 -31.1650 -31.1643 -31.1631 -31.1610
   -31.1577 -31.1471 -31.1463 -31.1376 -31.1347 -31.1333 -31.1324 -31.1313
     6.5574   6.5752   6.5925   6.6084   7.8406   7.8539   7.8694   7.8825
     7.8983   7.9113   7.9239   7.9370   8.2712   8.2737   8.3042   8.3050
     8.5203   8.5210   8.5326   8.5333   8.6714   8.6719   8.6813   8.6867
     8.6901   8.6935   8.6996   8.7061   8.7064   8.7194   8.7437   8.7516
     8.7713   8.7733   8.7870   8.8012   8.9826   8.9986   9.0119   9.0305
     9.0392   9.0442   9.0475   9.0569   9.2098   9.2140   9.2141   9.2210
     9.2232   9.2271   9.2290   9.2362   9.2447   9.2499   9.2530   9.2574
     9.2697   9.2707   9.2795   9.2809   9.2877   9.3133   9.3958   9.4042
     9.4195   9.4242   9.4249   9.4573   9.4586   9.4630   9.4676   9.4759
     9.4918   9.4953   9.5070   9.5221   9.5286   9.5383   9.5491   9.5592
     9.5888   9.5992   9.7539   9.7562   9.7948   9.8045   9.8065   9.8298
     9.8320   9.8393   9.8495   9.8503   9.8518   9.8584   9.8612   9.8705
     9.9545   9.9653   9.9759   9.9759  10.0474  10.0519  10.0542  10.0640
    10.3881  10.3939  10.4011  10.4012  10.4091  10.4106  10.4278  10.4608
    10.4718  10.4770  10.4855  10.4856  10.4914  10.4946  10.5060  10.5097
    10.5299  10.5450  10.5513  10.5754  10.5896  10.5913  10.6116  10.6162
    10.6359  10.6453  10.6602  10.6666  10.6790  10.6986  10.7006  10.7144
    10.7800  10.8077  10.8822  10.8891  10.9927  11.0040  11.0391  11.0508
    11.1330  11.1372  11.1488  11.1573  11.1587  11.1861  11.1915  11.1946
    11.2106  11.2114  11.2942  11.3349  11.3457  11.3501  11.3572  11.3622
    11.3707  11.3737  11.3999  11.4033  11.4271  11.4378  11.5040  11.5107
    11.5290  11.5465  11.5716  11.5730  11.5790  11.5953  11.6038  11.6042
    11.6243  11.6269  11.7290  11.7451  11.7576  11.7618  11.8200  11.8593
    11.8683  11.9322  11.9385  11.9428  11.9608  11.9795  11.9946  11.9970
    12.0116  12.0197  12.0270  12.0358  12.0369  12.0385  12.1178  12.1277
    12.1344  12.1486  12.1737  12.2256  12.2446  12.2566  12.3388  12.3410
    12.3670  12.3672  12.3958  12.4202  12.4397  12.4585  12.4716  12.4771
    12.5064  12.5325  12.5392  12.5482  12.5705  12.5769  12.6006  12.6282
    12.6386  12.6435  12.6454  12.6520  12.6703  12.8024  12.8175  12.8374
    12.8621  12.8973  12.9221  12.9405  13.0213  13.0306  13.0523  13.1390
    13.1763  13.3927  13.5040  13.5162  13.6868  13.7141  13.7598  13.8796
    13.8916  13.9786  13.9828  14.0831  14.0908  14.1828  14.2211  14.2736
    14.2810  14.3268  14.3561  14.5462  14.5591  14.6314  14.6816  15.1514
    15.1666  15.2297  15.3263  15.3424  15.3797  15.5173  15.5453  15.5895
    15.6180  15.6717  15.6863  15.9535  15.9622  16.0033  16.0848  16.1029
    16.1287  16.1458  16.1495  16.1534  16.1820  16.2027  16.2579  16.2623
    16.2859  16.2889  16.3022  16.3144  16.3225  16.3248  16.4059  16.4790
    16.4864  16.5355  16.5447  16.5772  16.6117  16.6264  16.6695  16.6710
    16.7240  16.7270  16.7960  16.8293  16.8642  16.9043  16.9483  16.9965
    17.0661  17.1123  17.1575  17.1983  18.6356  18.6608  18.7150  18.7379
    18.8176  18.8217  18.8353  18.8403  18.9372  18.9486  18.9567  18.9648

 ------ SPIN DOWN ----------


          k = 0.0000 0.0000 0.0000 ( 31747 PWs)   bands (ev):

   -66.7026 -66.6816 -66.6714 -66.6470 -66.6467 -66.6431 -66.6318 -66.6090
   -66.5853 -62.3803 -62.3674 -62.3572 -62.3522 -62.3503 -62.3306 -62.3273
   -62.3250 -62.3153 -35.4645 -35.4569 -35.4414 -35.4338 -35.4325 -35.4198
   -35.4190 -35.4168 -35.4132 -35.4030 -35.3998 -35.3950 -35.3930 -35.3899
   -35.3891 -35.3881 -35.3859 -35.3767 -35.3765 -35.3750 -35.3659 -35.3590
   -35.3528 -35.3358 -35.3328 -35.3265 -35.3213 -31.2201 -31.2181 -31.2098
   -31.1949 -31.1945 -31.1930 -31.1910 -31.1890 -31.1812 -31.1802 -31.1772
   -31.1770 -31.1744 -31.1733 -31.1713 -31.1651 -31.1643 -31.1631 -31.1610
   -31.1576 -31.1469 -31.1463 -31.1374 -31.1348 -31.1332 -31.1325 -31.1313
     5.6158   7.1572   7.1694   7.1729   7.2099   7.3624   7.8716   7.8749
     7.9142   7.9411   8.0967   8.1232   8.1244   8.1560   8.1894   8.2563
     8.2665   8.2881   8.2952   8.5310   8.5530   8.5586   8.5753   8.5791
     8.6097   8.8588   8.8648   8.8731   8.8778   8.8827   8.8850   8.8952
     8.9045   8.9098   8.9267   8.9314   8.9417   8.9506   8.9611   8.9659
     8.9726   9.0818   9.1197   9.1264   9.1286   9.1297   9.1535   9.1625
     9.1810   9.1919   9.2014   9.2771   9.2896   9.2941   9.3032   9.3554
     9.3636   9.3637   9.3691   9.3928   9.3932   9.3967   9.4045   9.4168
     9.4372   9.4388   9.4472   9.4483   9.4562   9.4680   9.4718   9.5782
     9.5855   9.5864   9.5877   9.6157   9.6240   9.6627   9.6643   9.6676
     9.6700   9.6724   9.6734   9.7482   9.7681   9.7703   9.7796   9.8492
     9.8501   9.9139   9.9182   9.9384   9.9398   9.9490   9.9828  10.0097
    10.1109  10.1339  10.1652  10.1761  10.2880  10.2914  10.2935  10.3042
    10.3052  10.3120  10.3151  10.3182  10.3209  10.3263  10.3375  10.3461
    10.3466  10.3467  10.3507  10.3523  10.3603  10.3640  10.3821  10.3857
    10.3887  10.4996  10.5173  10.5847  10.6132  10.6172  10.6603  10.7049
    10.7537  10.7548  10.7847  10.7856  10.7874  10.8051  10.8316  10.8447
    10.8470  10.8511  10.8677  10.8704  10.8749  10.8793  10.8860  10.8947
    10.8995  10.9074  11.0334  11.0402  11.0700  11.0828  11.2040  11.2090
    11.2213  11.2274  11.2279  11.2693  11.2948  11.3291  11.3512  11.3636
    11.3681  11.3743  11.3838  11.3996  11.4031  11.4134  11.4167  11.4223
    11.4302  11.5294  11.5552  11.5738  11.5898  11.5902  11.5933  11.5967
    11.6205  11.6395  11.6520  11.6567  11.7276  11.7367  11.7380  11.7463
    11.8197  11.8245  11.8406  11.8515  11.8689  11.9104  11.9348  11.9499
    11.9503  11.9636  12.0967  12.0995  12.1002  12.1016  12.1033  12.1421
    12.1439  12.1454  12.1463  12.1501  12.1619  12.1782  12.1938  12.2182
    12.2219  12.2633  12.2980  12.3423  12.3704  12.3772  12.4329  12.4420
    12.4456  12.4613  12.4796  12.4946  12.4987  12.5229  12.5407  12.5548
    12.5591  12.5701  12.5968  12.6006  12.6304  12.6631  12.6804  12.7147
    12.7153  12.7697  12.8375  12.9662  12.9764  13.0048  13.0109  13.0649
    13.0836  13.1014  13.1487  13.1607  13.5833  13.7184  13.7328  13.7814
    13.8452  13.9669  14.0426  14.2352  14.2548  14.3190  14.3598  14.3805
    14.8574  14.8786  14.9412  14.9948  15.0736  15.1039  15.1252  15.2052
    15.2605  15.2909  15.3619  15.3709  15.4617  15.5029  15.5555  15.5728
    15.5777  15.6661  15.7459  15.8359  15.9264  15.9818  16.0092  16.0364
    16.0717  16.1007  16.1026  16.1240  16.1425  16.1554  16.1703  16.1816
    16.1869  16.2048  16.2331  16.2354  16.2717  16.3418  16.3963  16.4418
    16.4929  16.5759  16.5973  16.6248  16.6480  16.7304  16.8335  16.8707
    16.9268  17.0342  17.1760  17.2048  17.2115  17.2363  17.2719  17.3037
    17.4241  17.4661  17.8356  17.9015  17.9313  17.9451  17.9608  18.1269
    18.1941  18.2465  18.4115  19.0048  19.0364  19.0520  19.0958  19.1988

          k = 0.0000 0.0000-0.5734 ( 31692 PWs)   bands (ev):

   -66.7026 -66.6816 -66.6714 -66.6470 -66.6467 -66.6431 -66.6318 -66.6090
   -66.5853 -62.3803 -62.3674 -62.3572 -62.3522 -62.3503 -62.3306 -62.3273
   -62.3250 -62.3153 -35.4645 -35.4569 -35.4414 -35.4338 -35.4325 -35.4198
   -35.4190 -35.4168 -35.4132 -35.4030 -35.3998 -35.3950 -35.3930 -35.3899
   -35.3891 -35.3881 -35.3859 -35.3767 -35.3765 -35.3750 -35.3659 -35.3590
   -35.3528 -35.3358 -35.3328 -35.3265 -35.3213 -31.2201 -31.2181 -31.2098
   -31.1949 -31.1945 -31.1930 -31.1910 -31.1890 -31.1812 -31.1802 -31.1772
   -31.1770 -31.1744 -31.1733 -31.1713 -31.1651 -31.1643 -31.1631 -31.1610
   -31.1576 -31.1469 -31.1463 -31.1374 -31.1348 -31.1332 -31.1325 -31.1313
     6.1761   6.1942   7.5312   7.5426   7.5580   7.5624   7.5962   7.6071
     7.6208   7.6391   8.3120   8.3205   8.3359   8.3421   8.3590   8.3723
     8.3824   8.3934   8.4572   8.4607   8.4709   8.4711   8.4961   8.4965
     8.5144   8.5150   8.7000   8.7067   8.7641   8.7813   8.9466   8.9562
     8.9625   8.9687   8.9736   8.9918   8.9989   9.0064   9.0080   9.0219
     9.0274   9.0380   9.0427   9.0506   9.0760   9.0903   9.2223   9.2238
     9.2329   9.2384   9.2515   9.2548   9.2640   9.2693   9.2724   9.2811
     9.2841   9.2861   9.2889   9.2896   9.2919   9.2948   9.4089   9.4108
     9.4236   9.4276   9.4519   9.4550   9.4554   9.4632   9.4657   9.4778
     9.4844   9.4890   9.4931   9.5076   9.5120   9.5195   9.6425   9.6665
     9.7778   9.7809   9.7924   9.7950   9.8174   9.8226   9.8317   9.8463
     9.8706   9.8712   9.8819   9.8821   9.8849   9.8857   9.8923   9.8932
    10.0568  10.0587  10.0605  10.0618  10.1431  10.1518  10.1605  10.1674
    10.1725  10.1748  10.1764  10.1901  10.1989  10.2110  10.3517  10.3546
    10.3862  10.3885  10.3969  10.4052  10.4332  10.4374  10.4847  10.5074
    10.5765  10.5863  10.6056  10.6115  10.6219  10.6391  10.6432  10.6554
    10.6862  10.6961  10.7386  10.7494  10.7734  10.8080  10.8091  10.8627
    10.9111  10.9146  10.9822  11.0127  11.0266  11.0397  11.0400  11.0644
    11.0661  11.0846  11.1119  11.1403  11.1670  11.1708  11.1932  11.2193
    11.2484  11.2501  11.2557  11.2583  11.2594  11.2598  11.2655  11.2671
    11.2721  11.2796  11.2847  11.2866  11.2903  11.2909  11.3050  11.3088
    11.3165  11.3189  11.3196  11.3255  11.5307  11.5391  11.7103  11.7126
    11.7141  11.7188  11.7202  11.7235  11.7322  11.7329  11.7440  11.7528
    11.7636  11.7686  11.7699  11.7853  11.7873  11.8524  11.8950  11.9285
    11.9538  11.9643  11.9995  12.0149  12.0201  12.0551  12.0865  12.0971
    12.1542  12.1795  12.2011  12.2416  12.2544  12.2888  12.2990  12.4082
    12.4109  12.4423  12.4510  12.4651  12.4721  12.4944  12.4944  12.5014
    12.5245  12.5251  12.5396  12.5473  12.5621  12.5744  12.6141  12.6682
    12.6788  12.7069  12.7179  12.7643  12.7730  12.8025  12.8186  12.8554
    12.8842  12.8978  12.9498  13.0966  13.1898  13.2075  13.2206  13.2474
    13.3183  13.3573  13.4223  13.4946  13.5128  13.5395  13.7315  13.7417
    13.7561  13.9762  14.0091  14.0134  14.1181  14.1487  14.2694  14.5579
    14.6964  14.8098  14.9042  14.9389  14.9759  15.0016  15.1323  15.1666
    15.1814  15.2046  15.2462  15.2713  15.2800  15.3206  15.3511  15.4310
    15.6103  15.6477  15.6903  15.7480  15.8262  15.9906  15.9982  16.0653
    16.0687  16.0898  16.1286  16.1346  16.1458  16.1613  16.1706  16.2033
    16.2295  16.2371  16.2385  16.2584  16.2747  16.2857  16.2956  16.3070
    16.4344  16.4562  16.6148  16.6480  16.6605  16.7096  16.7477  16.7780
    16.8294  16.8572  17.2288  17.2935  17.3424  17.3474  17.5529  17.5779
    17.6379  17.6411  17.6682  17.6797  17.7248  17.7508  17.8457  17.8753
    17.9457  17.9690  18.0991  18.1469  18.1980  18.2504  18.3118  18.3545

          k = 0.0000-0.5000 0.0000 ( 31722 PWs)   bands (ev):

   -66.7026 -66.6816 -66.6714 -66.6470 -66.6467 -66.6431 -66.6318 -66.6090
   -66.5853 -62.3803 -62.3674 -62.3572 -62.3522 -62.3503 -62.3306 -62.3273
   -62.3250 -62.3153 -35.4645 -35.4569 -35.4414 -35.4338 -35.4325 -35.4198
   -35.4190 -35.4168 -35.4132 -35.4030 -35.3998 -35.3950 -35.3930 -35.3899
   -35.3891 -35.3881 -35.3859 -35.3767 -35.3765 -35.3750 -35.3659 -35.3590
   -35.3528 -35.3358 -35.3328 -35.3265 -35.3213 -31.2201 -31.2181 -31.2098
   -31.1949 -31.1945 -31.1930 -31.1910 -31.1890 -31.1812 -31.1802 -31.1772
   -31.1770 -31.1744 -31.1733 -31.1714 -31.1651 -31.1643 -31.1631 -31.1610
   -31.1576 -31.1469 -31.1463 -31.1374 -31.1348 -31.1332 -31.1325 -31.1313
     6.0377   6.0490   7.3983   7.4333   7.4537   7.5056   7.6705   7.6780
     8.1097   8.1136   8.1255   8.1647   8.2251   8.2330   8.2502   8.2755
     8.3908   8.4284   8.4440   8.4884   8.6196   8.6363   8.6507   8.6561
     8.6663   8.6675   8.6761   8.7077   8.7817   8.7950   8.8213   8.8398
     8.8470   8.8544   8.8707   8.8786   8.9056   8.9100   8.9182   8.9234
     8.9249   8.9290   8.9373   8.9578   9.0437   9.0483   9.1479   9.1679
     9.1745   9.2111   9.2181   9.2278   9.2369   9.2408   9.3068   9.3241
     9.3505   9.3776   9.3864   9.4226   9.4710   9.4739   9.4909   9.5209
     9.5297   9.5471   9.5628   9.5698   9.5960   9.5998   9.6076   9.6120
     9.6124   9.6264   9.6307   9.6334   9.6347   9.6355   9.6372   9.6506
     9.6660   9.6751   9.6792   9.6882   9.6912   9.7103   9.7114   9.7153
     9.7294   9.7417   9.7577   9.7877   9.8938   9.8983   9.9331   9.9554
    10.0117  10.0309  10.1618  10.1899  10.2085  10.2160  10.2471  10.2566
    10.2620  10.2740  10.2782  10.2782  10.2806  10.2846  10.3250  10.3583
    10.3657  10.3793  10.3811  10.3951  10.4138  10.4507  10.4637  10.4860
    10.5007  10.5257  10.5267  10.5364  10.5529  10.5796  10.5926  10.5950
    10.6042  10.6304  10.6448  10.7019  10.7201  10.7386  10.7451  10.7709
    10.8179  10.8224  10.8309  10.8382  10.8485  10.8617  10.8789  10.9520
    10.9984  11.0066  11.0177  11.0280  11.0390  11.0470  11.1737  11.1788
    11.2948  11.3445  11.3464  11.3519  11.3561  11.3705  11.3928  11.4020
    11.4228  11.4354  11.4584  11.4859  11.4925  11.4969  11.5841  11.6017
    11.6019  11.6100  11.6252  11.6308  11.6335  11.6831  11.6862  11.7587
    11.7721  11.7751  11.7996  11.8185  11.8301  11.8404  11.8530  11.8599
    11.8855  11.8917  11.9039  11.9121  11.9278  11.9343  11.9583  11.9672
    11.9680  11.9849  11.9869  11.9929  12.0465  12.1072  12.1553  12.1775
    12.2002  12.2056  12.2186  12.2199  12.2321  12.2673  12.2802  12.2802
    12.2835  12.2969  12.3213  12.3337  12.3669  12.3981  12.4128  12.4220
    12.4612  12.4784  12.4861  12.5041  12.5180  12.5359  12.5379  12.5631
    12.5681  12.5875  12.6120  12.6203  12.6664  12.7112  12.7319  12.7956
    12.8942  12.9863  13.0136  13.0242  13.0560  13.0657  13.1467  13.1527
    13.1788  13.2162  13.2356  13.2437  13.2526  13.3113  13.3218  13.4071
    13.4547  13.5561  13.6134  13.6414  13.6982  14.4805  14.5304  14.6262
    14.6477  14.7036  14.7280  14.7617  14.8405  14.8585  14.8732  14.9456
    15.0192  15.0534  15.1376  15.2129  15.3543  15.4523  15.5354  15.5732
    15.6092  15.7603  15.8113  15.8684  15.8764  15.9871  15.9872  16.0302
    16.0566  16.0577  16.0840  16.0977  16.1478  16.1701  16.1718  16.1774
    16.2123  16.2208  16.2244  16.2442  16.2573  16.2665  16.3031  16.3979
    16.4571  16.5228  16.5360  16.6316  16.7176  16.8712  16.9876  17.0747
    17.1460  17.2391  17.2877  17.3116  17.4005  17.4686  17.6291  17.6444
    17.7046  17.7249  17.8044  17.8098  17.8421  17.8518  17.9498  17.9798
    18.0078  18.0427  18.1330  18.2820  19.2139  19.3063  19.3382  19.3843

          k = 0.0000-0.5000-0.5734 ( 31696 PWs)   bands (ev):

   -66.7026 -66.6816 -66.6714 -66.6470 -66.6467 -66.6431 -66.6318 -66.6090
   -66.5853 -62.3803 -62.3674 -62.3572 -62.3522 -62.3503 -62.3306 -62.3273
   -62.3250 -62.3153 -35.4645 -35.4569 -35.4414 -35.4337 -35.4325 -35.4198
   -35.4190 -35.4168 -35.4132 -35.4030 -35.3998 -35.3950 -35.3930 -35.3899
   -35.3891 -35.3881 -35.3859 -35.3767 -35.3765 -35.3750 -35.3659 -35.3590
   -35.3528 -35.3358 -35.3328 -35.3265 -35.3213 -31.2201 -31.2181 -31.2098
   -31.1949 -31.1945 -31.1930 -31.1910 -31.1890 -31.1812 -31.1802 -31.1772
   -31.1770 -31.1744 -31.1733 -31.1714 -31.1651 -31.1643 -31.1631 -31.1610
   -31.1576 -31.1469 -31.1463 -31.1374 -31.1348 -31.1332 -31.1325 -31.1313
     6.5574   6.5752   6.5925   6.6084   7.8405   7.8540   7.8695   7.8824
     7.8983   7.9113   7.9240   7.9370   8.2712   8.2737   8.3042   8.3050
     8.5203   8.5209   8.5327   8.5333   8.6713   8.6720   8.6813   8.6867
     8.6901   8.6934   8.6996   8.7061   8.7064   8.7194   8.7437   8.7516
     8.7712   8.7733   8.7870   8.8012   8.9826   8.9986   9.0119   9.0305
     9.0392   9.0441   9.0474   9.0569   9.2098   9.2140   9.2141   9.2210
     9.2232   9.2271   9.2290   9.2361   9.2447   9.2499   9.2530   9.2575
     9.2697   9.2707   9.2795   9.2809   9.2878   9.3133   9.3957   9.4042
     9.4196   9.4241   9.4249   9.4573   9.4586   9.4630   9.4676   9.4760
     9.4918   9.4953   9.5070   9.5221   9.5286   9.5383   9.5491   9.5592
     9.5888   9.5992   9.7539   9.7563   9.7948   9.8045   9.8065   9.8298
     9.8321   9.8393   9.8494   9.8503   9.8519   9.8585   9.8612   9.8705
     9.9545   9.9654   9.9758   9.9759  10.0473  10.0519  10.0541  10.0641
    10.3881  10.3939  10.4011  10.4012  10.4091  10.4106  10.4278  10.4607
    10.4718  10.4770  10.4855  10.4856  10.4914  10.4946  10.5060  10.5097
    10.5299  10.5449  10.5514  10.5754  10.5896  10.5913  10.6116  10.6162
    10.6359  10.6454  10.6601  10.6666  10.6791  10.6987  10.7006  10.7144
    10.7800  10.8078  10.8821  10.8890  10.9927  11.0040  11.0391  11.0508
    11.1330  11.1372  11.1488  11.1574  11.1586  11.1861  11.1915  11.1947
    11.2106  11.2114  11.2942  11.3349  11.3458  11.3501  11.3572  11.3623
    11.3707  11.3737  11.3999  11.4033  11.4271  11.4378  11.5040  11.5107
    11.5290  11.5465  11.5717  11.5730  11.5790  11.5953  11.6038  11.6042
    11.6243  11.6268  11.7289  11.7451  11.7576  11.7618  11.8200  11.8593
    11.8684  11.9322  11.9385  11.9428  11.9609  11.9795  11.9946  11.9970
    12.0117  12.0197  12.0270  12.0358  12.0369  12.0385  12.1178  12.1276
    12.1344  12.1486  12.1737  12.2257  12.2446  12.2566  12.3388  12.3410
    12.3670  12.3672  12.3958  12.4202  12.4398  12.4585  12.4716  12.4771
    12.5064  12.5325  12.5393  12.5482  12.5705  12.5770  12.6007  12.6283
    12.6385  12.6435  12.6454  12.6520  12.6703  12.8024  12.8176  12.8374
    12.8621  12.8974  12.9222  12.9404  13.0213  13.0306  13.0523  13.1390
    13.1763  13.3927  13.5040  13.5163  13.6868  13.7141  13.7599  13.8796
    13.8916  13.9786  13.9828  14.0832  14.0908  14.1828  14.2211  14.2737
    14.2810  14.3269  14.3561  14.5462  14.5591  14.6314  14.6816  15.1514
    15.1666  15.2297  15.3263  15.3424  15.3798  15.5172  15.5453  15.5896
    15.6180  15.6717  15.6863  15.9536  15.9622  16.0033  16.0847  16.1029
    16.1287  16.1458  16.1495  16.1534  16.1820  16.2027  16.2579  16.2623
    16.2859  16.2889  16.3022  16.3144  16.3225  16.3248  16.4059  16.4791
    16.4864  16.5355  16.5447  16.5772  16.6117  16.6264  16.6695  16.6710
    16.7240  16.7270  16.7960  16.8293  16.8642  16.9043  16.9483  16.9965
    17.0661  17.1124  17.1575  17.1983  18.6357  18.6608  18.7149  18.7379
    18.8176  18.8217  18.8354  18.8403  18.9371  18.9486  18.9567  18.9648

          k =-0.5000-0.5000 0.0000 ( 31612 PWs)   bands (ev):

   -66.7026 -66.6816 -66.6714 -66.6470 -66.6467 -66.6431 -66.6318 -66.6090
   -66.5853 -62.3803 -62.3674 -62.3572 -62.3522 -62.3503 -62.3306 -62.3273
   -62.3250 -62.3153 -35.4645 -35.4569 -35.4414 -35.4338 -35.4325 -35.4198
   -35.4190 -35.4168 -35.4132 -35.4030 -35.3998 -35.3950 -35.3930 -35.3899
   -35.3891 -35.3881 -35.3859 -35.3767 -35.3765 -35.3750 -35.3659 -35.3590
   -35.3528 -35.3358 -35.3328 -35.3265 -35.3213 -31.2201 -31.2181 -31.2098
   -31.1949 -31.1945 -31.1930 -31.1910 -31.1890 -31.1812 -31.1802 -31.1772
   -31.1770 -31.1744 -31.1733 -31.1714 -31.1651 -31.1643 -31.1631 -31.1610
   -31.1576 -31.1469 -31.1463 -31.1374 -31.1348 -31.1332 -31.1325 -31.1313
     6.4175   6.4332   6.4420   6.4701   8.0072   8.0138   8.0185   8.0215
     8.0954   8.1178   8.2967   8.3248   8.3287   8.3321   8.3387   8.3410
     8.3452   8.3518   8.3627   8.3693   8.3722   8.3757   8.5900   8.6260
     8.6278   8.6582   8.6826   8.6996   8.7051   8.7255   8.7290   8.7423
     8.7560   8.7871   8.9464   8.9476   8.9709   8.9740   8.9760   8.9765
     8.9857   8.9902   8.9921   9.0000   9.0088   9.0101   9.0124   9.0276
     9.1167   9.1257   9.3082   9.3109   9.3140   9.3176   9.4036   9.4128
     9.4156   9.4168   9.4242   9.4293   9.4332   9.4404   9.4500   9.4578
     9.4583   9.4650   9.4786   9.4826   9.4858   9.4886   9.4993   9.5118
     9.5143   9.5198   9.5332   9.5395   9.5477   9.5742   9.5836   9.5981
     9.6047   9.6112   9.6946   9.6973   9.7730   9.8114   9.8175   9.8204
     9.8268   9.8341   9.8355   9.8404   9.8445   9.8499  10.0523  10.0600
    10.0840  10.0937  10.1269  10.1454  10.1546  10.1596  10.1649  10.1759
    10.1814  10.1853  10.1969  10.2069  10.2108  10.2148  10.2222  10.2270
    10.2299  10.2317  10.2337  10.2367  10.4496  10.4618  10.4848  10.4886
    10.4888  10.5008  10.5022  10.5160  10.6088  10.6329  10.6477  10.6620
    10.6650  10.6713  10.6723  10.6780  10.6785  10.6831  10.6994  10.7046
    10.7839  10.7901  10.8090  10.8138  10.8273  10.8291  10.8546  10.8592
    10.8967  10.9063  11.2023  11.2089  11.2107  11.2196  11.3200  11.3335
    11.3381  11.3492  11.3564  11.3607  11.3767  11.3789  11.5082  11.5846
    11.5917  11.5969  11.6397  11.6434  11.6439  11.6467  11.6469  11.6486
    11.6612  11.6931  11.7250  11.7279  11.7299  11.7445  11.7742  11.8402
    11.8686  11.8746  11.8803  11.8822  11.8839  11.8857  11.9484  12.0088
    12.0553  12.0716  12.0767  12.0830  12.0923  12.1012  12.1044  12.1055
    12.1077  12.1340  12.1413  12.1465  12.1538  12.1593  12.1602  12.1702
    12.1834  12.1857  12.1930  12.2197  12.2245  12.2319  12.2337  12.2362
    12.2490  12.2531  12.2652  12.2705  12.2828  12.2851  12.2902  12.3025
    12.3090  12.3382  12.3807  12.4561  12.4749  12.4780  12.4957  12.4998
    12.5112  12.5303  12.6050  12.6207  12.6571  12.6720  12.6879  12.7816
    12.7981  12.8486  12.8752  12.9222  12.9258  12.9457  12.9592  12.9639
    12.9967  13.0077  13.0184  13.0398  13.1152  13.6724  13.6774  13.7716
    13.7824  13.7987  13.8317  13.9395  13.9437  13.9489  14.0697  14.1098
    14.1124  14.2814  14.3115  14.3501  14.3632  14.4684  14.8259  14.8760
    14.9141  14.9469  15.1850  15.2731  15.4416  15.5183  15.6288  15.7148
    15.8022  15.8435  15.8529  15.8728  15.9140  15.9469  15.9485  15.9858
    16.0476  16.0846  16.1090  16.1244  16.1464  16.1543  16.1610  16.2391
    16.2626  16.3056  16.3472  16.3847  16.3950  16.4109  16.4119  16.4610
    16.4859  16.5476  16.5760  16.5816  16.6879  16.6935  16.7040  16.7313
    16.7855  16.7861  16.7895  16.8343  17.3834  17.3878  17.7234  17.8276
    18.0686  18.1708  18.2077  18.2285  18.3104  18.4648  18.5133  18.5506
    18.5922  18.6314  18.6410  18.6516  18.7145  18.7479  18.7991  18.8141

          k =-0.5000-0.5000-0.5734 ( 31672 PWs)   bands (ev):

   -66.7026 -66.6816 -66.6714 -66.6470 -66.6467 -66.6431 -66.6318 -66.6090
   -66.5853 -62.3803 -62.3674 -62.3572 -62.3522 -62.3503 -62.3306 -62.3273
   -62.3250 -62.3153 -35.4645 -35.4569 -35.4414 -35.4338 -35.4325 -35.4198
   -35.4190 -35.4168 -35.4132 -35.4030 -35.3998 -35.3950 -35.3930 -35.3899
   -35.3891 -35.3881 -35.3859 -35.3767 -35.3765 -35.3750 -35.3658 -35.3590
   -35.3528 -35.3358 -35.3328 -35.3265 -35.3213 -31.2201 -31.2181 -31.2098
   -31.1949 -31.1945 -31.1930 -31.1910 -31.1890 -31.1812 -31.1802 -31.1772
   -31.1770 -31.1744 -31.1733 -31.1713 -31.1651 -31.1643 -31.1631 -31.1610
   -31.1576 -31.1469 -31.1463 -31.1374 -31.1348 -31.1332 -31.1325 -31.1313
     6.9016   6.9131   6.9432   6.9637   6.9769   6.9950   7.0201   7.0368
     8.4589   8.4614   8.4745   8.4778   8.4870   8.4899   8.4910   8.4940
     8.4944   8.4954   8.5280   8.5354   8.5363   8.5416   8.5610   8.5652
     8.5693   8.5858   8.5865   8.5957   8.8646   8.8664   8.8843   8.8952
     8.9039   8.9095   8.9510   8.9512   9.0961   9.1051   9.1236   9.1281
     9.1330   9.1366   9.1371   9.1428   9.1511   9.1527   9.1653   9.1657
     9.1691   9.1694   9.1705   9.1722   9.1728   9.1729   9.1743   9.1756
     9.1819   9.1866   9.1916   9.1936   9.1970   9.2002   9.2056   9.2095
     9.2199   9.2240   9.2398   9.2471   9.2569   9.2706   9.2732   9.2816
     9.5432   9.5478   9.5614   9.5620   9.5866   9.5915   9.6132   9.6288
     9.6601   9.6734   9.6900   9.7108   9.7130   9.7249   9.7401   9.7585
     9.8154   9.8205   9.8544   9.8566   9.8641   9.8812   9.8880   9.8977
    10.1369  10.1407  10.1483  10.1554  10.1619  10.1733  10.1742  10.1822
    10.3009  10.3102  10.4469  10.4476  10.4639  10.4706  10.4725  10.4773
    10.4922  10.4949  10.4961  10.4994  10.5043  10.5048  10.5110  10.5147
    10.5265  10.5275  10.5298  10.5373  10.5430  10.5963  10.6036  10.6181
    10.6197  10.6221  10.6240  10.6404  10.6427  10.6520  10.6562  10.6651
    10.6813  10.6835  10.7033  10.7093  10.7485  10.7507  11.0051  11.0137
    11.0631  11.0699  11.0918  11.0982  11.1644  11.1650  11.3763  11.3832
    11.4016  11.4086  11.4290  11.4311  11.4394  11.4408  11.4445  11.4513
    11.4861  11.4898  11.5031  11.5192  11.5266  11.5440  11.5753  11.5840
    11.6434  11.6451  11.6460  11.6472  11.6557  11.6784  11.7050  11.7179
    11.7249  11.7285  11.7575  11.7598  11.7748  11.7818  11.7835  11.7874
    11.7985  11.8064  11.8215  11.8327  11.8833  11.9125  11.9809  12.0444
    12.0879  12.0895  12.1112  12.1168  12.1318  12.1461  12.1495  12.1705
    12.2087  12.2126  12.2219  12.2235  12.2476  12.2650  12.2817  12.2955
    12.3324  12.3431  12.3650  12.4084  12.4360  12.4427  12.4605  12.4694
    12.4732  12.4915  12.5101  12.5138  12.5412  12.5462  12.5893  12.6179
    12.6316  12.6669  12.6737  12.6782  12.6982  12.7297  12.7843  12.8025
    12.8189  12.9290  13.0233  13.0653  13.0916  13.1504  13.1722  13.2495
    13.2979  13.3291  13.4095  13.4363  13.4367  13.4955  13.5062  13.5566
    13.5673  13.6050  13.6078  13.9087  13.9562  14.0344  14.0539  14.1318
    14.2114  14.5237  14.5510  14.6621  14.7063  14.7626  14.8032  14.8987
    14.9648  15.0100  15.0266  15.2811  15.3603  15.4509  15.4701  15.6575
    15.7089  15.7246  15.7806  15.8416  15.8903  15.9646  16.0538  16.0856
    16.1159  16.1288  16.1596  16.1843  16.2054  16.2422  16.2540  16.2567
    16.2619  16.3043  16.3274  16.4412  16.4446  16.4721  16.4733  16.4942
    16.5394  16.5449  16.5703  16.6051  16.6347  16.6491  16.6893  16.7147
    16.7489  16.7693  16.8512  16.8709  16.8845  16.9060  16.9853  17.0069
    17.0164  17.0418  17.7017  17.8046  17.8106  17.8591  19.0076  19.0152
    19.0153  19.0346  19.0780  19.0896  19.1208  19.1686  19.2309  19.3425

          k =-0.5000 0.0000 0.0000 ( 31722 PWs)   bands (ev):

   -66.7026 -66.6816 -66.6714 -66.6470 -66.6467 -66.6431 -66.6318 -66.6090
   -66.5853 -62.3803 -62.3674 -62.3572 -62.3522 -62.3503 -62.3306 -62.3273
   -62.3250 -62.3153 -35.4645 -35.4569 -35.4414 -35.4338 -35.4325 -35.4198
   -35.4190 -35.4168 -35.4132 -35.4030 -35.3998 -35.3950 -35.3930 -35.3899
   -35.3891 -35.3881 -35.3859 -35.3767 -35.3765 -35.3750 -35.3659 -35.3590
   -35.3528 -35.3358 -35.3328 -35.3265 -35.3213 -31.2201 -31.2181 -31.2098
   -31.1949 -31.1945 -31.1930 -31.1910 -31.1890 -31.1812 -31.1802 -31.1772
   -31.1770 -31.1744 -31.1733 -31.1713 -31.1651 -31.1643 -31.1631 -31.1610
   -31.1576 -31.1469 -31.1463 -31.1374 -31.1348 -31.1332 -31.1325 -31.1313
     6.0312   6.0556   7.3935   7.4386   7.4595   7.4986   7.6730   7.6751
     8.1090   8.1136   8.1415   8.1507   8.2193   8.2390   8.2496   8.2753
     8.3833   8.4346   8.4559   8.4777   8.6150   8.6347   8.6560   8.6565
     8.6581   8.6746   8.6889   8.6984   8.7778   8.8041   8.8174   8.8314
     8.8505   8.8543   8.8669   8.8868   8.9034   8.9063   8.9106   8.9263
     8.9308   8.9334   8.9362   8.9578   9.0449   9.0459   9.1467   9.1686
     9.1829   9.2107   9.2174   9.2232   9.2344   9.2447   9.3055   9.3352
     9.3409   9.3655   9.3998   9.4220   9.4687   9.4772   9.4827   9.5194
     9.5437   9.5474   9.5673   9.5684   9.5915   9.5984   9.6069   9.6085
     9.6194   9.6259   9.6284   9.6322   9.6330   9.6337   9.6352   9.6498
     9.6633   9.6740   9.6817   9.6886   9.6924   9.7037   9.7119   9.7213
     9.7306   9.7485   9.7514   9.7861   9.8931   9.8986   9.9341   9.9554
    10.0158  10.0275  10.1672  10.1851  10.2100  10.2122  10.2533  10.2579
    10.2674  10.2700  10.2715  10.2757  10.2836  10.2857  10.3185  10.3530
    10.3727  10.3778  10.3824  10.3948  10.4133  10.4487  10.4677  10.4815
    10.5011  10.5206  10.5318  10.5496  10.5549  10.5698  10.5803  10.5962
    10.6030  10.6326  10.6783  10.7002  10.7082  10.7264  10.7411  10.7660
    10.8158  10.8258  10.8352  10.8367  10.8435  10.8584  10.8854  10.9588
    10.9956  11.0021  11.0175  11.0294  11.0408  11.0520  11.1719  11.1774
    11.2953  11.3460  11.3478  11.3668  11.3675  11.3790  11.3835  11.3867
    11.4157  11.4291  11.4641  11.4855  11.4876  11.5247  11.5506  11.5658
    11.5998  11.6171  11.6270  11.6353  11.6445  11.6679  11.7197  11.7472
    11.7676  11.7788  11.7995  11.8141  11.8185  11.8501  11.8593  11.8699
    11.8901  11.9080  11.9180  11.9233  11.9280  11.9393  11.9553  11.9602
    11.9701  11.9828  11.9838  11.9877  12.0228  12.1216  12.1456  12.1771
    12.1837  12.1980  12.2059  12.2169  12.2399  12.2419  12.2692  12.2813
    12.2978  12.3145  12.3443  12.3496  12.3728  12.4146  12.4222  12.4271
    12.4381  12.4624  12.4776  12.4866  12.5170  12.5181  12.5416  12.5703
    12.5793  12.5990  12.6110  12.6790  12.6834  12.7029  12.7251  12.7549
    12.8944  12.9636  12.9843  13.0159  13.0848  13.0919  13.0974  13.1451
    13.1703  13.2089  13.2368  13.2732  13.2936  13.3087  13.3467  13.3836
    13.4690  13.5635  13.6010  13.6130  13.6941  14.4856  14.5298  14.6096
    14.6695  14.6737  14.7134  14.8207  14.8599  14.8821  14.9174  14.9795
    15.0131  15.0507  15.1427  15.1827  15.3168  15.3571  15.4873  15.5018
    15.7152  15.7897  15.8344  15.8620  15.8726  15.9278  15.9415  15.9852
    16.0495  16.0647  16.0931  16.1247  16.1409  16.1605  16.1809  16.2009
    16.2207  16.2370  16.2373  16.2550  16.2870  16.3052  16.3279  16.3837
    16.4723  16.5196  16.5535  16.6536  16.7080  16.8173  17.0078  17.1103
    17.1356  17.2203  17.2818  17.3304  17.4059  17.4525  17.5977  17.6530
    17.6559  17.6792  17.8022  17.8076  17.8374  17.8814  17.9721  17.9917
    18.0183  18.0563  18.1504  18.2628  19.2158  19.2967  19.3509  19.3777

          k =-0.5000 0.0000 0.5734 ( 31696 PWs)   bands (ev):

   -66.7026 -66.6816 -66.6714 -66.6470 -66.6467 -66.6431 -66.6318 -66.6090
   -66.5853 -62.3803 -62.3674 -62.3572 -62.3522 -62.3503 -62.3306 -62.3273
   -62.3250 -62.3153 -35.4645 -35.4569 -35.4414 -35.4337 -35.4325 -35.4198
   -35.4190 -35.4168 -35.4132 -35.4030 -35.3998 -35.3950 -35.3930 -35.3899
   -35.3891 -35.3881 -35.3859 -35.3767 -35.3765 -35.3750 -35.3658 -35.3590
   -35.3528 -35.3358 -35.3328 -35.3265 -35.3213 -31.2201 -31.2181 -31.2098
   -31.1949 -31.1945 -31.1930 -31.1910 -31.1890 -31.1812 -31.1802 -31.1772
   -31.1770 -31.1744 -31.1733 -31.1713 -31.1651 -31.1643 -31.1631 -31.1610
   -31.1576 -31.1469 -31.1463 -31.1374 -31.1348 -31.1332 -31.1325 -31.1313
     6.5543   6.5714   6.5955   6.6124   7.8411   7.8486   7.8679   7.8868
     7.8946   7.9106   7.9296   7.9384   8.2701   8.2737   8.3045   8.3047
     8.5205   8.5231   8.5304   8.5331   8.6725   8.6733   8.6843   8.6893
     8.6894   8.6949   8.6984   8.6992   8.7012   8.7273   8.7450   8.7498
     8.7719   8.7737   8.7843   8.7986   8.9815   8.9965   9.0141   9.0335
     9.0392   9.0464   9.0482   9.0535   9.2117   9.2145   9.2160   9.2203
     9.2220   9.2303   9.2333   9.2368   9.2407   9.2503   9.2514   9.2520
     9.2639   9.2678   9.2789   9.2792   9.2971   9.3192   9.3940   9.4037
     9.4192   9.4259   9.4282   9.4570   9.4582   9.4608   9.4665   9.4741
     9.4901   9.4947   9.5118   9.5222   9.5288   9.5387   9.5516   9.5599
     9.5875   9.5967   9.7540   9.7560   9.7946   9.8059   9.8067   9.8273
     9.8310   9.8392   9.8436   9.8492   9.8590   9.8601   9.8606   9.8715
     9.9480   9.9534   9.9807   9.9877  10.0423  10.0455  10.0638  10.0660
    10.3847  10.3931  10.3956  10.3980  10.4129  10.4138  10.4274  10.4621
    10.4781  10.4802  10.4839  10.4856  10.4908  10.4930  10.5091  10.5105
    10.5168  10.5477  10.5579  10.5682  10.5851  10.5912  10.6075  10.6178
    10.6448  10.6473  10.6610  10.6675  10.6815  10.6933  10.7036  10.7088
    10.7801  10.8081  10.8865  10.8923  10.9956  11.0042  11.0350  11.0514
    11.1330  11.1401  11.1451  11.1530  11.1577  11.1860  11.1921  11.1955
    11.2108  11.2112  11.2836  11.3130  11.3524  11.3571  11.3642  11.3669
    11.3700  11.3745  11.4056  11.4132  11.4248  11.4327  11.5028  11.5098
    11.5349  11.5493  11.5705  11.5716  11.5807  11.5925  11.6026  11.6033
    11.6235  11.6274  11.7318  11.7499  11.7518  11.7595  11.8167  11.8639
    11.8816  11.9296  11.9364  11.9395  11.9423  11.9842  11.9917  11.9986
    12.0128  12.0156  12.0264  12.0361  12.0368  12.0500  12.1051  12.1252
    12.1634  12.1657  12.1730  12.2194  12.2251  12.2662  12.2972  12.3283
    12.3599  12.3662  12.3924  12.4262  12.4536  12.4657  12.4768  12.4988
    12.5019  12.5156  12.5317  12.5505  12.5626  12.5894  12.6040  12.6406
    12.6437  12.6498  12.6635  12.6690  12.6867  12.7398  12.8230  12.8262
    12.8386  12.9173  12.9286  12.9728  13.0022  13.0524  13.0633  13.1327
    13.1710  13.4328  13.4895  13.4918  13.6196  13.7039  13.7271  13.8600
    13.9146  13.9649  14.0289  14.0647  14.1179  14.1798  14.1897  14.2442
    14.3278  14.4162  14.4190  14.5464  14.5578  14.5984  14.6577  15.1497
    15.1911  15.2534  15.2591  15.3271  15.3556  15.3637  15.5461  15.6535
    15.6707  15.7353  15.7462  15.9268  15.9439  16.0543  16.0551  16.0762
    16.0937  16.1456  16.1465  16.1639  16.1688  16.1832  16.2061  16.2580
    16.2657  16.2903  16.3047  16.3135  16.3463  16.3616  16.4165  16.4958
    16.4960  16.5405  16.5467  16.5814  16.6091  16.6165  16.6943  16.7223
    16.7492  16.7567  16.7875  16.8103  16.8909  16.8995  16.9079  16.9758
    17.0593  17.0675  17.1392  17.2154  18.6651  18.6876  18.6925  18.7180
    18.8092  18.8175  18.8518  18.8634  18.9175  18.9415  18.9558  18.9603

     the Fermi energy is    14.7919 ev

!    total energy              =  -33062.60068781 Ry
     Harris-Foulkes estimate   =  -33062.60066721 Ry
     estimated scf accuracy    <       0.00000077 Ry

     total all-electron energy =  -1410574.691062 Ry

     The total energy is the sum of the following terms:

     one-electron contribution =   -1646.09184796 Ry
     hartree contribution      =    1490.28812105 Ry
     xc contribution           =   -1658.75464200 Ry
     ewald contribution        =   -4919.25534656 Ry
     one-center paw contrib.   =  -26328.78697234 Ry

     total magnetization       =     0.00 Bohr mag/cell
     absolute magnetization    =    78.12 Bohr mag/cell

     convergence has been achieved in  21 iterations

     Writing output data file mnau2.save
 
     init_run     :     52.09s CPU     52.87s WALL (       1 calls)
     electrons    :   3188.82s CPU   3243.45s WALL (       1 calls)

     Called by init_run:
     wfcinit      :     46.26s CPU     46.78s WALL (       1 calls)
     potinit      :      2.45s CPU      2.51s WALL (       1 calls)

     Called by electrons:
     c_bands      :   2844.32s CPU   2888.62s WALL (      21 calls)
     sum_band     :    289.16s CPU    295.78s WALL (      21 calls)
     v_of_rho     :      5.65s CPU      5.83s WALL (      22 calls)
     newd         :     17.93s CPU     20.42s WALL (      22 calls)
     PAW_pot      :     32.48s CPU     33.02s WALL (      22 calls)
     mix_rho      :      1.16s CPU      1.23s WALL (      21 calls)

     Called by c_bands:
     init_us_2    :     10.51s CPU     10.56s WALL (     688 calls)
     cegterg      :   2778.60s CPU   2821.99s WALL (     336 calls)

     Called by sum_band:
     sum_band:bec :      1.65s CPU      1.66s WALL (     336 calls)
     addusdens    :     32.19s CPU     35.06s WALL (      21 calls)

     Called by *egterg:
     h_psi        :    977.93s CPU    989.07s WALL (    1324 calls)
     s_psi        :    237.96s CPU    238.27s WALL (    1324 calls)
     g_psi        :      3.71s CPU      3.72s WALL (     972 calls)
     cdiaghg      :   1001.48s CPU   1002.28s WALL (    1308 calls)

     Called by h_psi:
     h_psi:pot    :    967.96s CPU    979.03s WALL (    1324 calls)
     h_psi:calbec :    238.64s CPU    241.05s WALL (    1324 calls)
     vloc_psi     :    488.88s CPU    497.28s WALL (    1324 calls)
     add_vuspsi   :    240.42s CPU    240.68s WALL (    1324 calls)

     General routines
     calbec       :    340.02s CPU    343.50s WALL (    1660 calls)
     fft          :      4.96s CPU      5.32s WALL (     672 calls)
     ffts         :      0.11s CPU      0.11s WALL (      86 calls)
     fftw         :    465.98s CPU    474.12s WALL (  757184 calls)
     interpolate  :      0.84s CPU      0.89s WALL (      86 calls)
 
     Parallel routines
     fft_scatt_xy :     57.93s CPU     58.74s WALL (  757942 calls)
     fft_scatt_yz :    122.89s CPU    126.80s WALL (  757942 calls)
 
     PWSCF        : 54m 6.37s CPU    55m14.68s WALL

 
   This run was terminated on:  22:30:13   7Mar2019            

=------------------------------------------------------------------------------=
   JOB DONE.
=------------------------------------------------------------------------------=
