
     Program PWSCF v.6.2 (svn rev. 14038) starts on  4Mar2019 at  3:32:19 

     This program is part of the open-source Quantum ESPRESSO suite
     for quantum simulation of materials; please cite
         "P. Giannozzi et al., J. Phys.:Condens. Matter 21 395502 (2009);
         "P. Giannozzi et al., J. Phys.:Condens. Matter 29 465901 (2017);
          URL http://www.quantum-espresso.org", 
     in publications or presentations arising from this work. More details at
     http://www.quantum-espresso.org/quote

     Parallel version (MPI), running on    16 processors

     MPI processes distributed on     1 nodes
     R & G space division:  proc/nbgrp/npool/nimage =      16
     Waiting for input...
     Reading input from standard input

     Current dimensions of program PWSCF are:
     Max number of different atomic species (ntypx) = 10
     Max number of k-points (npk) =  40000
     Max angular momentum in pseudopotentials (lmaxx) =  3
               file Mn.pbe-spn-kjpaw_psl.0.3.1.UPF: wavefunction(s)  3P 3D renormalized
               file Mn.pbe-spn-kjpaw_psl.0.3.1.UPF: wavefunction(s)  3P 3D renormalized
               file Au.pbe-dn-kjpaw_psl.0.1.UPF: wavefunction(s)  6S 6P 5D renormalized

     Subspace diagonalization in iterative solution of the eigenvalue problem:
     a serial algorithm will be used

 
     Parallelization info
     --------------------
     sticks:   dense  smooth     PW     G-vecs:    dense   smooth      PW
     Min         736     331     90                52486    15847    2256
     Max         737     332     91                52489    15850    2259
     Sum       11785    5297   1449               839803   253559   36125
 


     bravais-lattice index     =            0
     lattice parameter (alat)  =      19.2459  a.u.
     unit-cell volume          =    6216.1497 (a.u.)^3
     number of atoms/cell      =           54
     number of atomic types    =            3
     number of electrons       =       666.00
     number of Kohn-Sham states=          400
     kinetic-energy cutoff     =      45.0000  Ry
     charge density cutoff     =     400.0000  Ry
     convergence threshold     =      1.0E-06
     mixing beta               =       0.1000
     number of iterations used =            8  plain     mixing
     Exchange-correlation      = SLA PW PBX PBC ( 1  4  3  4 0 0)

     celldm(1)=  19.245946  celldm(2)=   0.000000  celldm(3)=   0.000000
     celldm(4)=   0.000000  celldm(5)=   0.000000  celldm(6)=   0.000000

     crystal axes: (cart. coord. in units of alat)
               a(1) = (   1.000000   0.000000   0.000000 )  
               a(2) = (   0.000000   1.000000   0.000000 )  
               a(3) = (   0.000000   0.000000   0.871974 )  

     reciprocal axes: (cart. coord. in units 2 pi/alat)
               b(1) = (  1.000000  0.000000  0.000000 )  
               b(2) = (  0.000000  1.000000  0.000000 )  
               b(3) = (  0.000000  0.000000  1.146823 )  


     PseudoPot. # 1 for Mn read from file:
     ./pseudo/Mn.pbe-spn-kjpaw_psl.0.3.1.UPF
     MD5 check sum: 7eef95dd2aae66803482eea66ebeebf1
     Pseudo is Projector augmented-wave + core cor, Zval = 15.0
     Generated using "atomic" code by A. Dal Corso v.5.0.99 svn rev. 10869
     Shape of augmentation charge: PSQ
     Using radial grid of 1187 points,  6 beta functions with: 
                l(1) =   0
                l(2) =   0
                l(3) =   1
                l(4) =   1
                l(5) =   2
                l(6) =   2
     Q(r) pseudized with 0 coefficients 


     PseudoPot. # 2 for Mn read from file:
     ./pseudo/Mn.pbe-spn-kjpaw_psl.0.3.1.UPF
     MD5 check sum: 7eef95dd2aae66803482eea66ebeebf1
     Pseudo is Projector augmented-wave + core cor, Zval = 15.0
     Generated using "atomic" code by A. Dal Corso v.5.0.99 svn rev. 10869
     Shape of augmentation charge: PSQ
     Using radial grid of 1187 points,  6 beta functions with: 
                l(1) =   0
                l(2) =   0
                l(3) =   1
                l(4) =   1
                l(5) =   2
                l(6) =   2
     Q(r) pseudized with 0 coefficients 


     PseudoPot. # 3 for Au read from file:
     ./pseudo/Au.pbe-dn-kjpaw_psl.0.1.UPF
     MD5 check sum: 5c9b92683623e7ae2ab3f8e525febab6
     Pseudo is Projector augmented-wave + core cor, Zval = 11.0
     Generated using "atomic" code by A. Dal Corso v.5.0.2 svn rev. 9415
     Shape of augmentation charge: PSQ
     Using radial grid of 1279 points,  6 beta functions with: 
                l(1) =   0
                l(2) =   0
                l(3) =   1
                l(4) =   1
                l(5) =   2
                l(6) =   2
     Q(r) pseudized with 0 coefficients 


     atomic species   valence    mass     pseudopotential
        Mn1           15.00    54.93800     Mn( 1.00)
        Mn2           15.00    54.93800     Mn( 1.00)
        Au            11.00   196.96600     Au( 1.00)

     Starting magnetic structure 
     atomic species   magnetization
        Mn1          0.800
        Mn2         -0.800
        Au           0.000

      4 Sym. Ops. (no inversion) found



   Cartesian axes

     site n.     atom                  positions (alat units)
         1           Mn1 tau(   1) = (   0.0000000   0.0000000   0.0000000  )
         2           Mn1 tau(   2) = (   0.0000000   0.3333300   0.0000000  )
         3           Mn1 tau(   3) = (   0.0000000   0.6666700   0.0000000  )
         4           Mn1 tau(   4) = (   0.3333300   0.0000000   0.0000000  )
         5           Mn1 tau(   5) = (   0.3333300   0.3333300   0.0000000  )
         6           Mn2 tau(   6) = (   0.3333300   0.6666700   0.0000000  )
         7           Mn1 tau(   7) = (   0.6666700   0.0000000   0.0000000  )
         8           Mn2 tau(   8) = (   0.6666700   0.3333300   0.0000000  )
         9           Mn1 tau(   9) = (   0.6666700   0.6666700   0.0000000  )
        10           Mn2 tau(  10) = (   0.1666700   0.1666700   0.4359871  )
        11           Mn2 tau(  11) = (   0.1666700   0.5000000   0.4359871  )
        12           Mn2 tau(  12) = (   0.1666700   0.8333300   0.4359871  )
        13           Mn2 tau(  13) = (   0.5000000   0.1666700   0.4359871  )
        14           Mn2 tau(  14) = (   0.5000000   0.5000000   0.4359871  )
        15           Mn1 tau(  15) = (   0.5000000   0.8333300   0.4359871  )
        16           Mn2 tau(  16) = (   0.8333300   0.1666700   0.4359871  )
        17           Mn1 tau(  17) = (   0.8333300   0.5000000   0.4359871  )
        18           Mn2 tau(  18) = (   0.8333300   0.8333300   0.4359871  )
        19           Au  tau(  19) = (   0.1666700   0.1666700   0.7327374  )
        20           Au  tau(  20) = (   0.1666700   0.5000000   0.7327374  )
        21           Au  tau(  21) = (   0.1666700   0.8333300   0.7327374  )
        22           Au  tau(  22) = (   0.5000000   0.1666700   0.7327374  )
        23           Au  tau(  23) = (   0.5000000   0.5000000   0.7327374  )
        24           Au  tau(  24) = (   0.5000000   0.8333300   0.7327374  )
        25           Au  tau(  25) = (   0.8333300   0.1666700   0.7327374  )
        26           Au  tau(  26) = (   0.8333300   0.5000000   0.7327374  )
        27           Au  tau(  27) = (   0.8333300   0.8333300   0.7327374  )
        28           Au  tau(  28) = (   0.1666700   0.1666700   0.1392369  )
        29           Au  tau(  29) = (   0.1666700   0.5000000   0.1392369  )
        30           Au  tau(  30) = (   0.1666700   0.8333300   0.1392369  )
        31           Au  tau(  31) = (   0.5000000   0.1666700   0.1392369  )
        32           Au  tau(  32) = (   0.5000000   0.5000000   0.1392369  )
        33           Au  tau(  33) = (   0.5000000   0.8333300   0.1392369  )
        34           Au  tau(  34) = (   0.8333300   0.1666700   0.1392369  )
        35           Au  tau(  35) = (   0.8333300   0.5000000   0.1392369  )
        36           Au  tau(  36) = (   0.8333300   0.8333300   0.1392369  )
        37           Au  tau(  37) = (   0.0000000   0.0000000   0.2967503  )
        38           Au  tau(  38) = (   0.0000000   0.3333300   0.2967503  )
        39           Au  tau(  39) = (   0.0000000   0.6666700   0.2967503  )
        40           Au  tau(  40) = (   0.3333300   0.0000000   0.2967503  )
        41           Au  tau(  41) = (   0.3333300   0.3333300   0.2967503  )
        42           Au  tau(  42) = (   0.3333300   0.6666700   0.2967503  )
        43           Au  tau(  43) = (   0.6666700   0.0000000   0.2967503  )
        44           Au  tau(  44) = (   0.6666700   0.3333300   0.2967503  )
        45           Au  tau(  45) = (   0.6666700   0.6666700   0.2967503  )
        46           Au  tau(  46) = (   0.0000000   0.0000000   0.5752240  )
        47           Au  tau(  47) = (   0.0000000   0.3333300   0.5752240  )
        48           Au  tau(  48) = (   0.0000000   0.6666700   0.5752240  )
        49           Au  tau(  49) = (   0.3333300   0.0000000   0.5752240  )
        50           Au  tau(  50) = (   0.3333300   0.3333300   0.5752240  )
        51           Au  tau(  51) = (   0.3333300   0.6666700   0.5752240  )
        52           Au  tau(  52) = (   0.6666700   0.0000000   0.5752240  )
        53           Au  tau(  53) = (   0.6666700   0.3333300   0.5752240  )
        54           Au  tau(  54) = (   0.6666700   0.6666700   0.5752240  )

     number of k points=     6 (tetrahedron method)
                       cart. coord. in units 2pi/alat
        k(    1) = (   0.0000000   0.0000000   0.0000000), wk =   0.1250000
        k(    2) = (   0.0000000   0.0000000  -0.5734114), wk =   0.1250000
        k(    3) = (   0.0000000  -0.5000000   0.0000000), wk =   0.2500000
        k(    4) = (   0.0000000  -0.5000000  -0.5734114), wk =   0.2500000
        k(    5) = (  -0.5000000  -0.5000000   0.0000000), wk =   0.1250000
        k(    6) = (  -0.5000000  -0.5000000  -0.5734114), wk =   0.1250000

     Dense  grid:   839803 G-vectors     FFT dimensions: ( 125, 125, 108)

     Smooth grid:   253559 G-vectors     FFT dimensions: (  90,  90,  72)

     Estimated max dynamical RAM per process >     521.79 MB

     Estimated total dynamical RAM >       8.15 GB
     Generating pointlists ...
     new r_m :   0.1129 (alat units)  2.1733 (a.u.) for type    1
     new r_m :   0.1129 (alat units)  2.1733 (a.u.) for type    2
     new r_m :   0.1129 (alat units)  2.1733 (a.u.) for type    3

     Check: negative/imaginary core charge=   -0.000006    0.000000

     Initial potential from superposition of free atoms

     starting charge  665.98709, renormalised to  666.00000
     Starting wfc are  504 randomized atomic wfcs
     Checking if some PAW data can be deallocated... 

     total cpu time spent up to now is       44.7 secs

     Self-consistent Calculation

     iteration #  1     ecut=    45.00 Ry     beta= 0.10
     Davidson diagonalization with overlap
     ethr =  1.00E-02,  avg # of iterations =  3.5

     total cpu time spent up to now is      171.1 secs

     total energy              =  -33047.19002763 Ry
     Harris-Foulkes estimate   =  -33044.03532612 Ry
     estimated scf accuracy    <      27.01351045 Ry

     total magnetization       =     0.00 Bohr mag/cell
     absolute magnetization    =    92.16 Bohr mag/cell

     iteration #  2     ecut=    45.00 Ry     beta= 0.10
     Davidson diagonalization with overlap
     ethr =  4.06E-03,  avg # of iterations =  1.0

     total cpu time spent up to now is      253.8 secs

     total energy              =  -33058.57848986 Ry
     Harris-Foulkes estimate   =  -33047.36813154 Ry
     estimated scf accuracy    <      21.35973172 Ry

     total magnetization       =     0.00 Bohr mag/cell
     absolute magnetization    =    91.73 Bohr mag/cell

     iteration #  3     ecut=    45.00 Ry     beta= 0.10
     Davidson diagonalization with overlap
     ethr =  3.21E-03,  avg # of iterations =  2.2

     total cpu time spent up to now is      355.9 secs

     total energy              =  -33066.50901241 Ry
     Harris-Foulkes estimate   =  -33061.37023942 Ry
     estimated scf accuracy    <       8.81408529 Ry

     total magnetization       =    -0.01 Bohr mag/cell
     absolute magnetization    =    85.67 Bohr mag/cell

     iteration #  4     ecut=    45.00 Ry     beta= 0.10
     Davidson diagonalization with overlap
     ethr =  1.32E-03,  avg # of iterations =  4.1

     total cpu time spent up to now is      516.3 secs

     total energy              =  -33058.41778700 Ry
     Harris-Foulkes estimate   =  -33069.48718351 Ry
     estimated scf accuracy    <      56.18777440 Ry

     total magnetization       =    -0.43 Bohr mag/cell
     absolute magnetization    =    70.76 Bohr mag/cell

     iteration #  5     ecut=    45.00 Ry     beta= 0.10
     Davidson diagonalization with overlap
     ethr =  1.32E-03,  avg # of iterations =  5.1

     total cpu time spent up to now is      712.2 secs

     total energy              =  -33061.89810718 Ry
     Harris-Foulkes estimate   =  -33062.58894895 Ry
     estimated scf accuracy    <       3.70499492 Ry

     total magnetization       =    -0.05 Bohr mag/cell
     absolute magnetization    =    83.60 Bohr mag/cell

     iteration #  6     ecut=    45.00 Ry     beta= 0.10
     Davidson diagonalization with overlap
     ethr =  5.56E-04,  avg # of iterations =  3.7

     total cpu time spent up to now is      838.9 secs

     total energy              =  -33062.54561868 Ry
     Harris-Foulkes estimate   =  -33062.59592271 Ry
     estimated scf accuracy    <       0.48115906 Ry

     total magnetization       =     0.05 Bohr mag/cell
     absolute magnetization    =    79.52 Bohr mag/cell

     iteration #  7     ecut=    45.00 Ry     beta= 0.10
     Davidson diagonalization with overlap
     ethr =  7.22E-05,  avg # of iterations =  2.2

     total cpu time spent up to now is      937.8 secs

     total energy              =  -33062.59810513 Ry
     Harris-Foulkes estimate   =  -33062.59109759 Ry
     estimated scf accuracy    <       0.08106130 Ry

     total magnetization       =     0.00 Bohr mag/cell
     absolute magnetization    =    78.99 Bohr mag/cell

     iteration #  8     ecut=    45.00 Ry     beta= 0.10
     Davidson diagonalization with overlap
     ethr =  1.22E-05,  avg # of iterations =  5.1

     total cpu time spent up to now is     1071.6 secs

     total energy              =  -33062.58463789 Ry
     Harris-Foulkes estimate   =  -33062.60762734 Ry
     estimated scf accuracy    <       0.17162516 Ry

     total magnetization       =     0.02 Bohr mag/cell
     absolute magnetization    =    78.54 Bohr mag/cell

     iteration #  9     ecut=    45.00 Ry     beta= 0.10
     Davidson diagonalization with overlap
     ethr =  1.22E-05,  avg # of iterations =  2.0

     total cpu time spent up to now is     1165.1 secs

     total energy              =  -33062.59238443 Ry
     Harris-Foulkes estimate   =  -33062.59269153 Ry
     estimated scf accuracy    <       0.04003370 Ry

     total magnetization       =    -0.01 Bohr mag/cell
     absolute magnetization    =    78.57 Bohr mag/cell

     iteration # 10     ecut=    45.00 Ry     beta= 0.10
     Davidson diagonalization with overlap
     ethr =  6.01E-06,  avg # of iterations =  2.1

     total cpu time spent up to now is     1258.3 secs

     total energy              =  -33062.59199982 Ry
     Harris-Foulkes estimate   =  -33062.59418087 Ry
     estimated scf accuracy    <       0.01365758 Ry

     total magnetization       =     0.01 Bohr mag/cell
     absolute magnetization    =    78.70 Bohr mag/cell

     iteration # 11     ecut=    45.00 Ry     beta= 0.10
     Davidson diagonalization with overlap
     ethr =  2.05E-06,  avg # of iterations =  4.8

     total cpu time spent up to now is     1396.6 secs

     total energy              =  -33062.59648304 Ry
     Harris-Foulkes estimate   =  -33062.59508686 Ry
     estimated scf accuracy    <       0.00338969 Ry

     total magnetization       =     0.00 Bohr mag/cell
     absolute magnetization    =    79.13 Bohr mag/cell

     iteration # 12     ecut=    45.00 Ry     beta= 0.10
     Davidson diagonalization with overlap
     ethr =  5.09E-07,  avg # of iterations =  3.0

     total cpu time spent up to now is     1500.4 secs

     total energy              =  -33062.59698903 Ry
     Harris-Foulkes estimate   =  -33062.59658322 Ry
     estimated scf accuracy    <       0.00133867 Ry

     total magnetization       =     0.00 Bohr mag/cell
     absolute magnetization    =    78.90 Bohr mag/cell

     iteration # 13     ecut=    45.00 Ry     beta= 0.10
     Davidson diagonalization with overlap
     ethr =  2.01E-07,  avg # of iterations =  2.4

     total cpu time spent up to now is     1600.1 secs

     total energy              =  -33062.59743539 Ry
     Harris-Foulkes estimate   =  -33062.59717255 Ry
     estimated scf accuracy    <       0.00050943 Ry

     total magnetization       =     0.00 Bohr mag/cell
     absolute magnetization    =    78.91 Bohr mag/cell

     iteration # 14     ecut=    45.00 Ry     beta= 0.10
     Davidson diagonalization with overlap
     ethr =  7.65E-08,  avg # of iterations =  2.6

     total cpu time spent up to now is     1700.3 secs

     total energy              =  -33062.59756671 Ry
     Harris-Foulkes estimate   =  -33062.59736714 Ry
     estimated scf accuracy    <       0.00014516 Ry

     total magnetization       =     0.00 Bohr mag/cell
     absolute magnetization    =    78.82 Bohr mag/cell

     iteration # 15     ecut=    45.00 Ry     beta= 0.10
     Davidson diagonalization with overlap
     ethr =  2.18E-08,  avg # of iterations =  3.4

     total cpu time spent up to now is     1814.6 secs

     total energy              =  -33062.59767413 Ry
     Harris-Foulkes estimate   =  -33062.59756680 Ry
     estimated scf accuracy    <       0.00007453 Ry

     total magnetization       =     0.00 Bohr mag/cell
     absolute magnetization    =    78.80 Bohr mag/cell

     iteration # 16     ecut=    45.00 Ry     beta= 0.10
     Davidson diagonalization with overlap
     ethr =  1.12E-08,  avg # of iterations =  2.0

     total cpu time spent up to now is     1907.4 secs

     total energy              =  -33062.59775997 Ry
     Harris-Foulkes estimate   =  -33062.59766332 Ry
     estimated scf accuracy    <       0.00004585 Ry

     total magnetization       =     0.00 Bohr mag/cell
     absolute magnetization    =    78.79 Bohr mag/cell

     iteration # 17     ecut=    45.00 Ry     beta= 0.10
     Davidson diagonalization with overlap
     ethr =  6.88E-09,  avg # of iterations =  3.0

     total cpu time spent up to now is     2024.5 secs

     total energy              =  -33062.59777350 Ry
     Harris-Foulkes estimate   =  -33062.59773428 Ry
     estimated scf accuracy    <       0.00001866 Ry

     total magnetization       =     0.00 Bohr mag/cell
     absolute magnetization    =    78.77 Bohr mag/cell

     iteration # 18     ecut=    45.00 Ry     beta= 0.10
     Davidson diagonalization with overlap
     ethr =  2.80E-09,  avg # of iterations =  3.0

     total cpu time spent up to now is     2161.8 secs

     total energy              =  -33062.59774944 Ry
     Harris-Foulkes estimate   =  -33062.59773820 Ry
     estimated scf accuracy    <       0.00000430 Ry

     total magnetization       =    -0.00 Bohr mag/cell
     absolute magnetization    =    78.75 Bohr mag/cell

     iteration # 19     ecut=    45.00 Ry     beta= 0.10
     Davidson diagonalization with overlap
     ethr =  6.46E-10,  avg # of iterations =  2.3

     total cpu time spent up to now is     2267.3 secs

     total energy              =  -33062.59774303 Ry
     Harris-Foulkes estimate   =  -33062.59773629 Ry
     estimated scf accuracy    <       0.00000185 Ry

     total magnetization       =     0.00 Bohr mag/cell
     absolute magnetization    =    78.74 Bohr mag/cell

     iteration # 20     ecut=    45.00 Ry     beta= 0.10
     Davidson diagonalization with overlap
     ethr =  2.78E-10,  avg # of iterations =  2.2

     total cpu time spent up to now is     2372.7 secs

     total energy              =  -33062.59774284 Ry
     Harris-Foulkes estimate   =  -33062.59773857 Ry
     estimated scf accuracy    <       0.00000494 Ry

     total magnetization       =     0.00 Bohr mag/cell
     absolute magnetization    =    78.74 Bohr mag/cell

     iteration # 21     ecut=    45.00 Ry     beta= 0.10
     Davidson diagonalization with overlap
     ethr =  2.78E-10,  avg # of iterations =  2.0

     total cpu time spent up to now is     2465.6 secs

     total energy              =  -33062.59774413 Ry
     Harris-Foulkes estimate   =  -33062.59774142 Ry
     estimated scf accuracy    <       0.00000401 Ry

     total magnetization       =    -0.00 Bohr mag/cell
     absolute magnetization    =    78.74 Bohr mag/cell

     iteration # 22     ecut=    45.00 Ry     beta= 0.10
     Davidson diagonalization with overlap
     ethr =  2.78E-10,  avg # of iterations =  2.0

     total cpu time spent up to now is     2558.4 secs

     total energy              =  -33062.59774920 Ry
     Harris-Foulkes estimate   =  -33062.59774553 Ry
     estimated scf accuracy    <       0.00000146 Ry

     total magnetization       =     0.00 Bohr mag/cell
     absolute magnetization    =    78.74 Bohr mag/cell

     iteration # 23     ecut=    45.00 Ry     beta= 0.10
     Davidson diagonalization with overlap
     ethr =  2.19E-10,  avg # of iterations =  2.0

     total cpu time spent up to now is     2651.4 secs

     total energy              =  -33062.59775176 Ry
     Harris-Foulkes estimate   =  -33062.59774921 Ry
     estimated scf accuracy    <       0.00000426 Ry

     total magnetization       =     0.00 Bohr mag/cell
     absolute magnetization    =    78.74 Bohr mag/cell

     iteration # 24     ecut=    45.00 Ry     beta= 0.10
     Davidson diagonalization with overlap
     ethr =  2.19E-10,  avg # of iterations =  2.0

     total cpu time spent up to now is     2744.1 secs

     total energy              =  -33062.59775371 Ry
     Harris-Foulkes estimate   =  -33062.59775168 Ry
     estimated scf accuracy    <       0.00000419 Ry

     total magnetization       =     0.00 Bohr mag/cell
     absolute magnetization    =    78.74 Bohr mag/cell

     iteration # 25     ecut=    45.00 Ry     beta= 0.10
     Davidson diagonalization with overlap
     ethr =  2.19E-10,  avg # of iterations =  2.0

     total cpu time spent up to now is     2836.6 secs

     total energy              =  -33062.59775609 Ry
     Harris-Foulkes estimate   =  -33062.59775348 Ry
     estimated scf accuracy    <       0.00000430 Ry

     total magnetization       =     0.00 Bohr mag/cell
     absolute magnetization    =    78.74 Bohr mag/cell

     iteration # 26     ecut=    45.00 Ry     beta= 0.10
     Davidson diagonalization with overlap
     ethr =  2.19E-10,  avg # of iterations =  2.0

     total cpu time spent up to now is     2931.8 secs

     total energy              =  -33062.59775740 Ry
     Harris-Foulkes estimate   =  -33062.59775567 Ry
     estimated scf accuracy    <       0.00000725 Ry

     total magnetization       =     0.00 Bohr mag/cell
     absolute magnetization    =    78.73 Bohr mag/cell

     iteration # 27     ecut=    45.00 Ry     beta= 0.10
     Davidson diagonalization with overlap
     ethr =  2.19E-10,  avg # of iterations =  2.0

     total cpu time spent up to now is     3024.3 secs

     total energy              =  -33062.59775671 Ry
     Harris-Foulkes estimate   =  -33062.59775589 Ry
     estimated scf accuracy    <       0.00000758 Ry

     total magnetization       =     0.00 Bohr mag/cell
     absolute magnetization    =    78.73 Bohr mag/cell

     iteration # 28     ecut=    45.00 Ry     beta= 0.10
     Davidson diagonalization with overlap
     ethr =  2.19E-10,  avg # of iterations =  2.0

     total cpu time spent up to now is     3116.8 secs

     total energy              =  -33062.59775950 Ry
     Harris-Foulkes estimate   =  -33062.59775880 Ry
     estimated scf accuracy    <       0.00000774 Ry

     total magnetization       =     0.00 Bohr mag/cell
     absolute magnetization    =    78.73 Bohr mag/cell

     iteration # 29     ecut=    45.00 Ry     beta= 0.10
     Davidson diagonalization with overlap
     ethr =  2.19E-10,  avg # of iterations =  2.0

     total cpu time spent up to now is     3209.2 secs

     total energy              =  -33062.59776173 Ry
     Harris-Foulkes estimate   =  -33062.59776064 Ry
     estimated scf accuracy    <       0.00000790 Ry

     total magnetization       =     0.00 Bohr mag/cell
     absolute magnetization    =    78.73 Bohr mag/cell

     iteration # 30     ecut=    45.00 Ry     beta= 0.10
     Davidson diagonalization with overlap
     ethr =  2.19E-10,  avg # of iterations =  2.0

     total cpu time spent up to now is     3301.9 secs

     total energy              =  -33062.59776151 Ry
     Harris-Foulkes estimate   =  -33062.59776049 Ry
     estimated scf accuracy    <       0.00000917 Ry

     total magnetization       =     0.00 Bohr mag/cell
     absolute magnetization    =    78.73 Bohr mag/cell

     iteration # 31     ecut=    45.00 Ry     beta= 0.10
     Davidson diagonalization with overlap
     ethr =  2.19E-10,  avg # of iterations =  1.2

     total cpu time spent up to now is     3386.2 secs

     total energy              =  -33062.59775806 Ry
     Harris-Foulkes estimate   =  -33062.59775973 Ry
     estimated scf accuracy    <       0.00000712 Ry

     total magnetization       =    -0.00 Bohr mag/cell
     absolute magnetization    =    78.73 Bohr mag/cell

     iteration # 32     ecut=    45.00 Ry     beta= 0.10
     Davidson diagonalization with overlap
     ethr =  2.19E-10,  avg # of iterations =  3.0

     total cpu time spent up to now is     3522.1 secs

     total energy              =  -33062.59775089 Ry
     Harris-Foulkes estimate   =  -33062.59775091 Ry
     estimated scf accuracy    <       0.00000373 Ry

     total magnetization       =    -0.00 Bohr mag/cell
     absolute magnetization    =    78.73 Bohr mag/cell

     iteration # 33     ecut=    45.00 Ry     beta= 0.10
     Davidson diagonalization with overlap
     ethr =  2.19E-10,  avg # of iterations =  2.0

     total cpu time spent up to now is     3614.6 secs

     total energy              =  -33062.59775212 Ry
     Harris-Foulkes estimate   =  -33062.59775084 Ry
     estimated scf accuracy    <       0.00000345 Ry

     total magnetization       =    -0.00 Bohr mag/cell
     absolute magnetization    =    78.73 Bohr mag/cell

     iteration # 34     ecut=    45.00 Ry     beta= 0.10
     Davidson diagonalization with overlap
     ethr =  2.19E-10,  avg # of iterations =  2.0

     total cpu time spent up to now is     3706.6 secs

     total energy              =  -33062.59775313 Ry
     Harris-Foulkes estimate   =  -33062.59775263 Ry
     estimated scf accuracy    <       0.00000370 Ry

     total magnetization       =    -0.00 Bohr mag/cell
     absolute magnetization    =    78.73 Bohr mag/cell

     iteration # 35     ecut=    45.00 Ry     beta= 0.10
     Davidson diagonalization with overlap
     ethr =  2.19E-10,  avg # of iterations =  3.0

     total cpu time spent up to now is     3828.1 secs

     total energy              =  -33062.59775303 Ry
     Harris-Foulkes estimate   =  -33062.59775237 Ry
     estimated scf accuracy    <       0.00001018 Ry

     total magnetization       =     0.00 Bohr mag/cell
     absolute magnetization    =    78.74 Bohr mag/cell

     iteration # 36     ecut=    45.00 Ry     beta= 0.10
     Davidson diagonalization with overlap
     ethr =  2.19E-10,  avg # of iterations =  2.5

     total cpu time spent up to now is     3934.0 secs

     total energy              =  -33062.59775689 Ry
     Harris-Foulkes estimate   =  -33062.59775670 Ry
     estimated scf accuracy    <       0.00000294 Ry

     total magnetization       =     0.00 Bohr mag/cell
     absolute magnetization    =    78.73 Bohr mag/cell

     iteration # 37     ecut=    45.00 Ry     beta= 0.10
     Davidson diagonalization with overlap
     ethr =  2.19E-10,  avg # of iterations =  1.2

     total cpu time spent up to now is     4018.2 secs

     total energy              =  -33062.59775548 Ry
     Harris-Foulkes estimate   =  -33062.59775526 Ry
     estimated scf accuracy    <       0.00000159 Ry

     total magnetization       =     0.00 Bohr mag/cell
     absolute magnetization    =    78.73 Bohr mag/cell

     iteration # 38     ecut=    45.00 Ry     beta= 0.10
     Davidson diagonalization with overlap
     ethr =  2.19E-10,  avg # of iterations =  1.2
 
     Magnetic moment per site:
     atom:    1    charge:   13.5795    magn:    3.9829    constr:    0.0000
     atom:    2    charge:   13.5733    magn:    4.0285    constr:    0.0000
     atom:    3    charge:   13.5798    magn:    3.9746    constr:    0.0000
     atom:    4    charge:   13.5733    magn:    4.0285    constr:    0.0000
     atom:    5    charge:   13.5757    magn:    4.0035    constr:    0.0000
     atom:    6    charge:   13.5760    magn:   -4.0559    constr:    0.0000
     atom:    7    charge:   13.5798    magn:    3.9746    constr:    0.0000
     atom:    8    charge:   13.5760    magn:   -4.0559    constr:    0.0000
     atom:    9    charge:   13.5817    magn:    3.9620    constr:    0.0000
     atom:   10    charge:   13.5795    magn:   -3.9828    constr:    0.0000
     atom:   11    charge:   13.5797    magn:   -3.9746    constr:    0.0000
     atom:   12    charge:   13.5734    magn:   -4.0284    constr:    0.0000
     atom:   13    charge:   13.5797    magn:   -3.9746    constr:    0.0000
     atom:   14    charge:   13.5815    magn:   -3.9621    constr:    0.0000
     atom:   15    charge:   13.5760    magn:    4.0559    constr:    0.0000
     atom:   16    charge:   13.5734    magn:   -4.0284    constr:    0.0000
     atom:   17    charge:   13.5760    magn:    4.0559    constr:    0.0000
     atom:   18    charge:   13.5759    magn:   -4.0036    constr:    0.0000
     atom:   19    charge:    9.1215    magn:    0.0513    constr:    0.0000
     atom:   20    charge:    9.1210    magn:    0.0198    constr:    0.0000
     atom:   21    charge:    9.1217    magn:    0.0141    constr:    0.0000
     atom:   22    charge:    9.1210    magn:    0.0198    constr:    0.0000
     atom:   23    charge:    9.1196    magn:   -0.0087    constr:    0.0000
     atom:   24    charge:    9.1208    magn:    0.0389    constr:    0.0000
     atom:   25    charge:    9.1217    magn:    0.0141    constr:    0.0000
     atom:   26    charge:    9.1208    magn:    0.0389    constr:    0.0000
     atom:   27    charge:    9.1198    magn:    0.0517    constr:    0.0000
     atom:   28    charge:    9.1215    magn:    0.0513    constr:    0.0000
     atom:   29    charge:    9.1210    magn:    0.0198    constr:    0.0000
     atom:   30    charge:    9.1217    magn:    0.0141    constr:    0.0000
     atom:   31    charge:    9.1210    magn:    0.0198    constr:    0.0000
     atom:   32    charge:    9.1196    magn:   -0.0087    constr:    0.0000
     atom:   33    charge:    9.1208    magn:    0.0389    constr:    0.0000
     atom:   34    charge:    9.1217    magn:    0.0141    constr:    0.0000
     atom:   35    charge:    9.1208    magn:    0.0389    constr:    0.0000
     atom:   36    charge:    9.1198    magn:    0.0517    constr:    0.0000
     atom:   37    charge:    9.1216    magn:   -0.0512    constr:    0.0000
     atom:   38    charge:    9.1218    magn:   -0.0141    constr:    0.0000
     atom:   39    charge:    9.1211    magn:   -0.0198    constr:    0.0000
     atom:   40    charge:    9.1218    magn:   -0.0141    constr:    0.0000
     atom:   41    charge:    9.1197    magn:   -0.0517    constr:    0.0000
     atom:   42    charge:    9.1208    magn:   -0.0389    constr:    0.0000
     atom:   43    charge:    9.1211    magn:   -0.0198    constr:    0.0000
     atom:   44    charge:    9.1208    magn:   -0.0389    constr:    0.0000
     atom:   45    charge:    9.1195    magn:    0.0087    constr:    0.0000
     atom:   46    charge:    9.1216    magn:   -0.0512    constr:    0.0000
     atom:   47    charge:    9.1218    magn:   -0.0141    constr:    0.0000
     atom:   48    charge:    9.1211    magn:   -0.0198    constr:    0.0000
     atom:   49    charge:    9.1218    magn:   -0.0141    constr:    0.0000
     atom:   50    charge:    9.1197    magn:   -0.0517    constr:    0.0000
     atom:   51    charge:    9.1208    magn:   -0.0389    constr:    0.0000
     atom:   52    charge:    9.1211    magn:   -0.0198    constr:    0.0000
     atom:   53    charge:    9.1208    magn:   -0.0389    constr:    0.0000
     atom:   54    charge:    9.1195    magn:    0.0087    constr:    0.0000

     total cpu time spent up to now is     4102.6 secs

     End of self-consistent calculation

 ------ SPIN UP ------------


          k = 0.0000 0.0000 0.0000 ( 31747 PWs)   bands (ev):

   -66.7396 -66.7396 -66.6990 -66.6481 -66.6481 -66.6474 -66.6473 -66.6355
   -66.5877 -62.4001 -62.4000 -62.3888 -62.3623 -62.3623 -62.3383 -62.3193
   -62.2915 -62.2915 -35.5008 -35.5008 -35.4899 -35.4898 -35.4699 -35.4559
   -35.4558 -35.4472 -35.4472 -35.4335 -35.4235 -35.4107 -35.4104 -35.4032
   -35.4031 -35.3860 -35.3778 -35.3767 -35.3745 -35.3745 -35.3670 -35.3609
   -35.3608 -35.3597 -35.3595 -35.3283 -35.3007 -31.2585 -31.2583 -31.2362
   -31.2259 -31.2224 -31.2206 -31.2069 -31.2065 -31.1931 -31.1930 -31.1919
   -31.1916 -31.1806 -31.1747 -31.1746 -31.1670 -31.1642 -31.1641 -31.1491
   -31.1379 -31.1311 -31.1311 -31.1206 -31.1166 -31.1165 -31.1117 -31.1115
     5.6143   7.1364   7.1617   7.1974   7.2161   7.3645   7.8526   7.8920
     7.9039   7.9542   8.0805   8.1075   8.1301   8.1722   8.1817   8.2573
     8.2597   8.2924   8.2931   8.5265   8.5551   8.5581   8.5718   8.5761
     8.6306   8.8645   8.8659   8.8709   8.8741   8.8889   8.8937   8.8939
     8.8952   8.9023   8.9108   8.9196   8.9339   8.9452   8.9473   8.9623
     8.9860   9.0838   9.1161   9.1263   9.1272   9.1374   9.1577   9.1619
     9.1925   9.1965   9.2153   9.2669   9.2802   9.2848   9.3076   9.3438
     9.3450   9.3635   9.3738   9.3785   9.3945   9.3972   9.4165   9.4361
     9.4453   9.4488   9.4532   9.4674   9.4703   9.4771   9.4864   9.5789
     9.5804   9.5891   9.5959   9.6045   9.6125   9.6542   9.6647   9.6718
     9.6720   9.6737   9.6792   9.7361   9.7716   9.7726   9.7730   9.8491
     9.8504   9.9236   9.9257   9.9467   9.9506   9.9535  10.0076  10.0358
    10.0824  10.1122  10.1397  10.1920  10.2842  10.2851  10.2957  10.2992
    10.3005  10.3059  10.3097  10.3203  10.3272  10.3376  10.3389  10.3396
    10.3420  10.3512  10.3580  10.3636  10.3638  10.3651  10.3774  10.3847
    10.3948  10.4986  10.5142  10.5199  10.5762  10.6098  10.6225  10.6705
    10.7017  10.7820  10.7874  10.8003  10.8079  10.8283  10.8358  10.8392
    10.8573  10.8721  10.8743  10.8768  10.8877  10.8926  10.8994  10.9008
    10.9075  10.9571  11.0314  11.0384  11.0711  11.0812  11.1618  11.2106
    11.2124  11.2208  11.2322  11.2323  11.2698  11.3270  11.3509  11.3644
    11.3682  11.3793  11.3917  11.3996  11.4004  11.4086  11.4307  11.4320
    11.4794  11.5074  11.5589  11.5747  11.5880  11.5933  11.5956  11.5994
    11.6187  11.6377  11.6653  11.7230  11.7340  11.7423  11.7510  11.7582
    11.8193  11.8320  11.8327  11.8673  11.8713  11.9203  11.9272  11.9481
    11.9517  12.0021  12.0758  12.0988  12.0993  12.1044  12.1056  12.1412
    12.1464  12.1486  12.1494  12.1542  12.1788  12.1839  12.1861  12.2186
    12.2553  12.2705  12.3168  12.3484  12.3619  12.3642  12.3956  12.4158
    12.4328  12.4347  12.4462  12.4592  12.4884  12.4950  12.5151  12.5306
    12.5420  12.5570  12.5769  12.6072  12.6169  12.6520  12.6593  12.6933
    12.7187  12.7383  12.7471  12.7578  12.8618  13.0814  13.1235  13.1299
    13.1328  13.1419  13.1583  13.1599  13.3848  13.4903  13.5865  13.8124
    13.8402  14.0750  14.1471  14.1928  14.2273  14.3846  14.4033  14.4261
    14.8270  14.8670  14.9684  15.0979  15.1218  15.1417  15.1825  15.2334
    15.2789  15.2949  15.3390  15.3395  15.4300  15.4495  15.4584  15.6245
    15.6321  15.6791  15.7312  15.7959  15.8498  15.8638  15.8684  15.9599
    15.9668  16.0248  16.1047  16.1070  16.1521  16.1558  16.2264  16.2425
    16.2699  16.2891  16.2909  16.3450  16.3479  16.3556  16.3822  16.4095
    16.4494  16.4900  16.4925  16.5906  16.6585  16.6711  16.8194  16.8498
    16.9440  17.0326  17.1851  17.1961  17.1995  17.2567  17.3275  17.4071
    17.4180  17.5423  17.8381  17.9013  17.9018  17.9414  17.9474  17.9826
    18.0727  18.3010  18.4347  19.0052  19.0419  19.0459  19.1315  19.2115

          k = 0.0000 0.0000-0.5734 ( 31692 PWs)   bands (ev):

   -66.7396 -66.7396 -66.6990 -66.6481 -66.6481 -66.6474 -66.6473 -66.6355
   -66.5877 -62.4001 -62.4000 -62.3888 -62.3623 -62.3623 -62.3383 -62.3193
   -62.2915 -62.2915 -35.5008 -35.5008 -35.4899 -35.4898 -35.4699 -35.4559
   -35.4558 -35.4472 -35.4472 -35.4335 -35.4235 -35.4107 -35.4104 -35.4032
   -35.4031 -35.3860 -35.3778 -35.3767 -35.3745 -35.3745 -35.3670 -35.3609
   -35.3608 -35.3597 -35.3595 -35.3283 -35.3007 -31.2585 -31.2583 -31.2362
   -31.2259 -31.2224 -31.2206 -31.2069 -31.2065 -31.1931 -31.1930 -31.1919
   -31.1916 -31.1806 -31.1747 -31.1746 -31.1670 -31.1642 -31.1641 -31.1491
   -31.1379 -31.1311 -31.1311 -31.1206 -31.1166 -31.1165 -31.1117 -31.1115
     6.1380   6.2331   7.5211   7.5260   7.5584   7.5645   7.5971   7.6137
     7.6336   7.6404   8.2897   8.3083   8.3315   8.3439   8.3561   8.3585
     8.3969   8.4186   8.4581   8.4682   8.4744   8.4761   8.4832   8.4950
     8.5127   8.5222   8.6830   8.7224   8.7284   8.8177   8.9274   8.9422
     8.9690   8.9749   8.9785   8.9843   9.0005   9.0011   9.0077   9.0221
     9.0384   9.0419   9.0463   9.0507   9.0927   9.1000   9.1922   9.1932
     9.2170   9.2200   9.2567   9.2596   9.2628   9.2722   9.2725   9.2816
     9.2838   9.2928   9.3033   9.3035   9.3040   9.3213   9.4131   9.4188
     9.4195   9.4195   9.4208   9.4342   9.4397   9.4469   9.4604   9.4715
     9.4724   9.5067   9.5147   9.5195   9.5518   9.5545   9.5878   9.7198
     9.7716   9.7858   9.7902   9.8004   9.8220   9.8278   9.8451   9.8482
     9.8761   9.8763   9.8813   9.8822   9.8846   9.8849   9.8861   9.8933
    10.0543  10.0552  10.0654  10.0665  10.1301  10.1321  10.1396  10.1577
    10.1583  10.1762  10.1959  10.2110  10.2119  10.2254  10.3594  10.3662
    10.3810  10.3832  10.3914  10.4137  10.4190  10.4276  10.4339  10.5521
    10.5820  10.5841  10.5942  10.6034  10.6069  10.6436  10.6476  10.6544
    10.6670  10.6919  10.7038  10.7359  10.7615  10.8342  10.8614  10.9125
    10.9203  10.9491  10.9683  10.9803  10.9836  11.0464  11.0511  11.0614
    11.0694  11.1060  11.1200  11.1297  11.1590  11.1972  11.2001  11.2165
    11.2276  11.2314  11.2442  11.2520  11.2550  11.2566  11.2591  11.2630
    11.2716  11.2756  11.2780  11.2894  11.2944  11.3032  11.3103  11.3125
    11.3222  11.3246  11.3285  11.3410  11.5002  11.5984  11.7043  11.7113
    11.7117  11.7139  11.7197  11.7226  11.7280  11.7396  11.7399  11.7453
    11.7457  11.7794  11.7796  11.8023  11.8202  11.8204  11.8387  11.8401
    11.9475  11.9904  12.0186  12.0297  12.0459  12.0496  12.0955  12.0986
    12.1479  12.1645  12.2438  12.2446  12.2458  12.2475  12.2791  12.3527
    12.4107  12.4289  12.4512  12.4536  12.4669  12.4878  12.4983  12.4986
    12.5091  12.5149  12.5269  12.5472  12.5704  12.5727  12.6122  12.6238
    12.6539  12.6698  12.6783  12.7574  12.8066  12.8704  12.8989  12.9108
    12.9388  12.9680  13.0230  13.0601  13.1373  13.1730  13.1766  13.1842
    13.1927  13.2215  13.3674  13.4060  13.5069  13.5159  13.6722  13.7319
    13.7750  13.9622  14.0472  14.0636  14.1215  14.1427  14.2585  14.7116
    14.7137  14.8857  14.9062  14.9102  14.9189  14.9867  14.9871  15.0342
    15.0473  15.1562  15.1662  15.2167  15.3395  15.4223  15.4810  15.5427
    15.6016  15.6381  15.6397  15.8812  15.9360  15.9798  15.9846  16.0523
    16.1087  16.1105  16.1146  16.1155  16.1195  16.1443  16.1564  16.1884
    16.2158  16.2353  16.2376  16.2531  16.2745  16.3005  16.3275  16.3723
    16.3861  16.4666  16.4830  16.5397  16.6207  16.6325  16.7214  16.7287
    16.8885  16.9168  17.3582  17.4105  17.4373  17.4784  17.4976  17.5531
    17.5588  17.5880  17.6430  17.6795  17.7453  17.7505  17.8161  17.8232
    17.8405  17.8550  18.0531  18.1162  18.1996  18.2727  18.2935  18.3401

          k = 0.0000-0.5000 0.0000 ( 31722 PWs)   bands (ev):

   -66.7396 -66.7396 -66.6990 -66.6481 -66.6481 -66.6474 -66.6473 -66.6355
   -66.5877 -62.4001 -62.4000 -62.3888 -62.3623 -62.3623 -62.3383 -62.3193
   -62.2915 -62.2915 -35.5008 -35.5008 -35.4899 -35.4898 -35.4699 -35.4559
   -35.4558 -35.4472 -35.4472 -35.4335 -35.4235 -35.4107 -35.4104 -35.4032
   -35.4031 -35.3860 -35.3778 -35.3767 -35.3745 -35.3745 -35.3670 -35.3609
   -35.3608 -35.3597 -35.3595 -35.3283 -35.3007 -31.2585 -31.2583 -31.2362
   -31.2259 -31.2224 -31.2206 -31.2069 -31.2065 -31.1931 -31.1930 -31.1918
   -31.1914 -31.1806 -31.1748 -31.1746 -31.1671 -31.1642 -31.1641 -31.1491
   -31.1379 -31.1311 -31.1311 -31.1206 -31.1166 -31.1165 -31.1117 -31.1115
     6.0308   6.0531   7.4201   7.4302   7.4621   7.4775   7.6698   7.6821
     8.0990   8.1209   8.1351   8.1650   8.1872   8.2331   8.2682   8.2774
     8.4063   8.4207   8.4545   8.4696   8.5919   8.6353   8.6460   8.6576
     8.6725   8.6811   8.6901   8.7014   8.7363   8.8187   8.8286   8.8342
     8.8412   8.8714   8.8809   8.8862   8.8971   8.9093   8.9114   8.9157
     8.9266   8.9293   8.9388   8.9516   9.0441   9.0544   9.1619   9.1730
     9.1803   9.1961   9.2136   9.2198   9.2515   9.2529   9.3086   9.3312
     9.3410   9.3734   9.3955   9.4161   9.4716   9.4842   9.4914   9.5013
     9.5314   9.5419   9.5480   9.5611   9.5716   9.5916   9.6041   9.6211
     9.6215   9.6263   9.6294   9.6328   9.6363   9.6374   9.6497   9.6571
     9.6620   9.6640   9.6761   9.6844   9.6924   9.7192   9.7292   9.7456
     9.7549   9.7645   9.7664   9.7788   9.8898   9.8956   9.9020  10.0020
    10.0144  10.0296  10.1529  10.1807  10.2087  10.2226  10.2485  10.2560
    10.2601  10.2668  10.2715  10.2739  10.2847  10.2858  10.3471  10.3520
    10.3744  10.3776  10.3858  10.3862  10.4329  10.4379  10.4576  10.4740
    10.4762  10.5137  10.5223  10.5276  10.5589  10.5611  10.5772  10.5869
    10.6375  10.6486  10.6751  10.6902  10.7030  10.7064  10.7389  10.7657
    10.8078  10.8200  10.8337  10.8465  10.8714  10.8861  10.9296  10.9406
    10.9443  11.0108  11.0169  11.0229  11.0280  11.1094  11.1595  11.1916
    11.2890  11.3161  11.3447  11.3511  11.3734  11.3913  11.3944  11.4060
    11.4212  11.4328  11.4638  11.4811  11.5235  11.5384  11.5518  11.5608
    11.5843  11.6052  11.6104  11.6285  11.6367  11.6752  11.6888  11.7263
    11.7551  11.7725  11.7928  11.8095  11.8143  11.8365  11.8380  11.8566
    11.8690  11.8700  11.8844  11.9324  11.9372  11.9493  11.9621  11.9690
    11.9693  11.9838  12.0149  12.0180  12.0475  12.1610  12.1659  12.1695
    12.1863  12.2071  12.2086  12.2183  12.2395  12.2670  12.2816  12.2826
    12.2934  12.3066  12.3322  12.3407  12.3615  12.4013  12.4059  12.4249
    12.4361  12.4683  12.4799  12.5113  12.5356  12.5383  12.5492  12.5566
    12.5651  12.5749  12.6179  12.6396  12.6524  12.6719  12.7465  12.7605
    12.8165  12.8966  13.0291  13.0396  13.0742  13.1132  13.1425  13.1490
    13.1563  13.1874  13.2091  13.2291  13.2599  13.2851  13.3324  13.3418
    13.3996  13.4415  13.4443  13.7289  13.7839  14.2486  14.4726  14.5115
    14.6516  14.7193  14.7452  14.7993  14.8048  14.8584  14.8729  14.9595
    15.1620  15.2107  15.2545  15.2759  15.3150  15.5470  15.5540  15.5930
    15.6646  15.6780  15.7237  15.7814  15.8691  15.9213  15.9842  15.9995
    16.0378  16.0684  16.0710  16.1132  16.1176  16.1185  16.1779  16.1950
    16.1975  16.2316  16.2395  16.2575  16.2793  16.3246  16.3293  16.3718
    16.3725  16.4708  16.5612  16.5874  16.7011  16.7625  17.0014  17.0928
    17.1503  17.1872  17.2202  17.3777  17.4222  17.5164  17.6292  17.6384
    17.7376  17.7475  17.7927  17.8035  17.8696  17.8801  17.9123  17.9325
    18.0709  18.0898  18.1399  18.2285  19.2655  19.2796  19.3003  19.3308

          k = 0.0000-0.5000-0.5734 ( 31696 PWs)   bands (ev):

   -66.7396 -66.7396 -66.6990 -66.6481 -66.6481 -66.6474 -66.6473 -66.6355
   -66.5877 -62.4001 -62.4000 -62.3888 -62.3623 -62.3623 -62.3383 -62.3193
   -62.2915 -62.2915 -35.5008 -35.5008 -35.4899 -35.4898 -35.4699 -35.4559
   -35.4558 -35.4472 -35.4472 -35.4335 -35.4235 -35.4107 -35.4104 -35.4032
   -35.4031 -35.3860 -35.3778 -35.3767 -35.3745 -35.3745 -35.3670 -35.3609
   -35.3608 -35.3597 -35.3595 -35.3283 -35.3007 -31.2585 -31.2583 -31.2362
   -31.2259 -31.2224 -31.2206 -31.2069 -31.2065 -31.1931 -31.1930 -31.1918
   -31.1914 -31.1806 -31.1748 -31.1746 -31.1671 -31.1642 -31.1641 -31.1491
   -31.1379 -31.1311 -31.1311 -31.1206 -31.1166 -31.1165 -31.1117 -31.1115
     6.5150   6.5632   6.6133   6.6438   7.8216   7.8334   7.8695   7.8830
     7.8941   7.9134   7.9424   7.9571   8.2631   8.2818   8.2976   8.3029
     8.5114   8.5242   8.5327   8.5344   8.6522   8.6589   8.6656   8.6812
     8.6870   8.6910   8.7037   8.7060   8.7271   8.7395   8.7454   8.7545
     8.7649   8.7798   8.7989   8.8202   8.9389   8.9823   9.0242   9.0295
     9.0387   9.0577   9.0582   9.0754   9.1791   9.2003   9.2049   9.2196
     9.2208   9.2255   9.2295   9.2344   9.2437   9.2472   9.2508   9.2620
     9.2654   9.2713   9.2853   9.2869   9.3114   9.3549   9.3757   9.3879
     9.4225   9.4289   9.4296   9.4539   9.4596   9.4612   9.4719   9.4816
     9.4850   9.4905   9.5057   9.5171   9.5311   9.5366   9.5572   9.5731
     9.5925   9.6232   9.7503   9.7622   9.7760   9.7848   9.7970   9.8247
     9.8333   9.8369   9.8381   9.8491   9.8554   9.8615   9.8873   9.8922
     9.9515   9.9798   9.9915  10.0137  10.0289  10.0446  10.0460  10.0599
    10.3621  10.3817  10.3868  10.3989  10.4088  10.4112  10.4197  10.4293
    10.4480  10.4590  10.4736  10.4783  10.4826  10.4929  10.5150  10.5312
    10.5386  10.5652  10.5755  10.5815  10.5828  10.5928  10.6145  10.6219
    10.6263  10.6352  10.6684  10.6694  10.6756  10.6809  10.7085  10.7214
    10.7522  10.8605  10.9042  10.9377  10.9747  11.0108  11.0225  11.0811
    11.1106  11.1213  11.1378  11.1642  11.1719  11.1837  11.1983  11.2097
    11.2124  11.2241  11.2716  11.2968  11.3311  11.3422  11.3665  11.3732
    11.3774  11.3777  11.3797  11.4346  11.4438  11.4731  11.4920  11.5094
    11.5477  11.5528  11.5748  11.5797  11.5821  11.5834  11.6002  11.6098
    11.6310  11.6360  11.7013  11.7209  11.7406  11.7696  11.7961  11.8046
    11.8831  11.9023  11.9076  11.9593  11.9696  11.9787  11.9851  11.9984
    12.0164  12.0245  12.0366  12.0369  12.0460  12.0585  12.0939  12.1150
    12.1254  12.1618  12.1792  12.2198  12.2506  12.2850  12.3030  12.3405
    12.3545  12.3652  12.4231  12.4368  12.4600  12.4636  12.4850  12.4893
    12.5060  12.5269  12.5301  12.5415  12.5494  12.5710  12.6102  12.6237
    12.6296  12.6321  12.6324  12.6613  12.7339  12.7566  12.7640  12.8623
    12.8911  12.8973  12.9654  13.0149  13.0175  13.0367  13.0446  13.0742
    13.1850  13.2116  13.2705  13.3547  13.6019  13.6306  13.6603  13.7089
    13.8054  13.9082  13.9530  13.9913  14.0682  14.2194  14.3003  14.4957
    14.5267  14.5348  14.5393  14.5810  14.5825  14.6921  14.8700  15.0753
    15.1293  15.2165  15.2237  15.3406  15.3913  15.4917  15.5484  15.5628
    15.6109  15.6618  15.7140  15.7341  15.8554  15.9784  15.9810  16.0590
    16.0764  16.1243  16.1321  16.1440  16.1478  16.1652  16.1960  16.2242
    16.2331  16.2677  16.2889  16.3051  16.3460  16.3831  16.4373  16.4870
    16.5034  16.5321  16.5605  16.5967  16.6094  16.6287  16.6493  16.6562
    16.7509  16.7678  16.7721  16.8730  16.8878  16.9193  16.9637  16.9787
    17.1104  17.1442  17.1589  17.3530  18.5987  18.6897  18.7521  18.7964
    18.7971  18.8147  18.8229  18.8258  18.8718  18.9223  18.9539  19.0070

          k =-0.5000-0.5000 0.0000 ( 31612 PWs)   bands (ev):

   -66.7396 -66.7396 -66.6990 -66.6481 -66.6481 -66.6474 -66.6473 -66.6355
   -66.5877 -62.4001 -62.4000 -62.3888 -62.3623 -62.3623 -62.3383 -62.3193
   -62.2915 -62.2915 -35.5008 -35.5008 -35.4899 -35.4898 -35.4699 -35.4559
   -35.4558 -35.4472 -35.4472 -35.4335 -35.4235 -35.4107 -35.4104 -35.4032
   -35.4031 -35.3860 -35.3778 -35.3767 -35.3745 -35.3745 -35.3670 -35.3609
   -35.3608 -35.3598 -35.3595 -35.3283 -35.3007 -31.2585 -31.2583 -31.2362
   -31.2259 -31.2225 -31.2206 -31.2069 -31.2065 -31.1931 -31.1930 -31.1916
   -31.1914 -31.1806 -31.1749 -31.1746 -31.1671 -31.1642 -31.1641 -31.1491
   -31.1379 -31.1311 -31.1311 -31.1206 -31.1166 -31.1165 -31.1117 -31.1115
     6.4017   6.4319   6.4370   6.4895   8.0046   8.0137   8.0155   8.0338
     8.0773   8.1354   8.2966   8.3066   8.3188   8.3242   8.3402   8.3416
     8.3480   8.3553   8.3578   8.3729   8.3778   8.4157   8.5579   8.5830
     8.6159   8.6558   8.6961   8.7079   8.7176   8.7296   8.7376   8.7376
     8.7555   8.8060   8.9105   8.9111   8.9544   8.9551   8.9751   8.9752
     8.9790   8.9927   9.0080   9.0127   9.0140   9.0414   9.0518   9.0528
     9.1020   9.1451   9.3053   9.3112   9.3136   9.3277   9.4000   9.4087
     9.4089   9.4116   9.4127   9.4183   9.4240   9.4300   9.4372   9.4484
     9.4520   9.4580   9.4703   9.4860   9.4911   9.5013   9.5165   9.5201
     9.5204   9.5409   9.5421   9.5480   9.5715   9.5742   9.5759   9.5869
     9.5949   9.6080   9.6961   9.6975   9.7670   9.8081   9.8092   9.8306
     9.8345   9.8372   9.8411   9.8472   9.8564   9.8853  10.0156  10.0576
    10.0706  10.0917  10.1061  10.1092  10.1107  10.1413  10.1549  10.1697
    10.1847  10.1918  10.1994  10.2233  10.2311  10.2331  10.2344  10.2356
    10.2418  10.2504  10.2550  10.2620  10.4323  10.4580  10.4691  10.4734
    10.4909  10.5024  10.5159  10.5580  10.5746  10.6228  10.6493  10.6583
    10.6601  10.6638  10.6691  10.6822  10.6946  10.6993  10.7078  10.7230
    10.7350  10.7549  10.7922  10.8102  10.8208  10.8592  10.8681  10.8770
    10.9070  10.9133  11.2016  11.2055  11.2098  11.2271  11.2911  11.3132
    11.3171  11.3214  11.3736  11.3789  11.3978  11.4066  11.5414  11.5743
    11.6055  11.6206  11.6356  11.6371  11.6474  11.6481  11.6522  11.6522
    11.6554  11.6562  11.6703  11.7188  11.7394  11.7414  11.7648  11.8653
    11.8767  11.8769  11.8793  11.8845  11.8903  11.9371  11.9779  12.0129
    12.0449  12.0495  12.0660  12.0709  12.0769  12.1000  12.1000  12.1086
    12.1091  12.1127  12.1250  12.1292  12.1305  12.1440  12.1515  12.1583
    12.1708  12.1708  12.1735  12.2083  12.2357  12.2474  12.2629  12.2640
    12.2657  12.2788  12.2827  12.2888  12.3069  12.3391  12.3439  12.3763
    12.3766  12.3775  12.4187  12.4429  12.4605  12.4931  12.5106  12.5156
    12.5300  12.5513  12.5520  12.6078  12.6546  12.6617  12.6747  12.6944
    12.7142  12.7511  12.7851  12.7968  12.8556  12.8769  12.8803  12.8988
    12.9503  12.9926  13.0219  13.0326  13.1422  13.5321  13.6379  13.6575
    13.6730  13.6757  13.9065  13.9078  13.9162  13.9307  14.1515  14.1844
    14.2149  14.3033  14.4307  14.4658  14.5036  14.6227  14.7982  14.8105
    15.0096  15.0143  15.1270  15.3152  15.3502  15.4737  15.6519  15.7231
    15.7957  15.8197  15.8283  15.8292  15.8698  15.8748  15.9064  15.9140
    15.9949  16.0131  16.0609  16.0680  16.1385  16.1459  16.1903  16.1906
    16.2052  16.2264  16.2556  16.2636  16.3365  16.3918  16.4764  16.5041
    16.5197  16.5460  16.5645  16.5965  16.6049  16.7052  16.7287  16.7870
    16.8976  16.9115  16.9133  17.0167  17.3797  17.3967  17.4520  18.0942
    18.1339  18.1843  18.1927  18.2249  18.2462  18.4346  18.4777  18.5686
    18.5861  18.5948  18.6366  18.6477  18.7145  18.8059  18.8093  18.8137

          k =-0.5000-0.5000-0.5734 ( 31672 PWs)   bands (ev):

   -66.7396 -66.7396 -66.6990 -66.6481 -66.6481 -66.6474 -66.6473 -66.6355
   -66.5877 -62.4001 -62.4000 -62.3888 -62.3623 -62.3623 -62.3383 -62.3193
   -62.2915 -62.2915 -35.5008 -35.5008 -35.4899 -35.4898 -35.4699 -35.4559
   -35.4558 -35.4472 -35.4472 -35.4335 -35.4235 -35.4107 -35.4104 -35.4032
   -35.4031 -35.3860 -35.3778 -35.3767 -35.3745 -35.3745 -35.3670 -35.3609
   -35.3608 -35.3598 -35.3595 -35.3283 -35.3007 -31.2585 -31.2583 -31.2362
   -31.2259 -31.2225 -31.2206 -31.2069 -31.2065 -31.1931 -31.1930 -31.1916
   -31.1914 -31.1806 -31.1749 -31.1746 -31.1671 -31.1642 -31.1641 -31.1491
   -31.1379 -31.1311 -31.1311 -31.1206 -31.1166 -31.1165 -31.1117 -31.1115
     6.8752   6.8946   6.9392   6.9647   6.9895   6.9917   7.0439   7.0528
     8.4457   8.4653   8.4715   8.4719   8.4776   8.4904   8.4912   8.4971
     8.4992   8.5029   8.5100   8.5156   8.5334   8.5439   8.5462   8.5586
     8.5716   8.5771   8.5837   8.6462   8.8765   8.8842   8.8923   8.8995
     8.9102   8.9268   8.9303   8.9425   9.0776   9.0894   9.1079   9.1210
     9.1287   9.1339   9.1423   9.1466   9.1511   9.1540   9.1545   9.1563
     9.1592   9.1631   9.1712   9.1715   9.1732   9.1749   9.1765   9.1794
     9.1832   9.1915   9.1954   9.1985   9.1989   9.2000   9.2034   9.2262
     9.2283   9.2321   9.2473   9.2563   9.2632   9.2666   9.2722   9.2943
     9.5409   9.5414   9.5469   9.5706   9.5903   9.6020   9.6287   9.6288
     9.6375   9.6562   9.6712   9.6984   9.7148   9.7403   9.7802   9.7914
     9.8082   9.8152   9.8525   9.8599   9.8687   9.8753   9.8968   9.9077
    10.1142  10.1184  10.1375  10.1561  10.1669  10.1744  10.1969  10.1972
    10.2676  10.3294  10.4213  10.4431  10.4490  10.4703  10.4770  10.4824
    10.4888  10.4890  10.4914  10.4996  10.5042  10.5084  10.5201  10.5202
    10.5374  10.5399  10.5416  10.5469  10.5534  10.5734  10.5964  10.6072
    10.6081  10.6319  10.6439  10.6451  10.6499  10.6549  10.6665  10.6686
    10.6700  10.6940  10.6945  10.7016  10.7186  10.7358  11.0293  11.0446
    11.0687  11.0803  11.0965  11.1169  11.1280  11.1289  11.3763  11.3787
    11.3850  11.3969  11.4290  11.4332  11.4463  11.4476  11.4518  11.4547
    11.4896  11.4961  11.4970  11.5146  11.5343  11.5608  11.5708  11.6267
    11.6268  11.6377  11.6429  11.6567  11.6638  11.6906  11.6934  11.7086
    11.7178  11.7265  11.7379  11.7595  11.7667  11.7765  11.7881  11.7895
    11.7903  11.8106  11.8290  11.8292  11.8356  11.9710  11.9867  12.0067
    12.0089  12.0539  12.0772  12.0939  12.1160  12.1197  12.1373  12.1532
    12.1549  12.1862  12.2014  12.2113  12.2440  12.2672  12.3273  12.3288
    12.3459  12.3667  12.3716  12.4118  12.4393  12.4402  12.4588  12.4607
    12.4716  12.4915  12.5056  12.5289  12.5560  12.5585  12.6135  12.6146
    12.6426  12.6814  12.6835  12.6905  12.7988  12.8069  12.9043  12.9087
    12.9321  12.9879  12.9891  13.0629  13.1078  13.1289  13.1528  13.1783
    13.2251  13.2335  13.2394  13.2471  13.3441  13.4023  13.4845  13.5355
    13.5569  13.6147  13.6151  13.8173  13.8658  13.9121  14.0744  14.1814
    14.2348  14.2735  14.2912  14.4431  14.8785  14.8789  14.9185  15.0174
    15.0667  15.1996  15.3675  15.4304  15.4380  15.4799  15.6505  15.7226
    15.8007  15.8119  15.8177  15.8231  15.8480  15.8626  15.8727  15.9209
    15.9444  15.9739  16.0524  16.0979  16.1133  16.1405  16.1473  16.1958
    16.2584  16.3005  16.3218  16.3737  16.4134  16.4175  16.4774  16.4885
    16.4950  16.5191  16.5389  16.6231  16.6793  16.6871  16.7564  16.7835
    16.7869  16.8214  16.8412  16.8943  16.9145  16.9202  16.9879  16.9884
    17.1059  17.1268  17.4203  17.6909  17.9552  18.0394  19.0279  19.0428
    19.0591  19.0784  19.1216  19.1587  19.1956  19.2054  19.2520  19.3189

 ------ SPIN DOWN ----------


          k = 0.0000 0.0000 0.0000 ( 31747 PWs)   bands (ev):

   -66.7395 -66.7394 -66.6990 -66.6482 -66.6482 -66.6471 -66.6471 -66.6353
   -66.5878 -62.4000 -62.4000 -62.3888 -62.3622 -62.3622 -62.3384 -62.3194
   -62.2915 -62.2915 -35.5010 -35.5009 -35.4895 -35.4894 -35.4698 -35.4557
   -35.4556 -35.4473 -35.4473 -35.4334 -35.4237 -35.4107 -35.4104 -35.4028
   -35.4027 -35.3858 -35.3777 -35.3766 -35.3748 -35.3747 -35.3672 -35.3609
   -35.3608 -35.3595 -35.3593 -35.3282 -35.3008 -31.2583 -31.2581 -31.2362
   -31.2258 -31.2224 -31.2205 -31.2068 -31.2064 -31.1932 -31.1931 -31.1919
   -31.1915 -31.1806 -31.1747 -31.1747 -31.1671 -31.1643 -31.1642 -31.1492
   -31.1380 -31.1311 -31.1311 -31.1208 -31.1165 -31.1164 -31.1117 -31.1116
     5.6143   7.1362   7.1619   7.1972   7.2163   7.3645   7.8526   7.8920
     7.9039   7.9542   8.0805   8.1076   8.1301   8.1722   8.1817   8.2575
     8.2598   8.2923   8.2930   8.5265   8.5551   8.5581   8.5718   8.5762
     8.6306   8.8646   8.8660   8.8710   8.8741   8.8888   8.8936   8.8938
     8.8952   8.9023   8.9108   8.9197   8.9339   8.9451   8.9473   8.9622
     8.9860   9.0838   9.1160   9.1264   9.1272   9.1375   9.1577   9.1618
     9.1925   9.1965   9.2154   9.2669   9.2803   9.2848   9.3076   9.3439
     9.3450   9.3635   9.3738   9.3784   9.3943   9.3972   9.4165   9.4361
     9.4453   9.4489   9.4533   9.4672   9.4703   9.4770   9.4865   9.5789
     9.5804   9.5891   9.5959   9.6046   9.6125   9.6542   9.6648   9.6717
     9.6720   9.6737   9.6792   9.7360   9.7716   9.7726   9.7730   9.8491
     9.8503   9.9235   9.9257   9.9467   9.9506   9.9535  10.0076  10.0358
    10.0824  10.1122  10.1397  10.1920  10.2842  10.2851  10.2957  10.2992
    10.3004  10.3059  10.3097  10.3203  10.3271  10.3375  10.3391  10.3395
    10.3420  10.3513  10.3579  10.3635  10.3639  10.3650  10.3774  10.3846
    10.3949  10.4987  10.5142  10.5199  10.5762  10.6098  10.6226  10.6705
    10.7017  10.7820  10.7874  10.8003  10.8078  10.8283  10.8357  10.8392
    10.8573  10.8720  10.8743  10.8768  10.8878  10.8926  10.8994  10.9008
    10.9076  10.9570  11.0313  11.0384  11.0712  11.0813  11.1618  11.2107
    11.2125  11.2208  11.2322  11.2322  11.2698  11.3269  11.3510  11.3645
    11.3682  11.3794  11.3916  11.3996  11.4004  11.4086  11.4307  11.4320
    11.4795  11.5074  11.5588  11.5747  11.5881  11.5933  11.5956  11.5994
    11.6188  11.6378  11.6654  11.7229  11.7341  11.7423  11.7510  11.7582
    11.8193  11.8320  11.8327  11.8673  11.8713  11.9203  11.9272  11.9481
    11.9517  12.0019  12.0759  12.0988  12.0993  12.1044  12.1056  12.1411
    12.1464  12.1487  12.1494  12.1541  12.1789  12.1839  12.1861  12.2187
    12.2554  12.2706  12.3169  12.3485  12.3619  12.3644  12.3957  12.4159
    12.4328  12.4347  12.4462  12.4591  12.4886  12.4950  12.5151  12.5307
    12.5420  12.5570  12.5769  12.6070  12.6169  12.6520  12.6594  12.6935
    12.7188  12.7384  12.7471  12.7577  12.8620  13.0817  13.1234  13.1299
    13.1329  13.1421  13.1583  13.1600  13.3848  13.4903  13.5866  13.8125
    13.8403  14.0751  14.1471  14.1929  14.2272  14.3847  14.4032  14.4262
    14.8269  14.8671  14.9684  15.0978  15.1217  15.1417  15.1825  15.2334
    15.2788  15.2949  15.3389  15.3397  15.4301  15.4496  15.4584  15.6244
    15.6320  15.6790  15.7312  15.7959  15.8496  15.8638  15.8684  15.9598
    15.9667  16.0248  16.1048  16.1070  16.1520  16.1557  16.2264  16.2424
    16.2699  16.2891  16.2910  16.3450  16.3479  16.3557  16.3822  16.4095
    16.4494  16.4899  16.4925  16.5906  16.6585  16.6711  16.8194  16.8497
    16.9441  17.0326  17.1851  17.1961  17.1994  17.2567  17.3275  17.4071
    17.4180  17.5423  17.8381  17.9012  17.9019  17.9415  17.9474  17.9826
    18.0728  18.3011  18.4347  19.0052  19.0420  19.0459  19.1315  19.2115

          k = 0.0000 0.0000-0.5734 ( 31692 PWs)   bands (ev):

   -66.7395 -66.7394 -66.6990 -66.6482 -66.6482 -66.6471 -66.6471 -66.6353
   -66.5878 -62.4000 -62.4000 -62.3888 -62.3622 -62.3622 -62.3384 -62.3194
   -62.2915 -62.2915 -35.5010 -35.5009 -35.4895 -35.4894 -35.4698 -35.4557
   -35.4556 -35.4473 -35.4473 -35.4334 -35.4237 -35.4107 -35.4104 -35.4028
   -35.4027 -35.3858 -35.3777 -35.3766 -35.3748 -35.3747 -35.3672 -35.3609
   -35.3608 -35.3595 -35.3593 -35.3282 -35.3008 -31.2583 -31.2581 -31.2362
   -31.2258 -31.2224 -31.2205 -31.2068 -31.2064 -31.1932 -31.1931 -31.1919
   -31.1915 -31.1806 -31.1747 -31.1747 -31.1671 -31.1643 -31.1642 -31.1492
   -31.1380 -31.1311 -31.1311 -31.1208 -31.1165 -31.1164 -31.1117 -31.1116
     6.1380   6.2331   7.5213   7.5259   7.5583   7.5643   7.5972   7.6139
     7.6337   7.6402   8.2897   8.3082   8.3315   8.3439   8.3561   8.3585
     8.3970   8.4187   8.4581   8.4682   8.4743   8.4762   8.4831   8.4951
     8.5127   8.5222   8.6830   8.7224   8.7284   8.8176   8.9274   8.9422
     8.9690   8.9748   8.9785   8.9844   9.0004   9.0011   9.0078   9.0221
     9.0383   9.0419   9.0463   9.0507   9.0927   9.1000   9.1921   9.1931
     9.2171   9.2201   9.2567   9.2595   9.2627   9.2722   9.2725   9.2815
     9.2838   9.2928   9.3033   9.3036   9.3040   9.3213   9.4131   9.4189
     9.4194   9.4195   9.4208   9.4342   9.4397   9.4469   9.4604   9.4715
     9.4724   9.5066   9.5146   9.5195   9.5518   9.5546   9.5877   9.7198
     9.7716   9.7857   9.7901   9.8004   9.8219   9.8277   9.8451   9.8482
     9.8760   9.8763   9.8812   9.8822   9.8847   9.8849   9.8860   9.8933
    10.0543  10.0552  10.0654  10.0665  10.1300  10.1320  10.1395  10.1579
    10.1583  10.1760  10.1958  10.2110  10.2118  10.2255  10.3595  10.3663
    10.3810  10.3832  10.3914  10.4137  10.4190  10.4276  10.4339  10.5521
    10.5821  10.5842  10.5943  10.6035  10.6069  10.6436  10.6476  10.6544
    10.6670  10.6919  10.7038  10.7359  10.7615  10.8342  10.8614  10.9126
    10.9204  10.9491  10.9684  10.9803  10.9836  11.0464  11.0511  11.0614
    11.0694  11.1059  11.1200  11.1297  11.1590  11.1972  11.2001  11.2166
    11.2277  11.2314  11.2442  11.2520  11.2550  11.2565  11.2591  11.2631
    11.2716  11.2755  11.2779  11.2894  11.2944  11.3032  11.3104  11.3125
    11.3222  11.3246  11.3285  11.3410  11.5002  11.5984  11.7044  11.7113
    11.7117  11.7140  11.7197  11.7225  11.7280  11.7396  11.7400  11.7453
    11.7458  11.7793  11.7795  11.8023  11.8203  11.8205  11.8387  11.8401
    11.9476  11.9903  12.0187  12.0297  12.0459  12.0496  12.0955  12.0986
    12.1481  12.1645  12.2438  12.2446  12.2459  12.2476  12.2791  12.3527
    12.4108  12.4289  12.4512  12.4537  12.4669  12.4877  12.4984  12.4987
    12.5090  12.5149  12.5270  12.5472  12.5702  12.5730  12.6123  12.6238
    12.6540  12.6697  12.6784  12.7573  12.8067  12.8704  12.8989  12.9109
    12.9388  12.9680  13.0232  13.0603  13.1373  13.1730  13.1766  13.1842
    13.1927  13.2216  13.3676  13.4061  13.5068  13.5160  13.6723  13.7320
    13.7750  13.9621  14.0473  14.0637  14.1215  14.1428  14.2585  14.7117
    14.7136  14.8856  14.9063  14.9102  14.9190  14.9868  14.9871  15.0341
    15.0473  15.1562  15.1661  15.2167  15.3394  15.4223  15.4810  15.5427
    15.6016  15.6381  15.6397  15.8811  15.9360  15.9798  15.9845  16.0523
    16.1088  16.1105  16.1146  16.1155  16.1196  16.1441  16.1563  16.1884
    16.2156  16.2352  16.2375  16.2531  16.2744  16.3004  16.3275  16.3723
    16.3862  16.4666  16.4830  16.5396  16.6207  16.6325  16.7212  16.7286
    16.8884  16.9168  17.3582  17.4105  17.4374  17.4784  17.4976  17.5531
    17.5588  17.5880  17.6430  17.6795  17.7453  17.7505  17.8160  17.8232
    17.8404  17.8551  18.0531  18.1162  18.1996  18.2727  18.2935  18.3402

          k = 0.0000-0.5000 0.0000 ( 31722 PWs)   bands (ev):

   -66.7395 -66.7394 -66.6990 -66.6482 -66.6482 -66.6471 -66.6471 -66.6353
   -66.5878 -62.4000 -62.4000 -62.3888 -62.3622 -62.3622 -62.3384 -62.3194
   -62.2915 -62.2915 -35.5010 -35.5009 -35.4895 -35.4894 -35.4698 -35.4557
   -35.4556 -35.4473 -35.4473 -35.4334 -35.4237 -35.4107 -35.4104 -35.4028
   -35.4027 -35.3858 -35.3776 -35.3766 -35.3748 -35.3747 -35.3672 -35.3609
   -35.3608 -35.3595 -35.3593 -35.3282 -35.3008 -31.2583 -31.2581 -31.2362
   -31.2258 -31.2224 -31.2205 -31.2067 -31.2064 -31.1932 -31.1931 -31.1918
   -31.1914 -31.1806 -31.1748 -31.1747 -31.1672 -31.1643 -31.1642 -31.1492
   -31.1380 -31.1311 -31.1311 -31.1208 -31.1165 -31.1164 -31.1117 -31.1116
     6.0308   6.0530   7.4200   7.4301   7.4622   7.4776   7.6698   7.6821
     8.0990   8.1209   8.1351   8.1650   8.1872   8.2331   8.2682   8.2773
     8.4063   8.4207   8.4545   8.4696   8.5919   8.6355   8.6460   8.6576
     8.6724   8.6811   8.6900   8.7013   8.7364   8.8186   8.8285   8.8342
     8.8412   8.8714   8.8809   8.8862   8.8972   8.9093   8.9113   8.9157
     8.9266   8.9293   8.9387   8.9516   9.0441   9.0544   9.1620   9.1730
     9.1803   9.1961   9.2136   9.2198   9.2514   9.2528   9.3086   9.3312
     9.3411   9.3733   9.3955   9.4161   9.4716   9.4842   9.4915   9.5013
     9.5314   9.5419   9.5480   9.5611   9.5716   9.5916   9.6041   9.6210
     9.6214   9.6263   9.6295   9.6328   9.6363   9.6373   9.6497   9.6570
     9.6620   9.6640   9.6761   9.6844   9.6924   9.7192   9.7292   9.7456
     9.7549   9.7645   9.7664   9.7788   9.8898   9.8956   9.9020  10.0020
    10.0144  10.0295  10.1529  10.1807  10.2086  10.2227  10.2485  10.2560
    10.2601  10.2667  10.2715  10.2738  10.2846  10.2859  10.3471  10.3520
    10.3744  10.3776  10.3858  10.3861  10.4329  10.4379  10.4576  10.4740
    10.4762  10.5137  10.5223  10.5277  10.5589  10.5611  10.5772  10.5869
    10.6375  10.6486  10.6750  10.6903  10.7030  10.7064  10.7389  10.7657
    10.8078  10.8201  10.8337  10.8465  10.8714  10.8861  10.9295  10.9406
    10.9444  11.0107  11.0170  11.0228  11.0280  11.1093  11.1595  11.1916
    11.2891  11.3161  11.3446  11.3511  11.3734  11.3913  11.3944  11.4061
    11.4212  11.4328  11.4638  11.4811  11.5235  11.5384  11.5519  11.5608
    11.5843  11.6052  11.6105  11.6286  11.6367  11.6752  11.6888  11.7263
    11.7551  11.7725  11.7928  11.8095  11.8143  11.8365  11.8380  11.8566
    11.8689  11.8700  11.8844  11.9325  11.9372  11.9493  11.9621  11.9690
    11.9692  11.9838  12.0149  12.0180  12.0475  12.1610  12.1659  12.1695
    12.1863  12.2072  12.2087  12.2184  12.2395  12.2670  12.2816  12.2826
    12.2934  12.3067  12.3323  12.3408  12.3615  12.4013  12.4059  12.4249
    12.4361  12.4683  12.4800  12.5114  12.5357  12.5383  12.5493  12.5566
    12.5651  12.5749  12.6178  12.6398  12.6525  12.6720  12.7464  12.7606
    12.8166  12.8966  13.0293  13.0397  13.0742  13.1133  13.1427  13.1491
    13.1563  13.1875  13.2092  13.2291  13.2599  13.2852  13.3325  13.3417
    13.3997  13.4416  13.4443  13.7289  13.7840  14.2486  14.4726  14.5116
    14.6516  14.7194  14.7452  14.7992  14.8048  14.8584  14.8729  14.9595
    15.1620  15.2107  15.2545  15.2758  15.3150  15.5470  15.5539  15.5930
    15.6646  15.6779  15.7237  15.7813  15.8691  15.9213  15.9841  15.9995
    16.0378  16.0684  16.0709  16.1131  16.1176  16.1185  16.1778  16.1950
    16.1976  16.2316  16.2395  16.2574  16.2792  16.3246  16.3292  16.3718
    16.3725  16.4708  16.5612  16.5874  16.7011  16.7624  17.0014  17.0927
    17.1503  17.1872  17.2202  17.3777  17.4222  17.5164  17.6292  17.6384
    17.7376  17.7475  17.7927  17.8035  17.8696  17.8801  17.9123  17.9325
    18.0708  18.0899  18.1399  18.2284  19.2656  19.2795  19.3003  19.3309

          k = 0.0000-0.5000-0.5734 ( 31696 PWs)   bands (ev):

   -66.7395 -66.7394 -66.6990 -66.6482 -66.6482 -66.6471 -66.6471 -66.6353
   -66.5878 -62.4000 -62.4000 -62.3888 -62.3622 -62.3622 -62.3384 -62.3194
   -62.2915 -62.2915 -35.5010 -35.5009 -35.4895 -35.4894 -35.4698 -35.4557
   -35.4556 -35.4473 -35.4473 -35.4334 -35.4237 -35.4107 -35.4104 -35.4028
   -35.4027 -35.3858 -35.3776 -35.3766 -35.3748 -35.3747 -35.3672 -35.3609
   -35.3608 -35.3595 -35.3593 -35.3282 -35.3008 -31.2583 -31.2581 -31.2362
   -31.2258 -31.2224 -31.2205 -31.2067 -31.2064 -31.1932 -31.1931 -31.1918
   -31.1914 -31.1806 -31.1748 -31.1747 -31.1672 -31.1643 -31.1642 -31.1492
   -31.1380 -31.1311 -31.1311 -31.1208 -31.1165 -31.1164 -31.1117 -31.1116
     6.5150   6.5632   6.6133   6.6438   7.8215   7.8334   7.8695   7.8829
     7.8941   7.9134   7.9425   7.9571   8.2631   8.2818   8.2976   8.3030
     8.5114   8.5243   8.5326   8.5345   8.6523   8.6589   8.6657   8.6812
     8.6870   8.6910   8.7037   8.7060   8.7270   8.7395   8.7455   8.7544
     8.7649   8.7798   8.7989   8.8202   8.9389   8.9823   9.0243   9.0294
     9.0387   9.0576   9.0581   9.0755   9.1791   9.2003   9.2049   9.2195
     9.2208   9.2256   9.2295   9.2344   9.2437   9.2472   9.2508   9.2621
     9.2653   9.2714   9.2852   9.2868   9.3114   9.3549   9.3756   9.3879
     9.4226   9.4288   9.4297   9.4539   9.4596   9.4612   9.4718   9.4817
     9.4851   9.4904   9.5057   9.5170   9.5311   9.5365   9.5572   9.5731
     9.5925   9.6232   9.7503   9.7622   9.7760   9.7848   9.7970   9.8247
     9.8333   9.8368   9.8380   9.8492   9.8555   9.8615   9.8873   9.8922
     9.9515   9.9798   9.9914  10.0137  10.0288  10.0447  10.0459  10.0598
    10.3621  10.3817  10.3868  10.3989  10.4088  10.4111  10.4197  10.4293
    10.4480  10.4590  10.4736  10.4783  10.4826  10.4929  10.5150  10.5312
    10.5385  10.5652  10.5755  10.5815  10.5829  10.5928  10.6145  10.6218
    10.6263  10.6351  10.6684  10.6695  10.6756  10.6809  10.7085  10.7214
    10.7522  10.8605  10.9041  10.9377  10.9747  11.0109  11.0224  11.0811
    11.1106  11.1212  11.1378  11.1642  11.1720  11.1837  11.1983  11.2097
    11.2124  11.2241  11.2717  11.2968  11.3312  11.3422  11.3665  11.3732
    11.3774  11.3777  11.3796  11.4347  11.4438  11.4732  11.4919  11.5094
    11.5477  11.5528  11.5748  11.5797  11.5821  11.5834  11.6002  11.6098
    11.6310  11.6360  11.7013  11.7209  11.7407  11.7696  11.7961  11.8047
    11.8832  11.9023  11.9077  11.9592  11.9696  11.9788  11.9851  11.9984
    12.0163  12.0244  12.0366  12.0369  12.0460  12.0585  12.0940  12.1150
    12.1254  12.1619  12.1792  12.2198  12.2508  12.2851  12.3030  12.3405
    12.3545  12.3652  12.4231  12.4368  12.4600  12.4637  12.4851  12.4893
    12.5060  12.5269  12.5302  12.5415  12.5494  12.5708  12.6101  12.6236
    12.6297  12.6323  12.6324  12.6612  12.7340  12.7566  12.7640  12.8624
    12.8911  12.8974  12.9655  13.0151  13.0176  13.0367  13.0447  13.0743
    13.1851  13.2116  13.2705  13.3548  13.6019  13.6306  13.6603  13.7089
    13.8055  13.9082  13.9530  13.9913  14.0682  14.2194  14.3004  14.4958
    14.5268  14.5348  14.5394  14.5809  14.5825  14.6921  14.8700  15.0753
    15.1293  15.2165  15.2238  15.3406  15.3913  15.4917  15.5484  15.5628
    15.6109  15.6618  15.7140  15.7341  15.8553  15.9783  15.9809  16.0589
    16.0764  16.1242  16.1321  16.1441  16.1478  16.1652  16.1960  16.2242
    16.2331  16.2677  16.2888  16.3050  16.3460  16.3831  16.4372  16.4871
    16.5034  16.5321  16.5604  16.5967  16.6094  16.6287  16.6493  16.6561
    16.7509  16.7677  16.7720  16.8730  16.8878  16.9194  16.9637  16.9787
    17.1104  17.1441  17.1590  17.3530  18.5988  18.6896  18.7522  18.7965
    18.7974  18.8147  18.8228  18.8257  18.8719  18.9223  18.9537  19.0069

          k =-0.5000-0.5000 0.0000 ( 31612 PWs)   bands (ev):

   -66.7395 -66.7394 -66.6990 -66.6482 -66.6482 -66.6471 -66.6471 -66.6353
   -66.5878 -62.4000 -62.4000 -62.3888 -62.3622 -62.3622 -62.3384 -62.3194
   -62.2915 -62.2915 -35.5010 -35.5009 -35.4895 -35.4894 -35.4698 -35.4557
   -35.4556 -35.4473 -35.4473 -35.4334 -35.4236 -35.4107 -35.4104 -35.4028
   -35.4027 -35.3858 -35.3776 -35.3766 -35.3748 -35.3747 -35.3672 -35.3609
   -35.3608 -35.3595 -35.3593 -35.3282 -35.3008 -31.2583 -31.2581 -31.2362
   -31.2259 -31.2224 -31.2205 -31.2067 -31.2064 -31.1932 -31.1931 -31.1916
   -31.1913 -31.1806 -31.1749 -31.1747 -31.1672 -31.1643 -31.1642 -31.1492
   -31.1380 -31.1311 -31.1311 -31.1208 -31.1165 -31.1164 -31.1117 -31.1116
     6.4017   6.4319   6.4370   6.4895   8.0047   8.0137   8.0155   8.0338
     8.0773   8.1353   8.2966   8.3067   8.3188   8.3242   8.3402   8.3415
     8.3480   8.3553   8.3578   8.3729   8.3778   8.4157   8.5580   8.5830
     8.6159   8.6558   8.6961   8.7080   8.7176   8.7296   8.7375   8.7376
     8.7555   8.8060   8.9105   8.9111   8.9545   8.9551   8.9751   8.9752
     8.9790   8.9928   9.0080   9.0126   9.0139   9.0414   9.0518   9.0529
     9.1021   9.1450   9.3054   9.3111   9.3136   9.3276   9.4000   9.4089
     9.4090   9.4117   9.4126   9.4184   9.4240   9.4300   9.4373   9.4484
     9.4520   9.4579   9.4703   9.4859   9.4911   9.5013   9.5164   9.5201
     9.5204   9.5409   9.5421   9.5479   9.5715   9.5741   9.5759   9.5868
     9.5948   9.6080   9.6961   9.6975   9.7670   9.8081   9.8092   9.8306
     9.8345   9.8372   9.8411   9.8472   9.8563   9.8852  10.0156  10.0576
    10.0706  10.0917  10.1061  10.1092  10.1107  10.1412  10.1549  10.1697
    10.1847  10.1917  10.1993  10.2232  10.2311  10.2331  10.2344  10.2356
    10.2419  10.2504  10.2550  10.2620  10.4323  10.4580  10.4691  10.4734
    10.4909  10.5023  10.5159  10.5579  10.5747  10.6227  10.6492  10.6583
    10.6601  10.6638  10.6691  10.6822  10.6946  10.6993  10.7078  10.7230
    10.7350  10.7549  10.7921  10.8103  10.8208  10.8591  10.8680  10.8771
    10.9070  10.9133  11.2015  11.2055  11.2097  11.2271  11.2911  11.3132
    11.3172  11.3215  11.3736  11.3789  11.3978  11.4065  11.5414  11.5743
    11.6055  11.6206  11.6356  11.6372  11.6474  11.6481  11.6522  11.6523
    11.6554  11.6561  11.6703  11.7188  11.7393  11.7414  11.7648  11.8653
    11.8767  11.8769  11.8793  11.8845  11.8903  11.9372  11.9779  12.0130
    12.0450  12.0496  12.0660  12.0709  12.0769  12.1000  12.1001  12.1086
    12.1091  12.1127  12.1250  12.1292  12.1305  12.1439  12.1515  12.1583
    12.1708  12.1708  12.1736  12.2083  12.2358  12.2474  12.2629  12.2640
    12.2659  12.2788  12.2827  12.2888  12.3068  12.3391  12.3440  12.3763
    12.3766  12.3775  12.4187  12.4430  12.4605  12.4932  12.5106  12.5158
    12.5301  12.5514  12.5521  12.6077  12.6548  12.6617  12.6747  12.6944
    12.7143  12.7512  12.7851  12.7968  12.8558  12.8770  12.8804  12.8989
    12.9504  12.9927  13.0219  13.0326  13.1422  13.5321  13.6380  13.6576
    13.6729  13.6758  13.9064  13.9078  13.9163  13.9307  14.1515  14.1844
    14.2149  14.3034  14.4307  14.4659  14.5036  14.6228  14.7982  14.8105
    15.0097  15.0142  15.1270  15.3152  15.3502  15.4737  15.6518  15.7230
    15.7957  15.8197  15.8283  15.8291  15.8698  15.8747  15.9064  15.9137
    15.9948  16.0130  16.0609  16.0680  16.1385  16.1459  16.1903  16.1906
    16.2051  16.2264  16.2556  16.2636  16.3366  16.3918  16.4764  16.5041
    16.5197  16.5461  16.5645  16.5965  16.6049  16.7052  16.7287  16.7869
    16.8976  16.9115  16.9133  17.0166  17.3797  17.3966  17.4519  18.0942
    18.1339  18.1843  18.1927  18.2249  18.2463  18.4347  18.4777  18.5686
    18.5862  18.5948  18.6366  18.6477  18.7145  18.8059  18.8092  18.8137

          k =-0.5000-0.5000-0.5734 ( 31672 PWs)   bands (ev):

   -66.7395 -66.7394 -66.6990 -66.6482 -66.6482 -66.6471 -66.6471 -66.6353
   -66.5878 -62.4000 -62.4000 -62.3888 -62.3622 -62.3622 -62.3384 -62.3194
   -62.2915 -62.2915 -35.5010 -35.5009 -35.4895 -35.4894 -35.4698 -35.4557
   -35.4556 -35.4473 -35.4473 -35.4334 -35.4236 -35.4107 -35.4104 -35.4028
   -35.4027 -35.3858 -35.3776 -35.3766 -35.3748 -35.3747 -35.3672 -35.3609
   -35.3608 -35.3595 -35.3593 -35.3282 -35.3008 -31.2583 -31.2581 -31.2362
   -31.2259 -31.2224 -31.2205 -31.2067 -31.2064 -31.1932 -31.1931 -31.1916
   -31.1913 -31.1806 -31.1749 -31.1747 -31.1672 -31.1643 -31.1642 -31.1492
   -31.1380 -31.1311 -31.1311 -31.1208 -31.1165 -31.1164 -31.1117 -31.1116
     6.8752   6.8947   6.9392   6.9647   6.9895   6.9916   7.0439   7.0528
     8.4458   8.4653   8.4716   8.4719   8.4776   8.4905   8.4912   8.4970
     8.4992   8.5029   8.5100   8.5156   8.5333   8.5439   8.5462   8.5585
     8.5715   8.5771   8.5838   8.6461   8.8765   8.8842   8.8923   8.8995
     8.9102   8.9269   8.9302   8.9425   9.0776   9.0894   9.1079   9.1210
     9.1287   9.1339   9.1422   9.1466   9.1510   9.1540   9.1545   9.1563
     9.1592   9.1631   9.1712   9.1715   9.1732   9.1749   9.1764   9.1794
     9.1832   9.1915   9.1954   9.1985   9.1990   9.2000   9.2034   9.2261
     9.2282   9.2320   9.2474   9.2563   9.2632   9.2666   9.2722   9.2942
     9.5409   9.5414   9.5469   9.5705   9.5903   9.6020   9.6287   9.6288
     9.6374   9.6562   9.6712   9.6984   9.7147   9.7403   9.7802   9.7914
     9.8083   9.8152   9.8525   9.8599   9.8686   9.8753   9.8967   9.9077
    10.1142  10.1184  10.1375  10.1561  10.1669  10.1744  10.1969  10.1973
    10.2676  10.3294  10.4214  10.4431  10.4490  10.4703  10.4770  10.4825
    10.4888  10.4890  10.4914  10.4996  10.5042  10.5083  10.5201  10.5201
    10.5374  10.5398  10.5416  10.5468  10.5534  10.5734  10.5964  10.6072
    10.6083  10.6318  10.6440  10.6450  10.6499  10.6548  10.6665  10.6686
    10.6700  10.6940  10.6944  10.7016  10.7185  10.7358  11.0293  11.0446
    11.0687  11.0802  11.0965  11.1169  11.1280  11.1289  11.3762  11.3788
    11.3851  11.3970  11.4290  11.4331  11.4464  11.4476  11.4518  11.4547
    11.4896  11.4961  11.4970  11.5146  11.5342  11.5607  11.5708  11.6267
    11.6269  11.6377  11.6429  11.6567  11.6639  11.6906  11.6934  11.7086
    11.7178  11.7265  11.7378  11.7595  11.7667  11.7765  11.7881  11.7895
    11.7903  11.8107  11.8290  11.8292  11.8356  11.9710  11.9868  12.0068
    12.0091  12.0539  12.0773  12.0940  12.1161  12.1196  12.1373  12.1532
    12.1549  12.1863  12.2014  12.2113  12.2440  12.2672  12.3274  12.3288
    12.3458  12.3667  12.3715  12.4117  12.4393  12.4402  12.4588  12.4608
    12.4715  12.4916  12.5056  12.5290  12.5558  12.5586  12.6134  12.6147
    12.6427  12.6815  12.6836  12.6906  12.7989  12.8070  12.9044  12.9087
    12.9322  12.9879  12.9892  13.0630  13.1078  13.1289  13.1528  13.1783
    13.2252  13.2336  13.2394  13.2471  13.3441  13.4023  13.4846  13.5356
    13.5569  13.6148  13.6151  13.8173  13.8659  13.9121  14.0744  14.1815
    14.2348  14.2735  14.2913  14.4431  14.8785  14.8790  14.9186  15.0173
    15.0667  15.1997  15.3675  15.4304  15.4382  15.4800  15.6506  15.7226
    15.8007  15.8119  15.8176  15.8231  15.8480  15.8626  15.8726  15.9208
    15.9443  15.9738  16.0524  16.0978  16.1134  16.1406  16.1473  16.1956
    16.2584  16.3005  16.3216  16.3738  16.4135  16.4175  16.4774  16.4885
    16.4950  16.5190  16.5389  16.6230  16.6792  16.6871  16.7565  16.7834
    16.7869  16.8214  16.8411  16.8942  16.9145  16.9202  16.9879  16.9883
    17.1059  17.1268  17.4203  17.6909  17.9551  18.0394  19.0279  19.0428
    19.0591  19.0785  19.1216  19.1586  19.1955  19.2055  19.2520  19.3189

     the Fermi energy is    14.8360 ev

!    total energy              =  -33062.59775682 Ry
     Harris-Foulkes estimate   =  -33062.59775467 Ry
     estimated scf accuracy    <       0.00000064 Ry

     total all-electron energy =  -1410574.688131 Ry

     The total energy is the sum of the following terms:

     one-electron contribution =   -1645.89098467 Ry
     hartree contribution      =    1490.12858686 Ry
     xc contribution           =   -1658.77437757 Ry
     ewald contribution        =   -4919.25534656 Ry
     one-center paw contrib.   =  -26328.80563488 Ry

     total magnetization       =     0.00 Bohr mag/cell
     absolute magnetization    =    78.73 Bohr mag/cell

     convergence has been achieved in  38 iterations

     Writing output data file mnau2.save
 
     init_run     :     40.81s CPU     41.41s WALL (       1 calls)
     electrons    :   3987.14s CPU   4058.34s WALL (       1 calls)

     Called by init_run:
     wfcinit      :     34.86s CPU     35.23s WALL (       1 calls)
     potinit      :      2.48s CPU      2.53s WALL (       1 calls)

     Called by electrons:
     c_bands      :   3482.12s CPU   3538.25s WALL (      38 calls)
     sum_band     :    404.78s CPU    413.78s WALL (      38 calls)
     v_of_rho     :      9.95s CPU     10.27s WALL (      39 calls)
     newd         :     31.65s CPU     35.97s WALL (      39 calls)
     PAW_pot      :     57.82s CPU     58.60s WALL (      39 calls)
     mix_rho      :      2.20s CPU      2.30s WALL (      38 calls)

     Called by c_bands:
     init_us_2    :     14.11s CPU     14.19s WALL (     924 calls)
     cegterg      :   3392.59s CPU   3447.75s WALL (     456 calls)

     Called by sum_band:
     sum_band:bec :      2.32s CPU      2.33s WALL (     456 calls)
     addusdens    :     57.38s CPU     62.40s WALL (      38 calls)

     Called by *egterg:
     h_psi        :   1249.10s CPU   1261.64s WALL (    1618 calls)
     s_psi        :    305.39s CPU    305.52s WALL (    1618 calls)
     g_psi        :      4.63s CPU      4.65s WALL (    1150 calls)
     cdiaghg      :   1114.01s CPU   1114.48s WALL (    1606 calls)

     Called by h_psi:
     h_psi:pot    :   1237.64s CPU   1250.12s WALL (    1618 calls)
     h_psi:calbec :    304.13s CPU    306.62s WALL (    1618 calls)
     vloc_psi     :    627.99s CPU    637.81s WALL (    1618 calls)
     add_vuspsi   :    305.49s CPU    305.67s WALL (    1618 calls)

     General routines
     calbec       :    440.94s CPU    444.58s WALL (    2074 calls)
     fft          :      8.75s CPU      9.40s WALL (    1199 calls)
     ffts         :      0.21s CPU      0.22s WALL (     154 calls)
     fftw         :    598.97s CPU    608.22s WALL (  983602 calls)
     interpolate  :      1.51s CPU      1.60s WALL (     154 calls)
 
     Parallel routines
     fft_scatt_xy :     75.66s CPU     76.62s WALL (  984955 calls)
     fft_scatt_yz :    153.37s CPU    157.43s WALL (  984955 calls)
 
     PWSCF        :     1h 7m CPU        1h 8m WALL

 
   This run was terminated on:   4:40:58   4Mar2019            

=------------------------------------------------------------------------------=
   JOB DONE.
=------------------------------------------------------------------------------=
