
     Program PWSCF v.6.2 (svn rev. 14038) starts on  8Mar2019 at  4:53:53 

     This program is part of the open-source Quantum ESPRESSO suite
     for quantum simulation of materials; please cite
         "P. Giannozzi et al., J. Phys.:Condens. Matter 21 395502 (2009);
         "P. Giannozzi et al., J. Phys.:Condens. Matter 29 465901 (2017);
          URL http://www.quantum-espresso.org", 
     in publications or presentations arising from this work. More details at
     http://www.quantum-espresso.org/quote

     Parallel version (MPI), running on    16 processors

     MPI processes distributed on     1 nodes
     R & G space division:  proc/nbgrp/npool/nimage =      16
     Waiting for input...
     Reading input from standard input

     Current dimensions of program PWSCF are:
     Max number of different atomic species (ntypx) = 10
     Max number of k-points (npk) =  40000
     Max angular momentum in pseudopotentials (lmaxx) =  3
               file Mn.pbe-spn-kjpaw_psl.0.3.1.UPF: wavefunction(s)  3P 3D renormalized
               file Mn.pbe-spn-kjpaw_psl.0.3.1.UPF: wavefunction(s)  3P 3D renormalized
               file Au.pbe-dn-kjpaw_psl.0.1.UPF: wavefunction(s)  6S 6P 5D renormalized

     Subspace diagonalization in iterative solution of the eigenvalue problem:
     a serial algorithm will be used

 
     Parallelization info
     --------------------
     sticks:   dense  smooth     PW     G-vecs:    dense   smooth      PW
     Min         736     331     90                52486    15847    2256
     Max         737     332     91                52489    15850    2259
     Sum       11785    5297   1449               839803   253559   36125
 


     bravais-lattice index     =            0
     lattice parameter (alat)  =      19.2459  a.u.
     unit-cell volume          =    6216.1497 (a.u.)^3
     number of atoms/cell      =           54
     number of atomic types    =            3
     number of electrons       =       666.00
     number of Kohn-Sham states=          400
     kinetic-energy cutoff     =      45.0000  Ry
     charge density cutoff     =     400.0000  Ry
     convergence threshold     =      1.0E-06
     mixing beta               =       0.1000
     number of iterations used =            8  plain     mixing
     Exchange-correlation      = SLA PW PBX PBC ( 1  4  3  4 0 0)

     celldm(1)=  19.245946  celldm(2)=   0.000000  celldm(3)=   0.000000
     celldm(4)=   0.000000  celldm(5)=   0.000000  celldm(6)=   0.000000

     crystal axes: (cart. coord. in units of alat)
               a(1) = (   1.000000   0.000000   0.000000 )  
               a(2) = (   0.000000   1.000000   0.000000 )  
               a(3) = (   0.000000   0.000000   0.871974 )  

     reciprocal axes: (cart. coord. in units 2 pi/alat)
               b(1) = (  1.000000  0.000000  0.000000 )  
               b(2) = (  0.000000  1.000000  0.000000 )  
               b(3) = (  0.000000  0.000000  1.146823 )  


     PseudoPot. # 1 for Mn read from file:
     ./pseudo/Mn.pbe-spn-kjpaw_psl.0.3.1.UPF
     MD5 check sum: 7eef95dd2aae66803482eea66ebeebf1
     Pseudo is Projector augmented-wave + core cor, Zval = 15.0
     Generated using "atomic" code by A. Dal Corso v.5.0.99 svn rev. 10869
     Shape of augmentation charge: PSQ
     Using radial grid of 1187 points,  6 beta functions with: 
                l(1) =   0
                l(2) =   0
                l(3) =   1
                l(4) =   1
                l(5) =   2
                l(6) =   2
     Q(r) pseudized with 0 coefficients 


     PseudoPot. # 2 for Mn read from file:
     ./pseudo/Mn.pbe-spn-kjpaw_psl.0.3.1.UPF
     MD5 check sum: 7eef95dd2aae66803482eea66ebeebf1
     Pseudo is Projector augmented-wave + core cor, Zval = 15.0
     Generated using "atomic" code by A. Dal Corso v.5.0.99 svn rev. 10869
     Shape of augmentation charge: PSQ
     Using radial grid of 1187 points,  6 beta functions with: 
                l(1) =   0
                l(2) =   0
                l(3) =   1
                l(4) =   1
                l(5) =   2
                l(6) =   2
     Q(r) pseudized with 0 coefficients 


     PseudoPot. # 3 for Au read from file:
     ./pseudo/Au.pbe-dn-kjpaw_psl.0.1.UPF
     MD5 check sum: 5c9b92683623e7ae2ab3f8e525febab6
     Pseudo is Projector augmented-wave + core cor, Zval = 11.0
     Generated using "atomic" code by A. Dal Corso v.5.0.2 svn rev. 9415
     Shape of augmentation charge: PSQ
     Using radial grid of 1279 points,  6 beta functions with: 
                l(1) =   0
                l(2) =   0
                l(3) =   1
                l(4) =   1
                l(5) =   2
                l(6) =   2
     Q(r) pseudized with 0 coefficients 


     atomic species   valence    mass     pseudopotential
        Mn1           15.00    54.93800     Mn( 1.00)
        Mn2           15.00    54.93800     Mn( 1.00)
        Au            11.00   196.96600     Au( 1.00)

     Starting magnetic structure 
     atomic species   magnetization
        Mn1          0.800
        Mn2         -0.800
        Au           0.000

      2 Sym. Ops. (no inversion) found



   Cartesian axes

     site n.     atom                  positions (alat units)
         1           Mn1 tau(   1) = (   0.0000000   0.0000000   0.0000000  )
         2           Mn1 tau(   2) = (   0.0000000   0.3333300   0.0000000  )
         3           Mn2 tau(   3) = (   0.0000000   0.6666700   0.0000000  )
         4           Mn2 tau(   4) = (   0.3333300   0.0000000   0.0000000  )
         5           Mn2 tau(   5) = (   0.3333300   0.3333300   0.0000000  )
         6           Mn1 tau(   6) = (   0.3333300   0.6666700   0.0000000  )
         7           Mn1 tau(   7) = (   0.6666700   0.0000000   0.0000000  )
         8           Mn2 tau(   8) = (   0.6666700   0.3333300   0.0000000  )
         9           Mn1 tau(   9) = (   0.6666700   0.6666700   0.0000000  )
        10           Mn2 tau(  10) = (   0.1666700   0.1666700   0.4359871  )
        11           Mn2 tau(  11) = (   0.1666700   0.5000000   0.4359871  )
        12           Mn1 tau(  12) = (   0.1666700   0.8333300   0.4359871  )
        13           Mn1 tau(  13) = (   0.5000000   0.1666700   0.4359871  )
        14           Mn1 tau(  14) = (   0.5000000   0.5000000   0.4359871  )
        15           Mn2 tau(  15) = (   0.5000000   0.8333300   0.4359871  )
        16           Mn2 tau(  16) = (   0.8333300   0.1666700   0.4359871  )
        17           Mn1 tau(  17) = (   0.8333300   0.5000000   0.4359871  )
        18           Mn2 tau(  18) = (   0.8333300   0.8333300   0.4359871  )
        19           Au  tau(  19) = (   0.1666700   0.1666700   0.7327374  )
        20           Au  tau(  20) = (   0.1666700   0.5000000   0.7327374  )
        21           Au  tau(  21) = (   0.1666700   0.8333300   0.7327374  )
        22           Au  tau(  22) = (   0.5000000   0.1666700   0.7327374  )
        23           Au  tau(  23) = (   0.5000000   0.5000000   0.7327374  )
        24           Au  tau(  24) = (   0.5000000   0.8333300   0.7327374  )
        25           Au  tau(  25) = (   0.8333300   0.1666700   0.7327374  )
        26           Au  tau(  26) = (   0.8333300   0.5000000   0.7327374  )
        27           Au  tau(  27) = (   0.8333300   0.8333300   0.7327374  )
        28           Au  tau(  28) = (   0.1666700   0.1666700   0.1392369  )
        29           Au  tau(  29) = (   0.1666700   0.5000000   0.1392369  )
        30           Au  tau(  30) = (   0.1666700   0.8333300   0.1392369  )
        31           Au  tau(  31) = (   0.5000000   0.1666700   0.1392369  )
        32           Au  tau(  32) = (   0.5000000   0.5000000   0.1392369  )
        33           Au  tau(  33) = (   0.5000000   0.8333300   0.1392369  )
        34           Au  tau(  34) = (   0.8333300   0.1666700   0.1392369  )
        35           Au  tau(  35) = (   0.8333300   0.5000000   0.1392369  )
        36           Au  tau(  36) = (   0.8333300   0.8333300   0.1392369  )
        37           Au  tau(  37) = (   0.0000000   0.0000000   0.2967503  )
        38           Au  tau(  38) = (   0.0000000   0.3333300   0.2967503  )
        39           Au  tau(  39) = (   0.0000000   0.6666700   0.2967503  )
        40           Au  tau(  40) = (   0.3333300   0.0000000   0.2967503  )
        41           Au  tau(  41) = (   0.3333300   0.3333300   0.2967503  )
        42           Au  tau(  42) = (   0.3333300   0.6666700   0.2967503  )
        43           Au  tau(  43) = (   0.6666700   0.0000000   0.2967503  )
        44           Au  tau(  44) = (   0.6666700   0.3333300   0.2967503  )
        45           Au  tau(  45) = (   0.6666700   0.6666700   0.2967503  )
        46           Au  tau(  46) = (   0.0000000   0.0000000   0.5752240  )
        47           Au  tau(  47) = (   0.0000000   0.3333300   0.5752240  )
        48           Au  tau(  48) = (   0.0000000   0.6666700   0.5752240  )
        49           Au  tau(  49) = (   0.3333300   0.0000000   0.5752240  )
        50           Au  tau(  50) = (   0.3333300   0.3333300   0.5752240  )
        51           Au  tau(  51) = (   0.3333300   0.6666700   0.5752240  )
        52           Au  tau(  52) = (   0.6666700   0.0000000   0.5752240  )
        53           Au  tau(  53) = (   0.6666700   0.3333300   0.5752240  )
        54           Au  tau(  54) = (   0.6666700   0.6666700   0.5752240  )

     number of k points=     8 (tetrahedron method)
                       cart. coord. in units 2pi/alat
        k(    1) = (   0.0000000   0.0000000   0.0000000), wk =   0.1250000
        k(    2) = (   0.0000000   0.0000000  -0.5734114), wk =   0.1250000
        k(    3) = (   0.0000000  -0.5000000   0.0000000), wk =   0.1250000
        k(    4) = (   0.0000000  -0.5000000  -0.5734114), wk =   0.1250000
        k(    5) = (  -0.5000000  -0.5000000   0.0000000), wk =   0.1250000
        k(    6) = (  -0.5000000  -0.5000000  -0.5734114), wk =   0.1250000
        k(    7) = (  -0.5000000   0.0000000   0.0000000), wk =   0.1250000
        k(    8) = (  -0.5000000   0.0000000   0.5734114), wk =   0.1250000

     Dense  grid:   839803 G-vectors     FFT dimensions: ( 125, 125, 108)

     Smooth grid:   253559 G-vectors     FFT dimensions: (  90,  90,  72)

     Estimated max dynamical RAM per process >     570.13 MB

     Estimated total dynamical RAM >       8.91 GB
     Generating pointlists ...
     new r_m :   0.1129 (alat units)  2.1733 (a.u.) for type    1
     new r_m :   0.1129 (alat units)  2.1733 (a.u.) for type    2
     new r_m :   0.1129 (alat units)  2.1733 (a.u.) for type    3

     Check: negative/imaginary core charge=   -0.000006    0.000000

     Initial potential from superposition of free atoms

     starting charge  665.98709, renormalised to  666.00000
     Starting wfc are  504 randomized atomic wfcs
     Checking if some PAW data can be deallocated... 

     total cpu time spent up to now is       56.1 secs

     Self-consistent Calculation

     iteration #  1     ecut=    45.00 Ry     beta= 0.10
     Davidson diagonalization with overlap
     ethr =  1.00E-02,  avg # of iterations =  3.4

     total cpu time spent up to now is      220.6 secs

     total energy              =  -33047.22961744 Ry
     Harris-Foulkes estimate   =  -33044.09138051 Ry
     estimated scf accuracy    <      27.00952277 Ry

     total magnetization       =    -0.00 Bohr mag/cell
     absolute magnetization    =    91.85 Bohr mag/cell

     iteration #  2     ecut=    45.00 Ry     beta= 0.10
     Davidson diagonalization with overlap
     ethr =  4.06E-03,  avg # of iterations =  1.0

     total cpu time spent up to now is      329.3 secs

     total energy              =  -33058.54698770 Ry
     Harris-Foulkes estimate   =  -33047.40654934 Ry
     estimated scf accuracy    <      21.34789891 Ry

     total magnetization       =    -0.00 Bohr mag/cell
     absolute magnetization    =    91.47 Bohr mag/cell

     iteration #  3     ecut=    45.00 Ry     beta= 0.10
     Davidson diagonalization with overlap
     ethr =  3.21E-03,  avg # of iterations =  2.1

     total cpu time spent up to now is      463.7 secs

     total energy              =  -33066.72161668 Ry
     Harris-Foulkes estimate   =  -33061.33878403 Ry
     estimated scf accuracy    <       8.88727460 Ry

     total magnetization       =     0.01 Bohr mag/cell
     absolute magnetization    =    85.43 Bohr mag/cell

     iteration #  4     ecut=    45.00 Ry     beta= 0.10
     Davidson diagonalization with overlap
     ethr =  1.33E-03,  avg # of iterations =  4.1

     total cpu time spent up to now is      683.1 secs

     total energy              =  -33058.53036597 Ry
     Harris-Foulkes estimate   =  -33069.98786899 Ry
     estimated scf accuracy    <      61.26168720 Ry

     total magnetization       =     0.22 Bohr mag/cell
     absolute magnetization    =    69.35 Bohr mag/cell

     iteration #  5     ecut=    45.00 Ry     beta= 0.10
     Davidson diagonalization with overlap
     ethr =  1.33E-03,  avg # of iterations =  4.6

     total cpu time spent up to now is      921.1 secs

     total energy              =  -33061.83656203 Ry
     Harris-Foulkes estimate   =  -33062.71881067 Ry
     estimated scf accuracy    <       4.74633209 Ry

     total magnetization       =    -0.02 Bohr mag/cell
     absolute magnetization    =    83.14 Bohr mag/cell

     iteration #  6     ecut=    45.00 Ry     beta= 0.10
     Davidson diagonalization with overlap
     ethr =  7.13E-04,  avg # of iterations =  3.8

     total cpu time spent up to now is     1079.0 secs

     total energy              =  -33062.53936897 Ry
     Harris-Foulkes estimate   =  -33062.52435281 Ry
     estimated scf accuracy    <       0.34335309 Ry

     total magnetization       =    -0.14 Bohr mag/cell
     absolute magnetization    =    79.72 Bohr mag/cell

     iteration #  7     ecut=    45.00 Ry     beta= 0.10
     Davidson diagonalization with overlap
     ethr =  5.16E-05,  avg # of iterations =  4.2

     total cpu time spent up to now is     1269.1 secs

     total energy              =  -33062.58441224 Ry
     Harris-Foulkes estimate   =  -33062.59349983 Ry
     estimated scf accuracy    <       0.06862905 Ry

     total magnetization       =    -0.01 Bohr mag/cell
     absolute magnetization    =    79.01 Bohr mag/cell

     iteration #  8     ecut=    45.00 Ry     beta= 0.10
     Davidson diagonalization with overlap
     ethr =  1.03E-05,  avg # of iterations =  4.6

     total cpu time spent up to now is     1441.6 secs

     total energy              =  -33062.59813352 Ry
     Harris-Foulkes estimate   =  -33062.59765384 Ry
     estimated scf accuracy    <       0.10083812 Ry

     total magnetization       =     0.01 Bohr mag/cell
     absolute magnetization    =    77.97 Bohr mag/cell

     iteration #  9     ecut=    45.00 Ry     beta= 0.10
     Davidson diagonalization with overlap
     ethr =  1.03E-05,  avg # of iterations =  1.0

     total cpu time spent up to now is     1551.1 secs

     total energy              =  -33062.58598952 Ry
     Harris-Foulkes estimate   =  -33062.60004639 Ry
     estimated scf accuracy    <       0.09575745 Ry

     total magnetization       =    -0.02 Bohr mag/cell
     absolute magnetization    =    77.83 Bohr mag/cell

     iteration # 10     ecut=    45.00 Ry     beta= 0.10
     Davidson diagonalization with overlap
     ethr =  1.03E-05,  avg # of iterations =  2.0

     total cpu time spent up to now is     1675.8 secs

     total energy              =  -33062.59397753 Ry
     Harris-Foulkes estimate   =  -33062.59349783 Ry
     estimated scf accuracy    <       0.01211344 Ry

     total magnetization       =    -0.01 Bohr mag/cell
     absolute magnetization    =    77.90 Bohr mag/cell

     iteration # 11     ecut=    45.00 Ry     beta= 0.10
     Davidson diagonalization with overlap
     ethr =  1.82E-06,  avg # of iterations =  4.9

     total cpu time spent up to now is     1861.7 secs

     total energy              =  -33062.59906330 Ry
     Harris-Foulkes estimate   =  -33062.59789464 Ry
     estimated scf accuracy    <       0.00440210 Ry

     total magnetization       =    -0.01 Bohr mag/cell
     absolute magnetization    =    78.52 Bohr mag/cell

     iteration # 12     ecut=    45.00 Ry     beta= 0.10
     Davidson diagonalization with overlap
     ethr =  6.61E-07,  avg # of iterations =  2.2

     total cpu time spent up to now is     1987.5 secs

     total energy              =  -33062.59961907 Ry
     Harris-Foulkes estimate   =  -33062.59900948 Ry
     estimated scf accuracy    <       0.00272449 Ry

     total magnetization       =    -0.01 Bohr mag/cell
     absolute magnetization    =    78.38 Bohr mag/cell

     iteration # 13     ecut=    45.00 Ry     beta= 0.10
     Davidson diagonalization with overlap
     ethr =  4.09E-07,  avg # of iterations =  1.2

     total cpu time spent up to now is     2099.6 secs

     total energy              =  -33062.60037224 Ry
     Harris-Foulkes estimate   =  -33062.59972432 Ry
     estimated scf accuracy    <       0.00127106 Ry

     total magnetization       =    -0.00 Bohr mag/cell
     absolute magnetization    =    78.35 Bohr mag/cell

     iteration # 14     ecut=    45.00 Ry     beta= 0.10
     Davidson diagonalization with overlap
     ethr =  1.91E-07,  avg # of iterations =  3.0

     total cpu time spent up to now is     2252.5 secs

     total energy              =  -33062.60048866 Ry
     Harris-Foulkes estimate   =  -33062.60033905 Ry
     estimated scf accuracy    <       0.00016052 Ry

     total magnetization       =    -0.00 Bohr mag/cell
     absolute magnetization    =    78.20 Bohr mag/cell

     iteration # 15     ecut=    45.00 Ry     beta= 0.10
     Davidson diagonalization with overlap
     ethr =  2.41E-08,  avg # of iterations =  3.8

     total cpu time spent up to now is     2404.2 secs

     total energy              =  -33062.60059685 Ry
     Harris-Foulkes estimate   =  -33062.60045977 Ry
     estimated scf accuracy    <       0.00009581 Ry

     total magnetization       =    -0.00 Bohr mag/cell
     absolute magnetization    =    78.18 Bohr mag/cell

     iteration # 16     ecut=    45.00 Ry     beta= 0.10
     Davidson diagonalization with overlap
     ethr =  1.44E-08,  avg # of iterations =  2.0

     total cpu time spent up to now is     2528.6 secs

     total energy              =  -33062.60067493 Ry
     Harris-Foulkes estimate   =  -33062.60058720 Ry
     estimated scf accuracy    <       0.00005075 Ry

     total magnetization       =    -0.00 Bohr mag/cell
     absolute magnetization    =    78.17 Bohr mag/cell

     iteration # 17     ecut=    45.00 Ry     beta= 0.10
     Davidson diagonalization with overlap
     ethr =  7.62E-09,  avg # of iterations =  2.1

     total cpu time spent up to now is     2657.2 secs

     total energy              =  -33062.60069374 Ry
     Harris-Foulkes estimate   =  -33062.60065116 Ry
     estimated scf accuracy    <       0.00002502 Ry

     total magnetization       =    -0.00 Bohr mag/cell
     absolute magnetization    =    78.15 Bohr mag/cell

     iteration # 18     ecut=    45.00 Ry     beta= 0.10
     Davidson diagonalization with overlap
     ethr =  3.76E-09,  avg # of iterations =  2.7

     total cpu time spent up to now is     2801.1 secs

     total energy              =  -33062.60069925 Ry
     Harris-Foulkes estimate   =  -33062.60067474 Ry
     estimated scf accuracy    <       0.00000839 Ry

     total magnetization       =    -0.00 Bohr mag/cell
     absolute magnetization    =    78.14 Bohr mag/cell

     iteration # 19     ecut=    45.00 Ry     beta= 0.10
     Davidson diagonalization with overlap
     ethr =  1.26E-09,  avg # of iterations =  3.0

     total cpu time spent up to now is     2987.4 secs

     total energy              =  -33062.60067953 Ry
     Harris-Foulkes estimate   =  -33062.60067176 Ry
     estimated scf accuracy    <       0.00000249 Ry

     total magnetization       =    -0.00 Bohr mag/cell
     absolute magnetization    =    78.12 Bohr mag/cell

     iteration # 20     ecut=    45.00 Ry     beta= 0.10
     Davidson diagonalization with overlap
     ethr =  3.73E-10,  avg # of iterations =  2.1

     total cpu time spent up to now is     3117.0 secs

     total energy              =  -33062.60067703 Ry
     Harris-Foulkes estimate   =  -33062.60067103 Ry
     estimated scf accuracy    <       0.00000144 Ry

     total magnetization       =    -0.00 Bohr mag/cell
     absolute magnetization    =    78.12 Bohr mag/cell

     iteration # 21     ecut=    45.00 Ry     beta= 0.10
     Davidson diagonalization with overlap
     ethr =  2.16E-10,  avg # of iterations =  2.1
 
     Magnetic moment per site:
     atom:    1    charge:   13.5738    magn:    4.0161    constr:    0.0000
     atom:    2    charge:   13.5772    magn:    4.0018    constr:    0.0000
     atom:    3    charge:   13.5779    magn:   -4.0271    constr:    0.0000
     atom:    4    charge:   13.5800    magn:   -4.0004    constr:    0.0000
     atom:    5    charge:   13.5776    magn:   -3.9913    constr:    0.0000
     atom:    6    charge:   13.5806    magn:    3.9820    constr:    0.0000
     atom:    7    charge:   13.5797    magn:    3.9839    constr:    0.0000
     atom:    8    charge:   13.5765    magn:   -4.0248    constr:    0.0000
     atom:    9    charge:   13.5826    magn:    3.9517    constr:    0.0000
     atom:   10    charge:   13.5827    magn:   -3.9517    constr:    0.0000
     atom:   11    charge:   13.5805    magn:   -3.9821    constr:    0.0000
     atom:   12    charge:   13.5779    magn:    4.0271    constr:    0.0000
     atom:   13    charge:   13.5765    magn:    4.0249    constr:    0.0000
     atom:   14    charge:   13.5774    magn:    3.9914    constr:    0.0000
     atom:   15    charge:   13.5771    magn:   -4.0018    constr:    0.0000
     atom:   16    charge:   13.5797    magn:   -3.9839    constr:    0.0000
     atom:   17    charge:   13.5799    magn:    4.0004    constr:    0.0000
     atom:   18    charge:   13.5738    magn:   -4.0160    constr:    0.0000
     atom:   19    charge:    9.1209    magn:   -0.0102    constr:    0.0000
     atom:   20    charge:    9.1206    magn:   -0.0074    constr:    0.0000
     atom:   21    charge:    9.1207    magn:    0.0047    constr:    0.0000
     atom:   22    charge:    9.1218    magn:   -0.0182    constr:    0.0000
     atom:   23    charge:    9.1211    magn:    0.0124    constr:    0.0000
     atom:   24    charge:    9.1207    magn:    0.0180    constr:    0.0000
     atom:   25    charge:    9.1225    magn:    0.0163    constr:    0.0000
     atom:   26    charge:    9.1214    magn:    0.0090    constr:    0.0000
     atom:   27    charge:    9.1211    magn:    0.0165    constr:    0.0000
     atom:   28    charge:    9.1209    magn:   -0.0102    constr:    0.0000
     atom:   29    charge:    9.1206    magn:   -0.0074    constr:    0.0000
     atom:   30    charge:    9.1207    magn:    0.0047    constr:    0.0000
     atom:   31    charge:    9.1218    magn:   -0.0182    constr:    0.0000
     atom:   32    charge:    9.1211    magn:    0.0124    constr:    0.0000
     atom:   33    charge:    9.1207    magn:    0.0180    constr:    0.0000
     atom:   34    charge:    9.1225    magn:    0.0163    constr:    0.0000
     atom:   35    charge:    9.1214    magn:    0.0090    constr:    0.0000
     atom:   36    charge:    9.1211    magn:    0.0165    constr:    0.0000
     atom:   37    charge:    9.1212    magn:   -0.0165    constr:    0.0000
     atom:   38    charge:    9.1208    magn:   -0.0180    constr:    0.0000
     atom:   39    charge:    9.1207    magn:   -0.0047    constr:    0.0000
     atom:   40    charge:    9.1215    magn:   -0.0090    constr:    0.0000
     atom:   41    charge:    9.1210    magn:   -0.0124    constr:    0.0000
     atom:   42    charge:    9.1205    magn:    0.0074    constr:    0.0000
     atom:   43    charge:    9.1225    magn:   -0.0163    constr:    0.0000
     atom:   44    charge:    9.1218    magn:    0.0182    constr:    0.0000
     atom:   45    charge:    9.1208    magn:    0.0102    constr:    0.0000
     atom:   46    charge:    9.1212    magn:   -0.0165    constr:    0.0000
     atom:   47    charge:    9.1208    magn:   -0.0180    constr:    0.0000
     atom:   48    charge:    9.1207    magn:   -0.0047    constr:    0.0000
     atom:   49    charge:    9.1215    magn:   -0.0090    constr:    0.0000
     atom:   50    charge:    9.1210    magn:   -0.0124    constr:    0.0000
     atom:   51    charge:    9.1205    magn:    0.0074    constr:    0.0000
     atom:   52    charge:    9.1225    magn:   -0.0163    constr:    0.0000
     atom:   53    charge:    9.1218    magn:    0.0182    constr:    0.0000
     atom:   54    charge:    9.1208    magn:    0.0102    constr:    0.0000

     total cpu time spent up to now is     3268.3 secs

     End of self-consistent calculation

 ------ SPIN UP ------------


          k = 0.0000 0.0000 0.0000 ( 31747 PWs)   bands (ev):

   -66.7032 -66.6821 -66.6720 -66.6476 -66.6471 -66.6434 -66.6322 -66.6094
   -66.5857 -62.3800 -62.3670 -62.3569 -62.3520 -62.3500 -62.3301 -62.3272
   -62.3245 -62.3151 -35.4651 -35.4575 -35.4420 -35.4342 -35.4330 -35.4201
   -35.4195 -35.4174 -35.4137 -35.4034 -35.4004 -35.3954 -35.3933 -35.3903
   -35.3897 -35.3886 -35.3866 -35.3771 -35.3768 -35.3753 -35.3663 -35.3594
   -35.3531 -35.3362 -35.3333 -35.3268 -35.3217 -31.2198 -31.2177 -31.2094
   -31.1946 -31.1941 -31.1928 -31.1908 -31.1887 -31.1809 -31.1798 -31.1771
   -31.1765 -31.1741 -31.1729 -31.1708 -31.1648 -31.1641 -31.1629 -31.1608
   -31.1571 -31.1469 -31.1458 -31.1374 -31.1343 -31.1327 -31.1322 -31.1311
     5.6158   7.1573   7.1692   7.1731   7.2097   7.3625   7.8716   7.8749
     7.9141   7.9411   8.0967   8.1232   8.1244   8.1559   8.1894   8.2562
     8.2664   8.2882   8.2953   8.5310   8.5530   8.5585   8.5752   8.5790
     8.6096   8.8586   8.8647   8.8730   8.8777   8.8827   8.8851   8.8951
     8.9045   8.9098   8.9267   8.9314   8.9416   8.9505   8.9610   8.9658
     8.9725   9.0818   9.1197   9.1263   9.1286   9.1296   9.1534   9.1626
     9.1809   9.1919   9.2013   9.2770   9.2895   9.2940   9.3032   9.3554
     9.3634   9.3636   9.3690   9.3927   9.3931   9.3966   9.4045   9.4168
     9.4372   9.4388   9.4471   9.4483   9.4561   9.4680   9.4716   9.5781
     9.5854   9.5863   9.5876   9.6156   9.6240   9.6627   9.6642   9.6676
     9.6700   9.6724   9.6734   9.7482   9.7680   9.7702   9.7794   9.8491
     9.8500   9.9139   9.9182   9.9383   9.9397   9.9489   9.9827  10.0096
    10.1108  10.1338  10.1651  10.1760  10.2879  10.2913  10.2934  10.3041
    10.3051  10.3119  10.3150  10.3181  10.3208  10.3262  10.3373  10.3460
    10.3465  10.3466  10.3508  10.3524  10.3601  10.3638  10.3820  10.3856
    10.3886  10.4995  10.5172  10.5846  10.6131  10.6171  10.6602  10.7047
    10.7536  10.7547  10.7846  10.7855  10.7873  10.8050  10.8315  10.8446
    10.8469  10.8510  10.8676  10.8705  10.8748  10.8792  10.8859  10.8946
    10.8994  10.9072  11.0334  11.0401  11.0699  11.0827  11.2039  11.2089
    11.2212  11.2272  11.2278  11.2692  11.2946  11.3290  11.3513  11.3634
    11.3680  11.3743  11.3838  11.3995  11.4029  11.4133  11.4165  11.4222
    11.4301  11.5291  11.5551  11.5736  11.5897  11.5901  11.5932  11.5966
    11.6203  11.6393  11.6518  11.6565  11.7276  11.7366  11.7379  11.7461
    11.8196  11.8243  11.8405  11.8514  11.8688  11.9104  11.9347  11.9498
    11.9502  11.9635  12.0964  12.0994  12.1001  12.1015  12.1032  12.1419
    12.1439  12.1452  12.1461  12.1499  12.1616  12.1781  12.1936  12.2178
    12.2217  12.2630  12.2977  12.3420  12.3701  12.3769  12.4328  12.4417
    12.4453  12.4610  12.4792  12.4943  12.4983  12.5226  12.5404  12.5545
    12.5587  12.5698  12.5965  12.6004  12.6301  12.6629  12.6801  12.7144
    12.7150  12.7694  12.8372  12.9659  12.9761  13.0045  13.0106  13.0646
    13.0833  13.1011  13.1483  13.1603  13.5831  13.7183  13.7325  13.7813
    13.8450  13.9668  14.0424  14.2351  14.2548  14.3189  14.3595  14.3805
    14.8575  14.8787  14.9413  14.9949  15.0737  15.1039  15.1253  15.2051
    15.2605  15.2910  15.3620  15.3709  15.4618  15.5030  15.5557  15.5729
    15.5778  15.6662  15.7460  15.8361  15.9266  15.9820  16.0094  16.0366
    16.0720  16.1009  16.1027  16.1241  16.1427  16.1557  16.1705  16.1818
    16.1870  16.2050  16.2333  16.2356  16.2719  16.3420  16.3965  16.4420
    16.4931  16.5761  16.5975  16.6250  16.6481  16.7306  16.8337  16.8708
    16.9268  17.0342  17.1761  17.2048  17.2116  17.2363  17.2719  17.3039
    17.4242  17.4662  17.8356  17.9015  17.9311  17.9451  17.9609  18.1269
    18.1941  18.2465  18.4116  19.0047  19.0365  19.0520  19.0958  19.1988

          k = 0.0000 0.0000-0.5734 ( 31692 PWs)   bands (ev):

   -66.7032 -66.6821 -66.6720 -66.6476 -66.6471 -66.6434 -66.6322 -66.6094
   -66.5857 -62.3800 -62.3670 -62.3569 -62.3520 -62.3500 -62.3301 -62.3272
   -62.3245 -62.3151 -35.4651 -35.4575 -35.4420 -35.4342 -35.4330 -35.4201
   -35.4195 -35.4174 -35.4137 -35.4034 -35.4004 -35.3954 -35.3933 -35.3903
   -35.3897 -35.3886 -35.3866 -35.3771 -35.3768 -35.3753 -35.3663 -35.3594
   -35.3531 -35.3362 -35.3333 -35.3268 -35.3217 -31.2198 -31.2177 -31.2094
   -31.1946 -31.1941 -31.1928 -31.1908 -31.1887 -31.1809 -31.1798 -31.1771
   -31.1765 -31.1741 -31.1729 -31.1708 -31.1648 -31.1641 -31.1629 -31.1608
   -31.1571 -31.1469 -31.1458 -31.1374 -31.1343 -31.1327 -31.1322 -31.1311
     6.1761   6.1942   7.5312   7.5427   7.5580   7.5625   7.5962   7.6070
     7.6207   7.6391   8.3120   8.3205   8.3358   8.3421   8.3589   8.3723
     8.3824   8.3933   8.4571   8.4607   8.4708   8.4710   8.4961   8.4964
     8.5144   8.5149   8.6999   8.7066   8.7640   8.7812   8.9464   8.9561
     8.9624   8.9687   8.9735   8.9918   8.9988   9.0064   9.0080   9.0219
     9.0273   9.0379   9.0427   9.0506   9.0759   9.0903   9.2223   9.2237
     9.2330   9.2385   9.2513   9.2546   9.2639   9.2691   9.2724   9.2810
     9.2840   9.2860   9.2888   9.2896   9.2918   9.2948   9.4088   9.4107
     9.4235   9.4275   9.4518   9.4549   9.4553   9.4631   9.4657   9.4778
     9.4843   9.4890   9.4930   9.5075   9.5119   9.5194   9.6424   9.6664
     9.7777   9.7808   9.7923   9.7949   9.8173   9.8226   9.8316   9.8462
     9.8705   9.8712   9.8818   9.8821   9.8848   9.8857   9.8922   9.8931
    10.0567  10.0587  10.0604  10.0617  10.1431  10.1517  10.1604  10.1673
    10.1724  10.1748  10.1763  10.1901  10.1988  10.2109  10.3516  10.3545
    10.3861  10.3884  10.3968  10.4051  10.4331  10.4373  10.4846  10.5073
    10.5764  10.5861  10.6055  10.6113  10.6218  10.6389  10.6431  10.6554
    10.6861  10.6960  10.7385  10.7494  10.7733  10.8078  10.8091  10.8626
    10.9109  10.9145  10.9821  11.0126  11.0265  11.0396  11.0398  11.0642
    11.0660  11.0845  11.1118  11.1402  11.1669  11.1708  11.1931  11.2192
    11.2483  11.2500  11.2556  11.2582  11.2593  11.2597  11.2655  11.2670
    11.2719  11.2795  11.2846  11.2865  11.2902  11.2909  11.3049  11.3086
    11.3165  11.3188  11.3195  11.3254  11.5306  11.5389  11.7102  11.7124
    11.7140  11.7187  11.7200  11.7235  11.7321  11.7328  11.7438  11.7527
    11.7635  11.7685  11.7698  11.7851  11.7872  11.8523  11.8948  11.9284
    11.9536  11.9641  11.9993  12.0148  12.0199  12.0549  12.0864  12.0969
    12.1539  12.1793  12.2010  12.2413  12.2542  12.2886  12.2988  12.4080
    12.4107  12.4420  12.4507  12.4647  12.4718  12.4940  12.4942  12.5011
    12.5243  12.5248  12.5393  12.5470  12.5618  12.5741  12.6139  12.6679
    12.6785  12.7066  12.7177  12.7641  12.7728  12.8022  12.8184  12.8551
    12.8839  12.8975  12.9495  13.0963  13.1895  13.2072  13.2203  13.2471
    13.3180  13.3571  13.4221  13.4945  13.5126  13.5393  13.7314  13.7415
    13.7559  13.9760  14.0091  14.0133  14.1180  14.1486  14.2693  14.5580
    14.6963  14.8098  14.9042  14.9390  14.9759  15.0016  15.1323  15.1667
    15.1814  15.2045  15.2462  15.2713  15.2800  15.3207  15.3511  15.4310
    15.6104  15.6477  15.6904  15.7481  15.8264  15.9908  15.9984  16.0655
    16.0689  16.0899  16.1289  16.1347  16.1460  16.1615  16.1707  16.2035
    16.2298  16.2373  16.2388  16.2586  16.2749  16.2859  16.2958  16.3072
    16.4345  16.4564  16.6149  16.6481  16.6607  16.7098  16.7478  16.7781
    16.8295  16.8573  17.2288  17.2936  17.3425  17.3474  17.5529  17.5780
    17.6380  17.6412  17.6683  17.6797  17.7249  17.7508  17.8458  17.8754
    17.9458  17.9691  18.0991  18.1468  18.1979  18.2504  18.3118  18.3545

          k = 0.0000-0.5000 0.0000 ( 31722 PWs)   bands (ev):

   -66.7032 -66.6821 -66.6720 -66.6476 -66.6471 -66.6434 -66.6322 -66.6094
   -66.5857 -62.3800 -62.3670 -62.3569 -62.3520 -62.3500 -62.3301 -62.3272
   -62.3245 -62.3151 -35.4651 -35.4575 -35.4420 -35.4342 -35.4330 -35.4201
   -35.4195 -35.4174 -35.4137 -35.4034 -35.4004 -35.3954 -35.3933 -35.3903
   -35.3897 -35.3886 -35.3866 -35.3771 -35.3768 -35.3753 -35.3663 -35.3594
   -35.3531 -35.3362 -35.3333 -35.3268 -35.3217 -31.2198 -31.2177 -31.2093
   -31.1946 -31.1941 -31.1928 -31.1908 -31.1887 -31.1809 -31.1798 -31.1771
   -31.1765 -31.1741 -31.1729 -31.1708 -31.1648 -31.1641 -31.1629 -31.1608
   -31.1571 -31.1469 -31.1458 -31.1374 -31.1343 -31.1327 -31.1322 -31.1311
     6.0378   6.0490   7.3984   7.4333   7.4537   7.5055   7.6705   7.6780
     8.1097   8.1136   8.1254   8.1647   8.2251   8.2330   8.2501   8.2755
     8.3908   8.4283   8.4439   8.4883   8.6195   8.6362   8.6506   8.6560
     8.6664   8.6674   8.6760   8.7078   8.7816   8.7949   8.8213   8.8398
     8.8469   8.8544   8.8706   8.8785   8.9055   8.9099   8.9181   8.9233
     8.9248   8.9290   8.9372   8.9578   9.0436   9.0483   9.1479   9.1678
     9.1745   9.2110   9.2181   9.2277   9.2369   9.2408   9.3067   9.3240
     9.3504   9.3776   9.3864   9.4225   9.4709   9.4738   9.4908   9.5208
     9.5296   9.5470   9.5628   9.5697   9.5959   9.5997   9.6076   9.6119
     9.6123   9.6264   9.6307   9.6333   9.6346   9.6354   9.6371   9.6506
     9.6659   9.6750   9.6791   9.6881   9.6911   9.7102   9.7113   9.7152
     9.7294   9.7417   9.7575   9.7876   9.8937   9.8982   9.9331   9.9553
    10.0116  10.0309  10.1618  10.1898  10.2084  10.2159  10.2470  10.2565
    10.2619  10.2741  10.2781  10.2781  10.2806  10.2844  10.3249  10.3582
    10.3657  10.3792  10.3811  10.3950  10.4137  10.4506  10.4636  10.4859
    10.5006  10.5256  10.5265  10.5363  10.5528  10.5795  10.5924  10.5949
    10.6040  10.6303  10.6447  10.7018  10.7200  10.7385  10.7450  10.7709
    10.8177  10.8222  10.8308  10.8382  10.8484  10.8617  10.8788  10.9519
    10.9981  11.0064  11.0175  11.0280  11.0390  11.0469  11.1736  11.1787
    11.2946  11.3443  11.3464  11.3517  11.3560  11.3704  11.3927  11.4019
    11.4227  11.4353  11.4582  11.4858  11.4924  11.4968  11.5840  11.6015
    11.6018  11.6098  11.6250  11.6307  11.6334  11.6830  11.6861  11.7585
    11.7719  11.7750  11.7994  11.8183  11.8299  11.8402  11.8528  11.8598
    11.8854  11.8916  11.9038  11.9119  11.9276  11.9341  11.9582  11.9670
    11.9678  11.9848  11.9868  11.9928  12.0463  12.1071  12.1550  12.1773
    12.2000  12.2054  12.2185  12.2197  12.2319  12.2672  12.2799  12.2800
    12.2834  12.2967  12.3212  12.3333  12.3667  12.3979  12.4125  12.4216
    12.4610  12.4780  12.4857  12.5038  12.5177  12.5356  12.5376  12.5628
    12.5678  12.5872  12.6118  12.6200  12.6661  12.7109  12.7317  12.7953
    12.8939  12.9860  13.0133  13.0238  13.0556  13.0654  13.1464  13.1524
    13.1787  13.2160  13.2353  13.2434  13.2523  13.3110  13.3217  13.4068
    13.4544  13.5560  13.6133  13.6413  13.6980  14.4805  14.5305  14.6262
    14.6478  14.7035  14.7280  14.7616  14.8404  14.8586  14.8733  14.9457
    15.0193  15.0533  15.1375  15.2130  15.3544  15.4524  15.5355  15.5734
    15.6092  15.7605  15.8114  15.8686  15.8766  15.9872  15.9874  16.0304
    16.0569  16.0580  16.0842  16.0979  16.1480  16.1703  16.1720  16.1777
    16.2125  16.2210  16.2246  16.2444  16.2576  16.2668  16.3033  16.3981
    16.4573  16.5230  16.5362  16.6319  16.7178  16.8713  16.9876  17.0748
    17.1461  17.2392  17.2877  17.3117  17.4005  17.4688  17.6291  17.6444
    17.7046  17.7249  17.8045  17.8099  17.8422  17.8519  17.9498  17.9798
    18.0079  18.0427  18.1330  18.2821  19.2139  19.3063  19.3382  19.3842

          k = 0.0000-0.5000-0.5734 ( 31696 PWs)   bands (ev):

   -66.7032 -66.6821 -66.6720 -66.6476 -66.6471 -66.6434 -66.6322 -66.6094
   -66.5857 -62.3800 -62.3670 -62.3569 -62.3520 -62.3500 -62.3301 -62.3272
   -62.3245 -62.3151 -35.4651 -35.4575 -35.4420 -35.4342 -35.4330 -35.4201
   -35.4195 -35.4174 -35.4137 -35.4034 -35.4004 -35.3954 -35.3933 -35.3903
   -35.3897 -35.3886 -35.3866 -35.3771 -35.3768 -35.3753 -35.3663 -35.3594
   -35.3531 -35.3362 -35.3333 -35.3268 -35.3217 -31.2198 -31.2177 -31.2093
   -31.1946 -31.1941 -31.1928 -31.1908 -31.1887 -31.1809 -31.1798 -31.1771
   -31.1765 -31.1741 -31.1729 -31.1708 -31.1648 -31.1641 -31.1629 -31.1608
   -31.1571 -31.1469 -31.1458 -31.1374 -31.1343 -31.1327 -31.1322 -31.1311
     6.5574   6.5753   6.5925   6.6084   7.8405   7.8540   7.8694   7.8825
     7.8984   7.9113   7.9238   7.9370   8.2712   8.2737   8.3042   8.3050
     8.5202   8.5209   8.5326   8.5332   8.6713   8.6719   8.6812   8.6866
     8.6900   8.6934   8.6996   8.7060   8.7063   8.7194   8.7436   8.7516
     8.7712   8.7732   8.7869   8.8012   8.9825   8.9986   9.0118   9.0305
     9.0392   9.0441   9.0473   9.0569   9.2097   9.2139   9.2141   9.2209
     9.2231   9.2270   9.2289   9.2361   9.2446   9.2499   9.2529   9.2574
     9.2696   9.2706   9.2794   9.2809   9.2876   9.3133   9.3957   9.4041
     9.4194   9.4241   9.4248   9.4573   9.4585   9.4629   9.4675   9.4759
     9.4917   9.4952   9.5069   9.5220   9.5285   9.5382   9.5490   9.5591
     9.5887   9.5992   9.7538   9.7562   9.7947   9.8045   9.8064   9.8298
     9.8320   9.8392   9.8494   9.8501   9.8517   9.8583   9.8611   9.8704
     9.9544   9.9653   9.9758   9.9758  10.0473  10.0519  10.0541  10.0640
    10.3880  10.3938  10.4010  10.4011  10.4090  10.4105  10.4277  10.4607
    10.4718  10.4769  10.4854  10.4855  10.4913  10.4945  10.5058  10.5096
    10.5298  10.5449  10.5512  10.5753  10.5896  10.5911  10.6115  10.6161
    10.6358  10.6453  10.6600  10.6665  10.6789  10.6985  10.7005  10.7143
    10.7799  10.8076  10.8820  10.8889  10.9926  11.0040  11.0389  11.0506
    11.1330  11.1372  11.1486  11.1572  11.1586  11.1859  11.1913  11.1946
    11.2105  11.2113  11.2940  11.3348  11.3456  11.3500  11.3571  11.3621
    11.3706  11.3736  11.3998  11.4031  11.4270  11.4377  11.5039  11.5106
    11.5288  11.5464  11.5715  11.5728  11.5789  11.5952  11.6037  11.6041
    11.6242  11.6268  11.7288  11.7449  11.7575  11.7616  11.8198  11.8591
    11.8681  11.9321  11.9383  11.9427  11.9607  11.9794  11.9945  11.9968
    12.0115  12.0196  12.0269  12.0357  12.0368  12.0383  12.1177  12.1275
    12.1342  12.1485  12.1735  12.2255  12.2444  12.2564  12.3386  12.3407
    12.3668  12.3669  12.3956  12.4200  12.4394  12.4582  12.4712  12.4768
    12.5061  12.5322  12.5390  12.5480  12.5702  12.5767  12.6003  12.6279
    12.6382  12.6434  12.6452  12.6518  12.6701  12.8022  12.8173  12.8371
    12.8618  12.8970  12.9219  12.9402  13.0210  13.0304  13.0520  13.1387
    13.1760  13.3925  13.5038  13.5161  13.6867  13.7140  13.7597  13.8795
    13.8914  13.9784  13.9828  14.0830  14.0907  14.1827  14.2210  14.2736
    14.2809  14.3267  14.3560  14.5462  14.5591  14.6313  14.6815  15.1515
    15.1667  15.2298  15.3263  15.3424  15.3798  15.5173  15.5454  15.5896
    15.6181  15.6718  15.6864  15.9538  15.9624  16.0035  16.0849  16.1031
    16.1289  16.1460  16.1496  16.1536  16.1821  16.2029  16.2580  16.2626
    16.2860  16.2891  16.3023  16.3146  16.3227  16.3250  16.4061  16.4793
    16.4865  16.5356  16.5448  16.5774  16.6118  16.6266  16.6696  16.6711
    16.7241  16.7272  16.7962  16.8294  16.8644  16.9044  16.9484  16.9966
    17.0662  17.1125  17.1575  17.1985  18.6356  18.6607  18.7150  18.7379
    18.8175  18.8216  18.8354  18.8404  18.9371  18.9487  18.9568  18.9648

          k =-0.5000-0.5000 0.0000 ( 31612 PWs)   bands (ev):

   -66.7032 -66.6821 -66.6720 -66.6476 -66.6471 -66.6434 -66.6322 -66.6094
   -66.5857 -62.3800 -62.3670 -62.3569 -62.3520 -62.3500 -62.3301 -62.3272
   -62.3245 -62.3151 -35.4651 -35.4575 -35.4420 -35.4342 -35.4330 -35.4201
   -35.4195 -35.4174 -35.4137 -35.4034 -35.4004 -35.3954 -35.3933 -35.3903
   -35.3897 -35.3886 -35.3866 -35.3771 -35.3768 -35.3753 -35.3663 -35.3594
   -35.3531 -35.3362 -35.3333 -35.3268 -35.3217 -31.2198 -31.2177 -31.2094
   -31.1946 -31.1941 -31.1928 -31.1908 -31.1887 -31.1809 -31.1798 -31.1771
   -31.1765 -31.1741 -31.1729 -31.1708 -31.1648 -31.1641 -31.1629 -31.1608
   -31.1571 -31.1469 -31.1458 -31.1374 -31.1343 -31.1327 -31.1322 -31.1311
     6.4175   6.4332   6.4420   6.4701   8.0072   8.0138   8.0186   8.0216
     8.0953   8.1177   8.2966   8.3248   8.3286   8.3320   8.3386   8.3409
     8.3451   8.3518   8.3627   8.3693   8.3722   8.3756   8.5899   8.6259
     8.6278   8.6581   8.6825   8.6995   8.7050   8.7254   8.7289   8.7422
     8.7560   8.7870   8.9464   8.9475   8.9709   8.9739   8.9760   8.9764
     8.9856   8.9901   8.9921   8.9999   9.0088   9.0100   9.0123   9.0275
     9.1166   9.1256   9.3082   9.3108   9.3139   9.3175   9.4035   9.4128
     9.4155   9.4167   9.4241   9.4292   9.4331   9.4403   9.4499   9.4577
     9.4582   9.4649   9.4785   9.4825   9.4857   9.4886   9.4992   9.5117
     9.5142   9.5197   9.5332   9.5395   9.5476   9.5741   9.5836   9.5981
     9.6046   9.6111   9.6945   9.6972   9.7729   9.8114   9.8174   9.8203
     9.8267   9.8340   9.8354   9.8403   9.8444   9.8498  10.0522  10.0599
    10.0838  10.0936  10.1269  10.1453  10.1545  10.1596  10.1648  10.1758
    10.1814  10.1852  10.1968  10.2068  10.2108  10.2147  10.2222  10.2269
    10.2299  10.2316  10.2336  10.2366  10.4495  10.4617  10.4847  10.4885
    10.4887  10.5008  10.5021  10.5159  10.6087  10.6328  10.6476  10.6619
    10.6649  10.6712  10.6722  10.6779  10.6784  10.6830  10.6993  10.7045
    10.7839  10.7900  10.8088  10.8137  10.8273  10.8290  10.8545  10.8591
    10.8965  10.9062  11.2022  11.2088  11.2106  11.2195  11.3199  11.3334
    11.3380  11.3491  11.3563  11.3606  11.3766  11.3788  11.5080  11.5844
    11.5916  11.5968  11.6396  11.6432  11.6438  11.6466  11.6468  11.6485
    11.6610  11.6930  11.7249  11.7278  11.7298  11.7443  11.7739  11.8400
    11.8685  11.8745  11.8802  11.8821  11.8838  11.8856  11.9481  12.0084
    12.0551  12.0715  12.0765  12.0828  12.0922  12.1011  12.1043  12.1054
    12.1076  12.1339  12.1412  12.1463  12.1537  12.1591  12.1600  12.1700
    12.1832  12.1854  12.1928  12.2195  12.2242  12.2318  12.2335  12.2361
    12.2488  12.2530  12.2649  12.2702  12.2827  12.2850  12.2901  12.3024
    12.3089  12.3380  12.3804  12.4557  12.4747  12.4778  12.4954  12.4995
    12.5109  12.5300  12.6047  12.6205  12.6568  12.6717  12.6876  12.7813
    12.7978  12.8482  12.8750  12.9220  12.9255  12.9455  12.9589  12.9636
    12.9964  13.0074  13.0181  13.0395  13.1149  13.6724  13.6774  13.7716
    13.7823  13.7986  13.8317  13.9394  13.9436  13.9488  14.0696  14.1097
    14.1123  14.2814  14.3114  14.3500  14.3632  14.4684  14.8258  14.8759
    14.9140  14.9470  15.1851  15.2732  15.4416  15.5184  15.6289  15.7150
    15.8024  15.8437  15.8531  15.8730  15.9142  15.9472  15.9486  15.9860
    16.0478  16.0848  16.1092  16.1245  16.1466  16.1545  16.1612  16.2393
    16.2628  16.3058  16.3474  16.3849  16.3951  16.4111  16.4121  16.4612
    16.4862  16.5477  16.5762  16.5818  16.6881  16.6936  16.7042  16.7315
    16.7856  16.7863  16.7897  16.8345  17.3834  17.3878  17.7234  17.8277
    18.0685  18.1708  18.2077  18.2285  18.3104  18.4648  18.5132  18.5507
    18.5922  18.6314  18.6411  18.6516  18.7144  18.7479  18.7992  18.8141

          k =-0.5000-0.5000-0.5734 ( 31672 PWs)   bands (ev):

   -66.7032 -66.6821 -66.6720 -66.6476 -66.6471 -66.6434 -66.6322 -66.6094
   -66.5857 -62.3800 -62.3670 -62.3569 -62.3520 -62.3500 -62.3301 -62.3272
   -62.3245 -62.3151 -35.4651 -35.4575 -35.4420 -35.4342 -35.4330 -35.4201
   -35.4195 -35.4174 -35.4137 -35.4034 -35.4004 -35.3954 -35.3933 -35.3903
   -35.3897 -35.3886 -35.3866 -35.3771 -35.3768 -35.3753 -35.3663 -35.3594
   -35.3531 -35.3362 -35.3333 -35.3268 -35.3217 -31.2198 -31.2177 -31.2093
   -31.1946 -31.1941 -31.1928 -31.1908 -31.1887 -31.1809 -31.1798 -31.1771
   -31.1765 -31.1741 -31.1729 -31.1708 -31.1648 -31.1641 -31.1629 -31.1608
   -31.1571 -31.1469 -31.1458 -31.1374 -31.1343 -31.1327 -31.1322 -31.1311
     6.9015   6.9131   6.9432   6.9638   6.9769   6.9950   7.0201   7.0368
     8.4588   8.4613   8.4744   8.4778   8.4870   8.4898   8.4909   8.4940
     8.4944   8.4954   8.5279   8.5353   8.5362   8.5416   8.5609   8.5652
     8.5692   8.5857   8.5864   8.5956   8.8646   8.8664   8.8842   8.8951
     8.9039   8.9094   8.9510   8.9512   9.0960   9.1051   9.1235   9.1280
     9.1329   9.1365   9.1371   9.1428   9.1510   9.1527   9.1651   9.1656
     9.1690   9.1693   9.1705   9.1722   9.1727   9.1729   9.1742   9.1755
     9.1819   9.1865   9.1915   9.1935   9.1970   9.2002   9.2055   9.2094
     9.2199   9.2239   9.2397   9.2470   9.2568   9.2706   9.2731   9.2816
     9.5430   9.5477   9.5613   9.5618   9.5865   9.5915   9.6131   9.6288
     9.6601   9.6734   9.6899   9.7106   9.7130   9.7249   9.7399   9.7584
     9.8153   9.8204   9.8542   9.8564   9.8640   9.8811   9.8880   9.8977
    10.1368  10.1406  10.1482  10.1553  10.1618  10.1733  10.1741  10.1821
    10.3007  10.3102  10.4468  10.4474  10.4638  10.4705  10.4724  10.4771
    10.4921  10.4948  10.4961  10.4993  10.5041  10.5048  10.5109  10.5146
    10.5264  10.5274  10.5297  10.5371  10.5429  10.5962  10.6035  10.6180
    10.6196  10.6220  10.6239  10.6403  10.6426  10.6520  10.6561  10.6650
    10.6812  10.6834  10.7032  10.7092  10.7484  10.7506  11.0049  11.0135
    11.0630  11.0698  11.0917  11.0981  11.1643  11.1649  11.3762  11.3830
    11.4015  11.4085  11.4290  11.4310  11.4393  11.4406  11.4444  11.4512
    11.4859  11.4897  11.5029  11.5191  11.5265  11.5439  11.5752  11.5838
    11.6432  11.6449  11.6458  11.6471  11.6555  11.6783  11.7048  11.7177
    11.7247  11.7284  11.7574  11.7596  11.7747  11.7817  11.7834  11.7872
    11.7984  11.8062  11.8214  11.8326  11.8831  11.9123  11.9806  12.0442
    12.0877  12.0893  12.1110  12.1166  12.1316  12.1458  12.1493  12.1703
    12.2085  12.2124  12.2217  12.2233  12.2474  12.2648  12.2814  12.2953
    12.3322  12.3430  12.3648  12.4083  12.4358  12.4424  12.4603  12.4690
    12.4729  12.4913  12.5099  12.5135  12.5410  12.5459  12.5890  12.6176
    12.6314  12.6666  12.6735  12.6779  12.6980  12.7295  12.7840  12.8022
    12.8186  12.9288  13.0230  13.0651  13.0914  13.1501  13.1719  13.2493
    13.2978  13.3289  13.4094  13.4361  13.4365  13.4953  13.5060  13.5563
    13.5671  13.6049  13.6076  13.9085  13.9561  14.0344  14.0538  14.1316
    14.2113  14.5238  14.5509  14.6621  14.7064  14.7625  14.8032  14.8986
    14.9647  15.0100  15.0266  15.2812  15.3603  15.4509  15.4702  15.6577
    15.7091  15.7247  15.7807  15.8418  15.8905  15.9649  16.0540  16.0858
    16.1161  16.1291  16.1598  16.1845  16.2056  16.2425  16.2541  16.2569
    16.2622  16.3045  16.3276  16.4413  16.4448  16.4723  16.4734  16.4943
    16.5396  16.5451  16.5704  16.6052  16.6349  16.6492  16.6894  16.7149
    16.7490  16.7694  16.8513  16.8710  16.8846  16.9062  16.9854  17.0070
    17.0165  17.0419  17.7017  17.8046  17.8107  17.8591  19.0075  19.0152
    19.0152  19.0345  19.0780  19.0896  19.1208  19.1685  19.2309  19.3425

          k =-0.5000 0.0000 0.0000 ( 31722 PWs)   bands (ev):

   -66.7032 -66.6821 -66.6720 -66.6476 -66.6471 -66.6434 -66.6322 -66.6094
   -66.5857 -62.3800 -62.3670 -62.3569 -62.3520 -62.3500 -62.3301 -62.3272
   -62.3245 -62.3151 -35.4651 -35.4575 -35.4420 -35.4342 -35.4330 -35.4201
   -35.4195 -35.4174 -35.4137 -35.4034 -35.4004 -35.3954 -35.3933 -35.3903
   -35.3897 -35.3886 -35.3866 -35.3771 -35.3768 -35.3753 -35.3663 -35.3594
   -35.3531 -35.3362 -35.3333 -35.3268 -35.3217 -31.2198 -31.2177 -31.2094
   -31.1946 -31.1941 -31.1928 -31.1908 -31.1887 -31.1809 -31.1798 -31.1771
   -31.1765 -31.1741 -31.1729 -31.1708 -31.1648 -31.1641 -31.1629 -31.1608
   -31.1571 -31.1469 -31.1458 -31.1374 -31.1343 -31.1327 -31.1322 -31.1311
     6.0312   6.0557   7.3935   7.4386   7.4594   7.4986   7.6730   7.6752
     8.1089   8.1136   8.1414   8.1506   8.2193   8.2389   8.2495   8.2753
     8.3833   8.4345   8.4558   8.4777   8.6150   8.6346   8.6560   8.6564
     8.6580   8.6747   8.6888   8.6984   8.7777   8.8040   8.8173   8.8313
     8.8504   8.8542   8.8668   8.8867   8.9034   8.9063   8.9105   8.9262
     8.9308   8.9334   8.9361   8.9577   9.0448   9.0459   9.1466   9.1685
     9.1828   9.2106   9.2174   9.2231   9.2343   9.2446   9.3053   9.3351
     9.3408   9.3654   9.3998   9.4220   9.4686   9.4771   9.4827   9.5193
     9.5436   9.5474   9.5672   9.5683   9.5914   9.5984   9.6069   9.6084
     9.6193   9.6258   9.6284   9.6322   9.6329   9.6337   9.6351   9.6497
     9.6632   9.6739   9.6817   9.6884   9.6924   9.7037   9.7119   9.7212
     9.7306   9.7484   9.7513   9.7860   9.8930   9.8985   9.9340   9.9553
    10.0157  10.0274  10.1671  10.1851  10.2099  10.2121  10.2532  10.2578
    10.2673  10.2699  10.2713  10.2757  10.2834  10.2858  10.3184  10.3529
    10.3727  10.3777  10.3824  10.3947  10.4132  10.4486  10.4676  10.4814
    10.5010  10.5206  10.5316  10.5495  10.5548  10.5696  10.5802  10.5960
    10.6028  10.6325  10.6782  10.7001  10.7081  10.7262  10.7410  10.7659
    10.8157  10.8257  10.8351  10.8366  10.8434  10.8582  10.8853  10.9588
    10.9955  11.0019  11.0174  11.0294  11.0407  11.0519  11.1718  11.1774
    11.2951  11.3459  11.3477  11.3667  11.3673  11.3788  11.3834  11.3866
    11.4156  11.4290  11.4639  11.4854  11.4875  11.5246  11.5504  11.5656
    11.5996  11.6170  11.6268  11.6351  11.6444  11.6678  11.7196  11.7470
    11.7674  11.7787  11.7994  11.8139  11.8184  11.8500  11.8592  11.8698
    11.8899  11.9078  11.9179  11.9231  11.9278  11.9392  11.9552  11.9601
    11.9699  11.9827  11.9837  11.9876  12.0227  12.1215  12.1454  12.1769
    12.1834  12.1978  12.2057  12.2166  12.2397  12.2417  12.2691  12.2810
    12.2977  12.3143  12.3441  12.3493  12.3727  12.4143  12.4220  12.4269
    12.4378  12.4622  12.4772  12.4863  12.5166  12.5179  12.5413  12.5700
    12.5791  12.5987  12.6106  12.6787  12.6831  12.7026  12.7249  12.7546
    12.8941  12.9633  12.9840  13.0156  13.0845  13.0916  13.0971  13.1448
    13.1700  13.2086  13.2367  13.2730  13.2933  13.3085  13.3465  13.3833
    13.4687  13.5634  13.6008  13.6129  13.6939  14.4855  14.5299  14.6096
    14.6695  14.6737  14.7134  14.8206  14.8599  14.8822  14.9174  14.9795
    15.0132  15.0507  15.1427  15.1827  15.3168  15.3572  15.4874  15.5019
    15.7153  15.7899  15.8346  15.8622  15.8728  15.9280  15.9417  15.9853
    16.0497  16.0649  16.0934  16.1249  16.1410  16.1607  16.1811  16.2011
    16.2208  16.2372  16.2376  16.2552  16.2872  16.3054  16.3281  16.3838
    16.4725  16.5197  16.5538  16.6538  16.7081  16.8174  17.0078  17.1104
    17.1357  17.2204  17.2818  17.3304  17.4060  17.4526  17.5977  17.6531
    17.6558  17.6792  17.8022  17.8077  17.8374  17.8814  17.9721  17.9917
    18.0184  18.0564  18.1505  18.2629  19.2157  19.2966  19.3509  19.3776

          k =-0.5000 0.0000 0.5734 ( 31696 PWs)   bands (ev):

   -66.7032 -66.6821 -66.6720 -66.6476 -66.6471 -66.6434 -66.6322 -66.6094
   -66.5857 -62.3800 -62.3670 -62.3569 -62.3520 -62.3500 -62.3301 -62.3272
   -62.3245 -62.3151 -35.4651 -35.4575 -35.4420 -35.4342 -35.4330 -35.4201
   -35.4195 -35.4174 -35.4137 -35.4034 -35.4004 -35.3954 -35.3933 -35.3903
   -35.3897 -35.3886 -35.3866 -35.3771 -35.3768 -35.3753 -35.3663 -35.3594
   -35.3531 -35.3362 -35.3333 -35.3268 -35.3217 -31.2198 -31.2177 -31.2094
   -31.1946 -31.1941 -31.1928 -31.1908 -31.1887 -31.1809 -31.1798 -31.1771
   -31.1765 -31.1741 -31.1729 -31.1708 -31.1648 -31.1641 -31.1629 -31.1608
   -31.1571 -31.1469 -31.1458 -31.1374 -31.1343 -31.1327 -31.1322 -31.1311
     6.5543   6.5714   6.5955   6.6125   7.8412   7.8486   7.8679   7.8869
     7.8944   7.9106   7.9297   7.9384   8.2700   8.2737   8.3044   8.3046
     8.5204   8.5230   8.5304   8.5330   8.6724   8.6732   8.6842   8.6892
     8.6894   8.6948   8.6984   8.6991   8.7011   8.7273   8.7450   8.7498
     8.7719   8.7736   8.7842   8.7986   8.9814   8.9965   9.0141   9.0334
     9.0390   9.0465   9.0482   9.0534   9.2116   9.2144   9.2159   9.2203
     9.2219   9.2302   9.2332   9.2368   9.2407   9.2502   9.2514   9.2519
     9.2638   9.2678   9.2789   9.2791   9.2969   9.3192   9.3940   9.4037
     9.4191   9.4259   9.4281   9.4569   9.4581   9.4607   9.4663   9.4740
     9.4900   9.4946   9.5116   9.5221   9.5287   9.5386   9.5516   9.5599
     9.5874   9.5966   9.7539   9.7560   9.7945   9.8058   9.8066   9.8272
     9.8308   9.8392   9.8436   9.8492   9.8589   9.8600   9.8604   9.8714
     9.9478   9.9532   9.9806   9.9876  10.0423  10.0454  10.0638  10.0660
    10.3845  10.3930  10.3955  10.3979  10.4129  10.4137  10.4273  10.4621
    10.4780  10.4801  10.4839  10.4855  10.4908  10.4930  10.5090  10.5104
    10.5167  10.5476  10.5578  10.5682  10.5850  10.5911  10.6073  10.6178
    10.6447  10.6472  10.6609  10.6674  10.6815  10.6932  10.7035  10.7086
    10.7800  10.8080  10.8864  10.8922  10.9956  11.0042  11.0348  11.0513
    11.1328  11.1401  11.1450  11.1529  11.1576  11.1858  11.1921  11.1954
    11.2106  11.2111  11.2835  11.3128  11.3523  11.3570  11.3640  11.3667
    11.3699  11.3744  11.4054  11.4131  11.4247  11.4326  11.5026  11.5097
    11.5348  11.5491  11.5703  11.5714  11.5806  11.5923  11.6025  11.6032
    11.6234  11.6273  11.7317  11.7498  11.7516  11.7594  11.8164  11.8638
    11.8815  11.9295  11.9362  11.9393  11.9422  11.9841  11.9916  11.9984
    12.0127  12.0155  12.0262  12.0359  12.0367  12.0498  12.1049  12.1251
    12.1632  12.1656  12.1728  12.2191  12.2248  12.2660  12.2970  12.3281
    12.3597  12.3659  12.3921  12.4259  12.4533  12.4654  12.4763  12.4985
    12.5016  12.5154  12.5315  12.5502  12.5623  12.5891  12.6037  12.6404
    12.6436  12.6497  12.6632  12.6688  12.6864  12.7395  12.8227  12.8259
    12.8383  12.9170  12.9283  12.9725  13.0019  13.0521  13.0630  13.1325
    13.1707  13.4327  13.4894  13.4916  13.6195  13.7037  13.7269  13.8598
    13.9145  13.9648  14.0288  14.0646  14.1178  14.1797  14.1896  14.2442
    14.3277  14.4161  14.4189  14.5464  14.5578  14.5983  14.6576  15.1498
    15.1912  15.2534  15.2592  15.3271  15.3557  15.3637  15.5462  15.6536
    15.6708  15.7355  15.7462  15.9270  15.9441  16.0545  16.0553  16.0764
    16.0939  16.1458  16.1467  16.1642  16.1690  16.1834  16.2062  16.2583
    16.2659  16.2904  16.3049  16.3137  16.3465  16.3618  16.4166  16.4960
    16.4962  16.5407  16.5468  16.5816  16.6092  16.6166  16.6945  16.7225
    16.7493  16.7569  16.7876  16.8105  16.8910  16.8997  16.9080  16.9759
    17.0594  17.0676  17.1393  17.2156  18.6651  18.6876  18.6925  18.7180
    18.8091  18.8174  18.8518  18.8635  18.9176  18.9415  18.9558  18.9603

 ------ SPIN DOWN ----------


          k = 0.0000 0.0000 0.0000 ( 31747 PWs)   bands (ev):

   -66.7030 -66.6822 -66.6718 -66.6474 -66.6473 -66.6436 -66.6324 -66.6093
   -66.5856 -62.3802 -62.3672 -62.3571 -62.3518 -62.3499 -62.3303 -62.3270
   -62.3246 -62.3149 -35.4649 -35.4572 -35.4418 -35.4343 -35.4330 -35.4202
   -35.4193 -35.4172 -35.4137 -35.4036 -35.4003 -35.3955 -35.3935 -35.3904
   -35.3895 -35.3885 -35.3864 -35.3773 -35.3767 -35.3755 -35.3664 -35.3593
   -35.3532 -35.3361 -35.3332 -35.3267 -35.3216 -31.2200 -31.2179 -31.2096
   -31.1947 -31.1943 -31.1926 -31.1906 -31.1889 -31.1808 -31.1800 -31.1769
   -31.1767 -31.1740 -31.1731 -31.1710 -31.1649 -31.1639 -31.1627 -31.1606
   -31.1573 -31.1467 -31.1460 -31.1372 -31.1344 -31.1329 -31.1321 -31.1309
     5.6158   7.1571   7.1693   7.1730   7.2099   7.3624   7.8716   7.8748
     7.9141   7.9412   8.0967   8.1232   8.1244   8.1560   8.1894   8.2563
     8.2665   8.2880   8.2952   8.5309   8.5530   8.5585   8.5752   8.5791
     8.6096   8.8587   8.8648   8.8730   8.8777   8.8826   8.8850   8.8951
     8.9045   8.9098   8.9267   8.9313   8.9416   8.9505   8.9610   8.9658
     8.9726   9.0817   9.1196   9.1263   9.1286   9.1296   9.1534   9.1624
     9.1808   9.1918   9.2014   9.2770   9.2895   9.2940   9.3032   9.3554
     9.3635   9.3636   9.3690   9.3927   9.3931   9.3966   9.4045   9.4167
     9.4372   9.4387   9.4472   9.4483   9.4561   9.4680   9.4717   9.5781
     9.5854   9.5863   9.5876   9.6156   9.6240   9.6626   9.6642   9.6675
     9.6700   9.6724   9.6734   9.7481   9.7680   9.7702   9.7795   9.8491
     9.8500   9.9138   9.9181   9.9383   9.9397   9.9489   9.9827  10.0096
    10.1108  10.1338  10.1651  10.1760  10.2879  10.2913  10.2934  10.3039
    10.3051  10.3119  10.3150  10.3182  10.3209  10.3262  10.3374  10.3460
    10.3465  10.3466  10.3506  10.3523  10.3602  10.3638  10.3820  10.3856
    10.3888  10.4995  10.5172  10.5846  10.6131  10.6171  10.6601  10.7048
    10.7536  10.7547  10.7846  10.7855  10.7873  10.8050  10.8315  10.8446
    10.8469  10.8510  10.8676  10.8703  10.8748  10.8791  10.8859  10.8946
    10.8994  10.9073  11.0333  11.0401  11.0699  11.0827  11.2039  11.2089
    11.2212  11.2272  11.2278  11.2692  11.2947  11.3290  11.3512  11.3634
    11.3681  11.3742  11.3837  11.3995  11.4030  11.4133  11.4165  11.4222
    11.4301  11.5292  11.5550  11.5736  11.5897  11.5901  11.5931  11.5966
    11.6203  11.6395  11.6519  11.6565  11.7275  11.7366  11.7379  11.7462
    11.8196  11.8243  11.8405  11.8514  11.8688  11.9103  11.9347  11.9498
    11.9502  11.9635  12.0964  12.0994  12.1001  12.1015  12.1032  12.1419
    12.1438  12.1453  12.1462  12.1500  12.1616  12.1781  12.1936  12.2178
    12.2217  12.2630  12.2977  12.3421  12.3701  12.3770  12.4328  12.4417
    12.4454  12.4611  12.4793  12.4943  12.4984  12.5227  12.5404  12.5545
    12.5588  12.5698  12.5966  12.6004  12.6301  12.6628  12.6801  12.7144
    12.7150  12.7694  12.8372  12.9659  12.9761  13.0045  13.0106  13.0646
    13.0833  13.1012  13.1484  13.1604  13.5831  13.7182  13.7326  13.7813
    13.8451  13.9668  14.0424  14.2352  14.2547  14.3190  14.3596  14.3804
    14.8575  14.8787  14.9412  14.9949  15.0737  15.1039  15.1253  15.2052
    15.2605  15.2910  15.3620  15.3708  15.4617  15.5029  15.5556  15.5730
    15.5778  15.6662  15.7460  15.8361  15.9266  15.9819  16.0093  16.0365
    16.0719  16.1009  16.1027  16.1241  16.1427  16.1556  16.1705  16.1817
    16.1870  16.2050  16.2333  16.2355  16.2719  16.3419  16.3965  16.4419
    16.4931  16.5760  16.5975  16.6250  16.6481  16.7306  16.8337  16.8708
    16.9269  17.0341  17.1760  17.2048  17.2116  17.2363  17.2719  17.3038
    17.4242  17.4662  17.8356  17.9016  17.9312  17.9452  17.9608  18.1269
    18.1941  18.2465  18.4116  19.0048  19.0364  19.0520  19.0958  19.1987

          k = 0.0000 0.0000-0.5734 ( 31692 PWs)   bands (ev):

   -66.7030 -66.6822 -66.6718 -66.6474 -66.6473 -66.6436 -66.6324 -66.6093
   -66.5856 -62.3802 -62.3672 -62.3571 -62.3518 -62.3499 -62.3303 -62.3270
   -62.3246 -62.3149 -35.4649 -35.4572 -35.4418 -35.4343 -35.4330 -35.4202
   -35.4193 -35.4172 -35.4137 -35.4036 -35.4003 -35.3955 -35.3935 -35.3904
   -35.3895 -35.3885 -35.3864 -35.3773 -35.3767 -35.3755 -35.3664 -35.3593
   -35.3532 -35.3361 -35.3332 -35.3267 -35.3216 -31.2200 -31.2179 -31.2096
   -31.1947 -31.1943 -31.1926 -31.1906 -31.1889 -31.1808 -31.1800 -31.1769
   -31.1767 -31.1740 -31.1731 -31.1710 -31.1649 -31.1639 -31.1627 -31.1606
   -31.1573 -31.1467 -31.1460 -31.1372 -31.1344 -31.1329 -31.1321 -31.1309
     6.1761   6.1942   7.5312   7.5426   7.5581   7.5623   7.5963   7.6070
     7.6208   7.6391   8.3120   8.3204   8.3358   8.3421   8.3589   8.3722
     8.3825   8.3934   8.4571   8.4607   8.4709   8.4710   8.4961   8.4964
     8.5144   8.5149   8.6999   8.7066   8.7641   8.7812   8.9465   8.9561
     8.9624   8.9686   8.9735   8.9917   8.9988   9.0064   9.0079   9.0219
     9.0273   9.0379   9.0427   9.0505   9.0759   9.0902   9.2222   9.2237
     9.2328   9.2383   9.2515   9.2548   9.2639   9.2691   9.2723   9.2810
     9.2841   9.2860   9.2889   9.2895   9.2918   9.2947   9.4088   9.4107
     9.4235   9.4275   9.4518   9.4549   9.4553   9.4631   9.4656   9.4777
     9.4843   9.4889   9.4931   9.5076   9.5119   9.5194   9.6424   9.6664
     9.7777   9.7808   9.7923   9.7949   9.8173   9.8226   9.8316   9.8462
     9.8705   9.8711   9.8818   9.8820   9.8848   9.8856   9.8923   9.8931
    10.0567  10.0586  10.0604  10.0617  10.1430  10.1516  10.1604  10.1674
    10.1724  10.1747  10.1763  10.1900  10.1989  10.2109  10.3516  10.3545
    10.3861  10.3884  10.3968  10.4051  10.4331  10.4373  10.4846  10.5073
    10.5764  10.5862  10.6055  10.6113  10.6218  10.6391  10.6430  10.6553
    10.6861  10.6959  10.7385  10.7493  10.7734  10.8078  10.8089  10.8626
    10.9110  10.9144  10.9820  11.0126  11.0265  11.0396  11.0398  11.0643
    11.0660  11.0845  11.1118  11.1402  11.1669  11.1707  11.1931  11.2191
    11.2483  11.2500  11.2557  11.2582  11.2593  11.2597  11.2654  11.2671
    11.2720  11.2795  11.2846  11.2865  11.2902  11.2908  11.3049  11.3087
    11.3164  11.3189  11.3195  11.3255  11.5305  11.5389  11.7102  11.7124
    11.7140  11.7187  11.7201  11.7234  11.7321  11.7328  11.7438  11.7527
    11.7635  11.7685  11.7698  11.7852  11.7872  11.8523  11.8948  11.9284
    11.9536  11.9642  11.9993  12.0148  12.0199  12.0550  12.0864  12.0970
    12.1540  12.1794  12.2009  12.2414  12.2542  12.2885  12.2988  12.4080
    12.4107  12.4420  12.4507  12.4649  12.4719  12.4941  12.4941  12.5011
    12.5242  12.5249  12.5394  12.5470  12.5619  12.5741  12.6139  12.6679
    12.6785  12.7066  12.7177  12.7640  12.7728  12.8023  12.8184  12.8552
    12.8839  12.8975  12.9496  13.0963  13.1895  13.2073  13.2204  13.2471
    13.3181  13.3571  13.4221  13.4946  13.5127  13.5393  13.7313  13.7416
    13.7560  13.9760  14.0090  14.0133  14.1180  14.1486  14.2693  14.5579
    14.6964  14.8098  14.9042  14.9390  14.9759  15.0016  15.1323  15.1667
    15.1814  15.2045  15.2462  15.2713  15.2801  15.3207  15.3512  15.4310
    15.6104  15.6477  15.6904  15.7481  15.8263  15.9908  15.9984  16.0655
    16.0688  16.0899  16.1288  16.1348  16.1459  16.1615  16.1708  16.2035
    16.2297  16.2374  16.2387  16.2585  16.2749  16.2859  16.2958  16.3072
    16.4346  16.4563  16.6150  16.6482  16.6606  16.7097  16.7479  16.7782
    16.8295  16.8573  17.2289  17.2935  17.3424  17.3474  17.5529  17.5779
    17.6380  17.6412  17.6683  17.6797  17.7249  17.7508  17.8458  17.8754
    17.9458  17.9690  18.0991  18.1468  18.1979  18.2504  18.3119  18.3545

          k = 0.0000-0.5000 0.0000 ( 31722 PWs)   bands (ev):

   -66.7030 -66.6822 -66.6718 -66.6474 -66.6473 -66.6436 -66.6324 -66.6093
   -66.5856 -62.3802 -62.3672 -62.3571 -62.3518 -62.3499 -62.3303 -62.3270
   -62.3246 -62.3149 -35.4649 -35.4572 -35.4418 -35.4343 -35.4330 -35.4202
   -35.4193 -35.4172 -35.4137 -35.4036 -35.4003 -35.3955 -35.3935 -35.3904
   -35.3895 -35.3885 -35.3864 -35.3773 -35.3767 -35.3755 -35.3664 -35.3593
   -35.3532 -35.3361 -35.3332 -35.3267 -35.3216 -31.2200 -31.2179 -31.2096
   -31.1947 -31.1943 -31.1926 -31.1906 -31.1889 -31.1808 -31.1800 -31.1769
   -31.1767 -31.1740 -31.1731 -31.1710 -31.1649 -31.1639 -31.1627 -31.1606
   -31.1573 -31.1467 -31.1460 -31.1372 -31.1344 -31.1329 -31.1321 -31.1309
     6.0312   6.0557   7.3934   7.4386   7.4595   7.4986   7.6730   7.6752
     8.1089   8.1136   8.1414   8.1506   8.2193   8.2389   8.2495   8.2753
     8.3832   8.4345   8.4559   8.4777   8.6150   8.6347   8.6559   8.6564
     8.6580   8.6746   8.6888   8.6984   8.7777   8.8040   8.8173   8.8313
     8.8504   8.8542   8.8668   8.8868   8.9033   8.9063   8.9106   8.9262
     8.9307   8.9334   8.9361   8.9577   9.0448   9.0459   9.1466   9.1685
     9.1828   9.2106   9.2173   9.2231   9.2343   9.2446   9.3054   9.3351
     9.3408   9.3653   9.3997   9.4220   9.4686   9.4772   9.4826   9.5193
     9.5436   9.5474   9.5673   9.5683   9.5914   9.5984   9.6068   9.6084
     9.6193   9.6258   9.6284   9.6322   9.6329   9.6336   9.6351   9.6497
     9.6632   9.6739   9.6817   9.6885   9.6923   9.7036   9.7119   9.7213
     9.7305   9.7484   9.7513   9.7860   9.8930   9.8985   9.9340   9.9553
    10.0157  10.0274  10.1671  10.1851  10.2099  10.2121  10.2532  10.2578
    10.2673  10.2699  10.2715  10.2755  10.2835  10.2857  10.3184  10.3529
    10.3727  10.3777  10.3824  10.3947  10.4132  10.4486  10.4676  10.4814
    10.5010  10.5206  10.5316  10.5495  10.5547  10.5697  10.5802  10.5961
    10.6028  10.6325  10.6782  10.7001  10.7080  10.7262  10.7410  10.7659
    10.8157  10.8257  10.8351  10.8366  10.8434  10.8582  10.8853  10.9587
    10.9956  11.0020  11.0175  11.0293  11.0406  11.0519  11.1718  11.1773
    11.2951  11.3459  11.3477  11.3667  11.3673  11.3788  11.3833  11.3866
    11.4156  11.4290  11.4640  11.4854  11.4875  11.5245  11.5505  11.5656
    11.5996  11.6170  11.6268  11.6351  11.6443  11.6678  11.7195  11.7471
    11.7674  11.7787  11.7994  11.8139  11.8184  11.8500  11.8591  11.8697
    11.8900  11.9078  11.9179  11.9231  11.9278  11.9391  11.9552  11.9602
    11.9700  11.9826  11.9837  11.9876  12.0227  12.1214  12.1454  12.1769
    12.1834  12.1978  12.2057  12.2166  12.2398  12.2418  12.2691  12.2810
    12.2977  12.3143  12.3442  12.3494  12.3727  12.4144  12.4220  12.4269
    12.4378  12.4623  12.4773  12.4863  12.5167  12.5179  12.5413  12.5701
    12.5790  12.5987  12.6107  12.6788  12.6831  12.7026  12.7249  12.7546
    12.8941  12.9633  12.9840  13.0156  13.0845  13.0916  13.0971  13.1449
    13.1700  13.2086  13.2368  13.2730  13.2934  13.3084  13.3465  13.3833
    13.4688  13.5634  13.6008  13.6129  13.6939  14.4856  14.5298  14.6096
    14.6695  14.6737  14.7135  14.8206  14.8599  14.8821  14.9174  14.9795
    15.0132  15.0507  15.1427  15.1828  15.3168  15.3572  15.4874  15.5019
    15.7153  15.7899  15.8345  15.8622  15.8727  15.9279  15.9416  15.9853
    16.0497  16.0649  16.0933  16.1249  16.1410  16.1607  16.1810  16.2010
    16.2209  16.2372  16.2375  16.2552  16.2872  16.3054  16.3280  16.3838
    16.4725  16.5198  16.5537  16.6537  16.7082  16.8174  17.0078  17.1104
    17.1356  17.2204  17.2819  17.3304  17.4059  17.4525  17.5976  17.6530
    17.6558  17.6792  17.8022  17.8077  17.8374  17.8814  17.9721  17.9917
    18.0184  18.0564  18.1505  18.2629  19.2157  19.2966  19.3508  19.3777

          k = 0.0000-0.5000-0.5734 ( 31696 PWs)   bands (ev):

   -66.7030 -66.6822 -66.6718 -66.6474 -66.6473 -66.6436 -66.6324 -66.6093
   -66.5856 -62.3802 -62.3672 -62.3571 -62.3518 -62.3499 -62.3303 -62.3270
   -62.3246 -62.3149 -35.4649 -35.4572 -35.4418 -35.4343 -35.4330 -35.4202
   -35.4193 -35.4172 -35.4137 -35.4036 -35.4003 -35.3955 -35.3935 -35.3904
   -35.3895 -35.3885 -35.3864 -35.3773 -35.3767 -35.3755 -35.3664 -35.3593
   -35.3532 -35.3361 -35.3332 -35.3267 -35.3216 -31.2200 -31.2179 -31.2096
   -31.1947 -31.1943 -31.1926 -31.1906 -31.1889 -31.1808 -31.1800 -31.1769
   -31.1767 -31.1740 -31.1731 -31.1710 -31.1649 -31.1639 -31.1627 -31.1606
   -31.1573 -31.1467 -31.1460 -31.1372 -31.1344 -31.1329 -31.1321 -31.1309
     6.5544   6.5714   6.5956   6.6124   7.8411   7.8484   7.8680   7.8869
     7.8945   7.9106   7.9297   7.9383   8.2701   8.2736   8.3044   8.3046
     8.5204   8.5231   8.5303   8.5330   8.6724   8.6732   8.6842   8.6892
     8.6893   8.6948   8.6983   8.6992   8.7012   8.7272   8.7450   8.7497
     8.7719   8.7736   8.7842   8.7986   8.9815   8.9964   9.0141   9.0334
     9.0390   9.0463   9.0483   9.0534   9.2117   9.2144   9.2159   9.2202
     9.2220   9.2302   9.2333   9.2367   9.2407   9.2502   9.2513   9.2519
     9.2638   9.2677   9.2789   9.2791   9.2970   9.3192   9.3940   9.4036
     9.4192   9.4258   9.4281   9.4569   9.4580   9.4608   9.4665   9.4740
     9.4901   9.4945   9.5117   9.5221   9.5287   9.5386   9.5515   9.5599
     9.5874   9.5966   9.7540   9.7559   9.7945   9.8058   9.8066   9.8273
     9.8309   9.8391   9.8435   9.8491   9.8589   9.8601   9.8605   9.8714
     9.9479   9.9532   9.9806   9.9876  10.0423  10.0455  10.0637  10.0659
    10.3846  10.3930  10.3954  10.3979  10.4128  10.4137  10.4273  10.4620
    10.4780  10.4801  10.4839  10.4855  10.4907  10.4929  10.5089  10.5104
    10.5167  10.5475  10.5578  10.5681  10.5850  10.5911  10.6073  10.6177
    10.6447  10.6472  10.6609  10.6674  10.6815  10.6932  10.7035  10.7086
    10.7800  10.8080  10.8863  10.8921  10.9955  11.0041  11.0350  11.0513
    11.1328  11.1400  11.1450  11.1529  11.1576  11.1858  11.1921  11.1954
    11.2107  11.2111  11.2835  11.3128  11.3523  11.3570  11.3640  11.3667
    11.3699  11.3744  11.4054  11.4131  11.4247  11.4325  11.5026  11.5097
    11.5348  11.5491  11.5704  11.5715  11.5806  11.5924  11.6025  11.6032
    11.6234  11.6273  11.7317  11.7498  11.7517  11.7594  11.8165  11.8637
    11.8815  11.9295  11.9363  11.9393  11.9422  11.9840  11.9916  11.9984
    12.0127  12.0154  12.0262  12.0359  12.0367  12.0498  12.1049  12.1250
    12.1633  12.1656  12.1729  12.2191  12.2248  12.2659  12.2970  12.3281
    12.3597  12.3660  12.3921  12.4259  12.4534  12.4654  12.4765  12.4986
    12.5016  12.5153  12.5315  12.5503  12.5623  12.5892  12.6037  12.6404
    12.6437  12.6497  12.6632  12.6688  12.6864  12.7396  12.8227  12.8259
    12.8384  12.9170  12.9283  12.9725  13.0020  13.0521  13.0631  13.1325
    13.1707  13.4327  13.4893  13.4917  13.6195  13.7038  13.7270  13.8598
    13.9146  13.9649  14.0288  14.0646  14.1179  14.1797  14.1896  14.2441
    14.3277  14.4162  14.4188  14.5464  14.5578  14.5983  14.6576  15.1498
    15.1912  15.2534  15.2592  15.3271  15.3557  15.3638  15.5461  15.6535
    15.6708  15.7354  15.7463  15.9269  15.9441  16.0545  16.0553  16.0764
    16.0939  16.1457  16.1467  16.1641  16.1690  16.1833  16.2063  16.2581
    16.2658  16.2904  16.3049  16.3136  16.3465  16.3618  16.4167  16.4959
    16.4962  16.5406  16.5468  16.5815  16.6092  16.6167  16.6945  16.7225
    16.7493  16.7569  16.7876  16.8105  16.8910  16.8996  16.9080  16.9759
    17.0594  17.0675  17.1394  17.2155  18.6652  18.6876  18.6925  18.7180
    18.8092  18.8176  18.8517  18.8633  18.9176  18.9415  18.9557  18.9602

          k =-0.5000-0.5000 0.0000 ( 31612 PWs)   bands (ev):

   -66.7030 -66.6822 -66.6718 -66.6474 -66.6473 -66.6436 -66.6324 -66.6093
   -66.5856 -62.3802 -62.3672 -62.3571 -62.3518 -62.3499 -62.3303 -62.3270
   -62.3246 -62.3149 -35.4649 -35.4572 -35.4418 -35.4343 -35.4330 -35.4202
   -35.4193 -35.4172 -35.4137 -35.4036 -35.4003 -35.3955 -35.3935 -35.3904
   -35.3895 -35.3885 -35.3864 -35.3773 -35.3767 -35.3755 -35.3664 -35.3593
   -35.3532 -35.3361 -35.3332 -35.3267 -35.3216 -31.2200 -31.2179 -31.2096
   -31.1947 -31.1943 -31.1926 -31.1906 -31.1889 -31.1808 -31.1800 -31.1769
   -31.1767 -31.1740 -31.1731 -31.1710 -31.1649 -31.1639 -31.1627 -31.1606
   -31.1573 -31.1467 -31.1460 -31.1372 -31.1344 -31.1329 -31.1321 -31.1309
     6.4175   6.4332   6.4420   6.4701   8.0072   8.0138   8.0185   8.0215
     8.0953   8.1177   8.2966   8.3248   8.3286   8.3320   8.3386   8.3409
     8.3451   8.3518   8.3627   8.3693   8.3722   8.3756   8.5900   8.6260
     8.6278   8.6581   8.6826   8.6995   8.7050   8.7254   8.7289   8.7423
     8.7560   8.7870   8.9463   8.9475   8.9708   8.9739   8.9759   8.9764
     8.9857   8.9902   8.9921   8.9999   9.0088   9.0100   9.0123   9.0275
     9.1167   9.1256   9.3081   9.3108   9.3139   9.3175   9.4035   9.4128
     9.4155   9.4167   9.4242   9.4293   9.4331   9.4403   9.4499   9.4577
     9.4582   9.4649   9.4785   9.4825   9.4857   9.4886   9.4992   9.5118
     9.5142   9.5197   9.5332   9.5394   9.5477   9.5741   9.5835   9.5980
     9.6046   9.6111   9.6945   9.6972   9.7729   9.8114   9.8174   9.8203
     9.8267   9.8340   9.8354   9.8403   9.8444   9.8498  10.0522  10.0599
    10.0839  10.0936  10.1269  10.1453  10.1545  10.1595  10.1648  10.1758
    10.1813  10.1852  10.1968  10.2068  10.2107  10.2147  10.2222  10.2269
    10.2299  10.2317  10.2336  10.2366  10.4495  10.4617  10.4847  10.4885
    10.4887  10.5007  10.5021  10.5159  10.6087  10.6328  10.6475  10.6619
    10.6649  10.6712  10.6722  10.6779  10.6784  10.6830  10.6993  10.7045
    10.7838  10.7900  10.8089  10.8137  10.8273  10.8290  10.8545  10.8590
    10.8966  10.9062  11.2022  11.2088  11.2106  11.2195  11.3199  11.3333
    11.3380  11.3491  11.3563  11.3606  11.3766  11.3788  11.5080  11.5844
    11.5915  11.5967  11.6396  11.6433  11.6438  11.6466  11.6468  11.6485
    11.6610  11.6930  11.7250  11.7278  11.7298  11.7444  11.7741  11.8399
    11.8685  11.8745  11.8802  11.8821  11.8839  11.8856  11.9481  12.0084
    12.0551  12.0714  12.0765  12.0829  12.0922  12.1011  12.1043  12.1054
    12.1076  12.1339  12.1412  12.1463  12.1536  12.1591  12.1600  12.1700
    12.1833  12.1854  12.1928  12.2195  12.2242  12.2318  12.2335  12.2361
    12.2488  12.2530  12.2650  12.2703  12.2827  12.2850  12.2901  12.3024
    12.3089  12.3380  12.3804  12.4558  12.4747  12.4779  12.4955  12.4995
    12.5109  12.5300  12.6047  12.6205  12.6569  12.6717  12.6876  12.7813
    12.7978  12.8482  12.8750  12.9220  12.9255  12.9454  12.9589  12.9637
    12.9964  13.0075  13.0182  13.0395  13.1149  13.6724  13.6774  13.7716
    13.7823  13.7986  13.8317  13.9394  13.9436  13.9488  14.0696  14.1096
    14.1123  14.2813  14.3114  14.3500  14.3633  14.4684  14.8259  14.8759
    14.9140  14.9470  15.1851  15.2732  15.4416  15.5184  15.6289  15.7150
    15.8024  15.8436  15.8531  15.8730  15.9142  15.9470  15.9486  15.9860
    16.0478  16.0848  16.1092  16.1245  16.1465  16.1545  16.1612  16.2393
    16.2628  16.3058  16.3474  16.3849  16.3951  16.4111  16.4121  16.4612
    16.4861  16.5477  16.5762  16.5817  16.6881  16.6936  16.7042  16.7315
    16.7856  16.7862  16.7897  16.8344  17.3834  17.3878  17.7235  17.8276
    18.0686  18.1707  18.2077  18.2285  18.3105  18.4648  18.5132  18.5507
    18.5922  18.6314  18.6411  18.6516  18.7145  18.7479  18.7991  18.8140

          k =-0.5000-0.5000-0.5734 ( 31672 PWs)   bands (ev):

   -66.7030 -66.6822 -66.6718 -66.6474 -66.6473 -66.6436 -66.6324 -66.6093
   -66.5856 -62.3802 -62.3672 -62.3571 -62.3518 -62.3499 -62.3303 -62.3270
   -62.3246 -62.3149 -35.4649 -35.4572 -35.4418 -35.4343 -35.4330 -35.4202
   -35.4193 -35.4172 -35.4137 -35.4036 -35.4003 -35.3955 -35.3935 -35.3904
   -35.3895 -35.3885 -35.3864 -35.3773 -35.3767 -35.3755 -35.3664 -35.3593
   -35.3532 -35.3361 -35.3332 -35.3267 -35.3216 -31.2200 -31.2179 -31.2096
   -31.1947 -31.1943 -31.1926 -31.1906 -31.1889 -31.1808 -31.1800 -31.1769
   -31.1767 -31.1740 -31.1731 -31.1710 -31.1649 -31.1639 -31.1627 -31.1606
   -31.1573 -31.1467 -31.1460 -31.1372 -31.1344 -31.1329 -31.1321 -31.1309
     6.9016   6.9130   6.9432   6.9637   6.9769   6.9949   7.0201   7.0367
     8.4588   8.4613   8.4744   8.4778   8.4869   8.4899   8.4910   8.4940
     8.4943   8.4954   8.5280   8.5353   8.5362   8.5416   8.5609   8.5651
     8.5693   8.5857   8.5864   8.5956   8.8646   8.8664   8.8842   8.8951
     8.9038   8.9094   8.9510   8.9512   9.0960   9.1050   9.1235   9.1280
     9.1330   9.1365   9.1370   9.1428   9.1510   9.1527   9.1652   9.1656
     9.1690   9.1693   9.1705   9.1721   9.1727   9.1729   9.1742   9.1755
     9.1818   9.1865   9.1915   9.1935   9.1969   9.2001   9.2056   9.2094
     9.2199   9.2239   9.2397   9.2470   9.2569   9.2705   9.2731   9.2815
     9.5431   9.5477   9.5612   9.5619   9.5865   9.5914   9.6132   9.6287
     9.6601   9.6733   9.6900   9.7107   9.7129   9.7248   9.7401   9.7584
     9.8153   9.8204   9.8543   9.8564   9.8641   9.8811   9.8879   9.8976
    10.1368  10.1406  10.1482  10.1553  10.1618  10.1733  10.1741  10.1821
    10.3007  10.3101  10.4467  10.4475  10.4637  10.4705  10.4724  10.4771
    10.4921  10.4948  10.4961  10.4992  10.5042  10.5047  10.5109  10.5146
    10.5264  10.5275  10.5297  10.5372  10.5428  10.5962  10.6035  10.6180
    10.6196  10.6220  10.6239  10.6403  10.6426  10.6519  10.6562  10.6650
    10.6812  10.6834  10.7031  10.7092  10.7484  10.7506  11.0050  11.0135
    11.0630  11.0698  11.0918  11.0981  11.1643  11.1649  11.3762  11.3830
    11.4015  11.4085  11.4290  11.4310  11.4393  11.4406  11.4444  11.4512
    11.4859  11.4896  11.5029  11.5191  11.5265  11.5439  11.5752  11.5839
    11.6433  11.6449  11.6458  11.6470  11.6555  11.6783  11.7049  11.7177
    11.7248  11.7283  11.7573  11.7596  11.7747  11.7817  11.7834  11.7873
    11.7984  11.8063  11.8214  11.8326  11.8832  11.9123  11.9807  12.0441
    12.0877  12.0893  12.1110  12.1166  12.1316  12.1459  12.1493  12.1703
    12.2085  12.2124  12.2217  12.2233  12.2474  12.2649  12.2815  12.2952
    12.3322  12.3429  12.3648  12.4082  12.4357  12.4425  12.4603  12.4691
    12.4729  12.4913  12.5100  12.5134  12.5409  12.5460  12.5891  12.6177
    12.6313  12.6666  12.6735  12.6780  12.6980  12.7295  12.7840  12.8022
    12.8187  12.9288  13.0230  13.0651  13.0914  13.1502  13.1720  13.2493
    13.2978  13.3289  13.4094  13.4361  13.4365  13.4954  13.5060  13.5564
    13.5671  13.6049  13.6076  13.9085  13.9561  14.0343  14.0538  14.1317
    14.2113  14.5237  14.5508  14.6620  14.7064  14.7625  14.8032  14.8987
    14.9648  15.0100  15.0266  15.2812  15.3604  15.4509  15.4702  15.6576
    15.7090  15.7247  15.7807  15.8417  15.8904  15.9648  16.0539  16.0858
    16.1161  16.1289  16.1598  16.1845  16.2056  16.2424  16.2542  16.2569
    16.2622  16.3045  16.3276  16.4414  16.4447  16.4722  16.4735  16.4943
    16.5395  16.5450  16.5705  16.6052  16.6348  16.6492  16.6895  16.7148
    16.7490  16.7694  16.8513  16.8710  16.8846  16.9061  16.9854  17.0070
    17.0165  17.0419  17.7018  17.8046  17.8106  17.8591  19.0075  19.0151
    19.0152  19.0345  19.0780  19.0896  19.1208  19.1685  19.2309  19.3424

          k =-0.5000 0.0000 0.0000 ( 31722 PWs)   bands (ev):

   -66.7030 -66.6822 -66.6718 -66.6474 -66.6473 -66.6436 -66.6324 -66.6093
   -66.5856 -62.3802 -62.3672 -62.3571 -62.3518 -62.3499 -62.3303 -62.3270
   -62.3246 -62.3149 -35.4649 -35.4572 -35.4418 -35.4343 -35.4330 -35.4202
   -35.4193 -35.4172 -35.4137 -35.4036 -35.4003 -35.3955 -35.3935 -35.3904
   -35.3895 -35.3885 -35.3864 -35.3773 -35.3767 -35.3755 -35.3664 -35.3593
   -35.3532 -35.3361 -35.3332 -35.3267 -35.3216 -31.2200 -31.2179 -31.2096
   -31.1947 -31.1943 -31.1926 -31.1906 -31.1889 -31.1808 -31.1800 -31.1769
   -31.1767 -31.1740 -31.1731 -31.1710 -31.1649 -31.1639 -31.1627 -31.1606
   -31.1573 -31.1467 -31.1460 -31.1372 -31.1344 -31.1329 -31.1321 -31.1309
     6.0377   6.0490   7.3983   7.4333   7.4537   7.5056   7.6705   7.6780
     8.1096   8.1136   8.1254   8.1646   8.2251   8.2330   8.2502   8.2755
     8.3907   8.4283   8.4439   8.4883   8.6195   8.6362   8.6507   8.6560
     8.6663   8.6674   8.6760   8.7077   8.7816   8.7949   8.8212   8.8397
     8.8469   8.8544   8.8706   8.8785   8.9055   8.9099   8.9181   8.9233
     8.9248   8.9290   8.9372   8.9578   9.0436   9.0483   9.1479   9.1679
     9.1745   9.2110   9.2181   9.2277   9.2369   9.2408   9.3067   9.3240
     9.3504   9.3775   9.3864   9.4225   9.4709   9.4738   9.4908   9.5208
     9.5296   9.5470   9.5627   9.5697   9.5960   9.5997   9.6076   9.6119
     9.6123   9.6264   9.6306   9.6334   9.6346   9.6354   9.6371   9.6505
     9.6659   9.6750   9.6791   9.6881   9.6911   9.7102   9.7113   9.7152
     9.7293   9.7417   9.7576   9.7876   9.8937   9.8982   9.9330   9.9553
    10.0116  10.0308  10.1617  10.1898  10.2084  10.2159  10.2470  10.2565
    10.2619  10.2739  10.2781  10.2782  10.2805  10.2846  10.3249  10.3582
    10.3657  10.3792  10.3811  10.3950  10.4137  10.4506  10.4636  10.4859
    10.5006  10.5256  10.5266  10.5363  10.5528  10.5796  10.5925  10.5949
    10.6041  10.6302  10.6446  10.7017  10.7200  10.7385  10.7450  10.7708
    10.8177  10.8222  10.8308  10.8381  10.8484  10.8616  10.8788  10.9519
    10.9982  11.0065  11.0176  11.0279  11.0389  11.0468  11.1737  11.1787
    11.2947  11.3443  11.3463  11.3517  11.3560  11.3703  11.3927  11.4018
    11.4227  11.4353  11.4583  11.4858  11.4924  11.4968  11.5840  11.6015
    11.6018  11.6098  11.6251  11.6307  11.6334  11.6830  11.6861  11.7585
    11.7719  11.7750  11.7994  11.8184  11.8299  11.8403  11.8528  11.8597
    11.8853  11.8916  11.9038  11.9120  11.9276  11.9341  11.9582  11.9671
    11.9678  11.9847  11.9868  11.9928  12.0463  12.1070  12.1550  12.1773
    12.2000  12.2054  12.2184  12.2197  12.2319  12.2672  12.2800  12.2800
    12.2834  12.2967  12.3212  12.3334  12.3667  12.3979  12.4126  12.4217
    12.4610  12.4781  12.4858  12.5038  12.5177  12.5357  12.5376  12.5628
    12.5679  12.5872  12.6118  12.6200  12.6661  12.7109  12.7317  12.7954
    12.8940  12.9860  13.0133  13.0239  13.0557  13.0654  13.1465  13.1524
    13.1786  13.2161  13.2353  13.2435  13.2524  13.3110  13.3216  13.4068
    13.4544  13.5560  13.6134  13.6412  13.6980  14.4805  14.5304  14.6262
    14.6478  14.7036  14.7280  14.7617  14.8405  14.8585  14.8732  14.9456
    15.0192  15.0534  15.1376  15.2130  15.3544  15.4524  15.5355  15.5734
    15.6093  15.7605  15.8114  15.8686  15.8765  15.9872  15.9874  16.0304
    16.0568  16.0579  16.0842  16.0978  16.1480  16.1703  16.1720  16.1776
    16.2125  16.2210  16.2246  16.2444  16.2575  16.2668  16.3033  16.3981
    16.4573  16.5230  16.5362  16.6318  16.7178  16.8713  16.9876  17.0747
    17.1461  17.2392  17.2877  17.3116  17.4005  17.4687  17.6291  17.6444
    17.7046  17.7249  17.8044  17.8099  17.8422  17.8518  17.9498  17.9798
    18.0079  18.0427  18.1330  18.2821  19.2139  19.3063  19.3382  19.3843

          k =-0.5000 0.0000 0.5734 ( 31696 PWs)   bands (ev):

   -66.7030 -66.6822 -66.6718 -66.6474 -66.6473 -66.6436 -66.6324 -66.6093
   -66.5856 -62.3802 -62.3672 -62.3571 -62.3518 -62.3499 -62.3303 -62.3270
   -62.3246 -62.3149 -35.4649 -35.4572 -35.4418 -35.4343 -35.4330 -35.4202
   -35.4193 -35.4172 -35.4137 -35.4036 -35.4003 -35.3955 -35.3935 -35.3904
   -35.3895 -35.3885 -35.3864 -35.3773 -35.3767 -35.3755 -35.3664 -35.3593
   -35.3532 -35.3361 -35.3332 -35.3267 -35.3216 -31.2200 -31.2179 -31.2096
   -31.1947 -31.1943 -31.1926 -31.1906 -31.1889 -31.1808 -31.1800 -31.1769
   -31.1767 -31.1740 -31.1731 -31.1710 -31.1649 -31.1639 -31.1627 -31.1606
   -31.1573 -31.1467 -31.1460 -31.1372 -31.1344 -31.1329 -31.1321 -31.1309
     6.5574   6.5752   6.5925   6.6084   7.8405   7.8539   7.8695   7.8823
     7.8983   7.9113   7.9240   7.9370   8.2712   8.2737   8.3042   8.3049
     8.5203   8.5208   8.5326   8.5332   8.6713   8.6719   8.6813   8.6866
     8.6900   8.6933   8.6996   8.7060   8.7063   8.7193   8.7436   8.7515
     8.7712   8.7732   8.7870   8.8011   8.9826   8.9986   9.0118   9.0304
     9.0392   9.0440   9.0474   9.0569   9.2097   9.2139   9.2140   9.2209
     9.2231   9.2270   9.2289   9.2360   9.2447   9.2498   9.2529   9.2574
     9.2696   9.2706   9.2794   9.2809   9.2877   9.3132   9.3957   9.4040
     9.4195   9.4241   9.4248   9.4573   9.4585   9.4630   9.4676   9.4759
     9.4917   9.4952   9.5070   9.5220   9.5285   9.5383   9.5490   9.5591
     9.5887   9.5991   9.7539   9.7562   9.7947   9.8044   9.8065   9.8297
     9.8320   9.8392   9.8492   9.8501   9.8519   9.8585   9.8612   9.8704
     9.9545   9.9653   9.9757   9.9758  10.0472  10.0518  10.0540  10.0640
    10.3880  10.3937  10.4010  10.4011  10.4090  10.4105  10.4277  10.4606
    10.4717  10.4769  10.4854  10.4855  10.4913  10.4945  10.5059  10.5096
    10.5298  10.5448  10.5512  10.5752  10.5896  10.5912  10.6114  10.6161
    10.6358  10.6452  10.6601  10.6665  10.6790  10.6986  10.7004  10.7143
    10.7799  10.8077  10.8820  10.8889  10.9926  11.0039  11.0391  11.0506
    11.1329  11.1371  11.1487  11.1573  11.1585  11.1859  11.1915  11.1946
    11.2105  11.2113  11.2941  11.3348  11.3456  11.3500  11.3571  11.3621
    11.3706  11.3736  11.3998  11.4031  11.4269  11.4377  11.5039  11.5105
    11.5288  11.5464  11.5715  11.5729  11.5789  11.5952  11.6037  11.6041
    11.6242  11.6267  11.7288  11.7449  11.7575  11.7617  11.8199  11.8591
    11.8682  11.9321  11.9384  11.9426  11.9607  11.9794  11.9944  11.9969
    12.0115  12.0196  12.0269  12.0357  12.0367  12.0383  12.1177  12.1274
    12.1342  12.1484  12.1736  12.2254  12.2444  12.2564  12.3386  12.3408
    12.3668  12.3669  12.3956  12.4200  12.4395  12.4582  12.4714  12.4768
    12.5062  12.5323  12.5390  12.5480  12.5702  12.5767  12.6004  12.6279
    12.6383  12.6434  12.6452  12.6518  12.6701  12.8021  12.8173  12.8372
    12.8618  12.8970  12.9219  12.9402  13.0211  13.0303  13.0520  13.1387
    13.1760  13.3925  13.5038  13.5161  13.6867  13.7139  13.7597  13.8795
    13.8915  13.9785  13.9827  14.0831  14.0907  14.1827  14.2210  14.2736
    14.2809  14.3268  14.3560  14.5462  14.5591  14.6313  14.6816  15.1515
    15.1667  15.2298  15.3263  15.3424  15.3798  15.5173  15.5454  15.5896
    15.6180  15.6717  15.6865  15.9537  15.9624  16.0035  16.0848  16.1031
    16.1289  16.1460  16.1497  16.1535  16.1822  16.2028  16.2581  16.2625
    16.2860  16.2890  16.3023  16.3145  16.3227  16.3250  16.4061  16.4792
    16.4865  16.5355  16.5449  16.5773  16.6118  16.6265  16.6697  16.6711
    16.7241  16.7272  16.7962  16.8294  16.8643  16.9044  16.9484  16.9966
    17.0663  17.1125  17.1576  17.1984  18.6356  18.6608  18.7149  18.7379
    18.8176  18.8217  18.8354  18.8403  18.9371  18.9486  18.9567  18.9648

     the Fermi energy is    14.7919 ev

!    total energy              =  -33062.60069306 Ry
     Harris-Foulkes estimate   =  -33062.60067248 Ry
     estimated scf accuracy    <       0.00000065 Ry

     total all-electron energy =  -1410574.691067 Ry

     The total energy is the sum of the following terms:

     one-electron contribution =   -1646.09436365 Ry
     hartree contribution      =    1490.29447082 Ry
     xc contribution           =   -1658.75759351 Ry
     ewald contribution        =   -4919.25534656 Ry
     one-center paw contrib.   =  -26328.78786015 Ry

     total magnetization       =    -0.00 Bohr mag/cell
     absolute magnetization    =    78.12 Bohr mag/cell

     convergence has been achieved in  21 iterations

     Writing output data file mnau2.save
 
     init_run     :     52.04s CPU     52.76s WALL (       1 calls)
     electrons    :   3158.71s CPU   3212.55s WALL (       1 calls)

     Called by init_run:
     wfcinit      :     46.14s CPU     46.63s WALL (       1 calls)
     potinit      :      2.50s CPU      2.55s WALL (       1 calls)

     Called by electrons:
     c_bands      :   2813.44s CPU   2857.62s WALL (      21 calls)
     sum_band     :    289.87s CPU    296.03s WALL (      21 calls)
     v_of_rho     :      5.68s CPU      5.86s WALL (      22 calls)
     newd         :     17.83s CPU     20.25s WALL (      22 calls)
     PAW_pot      :     32.62s CPU     33.11s WALL (      22 calls)
     mix_rho      :      1.14s CPU      1.28s WALL (      21 calls)

     Called by c_bands:
     init_us_2    :     10.43s CPU     10.48s WALL (     688 calls)
     cegterg      :   2748.22s CPU   2791.69s WALL (     336 calls)

     Called by sum_band:
     sum_band:bec :      1.67s CPU      1.67s WALL (     336 calls)
     addusdens    :     31.78s CPU     34.56s WALL (      21 calls)

     Called by *egterg:
     h_psi        :    978.01s CPU    989.28s WALL (    1310 calls)
     s_psi        :    237.11s CPU    237.36s WALL (    1310 calls)
     g_psi        :      3.68s CPU      3.68s WALL (     958 calls)
     cdiaghg      :    973.37s CPU    974.31s WALL (    1294 calls)

     Called by h_psi:
     h_psi:pot    :    968.96s CPU    980.17s WALL (    1310 calls)
     h_psi:calbec :    236.71s CPU    239.27s WALL (    1310 calls)
     vloc_psi     :    493.71s CPU    502.00s WALL (    1310 calls)
     add_vuspsi   :    238.52s CPU    238.88s WALL (    1310 calls)

     General routines
     calbec       :    338.25s CPU    341.80s WALL (    1646 calls)
     fft          :      5.29s CPU      5.64s WALL (     672 calls)
     ffts         :      0.10s CPU      0.11s WALL (      86 calls)
     fftw         :    467.10s CPU    474.89s WALL (  754832 calls)
     interpolate  :      0.84s CPU      0.89s WALL (      86 calls)
 
     Parallel routines
     fft_scatt_xy :     57.78s CPU     58.57s WALL (  755590 calls)
     fft_scatt_yz :    123.36s CPU    126.91s WALL (  755590 calls)
 
     PWSCF        : 53m36.11s CPU    54m44.60s WALL

 
   This run was terminated on:   5:48:37   8Mar2019            

=------------------------------------------------------------------------------=
   JOB DONE.
=------------------------------------------------------------------------------=
