
     Program PWSCF v.6.2 (svn rev. 14038) starts on  8Mar2019 at  6:43:26 

     This program is part of the open-source Quantum ESPRESSO suite
     for quantum simulation of materials; please cite
         "P. Giannozzi et al., J. Phys.:Condens. Matter 21 395502 (2009);
         "P. Giannozzi et al., J. Phys.:Condens. Matter 29 465901 (2017);
          URL http://www.quantum-espresso.org", 
     in publications or presentations arising from this work. More details at
     http://www.quantum-espresso.org/quote

     Parallel version (MPI), running on    16 processors

     MPI processes distributed on     1 nodes
     R & G space division:  proc/nbgrp/npool/nimage =      16
     Waiting for input...
     Reading input from standard input

     Current dimensions of program PWSCF are:
     Max number of different atomic species (ntypx) = 10
     Max number of k-points (npk) =  40000
     Max angular momentum in pseudopotentials (lmaxx) =  3
               file Mn.pbe-spn-kjpaw_psl.0.3.1.UPF: wavefunction(s)  3P 3D renormalized
               file Mn.pbe-spn-kjpaw_psl.0.3.1.UPF: wavefunction(s)  3P 3D renormalized
               file Au.pbe-dn-kjpaw_psl.0.1.UPF: wavefunction(s)  6S 6P 5D renormalized

     Subspace diagonalization in iterative solution of the eigenvalue problem:
     a serial algorithm will be used

 
     Parallelization info
     --------------------
     sticks:   dense  smooth     PW     G-vecs:    dense   smooth      PW
     Min         736     331     90                52486    15847    2256
     Max         737     332     91                52489    15850    2259
     Sum       11785    5297   1449               839803   253559   36125
 


     bravais-lattice index     =            0
     lattice parameter (alat)  =      19.2459  a.u.
     unit-cell volume          =    6216.1497 (a.u.)^3
     number of atoms/cell      =           54
     number of atomic types    =            3
     number of electrons       =       666.00
     number of Kohn-Sham states=          400
     kinetic-energy cutoff     =      45.0000  Ry
     charge density cutoff     =     400.0000  Ry
     convergence threshold     =      1.0E-06
     mixing beta               =       0.1000
     number of iterations used =            8  plain     mixing
     Exchange-correlation      = SLA PW PBX PBC ( 1  4  3  4 0 0)

     celldm(1)=  19.245946  celldm(2)=   0.000000  celldm(3)=   0.000000
     celldm(4)=   0.000000  celldm(5)=   0.000000  celldm(6)=   0.000000

     crystal axes: (cart. coord. in units of alat)
               a(1) = (   1.000000   0.000000   0.000000 )  
               a(2) = (   0.000000   1.000000   0.000000 )  
               a(3) = (   0.000000   0.000000   0.871974 )  

     reciprocal axes: (cart. coord. in units 2 pi/alat)
               b(1) = (  1.000000  0.000000  0.000000 )  
               b(2) = (  0.000000  1.000000  0.000000 )  
               b(3) = (  0.000000  0.000000  1.146823 )  


     PseudoPot. # 1 for Mn read from file:
     ./pseudo/Mn.pbe-spn-kjpaw_psl.0.3.1.UPF
     MD5 check sum: 7eef95dd2aae66803482eea66ebeebf1
     Pseudo is Projector augmented-wave + core cor, Zval = 15.0
     Generated using "atomic" code by A. Dal Corso v.5.0.99 svn rev. 10869
     Shape of augmentation charge: PSQ
     Using radial grid of 1187 points,  6 beta functions with: 
                l(1) =   0
                l(2) =   0
                l(3) =   1
                l(4) =   1
                l(5) =   2
                l(6) =   2
     Q(r) pseudized with 0 coefficients 


     PseudoPot. # 2 for Mn read from file:
     ./pseudo/Mn.pbe-spn-kjpaw_psl.0.3.1.UPF
     MD5 check sum: 7eef95dd2aae66803482eea66ebeebf1
     Pseudo is Projector augmented-wave + core cor, Zval = 15.0
     Generated using "atomic" code by A. Dal Corso v.5.0.99 svn rev. 10869
     Shape of augmentation charge: PSQ
     Using radial grid of 1187 points,  6 beta functions with: 
                l(1) =   0
                l(2) =   0
                l(3) =   1
                l(4) =   1
                l(5) =   2
                l(6) =   2
     Q(r) pseudized with 0 coefficients 


     PseudoPot. # 3 for Au read from file:
     ./pseudo/Au.pbe-dn-kjpaw_psl.0.1.UPF
     MD5 check sum: 5c9b92683623e7ae2ab3f8e525febab6
     Pseudo is Projector augmented-wave + core cor, Zval = 11.0
     Generated using "atomic" code by A. Dal Corso v.5.0.2 svn rev. 9415
     Shape of augmentation charge: PSQ
     Using radial grid of 1279 points,  6 beta functions with: 
                l(1) =   0
                l(2) =   0
                l(3) =   1
                l(4) =   1
                l(5) =   2
                l(6) =   2
     Q(r) pseudized with 0 coefficients 


     atomic species   valence    mass     pseudopotential
        Mn1           15.00    54.93800     Mn( 1.00)
        Mn2           15.00    54.93800     Mn( 1.00)
        Au            11.00   196.96600     Au( 1.00)

     Starting magnetic structure 
     atomic species   magnetization
        Mn1          0.800
        Mn2         -0.800
        Au           0.000

      2 Sym. Ops. (no inversion) found



   Cartesian axes

     site n.     atom                  positions (alat units)
         1           Mn1 tau(   1) = (   0.0000000   0.0000000   0.0000000  )
         2           Mn1 tau(   2) = (   0.0000000   0.3333300   0.0000000  )
         3           Mn2 tau(   3) = (   0.0000000   0.6666700   0.0000000  )
         4           Mn2 tau(   4) = (   0.3333300   0.0000000   0.0000000  )
         5           Mn2 tau(   5) = (   0.3333300   0.3333300   0.0000000  )
         6           Mn1 tau(   6) = (   0.3333300   0.6666700   0.0000000  )
         7           Mn2 tau(   7) = (   0.6666700   0.0000000   0.0000000  )
         8           Mn1 tau(   8) = (   0.6666700   0.3333300   0.0000000  )
         9           Mn1 tau(   9) = (   0.6666700   0.6666700   0.0000000  )
        10           Mn2 tau(  10) = (   0.1666700   0.1666700   0.4359871  )
        11           Mn2 tau(  11) = (   0.1666700   0.5000000   0.4359871  )
        12           Mn1 tau(  12) = (   0.1666700   0.8333300   0.4359871  )
        13           Mn1 tau(  13) = (   0.5000000   0.1666700   0.4359871  )
        14           Mn1 tau(  14) = (   0.5000000   0.5000000   0.4359871  )
        15           Mn2 tau(  15) = (   0.5000000   0.8333300   0.4359871  )
        16           Mn1 tau(  16) = (   0.8333300   0.1666700   0.4359871  )
        17           Mn2 tau(  17) = (   0.8333300   0.5000000   0.4359871  )
        18           Mn2 tau(  18) = (   0.8333300   0.8333300   0.4359871  )
        19           Au  tau(  19) = (   0.1666700   0.1666700   0.7327374  )
        20           Au  tau(  20) = (   0.1666700   0.5000000   0.7327374  )
        21           Au  tau(  21) = (   0.1666700   0.8333300   0.7327374  )
        22           Au  tau(  22) = (   0.5000000   0.1666700   0.7327374  )
        23           Au  tau(  23) = (   0.5000000   0.5000000   0.7327374  )
        24           Au  tau(  24) = (   0.5000000   0.8333300   0.7327374  )
        25           Au  tau(  25) = (   0.8333300   0.1666700   0.7327374  )
        26           Au  tau(  26) = (   0.8333300   0.5000000   0.7327374  )
        27           Au  tau(  27) = (   0.8333300   0.8333300   0.7327374  )
        28           Au  tau(  28) = (   0.1666700   0.1666700   0.1392369  )
        29           Au  tau(  29) = (   0.1666700   0.5000000   0.1392369  )
        30           Au  tau(  30) = (   0.1666700   0.8333300   0.1392369  )
        31           Au  tau(  31) = (   0.5000000   0.1666700   0.1392369  )
        32           Au  tau(  32) = (   0.5000000   0.5000000   0.1392369  )
        33           Au  tau(  33) = (   0.5000000   0.8333300   0.1392369  )
        34           Au  tau(  34) = (   0.8333300   0.1666700   0.1392369  )
        35           Au  tau(  35) = (   0.8333300   0.5000000   0.1392369  )
        36           Au  tau(  36) = (   0.8333300   0.8333300   0.1392369  )
        37           Au  tau(  37) = (   0.0000000   0.0000000   0.2967503  )
        38           Au  tau(  38) = (   0.0000000   0.3333300   0.2967503  )
        39           Au  tau(  39) = (   0.0000000   0.6666700   0.2967503  )
        40           Au  tau(  40) = (   0.3333300   0.0000000   0.2967503  )
        41           Au  tau(  41) = (   0.3333300   0.3333300   0.2967503  )
        42           Au  tau(  42) = (   0.3333300   0.6666700   0.2967503  )
        43           Au  tau(  43) = (   0.6666700   0.0000000   0.2967503  )
        44           Au  tau(  44) = (   0.6666700   0.3333300   0.2967503  )
        45           Au  tau(  45) = (   0.6666700   0.6666700   0.2967503  )
        46           Au  tau(  46) = (   0.0000000   0.0000000   0.5752240  )
        47           Au  tau(  47) = (   0.0000000   0.3333300   0.5752240  )
        48           Au  tau(  48) = (   0.0000000   0.6666700   0.5752240  )
        49           Au  tau(  49) = (   0.3333300   0.0000000   0.5752240  )
        50           Au  tau(  50) = (   0.3333300   0.3333300   0.5752240  )
        51           Au  tau(  51) = (   0.3333300   0.6666700   0.5752240  )
        52           Au  tau(  52) = (   0.6666700   0.0000000   0.5752240  )
        53           Au  tau(  53) = (   0.6666700   0.3333300   0.5752240  )
        54           Au  tau(  54) = (   0.6666700   0.6666700   0.5752240  )

     number of k points=     8 (tetrahedron method)
                       cart. coord. in units 2pi/alat
        k(    1) = (   0.0000000   0.0000000   0.0000000), wk =   0.1250000
        k(    2) = (   0.0000000   0.0000000  -0.5734114), wk =   0.1250000
        k(    3) = (   0.0000000  -0.5000000   0.0000000), wk =   0.1250000
        k(    4) = (   0.0000000  -0.5000000  -0.5734114), wk =   0.1250000
        k(    5) = (  -0.5000000  -0.5000000   0.0000000), wk =   0.1250000
        k(    6) = (  -0.5000000  -0.5000000  -0.5734114), wk =   0.1250000
        k(    7) = (  -0.5000000   0.0000000   0.0000000), wk =   0.1250000
        k(    8) = (  -0.5000000   0.0000000   0.5734114), wk =   0.1250000

     Dense  grid:   839803 G-vectors     FFT dimensions: ( 125, 125, 108)

     Smooth grid:   253559 G-vectors     FFT dimensions: (  90,  90,  72)

     Estimated max dynamical RAM per process >     570.13 MB

     Estimated total dynamical RAM >       8.91 GB
     Generating pointlists ...
     new r_m :   0.1129 (alat units)  2.1733 (a.u.) for type    1
     new r_m :   0.1129 (alat units)  2.1733 (a.u.) for type    2
     new r_m :   0.1129 (alat units)  2.1733 (a.u.) for type    3

     Check: negative/imaginary core charge=   -0.000006    0.000000

     Initial potential from superposition of free atoms

     starting charge  665.98709, renormalised to  666.00000
     Starting wfc are  504 randomized atomic wfcs
     Checking if some PAW data can be deallocated... 

     total cpu time spent up to now is       56.6 secs

     Self-consistent Calculation

     iteration #  1     ecut=    45.00 Ry     beta= 0.10
     Davidson diagonalization with overlap
     ethr =  1.00E-02,  avg # of iterations =  3.4

     total cpu time spent up to now is      222.6 secs

     total energy              =  -33047.22048987 Ry
     Harris-Foulkes estimate   =  -33044.08005031 Ry
     estimated scf accuracy    <      26.95402092 Ry

     total magnetization       =     0.05 Bohr mag/cell
     absolute magnetization    =    92.06 Bohr mag/cell

     iteration #  2     ecut=    45.00 Ry     beta= 0.10
     Davidson diagonalization with overlap
     ethr =  4.05E-03,  avg # of iterations =  1.0

     total cpu time spent up to now is      332.1 secs

     total energy              =  -33058.55471935 Ry
     Harris-Foulkes estimate   =  -33047.39812444 Ry
     estimated scf accuracy    <      21.31462648 Ry

     total magnetization       =     0.04 Bohr mag/cell
     absolute magnetization    =    91.69 Bohr mag/cell

     iteration #  3     ecut=    45.00 Ry     beta= 0.10
     Davidson diagonalization with overlap
     ethr =  3.20E-03,  avg # of iterations =  2.2

     total cpu time spent up to now is      468.9 secs

     total energy              =  -33066.23239461 Ry
     Harris-Foulkes estimate   =  -33061.33145302 Ry
     estimated scf accuracy    <       8.85077393 Ry

     total magnetization       =    -0.02 Bohr mag/cell
     absolute magnetization    =    85.73 Bohr mag/cell

     iteration #  4     ecut=    45.00 Ry     beta= 0.10
     Davidson diagonalization with overlap
     ethr =  1.33E-03,  avg # of iterations =  4.1

     total cpu time spent up to now is      677.2 secs

     total energy              =  -33058.47685458 Ry
     Harris-Foulkes estimate   =  -33068.96455102 Ry
     estimated scf accuracy    <      52.81358557 Ry

     total magnetization       =    -0.17 Bohr mag/cell
     absolute magnetization    =    71.78 Bohr mag/cell

     iteration #  5     ecut=    45.00 Ry     beta= 0.10
     Davidson diagonalization with overlap
     ethr =  1.33E-03,  avg # of iterations =  4.6

     total cpu time spent up to now is      920.2 secs

     total energy              =  -33062.03685856 Ry
     Harris-Foulkes estimate   =  -33062.48264410 Ry
     estimated scf accuracy    <       3.30586817 Ry

     total magnetization       =     0.03 Bohr mag/cell
     absolute magnetization    =    83.55 Bohr mag/cell

     iteration #  6     ecut=    45.00 Ry     beta= 0.10
     Davidson diagonalization with overlap
     ethr =  4.96E-04,  avg # of iterations =  3.6

     total cpu time spent up to now is     1075.7 secs

     total energy              =  -33062.52348131 Ry
     Harris-Foulkes estimate   =  -33062.52604741 Ry
     estimated scf accuracy    <       0.23319545 Ry

     total magnetization       =     0.38 Bohr mag/cell
     absolute magnetization    =    79.43 Bohr mag/cell

     iteration #  7     ecut=    45.00 Ry     beta= 0.10
     Davidson diagonalization with overlap
     ethr =  3.50E-05,  avg # of iterations =  4.8

     total cpu time spent up to now is     1269.7 secs

     total energy              =  -33062.55481112 Ry
     Harris-Foulkes estimate   =  -33062.55999951 Ry
     estimated scf accuracy    <       0.06565528 Ry

     total magnetization       =     0.49 Bohr mag/cell
     absolute magnetization    =    78.78 Bohr mag/cell

     iteration #  8     ecut=    45.00 Ry     beta= 0.10
     Davidson diagonalization with overlap
     ethr =  9.86E-06,  avg # of iterations =  4.3

     total cpu time spent up to now is     1456.6 secs

     total energy              =  -33062.55984481 Ry
     Harris-Foulkes estimate   =  -33062.57415159 Ry
     estimated scf accuracy    <       0.17460313 Ry

     total magnetization       =     0.48 Bohr mag/cell
     absolute magnetization    =    77.98 Bohr mag/cell

     iteration #  9     ecut=    45.00 Ry     beta= 0.10
     Davidson diagonalization with overlap
     ethr =  9.86E-06,  avg # of iterations =  1.1

     total cpu time spent up to now is     1566.5 secs

     total energy              =  -33062.55983303 Ry
     Harris-Foulkes estimate   =  -33062.56287595 Ry
     estimated scf accuracy    <       0.07887062 Ry

     total magnetization       =     0.48 Bohr mag/cell
     absolute magnetization    =    78.05 Bohr mag/cell

     iteration # 10     ecut=    45.00 Ry     beta= 0.10
     Davidson diagonalization with overlap
     ethr =  9.86E-06,  avg # of iterations =  2.1

     total cpu time spent up to now is     1689.7 secs

     total energy              =  -33062.55809948 Ry
     Harris-Foulkes estimate   =  -33062.56422714 Ry
     estimated scf accuracy    <       0.02336444 Ry

     total magnetization       =     0.53 Bohr mag/cell
     absolute magnetization    =    78.25 Bohr mag/cell

     iteration # 11     ecut=    45.00 Ry     beta= 0.10
     Davidson diagonalization with overlap
     ethr =  3.51E-06,  avg # of iterations =  4.4

     total cpu time spent up to now is     1879.2 secs

     total energy              =  -33062.56060030 Ry
     Harris-Foulkes estimate   =  -33062.56393624 Ry
     estimated scf accuracy    <       0.00767400 Ry

     total magnetization       =     0.56 Bohr mag/cell
     absolute magnetization    =    78.55 Bohr mag/cell

     iteration # 12     ecut=    45.00 Ry     beta= 0.10
     Davidson diagonalization with overlap
     ethr =  1.15E-06,  avg # of iterations =  3.2

     total cpu time spent up to now is     2045.4 secs

     total energy              =  -33062.56391125 Ry
     Harris-Foulkes estimate   =  -33062.56365328 Ry
     estimated scf accuracy    <       0.00877268 Ry

     total magnetization       =     0.57 Bohr mag/cell
     absolute magnetization    =    78.54 Bohr mag/cell

     iteration # 13     ecut=    45.00 Ry     beta= 0.10
     Davidson diagonalization with overlap
     ethr =  1.15E-06,  avg # of iterations =  2.0

     total cpu time spent up to now is     2173.7 secs

     total energy              =  -33062.56505120 Ry
     Harris-Foulkes estimate   =  -33062.56469303 Ry
     estimated scf accuracy    <       0.00047991 Ry

     total magnetization       =     0.59 Bohr mag/cell
     absolute magnetization    =    78.36 Bohr mag/cell

     iteration # 14     ecut=    45.00 Ry     beta= 0.10
     Davidson diagonalization with overlap
     ethr =  7.21E-08,  avg # of iterations =  4.0

     total cpu time spent up to now is     2348.9 secs

     total energy              =  -33062.56526147 Ry
     Harris-Foulkes estimate   =  -33062.56514706 Ry
     estimated scf accuracy    <       0.00019871 Ry

     total magnetization       =     0.59 Bohr mag/cell
     absolute magnetization    =    78.34 Bohr mag/cell

     iteration # 15     ecut=    45.00 Ry     beta= 0.10
     Davidson diagonalization with overlap
     ethr =  2.98E-08,  avg # of iterations =  1.6

     total cpu time spent up to now is     2466.4 secs

     total energy              =  -33062.56545557 Ry
     Harris-Foulkes estimate   =  -33062.56525657 Ry
     estimated scf accuracy    <       0.00012863 Ry

     total magnetization       =     0.59 Bohr mag/cell
     absolute magnetization    =    78.32 Bohr mag/cell

     iteration # 16     ecut=    45.00 Ry     beta= 0.10
     Davidson diagonalization with overlap
     ethr =  1.93E-08,  avg # of iterations =  2.0

     total cpu time spent up to now is     2592.9 secs

     total energy              =  -33062.56557408 Ry
     Harris-Foulkes estimate   =  -33062.56545632 Ry
     estimated scf accuracy    <       0.00007216 Ry

     total magnetization       =     0.60 Bohr mag/cell
     absolute magnetization    =    78.30 Bohr mag/cell

     iteration # 17     ecut=    45.00 Ry     beta= 0.10
     Davidson diagonalization with overlap
     ethr =  1.08E-08,  avg # of iterations =  2.9

     total cpu time spent up to now is     2741.7 secs

     total energy              =  -33062.56561900 Ry
     Harris-Foulkes estimate   =  -33062.56557084 Ry
     estimated scf accuracy    <       0.00002339 Ry

     total magnetization       =     0.61 Bohr mag/cell
     absolute magnetization    =    78.27 Bohr mag/cell

     iteration # 18     ecut=    45.00 Ry     beta= 0.10
     Davidson diagonalization with overlap
     ethr =  3.51E-09,  avg # of iterations =  3.0

     total cpu time spent up to now is     2906.8 secs

     total energy              =  -33062.56563100 Ry
     Harris-Foulkes estimate   =  -33062.56561398 Ry
     estimated scf accuracy    <       0.00000904 Ry

     total magnetization       =     0.62 Bohr mag/cell
     absolute magnetization    =    78.26 Bohr mag/cell

     iteration # 19     ecut=    45.00 Ry     beta= 0.10
     Davidson diagonalization with overlap
     ethr =  1.36E-09,  avg # of iterations =  2.8

     total cpu time spent up to now is     3059.3 secs

     total energy              =  -33062.56563276 Ry
     Harris-Foulkes estimate   =  -33062.56562511 Ry
     estimated scf accuracy    <       0.00000311 Ry

     total magnetization       =     0.62 Bohr mag/cell
     absolute magnetization    =    78.25 Bohr mag/cell

     iteration # 20     ecut=    45.00 Ry     beta= 0.10
     Davidson diagonalization with overlap
     ethr =  4.67E-10,  avg # of iterations =  2.1

     total cpu time spent up to now is     3190.3 secs

     total energy              =  -33062.56563646 Ry
     Harris-Foulkes estimate   =  -33062.56563086 Ry
     estimated scf accuracy    <       0.00000177 Ry

     total magnetization       =     0.62 Bohr mag/cell
     absolute magnetization    =    78.24 Bohr mag/cell

     iteration # 21     ecut=    45.00 Ry     beta= 0.10
     Davidson diagonalization with overlap
     ethr =  2.66E-10,  avg # of iterations =  2.6

     total cpu time spent up to now is     3338.9 secs

     total energy              =  -33062.56563923 Ry
     Harris-Foulkes estimate   =  -33062.56563526 Ry
     estimated scf accuracy    <       0.00000106 Ry

     total magnetization       =     0.62 Bohr mag/cell
     absolute magnetization    =    78.24 Bohr mag/cell

     iteration # 22     ecut=    45.00 Ry     beta= 0.10
     Davidson diagonalization with overlap
     ethr =  1.59E-10,  avg # of iterations =  2.2
 
     Magnetic moment per site:
     atom:    1    charge:   13.5727    magn:    4.0482    constr:    0.0000
     atom:    2    charge:   13.5799    magn:    3.9686    constr:    0.0000
     atom:    3    charge:   13.5812    magn:   -3.9691    constr:    0.0000
     atom:    4    charge:   13.5808    magn:   -3.9511    constr:    0.0000
     atom:    5    charge:   13.5741    magn:   -4.0350    constr:    0.0000
     atom:    6    charge:   13.5727    magn:    4.0481    constr:    0.0000
     atom:    7    charge:   13.5742    magn:   -4.0351    constr:    0.0000
     atom:    8    charge:   13.5745    magn:    4.0156    constr:    0.0000
     atom:    9    charge:   13.5800    magn:    3.9685    constr:    0.0000
     atom:   10    charge:   13.5829    magn:   -3.9470    constr:    0.0000
     atom:   11    charge:   13.5777    magn:   -3.9826    constr:    0.0000
     atom:   12    charge:   13.5722    magn:    4.0808    constr:    0.0000
     atom:   13    charge:   13.5802    magn:    3.9766    constr:    0.0000
     atom:   14    charge:   13.5740    magn:    4.0429    constr:    0.0000
     atom:   15    charge:   13.5830    magn:   -3.9470    constr:    0.0000
     atom:   16    charge:   13.5742    magn:    4.0430    constr:    0.0000
     atom:   17    charge:   13.5695    magn:   -4.0239    constr:    0.0000
     atom:   18    charge:   13.5779    magn:   -3.9826    constr:    0.0000
     atom:   19    charge:    9.1195    magn:   -0.0000    constr:    0.0000
     atom:   20    charge:    9.1210    magn:   -0.0112    constr:    0.0000
     atom:   21    charge:    9.1214    magn:    0.0143    constr:    0.0000
     atom:   22    charge:    9.1211    magn:   -0.0137    constr:    0.0000
     atom:   23    charge:    9.1207    magn:    0.0447    constr:    0.0000
     atom:   24    charge:    9.1195    magn:   -0.0000    constr:    0.0000
     atom:   25    charge:    9.1208    magn:    0.0447    constr:    0.0000
     atom:   26    charge:    9.1206    magn:    0.0182    constr:    0.0000
     atom:   27    charge:    9.1211    magn:   -0.0112    constr:    0.0000
     atom:   28    charge:    9.1195    magn:   -0.0000    constr:    0.0000
     atom:   29    charge:    9.1210    magn:   -0.0112    constr:    0.0000
     atom:   30    charge:    9.1214    magn:    0.0143    constr:    0.0000
     atom:   31    charge:    9.1211    magn:   -0.0137    constr:    0.0000
     atom:   32    charge:    9.1207    magn:    0.0447    constr:    0.0000
     atom:   33    charge:    9.1195    magn:   -0.0000    constr:    0.0000
     atom:   34    charge:    9.1208    magn:    0.0447    constr:    0.0000
     atom:   35    charge:    9.1206    magn:    0.0182    constr:    0.0000
     atom:   36    charge:    9.1211    magn:   -0.0112    constr:    0.0000
     atom:   37    charge:    9.1209    magn:    0.0154    constr:    0.0000
     atom:   38    charge:    9.1201    magn:   -0.0150    constr:    0.0000
     atom:   39    charge:    9.1195    magn:   -0.0291    constr:    0.0000
     atom:   40    charge:    9.1218    magn:   -0.0081    constr:    0.0000
     atom:   41    charge:    9.1208    magn:   -0.0062    constr:    0.0000
     atom:   42    charge:    9.1208    magn:    0.0154    constr:    0.0000
     atom:   43    charge:    9.1210    magn:   -0.0062    constr:    0.0000
     atom:   44    charge:    9.1212    magn:    0.0473    constr:    0.0000
     atom:   45    charge:    9.1200    magn:   -0.0150    constr:    0.0000
     atom:   46    charge:    9.1209    magn:    0.0154    constr:    0.0000
     atom:   47    charge:    9.1201    magn:   -0.0150    constr:    0.0000
     atom:   48    charge:    9.1195    magn:   -0.0291    constr:    0.0000
     atom:   49    charge:    9.1218    magn:   -0.0081    constr:    0.0000
     atom:   50    charge:    9.1208    magn:   -0.0062    constr:    0.0000
     atom:   51    charge:    9.1208    magn:    0.0154    constr:    0.0000
     atom:   52    charge:    9.1210    magn:   -0.0062    constr:    0.0000
     atom:   53    charge:    9.1212    magn:    0.0473    constr:    0.0000
     atom:   54    charge:    9.1200    magn:   -0.0150    constr:    0.0000

     total cpu time spent up to now is     3474.3 secs

     End of self-consistent calculation

 ------ SPIN UP ------------


          k = 0.0000 0.0000 0.0000 ( 31747 PWs)   bands (ev):

   -66.7227 -66.7227 -66.7051 -66.7037 -66.7036 -66.6984 -66.6358 -66.6357
   -66.6342 -62.4508 -62.3718 -62.3718 -62.3648 -62.3581 -62.3580 -62.3428
   -62.3425 -62.3236 -35.5150 -35.5150 -35.4916 -35.4915 -35.4883 -35.4752
   -35.4682 -35.4682 -35.4656 -35.4416 -35.4414 -35.4412 -35.4297 -35.4160
   -35.4159 -35.4112 -35.4111 -35.4013 -35.3923 -35.3921 -35.3914 -35.3913
   -35.3826 -35.3767 -35.3537 -35.3536 -35.3501 -31.2920 -31.2771 -31.2537
   -31.2347 -31.2347 -31.2250 -31.1961 -31.1952 -31.1872 -31.1870 -31.1844
   -31.1839 -31.1806 -31.1805 -31.1781 -31.1734 -31.1733 -31.1730 -31.1729
   -31.1701 -31.1686 -31.1683 -31.1645 -31.1479 -31.1464 -31.1462 -31.1287
     5.6112   7.1307   7.1382   7.2127   7.2200   7.3604   7.8486   7.8832
     7.8888   7.9611   8.0794   8.0799   8.1505   8.1731   8.1814   8.2572
     8.2599   8.2844   8.2873   8.5149   8.5424   8.5560   8.5721   8.5922
     8.6283   8.8583   8.8615   8.8681   8.8797   8.8815   8.8817   8.8825
     8.8865   8.8955   8.9114   8.9151   8.9309   8.9435   8.9681   8.9727
     8.9788   9.0810   9.1183   9.1246   9.1249   9.1345   9.1530   9.1637
     9.1800   9.1955   9.2168   9.2710   9.2868   9.2882   9.3076   9.3260
     9.3435   9.3544   9.3649   9.3696   9.3909   9.4008   9.4039   9.4375
     9.4467   9.4495   9.4501   9.4565   9.4661   9.4672   9.4706   9.5754
     9.5768   9.5876   9.5912   9.6197   9.6219   9.6533   9.6664   9.6681
     9.6690   9.6731   9.6745   9.7396   9.7502   9.7687   9.7825   9.8458
     9.8498   9.9127   9.9191   9.9284   9.9390   9.9438  10.0104  10.0377
    10.0523  10.1087  10.1147  10.2111  10.2698  10.2839  10.2915  10.2935
    10.3036  10.3069  10.3126  10.3205  10.3235  10.3265  10.3270  10.3351
    10.3423  10.3434  10.3637  10.3647  10.3670  10.3693  10.3780  10.3815
    10.3999  10.5046  10.5149  10.5170  10.6011  10.6156  10.6216  10.6342
    10.6947  10.7764  10.7874  10.8050  10.8097  10.8133  10.8431  10.8444
    10.8556  10.8637  10.8682  10.8741  10.8768  10.8828  10.8846  10.8974
    10.9088  10.9089  11.0268  11.0284  11.0345  11.0684  11.0732  11.1331
    11.2090  11.2156  11.2281  11.2334  11.2649  11.2747  11.3201  11.3248
    11.3918  11.3937  11.3960  11.3981  11.4078  11.4302  11.4387  11.4392
    11.4858  11.5603  11.5638  11.5873  11.5904  11.5921  11.5976  11.6009
    11.6392  11.6527  11.6857  11.7223  11.7232  11.7483  11.7507  11.7537
    11.8190  11.8534  11.8554  11.8684  11.8784  11.9337  11.9347  11.9426
    11.9453  11.9702  12.0973  12.0982  12.1030  12.1032  12.1352  12.1431
    12.1449  12.1475  12.1482  12.1549  12.1629  12.1720  12.1974  12.1979
    12.2183  12.2440  12.2563  12.2782  12.3097  12.3366  12.3770  12.4238
    12.4277  12.4333  12.4366  12.4487  12.4937  12.5187  12.5262  12.5346
    12.5385  12.5575  12.5629  12.5676  12.5728  12.6241  12.6640  12.6988
    12.7275  12.7285  12.7307  12.8392  12.8420  12.8651  12.9417  13.0054
    13.0418  13.0755  13.1404  13.1859  13.4816  13.5437  13.7532  13.7860
    14.0678  14.1761  14.1805  14.1917  14.2676  14.4109  14.4320  14.4437
    14.6737  14.8431  14.8868  15.0103  15.0122  15.0977  15.2411  15.2694
    15.2905  15.2938  15.3435  15.3446  15.3562  15.3803  15.4796  15.5444
    15.5539  15.5698  15.6635  15.7994  15.8428  15.9016  15.9847  15.9982
    16.0206  16.0357  16.1039  16.1143  16.1367  16.1794  16.1966  16.2235
    16.2310  16.2624  16.2748  16.2826  16.3355  16.3453  16.3666  16.3939
    16.4276  16.5082  16.5531  16.6633  16.6885  16.6890  16.7089  16.9248
    16.9541  17.0268  17.1504  17.1692  17.1939  17.2096  17.2780  17.3220
    17.4607  17.5011  17.7847  17.8827  17.9329  17.9448  17.9755  17.9948
    18.2878  18.2992  18.4934  18.9012  19.0318  19.0331  19.1581  19.1960

          k = 0.0000 0.0000-0.5734 ( 31692 PWs)   bands (ev):

   -66.7227 -66.7227 -66.7051 -66.7037 -66.7036 -66.6984 -66.6358 -66.6357
   -66.6342 -62.4508 -62.3718 -62.3718 -62.3648 -62.3581 -62.3580 -62.3428
   -62.3425 -62.3236 -35.5150 -35.5150 -35.4916 -35.4915 -35.4883 -35.4752
   -35.4682 -35.4682 -35.4656 -35.4416 -35.4414 -35.4412 -35.4297 -35.4160
   -35.4159 -35.4112 -35.4111 -35.4013 -35.3923 -35.3921 -35.3914 -35.3913
   -35.3826 -35.3767 -35.3537 -35.3536 -35.3501 -31.2920 -31.2771 -31.2537
   -31.2347 -31.2347 -31.2250 -31.1961 -31.1952 -31.1872 -31.1870 -31.1844
   -31.1839 -31.1806 -31.1805 -31.1781 -31.1734 -31.1733 -31.1730 -31.1729
   -31.1701 -31.1686 -31.1683 -31.1645 -31.1479 -31.1464 -31.1462 -31.1287
     6.1717   6.1904   7.5223   7.5422   7.5452   7.5522   7.6012   7.6072
     7.6216   7.6359   8.3014   8.3169   8.3249   8.3365   8.3408   8.3499
     8.3904   8.3978   8.4583   8.4654   8.4704   8.4704   8.4871   8.4941
     8.5213   8.5236   8.6911   8.6989   8.7611   8.7785   8.9403   8.9531
     8.9675   8.9695   8.9719   8.9902   8.9939   9.0120   9.0141   9.0183
     9.0228   9.0369   9.0379   9.0386   9.0689   9.0768   9.2156   9.2183
     9.2326   9.2381   9.2475   9.2498   9.2580   9.2659   9.2705   9.2770
     9.2790   9.2806   9.2864   9.2927   9.2940   9.2946   9.4121   9.4203
     9.4229   9.4244   9.4394   9.4399   9.4622   9.4631   9.4741   9.4773
     9.4783   9.4805   9.4985   9.5111   9.5156   9.5222   9.6331   9.6596
     9.7728   9.7797   9.7854   9.7903   9.8240   9.8256   9.8303   9.8406
     9.8718   9.8724   9.8814   9.8825   9.8831   9.8833   9.8888   9.8909
    10.0561  10.0582  10.0585  10.0612  10.1483  10.1571  10.1572  10.1631
    10.1657  10.1705  10.1739  10.1886  10.1906  10.1966  10.3550  10.3558
    10.3724  10.3780  10.3967  10.4050  10.4071  10.4199  10.4821  10.5068
    10.5806  10.5829  10.6000  10.6018  10.6181  10.6254  10.6276  10.6512
    10.6577  10.6666  10.7352  10.7545  10.7701  10.8066  10.8167  10.8605
    10.9166  10.9327  10.9375  10.9489  10.9516  10.9605  11.0431  11.0883
    11.0892  11.1090  11.1349  11.1423  11.1718  11.1849  11.1987  11.2272
    11.2430  11.2441  11.2453  11.2570  11.2659  11.2669  11.2700  11.2779
    11.2799  11.2818  11.2822  11.2889  11.2934  11.2965  11.2973  11.3033
    11.3035  11.3174  11.3183  11.3244  11.5192  11.5297  11.7105  11.7123
    11.7135  11.7142  11.7144  11.7185  11.7319  11.7337  11.7382  11.7467
    11.7482  11.7522  11.7624  11.7756  11.7863  11.8501  11.8879  11.9209
    11.9737  11.9852  12.0088  12.0147  12.0246  12.0351  12.0669  12.0828
    12.0837  12.1446  12.1543  12.2289  12.2571  12.2579  12.2685  12.4226
    12.4402  12.4428  12.4562  12.4661  12.4746  12.4762  12.4881  12.4986
    12.5131  12.5156  12.5314  12.5422  12.5524  12.6112  12.6118  12.6202
    12.6247  12.6507  12.6515  12.6996  12.7605  12.7686  12.7939  12.8177
    12.8340  12.8632  12.9681  13.0241  13.1214  13.1787  13.1927  13.2469
    13.2568  13.3187  13.4061  13.4535  13.4635  13.5056  13.7158  13.7317
    13.7610  13.8984  14.0133  14.0667  14.0787  14.2552  14.3819  14.5450
    14.7193  14.8353  14.8600  14.9760  15.0020  15.0115  15.0323  15.0680
    15.0940  15.1671  15.1808  15.2092  15.2329  15.3566  15.4398  15.5841
    15.7249  15.7371  15.7375  15.7496  15.8012  15.9229  15.9320  15.9764
    16.0466  16.0584  16.1274  16.1345  16.1362  16.1444  16.1716  16.1789
    16.1905  16.2076  16.2231  16.2306  16.2427  16.2537  16.2823  16.2882
    16.4200  16.4499  16.5545  16.5872  16.6080  16.6288  16.7424  16.7604
    16.7684  16.7968  17.3528  17.4009  17.4046  17.4412  17.5590  17.5612
    17.5830  17.6085  17.7277  17.7452  17.7636  17.7659  17.7732  17.8158
    17.8286  17.8462  18.0939  18.1325  18.1827  18.2366  18.2897  18.3403

          k = 0.0000-0.5000 0.0000 ( 31722 PWs)   bands (ev):

   -66.7227 -66.7227 -66.7051 -66.7037 -66.7036 -66.6984 -66.6358 -66.6357
   -66.6342 -62.4508 -62.3718 -62.3718 -62.3648 -62.3581 -62.3580 -62.3428
   -62.3425 -62.3236 -35.5150 -35.5150 -35.4916 -35.4915 -35.4883 -35.4752
   -35.4682 -35.4682 -35.4656 -35.4416 -35.4414 -35.4412 -35.4297 -35.4160
   -35.4159 -35.4112 -35.4111 -35.4013 -35.3923 -35.3921 -35.3914 -35.3913
   -35.3826 -35.3767 -35.3537 -35.3536 -35.3501 -31.2920 -31.2771 -31.2537
   -31.2347 -31.2347 -31.2250 -31.1961 -31.1952 -31.1872 -31.1870 -31.1844
   -31.1839 -31.1806 -31.1805 -31.1781 -31.1734 -31.1733 -31.1730 -31.1729
   -31.1701 -31.1686 -31.1684 -31.1645 -31.1479 -31.1464 -31.1462 -31.1287
     6.0261   6.0513   7.4038   7.4334   7.4673   7.4755   7.6701   7.6733
     8.1032   8.1096   8.1230   8.1319   8.2139   8.2255   8.2553   8.2807
     8.3992   8.4342   8.4523   8.4656   8.6255   8.6289   8.6496   8.6530
     8.6534   8.6739   8.6771   8.6856   8.7825   8.8047   8.8164   8.8230
     8.8458   8.8626   8.8745   8.8884   8.8918   8.9007   8.9025   8.9213
     8.9288   8.9340   8.9359   8.9507   9.0434   9.0466   9.1524   9.1631
     9.1742   9.2002   9.2147   9.2195   9.2326   9.2508   9.3072   9.3210
     9.3411   9.3622   9.3925   9.4275   9.4679   9.4773   9.4920   9.5178
     9.5327   9.5386   9.5441   9.5613   9.5893   9.5990   9.6100   9.6177
     9.6230   9.6235   9.6273   9.6317   9.6320   9.6343   9.6345   9.6373
     9.6634   9.6684   9.6733   9.6869   9.6990   9.7089   9.7121   9.7255
     9.7333   9.7358   9.7566   9.7756   9.8876   9.8988   9.9286   9.9499
    10.0154  10.0237  10.1562  10.1795  10.2002  10.2043  10.2357  10.2448
    10.2514  10.2665  10.2708  10.2774  10.2803  10.2875  10.3381  10.3575
    10.3738  10.3767  10.3824  10.3824  10.4235  10.4364  10.4562  10.4655
    10.5102  10.5138  10.5271  10.5536  10.5542  10.5600  10.5710  10.5720
    10.6117  10.6463  10.6686  10.6954  10.7018  10.7211  10.7216  10.7261
    10.8127  10.8313  10.8337  10.8419  10.8592  10.8691  10.9247  10.9367
    10.9854  10.9997  11.0088  11.0192  11.0398  11.0480  11.1701  11.1778
    11.2817  11.3423  11.3442  11.3533  11.3603  11.3670  11.3729  11.3920
    11.3930  11.4072  11.4268  11.4577  11.4831  11.5139  11.5489  11.5856
    11.5969  11.5987  11.6372  11.6534  11.6578  11.6679  11.6777  11.7408
    11.7625  11.7819  11.7873  11.8180  11.8318  11.8382  11.8465  11.8545
    11.8691  11.8787  11.8998  11.9011  11.9189  11.9203  11.9344  11.9466
    11.9554  11.9692  11.9783  11.9853  12.0620  12.0936  12.1210  12.1474
    12.1858  12.1955  12.2050  12.2081  12.2217  12.2282  12.2516  12.2716
    12.2814  12.3037  12.3086  12.3658  12.3752  12.3888  12.3947  12.4280
    12.4605  12.4684  12.4835  12.4891  12.5114  12.5234  12.5312  12.5623
    12.5729  12.5785  12.5986  12.6269  12.6754  12.6958  12.7300  12.8351
    12.8550  12.8749  12.9807  13.0282  13.0325  13.0810  13.0853  13.1140
    13.1706  13.1773  13.1899  13.2411  13.2644  13.2819  13.3237  13.3392
    13.4375  13.5344  13.5579  13.6075  13.6354  14.4440  14.4751  14.5827
    14.6561  14.6725  14.6843  14.7741  14.8270  14.8581  14.8756  14.9797
    15.0562  15.1086  15.1707  15.2400  15.2699  15.4096  15.4915  15.5600
    15.7045  15.7074  15.8041  15.8157  15.8867  15.9369  15.9572  16.0267
    16.0535  16.0807  16.0807  16.1053  16.1191  16.1365  16.1505  16.1856
    16.2298  16.2411  16.2543  16.2580  16.2683  16.2820  16.3021  16.3840
    16.4528  16.4919  16.5304  16.6111  16.6448  16.7280  16.9758  17.0468
    17.1584  17.2164  17.2439  17.3273  17.4020  17.4414  17.6170  17.6302
    17.7058  17.7450  17.8099  17.8196  17.8655  17.8892  17.9037  17.9295
    17.9397  18.1073  18.1504  18.2050  19.2522  19.2733  19.3394  19.3539

          k = 0.0000-0.5000-0.5734 ( 31696 PWs)   bands (ev):

   -66.7227 -66.7227 -66.7051 -66.7037 -66.7036 -66.6984 -66.6358 -66.6357
   -66.6342 -62.4508 -62.3718 -62.3718 -62.3648 -62.3581 -62.3580 -62.3428
   -62.3425 -62.3236 -35.5150 -35.5150 -35.4916 -35.4915 -35.4883 -35.4752
   -35.4682 -35.4682 -35.4656 -35.4416 -35.4414 -35.4412 -35.4297 -35.4160
   -35.4159 -35.4112 -35.4111 -35.4013 -35.3923 -35.3921 -35.3914 -35.3913
   -35.3826 -35.3767 -35.3537 -35.3536 -35.3501 -31.2920 -31.2771 -31.2537
   -31.2347 -31.2347 -31.2250 -31.1961 -31.1952 -31.1872 -31.1870 -31.1844
   -31.1839 -31.1806 -31.1805 -31.1781 -31.1734 -31.1733 -31.1730 -31.1729
   -31.1701 -31.1686 -31.1684 -31.1645 -31.1479 -31.1464 -31.1462 -31.1287
     6.5531   6.5689   6.5874   6.6071   7.8352   7.8424   7.8632   7.8802
     7.8933   7.9127   7.9234   7.9363   8.2678   8.2717   8.2990   8.3005
     8.5142   8.5168   8.5252   8.5280   8.6405   8.6447   8.6773   8.6807
     8.6919   8.6937   8.6964   8.7094   8.7315   8.7395   8.7477   8.7506
     8.7646   8.7733   8.7888   8.7992   8.9772   8.9927   9.0110   9.0302
     9.0323   9.0403   9.0442   9.0515   9.2073   9.2100   9.2104   9.2161
     9.2162   9.2221   9.2251   9.2369   9.2449   9.2524   9.2541   9.2585
     9.2609   9.2748   9.2807   9.2826   9.2877   9.3091   9.3871   9.3949
     9.4216   9.4221   9.4275   9.4526   9.4619   9.4669   9.4684   9.4784
     9.4878   9.5045   9.5137   9.5157   9.5240   9.5460   9.5486   9.5529
     9.5696   9.5849   9.7534   9.7556   9.7893   9.7955   9.8013   9.8167
     9.8187   9.8262   9.8452   9.8494   9.8531   9.8619   9.8640   9.8720
     9.9561   9.9590   9.9998  10.0079  10.0340  10.0346  10.0410  10.0469
    10.3766  10.3797  10.3844  10.3860  10.4018  10.4056  10.4098  10.4430
    10.4559  10.4639  10.4709  10.4750  10.4809  10.4816  10.5048  10.5092
    10.5195  10.5271  10.5388  10.5670  10.5775  10.5825  10.6067  10.6077
    10.6267  10.6294  10.6671  10.6673  10.6734  10.6758  10.7215  10.7478
    10.7930  10.7934  10.9185  10.9271  10.9895  10.9935  11.0192  11.0296
    11.1210  11.1305  11.1350  11.1443  11.1554  11.1819  11.2025  11.2057
    11.2112  11.2158  11.2685  11.3048  11.3306  11.3328  11.3576  11.3611
    11.3738  11.3784  11.4192  11.4244  11.4324  11.4354  11.5021  11.5140
    11.5315  11.5524  11.5643  11.5722  11.5793  11.6004  11.6209  11.6292
    11.6380  11.6410  11.7282  11.7423  11.7502  11.7598  11.8117  11.8673
    11.8720  11.9236  11.9318  11.9463  11.9510  11.9782  11.9975  11.9977
    12.0219  12.0232  12.0344  12.0371  12.0381  12.0595  12.0866  12.1355
    12.1413  12.1571  12.1890  12.2121  12.2508  12.2711  12.2903  12.2956
    12.3276  12.3408  12.3622  12.3940  12.4124  12.4613  12.4636  12.4720
    12.4840  12.4915  12.5140  12.5207  12.5256  12.5395  12.5638  12.5920
    12.5985  12.6112  12.6261  12.6393  12.6415  12.6487  12.6492  12.7620
    12.8709  12.9093  12.9111  12.9743  12.9748  13.0441  13.0526  13.0755
    13.0776  13.3641  13.3671  13.3710  13.5611  13.6342  13.7340  13.8666
    13.9261  13.9807  13.9963  14.0435  14.1235  14.2391  14.3172  14.4752
    14.4862  14.5433  14.5452  14.5553  14.5825  14.7249  14.7409  14.9383
    15.0603  15.1443  15.2330  15.3176  15.3542  15.4719  15.4922  15.5976
    15.6248  15.7457  15.8208  15.8549  15.8797  15.9102  15.9106  15.9615
    15.9634  16.0256  16.0735  16.1524  16.1578  16.1843  16.1971  16.2470
    16.2769  16.2865  16.3035  16.3471  16.3487  16.3872  16.4250  16.4320
    16.4620  16.4657  16.4842  16.5805  16.6049  16.6146  16.6629  16.6766
    16.7179  16.7503  16.7942  16.8029  16.8703  16.8745  16.9921  17.0629
    17.0917  17.1231  17.2254  17.2835  18.6389  18.6646  18.7438  18.7737
    18.8042  18.8143  18.8401  18.8467  18.8736  18.9073  18.9505  18.9627

          k =-0.5000-0.5000 0.0000 ( 31612 PWs)   bands (ev):

   -66.7227 -66.7227 -66.7051 -66.7037 -66.7036 -66.6984 -66.6358 -66.6357
   -66.6342 -62.4508 -62.3718 -62.3718 -62.3648 -62.3581 -62.3580 -62.3428
   -62.3425 -62.3236 -35.5150 -35.5150 -35.4916 -35.4915 -35.4883 -35.4752
   -35.4682 -35.4682 -35.4656 -35.4416 -35.4414 -35.4412 -35.4297 -35.4160
   -35.4159 -35.4112 -35.4111 -35.4013 -35.3923 -35.3921 -35.3914 -35.3913
   -35.3826 -35.3767 -35.3537 -35.3536 -35.3501 -31.2920 -31.2771 -31.2537
   -31.2347 -31.2347 -31.2250 -31.1961 -31.1952 -31.1872 -31.1870 -31.1844
   -31.1839 -31.1806 -31.1805 -31.1781 -31.1734 -31.1733 -31.1730 -31.1729
   -31.1701 -31.1686 -31.1683 -31.1645 -31.1479 -31.1464 -31.1462 -31.1287
     6.3759   6.4357   6.4456   6.4920   8.0041   8.0093   8.0121   8.0241
     8.0855   8.1106   8.2672   8.3074   8.3134   8.3185   8.3274   8.3316
     8.3454   8.3503   8.3512   8.3781   8.3826   8.4273   8.5828   8.6232
     8.6348   8.6419   8.6845   8.6928   8.6945   8.7088   8.7261   8.7534
     8.7656   8.8065   8.9355   8.9388   8.9491   8.9499   8.9604   8.9723
     8.9752   9.0014   9.0029   9.0061   9.0143   9.0166   9.0171   9.0395
     9.1158   9.1233   9.3040   9.3103   9.3114   9.3207   9.3895   9.4012
     9.4049   9.4125   9.4281   9.4307   9.4308   9.4326   9.4424   9.4478
     9.4495   9.4658   9.4699   9.4782   9.4789   9.4876   9.4951   9.5140
     9.5176   9.5236   9.5377   9.5485   9.5516   9.5750   9.5869   9.5967
     9.6044   9.6089   9.6912   9.6962   9.7347   9.7970   9.8022   9.8156
     9.8271   9.8308   9.8322   9.8403   9.8611   9.8877   9.9628  10.0443
    10.0936  10.1053  10.1109  10.1388  10.1445  10.1463  10.1567  10.1619
    10.1825  10.1891  10.1926  10.2081  10.2128  10.2133  10.2260  10.2287
    10.2296  10.2312  10.2395  10.2605  10.4218  10.4672  10.4677  10.4852
    10.4898  10.4933  10.5063  10.5132  10.5654  10.6120  10.6126  10.6440
    10.6588  10.6598  10.6733  10.7005  10.7054  10.7096  10.7128  10.7166
    10.7747  10.7917  10.7953  10.8121  10.8145  10.8347  10.8625  10.8661
    10.8692  10.9383  11.1912  11.2068  11.2139  11.2244  11.3127  11.3131
    11.3339  11.3381  11.3604  11.3644  11.3685  11.3742  11.5591  11.5837
    11.6184  11.6243  11.6289  11.6423  11.6437  11.6452  11.6465  11.6490
    11.6544  11.6640  11.7016  11.7246  11.7287  11.7362  11.7568  11.7905
    11.8431  11.8744  11.8774  11.8801  11.8826  11.8859  11.9000  11.9589
    11.9975  12.0270  12.0451  12.0588  12.0596  12.0754  12.0931  12.1014
    12.1033  12.1067  12.1091  12.1158  12.1365  12.1526  12.1540  12.1564
    12.1570  12.1595  12.1641  12.1715  12.1860  12.1998  12.2072  12.2394
    12.2610  12.2717  12.2787  12.2828  12.2847  12.2941  12.3045  12.3594
    12.4101  12.4266  12.4315  12.4601  12.4959  12.5173  12.5372  12.5502
    12.5504  12.5542  12.5749  12.5879  12.5960  12.6620  12.6659  12.7171
    12.7319  12.7422  12.7697  12.8087  12.8323  12.8436  12.8478  12.9417
    12.9591  12.9650  13.0224  13.0336  13.1842  13.6506  13.6603  13.6688
    13.6722  13.6849  13.7024  13.8410  13.8553  13.9533  14.1874  14.2847
    14.2913  14.4250  14.4256  14.4585  14.4981  14.5009  14.7140  14.8362
    14.8710  15.0291  15.0921  15.1939  15.2999  15.3485  15.7229  15.7499
    15.7738  15.7817  15.8022  15.8148  15.8964  15.9682  16.0187  16.0448
    16.0627  16.0799  16.0811  16.1015  16.1502  16.1514  16.1565  16.1816
    16.2055  16.2380  16.2535  16.2717  16.2809  16.2960  16.3607  16.3750
    16.3925  16.5561  16.6180  16.6226  16.6635  16.7049  16.7637  16.7701
    16.8324  16.8478  16.8743  16.8921  17.3836  17.3862  17.6940  17.8614
    18.1076  18.1078  18.1803  18.1897  18.2515  18.4321  18.5000  18.5717
    18.6012  18.6171  18.6202  18.6499  18.7560  18.7924  18.7964  18.7983

          k =-0.5000-0.5000-0.5734 ( 31672 PWs)   bands (ev):

   -66.7227 -66.7227 -66.7051 -66.7037 -66.7036 -66.6984 -66.6358 -66.6357
   -66.6342 -62.4508 -62.3718 -62.3718 -62.3648 -62.3581 -62.3580 -62.3428
   -62.3425 -62.3236 -35.5150 -35.5150 -35.4916 -35.4915 -35.4883 -35.4752
   -35.4682 -35.4682 -35.4656 -35.4416 -35.4414 -35.4412 -35.4297 -35.4160
   -35.4159 -35.4112 -35.4111 -35.4013 -35.3923 -35.3921 -35.3914 -35.3913
   -35.3826 -35.3767 -35.3537 -35.3536 -35.3501 -31.2920 -31.2771 -31.2537
   -31.2347 -31.2347 -31.2250 -31.1961 -31.1952 -31.1872 -31.1870 -31.1844
   -31.1839 -31.1806 -31.1805 -31.1781 -31.1734 -31.1733 -31.1730 -31.1729
   -31.1701 -31.1686 -31.1683 -31.1645 -31.1479 -31.1464 -31.1462 -31.1287
     6.8939   6.9071   6.9379   6.9632   6.9737   6.9881   7.0182   7.0350
     8.4522   8.4562   8.4689   8.4764   8.4769   8.4783   8.4864   8.4867
     8.4895   8.4959   8.5232   8.5273   8.5327   8.5388   8.5570   8.5595
     8.5624   8.5908   8.5913   8.5952   8.8657   8.8691   8.8799   8.9025
     8.9193   8.9237   8.9347   8.9384   9.0906   9.1014   9.1144   9.1206
     9.1297   9.1351   9.1373   9.1400   9.1408   9.1442   9.1458   9.1459
     9.1568   9.1648   9.1648   9.1678   9.1692   9.1711   9.1743   9.1753
     9.1791   9.1793   9.1873   9.1933   9.2026   9.2132   9.2143   9.2147
     9.2276   9.2465   9.2482   9.2501   9.2520   9.2572   9.2776   9.2834
     9.5336   9.5458   9.5493   9.5518   9.5998   9.6024   9.6194   9.6309
     9.6660   9.6726   9.6804   9.7058   9.7113   9.7270   9.7374   9.7565
     9.8191   9.8240   9.8468   9.8570   9.8589   9.8680   9.8772   9.8899
    10.1269  10.1336  10.1368  10.1472  10.1588  10.1602  10.1670  10.1694
    10.2852  10.2982  10.4418  10.4461  10.4545  10.4629  10.4672  10.4722
    10.4850  10.4893  10.4948  10.4992  10.5013  10.5015  10.5140  10.5152
    10.5310  10.5319  10.5322  10.5372  10.5445  10.5578  10.5618  10.5655
    10.5783  10.6067  10.6306  10.6400  10.6455  10.6515  10.6544  10.6847
    10.6867  10.6885  10.6988  10.7010  10.7574  10.7640  11.0293  11.0401
    11.0589  11.0599  11.1085  11.1093  11.1325  11.1382  11.3665  11.3718
    11.3862  11.3923  11.4314  11.4359  11.4420  11.4466  11.4602  11.4628
    11.4769  11.4775  11.5001  11.5158  11.5229  11.5369  11.5985  11.6021
    11.6297  11.6317  11.6428  11.6471  11.6555  11.6816  11.6935  11.6971
    11.7238  11.7278  11.7480  11.7549  11.7723  11.7813  11.7833  11.7864
    11.7958  11.8063  11.8237  11.8363  11.8680  11.9126  12.0085  12.0184
    12.0418  12.0466  12.0840  12.1014  12.1176  12.1242  12.1282  12.1566
    12.1612  12.1893  12.1896  12.2052  12.2239  12.2406  12.2563  12.2851
    12.3277  12.3500  12.4212  12.4285  12.4297  12.4398  12.4481  12.4634
    12.4656  12.4912  12.4921  12.4968  12.5007  12.5352  12.5648  12.5679
    12.5778  12.6414  12.6424  12.6886  12.6968  12.7226  12.7612  12.7911
    12.8028  12.8209  13.0170  13.0615  13.0722  13.1727  13.2028  13.2061
    13.2850  13.3676  13.3893  13.3942  13.4064  13.4668  13.4740  13.5346
    13.5483  13.5582  13.6139  13.8051  13.8903  14.0094  14.0368  14.1098
    14.2311  14.5533  14.5709  14.5785  14.6397  14.7177  14.8646  14.8829
    14.9538  15.0638  15.0643  15.2994  15.4312  15.4328  15.4822  15.7915
    15.8099  15.8128  15.8439  15.8517  15.8606  15.9479  15.9734  16.0269
    16.0531  16.0797  16.0986  16.1660  16.1874  16.2187  16.2202  16.2414
    16.2560  16.2837  16.2839  16.3736  16.3774  16.3973  16.3991  16.4414
    16.5428  16.5489  16.6053  16.6088  16.6408  16.6477  16.6701  16.7052
    16.7147  16.7249  16.7719  16.8704  16.8882  16.8903  16.9455  16.9655
    17.0424  17.0513  17.6802  17.7955  17.7993  17.8498  19.0135  19.0300
    19.0317  19.0912  19.0981  19.1788  19.1849  19.2161  19.2539  19.3446

          k =-0.5000 0.0000 0.0000 ( 31722 PWs)   bands (ev):

   -66.7227 -66.7227 -66.7051 -66.7037 -66.7036 -66.6984 -66.6358 -66.6357
   -66.6342 -62.4508 -62.3718 -62.3718 -62.3648 -62.3581 -62.3580 -62.3428
   -62.3425 -62.3236 -35.5150 -35.5150 -35.4916 -35.4915 -35.4883 -35.4752
   -35.4682 -35.4682 -35.4656 -35.4416 -35.4414 -35.4412 -35.4297 -35.4160
   -35.4159 -35.4112 -35.4111 -35.4013 -35.3923 -35.3921 -35.3914 -35.3913
   -35.3826 -35.3767 -35.3537 -35.3536 -35.3501 -31.2920 -31.2771 -31.2537
   -31.2347 -31.2347 -31.2250 -31.1961 -31.1952 -31.1872 -31.1870 -31.1844
   -31.1839 -31.1806 -31.1805 -31.1781 -31.1734 -31.1733 -31.1730 -31.1729
   -31.1701 -31.1686 -31.1683 -31.1645 -31.1479 -31.1464 -31.1462 -31.1287
     6.0261   6.0513   7.4037   7.4334   7.4673   7.4756   7.6701   7.6733
     8.1032   8.1096   8.1230   8.1319   8.2139   8.2255   8.2553   8.2807
     8.3991   8.4342   8.4523   8.4656   8.6255   8.6289   8.6496   8.6530
     8.6534   8.6739   8.6770   8.6856   8.7825   8.8047   8.8163   8.8230
     8.8458   8.8626   8.8745   8.8884   8.8918   8.9007   8.9026   8.9213
     8.9288   8.9341   8.9359   8.9507   9.0434   9.0467   9.1524   9.1631
     9.1742   9.2001   9.2148   9.2195   9.2326   9.2508   9.3072   9.3210
     9.3411   9.3621   9.3925   9.4275   9.4679   9.4773   9.4920   9.5178
     9.5327   9.5386   9.5441   9.5613   9.5893   9.5990   9.6100   9.6177
     9.6230   9.6235   9.6273   9.6317   9.6320   9.6343   9.6345   9.6373
     9.6635   9.6684   9.6734   9.6869   9.6990   9.7089   9.7120   9.7256
     9.7334   9.7359   9.7566   9.7756   9.8876   9.8988   9.9286   9.9499
    10.0154  10.0237  10.1561  10.1795  10.2002  10.2043  10.2358  10.2448
    10.2514  10.2664  10.2708  10.2774  10.2802  10.2876  10.3381  10.3575
    10.3738  10.3767  10.3824  10.3824  10.4235  10.4364  10.4562  10.4655
    10.5102  10.5138  10.5270  10.5536  10.5542  10.5600  10.5710  10.5720
    10.6117  10.6463  10.6686  10.6953  10.7019  10.7211  10.7217  10.7261
    10.8128  10.8313  10.8337  10.8419  10.8592  10.8691  10.9247  10.9367
    10.9855  10.9998  11.0088  11.0191  11.0397  11.0480  11.1701  11.1778
    11.2818  11.3424  11.3442  11.3533  11.3603  11.3670  11.3729  11.3919
    11.3930  11.4072  11.4267  11.4578  11.4831  11.5139  11.5489  11.5856
    11.5969  11.5987  11.6372  11.6533  11.6578  11.6679  11.6777  11.7408
    11.7625  11.7819  11.7873  11.8180  11.8318  11.8382  11.8465  11.8546
    11.8690  11.8786  11.8998  11.9011  11.9189  11.9203  11.9345  11.9466
    11.9554  11.9692  11.9783  11.9853  12.0620  12.0936  12.1210  12.1473
    12.1857  12.1955  12.2050  12.2081  12.2217  12.2282  12.2516  12.2717
    12.2814  12.3037  12.3086  12.3658  12.3753  12.3888  12.3947  12.4280
    12.4606  12.4684  12.4835  12.4891  12.5113  12.5234  12.5313  12.5622
    12.5729  12.5784  12.5986  12.6270  12.6754  12.6958  12.7301  12.8351
    12.8550  12.8749  12.9808  13.0283  13.0325  13.0810  13.0852  13.1140
    13.1706  13.1774  13.1899  13.2410  13.2645  13.2819  13.3237  13.3392
    13.4376  13.5344  13.5579  13.6075  13.6354  14.4440  14.4751  14.5827
    14.6561  14.6725  14.6843  14.7741  14.8271  14.8581  14.8757  14.9797
    15.0562  15.1086  15.1707  15.2400  15.2699  15.4096  15.4915  15.5600
    15.7044  15.7074  15.8041  15.8157  15.8868  15.9369  15.9572  16.0268
    16.0534  16.0807  16.0807  16.1053  16.1191  16.1365  16.1505  16.1856
    16.2299  16.2411  16.2543  16.2580  16.2682  16.2820  16.3021  16.3840
    16.4528  16.4919  16.5304  16.6111  16.6448  16.7280  16.9758  17.0468
    17.1584  17.2164  17.2439  17.3273  17.4020  17.4414  17.6170  17.6302
    17.7057  17.7450  17.8099  17.8196  17.8655  17.8892  17.9037  17.9296
    17.9397  18.1073  18.1504  18.2050  19.2522  19.2733  19.3394  19.3538

          k =-0.5000 0.0000 0.5734 ( 31696 PWs)   bands (ev):

   -66.7227 -66.7227 -66.7051 -66.7037 -66.7036 -66.6984 -66.6358 -66.6357
   -66.6342 -62.4508 -62.3718 -62.3718 -62.3648 -62.3581 -62.3580 -62.3428
   -62.3425 -62.3236 -35.5150 -35.5150 -35.4916 -35.4915 -35.4883 -35.4752
   -35.4682 -35.4682 -35.4656 -35.4416 -35.4414 -35.4412 -35.4297 -35.4160
   -35.4159 -35.4112 -35.4111 -35.4013 -35.3923 -35.3921 -35.3914 -35.3913
   -35.3826 -35.3767 -35.3537 -35.3536 -35.3501 -31.2920 -31.2771 -31.2537
   -31.2347 -31.2347 -31.2250 -31.1961 -31.1952 -31.1872 -31.1870 -31.1844
   -31.1839 -31.1806 -31.1805 -31.1781 -31.1734 -31.1733 -31.1730 -31.1729
   -31.1701 -31.1686 -31.1683 -31.1645 -31.1479 -31.1464 -31.1462 -31.1287
     6.5531   6.5689   6.5874   6.6071   7.8351   7.8424   7.8633   7.8802
     7.8932   7.9127   7.9236   7.9364   8.2678   8.2717   8.2990   8.3005
     8.5142   8.5169   8.5252   8.5280   8.6405   8.6447   8.6773   8.6807
     8.6919   8.6937   8.6964   8.7094   8.7314   8.7395   8.7477   8.7507
     8.7646   8.7733   8.7888   8.7992   8.9772   8.9927   9.0111   9.0302
     9.0323   9.0402   9.0443   9.0516   9.2073   9.2099   9.2104   9.2161
     9.2163   9.2222   9.2251   9.2369   9.2449   9.2524   9.2542   9.2585
     9.2609   9.2749   9.2806   9.2826   9.2877   9.3091   9.3871   9.3949
     9.4216   9.4221   9.4276   9.4526   9.4619   9.4669   9.4684   9.4784
     9.4878   9.5045   9.5137   9.5157   9.5240   9.5460   9.5486   9.5529
     9.5696   9.5849   9.7534   9.7556   9.7893   9.7955   9.8013   9.8167
     9.8187   9.8262   9.8452   9.8495   9.8531   9.8618   9.8639   9.8721
     9.9561   9.9589   9.9998  10.0080  10.0340  10.0346  10.0409  10.0469
    10.3766  10.3798  10.3844  10.3860  10.4018  10.4056  10.4098  10.4429
    10.4559  10.4639  10.4709  10.4750  10.4810  10.4816  10.5047  10.5091
    10.5195  10.5271  10.5388  10.5670  10.5775  10.5825  10.6067  10.6077
    10.6268  10.6294  10.6671  10.6673  10.6734  10.6758  10.7215  10.7478
    10.7930  10.7934  10.9185  10.9271  10.9894  10.9934  11.0193  11.0296
    11.1210  11.1304  11.1349  11.1443  11.1555  11.1819  11.2026  11.2057
    11.2113  11.2158  11.2685  11.3048  11.3306  11.3328  11.3576  11.3610
    11.3738  11.3784  11.4192  11.4244  11.4323  11.4353  11.5021  11.5140
    11.5315  11.5524  11.5643  11.5722  11.5793  11.6004  11.6209  11.6292
    11.6380  11.6410  11.7282  11.7423  11.7503  11.7598  11.8117  11.8673
    11.8720  11.9236  11.9318  11.9463  11.9510  11.9783  11.9975  11.9976
    12.0219  12.0233  12.0344  12.0371  12.0381  12.0595  12.0866  12.1355
    12.1413  12.1571  12.1890  12.2121  12.2508  12.2711  12.2903  12.2956
    12.3276  12.3407  12.3622  12.3940  12.4125  12.4612  12.4636  12.4720
    12.4839  12.4916  12.5140  12.5207  12.5256  12.5394  12.5638  12.5920
    12.5985  12.6113  12.6261  12.6393  12.6415  12.6487  12.6492  12.7620
    12.8709  12.9093  12.9111  12.9744  12.9748  13.0441  13.0526  13.0755
    13.0776  13.3641  13.3670  13.3709  13.5611  13.6342  13.7340  13.8666
    13.9262  13.9807  13.9964  14.0435  14.1235  14.2390  14.3171  14.4752
    14.4862  14.5433  14.5452  14.5553  14.5825  14.7249  14.7409  14.9383
    15.0602  15.1444  15.2330  15.3176  15.3542  15.4719  15.4922  15.5976
    15.6248  15.7458  15.8209  15.8549  15.8797  15.9102  15.9106  15.9616
    15.9634  16.0255  16.0735  16.1524  16.1579  16.1843  16.1971  16.2470
    16.2769  16.2865  16.3035  16.3471  16.3486  16.3872  16.4250  16.4320
    16.4620  16.4657  16.4842  16.5805  16.6049  16.6146  16.6629  16.6766
    16.7179  16.7503  16.7941  16.8029  16.8703  16.8745  16.9921  17.0629
    17.0917  17.1231  17.2254  17.2835  18.6389  18.6646  18.7437  18.7736
    18.8044  18.8145  18.8400  18.8466  18.8736  18.9073  18.9504  18.9627

 ------ SPIN DOWN ----------


          k = 0.0000 0.0000 0.0000 ( 31747 PWs)   bands (ev):

   -66.7850 -66.6980 -66.6980 -66.6582 -66.6582 -66.6184 -66.5906 -66.5903
   -66.5900 -62.3809 -62.3730 -62.3729 -62.3634 -62.3632 -62.3569 -62.3568
   -62.3521 -62.3163 -35.5471 -35.5227 -35.5100 -35.4665 -35.4665 -35.4578
   -35.4577 -35.4326 -35.4326 -35.4056 -35.4055 -35.4030 -35.4027 -35.3880
   -35.3766 -35.3734 -35.3661 -35.3660 -35.3481 -35.3478 -35.3457 -35.3455
   -35.3332 -35.3224 -35.3099 -35.3096 -35.2990 -31.2286 -31.2285 -31.2266
   -31.2058 -31.2051 -31.2020 -31.2016 -31.1992 -31.1950 -31.1936 -31.1921
   -31.1914 -31.1866 -31.1865 -31.1801 -31.1800 -31.1798 -31.1746 -31.1736
   -31.1734 -31.1730 -31.1640 -31.1638 -31.1617 -31.1548 -31.1394 -31.1373
     5.6185   7.1431   7.1457   7.2188   7.2214   7.3657   7.8407   7.8970
     7.9064   7.9677   8.0879   8.0880   8.1473   8.1855   8.1876   8.2605
     8.2640   8.2937   8.2961   8.5199   8.5562   8.5605   8.5728   8.5764
     8.6502   8.8618   8.8633   8.8645   8.8814   8.8881   8.8893   8.8951
     8.8975   8.9013   8.9138   8.9206   8.9482   8.9591   8.9617   8.9788
     8.9829   9.0842   9.1234   9.1277   9.1285   9.1371   9.1541   9.1584
     9.1970   9.1977   9.2232   9.2710   9.2925   9.3015   9.3065   9.3340
     9.3512   9.3548   9.3690   9.3718   9.3963   9.3965   9.4090   9.4432
     9.4508   9.4531   9.4630   9.4665   9.4695   9.4700   9.4775   9.5793
     9.5813   9.5912   9.5915   9.6178   9.6303   9.6681   9.6700   9.6716
     9.6737   9.6746   9.6774   9.7497   9.7588   9.7727   9.7879   9.8513
     9.8525   9.9098   9.9147   9.9431   9.9443   9.9494  10.0001  10.0387
    10.0770  10.1185  10.1445  10.2040  10.2833  10.2834  10.2950  10.2977
    10.3072  10.3102  10.3197  10.3252  10.3332  10.3365  10.3400  10.3414
    10.3449  10.3470  10.3633  10.3645  10.3653  10.3744  10.3843  10.3850
    10.3888  10.4959  10.5244  10.5424  10.6194  10.6228  10.6335  10.6354
    10.6774  10.7829  10.7901  10.8073  10.8129  10.8173  10.8477  10.8512
    10.8636  10.8677  10.8693  10.8721  10.8766  10.8915  10.8936  10.9023
    10.9096  10.9101  11.0328  11.0351  11.0769  11.0786  11.1509  11.1946
    11.2137  11.2141  11.2276  11.2369  11.2557  11.2906  11.3002  11.3300
    11.3338  11.3925  11.3997  11.4041  11.4071  11.4121  11.4378  11.4392
    11.4618  11.5884  11.5913  11.5934  11.5974  11.5985  11.6127  11.6364
    11.6415  11.6443  11.7262  11.7279  11.7508  11.7537  11.7695  11.8104
    11.8148  11.8401  11.8414  11.8707  11.9017  11.9188  11.9319  11.9529
    11.9574  12.0148  12.0665  12.1008  12.1023  12.1048  12.1065  12.1090
    12.1415  12.1464  12.1475  12.1476  12.1516  12.1531  12.1716  12.1870
    12.2511  12.2948  12.3502  12.3534  12.3556  12.3878  12.4361  12.4374
    12.4474  12.4773  12.4797  12.4943  12.4948  12.5137  12.5364  12.5429
    12.5633  12.5642  12.5702  12.6065  12.6152  12.6173  12.6546  12.6919
    12.7112  12.7533  12.7655  12.7873  12.8313  12.8668  13.0320  13.0559
    13.1250  13.1294  13.1730  13.1787  13.4652  13.6478  13.8328  13.8581
    13.8670  14.0895  14.1764  14.2006  14.2578  14.4365  14.4503  14.6009
    14.7711  14.8426  14.9205  14.9911  15.0612  15.0982  15.1082  15.1808
    15.2019  15.2605  15.3003  15.3082  15.3614  15.4459  15.5232  15.5337
    15.6951  15.7339  15.7645  15.8004  15.8663  15.9592  16.0105  16.0200
    16.0258  16.0753  16.1016  16.1175  16.1207  16.1674  16.1722  16.1882
    16.1899  16.1989  16.2466  16.2812  16.3201  16.3531  16.3572  16.3969
    16.4733  16.4802  16.4998  16.6143  16.6309  16.6402  16.8147  16.8998
    16.9532  17.0385  17.1757  17.1986  17.2200  17.2413  17.3419  17.3429
    17.4307  17.4780  17.7937  17.8838  17.9357  17.9423  17.9853  18.0121
    18.2961  18.3378  18.4860  18.8629  19.0375  19.0596  19.1574  19.1864

          k = 0.0000 0.0000-0.5734 ( 31692 PWs)   bands (ev):

   -66.7850 -66.6980 -66.6980 -66.6582 -66.6582 -66.6184 -66.5906 -66.5903
   -66.5900 -62.3809 -62.3730 -62.3729 -62.3634 -62.3632 -62.3569 -62.3568
   -62.3521 -62.3163 -35.5471 -35.5227 -35.5100 -35.4665 -35.4665 -35.4578
   -35.4577 -35.4326 -35.4326 -35.4056 -35.4055 -35.4030 -35.4027 -35.3880
   -35.3766 -35.3734 -35.3661 -35.3660 -35.3481 -35.3478 -35.3457 -35.3455
   -35.3332 -35.3224 -35.3099 -35.3096 -35.2990 -31.2286 -31.2285 -31.2266
   -31.2058 -31.2051 -31.2020 -31.2016 -31.1992 -31.1950 -31.1936 -31.1921
   -31.1914 -31.1866 -31.1865 -31.1801 -31.1800 -31.1798 -31.1746 -31.1736
   -31.1734 -31.1730 -31.1640 -31.1638 -31.1617 -31.1548 -31.1394 -31.1373
     6.1791   6.1967   7.5285   7.5442   7.5609   7.5670   7.6071   7.6150
     7.6229   7.6358   8.3053   8.3156   8.3297   8.3462   8.3606   8.3655
     8.3961   8.4020   8.4544   8.4588   8.4765   8.4832   8.5114   8.5126
     8.5127   8.5128   8.6977   8.7057   8.7658   8.7828   8.9459   8.9555
     8.9783   8.9803   8.9804   8.9958   9.0028   9.0054   9.0140   9.0285
     9.0295   9.0414   9.0423   9.0470   9.0719   9.0810   9.2150   9.2255
     9.2302   9.2404   9.2546   9.2559   9.2686   9.2700   9.2746   9.2838
     9.2845   9.2876   9.2918   9.2936   9.2968   9.2985   9.4054   9.4099
     9.4317   9.4341   9.4547   9.4557   9.4588   9.4746   9.4791   9.4813
     9.4916   9.4973   9.5022   9.5062   9.5128   9.5209   9.6422   9.6667
     9.7722   9.7780   9.7982   9.8025   9.8252   9.8292   9.8366   9.8467
     9.8773   9.8780   9.8782   9.8801   9.8884   9.8899   9.8953   9.8959
    10.0610  10.0620  10.0622  10.0640  10.1539  10.1616  10.1620  10.1656
    10.1658  10.1661  10.1792  10.1951  10.2023  10.2047  10.3715  10.3725
    10.3778  10.3817  10.4007  10.4011  10.4126  10.4287  10.4851  10.5082
    10.5734  10.5803  10.5896  10.6031  10.6290  10.6468  10.6674  10.6763
    10.6833  10.6888  10.7314  10.7418  10.7562  10.8013  10.8083  10.8712
    10.9292  10.9334  10.9411  10.9835  11.0291  11.0355  11.0368  11.0453
    11.0750  11.0789  11.0856  11.1584  11.2062  11.2151  11.2175  11.2237
    11.2475  11.2484  11.2525  11.2534  11.2642  11.2692  11.2768  11.2826
    11.2838  11.2841  11.2914  11.2946  11.2947  11.2959  11.3056  11.3092
    11.3124  11.3166  11.3184  11.3192  11.5355  11.5444  11.7134  11.7136
    11.7150  11.7167  11.7185  11.7243  11.7336  11.7351  11.7382  11.7541
    11.7666  11.7702  11.7741  11.7824  11.7867  11.8501  11.8952  11.9418
    11.9512  11.9706  12.0078  12.0106  12.0571  12.0613  12.0862  12.1165
    12.1406  12.1678  12.1708  12.2420  12.2466  12.2517  12.2677  12.4149
    12.4250  12.4424  12.4464  12.4645  12.4919  12.5048  12.5068  12.5335
    12.5379  12.5596  12.5596  12.6094  12.6106  12.6160  12.6378  12.6506
    12.6582  12.6954  12.7107  12.7155  12.7486  12.7647  12.7789  12.8098
    12.8635  12.9199  12.9833  13.0640  13.1362  13.2060  13.2163  13.2367
    13.2852  13.2873  13.3449  13.5073  13.5172  13.5221  13.7361  13.7679
    13.7760  13.9129  13.9508  14.0817  14.1342  14.3013  14.3649  14.4707
    14.7364  14.9009  14.9464  14.9508  14.9529  14.9828  14.9843  15.1206
    15.2149  15.2321  15.2591  15.3335  15.3338  15.3705  15.3998  15.4307
    15.4576  15.6210  15.7394  15.7744  15.8313  15.9394  16.0114  16.0546
    16.0668  16.1172  16.1176  16.1300  16.1399  16.1509  16.1945  16.1955
    16.2020  16.2244  16.2247  16.2341  16.2378  16.2447  16.2467  16.2484
    16.3909  16.4221  16.6119  16.6208  16.6500  16.6782  16.7002  16.7232
    16.7324  16.7643  17.4219  17.4490  17.4599  17.4916  17.5343  17.5506
    17.5668  17.5829  17.6595  17.6599  17.7226  17.7621  17.8247  17.8689
    17.8770  17.8791  18.1049  18.1395  18.1868  18.2497  18.3058  18.3453

          k = 0.0000-0.5000 0.0000 ( 31722 PWs)   bands (ev):

   -66.7850 -66.6980 -66.6980 -66.6582 -66.6582 -66.6184 -66.5906 -66.5903
   -66.5900 -62.3809 -62.3730 -62.3729 -62.3634 -62.3632 -62.3569 -62.3568
   -62.3521 -62.3163 -35.5471 -35.5227 -35.5100 -35.4665 -35.4665 -35.4578
   -35.4577 -35.4326 -35.4326 -35.4056 -35.4055 -35.4030 -35.4028 -35.3880
   -35.3766 -35.3734 -35.3661 -35.3660 -35.3481 -35.3478 -35.3457 -35.3455
   -35.3332 -35.3224 -35.3099 -35.3096 -35.2990 -31.2286 -31.2285 -31.2266
   -31.2058 -31.2051 -31.2020 -31.2016 -31.1992 -31.1950 -31.1936 -31.1921
   -31.1914 -31.1866 -31.1865 -31.1801 -31.1800 -31.1798 -31.1746 -31.1736
   -31.1734 -31.1730 -31.1640 -31.1638 -31.1617 -31.1548 -31.1394 -31.1373
     6.0419   6.0499   7.4221   7.4387   7.4612   7.4836   7.6715   7.6830
     8.1110   8.1140   8.1296   8.1639   8.2230   8.2355   8.2436   8.2752
     8.4114   8.4290   8.4566   8.4795   8.6311   8.6399   8.6498   8.6571
     8.6696   8.6733   8.6779   8.6954   8.7803   8.8061   8.8307   8.8411
     8.8572   8.8586   8.8781   8.8853   8.8964   8.9022   8.9093   8.9295
     8.9316   8.9367   8.9427   8.9545   9.0446   9.0538   9.1592   9.1679
     9.1765   9.2105   9.2155   9.2267   9.2393   9.2482   9.3036   9.3367
     9.3509   9.3766   9.4016   9.4176   9.4773   9.4815   9.4991   9.5070
     9.5412   9.5418   9.5587   9.5633   9.5898   9.6075   9.6091   9.6191
     9.6283   9.6297   9.6322   9.6344   9.6376   9.6376   9.6439   9.6574
     9.6664   9.6775   9.6815   9.6847   9.6928   9.7104   9.7207   9.7280
     9.7433   9.7470   9.7505   9.7733   9.8973   9.8993   9.9353   9.9565
    10.0135  10.0346  10.1627  10.1843  10.2058  10.2181  10.2541  10.2569
    10.2591  10.2657  10.2750  10.2795  10.2824  10.2856  10.3424  10.3594
    10.3728  10.3810  10.3844  10.3886  10.4299  10.4415  10.4631  10.4829
    10.5077  10.5293  10.5308  10.5490  10.5600  10.5672  10.5691  10.5984
    10.6097  10.6566  10.6655  10.7023  10.7109  10.7211  10.7330  10.7479
    10.8064  10.8174  10.8337  10.8503  10.8682  10.9038  10.9178  10.9307
    10.9940  11.0032  11.0201  11.0224  11.0384  11.0567  11.1743  11.1811
    11.2965  11.3399  11.3480  11.3495  11.3760  11.3807  11.3813  11.4023
    11.4080  11.4308  11.4358  11.4849  11.5082  11.5224  11.5482  11.5773
    11.6018  11.6043  11.6316  11.6318  11.6611  11.6746  11.7138  11.7457
    11.7680  11.7737  11.8125  11.8369  11.8374  11.8453  11.8523  11.8610
    11.8755  11.8905  11.9014  11.9122  11.9158  11.9429  11.9461  11.9643
    11.9793  11.9879  11.9908  11.9992  12.0335  12.1076  12.1333  12.1381
    12.1654  12.1908  12.1950  12.2052  12.2108  12.2358  12.2462  12.2809
    12.2965  12.3413  12.3612  12.3860  12.3888  12.4160  12.4284  12.4551
    12.4643  12.4963  12.5004  12.5294  12.5303  12.5525  12.5642  12.5724
    12.5755  12.6014  12.6056  12.6183  12.6780  12.6928  12.7371  12.8162
    12.8813  12.9307  13.0633  13.0744  13.0804  13.0875  13.1180  13.1507
    13.1809  13.2020  13.2225  13.2435  13.2535  13.2968  13.3150  13.3764
    13.4212  13.5533  13.5542  13.6214  13.7094  14.4305  14.4623  14.5358
    14.5904  14.6860  14.7528  14.7966  14.8043  14.8626  14.8737  14.9935
    15.0394  15.1428  15.1484  15.3226  15.3615  15.4364  15.5277  15.6003
    15.6959  15.7325  15.7518  15.8202  15.8659  15.8988  15.9446  16.0444
    16.0631  16.0945  16.1105  16.1337  16.1352  16.1673  16.1678  16.1734
    16.2032  16.2083  16.2268  16.2406  16.2837  16.3060  16.3330  16.3568
    16.4052  16.4306  16.5061  16.5975  16.6693  16.7455  16.9922  17.0744
    17.1518  17.2169  17.2737  17.3230  17.4041  17.4805  17.6360  17.6431
    17.7635  17.7978  17.8005  17.8186  17.8637  17.8739  17.8826  17.9280
    17.9335  18.0942  18.1791  18.1991  19.2562  19.2723  19.3566  19.3690

          k = 0.0000-0.5000-0.5734 ( 31696 PWs)   bands (ev):

   -66.7850 -66.6980 -66.6980 -66.6582 -66.6582 -66.6184 -66.5906 -66.5903
   -66.5900 -62.3809 -62.3730 -62.3729 -62.3634 -62.3632 -62.3569 -62.3568
   -62.3521 -62.3163 -35.5471 -35.5227 -35.5100 -35.4665 -35.4665 -35.4578
   -35.4577 -35.4326 -35.4326 -35.4056 -35.4055 -35.4030 -35.4027 -35.3880
   -35.3766 -35.3734 -35.3661 -35.3660 -35.3481 -35.3478 -35.3457 -35.3455
   -35.3332 -35.3224 -35.3099 -35.3096 -35.2990 -31.2286 -31.2285 -31.2266
   -31.2058 -31.2051 -31.2020 -31.2016 -31.1992 -31.1950 -31.1936 -31.1921
   -31.1914 -31.1866 -31.1865 -31.1801 -31.1800 -31.1798 -31.1746 -31.1736
   -31.1734 -31.1730 -31.1640 -31.1638 -31.1617 -31.1548 -31.1394 -31.1373
     6.5579   6.5744   6.5978   6.6146   7.8404   7.8516   7.8795   7.8901
     7.8976   7.9098   7.9267   7.9436   8.2735   8.2763   8.3059   8.3069
     8.5226   8.5247   8.5330   8.5330   8.6540   8.6569   8.6798   8.6873
     8.6917   8.6928   8.7072   8.7204   8.7321   8.7440   8.7567   8.7574
     8.7685   8.7699   8.7878   8.8025   8.9822   8.9980   9.0147   9.0345
     9.0384   9.0465   9.0485   9.0554   9.2131   9.2172   9.2208   9.2215
     9.2224   9.2315   9.2330   9.2459   9.2485   9.2523   9.2557   9.2566
     9.2614   9.2692   9.2844   9.2896   9.2911   9.3174   9.3952   9.4025
     9.4316   9.4355   9.4371   9.4555   9.4623   9.4664   9.4676   9.4816
     9.4834   9.5013   9.5175   9.5259   9.5276   9.5513   9.5608   9.5680
     9.5739   9.5895   9.7562   9.7584   9.7939   9.8016   9.8077   9.8288
     9.8291   9.8297   9.8503   9.8545   9.8564   9.8611   9.8615   9.8742
     9.9728   9.9801   9.9925   9.9962  10.0216  10.0260  10.0635  10.0662
    10.3715  10.3778  10.3983  10.4013  10.4029  10.4093  10.4145  10.4512
    10.4651  10.4672  10.4761  10.4771  10.4964  10.4968  10.5136  10.5142
    10.5354  10.5513  10.5631  10.5759  10.5924  10.6099  10.6182  10.6202
    10.6297  10.6330  10.6621  10.6727  10.6800  10.6812  10.6869  10.6966
    10.7728  10.7909  10.9531  10.9597  10.9842  10.9934  11.0410  11.0478
    11.1193  11.1234  11.1360  11.1562  11.1692  11.1856  11.2123  11.2129
    11.2184  11.2281  11.2900  11.3286  11.3352  11.3375  11.3647  11.3676
    11.3744  11.3770  11.4236  11.4248  11.4348  11.4407  11.5066  11.5132
    11.5303  11.5592  11.5683  11.5732  11.5870  11.6114  11.6242  11.6305
    11.6363  11.6366  11.7343  11.7507  11.7558  11.7656  11.8255  11.8850
    11.8900  11.9227  11.9272  11.9386  11.9485  11.9851  12.0181  12.0194
    12.0318  12.0370  12.0404  12.0443  12.0445  12.0740  12.0914  12.1331
    12.1467  12.1742  12.1928  12.2225  12.2613  12.2680  12.2733  12.3045
    12.3723  12.3823  12.4040  12.4084  12.4392  12.4544  12.4697  12.5056
    12.5060  12.5411  12.5462  12.5615  12.5672  12.6001  12.6031  12.6104
    12.6171  12.6460  12.6461  12.6516  12.6678  12.7041  12.7165  12.7693
    12.7739  12.8569  12.8695  12.9227  13.0119  13.0432  13.0475  13.0716
    13.0876  13.3771  13.5033  13.5164  13.6350  13.7219  13.7445  13.7878
    13.8056  13.9853  14.0258  14.0872  14.0983  14.2640  14.3447  14.3591
    14.4008  14.5195  14.5535  14.5570  14.6261  14.8605  14.8652  15.1085
    15.2067  15.2283  15.2492  15.2708  15.2950  15.3515  15.3942  15.5102
    15.5918  15.6387  15.6837  15.8750  15.8871  15.9731  15.9819  16.0210
    16.0500  16.0752  16.1091  16.1277  16.1545  16.1863  16.2163  16.2355
    16.2677  16.3053  16.3441  16.3534  16.3810  16.3909  16.4125  16.4416
    16.4762  16.4992  16.5344  16.5606  16.5962  16.6217  16.6613  16.6801
    16.6938  16.7054  16.7252  16.7688  16.8838  16.8842  16.9980  17.0496
    17.0834  17.1316  17.2696  17.3197  18.6749  18.7054  18.7297  18.7521
    18.7793  18.7840  18.8526  18.8725  18.9113  18.9197  18.9393  18.9616

          k =-0.5000-0.5000 0.0000 ( 31612 PWs)   bands (ev):

   -66.7850 -66.6980 -66.6980 -66.6582 -66.6582 -66.6184 -66.5906 -66.5903
   -66.5900 -62.3809 -62.3730 -62.3729 -62.3634 -62.3632 -62.3569 -62.3568
   -62.3521 -62.3163 -35.5471 -35.5227 -35.5100 -35.4665 -35.4665 -35.4578
   -35.4577 -35.4326 -35.4326 -35.4056 -35.4055 -35.4030 -35.4028 -35.3880
   -35.3766 -35.3734 -35.3661 -35.3660 -35.3481 -35.3478 -35.3457 -35.3455
   -35.3332 -35.3224 -35.3099 -35.3096 -35.2990 -31.2286 -31.2285 -31.2266
   -31.2058 -31.2051 -31.2020 -31.2016 -31.1992 -31.1950 -31.1936 -31.1921
   -31.1914 -31.1867 -31.1865 -31.1801 -31.1800 -31.1798 -31.1746 -31.1736
   -31.1734 -31.1730 -31.1640 -31.1638 -31.1617 -31.1548 -31.1394 -31.1373
     6.3975   6.4425   6.4433   6.4934   8.0028   8.0176   8.0221   8.0302
     8.1007   8.1174   8.2818   8.3147   8.3164   8.3299   8.3314   8.3358
     8.3420   8.3592   8.3607   8.3782   8.3804   8.4427   8.5951   8.6268
     8.6368   8.6446   8.6957   8.7002   8.7043   8.7117   8.7257   8.7542
     8.7574   8.8131   8.9413   8.9454   8.9541   8.9564   8.9738   8.9772
     8.9813   9.0097   9.0100   9.0104   9.0107   9.0203   9.0223   9.0418
     9.1198   9.1274   9.3030   9.3144   9.3194   9.3243   9.3996   9.4117
     9.4129   9.4207   9.4297   9.4334   9.4369   9.4370   9.4456   9.4507
     9.4659   9.4719   9.4745   9.4832   9.4857   9.4977   9.5009   9.5109
     9.5194   9.5276   9.5362   9.5384   9.5551   9.5766   9.5899   9.6023
     9.6033   9.6178   9.6976   9.6996   9.7564   9.8022   9.8027   9.8071
     9.8364   9.8390   9.8440   9.8459   9.8627   9.8822  10.0152  10.0420
    10.0772  10.1025  10.1145  10.1342  10.1570  10.1639  10.1718  10.1751
    10.1863  10.1908  10.1938  10.2028  10.2196  10.2225  10.2226  10.2263
    10.2322  10.2340  10.2369  10.3051  10.4265  10.4659  10.4764  10.4826
    10.4949  10.4986  10.5115  10.5703  10.5788  10.6190  10.6287  10.6327
    10.6496  10.6559  10.6639  10.6669  10.7105  10.7115  10.7199  10.7203
    10.7481  10.8013  10.8074  10.8188  10.8455  10.8532  10.8687  10.8716
    10.8895  10.9423  11.2012  11.2105  11.2121  11.2281  11.3195  11.3210
    11.3423  11.3540  11.3637  11.3648  11.3742  11.3827  11.4970  11.5752
    11.6269  11.6279  11.6356  11.6451  11.6482  11.6486  11.6495  11.6549
    11.6641  11.6740  11.7273  11.7308  11.7511  11.7716  11.8004  11.8281
    11.8677  11.8770  11.8786  11.8828  11.8863  11.8889  11.9663  11.9783
    12.0075  12.0279  12.0642  12.0679  12.0745  12.0787  12.0837  12.0842
    12.1086  12.1086  12.1145  12.1214  12.1461  12.1525  12.1535  12.1557
    12.1602  12.1613  12.1663  12.1765  12.1770  12.2038  12.2221  12.2649
    12.2801  12.2867  12.2881  12.2892  12.2911  12.2971  12.3145  12.4336
    12.4464  12.4503  12.4682  12.5078  12.5213  12.5238  12.5423  12.5698
    12.5701  12.5737  12.5774  12.5813  12.6143  12.6373  12.6420  12.6861
    12.7083  12.8036  12.8366  12.8645  12.8742  12.8896  12.9123  12.9304
    12.9684  13.0271  13.0413  13.0616  13.1526  13.6615  13.6632  13.6764
    13.6786  13.6817  13.6998  13.7750  13.8184  14.0167  14.2589  14.3494
    14.4146  14.4151  14.4318  14.4686  14.5137  14.5708  14.7716  14.8268
    14.8302  14.8887  15.1384  15.1385  15.3313  15.3640  15.6758  15.7352
    15.7355  15.8105  15.8237  15.8330  15.9151  15.9330  15.9943  16.0457
    16.0459  16.0532  16.0936  16.1457  16.1605  16.1684  16.1738  16.1965
    16.2159  16.2393  16.2958  16.3112  16.3407  16.3731  16.3739  16.3801
    16.4665  16.4683  16.5211  16.5952  16.6487  16.6643  16.7750  16.8022
    16.8241  16.8369  16.8863  16.8963  17.3869  17.3905  17.7055  17.8800
    18.0868  18.1948  18.2163  18.2177  18.2580  18.4276  18.4426  18.5761
    18.5847  18.6285  18.6309  18.6381  18.7392  18.7921  18.8052  18.8259

          k =-0.5000-0.5000-0.5734 ( 31672 PWs)   bands (ev):

   -66.7850 -66.6980 -66.6980 -66.6582 -66.6582 -66.6184 -66.5906 -66.5903
   -66.5900 -62.3809 -62.3730 -62.3729 -62.3634 -62.3632 -62.3569 -62.3568
   -62.3521 -62.3163 -35.5471 -35.5227 -35.5100 -35.4665 -35.4665 -35.4578
   -35.4577 -35.4326 -35.4326 -35.4056 -35.4055 -35.4030 -35.4027 -35.3880
   -35.3766 -35.3734 -35.3661 -35.3660 -35.3481 -35.3478 -35.3457 -35.3455
   -35.3332 -35.3224 -35.3099 -35.3096 -35.2990 -31.2286 -31.2285 -31.2266
   -31.2058 -31.2051 -31.2020 -31.2016 -31.1992 -31.1950 -31.1936 -31.1921
   -31.1914 -31.1867 -31.1865 -31.1801 -31.1800 -31.1798 -31.1746 -31.1736
   -31.1734 -31.1730 -31.1641 -31.1638 -31.1617 -31.1548 -31.1394 -31.1373
     6.9006   6.9121   6.9452   6.9766   6.9902   6.9956   7.0178   7.0345
     8.4615   8.4636   8.4699   8.4774   8.4866   8.4898   8.4949   8.4959
     8.4970   8.4991   8.5329   8.5377   8.5401   8.5475   8.5664   8.5672
     8.5679   8.5820   8.5839   8.5985   8.8818   8.8869   8.8969   8.9041
     8.9136   8.9142   8.9350   8.9385   9.0958   9.1063   9.1201   9.1251
     9.1376   9.1402   9.1454   9.1489   9.1519   9.1545   9.1619   9.1628
     9.1650   9.1679   9.1701   9.1715   9.1738   9.1741   9.1747   9.1787
     9.1801   9.1927   9.1930   9.1958   9.1996   9.2038   9.2182   9.2187
     9.2284   9.2423   9.2432   9.2492   9.2629   9.2746   9.2775   9.2808
     9.5370   9.5440   9.5588   9.5621   9.6087   9.6126   9.6220   9.6331
     9.6656   9.6776   9.6933   9.7124   9.7131   9.7249   9.7373   9.7633
     9.8224   9.8272   9.8418   9.8530   9.8712   9.8849   9.8895   9.8963
    10.1355  10.1418  10.1483  10.1521  10.1544  10.1643  10.1747  10.1784
    10.2946  10.3082  10.4431  10.4512  10.4534  10.4590  10.4856  10.4883
    10.4888  10.4894  10.5009  10.5058  10.5060  10.5106  10.5164  10.5184
    10.5213  10.5240  10.5297  10.5355  10.5380  10.5628  10.5929  10.6040
    10.6383  10.6409  10.6421  10.6514  10.6576  10.6595  10.6669  10.6709
    10.6769  10.6862  10.6960  10.7080  10.7315  10.7341  11.0339  11.0449
    11.0837  11.0891  11.1090  11.1220  11.1244  11.1359  11.3758  11.3833
    11.3946  11.3979  11.4331  11.4376  11.4415  11.4549  11.4603  11.4645
    11.4791  11.4875  11.5070  11.5218  11.5286  11.5435  11.5814  11.5868
    11.6456  11.6488  11.6534  11.6634  11.6689  11.6994  11.7135  11.7186
    11.7267  11.7298  11.7466  11.7601  11.7782  11.7849  11.7855  11.7959
    11.8083  11.8133  11.8222  11.8346  11.8603  11.9142  12.0179  12.0302
    12.0397  12.0662  12.0691  12.0850  12.1056  12.1354  12.1367  12.1514
    12.2031  12.2307  12.2439  12.2713  12.2771  12.2809  12.2944  12.3336
    12.3661  12.3671  12.3714  12.3956  12.4165  12.4496  12.4626  12.4705
    12.4730  12.4824  12.5114  12.5258  12.5317  12.5541  12.5571  12.5741
    12.5907  12.6005  12.6257  12.6885  12.7380  12.7651  12.7888  12.8357
    12.8640  12.8681  13.0981  13.1015  13.1689  13.2306  13.2438  13.2469
    13.2508  13.2854  13.2870  13.3347  13.3578  13.4270  13.5111  13.5657
    13.6136  13.6154  13.6186  13.8929  13.9362  13.9414  14.0973  14.1255
    14.1923  14.5518  14.5903  14.6391  14.7396  14.7583  14.8414  14.8742
    15.0103  15.0895  15.1419  15.2181  15.3045  15.4766  15.4891  15.6584
    15.7246  15.7580  15.7782  15.8267  15.8660  16.0100  16.0534  16.0885
    16.1427  16.1583  16.1733  16.1831  16.1934  16.2204  16.2405  16.2427
    16.2737  16.2917  16.3047  16.3462  16.3493  16.4163  16.4322  16.4691
    16.5032  16.5609  16.5716  16.5860  16.6425  16.6670  16.6789  16.6816
    16.6962  16.7038  16.7623  16.8307  16.9103  16.9195  16.9601  17.0172
    17.0223  17.0255  17.6988  17.8028  17.8095  17.8547  19.0518  19.0642
    19.0754  19.1241  19.1268  19.1395  19.1899  19.2152  19.2180  19.2784

          k =-0.5000 0.0000 0.0000 ( 31722 PWs)   bands (ev):

   -66.7850 -66.6980 -66.6980 -66.6582 -66.6582 -66.6184 -66.5906 -66.5903
   -66.5900 -62.3809 -62.3730 -62.3729 -62.3634 -62.3632 -62.3569 -62.3568
   -62.3521 -62.3163 -35.5471 -35.5227 -35.5100 -35.4665 -35.4665 -35.4578
   -35.4577 -35.4326 -35.4326 -35.4056 -35.4055 -35.4030 -35.4028 -35.3880
   -35.3766 -35.3734 -35.3661 -35.3660 -35.3481 -35.3478 -35.3457 -35.3455
   -35.3332 -35.3224 -35.3099 -35.3096 -35.2990 -31.2286 -31.2285 -31.2266
   -31.2058 -31.2051 -31.2020 -31.2016 -31.1992 -31.1950 -31.1936 -31.1921
   -31.1914 -31.1866 -31.1865 -31.1801 -31.1800 -31.1798 -31.1746 -31.1736
   -31.1734 -31.1730 -31.1640 -31.1638 -31.1617 -31.1548 -31.1394 -31.1373
     6.0419   6.0499   7.4221   7.4387   7.4612   7.4834   7.6715   7.6830
     8.1110   8.1139   8.1297   8.1639   8.2230   8.2356   8.2435   8.2752
     8.4114   8.4290   8.4566   8.4794   8.6311   8.6398   8.6497   8.6571
     8.6696   8.6733   8.6778   8.6955   8.7803   8.8062   8.8307   8.8411
     8.8573   8.8586   8.8781   8.8852   8.8963   8.9022   8.9092   8.9295
     8.9316   8.9367   8.9427   8.9545   9.0446   9.0538   9.1592   9.1678
     9.1766   9.2105   9.2154   9.2267   9.2393   9.2482   9.3036   9.3366
     9.3509   9.3766   9.4017   9.4176   9.4773   9.4816   9.4991   9.5071
     9.5412   9.5418   9.5587   9.5633   9.5898   9.6075   9.6091   9.6191
     9.6283   9.6297   9.6322   9.6343   9.6377   9.6377   9.6439   9.6574
     9.6664   9.6776   9.6814   9.6847   9.6927   9.7104   9.7206   9.7280
     9.7433   9.7469   9.7505   9.7733   9.8973   9.8993   9.9353   9.9565
    10.0135  10.0346  10.1628  10.1843  10.2058  10.2181  10.2541  10.2569
    10.2592  10.2656  10.2750  10.2795  10.2824  10.2856  10.3424  10.3594
    10.3728  10.3809  10.3844  10.3886  10.4299  10.4416  10.4631  10.4829
    10.5078  10.5293  10.5308  10.5490  10.5601  10.5672  10.5692  10.5984
    10.6097  10.6566  10.6655  10.7023  10.7109  10.7211  10.7329  10.7479
    10.8064  10.8173  10.8337  10.8503  10.8681  10.9038  10.9178  10.9308
    10.9939  11.0031  11.0200  11.0225  11.0385  11.0568  11.1743  11.1811
    11.2964  11.3399  11.3480  11.3495  11.3760  11.3808  11.3813  11.4023
    11.4080  11.4308  11.4359  11.4849  11.5082  11.5224  11.5482  11.5773
    11.6018  11.6043  11.6316  11.6318  11.6611  11.6746  11.7138  11.7456
    11.7680  11.7737  11.8125  11.8369  11.8374  11.8452  11.8523  11.8610
    11.8755  11.8906  11.9015  11.9122  11.9158  11.9429  11.9461  11.9642
    11.9793  11.9879  11.9908  11.9992  12.0334  12.1076  12.1333  12.1381
    12.1655  12.1908  12.1950  12.2052  12.2108  12.2357  12.2462  12.2809
    12.2965  12.3413  12.3612  12.3860  12.3888  12.4160  12.4284  12.4551
    12.4643  12.4963  12.5005  12.5294  12.5303  12.5525  12.5642  12.5723
    12.5755  12.6013  12.6056  12.6183  12.6779  12.6927  12.7371  12.8162
    12.8813  12.9307  13.0633  13.0744  13.0804  13.0875  13.1180  13.1508
    13.1809  13.2019  13.2225  13.2435  13.2533  13.2967  13.3150  13.3764
    13.4213  13.5532  13.5542  13.6214  13.7094  14.4305  14.4624  14.5358
    14.5904  14.6860  14.7529  14.7966  14.8043  14.8626  14.8737  14.9935
    15.0394  15.1428  15.1485  15.3226  15.3615  15.4364  15.5277  15.6002
    15.6959  15.7325  15.7519  15.8202  15.8659  15.8988  15.9446  16.0444
    16.0631  16.0945  16.1104  16.1337  16.1352  16.1672  16.1678  16.1735
    16.2032  16.2083  16.2268  16.2405  16.2836  16.3060  16.3331  16.3567
    16.4052  16.4306  16.5061  16.5975  16.6693  16.7455  16.9922  17.0744
    17.1518  17.2169  17.2736  17.3229  17.4042  17.4806  17.6360  17.6431
    17.7635  17.7978  17.8006  17.8186  17.8637  17.8739  17.8826  17.9280
    17.9335  18.0942  18.1790  18.1991  19.2562  19.2723  19.3567  19.3690

          k =-0.5000 0.0000 0.5734 ( 31696 PWs)   bands (ev):

   -66.7850 -66.6980 -66.6980 -66.6582 -66.6582 -66.6184 -66.5906 -66.5903
   -66.5900 -62.3809 -62.3730 -62.3729 -62.3634 -62.3632 -62.3569 -62.3568
   -62.3521 -62.3163 -35.5471 -35.5227 -35.5100 -35.4665 -35.4665 -35.4578
   -35.4577 -35.4326 -35.4326 -35.4056 -35.4055 -35.4030 -35.4027 -35.3880
   -35.3766 -35.3734 -35.3661 -35.3660 -35.3481 -35.3478 -35.3457 -35.3455
   -35.3332 -35.3224 -35.3099 -35.3096 -35.2990 -31.2286 -31.2285 -31.2266
   -31.2058 -31.2051 -31.2020 -31.2016 -31.1992 -31.1950 -31.1936 -31.1921
   -31.1914 -31.1866 -31.1865 -31.1801 -31.1800 -31.1798 -31.1746 -31.1736
   -31.1734 -31.1730 -31.1640 -31.1638 -31.1617 -31.1548 -31.1394 -31.1373
     6.5580   6.5744   6.5978   6.6146   7.8405   7.8517   7.8794   7.8901
     7.8976   7.9098   7.9267   7.9435   8.2735   8.2763   8.3059   8.3069
     8.5225   8.5246   8.5331   8.5331   8.6540   8.6569   8.6798   8.6873
     8.6917   8.6927   8.7072   8.7204   8.7321   8.7440   8.7567   8.7574
     8.7685   8.7699   8.7878   8.8025   8.9822   8.9980   9.0147   9.0345
     9.0384   9.0465   9.0484   9.0553   9.2131   9.2172   9.2208   9.2214
     9.2223   9.2315   9.2330   9.2460   9.2484   9.2523   9.2558   9.2566
     9.2614   9.2692   9.2844   9.2896   9.2912   9.3174   9.3951   9.4024
     9.4316   9.4355   9.4371   9.4555   9.4623   9.4664   9.4676   9.4816
     9.4834   9.5013   9.5175   9.5259   9.5276   9.5513   9.5608   9.5681
     9.5739   9.5896   9.7563   9.7584   9.7939   9.8017   9.8077   9.8287
     9.8291   9.8297   9.8503   9.8544   9.8564   9.8611   9.8616   9.8742
     9.9729   9.9802   9.9924   9.9962  10.0215  10.0259  10.0635  10.0663
    10.3715  10.3778  10.3983  10.4013  10.4029  10.4093  10.4145  10.4512
    10.4652  10.4671  10.4760  10.4771  10.4963  10.4968  10.5136  10.5142
    10.5354  10.5513  10.5631  10.5759  10.5924  10.6099  10.6183  10.6203
    10.6296  10.6329  10.6621  10.6726  10.6801  10.6812  10.6869  10.6966
    10.7728  10.7909  10.9531  10.9597  10.9843  10.9935  11.0409  11.0477
    11.1193  11.1235  11.1360  11.1562  11.1692  11.1855  11.2123  11.2129
    11.2184  11.2281  11.2900  11.3286  11.3352  11.3375  11.3648  11.3676
    11.3744  11.3770  11.4236  11.4247  11.4349  11.4408  11.5066  11.5133
    11.5304  11.5592  11.5683  11.5732  11.5870  11.6114  11.6241  11.6305
    11.6363  11.6367  11.7343  11.7507  11.7557  11.7656  11.8255  11.8850
    11.8900  11.9227  11.9272  11.9387  11.9485  11.9851  12.0181  12.0194
    12.0318  12.0370  12.0404  12.0443  12.0445  12.0740  12.0914  12.1331
    12.1467  12.1742  12.1929  12.2225  12.2612  12.2680  12.2734  12.3044
    12.3723  12.3823  12.4040  12.4084  12.4392  12.4545  12.4697  12.5056
    12.5061  12.5412  12.5462  12.5615  12.5672  12.6001  12.6031  12.6104
    12.6172  12.6460  12.6460  12.6516  12.6678  12.7041  12.7165  12.7693
    12.7738  12.8569  12.8695  12.9228  13.0119  13.0432  13.0475  13.0716
    13.0876  13.3771  13.5033  13.5164  13.6351  13.7219  13.7445  13.7878
    13.8056  13.9852  14.0258  14.0872  14.0982  14.2641  14.3448  14.3592
    14.4008  14.5195  14.5535  14.5570  14.6260  14.8604  14.8651  15.1085
    15.2067  15.2283  15.2492  15.2708  15.2950  15.3515  15.3942  15.5102
    15.5918  15.6387  15.6837  15.8750  15.8871  15.9731  15.9819  16.0210
    16.0500  16.0751  16.1092  16.1278  16.1545  16.1863  16.2164  16.2355
    16.2677  16.3053  16.3440  16.3534  16.3809  16.3909  16.4125  16.4416
    16.4762  16.4993  16.5345  16.5606  16.5962  16.6217  16.6613  16.6801
    16.6937  16.7054  16.7252  16.7688  16.8838  16.8842  16.9980  17.0496
    17.0834  17.1316  17.2696  17.3197  18.6748  18.7053  18.7298  18.7520
    18.7793  18.7839  18.8526  18.8727  18.9114  18.9198  18.9393  18.9616

     the Fermi energy is    14.8163 ev

!    total energy              =  -33062.56565329 Ry
     Harris-Foulkes estimate   =  -33062.56563894 Ry
     estimated scf accuracy    <       0.00000056 Ry

     total all-electron energy =  -1410574.656028 Ry

     The total energy is the sum of the following terms:

     one-electron contribution =   -1645.76338850 Ry
     hartree contribution      =    1490.00439787 Ry
     xc contribution           =   -1658.73960436 Ry
     ewald contribution        =   -4919.25534656 Ry
     one-center paw contrib.   =  -26328.81171174 Ry

     total magnetization       =     0.62 Bohr mag/cell
     absolute magnetization    =    78.24 Bohr mag/cell

     convergence has been achieved in  22 iterations

     Writing output data file mnau2.save
 
     init_run     :     52.28s CPU     53.04s WALL (       1 calls)
     electrons    :   3357.29s CPU   3418.01s WALL (       1 calls)

     Called by init_run:
     wfcinit      :     46.34s CPU     46.86s WALL (       1 calls)
     potinit      :      2.47s CPU      2.53s WALL (       1 calls)

     Called by electrons:
     c_bands      :   2990.48s CPU   3039.36s WALL (      22 calls)
     sum_band     :    308.71s CPU    316.83s WALL (      22 calls)
     v_of_rho     :      5.95s CPU      6.11s WALL (      23 calls)
     newd         :     18.73s CPU     21.34s WALL (      23 calls)
     PAW_pot      :     34.05s CPU     34.60s WALL (      23 calls)
     mix_rho      :      1.22s CPU      1.27s WALL (      22 calls)

     Called by c_bands:
     init_us_2    :     10.67s CPU     10.73s WALL (     720 calls)
     cegterg      :   2921.54s CPU   2969.65s WALL (     352 calls)

     Called by sum_band:
     sum_band:bec :      1.72s CPU      1.73s WALL (     352 calls)
     addusdens    :     33.28s CPU     36.25s WALL (      22 calls)

     Called by *egterg:
     h_psi        :   1036.01s CPU   1048.90s WALL (    1392 calls)
     s_psi        :    249.09s CPU    249.44s WALL (    1392 calls)
     g_psi        :      3.88s CPU      3.89s WALL (    1024 calls)
     cdiaghg      :   1043.70s CPU   1044.77s WALL (    1376 calls)

     Called by h_psi:
     h_psi:pot    :   1026.84s CPU   1039.67s WALL (    1392 calls)
     h_psi:calbec :    248.77s CPU    251.63s WALL (    1392 calls)
     vloc_psi     :    528.09s CPU    537.77s WALL (    1392 calls)
     add_vuspsi   :    249.96s CPU    250.27s WALL (    1392 calls)

     General routines
     calbec       :    354.43s CPU    358.48s WALL (    1744 calls)
     fft          :      5.29s CPU      5.66s WALL (     703 calls)
     ffts         :      0.12s CPU      0.13s WALL (      90 calls)
     fftw         :    512.70s CPU    522.99s WALL (  793254 calls)
     interpolate  :      0.90s CPU      0.94s WALL (      90 calls)
 
     Parallel routines
     fft_scatt_xy :     60.49s CPU     61.57s WALL (  794047 calls)
     fft_scatt_yz :    139.94s CPU    144.78s WALL (  794047 calls)
 
     PWSCF        : 56m55.15s CPU    58m10.73s WALL

 
   This run was terminated on:   7:41:37   8Mar2019            

=------------------------------------------------------------------------------=
   JOB DONE.
=------------------------------------------------------------------------------=
