
     Program PWSCF v.6.2 (svn rev. 14038) starts on  4Mar2019 at  4:40:59 

     This program is part of the open-source Quantum ESPRESSO suite
     for quantum simulation of materials; please cite
         "P. Giannozzi et al., J. Phys.:Condens. Matter 21 395502 (2009);
         "P. Giannozzi et al., J. Phys.:Condens. Matter 29 465901 (2017);
          URL http://www.quantum-espresso.org", 
     in publications or presentations arising from this work. More details at
     http://www.quantum-espresso.org/quote

     Parallel version (MPI), running on    16 processors

     MPI processes distributed on     1 nodes
     R & G space division:  proc/nbgrp/npool/nimage =      16
     Waiting for input...
     Reading input from standard input

     Current dimensions of program PWSCF are:
     Max number of different atomic species (ntypx) = 10
     Max number of k-points (npk) =  40000
     Max angular momentum in pseudopotentials (lmaxx) =  3
               file Mn.pbe-spn-kjpaw_psl.0.3.1.UPF: wavefunction(s)  3P 3D renormalized
               file Mn.pbe-spn-kjpaw_psl.0.3.1.UPF: wavefunction(s)  3P 3D renormalized
               file Au.pbe-dn-kjpaw_psl.0.1.UPF: wavefunction(s)  6S 6P 5D renormalized

     Subspace diagonalization in iterative solution of the eigenvalue problem:
     a serial algorithm will be used

 
     Parallelization info
     --------------------
     sticks:   dense  smooth     PW     G-vecs:    dense   smooth      PW
     Min         736     331     90                52486    15847    2256
     Max         737     332     91                52489    15850    2259
     Sum       11785    5297   1449               839803   253559   36125
 


     bravais-lattice index     =            0
     lattice parameter (alat)  =      19.2459  a.u.
     unit-cell volume          =    6216.1497 (a.u.)^3
     number of atoms/cell      =           54
     number of atomic types    =            3
     number of electrons       =       666.00
     number of Kohn-Sham states=          400
     kinetic-energy cutoff     =      45.0000  Ry
     charge density cutoff     =     400.0000  Ry
     convergence threshold     =      1.0E-06
     mixing beta               =       0.1000
     number of iterations used =            8  plain     mixing
     Exchange-correlation      = SLA PW PBX PBC ( 1  4  3  4 0 0)

     celldm(1)=  19.245946  celldm(2)=   0.000000  celldm(3)=   0.000000
     celldm(4)=   0.000000  celldm(5)=   0.000000  celldm(6)=   0.000000

     crystal axes: (cart. coord. in units of alat)
               a(1) = (   1.000000   0.000000   0.000000 )  
               a(2) = (   0.000000   1.000000   0.000000 )  
               a(3) = (   0.000000   0.000000   0.871974 )  

     reciprocal axes: (cart. coord. in units 2 pi/alat)
               b(1) = (  1.000000  0.000000  0.000000 )  
               b(2) = (  0.000000  1.000000  0.000000 )  
               b(3) = (  0.000000  0.000000  1.146823 )  


     PseudoPot. # 1 for Mn read from file:
     ./pseudo/Mn.pbe-spn-kjpaw_psl.0.3.1.UPF
     MD5 check sum: 7eef95dd2aae66803482eea66ebeebf1
     Pseudo is Projector augmented-wave + core cor, Zval = 15.0
     Generated using "atomic" code by A. Dal Corso v.5.0.99 svn rev. 10869
     Shape of augmentation charge: PSQ
     Using radial grid of 1187 points,  6 beta functions with: 
                l(1) =   0
                l(2) =   0
                l(3) =   1
                l(4) =   1
                l(5) =   2
                l(6) =   2
     Q(r) pseudized with 0 coefficients 


     PseudoPot. # 2 for Mn read from file:
     ./pseudo/Mn.pbe-spn-kjpaw_psl.0.3.1.UPF
     MD5 check sum: 7eef95dd2aae66803482eea66ebeebf1
     Pseudo is Projector augmented-wave + core cor, Zval = 15.0
     Generated using "atomic" code by A. Dal Corso v.5.0.99 svn rev. 10869
     Shape of augmentation charge: PSQ
     Using radial grid of 1187 points,  6 beta functions with: 
                l(1) =   0
                l(2) =   0
                l(3) =   1
                l(4) =   1
                l(5) =   2
                l(6) =   2
     Q(r) pseudized with 0 coefficients 


     PseudoPot. # 3 for Au read from file:
     ./pseudo/Au.pbe-dn-kjpaw_psl.0.1.UPF
     MD5 check sum: 5c9b92683623e7ae2ab3f8e525febab6
     Pseudo is Projector augmented-wave + core cor, Zval = 11.0
     Generated using "atomic" code by A. Dal Corso v.5.0.2 svn rev. 9415
     Shape of augmentation charge: PSQ
     Using radial grid of 1279 points,  6 beta functions with: 
                l(1) =   0
                l(2) =   0
                l(3) =   1
                l(4) =   1
                l(5) =   2
                l(6) =   2
     Q(r) pseudized with 0 coefficients 


     atomic species   valence    mass     pseudopotential
        Mn1           15.00    54.93800     Mn( 1.00)
        Mn2           15.00    54.93800     Mn( 1.00)
        Au            11.00   196.96600     Au( 1.00)

     Starting magnetic structure 
     atomic species   magnetization
        Mn1          0.800
        Mn2         -0.800
        Au           0.000

      4 Sym. Ops. (no inversion) found



   Cartesian axes

     site n.     atom                  positions (alat units)
         1           Mn1 tau(   1) = (   0.0000000   0.0000000   0.0000000  )
         2           Mn1 tau(   2) = (   0.0000000   0.3333300   0.0000000  )
         3           Mn1 tau(   3) = (   0.0000000   0.6666700   0.0000000  )
         4           Mn1 tau(   4) = (   0.3333300   0.0000000   0.0000000  )
         5           Mn1 tau(   5) = (   0.3333300   0.3333300   0.0000000  )
         6           Mn2 tau(   6) = (   0.3333300   0.6666700   0.0000000  )
         7           Mn1 tau(   7) = (   0.6666700   0.0000000   0.0000000  )
         8           Mn2 tau(   8) = (   0.6666700   0.3333300   0.0000000  )
         9           Mn2 tau(   9) = (   0.6666700   0.6666700   0.0000000  )
        10           Mn2 tau(  10) = (   0.1666700   0.1666700   0.4359871  )
        11           Mn2 tau(  11) = (   0.1666700   0.5000000   0.4359871  )
        12           Mn2 tau(  12) = (   0.1666700   0.8333300   0.4359871  )
        13           Mn2 tau(  13) = (   0.5000000   0.1666700   0.4359871  )
        14           Mn2 tau(  14) = (   0.5000000   0.5000000   0.4359871  )
        15           Mn1 tau(  15) = (   0.5000000   0.8333300   0.4359871  )
        16           Mn2 tau(  16) = (   0.8333300   0.1666700   0.4359871  )
        17           Mn1 tau(  17) = (   0.8333300   0.5000000   0.4359871  )
        18           Mn1 tau(  18) = (   0.8333300   0.8333300   0.4359871  )
        19           Au  tau(  19) = (   0.1666700   0.1666700   0.7327374  )
        20           Au  tau(  20) = (   0.1666700   0.5000000   0.7327374  )
        21           Au  tau(  21) = (   0.1666700   0.8333300   0.7327374  )
        22           Au  tau(  22) = (   0.5000000   0.1666700   0.7327374  )
        23           Au  tau(  23) = (   0.5000000   0.5000000   0.7327374  )
        24           Au  tau(  24) = (   0.5000000   0.8333300   0.7327374  )
        25           Au  tau(  25) = (   0.8333300   0.1666700   0.7327374  )
        26           Au  tau(  26) = (   0.8333300   0.5000000   0.7327374  )
        27           Au  tau(  27) = (   0.8333300   0.8333300   0.7327374  )
        28           Au  tau(  28) = (   0.1666700   0.1666700   0.1392369  )
        29           Au  tau(  29) = (   0.1666700   0.5000000   0.1392369  )
        30           Au  tau(  30) = (   0.1666700   0.8333300   0.1392369  )
        31           Au  tau(  31) = (   0.5000000   0.1666700   0.1392369  )
        32           Au  tau(  32) = (   0.5000000   0.5000000   0.1392369  )
        33           Au  tau(  33) = (   0.5000000   0.8333300   0.1392369  )
        34           Au  tau(  34) = (   0.8333300   0.1666700   0.1392369  )
        35           Au  tau(  35) = (   0.8333300   0.5000000   0.1392369  )
        36           Au  tau(  36) = (   0.8333300   0.8333300   0.1392369  )
        37           Au  tau(  37) = (   0.0000000   0.0000000   0.2967503  )
        38           Au  tau(  38) = (   0.0000000   0.3333300   0.2967503  )
        39           Au  tau(  39) = (   0.0000000   0.6666700   0.2967503  )
        40           Au  tau(  40) = (   0.3333300   0.0000000   0.2967503  )
        41           Au  tau(  41) = (   0.3333300   0.3333300   0.2967503  )
        42           Au  tau(  42) = (   0.3333300   0.6666700   0.2967503  )
        43           Au  tau(  43) = (   0.6666700   0.0000000   0.2967503  )
        44           Au  tau(  44) = (   0.6666700   0.3333300   0.2967503  )
        45           Au  tau(  45) = (   0.6666700   0.6666700   0.2967503  )
        46           Au  tau(  46) = (   0.0000000   0.0000000   0.5752240  )
        47           Au  tau(  47) = (   0.0000000   0.3333300   0.5752240  )
        48           Au  tau(  48) = (   0.0000000   0.6666700   0.5752240  )
        49           Au  tau(  49) = (   0.3333300   0.0000000   0.5752240  )
        50           Au  tau(  50) = (   0.3333300   0.3333300   0.5752240  )
        51           Au  tau(  51) = (   0.3333300   0.6666700   0.5752240  )
        52           Au  tau(  52) = (   0.6666700   0.0000000   0.5752240  )
        53           Au  tau(  53) = (   0.6666700   0.3333300   0.5752240  )
        54           Au  tau(  54) = (   0.6666700   0.6666700   0.5752240  )

     number of k points=     6 (tetrahedron method)
                       cart. coord. in units 2pi/alat
        k(    1) = (   0.0000000   0.0000000   0.0000000), wk =   0.1250000
        k(    2) = (   0.0000000   0.0000000  -0.5734114), wk =   0.1250000
        k(    3) = (   0.0000000  -0.5000000   0.0000000), wk =   0.2500000
        k(    4) = (   0.0000000  -0.5000000  -0.5734114), wk =   0.2500000
        k(    5) = (  -0.5000000  -0.5000000   0.0000000), wk =   0.1250000
        k(    6) = (  -0.5000000  -0.5000000  -0.5734114), wk =   0.1250000

     Dense  grid:   839803 G-vectors     FFT dimensions: ( 125, 125, 108)

     Smooth grid:   253559 G-vectors     FFT dimensions: (  90,  90,  72)

     Estimated max dynamical RAM per process >     521.79 MB

     Estimated total dynamical RAM >       8.15 GB
     Generating pointlists ...
     new r_m :   0.1129 (alat units)  2.1733 (a.u.) for type    1
     new r_m :   0.1129 (alat units)  2.1733 (a.u.) for type    2
     new r_m :   0.1129 (alat units)  2.1733 (a.u.) for type    3

     Check: negative/imaginary core charge=   -0.000006    0.000000

     Initial potential from superposition of free atoms

     starting charge  665.98709, renormalised to  666.00000
     Starting wfc are  504 randomized atomic wfcs
     Checking if some PAW data can be deallocated... 

     total cpu time spent up to now is       45.9 secs

     Self-consistent Calculation

     iteration #  1     ecut=    45.00 Ry     beta= 0.10
     Davidson diagonalization with overlap
     ethr =  1.00E-02,  avg # of iterations =  3.3

     total cpu time spent up to now is      171.6 secs

     total energy              =  -33047.18553883 Ry
     Harris-Foulkes estimate   =  -33044.03116563 Ry
     estimated scf accuracy    <      27.00658748 Ry

     total magnetization       =    -0.04 Bohr mag/cell
     absolute magnetization    =    92.17 Bohr mag/cell

     iteration #  2     ecut=    45.00 Ry     beta= 0.10
     Davidson diagonalization with overlap
     ethr =  4.06E-03,  avg # of iterations =  1.0

     total cpu time spent up to now is      255.9 secs

     total energy              =  -33058.57205837 Ry
     Harris-Foulkes estimate   =  -33047.36410141 Ry
     estimated scf accuracy    <      21.36187039 Ry

     total magnetization       =    -0.06 Bohr mag/cell
     absolute magnetization    =    91.76 Bohr mag/cell

     iteration #  3     ecut=    45.00 Ry     beta= 0.10
     Davidson diagonalization with overlap
     ethr =  3.21E-03,  avg # of iterations =  2.2

     total cpu time spent up to now is      359.1 secs

     total energy              =  -33066.13626006 Ry
     Harris-Foulkes estimate   =  -33061.36611058 Ry
     estimated scf accuracy    <       8.80469942 Ry

     total magnetization       =    -0.22 Bohr mag/cell
     absolute magnetization    =    85.69 Bohr mag/cell

     iteration #  4     ecut=    45.00 Ry     beta= 0.10
     Davidson diagonalization with overlap
     ethr =  1.32E-03,  avg # of iterations =  4.2

     total cpu time spent up to now is      513.5 secs

     total energy              =  -33059.21731847 Ry
     Harris-Foulkes estimate   =  -33068.72184785 Ry
     estimated scf accuracy    <      50.98291595 Ry

     total magnetization       =    -0.34 Bohr mag/cell
     absolute magnetization    =    72.06 Bohr mag/cell

     iteration #  5     ecut=    45.00 Ry     beta= 0.10
     Davidson diagonalization with overlap
     ethr =  1.32E-03,  avg # of iterations =  5.0

     total cpu time spent up to now is      691.2 secs

     total energy              =  -33061.76556050 Ry
     Harris-Foulkes estimate   =  -33062.68231453 Ry
     estimated scf accuracy    <       4.10792109 Ry

     total magnetization       =    -0.21 Bohr mag/cell
     absolute magnetization    =    83.43 Bohr mag/cell

     iteration #  6     ecut=    45.00 Ry     beta= 0.10
     Davidson diagonalization with overlap
     ethr =  6.17E-04,  avg # of iterations =  4.2

     total cpu time spent up to now is      829.4 secs

     total energy              =  -33062.56365366 Ry
     Harris-Foulkes estimate   =  -33062.61333009 Ry
     estimated scf accuracy    <       0.61135780 Ry

     total magnetization       =    -0.12 Bohr mag/cell
     absolute magnetization    =    79.08 Bohr mag/cell

     iteration #  7     ecut=    45.00 Ry     beta= 0.10
     Davidson diagonalization with overlap
     ethr =  9.18E-05,  avg # of iterations =  2.0

     total cpu time spent up to now is      924.2 secs

     total energy              =  -33062.58787431 Ry
     Harris-Foulkes estimate   =  -33062.59147503 Ry
     estimated scf accuracy    <       0.20250505 Ry

     total magnetization       =    -0.20 Bohr mag/cell
     absolute magnetization    =    78.87 Bohr mag/cell

     iteration #  8     ecut=    45.00 Ry     beta= 0.10
     Davidson diagonalization with overlap
     ethr =  3.04E-05,  avg # of iterations =  2.8

     total cpu time spent up to now is     1026.8 secs

     total energy              =  -33062.58544286 Ry
     Harris-Foulkes estimate   =  -33062.59185225 Ry
     estimated scf accuracy    <       0.17119418 Ry

     total magnetization       =    -0.19 Bohr mag/cell
     absolute magnetization    =    78.57 Bohr mag/cell

     iteration #  9     ecut=    45.00 Ry     beta= 0.10
     Davidson diagonalization with overlap
     ethr =  2.57E-05,  avg # of iterations =  1.1

     total cpu time spent up to now is     1111.0 secs

     total energy              =  -33062.57328271 Ry
     Harris-Foulkes estimate   =  -33062.59009078 Ry
     estimated scf accuracy    <       0.10679689 Ry

     total magnetization       =    -0.22 Bohr mag/cell
     absolute magnetization    =    78.86 Bohr mag/cell

     iteration # 10     ecut=    45.00 Ry     beta= 0.10
     Davidson diagonalization with overlap
     ethr =  1.60E-05,  avg # of iterations =  2.4

     total cpu time spent up to now is     1212.5 secs

     total energy              =  -33062.58153077 Ry
     Harris-Foulkes estimate   =  -33062.58221922 Ry
     estimated scf accuracy    <       0.00715632 Ry

     total magnetization       =    -0.29 Bohr mag/cell
     absolute magnetization    =    78.90 Bohr mag/cell

     iteration # 11     ecut=    45.00 Ry     beta= 0.10
     Davidson diagonalization with overlap
     ethr =  1.07E-06,  avg # of iterations =  6.2

     total cpu time spent up to now is     1368.3 secs

     total energy              =  -33062.58419368 Ry
     Harris-Foulkes estimate   =  -33062.58288593 Ry
     estimated scf accuracy    <       0.00550102 Ry

     total magnetization       =    -0.28 Bohr mag/cell
     absolute magnetization    =    79.08 Bohr mag/cell

     iteration # 12     ecut=    45.00 Ry     beta= 0.10
     Davidson diagonalization with overlap
     ethr =  8.26E-07,  avg # of iterations =  1.0

     total cpu time spent up to now is     1451.2 secs

     total energy              =  -33062.58511684 Ry
     Harris-Foulkes estimate   =  -33062.58426396 Ry
     estimated scf accuracy    <       0.00255031 Ry

     total magnetization       =    -0.28 Bohr mag/cell
     absolute magnetization    =    78.96 Bohr mag/cell

     iteration # 13     ecut=    45.00 Ry     beta= 0.10
     Davidson diagonalization with overlap
     ethr =  3.83E-07,  avg # of iterations =  2.3

     total cpu time spent up to now is     1551.9 secs

     total energy              =  -33062.58552449 Ry
     Harris-Foulkes estimate   =  -33062.58512572 Ry
     estimated scf accuracy    <       0.00043543 Ry

     total magnetization       =    -0.30 Bohr mag/cell
     absolute magnetization    =    78.79 Bohr mag/cell

     iteration # 14     ecut=    45.00 Ry     beta= 0.10
     Davidson diagonalization with overlap
     ethr =  6.54E-08,  avg # of iterations =  3.2

     total cpu time spent up to now is     1657.3 secs

     total energy              =  -33062.58565045 Ry
     Harris-Foulkes estimate   =  -33062.58551610 Ry
     estimated scf accuracy    <       0.00030216 Ry

     total magnetization       =    -0.30 Bohr mag/cell
     absolute magnetization    =    78.74 Bohr mag/cell

     iteration # 15     ecut=    45.00 Ry     beta= 0.10
     Davidson diagonalization with overlap
     ethr =  4.54E-08,  avg # of iterations =  2.0

     total cpu time spent up to now is     1750.4 secs

     total energy              =  -33062.58574288 Ry
     Harris-Foulkes estimate   =  -33062.58562449 Ry
     estimated scf accuracy    <       0.00013960 Ry

     total magnetization       =    -0.30 Bohr mag/cell
     absolute magnetization    =    78.73 Bohr mag/cell

     iteration # 16     ecut=    45.00 Ry     beta= 0.10
     Davidson diagonalization with overlap
     ethr =  2.10E-08,  avg # of iterations =  2.8

     total cpu time spent up to now is     1859.7 secs

     total energy              =  -33062.58579654 Ry
     Harris-Foulkes estimate   =  -33062.58571315 Ry
     estimated scf accuracy    <       0.00005119 Ry

     total magnetization       =    -0.31 Bohr mag/cell
     absolute magnetization    =    78.71 Bohr mag/cell

     iteration # 17     ecut=    45.00 Ry     beta= 0.10
     Davidson diagonalization with overlap
     ethr =  7.69E-09,  avg # of iterations =  2.2

     total cpu time spent up to now is     1961.8 secs

     total energy              =  -33062.58582182 Ry
     Harris-Foulkes estimate   =  -33062.58577940 Ry
     estimated scf accuracy    <       0.00002212 Ry

     total magnetization       =    -0.31 Bohr mag/cell
     absolute magnetization    =    78.69 Bohr mag/cell

     iteration # 18     ecut=    45.00 Ry     beta= 0.10
     Davidson diagonalization with overlap
     ethr =  3.32E-09,  avg # of iterations =  3.0

     total cpu time spent up to now is     2091.1 secs

     total energy              =  -33062.58581179 Ry
     Harris-Foulkes estimate   =  -33062.58580240 Ry
     estimated scf accuracy    <       0.00000682 Ry

     total magnetization       =    -0.31 Bohr mag/cell
     absolute magnetization    =    78.67 Bohr mag/cell

     iteration # 19     ecut=    45.00 Ry     beta= 0.10
     Davidson diagonalization with overlap
     ethr =  1.02E-09,  avg # of iterations =  2.0

     total cpu time spent up to now is     2186.3 secs

     total energy              =  -33062.58580822 Ry
     Harris-Foulkes estimate   =  -33062.58580041 Ry
     estimated scf accuracy    <       0.00000313 Ry

     total magnetization       =    -0.31 Bohr mag/cell
     absolute magnetization    =    78.66 Bohr mag/cell

     iteration # 20     ecut=    45.00 Ry     beta= 0.10
     Davidson diagonalization with overlap
     ethr =  4.69E-10,  avg # of iterations =  2.7

     total cpu time spent up to now is     2302.5 secs

     total energy              =  -33062.58580788 Ry
     Harris-Foulkes estimate   =  -33062.58580237 Ry
     estimated scf accuracy    <       0.00000132 Ry

     total magnetization       =    -0.31 Bohr mag/cell
     absolute magnetization    =    78.66 Bohr mag/cell

     iteration # 21     ecut=    45.00 Ry     beta= 0.10
     Davidson diagonalization with overlap
     ethr =  1.99E-10,  avg # of iterations =  3.0
 
     Magnetic moment per site:
     atom:    1    charge:   13.5812    magn:    3.9506    constr:    0.0000
     atom:    2    charge:   13.5755    magn:    4.0041    constr:    0.0000
     atom:    3    charge:   13.5805    magn:    3.9613    constr:    0.0000
     atom:    4    charge:   13.5755    magn:    4.0041    constr:    0.0000
     atom:    5    charge:   13.5690    magn:    4.0677    constr:    0.0000
     atom:    6    charge:   13.5757    magn:   -4.0247    constr:    0.0000
     atom:    7    charge:   13.5805    magn:    3.9613    constr:    0.0000
     atom:    8    charge:   13.5757    magn:   -4.0247    constr:    0.0000
     atom:    9    charge:   13.5697    magn:   -4.0421    constr:    0.0000
     atom:   10    charge:   13.5714    magn:   -4.0318    constr:    0.0000
     atom:   11    charge:   13.5777    magn:   -3.9879    constr:    0.0000
     atom:   12    charge:   13.5726    magn:   -4.0435    constr:    0.0000
     atom:   13    charge:   13.5777    magn:   -3.9879    constr:    0.0000
     atom:   14    charge:   13.5802    magn:   -3.9653    constr:    0.0000
     atom:   15    charge:   13.5752    magn:    4.0450    constr:    0.0000
     atom:   16    charge:   13.5726    magn:   -4.0435    constr:    0.0000
     atom:   17    charge:   13.5752    magn:    4.0450    constr:    0.0000
     atom:   18    charge:   13.5826    magn:    3.9555    constr:    0.0000
     atom:   19    charge:    9.1208    magn:    0.0446    constr:    0.0000
     atom:   20    charge:    9.1204    magn:    0.0185    constr:    0.0000
     atom:   21    charge:    9.1201    magn:    0.0110    constr:    0.0000
     atom:   22    charge:    9.1204    magn:    0.0185    constr:    0.0000
     atom:   23    charge:    9.1204    magn:   -0.0372    constr:    0.0000
     atom:   24    charge:    9.1204    magn:    0.0096    constr:    0.0000
     atom:   25    charge:    9.1201    magn:    0.0110    constr:    0.0000
     atom:   26    charge:    9.1204    magn:    0.0096    constr:    0.0000
     atom:   27    charge:    9.1199    magn:    0.0423    constr:    0.0000
     atom:   28    charge:    9.1208    magn:    0.0446    constr:    0.0000
     atom:   29    charge:    9.1204    magn:    0.0185    constr:    0.0000
     atom:   30    charge:    9.1201    magn:    0.0110    constr:    0.0000
     atom:   31    charge:    9.1204    magn:    0.0185    constr:    0.0000
     atom:   32    charge:    9.1204    magn:   -0.0372    constr:    0.0000
     atom:   33    charge:    9.1204    magn:    0.0096    constr:    0.0000
     atom:   34    charge:    9.1201    magn:    0.0110    constr:    0.0000
     atom:   35    charge:    9.1204    magn:    0.0096    constr:    0.0000
     atom:   36    charge:    9.1199    magn:    0.0423    constr:    0.0000
     atom:   37    charge:    9.1218    magn:   -0.0219    constr:    0.0000
     atom:   38    charge:    9.1210    magn:   -0.0159    constr:    0.0000
     atom:   39    charge:    9.1196    magn:    0.0034    constr:    0.0000
     atom:   40    charge:    9.1210    magn:   -0.0159    constr:    0.0000
     atom:   41    charge:    9.1200    magn:   -0.0488    constr:    0.0000
     atom:   42    charge:    9.1200    magn:   -0.0424    constr:    0.0000
     atom:   43    charge:    9.1196    magn:    0.0034    constr:    0.0000
     atom:   44    charge:    9.1200    magn:   -0.0424    constr:    0.0000
     atom:   45    charge:    9.1214    magn:    0.0153    constr:    0.0000
     atom:   46    charge:    9.1218    magn:   -0.0219    constr:    0.0000
     atom:   47    charge:    9.1210    magn:   -0.0159    constr:    0.0000
     atom:   48    charge:    9.1196    magn:    0.0034    constr:    0.0000
     atom:   49    charge:    9.1210    magn:   -0.0159    constr:    0.0000
     atom:   50    charge:    9.1200    magn:   -0.0488    constr:    0.0000
     atom:   51    charge:    9.1200    magn:   -0.0424    constr:    0.0000
     atom:   52    charge:    9.1196    magn:    0.0034    constr:    0.0000
     atom:   53    charge:    9.1200    magn:   -0.0424    constr:    0.0000
     atom:   54    charge:    9.1214    magn:    0.0153    constr:    0.0000

     total cpu time spent up to now is     2429.6 secs

     End of self-consistent calculation

 ------ SPIN UP ------------


          k = 0.0000 0.0000 0.0000 ( 31747 PWs)   bands (ev):

   -66.7753 -66.7061 -66.7061 -66.6679 -66.6679 -66.6358 -66.6358 -66.6163
   -66.5873 -62.4100 -62.3941 -62.3940 -62.3896 -62.3626 -62.3625 -62.3503
   -62.3503 -62.3229 -35.5332 -35.5257 -35.4959 -35.4690 -35.4688 -35.4560
   -35.4559 -35.4366 -35.4365 -35.4218 -35.4217 -35.4161 -35.4161 -35.3939
   -35.3939 -35.3884 -35.3883 -35.3857 -35.3855 -35.3674 -35.3645 -35.3623
   -35.3573 -35.3541 -35.3516 -35.3414 -35.2870 -31.2480 -31.2413 -31.2411
   -31.2338 -31.2220 -31.2207 -31.2157 -31.2113 -31.2104 -31.2079 -31.2042
   -31.2041 -31.1981 -31.1981 -31.1965 -31.1965 -31.1901 -31.1901 -31.1728
   -31.1727 -31.1697 -31.1697 -31.1645 -31.1613 -31.1613 -31.1407 -31.1396
     5.6162   7.1385   7.1591   7.2041   7.2183   7.3650   7.8448   7.8954
     7.9186   7.9481   8.0820   8.0903   8.1434   8.1827   8.1832   8.2507
     8.2508   8.3020   8.3062   8.5125   8.5567   8.5589   8.5707   8.5917
     8.6257   8.8565   8.8612   8.8640   8.8721   8.8840   8.8877   8.8968
     8.8969   8.9073   8.9116   8.9221   8.9364   8.9590   8.9731   8.9805
     8.9841   9.0836   9.1200   9.1254   9.1290   9.1366   9.1495   9.1585
     9.1983   9.1988   9.2165   9.2671   9.2865   9.2931   9.3072   9.3457
     9.3479   9.3665   9.3692   9.3748   9.3832   9.3991   9.3999   9.4332
     9.4400   9.4510   9.4557   9.4625   9.4684   9.4687   9.4893   9.5792
     9.5801   9.5863   9.5942   9.5943   9.6100   9.6681   9.6688   9.6706
     9.6723   9.6758   9.6883   9.7354   9.7625   9.7741   9.8020   9.8488
     9.8510   9.9072   9.9120   9.9482   9.9537   9.9542  10.0200  10.0445
    10.0877  10.1159  10.1337  10.1750  10.2864  10.2865  10.2937  10.2972
    10.3007  10.3016  10.3056  10.3220  10.3221  10.3330  10.3383  10.3409
    10.3438  10.3499  10.3516  10.3634  10.3660  10.3754  10.3764  10.3835
    10.4045  10.5101  10.5201  10.5426  10.6152  10.6164  10.6253  10.6591
    10.6772  10.7837  10.7883  10.8053  10.8115  10.8249  10.8285  10.8375
    10.8532  10.8585  10.8622  10.8750  10.8765  10.8880  10.8907  10.8989
    10.9116  10.9207  11.0147  11.0245  11.0876  11.0921  11.2075  11.2200
    11.2237  11.2296  11.2317  11.2603  11.2748  11.2853  11.3305  11.3310
    11.3506  11.3783  11.3847  11.3969  11.4001  11.4042  11.4074  11.4287
    11.4454  11.5110  11.5523  11.5911  11.5912  11.5951  11.5974  11.6204
    11.6894  11.7075  11.7094  11.7251  11.7309  11.7447  11.7517  11.7579
    11.8285  11.8361  11.8575  11.8708  11.8846  11.9203  11.9248  11.9429
    11.9492  12.0753  12.1014  12.1021  12.1025  12.1032  12.1056  12.1413
    12.1432  12.1474  12.1474  12.1482  12.1525  12.1666  12.1796  12.2039
    12.2699  12.2730  12.2936  12.3387  12.3548  12.3827  12.4022  12.4325
    12.4345  12.4393  12.4534  12.4670  12.5086  12.5108  12.5169  12.5261
    12.5409  12.5443  12.5450  12.5618  12.5897  12.6089  12.6299  12.6463
    12.7296  12.7436  12.7518  12.7728  12.8473  12.8967  13.0337  13.0881
    13.1107  13.1468  13.1755  13.1951  13.4330  13.5385  13.7800  13.8666
    13.8800  14.0889  14.0940  14.1863  14.2385  14.3927  14.4118  14.6571
    14.7166  14.8406  14.8717  14.9654  15.0332  15.0847  15.1180  15.2780
    15.2798  15.2799  15.3181  15.3562  15.4579  15.4819  15.5043  15.6358
    15.6593  15.6594  15.6893  15.7927  15.8211  15.8499  15.9145  15.9725
    16.0070  16.0511  16.0535  16.0923  16.1382  16.1590  16.1787  16.1880
    16.2344  16.2634  16.2930  16.3061  16.3304  16.3574  16.3660  16.4177
    16.4531  16.4601  16.4889  16.5918  16.6043  16.6368  16.8091  16.8438
    16.9088  17.0329  17.1876  17.1893  17.1976  17.2363  17.2434  17.3240
    17.4888  17.5678  17.8334  17.8987  17.9274  17.9373  17.9788  18.0636
    18.2456  18.2885  18.4582  18.9005  18.9989  19.0081  19.1829  19.2319

          k = 0.0000 0.0000-0.5734 ( 31692 PWs)   bands (ev):

   -66.7753 -66.7061 -66.7061 -66.6679 -66.6679 -66.6358 -66.6358 -66.6163
   -66.5873 -62.4100 -62.3941 -62.3940 -62.3896 -62.3626 -62.3625 -62.3503
   -62.3503 -62.3229 -35.5332 -35.5257 -35.4959 -35.4690 -35.4688 -35.4560
   -35.4559 -35.4366 -35.4365 -35.4218 -35.4217 -35.4161 -35.4161 -35.3939
   -35.3939 -35.3884 -35.3883 -35.3857 -35.3855 -35.3674 -35.3645 -35.3623
   -35.3573 -35.3541 -35.3516 -35.3414 -35.2870 -31.2480 -31.2413 -31.2411
   -31.2338 -31.2220 -31.2207 -31.2157 -31.2113 -31.2104 -31.2079 -31.2042
   -31.2041 -31.1981 -31.1981 -31.1965 -31.1965 -31.1901 -31.1901 -31.1728
   -31.1727 -31.1697 -31.1697 -31.1645 -31.1613 -31.1613 -31.1407 -31.1396
     6.1544   6.2177   7.5237   7.5472   7.5664   7.5841   7.5859   7.5957
     7.6303   7.6382   8.2994   8.3263   8.3283   8.3323   8.3641   8.3680
     8.3886   8.4035   8.4485   8.4676   8.4754   8.4804   8.4863   8.5012
     8.5188   8.5197   8.6909   8.7158   8.7432   8.7999   8.9364   8.9584
     8.9718   8.9731   8.9731   8.9882   8.9898   9.0030   9.0121   9.0182
     9.0259   9.0392   9.0432   9.0696   9.0708   9.1046   9.1907   9.1913
     9.2368   9.2369   9.2406   9.2418   9.2624   9.2743   9.2822   9.2837
     9.2912   9.2914   9.2920   9.3024   9.3123   9.3206   9.4043   9.4120
     9.4228   9.4302   9.4317   9.4405   9.4445   9.4511   9.4824   9.4843
     9.4844   9.4895   9.4911   9.5020   9.5492   9.5515   9.6161   9.7055
     9.7783   9.7931   9.7976   9.8041   9.8055   9.8154   9.8336   9.8492
     9.8732   9.8802   9.8804   9.8823   9.8858   9.8887   9.8897   9.8908
    10.0538  10.0555  10.0662  10.0681  10.1353  10.1468  10.1482  10.1574
    10.1637  10.1912  10.1947  10.1962  10.2020  10.2230  10.3544  10.3794
    10.3805  10.3862  10.3869  10.3915  10.4151  10.4211  10.4553  10.5284
    10.5790  10.5831  10.6154  10.6164  10.6347  10.6430  10.6447  10.6577
    10.6646  10.7037  10.7037  10.7258  10.7567  10.7856  10.8262  10.8809
    10.9226  10.9646  11.0114  11.0136  11.0324  11.0336  11.0388  11.0427
    11.0762  11.0990  11.1047  11.1489  11.1530  11.1771  11.2078  11.2187
    11.2219  11.2417  11.2476  11.2514  11.2524  11.2652  11.2670  11.2681
    11.2706  11.2736  11.2823  11.2879  11.2903  11.3002  11.3039  11.3097
    11.3101  11.3194  11.3212  11.3229  11.5259  11.5918  11.7075  11.7134
    11.7167  11.7182  11.7196  11.7241  11.7271  11.7274  11.7356  11.7679
    11.7705  11.7743  11.7746  11.7991  11.8078  11.8128  11.8411  11.9336
    11.9497  11.9670  11.9855  12.0152  12.0434  12.0453  12.0683  12.0961
    12.1226  12.1671  12.1733  12.2302  12.2497  12.2649  12.3570  12.4192
    12.4251  12.4275  12.4568  12.4628  12.4685  12.4731  12.4827  12.4933
    12.5224  12.5267  12.5370  12.5383  12.5642  12.6178  12.6280  12.6300
    12.6310  12.6438  12.6971  12.7293  12.7492  12.7829  12.8911  12.9253
    12.9710  13.0400  13.0514  13.0870  13.1195  13.1855  13.1893  13.1994
    13.2217  13.2370  13.2671  13.3768  13.5072  13.5116  13.5738  13.6778
    13.9368  13.9377  13.9866  14.0949  14.1358  14.2442  14.3228  14.4771
    14.5059  14.8844  14.8992  14.9111  14.9693  14.9926  15.0530  15.0805
    15.1768  15.1861  15.2058  15.2456  15.3123  15.4176  15.4313  15.5286
    15.6523  15.6918  15.7029  15.7625  15.8137  15.9383  15.9432  15.9841
    16.0695  16.1025  16.1287  16.1348  16.1364  16.1427  16.1832  16.2047
    16.2120  16.2153  16.2371  16.2528  16.2678  16.2845  16.2947  16.3137
    16.3771  16.4252  16.4399  16.5095  16.6081  16.6493  16.7065  16.7111
    16.8588  16.8881  17.3535  17.4031  17.4435  17.4481  17.4981  17.5395
    17.5497  17.5615  17.6325  17.6587  17.6663  17.7331  17.8490  17.8543
    17.9070  17.9177  18.0849  18.1880  18.2199  18.2642  18.3062  18.3442

          k = 0.0000-0.5000 0.0000 ( 31722 PWs)   bands (ev):

   -66.7753 -66.7061 -66.7061 -66.6679 -66.6679 -66.6358 -66.6358 -66.6163
   -66.5873 -62.4100 -62.3941 -62.3940 -62.3896 -62.3626 -62.3625 -62.3503
   -62.3503 -62.3229 -35.5332 -35.5257 -35.4959 -35.4690 -35.4688 -35.4560
   -35.4559 -35.4366 -35.4365 -35.4219 -35.4218 -35.4161 -35.4161 -35.3939
   -35.3939 -35.3884 -35.3883 -35.3857 -35.3855 -35.3674 -35.3645 -35.3622
   -35.3572 -35.3541 -35.3517 -35.3414 -35.2870 -31.2480 -31.2413 -31.2411
   -31.2338 -31.2221 -31.2207 -31.2162 -31.2112 -31.2094 -31.2079 -31.2042
   -31.2041 -31.1981 -31.1981 -31.1968 -31.1965 -31.1903 -31.1901 -31.1728
   -31.1727 -31.1697 -31.1697 -31.1645 -31.1613 -31.1613 -31.1407 -31.1396
     6.0289   6.0590   7.4213   7.4316   7.4549   7.4891   7.6733   7.6795
     8.1018   8.1160   8.1427   8.1765   8.1953   8.2302   8.2481   8.2752
     8.4025   8.4212   8.4501   8.4876   8.6131   8.6312   8.6442   8.6529
     8.6688   8.6794   8.6861   8.7062   8.7550   8.8089   8.8258   8.8406
     8.8530   8.8745   8.8757   8.8788   8.9030   8.9086   8.9128   8.9171
     8.9281   8.9350   8.9358   8.9550   9.0480   9.0519   9.1577   9.1768
     9.1801   9.1996   9.2178   9.2257   9.2359   9.2469   9.3126   9.3389
     9.3491   9.3653   9.4008   9.4054   9.4735   9.4836   9.4889   9.5025
     9.5278   9.5374   9.5571   9.5743   9.5743   9.5986   9.6157   9.6188
     9.6224   9.6284   9.6287   9.6349   9.6357   9.6388   9.6425   9.6522
     9.6532   9.6618   9.6714   9.6787   9.7031   9.7208   9.7216   9.7312
     9.7438   9.7462   9.7697   9.7771   9.8929   9.9045   9.9154   9.9827
    10.0174  10.0331  10.1494  10.1939  10.2080  10.2272  10.2474  10.2564
    10.2648  10.2681  10.2691  10.2701  10.2851  10.2901  10.3450  10.3514
    10.3688  10.3787  10.3845  10.3928  10.4344  10.4442  10.4484  10.4791
    10.4814  10.5161  10.5243  10.5517  10.5647  10.5665  10.5768  10.5911
    10.6053  10.6577  10.6858  10.6912  10.6984  10.7312  10.7507  10.7571
    10.7999  10.8103  10.8277  10.8535  10.8665  10.8843  10.9128  10.9346
    10.9566  10.9988  11.0195  11.0304  11.0398  11.0942  11.1654  11.1853
    11.2910  11.3463  11.3482  11.3711  11.3780  11.3920  11.3937  11.4080
    11.4188  11.4384  11.4530  11.4895  11.5079  11.5416  11.5419  11.5540
    11.5648  11.5795  11.6050  11.6312  11.6348  11.6657  11.6915  11.7360
    11.7644  11.7651  11.7881  11.8057  11.8313  11.8418  11.8619  11.8653
    11.8665  11.8938  11.8998  11.9049  11.9248  11.9469  11.9641  11.9785
    11.9810  11.9838  11.9981  12.0116  12.0649  12.1051  12.1568  12.1577
    12.1886  12.1992  12.2057  12.2119  12.2245  12.2513  12.2725  12.2794
    12.2876  12.2929  12.3285  12.3539  12.3819  12.4100  12.4184  12.4262
    12.4377  12.4783  12.5056  12.5137  12.5291  12.5542  12.5564  12.5674
    12.5762  12.5821  12.6160  12.6367  12.6500  12.6837  12.7075  12.8001
    12.8626  12.8879  13.0298  13.0370  13.0897  13.1001  13.1069  13.1553
    13.1736  13.2013  13.2099  13.2207  13.2699  13.2831  13.3050  13.3339
    13.4120  13.4210  13.4994  13.6713  13.6802  14.3148  14.4053  14.5580
    14.6075  14.6718  14.8176  14.8286  14.8458  14.8526  14.9306  15.0052
    15.0439  15.1108  15.2381  15.3555  15.4310  15.4676  15.5500  15.5709
    15.6514  15.6900  15.7533  15.7753  15.7970  15.8506  15.8720  15.9886
    16.0157  16.0573  16.0731  16.0899  16.1338  16.1478  16.1561  16.1609
    16.1840  16.2175  16.2283  16.2480  16.2641  16.2685  16.3643  16.3824
    16.3938  16.4462  16.5643  16.6205  16.6852  16.7392  17.0144  17.0592
    17.1495  17.2087  17.2313  17.3312  17.4060  17.5249  17.6185  17.6304
    17.7290  17.7587  17.8054  17.8078  17.8403  17.8591  17.9041  17.9370
    18.0254  18.0425  18.1235  18.2397  19.2735  19.3019  19.3086  19.3436

          k = 0.0000-0.5000-0.5734 ( 31696 PWs)   bands (ev):

   -66.7753 -66.7061 -66.7061 -66.6679 -66.6679 -66.6358 -66.6358 -66.6163
   -66.5873 -62.4100 -62.3941 -62.3940 -62.3896 -62.3626 -62.3625 -62.3503
   -62.3503 -62.3229 -35.5332 -35.5257 -35.4959 -35.4690 -35.4688 -35.4560
   -35.4559 -35.4366 -35.4365 -35.4219 -35.4218 -35.4161 -35.4161 -35.3939
   -35.3939 -35.3884 -35.3883 -35.3857 -35.3855 -35.3674 -35.3645 -35.3622
   -35.3572 -35.3541 -35.3517 -35.3414 -35.2870 -31.2480 -31.2413 -31.2411
   -31.2338 -31.2221 -31.2207 -31.2162 -31.2112 -31.2094 -31.2079 -31.2042
   -31.2041 -31.1981 -31.1981 -31.1968 -31.1965 -31.1903 -31.1901 -31.1728
   -31.1727 -31.1697 -31.1697 -31.1645 -31.1613 -31.1613 -31.1407 -31.1396
     6.5225   6.5842   6.5877   6.6462   7.8276   7.8474   7.8667   7.8746
     7.9157   7.9167   7.9283   7.9524   8.2649   8.2829   8.2975   8.3055
     8.5083   8.5257   8.5327   8.5417   8.6574   8.6626   8.6689   8.6831
     8.6866   8.6875   8.7024   8.7185   8.7386   8.7404   8.7528   8.7546
     8.7572   8.7749   8.7797   8.8194   8.9470   9.0022   9.0055   9.0292
     9.0349   9.0551   9.0573   9.0698   9.1860   9.2007   9.2105   9.2189
     9.2202   9.2258   9.2261   9.2360   9.2453   9.2475   9.2542   9.2628
     9.2719   9.2737   9.2761   9.2879   9.2910   9.3528   9.3788   9.4006
     9.4110   9.4258   9.4570   9.4619   9.4625   9.4663   9.4707   9.4739
     9.4902   9.5069   9.5086   9.5241   9.5329   9.5368   9.5541   9.5596
     9.5846   9.6052   9.7518   9.7600   9.7829   9.7904   9.8068   9.8165
     9.8365   9.8366   9.8508   9.8536   9.8554   9.8643   9.8689   9.8859
     9.9487   9.9741  10.0090  10.0124  10.0274  10.0275  10.0533  10.0602
    10.3550  10.3788  10.3924  10.3967  10.4009  10.4181  10.4280  10.4329
    10.4517  10.4688  10.4709  10.4713  10.4864  10.4977  10.5030  10.5068
    10.5313  10.5408  10.5708  10.5887  10.6011  10.6032  10.6197  10.6290
    10.6408  10.6522  10.6696  10.6711  10.6798  10.6818  10.7111  10.7125
    10.7414  10.8193  10.8962  10.9202  10.9647  10.9918  11.0284  11.0833
    11.1086  11.1251  11.1275  11.1555  11.1830  11.1958  11.1978  11.2101
    11.2128  11.2141  11.2805  11.3205  11.3250  11.3436  11.3677  11.3737
    11.3802  11.3896  11.4217  11.4250  11.4440  11.4843  11.4868  11.5134
    11.5330  11.5563  11.5735  11.5789  11.5822  11.5875  11.6148  11.6228
    11.6386  11.6446  11.7196  11.7302  11.7494  11.7658  11.7947  11.8418
    11.9012  11.9145  11.9284  11.9473  11.9670  11.9706  12.0038  12.0062
    12.0165  12.0300  12.0310  12.0380  12.0399  12.0600  12.1144  12.1300
    12.1660  12.1708  12.2070  12.2340  12.2827  12.3115  12.3130  12.3231
    12.3378  12.3398  12.4281  12.4362  12.4545  12.4600  12.4709  12.4981
    12.5104  12.5205  12.5406  12.5408  12.5464  12.5726  12.5847  12.5930
    12.6052  12.6246  12.6356  12.6588  12.6747  12.7080  12.7340  12.7638
    12.7927  12.8256  12.9320  12.9351  12.9857  12.9984  13.0357  13.0670
    13.1672  13.2050  13.3765  13.4668  13.5155  13.6448  13.7075  13.7103
    13.8245  14.0199  14.0365  14.1186  14.2408  14.2451  14.2760  14.3612
    14.5263  14.5459  14.5636  14.6233  14.6566  14.7722  14.8239  14.9059
    15.0491  15.2184  15.2813  15.3342  15.3688  15.4215  15.5332  15.5346
    15.6401  15.6413  15.6844  15.7044  15.8020  15.8618  15.9113  15.9716
    16.0217  16.0343  16.0824  16.1398  16.1594  16.1827  16.2149  16.2262
    16.2462  16.2591  16.2863  16.3495  16.3637  16.3758  16.3943  16.4563
    16.4732  16.5299  16.5438  16.5722  16.5874  16.6185  16.6749  16.6957
    16.7503  16.7703  16.8482  16.8777  16.9292  16.9505  16.9527  16.9896
    17.0810  17.1341  17.1717  17.3261  18.6012  18.6912  18.7146  18.7474
    18.7501  18.8057  18.8248  18.8684  18.8814  18.8832  18.9418  18.9483

          k =-0.5000-0.5000 0.0000 ( 31612 PWs)   bands (ev):

   -66.7753 -66.7061 -66.7061 -66.6679 -66.6679 -66.6358 -66.6358 -66.6163
   -66.5873 -62.4100 -62.3941 -62.3940 -62.3896 -62.3626 -62.3625 -62.3503
   -62.3503 -62.3229 -35.5332 -35.5257 -35.4959 -35.4690 -35.4688 -35.4560
   -35.4559 -35.4366 -35.4365 -35.4219 -35.4218 -35.4161 -35.4161 -35.3939
   -35.3939 -35.3884 -35.3883 -35.3857 -35.3855 -35.3674 -35.3645 -35.3621
   -35.3571 -35.3542 -35.3518 -35.3414 -35.2870 -31.2480 -31.2413 -31.2412
   -31.2338 -31.2223 -31.2207 -31.2166 -31.2107 -31.2089 -31.2079 -31.2042
   -31.2041 -31.1981 -31.1981 -31.1968 -31.1967 -31.1903 -31.1902 -31.1728
   -31.1727 -31.1697 -31.1697 -31.1645 -31.1613 -31.1613 -31.1407 -31.1396
     6.4061   6.4286   6.4394   6.4939   8.0099   8.0158   8.0189   8.0248
     8.0915   8.1223   8.2867   8.3129   8.3283   8.3291   8.3306   8.3384
     8.3465   8.3564   8.3617   8.3683   8.3725   8.4220   8.5679   8.6035
     8.6485   8.6671   8.6730   8.6955   8.7126   8.7290   8.7319   8.7389
     8.7545   8.8151   8.9181   8.9199   8.9647   8.9686   8.9759   8.9762
     8.9832   8.9920   8.9988   9.0016   9.0068   9.0452   9.0472   9.0481
     9.1090   9.1363   9.3093   9.3118   9.3162   9.3214   9.4010   9.4062
     9.4144   9.4159   9.4246   9.4261   9.4270   9.4310   9.4439   9.4557
     9.4680   9.4772   9.4805   9.4815   9.4836   9.4897   9.4907   9.4921
     9.5146   9.5269   9.5363   9.5402   9.5536   9.5719   9.5767   9.5936
     9.5995   9.6125   9.6976   9.6993   9.7611   9.8080   9.8125   9.8246
     9.8304   9.8345   9.8439   9.8468   9.8509   9.8900  10.0298  10.0494
    10.0723  10.1071  10.1133  10.1160  10.1331  10.1491  10.1548  10.1631
    10.1760  10.1984  10.2035  10.2118  10.2225  10.2247  10.2304  10.2340
    10.2362  10.2482  10.2518  10.2605  10.4417  10.4716  10.4726  10.4890
    10.4958  10.5082  10.5150  10.5563  10.5966  10.6260  10.6317  10.6440
    10.6496  10.6641  10.6749  10.6797  10.6944  10.7069  10.7073  10.7157
    10.7186  10.7565  10.7793  10.8186  10.8332  10.8576  10.8716  10.8730
    10.9255  10.9389  11.1983  11.2059  11.2101  11.2306  11.3041  11.3079
    11.3313  11.3521  11.3545  11.3569  11.3963  11.3980  11.5147  11.5573
    11.6222  11.6337  11.6368  11.6441  11.6466  11.6505  11.6527  11.6556
    11.6717  11.6721  11.6834  11.7188  11.7382  11.7450  11.7655  11.8584
    11.8685  11.8744  11.8783  11.8786  11.8815  11.8917  11.9708  11.9879
    12.0040  12.0376  12.0656  12.0698  12.0792  12.0871  12.1030  12.1066
    12.1072  12.1136  12.1156  12.1200  12.1370  12.1516  12.1536  12.1600
    12.1775  12.1816  12.1898  12.2126  12.2168  12.2341  12.2437  12.2607
    12.2759  12.2807  12.2844  12.2984  12.3014  12.3019  12.3064  12.4193
    12.4278  12.4452  12.4516  12.4717  12.4749  12.5006  12.5087  12.5239
    12.5287  12.5608  12.5649  12.6065  12.6161  12.6298  12.6416  12.6806
    12.6899  12.7472  12.8043  12.8516  12.8786  12.8953  12.9505  12.9588
    12.9652  12.9947  13.0076  13.0171  13.0476  13.4921  13.6444  13.6514
    13.6750  13.6774  13.8090  13.8150  13.8448  13.8670  14.1498  14.1998
    14.2247  14.2394  14.4668  14.5065  14.6329  14.7024  14.8115  14.8165
    15.0634  15.1154  15.1872  15.3326  15.3351  15.4382  15.6108  15.7014
    15.7300  15.8088  15.8153  15.8617  15.8878  15.8976  15.9053  15.9413
    15.9624  16.0078  16.0343  16.0541  16.0694  16.0715  16.1431  16.1485
    16.1814  16.1998  16.2543  16.2583  16.3431  16.3627  16.3811  16.4091
    16.4534  16.4593  16.4762  16.6020  16.6825  16.6927  16.7539  16.7760
    16.8825  16.8862  16.8939  16.9877  17.3857  17.3915  17.6412  18.0375
    18.1426  18.2045  18.2141  18.2218  18.2541  18.4261  18.4381  18.5573
    18.6015  18.6151  18.6649  18.6652  18.7188  18.8033  18.8103  18.8107

          k =-0.5000-0.5000-0.5734 ( 31672 PWs)   bands (ev):

   -66.7753 -66.7061 -66.7061 -66.6679 -66.6679 -66.6358 -66.6358 -66.6163
   -66.5873 -62.4100 -62.3941 -62.3940 -62.3896 -62.3626 -62.3625 -62.3503
   -62.3503 -62.3229 -35.5332 -35.5257 -35.4959 -35.4690 -35.4688 -35.4560
   -35.4559 -35.4366 -35.4365 -35.4219 -35.4218 -35.4161 -35.4161 -35.3939
   -35.3939 -35.3884 -35.3883 -35.3857 -35.3855 -35.3674 -35.3645 -35.3621
   -35.3571 -35.3542 -35.3518 -35.3414 -35.2870 -31.2480 -31.2413 -31.2412
   -31.2338 -31.2223 -31.2207 -31.2166 -31.2106 -31.2089 -31.2079 -31.2042
   -31.2041 -31.1981 -31.1981 -31.1968 -31.1967 -31.1903 -31.1902 -31.1728
   -31.1727 -31.1697 -31.1697 -31.1645 -31.1613 -31.1613 -31.1407 -31.1396
     6.8801   6.9254   6.9261   6.9373   6.9963   7.0207   7.0237   7.0546
     8.4441   8.4693   8.4723   8.4787   8.4833   8.4895   8.4914   8.4962
     8.5028   8.5069   8.5136   8.5185   8.5390   8.5412   8.5489   8.5688
     8.5704   8.5814   8.5839   8.6210   8.8791   8.8887   8.8913   8.8998
     8.9016   8.9142   8.9295   8.9457   9.0830   9.1094   9.1149   9.1157
     9.1252   9.1319   9.1485   9.1527   9.1543   9.1567   9.1572   9.1612
     9.1621   9.1650   9.1702   9.1719   9.1729   9.1748   9.1761   9.1814
     9.1831   9.1831   9.1973   9.1998   9.2029   9.2043   9.2179   9.2199
     9.2257   9.2322   9.2444   9.2512   9.2570   9.2592   9.2725   9.2926
     9.5355   9.5514   9.5584   9.5728   9.5819   9.5960   9.6234   9.6334
     9.6391   9.6641   9.6779   9.6858   9.7324   9.7354   9.7517   9.7927
     9.8169   9.8308   9.8420   9.8432   9.8816   9.8825   9.8892   9.8988
    10.1103  10.1123  10.1494  10.1521  10.1588  10.1773  10.1960  10.2012
    10.2801  10.3208  10.4367  10.4560  10.4575  10.4683  10.4807  10.4820
    10.4832  10.4865  10.4939  10.5049  10.5058  10.5128  10.5148  10.5222
    10.5234  10.5320  10.5406  10.5567  10.5598  10.5659  10.5852  10.5911
    10.6050  10.6344  10.6418  10.6421  10.6454  10.6653  10.6706  10.6740
    10.6856  10.6874  10.6975  10.6988  10.7206  10.7227  11.0430  11.0612
    11.0698  11.0828  11.0873  11.1071  11.1221  11.1234  11.3805  11.3872
    11.3911  11.3990  11.4007  11.4290  11.4401  11.4493  11.4631  11.4804
    11.4825  11.4915  11.5068  11.5079  11.5158  11.5466  11.5979  11.6263
    11.6372  11.6496  11.6560  11.6728  11.6832  11.6907  11.7086  11.7180
    11.7238  11.7318  11.7372  11.7567  11.7613  11.7688  11.7751  11.7796
    11.8150  11.8166  11.8181  11.8303  11.8347  11.9564  11.9762  12.0147
    12.0147  12.0355  12.0550  12.0972  12.1070  12.1386  12.1405  12.1411
    12.1420  12.1920  12.2136  12.2468  12.2622  12.2743  12.3216  12.3436
    12.3528  12.3623  12.4019  12.4145  12.4215  12.4379  12.4633  12.4671
    12.4831  12.5074  12.5113  12.5304  12.5526  12.5759  12.5939  12.6077
    12.6284  12.6316  12.6867  12.6962  12.7422  12.7643  12.7847  12.8119
    12.9296  12.9369  12.9737  13.1070  13.1143  13.1160  13.1875  13.2044
    13.2411  13.2590  13.3318  13.3396  13.3465  13.3829  13.4176  13.4548
    13.5548  13.5713  13.6955  13.8332  13.8812  14.0808  14.0906  14.0941
    14.2393  14.2703  14.4974  14.5155  14.7524  14.8334  14.8478  14.9236
    15.0030  15.0829  15.2354  15.4617  15.4876  15.6340  15.6704  15.7027
    15.7157  15.7499  15.7790  15.7804  15.8812  15.8896  15.9330  15.9361
    15.9405  16.0142  16.1151  16.1340  16.1539  16.1683  16.1746  16.1795
    16.2043  16.2825  16.2875  16.2926  16.3399  16.4271  16.4372  16.4709
    16.4851  16.5453  16.5487  16.6017  16.6257  16.6572  16.6579  16.6986
    16.7510  16.8081  16.8276  16.8834  16.9031  16.9227  16.9507  17.0482
    17.1101  17.1195  17.5728  17.7457  17.9065  17.9603  19.0144  19.0331
    19.0654  19.0674  19.0856  19.1780  19.1897  19.2276  19.2311  19.2465

 ------ SPIN DOWN ----------


          k = 0.0000 0.0000 0.0000 ( 31747 PWs)   bands (ev):

   -66.7605 -66.7431 -66.7431 -66.7376 -66.6787 -66.6787 -66.6615 -66.6615
   -66.5989 -62.3972 -62.3931 -62.3931 -62.3683 -62.3683 -62.3514 -62.3289
   -62.3183 -62.3183 -35.5350 -35.5115 -35.5114 -35.5086 -35.5086 -35.5030
   -35.4992 -35.4772 -35.4741 -35.4603 -35.4573 -35.4572 -35.4377 -35.4375
   -35.4215 -35.4214 -35.4161 -35.4159 -35.4147 -35.4147 -35.3903 -35.3902
   -35.3830 -35.3823 -35.3766 -35.3317 -35.3201 -31.2491 -31.2488 -31.2329
   -31.2292 -31.2171 -31.2170 -31.2102 -31.2100 -31.2049 -31.1943 -31.1941
   -31.1940 -31.1915 -31.1869 -31.1766 -31.1695 -31.1692 -31.1683 -31.1680
   -31.1503 -31.1479 -31.1458 -31.1456 -31.1454 -31.1416 -31.1404 -31.1397
     5.6123   7.1354   7.1550   7.2011   7.2127   7.3619   7.8476   7.8884
     7.8961   7.9552   8.0792   8.0989   8.1215   8.1813   8.1881   8.2444
     8.2485   8.3008   8.3027   8.5134   8.5505   8.5537   8.5662   8.6004
     8.6087   8.8516   8.8564   8.8682   8.8697   8.8880   8.8952   8.8958
     8.8961   8.9077   8.9081   8.9118   8.9414   8.9529   8.9541   8.9694
     8.9821   9.0823   9.1199   9.1227   9.1245   9.1291   9.1562   9.1587
     9.1847   9.2007   9.2172   9.2658   9.2861   9.2861   9.3147   9.3376
     9.3440   9.3646   9.3650   9.3668   9.3745   9.3839   9.3916   9.4375
     9.4388   9.4502   9.4520   9.4625   9.4654   9.4739   9.4873   9.5774
     9.5780   9.5862   9.5874   9.5900   9.6008   9.6647   9.6702   9.6719
     9.6724   9.6729   9.6927   9.7343   9.7611   9.7745   9.7926   9.8477
     9.8502   9.9027   9.9067   9.9415   9.9498   9.9536  10.0228  10.0424
    10.0765  10.1092  10.1296  10.1763  10.2826  10.2871  10.2890  10.2965
    10.2988  10.2998  10.3074  10.3117  10.3205  10.3248  10.3336  10.3364
    10.3368  10.3464  10.3525  10.3551  10.3647  10.3705  10.3826  10.3832
    10.4009  10.5155  10.5194  10.5433  10.6060  10.6144  10.6187  10.6358
    10.6661  10.7808  10.7860  10.7963  10.8170  10.8244  10.8258  10.8434
    10.8489  10.8552  10.8610  10.8669  10.8768  10.8824  10.8856  10.8969
    10.9032  10.9187  11.0148  11.0202  11.0873  11.0885  11.1494  11.2120
    11.2140  11.2173  11.2258  11.2325  11.2608  11.3151  11.3286  11.3492
    11.3735  11.3803  11.3924  11.3969  11.3985  11.4113  11.4187  11.4247
    11.4401  11.4917  11.5713  11.5896  11.5899  11.5929  11.5974  11.6099
    11.6232  11.6557  11.7132  11.7215  11.7279  11.7451  11.7510  11.7523
    11.8238  11.8511  11.8566  11.8691  11.8764  11.9129  11.9202  11.9436
    11.9522  12.0208  12.0992  12.1009  12.1024  12.1028  12.1340  12.1353
    12.1446  12.1459  12.1460  12.1483  12.1600  12.1855  12.2060  12.2089
    12.2484  12.2513  12.2864  12.3159  12.3399  12.3425  12.3747  12.3905
    12.4263  12.4287  12.4341  12.4422  12.4835  12.4918  12.5020  12.5043
    12.5117  12.5280  12.5468  12.5482  12.5578  12.5610  12.5994  12.6166
    12.6812  12.7238  12.7398  12.7597  12.8407  12.8732  13.0256  13.1255
    13.1259  13.1291  13.1298  13.1808  13.3119  13.6049  13.7278  13.8396
    13.9080  14.0736  14.1138  14.1939  14.2407  14.3662  14.3747  14.6276
    14.7435  14.8081  14.8511  14.9336  15.1167  15.1175  15.2361  15.2505
    15.2744  15.3229  15.3469  15.3631  15.4276  15.4367  15.4459  15.6164
    15.6513  15.6700  15.7142  15.7552  15.7995  15.8508  15.8977  15.9720
    16.0209  16.0577  16.0819  16.1002  16.1147  16.1439  16.1767  16.1893
    16.2436  16.2670  16.3143  16.3239  16.3478  16.3501  16.3785  16.3928
    16.4141  16.5114  16.5445  16.6491  16.6549  16.6800  16.7339  16.8116
    17.0272  17.0615  17.1630  17.1645  17.2076  17.2242  17.2637  17.2905
    17.4410  17.5568  17.8545  17.8951  17.9228  17.9456  17.9710  18.0691
    18.2401  18.2911  18.4728  18.9276  18.9834  18.9978  19.1949  19.1973

          k = 0.0000 0.0000-0.5734 ( 31692 PWs)   bands (ev):

   -66.7605 -66.7431 -66.7431 -66.7376 -66.6787 -66.6787 -66.6615 -66.6615
   -66.5989 -62.3972 -62.3931 -62.3931 -62.3683 -62.3683 -62.3514 -62.3289
   -62.3183 -62.3183 -35.5350 -35.5115 -35.5114 -35.5086 -35.5086 -35.5030
   -35.4992 -35.4772 -35.4741 -35.4603 -35.4573 -35.4572 -35.4377 -35.4375
   -35.4215 -35.4214 -35.4161 -35.4159 -35.4147 -35.4147 -35.3903 -35.3902
   -35.3830 -35.3823 -35.3766 -35.3317 -35.3201 -31.2491 -31.2488 -31.2329
   -31.2292 -31.2171 -31.2170 -31.2102 -31.2100 -31.2049 -31.1943 -31.1941
   -31.1940 -31.1915 -31.1869 -31.1766 -31.1695 -31.1692 -31.1683 -31.1680
   -31.1503 -31.1479 -31.1458 -31.1456 -31.1454 -31.1416 -31.1404 -31.1397
     6.1554   6.2083   7.5326   7.5401   7.5497   7.5844   7.5913   7.5917
     7.6185   7.6321   8.3108   8.3182   8.3193   8.3300   8.3514   8.3639
     8.3809   8.4018   8.4585   8.4610   8.4685   8.4842   8.4855   8.5035
     8.5073   8.5105   8.6899   8.7115   8.7448   8.7946   8.9473   8.9491
     8.9631   8.9736   8.9751   8.9779   8.9926   8.9969   9.0102   9.0213
     9.0224   9.0290   9.0327   9.0660   9.0762   9.0945   9.1885   9.1967
     9.2250   9.2304   9.2405   9.2448   9.2690   9.2790   9.2802   9.2808
     9.2837   9.2843   9.2897   9.2927   9.3076   9.3156   9.4130   9.4179
     9.4189   9.4239   9.4276   9.4364   9.4434   9.4585   9.4685   9.4751
     9.4778   9.4825   9.4928   9.4952   9.5425   9.5433   9.6178   9.6977
     9.7803   9.7872   9.7898   9.8036   9.8101   9.8153   9.8347   9.8408
     9.8716   9.8733   9.8774   9.8791   9.8845   9.8890   9.8892   9.8914
    10.0573  10.0589  10.0600  10.0612  10.1309  10.1492  10.1524  10.1541
    10.1609  10.1860  10.1877  10.1947  10.1969  10.2183  10.3411  10.3626
    10.3772  10.3847  10.3915  10.3990  10.4104  10.4176  10.4514  10.5275
    10.5784  10.5877  10.6012  10.6130  10.6171  10.6437  10.6559  10.6571
    10.6781  10.6899  10.7140  10.7258  10.7434  10.7567  10.8135  10.8744
    10.9274  10.9479  10.9578  10.9650  11.0439  11.0548  11.0570  11.0685
    11.0785  11.1201  11.1207  11.1316  11.1492  11.1554  11.1754  11.1827
    11.2303  11.2406  11.2462  11.2489  11.2532  11.2566  11.2587  11.2673
    11.2735  11.2736  11.2743  11.2868  11.2880  11.2942  11.2947  11.2969
    11.3121  11.3168  11.3207  11.3278  11.5233  11.5985  11.6998  11.7127
    11.7132  11.7161  11.7215  11.7238  11.7269  11.7311  11.7396  11.7486
    11.7525  11.7535  11.7686  11.7979  11.8126  11.8214  11.8484  11.9302
    11.9319  11.9758  11.9816  12.0032  12.0079  12.0282  12.0312  12.1161
    12.1177  12.1530  12.1558  12.2322  12.2460  12.2575  12.3880  12.3887
    12.3995  12.4176  12.4237  12.4403  12.4543  12.4629  12.4669  12.4869
    12.4906  12.5111  12.5127  12.5270  12.5561  12.5915  12.5948  12.6063
    12.6391  12.6495  12.6564  12.7014  12.7856  12.7995  12.8393  12.8698
    12.9461  12.9643  13.0181  13.0514  13.1618  13.1723  13.1836  13.1916
    13.1966  13.2220  13.2536  13.4010  13.4579  13.4696  13.6484  13.6902
    13.9275  13.9630  14.0369  14.0481  14.0771  14.1731  14.3351  14.3777
    14.5837  14.8474  14.8996  14.9917  14.9954  15.0169  15.0218  15.0341
    15.1703  15.1760  15.1854  15.2301  15.3276  15.3423  15.5186  15.5692
    15.6319  15.7224  15.7369  15.7841  15.8555  15.8812  15.9556  15.9673
    16.0065  16.1051  16.1108  16.1130  16.1578  16.1813  16.1866  16.2007
    16.2117  16.2298  16.2682  16.2689  16.2728  16.2980  16.3209  16.3374
    16.3520  16.4499  16.4675  16.5091  16.6299  16.6506  16.7081  16.7372
    16.8849  16.9063  17.2737  17.3195  17.3690  17.3990  17.5192  17.5761
    17.5926  17.6243  17.6350  17.6957  17.7316  17.7440  17.7928  17.8274
    17.9186  17.9333  18.1048  18.1952  18.2019  18.2563  18.3145  18.3366

          k = 0.0000-0.5000 0.0000 ( 31722 PWs)   bands (ev):

   -66.7605 -66.7431 -66.7431 -66.7376 -66.6787 -66.6787 -66.6615 -66.6615
   -66.5989 -62.3972 -62.3931 -62.3931 -62.3683 -62.3683 -62.3514 -62.3289
   -62.3183 -62.3183 -35.5350 -35.5115 -35.5114 -35.5086 -35.5086 -35.5030
   -35.4992 -35.4772 -35.4741 -35.4604 -35.4573 -35.4572 -35.4376 -35.4375
   -35.4215 -35.4214 -35.4161 -35.4159 -35.4147 -35.4147 -35.3903 -35.3902
   -35.3830 -35.3823 -35.3766 -35.3317 -35.3201 -31.2491 -31.2488 -31.2329
   -31.2292 -31.2171 -31.2170 -31.2102 -31.2100 -31.2049 -31.1941 -31.1940
   -31.1938 -31.1913 -31.1874 -31.1766 -31.1695 -31.1692 -31.1683 -31.1681
   -31.1503 -31.1479 -31.1458 -31.1456 -31.1454 -31.1416 -31.1404 -31.1397
     6.0257   6.0545   7.4078   7.4376   7.4497   7.4850   7.6673   7.6792
     8.1010   8.1156   8.1291   8.1642   8.2026   8.2268   8.2436   8.2768
     8.3911   8.4244   8.4519   8.4808   8.6124   8.6238   8.6443   8.6491
     8.6721   8.6728   8.6849   8.6961   8.7560   8.8089   8.8140   8.8260
     8.8532   8.8661   8.8743   8.8849   8.8973   8.9082   8.9130   8.9200
     8.9212   8.9298   8.9402   8.9502   9.0419   9.0537   9.1559   9.1702
     9.1871   9.1971   9.2133   9.2252   9.2293   9.2413   9.3151   9.3211
     9.3534   9.3665   9.3846   9.4151   9.4720   9.4793   9.4843   9.5026
     9.5291   9.5334   9.5544   9.5677   9.5742   9.6034   9.6135   9.6140
     9.6208   9.6247   9.6250   9.6298   9.6312   9.6350   9.6375   9.6464
     9.6503   9.6548   9.6734   9.6805   9.6980   9.7125   9.7143   9.7380
     9.7380   9.7494   9.7593   9.7668   9.8944   9.9009   9.9119   9.9833
    10.0066  10.0418  10.1485  10.1894  10.2071  10.2164  10.2447  10.2509
    10.2635  10.2662  10.2710  10.2744  10.2779  10.2854  10.3460  10.3561
    10.3630  10.3781  10.3819  10.3820  10.4278  10.4378  10.4462  10.4738
    10.4803  10.5220  10.5255  10.5417  10.5575  10.5605  10.5693  10.5899
    10.6015  10.6580  10.6766  10.6971  10.6992  10.7212  10.7314  10.7639
    10.8050  10.8190  10.8293  10.8482  10.8608  10.8795  10.8998  10.9180
    10.9533  10.9956  11.0092  11.0184  11.0496  11.0970  11.1657  11.1837
    11.2770  11.3439  11.3484  11.3582  11.3644  11.3805  11.3902  11.3991
    11.4186  11.4217  11.4628  11.4645  11.5057  11.5213  11.5373  11.5624
    11.5737  11.5929  11.6128  11.6337  11.6400  11.6508  11.6790  11.7131
    11.7335  11.7732  11.7851  11.8019  11.8115  11.8326  11.8555  11.8601
    11.8690  11.8771  11.8895  11.9150  11.9244  11.9476  11.9498  11.9643
    11.9719  11.9788  11.9811  12.0123  12.0828  12.1180  12.1651  12.1730
    12.1745  12.2025  12.2089  12.2095  12.2319  12.2407  12.2417  12.2795
    12.2875  12.3037  12.3193  12.3205  12.3410  12.3829  12.3965  12.4021
    12.4292  12.4504  12.4619  12.4693  12.4718  12.5172  12.5311  12.5395
    12.5663  12.6027  12.6122  12.6280  12.6628  12.7267  12.7282  12.7578
    12.8533  12.9005  12.9227  13.0029  13.0626  13.0758  13.1217  13.1440
    13.1671  13.1754  13.1814  13.2330  13.2383  13.2751  13.2761  13.2934
    13.3917  13.4593  13.4759  13.6360  13.6669  14.3143  14.5091  14.5978
    14.6213  14.7042  14.7298  14.8117  14.8382  14.8554  14.8921  14.9961
    15.0327  15.1636  15.2942  15.2977  15.3184  15.4298  15.5302  15.5823
    15.6745  15.6911  15.7685  15.8027  15.8241  15.9103  15.9500  16.0014
    16.0288  16.0322  16.0605  16.0710  16.1241  16.1408  16.1426  16.1662
    16.2039  16.2233  16.2309  16.2355  16.2825  16.3169  16.3404  16.3804
    16.4361  16.4489  16.5577  16.6471  16.7318  16.7893  16.9611  17.0411
    17.1678  17.2113  17.2354  17.2957  17.4213  17.5276  17.6077  17.6234
    17.7126  17.7433  17.8056  17.8266  17.8437  17.8582  17.9165  17.9177
    18.0426  18.0822  18.1163  18.2068  19.2753  19.3131  19.3164  19.3304

          k = 0.0000-0.5000-0.5734 ( 31696 PWs)   bands (ev):

   -66.7605 -66.7431 -66.7431 -66.7376 -66.6787 -66.6787 -66.6615 -66.6615
   -66.5989 -62.3972 -62.3931 -62.3931 -62.3683 -62.3683 -62.3514 -62.3289
   -62.3183 -62.3183 -35.5350 -35.5115 -35.5114 -35.5086 -35.5086 -35.5030
   -35.4992 -35.4772 -35.4741 -35.4604 -35.4573 -35.4572 -35.4376 -35.4375
   -35.4215 -35.4214 -35.4161 -35.4159 -35.4147 -35.4147 -35.3903 -35.3902
   -35.3830 -35.3823 -35.3766 -35.3317 -35.3201 -31.2491 -31.2488 -31.2329
   -31.2292 -31.2171 -31.2170 -31.2102 -31.2100 -31.2049 -31.1941 -31.1940
   -31.1938 -31.1913 -31.1874 -31.1766 -31.1695 -31.1692 -31.1683 -31.1681
   -31.1503 -31.1479 -31.1458 -31.1456 -31.1454 -31.1416 -31.1404 -31.1397
     6.5213   6.5739   6.5912   6.6378   7.8351   7.8427   7.8485   7.8688
     7.9146   7.9259   7.9261   7.9356   8.2670   8.2751   8.2967   8.3001
     8.5095   8.5219   8.5309   8.5311   8.6531   8.6613   8.6648   8.6834
     8.6872   8.6934   8.7096   8.7185   8.7192   8.7383   8.7385   8.7519
     8.7638   8.7722   8.7752   8.8131   8.9468   8.9993   9.0048   9.0324
     9.0382   9.0455   9.0516   9.0626   9.1786   9.2030   9.2117   9.2126
     9.2153   9.2215   9.2284   9.2347   9.2423   9.2435   9.2541   9.2550
     9.2558   9.2702   9.2843   9.2876   9.2876   9.3448   9.3856   9.3954
     9.4050   9.4230   9.4471   9.4604   9.4661   9.4684   9.4713   9.4781
     9.4854   9.5042   9.5169   9.5176   9.5204   9.5420   9.5427   9.5504
     9.5701   9.5981   9.7533   9.7560   9.7867   9.7897   9.8022   9.8096
     9.8289   9.8310   9.8475   9.8537   9.8556   9.8608   9.8665   9.8868
     9.9520   9.9677  10.0054  10.0067  10.0233  10.0273  10.0483  10.0610
    10.3598  10.3740  10.3859  10.3865  10.3993  10.4140  10.4185  10.4307
    10.4580  10.4609  10.4686  10.4796  10.4801  10.4861  10.4896  10.5069
    10.5111  10.5636  10.5666  10.5750  10.5884  10.6033  10.6119  10.6168
    10.6295  10.6345  10.6736  10.6743  10.6785  10.6862  10.7065  10.7523
    10.7541  10.8146  10.8684  10.8868  10.9652  10.9810  11.0214  11.0782
    11.1169  11.1204  11.1240  11.1532  11.1755  11.1852  11.1998  11.2010
    11.2105  11.2119  11.2611  11.3288  11.3387  11.3504  11.3577  11.3738
    11.3768  11.3808  11.4163  11.4254  11.4448  11.4742  11.4886  11.5106
    11.5114  11.5529  11.5713  11.5736  11.5767  11.5923  11.6019  11.6326
    11.6392  11.6475  11.7145  11.7309  11.7529  11.7576  11.7993  11.8290
    11.8871  11.9092  11.9302  11.9474  11.9617  11.9654  11.9898  12.0019
    12.0173  12.0244  12.0322  12.0323  12.0369  12.0389  12.1086  12.1131
    12.1384  12.1621  12.1811  12.2164  12.2509  12.2879  12.2941  12.3453
    12.3531  12.3544  12.3948  12.4074  12.4423  12.4433  12.4694  12.4762
    12.4815  12.5064  12.5124  12.5359  12.5376  12.5566  12.5671  12.5728
    12.5862  12.6282  12.6303  12.6399  12.6517  12.6713  12.6740  12.7194
    12.8056  12.8082  12.9082  12.9225  12.9549  12.9884  13.0332  13.0535
    13.1943  13.2002  13.3579  13.4043  13.4470  13.6226  13.7776  13.7780
    13.9321  13.9630  14.0053  14.0915  14.1471  14.2487  14.2612  14.4799
    14.5200  14.5386  14.5478  14.5618  14.5887  14.7467  14.7721  14.9023
    15.0421  15.1695  15.2964  15.3336  15.4793  15.5069  15.5523  15.5562
    15.6153  15.6648  15.6996  15.7322  15.8617  15.8652  15.8983  15.9292
    15.9449  16.0991  16.1177  16.1357  16.1541  16.1682  16.1742  16.1877
    16.2530  16.2912  16.2916  16.3256  16.3322  16.3907  16.3966  16.4531
    16.4614  16.5393  16.5537  16.5713  16.6073  16.6533  16.6637  16.7125
    16.7591  16.8164  16.8213  16.8836  16.9044  16.9634  16.9804  16.9864
    17.1204  17.1823  17.1922  17.2769  18.6099  18.6991  18.7028  18.7319
    18.7527  18.7724  18.7939  18.8401  18.8746  18.9094  18.9434  19.0050

          k =-0.5000-0.5000 0.0000 ( 31612 PWs)   bands (ev):

   -66.7605 -66.7431 -66.7431 -66.7376 -66.6787 -66.6787 -66.6615 -66.6615
   -66.5989 -62.3972 -62.3931 -62.3931 -62.3683 -62.3683 -62.3514 -62.3289
   -62.3183 -62.3183 -35.5350 -35.5115 -35.5114 -35.5086 -35.5086 -35.5030
   -35.4992 -35.4772 -35.4741 -35.4604 -35.4573 -35.4572 -35.4376 -35.4374
   -35.4215 -35.4214 -35.4161 -35.4160 -35.4147 -35.4147 -35.3903 -35.3902
   -35.3830 -35.3823 -35.3766 -35.3317 -35.3201 -31.2491 -31.2488 -31.2329
   -31.2292 -31.2172 -31.2171 -31.2102 -31.2101 -31.2049 -31.1941 -31.1940
   -31.1932 -31.1912 -31.1878 -31.1766 -31.1695 -31.1692 -31.1683 -31.1682
   -31.1503 -31.1479 -31.1458 -31.1456 -31.1454 -31.1416 -31.1404 -31.1397
     6.3971   6.4348   6.4370   6.4827   8.0060   8.0118   8.0132   8.0252
     8.0864   8.1173   8.2789   8.3094   8.3218   8.3258   8.3361   8.3407
     8.3489   8.3511   8.3600   8.3681   8.3688   8.4006   8.5631   8.6050
     8.6454   8.6623   8.6785   8.6969   8.7019   8.7208   8.7345   8.7479
     8.7495   8.7995   8.9147   8.9152   8.9633   8.9659   8.9743   8.9754
     8.9767   8.9939   8.9964   9.0005   9.0057   9.0361   9.0444   9.0465
     9.1116   9.1298   9.3078   9.3091   9.3099   9.3255   9.3934   9.4032
     9.4137   9.4196   9.4247   9.4270   9.4287   9.4332   9.4468   9.4472
     9.4620   9.4667   9.4682   9.4762   9.4831   9.4870   9.4894   9.4897
     9.5158   9.5224   9.5289   9.5358   9.5408   9.5648   9.5809   9.5886
     9.6016   9.6118   9.6955   9.6982   9.7502   9.8016   9.8129   9.8255
     9.8272   9.8315   9.8398   9.8545   9.8546   9.8680  10.0080  10.0536
    10.0889  10.0981  10.1036  10.1162  10.1306  10.1402  10.1424  10.1709
    10.1906  10.1984  10.2065  10.2105  10.2137  10.2194  10.2255  10.2258
    10.2306  10.2349  10.2485  10.2537  10.4343  10.4692  10.4749  10.4897
    10.4972  10.5080  10.5273  10.5498  10.5669  10.6151  10.6397  10.6515
    10.6660  10.6682  10.6684  10.6747  10.6992  10.6997  10.6998  10.7045
    10.7109  10.7373  10.7929  10.7981  10.8190  10.8533  10.8695  10.8768
    10.9255  10.9367  11.1957  11.2084  11.2090  11.2240  11.3017  11.3121
    11.3189  11.3309  11.3520  11.3565  11.3986  11.3994  11.5469  11.5558
    11.6047  11.6213  11.6284  11.6362  11.6431  11.6445  11.6470  11.6475
    11.6514  11.6587  11.6663  11.7250  11.7299  11.7670  11.7675  11.7937
    11.8641  11.8742  11.8768  11.8785  11.8842  11.8858  11.9630  11.9673
    12.0139  12.0350  12.0525  12.0586  12.0740  12.0856  12.1029  12.1047
    12.1058  12.1106  12.1110  12.1165  12.1299  12.1456  12.1533  12.1535
    12.1649  12.1759  12.1952  12.2154  12.2175  12.2275  12.2393  12.2404
    12.2525  12.2652  12.2794  12.2859  12.2863  12.2983  12.2987  12.3715
    12.4173  12.4418  12.4553  12.4803  12.4949  12.4960  12.4966  12.5277
    12.5380  12.5490  12.5505  12.5593  12.5613  12.5733  12.6443  12.6653
    12.6761  12.7652  12.7678  12.8261  12.8403  12.8474  12.8486  12.8916
    12.8916  12.9410  13.0026  13.0137  13.1265  13.5624  13.6295  13.6475
    13.6712  13.6712  13.7481  13.7723  13.8782  13.9796  14.0615  14.1456
    14.2780  14.3145  14.4648  14.4950  14.5653  14.6127  14.8599  14.8626
    15.0146  15.0890  15.1495  15.3174  15.3543  15.4375  15.7040  15.7510
    15.7674  15.7959  15.8202  15.8577  15.8627  15.8705  15.9368  15.9788
    16.0023  16.0172  16.0346  16.0520  16.0901  16.0903  16.1123  16.1377
    16.1554  16.1560  16.2663  16.2991  16.3182  16.3339  16.3516  16.3875
    16.4351  16.5067  16.5462  16.6740  16.6992  16.7175  16.7321  16.7404
    16.8647  16.9039  16.9181  17.0158  17.3815  17.3915  17.6498  18.0251
    18.1482  18.1546  18.2028  18.2049  18.2649  18.4218  18.5271  18.5545
    18.5971  18.6076  18.6685  18.6727  18.7271  18.7677  18.8046  18.8096

          k =-0.5000-0.5000-0.5734 ( 31672 PWs)   bands (ev):

   -66.7605 -66.7431 -66.7431 -66.7376 -66.6787 -66.6787 -66.6615 -66.6615
   -66.5989 -62.3972 -62.3931 -62.3931 -62.3683 -62.3683 -62.3514 -62.3289
   -62.3183 -62.3183 -35.5350 -35.5115 -35.5114 -35.5086 -35.5086 -35.5030
   -35.4992 -35.4772 -35.4741 -35.4604 -35.4573 -35.4572 -35.4376 -35.4374
   -35.4215 -35.4214 -35.4161 -35.4160 -35.4147 -35.4147 -35.3903 -35.3902
   -35.3830 -35.3823 -35.3766 -35.3317 -35.3201 -31.2491 -31.2488 -31.2329
   -31.2292 -31.2172 -31.2171 -31.2102 -31.2101 -31.2049 -31.1941 -31.1940
   -31.1932 -31.1912 -31.1878 -31.1766 -31.1695 -31.1692 -31.1683 -31.1682
   -31.1503 -31.1479 -31.1458 -31.1456 -31.1454 -31.1416 -31.1404 -31.1397
     6.8891   6.9101   6.9155   6.9391   6.9848   7.0164   7.0305   7.0461
     8.4449   8.4652   8.4703   8.4765   8.4779   8.4884   8.4885   8.4896
     8.4990   8.4999   8.5133   8.5187   8.5327   8.5348   8.5483   8.5603
     8.5673   8.5838   8.5849   8.6181   8.8760   8.8765   8.8876   8.8950
     8.9063   8.9191   8.9267   8.9345   9.0881   9.1045   9.1110   9.1164
     9.1226   9.1395   9.1427   9.1456   9.1460   9.1492   9.1568   9.1582
     9.1649   9.1659   9.1679   9.1707   9.1721   9.1722   9.1740   9.1764
     9.1797   9.1803   9.1843   9.1872   9.2044   9.2067   9.2099   9.2254
     9.2290   9.2377   9.2424   9.2460   9.2571   9.2620   9.2649   9.2746
     9.5444   9.5447   9.5503   9.5677   9.5877   9.5927   9.6050   9.6242
     9.6434   9.6653   9.6678   9.6761   9.7314   9.7434   9.7445   9.7812
     9.8146   9.8308   9.8413   9.8561   9.8677   9.8824   9.8856   9.8939
    10.1130  10.1150  10.1449  10.1574  10.1577  10.1620  10.1865  10.1866
    10.2797  10.3141  10.4413  10.4520  10.4549  10.4562  10.4799  10.4807
    10.4836  10.4836  10.4964  10.5002  10.5017  10.5072  10.5084  10.5146
    10.5168  10.5283  10.5374  10.5491  10.5538  10.5585  10.5741  10.5844
    10.6073  10.6124  10.6261  10.6406  10.6455  10.6612  10.6759  10.6839
    10.6883  10.6892  10.6951  10.7000  10.7122  10.7429  11.0373  11.0538
    11.0773  11.0788  11.0862  11.0917  11.0969  11.1209  11.3738  11.3793
    11.3888  11.3909  11.3997  11.4292  11.4407  11.4511  11.4601  11.4755
    11.4828  11.4839  11.4991  11.5009  11.5142  11.5374  11.6087  11.6401
    11.6435  11.6478  11.6481  11.6753  11.6764  11.6916  11.6945  11.7029
    11.7240  11.7245  11.7294  11.7585  11.7596  11.7627  11.7757  11.7845
    11.7984  11.8054  11.8107  11.8328  11.8400  11.9322  11.9787  12.0065
    12.0227  12.0416  12.0506  12.0704  12.0806  12.0904  12.1196  12.1501
    12.1801  12.1834  12.1919  12.2084  12.2100  12.2193  12.2429  12.3295
    12.3866  12.3980  12.4210  12.4305  12.4437  12.4443  12.4547  12.4562
    12.4884  12.4946  12.5112  12.5324  12.5360  12.5381  12.5642  12.5652
    12.6002  12.6572  12.6635  12.6726  12.6812  12.6832  12.7987  12.8285
    12.8760  12.8781  12.9716  13.0313  13.0565  13.0905  13.1591  13.1830
    13.1940  13.2707  13.2874  13.3037  13.4089  13.4298  13.4605  13.5230
    13.5825  13.6443  13.7788  13.8131  13.8231  13.9883  14.0930  14.1113
    14.1787  14.1986  14.4225  14.4285  14.6448  14.7061  14.9131  15.0578
    15.1945  15.2033  15.3734  15.3965  15.4446  15.5117  15.6196  15.7104
    15.8055  15.8091  15.8155  15.8357  15.8624  15.9127  15.9352  15.9434
    15.9488  15.9974  15.9996  16.0707  16.1021  16.1332  16.1942  16.1963
    16.2017  16.2471  16.2700  16.2972  16.3652  16.3715  16.4172  16.4702
    16.5365  16.5917  16.6103  16.6241  16.6309  16.6844  16.6970  16.7156
    16.7284  16.7872  16.8965  16.9040  16.9303  16.9543  16.9572  17.0356
    17.0723  17.0918  17.5991  17.7461  17.9079  17.9493  19.0096  19.0304
    19.0362  19.0490  19.1313  19.1551  19.1872  19.1895  19.3050  19.3133

     the Fermi energy is    14.8294 ev

!    total energy              =  -33062.58582252 Ry
     Harris-Foulkes estimate   =  -33062.58580449 Ry
     estimated scf accuracy    <       0.00000063 Ry

     total all-electron energy =  -1410574.676197 Ry

     The total energy is the sum of the following terms:

     one-electron contribution =   -1645.64219145 Ry
     hartree contribution      =    1489.86370273 Ry
     xc contribution           =   -1658.73502608 Ry
     ewald contribution        =   -4919.25534656 Ry
     one-center paw contrib.   =  -26328.81696117 Ry

     total magnetization       =    -0.31 Bohr mag/cell
     absolute magnetization    =    78.66 Bohr mag/cell

     convergence has been achieved in  21 iterations

     Writing output data file mnau2.save
 
     init_run     :     41.55s CPU     42.17s WALL (       1 calls)
     electrons    :   2342.85s CPU   2384.14s WALL (       1 calls)

     Called by init_run:
     wfcinit      :     35.65s CPU     36.01s WALL (       1 calls)
     potinit      :      2.47s CPU      2.51s WALL (       1 calls)

     Called by electrons:
     c_bands      :   2057.87s CPU   2089.94s WALL (      21 calls)
     sum_band     :    229.78s CPU    235.14s WALL (      21 calls)
     v_of_rho     :      5.62s CPU      5.80s WALL (      22 calls)
     newd         :     17.76s CPU     20.33s WALL (      22 calls)
     PAW_pot      :     32.58s CPU     33.07s WALL (      22 calls)
     mix_rho      :      1.11s CPU      1.19s WALL (      21 calls)

     Called by c_bands:
     init_us_2    :      7.86s CPU      7.91s WALL (     516 calls)
     cegterg      :   2008.68s CPU   2040.03s WALL (     252 calls)

     Called by sum_band:
     sum_band:bec :      1.28s CPU      1.28s WALL (     252 calls)
     addusdens    :     31.53s CPU     34.49s WALL (      21 calls)

     Called by *egterg:
     h_psi        :    734.65s CPU    741.69s WALL (     966 calls)
     s_psi        :    174.22s CPU    174.40s WALL (     966 calls)
     g_psi        :      2.67s CPU      2.68s WALL (     702 calls)
     cdiaghg      :    697.33s CPU    697.92s WALL (     954 calls)

     Called by h_psi:
     h_psi:pot    :    728.02s CPU    735.02s WALL (     966 calls)
     h_psi:calbec :    173.50s CPU    175.28s WALL (     966 calls)
     vloc_psi     :    379.29s CPU    384.30s WALL (     966 calls)
     add_vuspsi   :    175.22s CPU    175.43s WALL (     966 calls)

     General routines
     calbec       :    248.55s CPU    251.08s WALL (    1218 calls)
     fft          :      4.77s CPU      5.11s WALL (     672 calls)
     ffts         :      0.12s CPU      0.12s WALL (      86 calls)
     fftw         :    358.45s CPU    363.13s WALL (  558222 calls)
     interpolate  :      0.84s CPU      0.88s WALL (      86 calls)
 
     Parallel routines
     fft_scatt_xy :     42.90s CPU     43.29s WALL (  558980 calls)
     fft_scatt_yz :     80.48s CPU     82.61s WALL (  558980 calls)
 
     PWSCF        : 39m49.59s CPU    40m45.86s WALL

 
   This run was terminated on:   5:21:45   4Mar2019            

=------------------------------------------------------------------------------=
   JOB DONE.
=------------------------------------------------------------------------------=
