
     Program PWSCF v.6.2 (svn rev. 14038) starts on  7Mar2019 at 22:36:37 

     This program is part of the open-source Quantum ESPRESSO suite
     for quantum simulation of materials; please cite
         "P. Giannozzi et al., J. Phys.:Condens. Matter 21 395502 (2009);
         "P. Giannozzi et al., J. Phys.:Condens. Matter 29 465901 (2017);
          URL http://www.quantum-espresso.org", 
     in publications or presentations arising from this work. More details at
     http://www.quantum-espresso.org/quote

     Parallel version (MPI), running on    16 processors

     MPI processes distributed on     1 nodes
     R & G space division:  proc/nbgrp/npool/nimage =      16
     Waiting for input...
     Reading input from standard input

     Current dimensions of program PWSCF are:
     Max number of different atomic species (ntypx) = 10
     Max number of k-points (npk) =  40000
     Max angular momentum in pseudopotentials (lmaxx) =  3
               file Mn.pbe-spn-kjpaw_psl.0.3.1.UPF: wavefunction(s)  3P 3D renormalized
               file Mn.pbe-spn-kjpaw_psl.0.3.1.UPF: wavefunction(s)  3P 3D renormalized
               file Au.pbe-dn-kjpaw_psl.0.1.UPF: wavefunction(s)  6S 6P 5D renormalized

     Subspace diagonalization in iterative solution of the eigenvalue problem:
     a serial algorithm will be used

 
     Parallelization info
     --------------------
     sticks:   dense  smooth     PW     G-vecs:    dense   smooth      PW
     Min         736     331     90                52486    15847    2256
     Max         737     332     91                52489    15850    2259
     Sum       11785    5297   1449               839803   253559   36125
 


     bravais-lattice index     =            0
     lattice parameter (alat)  =      19.2459  a.u.
     unit-cell volume          =    6216.1497 (a.u.)^3
     number of atoms/cell      =           54
     number of atomic types    =            3
     number of electrons       =       666.00
     number of Kohn-Sham states=          400
     kinetic-energy cutoff     =      45.0000  Ry
     charge density cutoff     =     400.0000  Ry
     convergence threshold     =      1.0E-06
     mixing beta               =       0.1000
     number of iterations used =            8  plain     mixing
     Exchange-correlation      = SLA PW PBX PBC ( 1  4  3  4 0 0)

     celldm(1)=  19.245946  celldm(2)=   0.000000  celldm(3)=   0.000000
     celldm(4)=   0.000000  celldm(5)=   0.000000  celldm(6)=   0.000000

     crystal axes: (cart. coord. in units of alat)
               a(1) = (   1.000000   0.000000   0.000000 )  
               a(2) = (   0.000000   1.000000   0.000000 )  
               a(3) = (   0.000000   0.000000   0.871974 )  

     reciprocal axes: (cart. coord. in units 2 pi/alat)
               b(1) = (  1.000000  0.000000  0.000000 )  
               b(2) = (  0.000000  1.000000  0.000000 )  
               b(3) = (  0.000000  0.000000  1.146823 )  


     PseudoPot. # 1 for Mn read from file:
     ./pseudo/Mn.pbe-spn-kjpaw_psl.0.3.1.UPF
     MD5 check sum: 7eef95dd2aae66803482eea66ebeebf1
     Pseudo is Projector augmented-wave + core cor, Zval = 15.0
     Generated using "atomic" code by A. Dal Corso v.5.0.99 svn rev. 10869
     Shape of augmentation charge: PSQ
     Using radial grid of 1187 points,  6 beta functions with: 
                l(1) =   0
                l(2) =   0
                l(3) =   1
                l(4) =   1
                l(5) =   2
                l(6) =   2
     Q(r) pseudized with 0 coefficients 


     PseudoPot. # 2 for Mn read from file:
     ./pseudo/Mn.pbe-spn-kjpaw_psl.0.3.1.UPF
     MD5 check sum: 7eef95dd2aae66803482eea66ebeebf1
     Pseudo is Projector augmented-wave + core cor, Zval = 15.0
     Generated using "atomic" code by A. Dal Corso v.5.0.99 svn rev. 10869
     Shape of augmentation charge: PSQ
     Using radial grid of 1187 points,  6 beta functions with: 
                l(1) =   0
                l(2) =   0
                l(3) =   1
                l(4) =   1
                l(5) =   2
                l(6) =   2
     Q(r) pseudized with 0 coefficients 


     PseudoPot. # 3 for Au read from file:
     ./pseudo/Au.pbe-dn-kjpaw_psl.0.1.UPF
     MD5 check sum: 5c9b92683623e7ae2ab3f8e525febab6
     Pseudo is Projector augmented-wave + core cor, Zval = 11.0
     Generated using "atomic" code by A. Dal Corso v.5.0.2 svn rev. 9415
     Shape of augmentation charge: PSQ
     Using radial grid of 1279 points,  6 beta functions with: 
                l(1) =   0
                l(2) =   0
                l(3) =   1
                l(4) =   1
                l(5) =   2
                l(6) =   2
     Q(r) pseudized with 0 coefficients 


     atomic species   valence    mass     pseudopotential
        Mn1           15.00    54.93800     Mn( 1.00)
        Mn2           15.00    54.93800     Mn( 1.00)
        Au            11.00   196.96600     Au( 1.00)

     Starting magnetic structure 
     atomic species   magnetization
        Mn1          0.800
        Mn2         -0.800
        Au           0.000

      2 Sym. Ops. (no inversion) found



   Cartesian axes

     site n.     atom                  positions (alat units)
         1           Mn1 tau(   1) = (   0.0000000   0.0000000   0.0000000  )
         2           Mn2 tau(   2) = (   0.0000000   0.3333300   0.0000000  )
         3           Mn1 tau(   3) = (   0.0000000   0.6666700   0.0000000  )
         4           Mn1 tau(   4) = (   0.3333300   0.0000000   0.0000000  )
         5           Mn1 tau(   5) = (   0.3333300   0.3333300   0.0000000  )
         6           Mn1 tau(   6) = (   0.3333300   0.6666700   0.0000000  )
         7           Mn1 tau(   7) = (   0.6666700   0.0000000   0.0000000  )
         8           Mn2 tau(   8) = (   0.6666700   0.3333300   0.0000000  )
         9           Mn2 tau(   9) = (   0.6666700   0.6666700   0.0000000  )
        10           Mn2 tau(  10) = (   0.1666700   0.1666700   0.4359871  )
        11           Mn1 tau(  11) = (   0.1666700   0.5000000   0.4359871  )
        12           Mn2 tau(  12) = (   0.1666700   0.8333300   0.4359871  )
        13           Mn2 tau(  13) = (   0.5000000   0.1666700   0.4359871  )
        14           Mn2 tau(  14) = (   0.5000000   0.5000000   0.4359871  )
        15           Mn2 tau(  15) = (   0.5000000   0.8333300   0.4359871  )
        16           Mn2 tau(  16) = (   0.8333300   0.1666700   0.4359871  )
        17           Mn1 tau(  17) = (   0.8333300   0.5000000   0.4359871  )
        18           Mn1 tau(  18) = (   0.8333300   0.8333300   0.4359871  )
        19           Au  tau(  19) = (   0.1666700   0.1666700   0.7327374  )
        20           Au  tau(  20) = (   0.1666700   0.5000000   0.7327374  )
        21           Au  tau(  21) = (   0.1666700   0.8333300   0.7327374  )
        22           Au  tau(  22) = (   0.5000000   0.1666700   0.7327374  )
        23           Au  tau(  23) = (   0.5000000   0.5000000   0.7327374  )
        24           Au  tau(  24) = (   0.5000000   0.8333300   0.7327374  )
        25           Au  tau(  25) = (   0.8333300   0.1666700   0.7327374  )
        26           Au  tau(  26) = (   0.8333300   0.5000000   0.7327374  )
        27           Au  tau(  27) = (   0.8333300   0.8333300   0.7327374  )
        28           Au  tau(  28) = (   0.1666700   0.1666700   0.1392369  )
        29           Au  tau(  29) = (   0.1666700   0.5000000   0.1392369  )
        30           Au  tau(  30) = (   0.1666700   0.8333300   0.1392369  )
        31           Au  tau(  31) = (   0.5000000   0.1666700   0.1392369  )
        32           Au  tau(  32) = (   0.5000000   0.5000000   0.1392369  )
        33           Au  tau(  33) = (   0.5000000   0.8333300   0.1392369  )
        34           Au  tau(  34) = (   0.8333300   0.1666700   0.1392369  )
        35           Au  tau(  35) = (   0.8333300   0.5000000   0.1392369  )
        36           Au  tau(  36) = (   0.8333300   0.8333300   0.1392369  )
        37           Au  tau(  37) = (   0.0000000   0.0000000   0.2967503  )
        38           Au  tau(  38) = (   0.0000000   0.3333300   0.2967503  )
        39           Au  tau(  39) = (   0.0000000   0.6666700   0.2967503  )
        40           Au  tau(  40) = (   0.3333300   0.0000000   0.2967503  )
        41           Au  tau(  41) = (   0.3333300   0.3333300   0.2967503  )
        42           Au  tau(  42) = (   0.3333300   0.6666700   0.2967503  )
        43           Au  tau(  43) = (   0.6666700   0.0000000   0.2967503  )
        44           Au  tau(  44) = (   0.6666700   0.3333300   0.2967503  )
        45           Au  tau(  45) = (   0.6666700   0.6666700   0.2967503  )
        46           Au  tau(  46) = (   0.0000000   0.0000000   0.5752240  )
        47           Au  tau(  47) = (   0.0000000   0.3333300   0.5752240  )
        48           Au  tau(  48) = (   0.0000000   0.6666700   0.5752240  )
        49           Au  tau(  49) = (   0.3333300   0.0000000   0.5752240  )
        50           Au  tau(  50) = (   0.3333300   0.3333300   0.5752240  )
        51           Au  tau(  51) = (   0.3333300   0.6666700   0.5752240  )
        52           Au  tau(  52) = (   0.6666700   0.0000000   0.5752240  )
        53           Au  tau(  53) = (   0.6666700   0.3333300   0.5752240  )
        54           Au  tau(  54) = (   0.6666700   0.6666700   0.5752240  )

     number of k points=     8 (tetrahedron method)
                       cart. coord. in units 2pi/alat
        k(    1) = (   0.0000000   0.0000000   0.0000000), wk =   0.1250000
        k(    2) = (   0.0000000   0.0000000  -0.5734114), wk =   0.1250000
        k(    3) = (   0.0000000  -0.5000000   0.0000000), wk =   0.1250000
        k(    4) = (   0.0000000  -0.5000000  -0.5734114), wk =   0.1250000
        k(    5) = (  -0.5000000  -0.5000000   0.0000000), wk =   0.1250000
        k(    6) = (  -0.5000000  -0.5000000  -0.5734114), wk =   0.1250000
        k(    7) = (  -0.5000000   0.0000000   0.0000000), wk =   0.1250000
        k(    8) = (  -0.5000000   0.0000000   0.5734114), wk =   0.1250000

     Dense  grid:   839803 G-vectors     FFT dimensions: ( 125, 125, 108)

     Smooth grid:   253559 G-vectors     FFT dimensions: (  90,  90,  72)

     Estimated max dynamical RAM per process >     570.13 MB

     Estimated total dynamical RAM >       8.91 GB
     Generating pointlists ...
     new r_m :   0.1129 (alat units)  2.1733 (a.u.) for type    1
     new r_m :   0.1129 (alat units)  2.1733 (a.u.) for type    2
     new r_m :   0.1129 (alat units)  2.1733 (a.u.) for type    3

     Check: negative/imaginary core charge=   -0.000006    0.000000

     Initial potential from superposition of free atoms

     starting charge  665.98709, renormalised to  666.00000
     Starting wfc are  504 randomized atomic wfcs
     Checking if some PAW data can be deallocated... 

     total cpu time spent up to now is       55.8 secs

     Self-consistent Calculation

     iteration #  1     ecut=    45.00 Ry     beta= 0.10
     Davidson diagonalization with overlap
     ethr =  1.00E-02,  avg # of iterations =  3.4

     total cpu time spent up to now is      219.5 secs

     total energy              =  -33047.19168698 Ry
     Harris-Foulkes estimate   =  -33044.04270485 Ry
     estimated scf accuracy    <      27.01170915 Ry

     total magnetization       =     0.04 Bohr mag/cell
     absolute magnetization    =    92.17 Bohr mag/cell

     iteration #  2     ecut=    45.00 Ry     beta= 0.10
     Davidson diagonalization with overlap
     ethr =  4.06E-03,  avg # of iterations =  1.0

     total cpu time spent up to now is      326.7 secs

     total energy              =  -33058.56639732 Ry
     Harris-Foulkes estimate   =  -33047.36997139 Ry
     estimated scf accuracy    <      21.36231438 Ry

     total magnetization       =     0.06 Bohr mag/cell
     absolute magnetization    =    91.76 Bohr mag/cell

     iteration #  3     ecut=    45.00 Ry     beta= 0.10
     Davidson diagonalization with overlap
     ethr =  3.21E-03,  avg # of iterations =  2.1

     total cpu time spent up to now is      458.5 secs

     total energy              =  -33066.16031053 Ry
     Harris-Foulkes estimate   =  -33061.35566944 Ry
     estimated scf accuracy    <       8.79834454 Ry

     total magnetization       =     0.22 Bohr mag/cell
     absolute magnetization    =    85.70 Bohr mag/cell

     iteration #  4     ecut=    45.00 Ry     beta= 0.10
     Davidson diagonalization with overlap
     ethr =  1.32E-03,  avg # of iterations =  4.1

     total cpu time spent up to now is      662.3 secs

     total energy              =  -33059.18845454 Ry
     Harris-Foulkes estimate   =  -33068.79360797 Ry
     estimated scf accuracy    <      51.58530668 Ry

     total magnetization       =     0.25 Bohr mag/cell
     absolute magnetization    =    71.96 Bohr mag/cell

     iteration #  5     ecut=    45.00 Ry     beta= 0.10
     Davidson diagonalization with overlap
     ethr =  1.32E-03,  avg # of iterations =  4.9

     total cpu time spent up to now is      895.5 secs

     total energy              =  -33061.78157929 Ry
     Harris-Foulkes estimate   =  -33062.68374815 Ry
     estimated scf accuracy    <       4.16526338 Ry

     total magnetization       =     0.18 Bohr mag/cell
     absolute magnetization    =    83.45 Bohr mag/cell

     iteration #  6     ecut=    45.00 Ry     beta= 0.10
     Davidson diagonalization with overlap
     ethr =  6.25E-04,  avg # of iterations =  4.2

     total cpu time spent up to now is     1074.1 secs

     total energy              =  -33062.54971419 Ry
     Harris-Foulkes estimate   =  -33062.59510232 Ry
     estimated scf accuracy    <       0.54315954 Ry

     total magnetization       =     0.07 Bohr mag/cell
     absolute magnetization    =    79.30 Bohr mag/cell

     iteration #  7     ecut=    45.00 Ry     beta= 0.10
     Davidson diagonalization with overlap
     ethr =  8.16E-05,  avg # of iterations =  2.2

     total cpu time spent up to now is     1200.7 secs

     total energy              =  -33062.59277595 Ry
     Harris-Foulkes estimate   =  -33062.58240716 Ry
     estimated scf accuracy    <       0.13979546 Ry

     total magnetization       =     0.19 Bohr mag/cell
     absolute magnetization    =    79.13 Bohr mag/cell

     iteration #  8     ecut=    45.00 Ry     beta= 0.10
     Davidson diagonalization with overlap
     ethr =  2.10E-05,  avg # of iterations =  3.6

     total cpu time spent up to now is     1345.2 secs

     total energy              =  -33062.57679348 Ry
     Harris-Foulkes estimate   =  -33062.59992703 Ry
     estimated scf accuracy    <       0.21263370 Ry

     total magnetization       =     0.19 Bohr mag/cell
     absolute magnetization    =    78.54 Bohr mag/cell

     iteration #  9     ecut=    45.00 Ry     beta= 0.10
     Davidson diagonalization with overlap
     ethr =  2.10E-05,  avg # of iterations =  1.5

     total cpu time spent up to now is     1459.0 secs

     total energy              =  -33062.58142433 Ry
     Harris-Foulkes estimate   =  -33062.58397193 Ry
     estimated scf accuracy    <       0.06148538 Ry

     total magnetization       =     0.21 Bohr mag/cell
     absolute magnetization    =    78.70 Bohr mag/cell

     iteration # 10     ecut=    45.00 Ry     beta= 0.10
     Davidson diagonalization with overlap
     ethr =  9.23E-06,  avg # of iterations =  2.1

     total cpu time spent up to now is     1581.5 secs

     total energy              =  -33062.57912698 Ry
     Harris-Foulkes estimate   =  -33062.58397650 Ry
     estimated scf accuracy    <       0.02204232 Ry

     total magnetization       =     0.28 Bohr mag/cell
     absolute magnetization    =    78.78 Bohr mag/cell

     iteration # 11     ecut=    45.00 Ry     beta= 0.10
     Davidson diagonalization with overlap
     ethr =  3.31E-06,  avg # of iterations =  5.4

     total cpu time spent up to now is     1786.1 secs

     total energy              =  -33062.58314232 Ry
     Harris-Foulkes estimate   =  -33062.58352990 Ry
     estimated scf accuracy    <       0.00465556 Ry

     total magnetization       =     0.30 Bohr mag/cell
     absolute magnetization    =    79.02 Bohr mag/cell

     iteration # 12     ecut=    45.00 Ry     beta= 0.10
     Davidson diagonalization with overlap
     ethr =  6.99E-07,  avg # of iterations =  3.4

     total cpu time spent up to now is     1941.0 secs

     total energy              =  -33062.58495309 Ry
     Harris-Foulkes estimate   =  -33062.58420698 Ry
     estimated scf accuracy    <       0.00346917 Ry

     total magnetization       =     0.28 Bohr mag/cell
     absolute magnetization    =    78.96 Bohr mag/cell

     iteration # 13     ecut=    45.00 Ry     beta= 0.10
     Davidson diagonalization with overlap
     ethr =  5.21E-07,  avg # of iterations =  1.5

     total cpu time spent up to now is     2055.0 secs

     total energy              =  -33062.58541574 Ry
     Harris-Foulkes estimate   =  -33062.58493016 Ry
     estimated scf accuracy    <       0.00067696 Ry

     total magnetization       =     0.30 Bohr mag/cell
     absolute magnetization    =    78.85 Bohr mag/cell

     iteration # 14     ecut=    45.00 Ry     beta= 0.10
     Davidson diagonalization with overlap
     ethr =  1.02E-07,  avg # of iterations =  2.9

     total cpu time spent up to now is     2203.8 secs

     total energy              =  -33062.58556038 Ry
     Harris-Foulkes estimate   =  -33062.58539445 Ry
     estimated scf accuracy    <       0.00020745 Ry

     total magnetization       =     0.30 Bohr mag/cell
     absolute magnetization    =    78.77 Bohr mag/cell

     iteration # 15     ecut=    45.00 Ry     beta= 0.10
     Davidson diagonalization with overlap
     ethr =  3.11E-08,  avg # of iterations =  2.8

     total cpu time spent up to now is     2335.9 secs

     total energy              =  -33062.58570213 Ry
     Harris-Foulkes estimate   =  -33062.58554453 Ry
     estimated scf accuracy    <       0.00012801 Ry

     total magnetization       =     0.30 Bohr mag/cell
     absolute magnetization    =    78.74 Bohr mag/cell

     iteration # 16     ecut=    45.00 Ry     beta= 0.10
     Davidson diagonalization with overlap
     ethr =  1.92E-08,  avg # of iterations =  2.2

     total cpu time spent up to now is     2462.2 secs

     total energy              =  -33062.58580685 Ry
     Harris-Foulkes estimate   =  -33062.58568602 Ry
     estimated scf accuracy    <       0.00007107 Ry

     total magnetization       =     0.30 Bohr mag/cell
     absolute magnetization    =    78.72 Bohr mag/cell

     iteration # 17     ecut=    45.00 Ry     beta= 0.10
     Davidson diagonalization with overlap
     ethr =  1.07E-08,  avg # of iterations =  2.8

     total cpu time spent up to now is     2605.5 secs

     total energy              =  -33062.58582174 Ry
     Harris-Foulkes estimate   =  -33062.58577883 Ry
     estimated scf accuracy    <       0.00002656 Ry

     total magnetization       =     0.31 Bohr mag/cell
     absolute magnetization    =    78.69 Bohr mag/cell

     iteration # 18     ecut=    45.00 Ry     beta= 0.10
     Davidson diagonalization with overlap
     ethr =  3.99E-09,  avg # of iterations =  3.0

     total cpu time spent up to now is     2756.0 secs

     total energy              =  -33062.58581687 Ry
     Harris-Foulkes estimate   =  -33062.58579783 Ry
     estimated scf accuracy    <       0.00000950 Ry

     total magnetization       =     0.31 Bohr mag/cell
     absolute magnetization    =    78.68 Bohr mag/cell

     iteration # 19     ecut=    45.00 Ry     beta= 0.10
     Davidson diagonalization with overlap
     ethr =  1.43E-09,  avg # of iterations =  2.9

     total cpu time spent up to now is     2908.3 secs

     total energy              =  -33062.58581494 Ry
     Harris-Foulkes estimate   =  -33062.58580640 Ry
     estimated scf accuracy    <       0.00000401 Ry

     total magnetization       =     0.31 Bohr mag/cell
     absolute magnetization    =    78.67 Bohr mag/cell

     iteration # 20     ecut=    45.00 Ry     beta= 0.10
     Davidson diagonalization with overlap
     ethr =  6.02E-10,  avg # of iterations =  2.4

     total cpu time spent up to now is     3042.6 secs

     total energy              =  -33062.58581474 Ry
     Harris-Foulkes estimate   =  -33062.58580936 Ry
     estimated scf accuracy    <       0.00000202 Ry

     total magnetization       =     0.31 Bohr mag/cell
     absolute magnetization    =    78.66 Bohr mag/cell

     iteration # 21     ecut=    45.00 Ry     beta= 0.10
     Davidson diagonalization with overlap
     ethr =  3.04E-10,  avg # of iterations =  2.1

     total cpu time spent up to now is     3168.5 secs

     total energy              =  -33062.58581325 Ry
     Harris-Foulkes estimate   =  -33062.58580902 Ry
     estimated scf accuracy    <       0.00000123 Ry

     total magnetization       =     0.31 Bohr mag/cell
     absolute magnetization    =    78.66 Bohr mag/cell

     iteration # 22     ecut=    45.00 Ry     beta= 0.10
     Davidson diagonalization with overlap
     ethr =  1.84E-10,  avg # of iterations =  2.7
 
     Magnetic moment per site:
     atom:    1    charge:   13.5777    magn:    3.9881    constr:    0.0000
     atom:    2    charge:   13.5752    magn:   -4.0451    constr:    0.0000
     atom:    3    charge:   13.5803    magn:    3.9653    constr:    0.0000
     atom:    4    charge:   13.5713    magn:    4.0318    constr:    0.0000
     atom:    5    charge:   13.5724    magn:    4.0436    constr:    0.0000
     atom:    6    charge:   13.5776    magn:    3.9880    constr:    0.0000
     atom:    7    charge:   13.5724    magn:    4.0436    constr:    0.0000
     atom:    8    charge:   13.5825    magn:   -3.9554    constr:    0.0000
     atom:    9    charge:   13.5752    magn:   -4.0449    constr:    0.0000
     atom:   10    charge:   13.5755    magn:   -4.0042    constr:    0.0000
     atom:   11    charge:   13.5758    magn:    4.0247    constr:    0.0000
     atom:   12    charge:   13.5691    magn:   -4.0678    constr:    0.0000
     atom:   13    charge:   13.5811    magn:   -3.9506    constr:    0.0000
     atom:   14    charge:   13.5804    magn:   -3.9613    constr:    0.0000
     atom:   15    charge:   13.5754    magn:   -4.0042    constr:    0.0000
     atom:   16    charge:   13.5806    magn:   -3.9613    constr:    0.0000
     atom:   17    charge:   13.5698    magn:    4.0422    constr:    0.0000
     atom:   18    charge:   13.5758    magn:    4.0248    constr:    0.0000
     atom:   19    charge:    9.1210    magn:    0.0159    constr:    0.0000
     atom:   20    charge:    9.1200    magn:    0.0424    constr:    0.0000
     atom:   21    charge:    9.1200    magn:    0.0488    constr:    0.0000
     atom:   22    charge:    9.1217    magn:    0.0219    constr:    0.0000
     atom:   23    charge:    9.1195    magn:   -0.0034    constr:    0.0000
     atom:   24    charge:    9.1209    magn:    0.0159    constr:    0.0000
     atom:   25    charge:    9.1195    magn:   -0.0034    constr:    0.0000
     atom:   26    charge:    9.1215    magn:   -0.0153    constr:    0.0000
     atom:   27    charge:    9.1201    magn:    0.0424    constr:    0.0000
     atom:   28    charge:    9.1210    magn:    0.0159    constr:    0.0000
     atom:   29    charge:    9.1200    magn:    0.0424    constr:    0.0000
     atom:   30    charge:    9.1200    magn:    0.0488    constr:    0.0000
     atom:   31    charge:    9.1217    magn:    0.0219    constr:    0.0000
     atom:   32    charge:    9.1195    magn:   -0.0034    constr:    0.0000
     atom:   33    charge:    9.1209    magn:    0.0159    constr:    0.0000
     atom:   34    charge:    9.1195    magn:   -0.0034    constr:    0.0000
     atom:   35    charge:    9.1215    magn:   -0.0153    constr:    0.0000
     atom:   36    charge:    9.1201    magn:    0.0424    constr:    0.0000
     atom:   37    charge:    9.1205    magn:   -0.0185    constr:    0.0000
     atom:   38    charge:    9.1205    magn:   -0.0096    constr:    0.0000
     atom:   39    charge:    9.1205    magn:    0.0373    constr:    0.0000
     atom:   40    charge:    9.1208    magn:   -0.0446    constr:    0.0000
     atom:   41    charge:    9.1201    magn:   -0.0111    constr:    0.0000
     atom:   42    charge:    9.1203    magn:   -0.0185    constr:    0.0000
     atom:   43    charge:    9.1202    magn:   -0.0110    constr:    0.0000
     atom:   44    charge:    9.1198    magn:   -0.0423    constr:    0.0000
     atom:   45    charge:    9.1204    magn:   -0.0096    constr:    0.0000
     atom:   46    charge:    9.1205    magn:   -0.0185    constr:    0.0000
     atom:   47    charge:    9.1205    magn:   -0.0096    constr:    0.0000
     atom:   48    charge:    9.1205    magn:    0.0373    constr:    0.0000
     atom:   49    charge:    9.1208    magn:   -0.0446    constr:    0.0000
     atom:   50    charge:    9.1201    magn:   -0.0111    constr:    0.0000
     atom:   51    charge:    9.1203    magn:   -0.0185    constr:    0.0000
     atom:   52    charge:    9.1202    magn:   -0.0110    constr:    0.0000
     atom:   53    charge:    9.1198    magn:   -0.0423    constr:    0.0000
     atom:   54    charge:    9.1204    magn:   -0.0096    constr:    0.0000

     total cpu time spent up to now is     3315.6 secs

     End of self-consistent calculation

 ------ SPIN UP ------------


          k = 0.0000 0.0000 0.0000 ( 31747 PWs)   bands (ev):

   -66.7610 -66.7432 -66.7431 -66.7376 -66.6788 -66.6788 -66.6617 -66.6616
   -66.5990 -62.3970 -62.3928 -62.3927 -62.3682 -62.3681 -62.3510 -62.3289
   -62.3183 -62.3180 -35.5355 -35.5115 -35.5115 -35.5087 -35.5086 -35.5030
   -35.4997 -35.4771 -35.4746 -35.4603 -35.4574 -35.4572 -35.4378 -35.4376
   -35.4216 -35.4215 -35.4163 -35.4161 -35.4149 -35.4148 -35.3903 -35.3903
   -35.3831 -35.3824 -35.3767 -35.3318 -35.3202 -31.2488 -31.2485 -31.2327
   -31.2289 -31.2170 -31.2169 -31.2099 -31.2097 -31.2046 -31.1941 -31.1937
   -31.1936 -31.1913 -31.1867 -31.1767 -31.1693 -31.1690 -31.1679 -31.1676
   -31.1503 -31.1478 -31.1458 -31.1454 -31.1452 -31.1416 -31.1404 -31.1396
     5.6123   7.1354   7.1550   7.2011   7.2125   7.3619   7.8476   7.8884
     7.8960   7.9551   8.0792   8.0988   8.1215   8.1812   8.1880   8.2444
     8.2484   8.3008   8.3027   8.5134   8.5505   8.5537   8.5662   8.6003
     8.6086   8.8515   8.8563   8.8682   8.8697   8.8880   8.8952   8.8958
     8.8961   8.9076   8.9081   8.9118   8.9414   8.9528   8.9541   8.9694
     8.9820   9.0822   9.1199   9.1226   9.1244   9.1290   9.1561   9.1588
     9.1846   9.2007   9.2171   9.2657   9.2860   9.2861   9.3147   9.3375
     9.3439   9.3645   9.3649   9.3667   9.3745   9.3839   9.3915   9.4374
     9.4388   9.4501   9.4519   9.4625   9.4654   9.4738   9.4872   9.5773
     9.5780   9.5861   9.5873   9.5900   9.6008   9.6646   9.6702   9.6719
     9.6724   9.6729   9.6927   9.7343   9.7611   9.7744   9.7926   9.8476
     9.8502   9.9027   9.9067   9.9414   9.9498   9.9536  10.0228  10.0424
    10.0764  10.1092  10.1296  10.1763  10.2825  10.2871  10.2889  10.2965
    10.2988  10.2997  10.3074  10.3116  10.3205  10.3248  10.3336  10.3364
    10.3367  10.3463  10.3525  10.3550  10.3646  10.3704  10.3825  10.3831
    10.4008  10.5154  10.5193  10.5433  10.6060  10.6143  10.6187  10.6358
    10.6661  10.7807  10.7860  10.7963  10.8169  10.8244  10.8257  10.8433
    10.8488  10.8553  10.8610  10.8669  10.8767  10.8824  10.8856  10.8968
    10.9031  10.9187  11.0148  11.0202  11.0872  11.0884  11.1494  11.2120
    11.2139  11.2173  11.2258  11.2325  11.2608  11.3151  11.3287  11.3492
    11.3735  11.3802  11.3924  11.3969  11.3984  11.4113  11.4187  11.4247
    11.4400  11.4916  11.5713  11.5895  11.5898  11.5928  11.5974  11.6099
    11.6231  11.6556  11.7131  11.7215  11.7279  11.7450  11.7510  11.7523
    11.8238  11.8511  11.8565  11.8690  11.8763  11.9128  11.9201  11.9436
    11.9522  12.0208  12.0991  12.1008  12.1023  12.1028  12.1340  12.1353
    12.1446  12.1459  12.1460  12.1482  12.1599  12.1854  12.2059  12.2088
    12.2484  12.2512  12.2864  12.3157  12.3399  12.3424  12.3746  12.3905
    12.4262  12.4286  12.4341  12.4421  12.4834  12.4917  12.5020  12.5042
    12.5116  12.5279  12.5467  12.5480  12.5576  12.5610  12.5993  12.6166
    12.6811  12.7237  12.7397  12.7596  12.8405  12.8731  13.0256  13.1254
    13.1258  13.1290  13.1297  13.1808  13.3119  13.6048  13.7277  13.8395
    13.9079  14.0735  14.1137  14.1939  14.2407  14.3662  14.3746  14.6274
    14.7435  14.8081  14.8511  14.9336  15.1166  15.1175  15.2361  15.2506
    15.2744  15.3229  15.3468  15.3631  15.4277  15.4368  15.4460  15.6165
    15.6514  15.6700  15.7142  15.7553  15.7996  15.8510  15.8979  15.9722
    16.0210  16.0578  16.0820  16.1003  16.1148  16.1440  16.1768  16.1894
    16.2438  16.2671  16.3144  16.3240  16.3480  16.3502  16.3785  16.3930
    16.4141  16.5116  16.5446  16.6492  16.6550  16.6801  16.7340  16.8117
    17.0272  17.0616  17.1631  17.1646  17.2076  17.2243  17.2637  17.2905
    17.4411  17.5569  17.8546  17.8951  17.9228  17.9455  17.9710  18.0691
    18.2400  18.2911  18.4728  18.9276  18.9834  18.9977  19.1949  19.1975

          k = 0.0000 0.0000-0.5734 ( 31692 PWs)   bands (ev):

   -66.7610 -66.7432 -66.7431 -66.7376 -66.6788 -66.6788 -66.6617 -66.6616
   -66.5990 -62.3970 -62.3928 -62.3927 -62.3682 -62.3681 -62.3510 -62.3289
   -62.3183 -62.3180 -35.5355 -35.5115 -35.5115 -35.5087 -35.5086 -35.5030
   -35.4997 -35.4771 -35.4746 -35.4603 -35.4574 -35.4572 -35.4378 -35.4376
   -35.4216 -35.4215 -35.4163 -35.4161 -35.4149 -35.4148 -35.3903 -35.3903
   -35.3831 -35.3824 -35.3767 -35.3318 -35.3202 -31.2488 -31.2485 -31.2327
   -31.2289 -31.2170 -31.2169 -31.2099 -31.2097 -31.2046 -31.1941 -31.1937
   -31.1936 -31.1913 -31.1867 -31.1767 -31.1693 -31.1690 -31.1679 -31.1676
   -31.1503 -31.1478 -31.1458 -31.1454 -31.1452 -31.1416 -31.1404 -31.1396
     6.1554   6.2083   7.5327   7.5400   7.5497   7.5844   7.5912   7.5917
     7.6184   7.6320   8.3108   8.3183   8.3193   8.3300   8.3514   8.3639
     8.3809   8.4017   8.4585   8.4609   8.4685   8.4842   8.4855   8.5034
     8.5073   8.5105   8.6899   8.7114   8.7447   8.7946   8.9473   8.9491
     8.9631   8.9736   8.9750   8.9779   8.9926   8.9969   9.0102   9.0213
     9.0224   9.0290   9.0327   9.0660   9.0762   9.0945   9.1884   9.1966
     9.2250   9.2304   9.2404   9.2447   9.2690   9.2789   9.2801   9.2808
     9.2836   9.2843   9.2896   9.2927   9.3075   9.3156   9.4130   9.4179
     9.4188   9.4239   9.4276   9.4363   9.4433   9.4585   9.4684   9.4750
     9.4778   9.4824   9.4927   9.4951   9.5424   9.5432   9.6178   9.6977
     9.7803   9.7871   9.7897   9.8036   9.8101   9.8153   9.8347   9.8408
     9.8716   9.8732   9.8773   9.8791   9.8845   9.8889   9.8891   9.8913
    10.0572  10.0588  10.0600  10.0611  10.1308  10.1492  10.1524  10.1541
    10.1609  10.1860  10.1876  10.1947  10.1969  10.2182  10.3411  10.3626
    10.3772  10.3847  10.3915  10.3990  10.4103  10.4175  10.4514  10.5274
    10.5784  10.5876  10.6012  10.6130  10.6170  10.6436  10.6558  10.6571
    10.6780  10.6898  10.7140  10.7258  10.7433  10.7566  10.8135  10.8743
    10.9274  10.9479  10.9577  10.9650  11.0439  11.0547  11.0570  11.0685
    11.0785  11.1200  11.1207  11.1316  11.1492  11.1553  11.1753  11.1827
    11.2302  11.2405  11.2462  11.2488  11.2531  11.2565  11.2587  11.2672
    11.2734  11.2736  11.2743  11.2868  11.2880  11.2942  11.2946  11.2968
    11.3120  11.3167  11.3207  11.3277  11.5233  11.5984  11.6997  11.7127
    11.7132  11.7161  11.7214  11.7238  11.7268  11.7310  11.7396  11.7485
    11.7524  11.7533  11.7686  11.7979  11.8125  11.8214  11.8484  11.9301
    11.9318  11.9757  11.9815  12.0032  12.0078  12.0281  12.0311  12.1160
    12.1176  12.1529  12.1557  12.2322  12.2459  12.2574  12.3880  12.3886
    12.3993  12.4174  12.4236  12.4402  12.4543  12.4628  12.4668  12.4868
    12.4905  12.5110  12.5126  12.5269  12.5560  12.5915  12.5946  12.6062
    12.6390  12.6494  12.6563  12.7013  12.7855  12.7994  12.8392  12.8698
    12.9460  12.9642  13.0181  13.0512  13.1618  13.1722  13.1835  13.1915
    13.1965  13.2219  13.2536  13.4008  13.4579  13.4695  13.6484  13.6901
    13.9274  13.9629  14.0368  14.0480  14.0771  14.1732  14.3351  14.3777
    14.5837  14.8475  14.8996  14.9917  14.9954  15.0170  15.0217  15.0341
    15.1703  15.1760  15.1854  15.2301  15.3275  15.3423  15.5186  15.5693
    15.6320  15.7225  15.7370  15.7842  15.8556  15.8813  15.9557  15.9674
    16.0066  16.1052  16.1110  16.1130  16.1578  16.1815  16.1867  16.2008
    16.2119  16.2299  16.2683  16.2690  16.2728  16.2982  16.3210  16.3376
    16.3522  16.4500  16.4675  16.5092  16.6301  16.6508  16.7082  16.7373
    16.8850  16.9065  17.2738  17.3195  17.3690  17.3991  17.5192  17.5761
    17.5927  17.6244  17.6350  17.6958  17.7317  17.7440  17.7928  17.8275
    17.9187  17.9333  18.1047  18.1952  18.2018  18.2563  18.3144  18.3366

          k = 0.0000-0.5000 0.0000 ( 31722 PWs)   bands (ev):

   -66.7610 -66.7432 -66.7431 -66.7376 -66.6788 -66.6788 -66.6617 -66.6616
   -66.5990 -62.3970 -62.3928 -62.3927 -62.3682 -62.3681 -62.3510 -62.3289
   -62.3183 -62.3180 -35.5355 -35.5115 -35.5115 -35.5087 -35.5086 -35.5030
   -35.4997 -35.4771 -35.4746 -35.4603 -35.4574 -35.4572 -35.4378 -35.4376
   -35.4216 -35.4215 -35.4163 -35.4161 -35.4149 -35.4148 -35.3903 -35.3903
   -35.3831 -35.3824 -35.3767 -35.3318 -35.3202 -31.2488 -31.2485 -31.2327
   -31.2289 -31.2171 -31.2168 -31.2099 -31.2097 -31.2046 -31.1937 -31.1936
   -31.1936 -31.1912 -31.1871 -31.1767 -31.1693 -31.1690 -31.1679 -31.1677
   -31.1503 -31.1478 -31.1458 -31.1454 -31.1452 -31.1416 -31.1404 -31.1396
     6.0257   6.0544   7.4078   7.4375   7.4497   7.4850   7.6672   7.6792
     8.1009   8.1155   8.1291   8.1642   8.2026   8.2268   8.2436   8.2767
     8.3911   8.4243   8.4519   8.4808   8.6123   8.6238   8.6443   8.6491
     8.6721   8.6727   8.6849   8.6960   8.7560   8.8088   8.8140   8.8259
     8.8532   8.8661   8.8742   8.8848   8.8972   8.9081   8.9130   8.9199
     8.9212   8.9297   8.9401   8.9501   9.0419   9.0537   9.1558   9.1701
     9.1871   9.1971   9.2133   9.2251   9.2293   9.2412   9.3151   9.3211
     9.3534   9.3665   9.3846   9.4150   9.4719   9.4792   9.4842   9.5025
     9.5291   9.5334   9.5544   9.5676   9.5741   9.6034   9.6134   9.6140
     9.6207   9.6246   9.6250   9.6297   9.6312   9.6349   9.6375   9.6463
     9.6503   9.6547   9.6734   9.6804   9.6979   9.7124   9.7142   9.7380
     9.7380   9.7494   9.7593   9.7668   9.8944   9.9009   9.9118   9.9832
    10.0065  10.0418  10.1485  10.1894  10.2071  10.2163  10.2447  10.2509
    10.2635  10.2662  10.2709  10.2744  10.2778  10.2853  10.3459  10.3560
    10.3630  10.3781  10.3818  10.3820  10.4278  10.4377  10.4462  10.4738
    10.4802  10.5220  10.5255  10.5417  10.5575  10.5604  10.5692  10.5898
    10.6014  10.6579  10.6766  10.6971  10.6992  10.7211  10.7314  10.7639
    10.8050  10.8190  10.8292  10.8481  10.8607  10.8794  10.8998  10.9180
    10.9533  10.9956  11.0092  11.0183  11.0496  11.0970  11.1657  11.1836
    11.2769  11.3439  11.3483  11.3581  11.3643  11.3805  11.3901  11.3991
    11.4185  11.4217  11.4628  11.4645  11.5057  11.5212  11.5373  11.5623
    11.5737  11.5928  11.6128  11.6336  11.6399  11.6508  11.6790  11.7130
    11.7335  11.7732  11.7850  11.8019  11.8115  11.8325  11.8555  11.8600
    11.8690  11.8771  11.8894  11.9150  11.9243  11.9475  11.9497  11.9643
    11.9719  11.9788  11.9810  12.0122  12.0827  12.1180  12.1650  12.1730
    12.1745  12.2025  12.2088  12.2096  12.2318  12.2406  12.2416  12.2794
    12.2875  12.3037  12.3192  12.3205  12.3409  12.3828  12.3965  12.4021
    12.4292  12.4502  12.4618  12.4692  12.4718  12.5171  12.5310  12.5394
    12.5662  12.6026  12.6121  12.6279  12.6627  12.7266  12.7281  12.7577
    12.8532  12.9004  12.9226  13.0028  13.0625  13.0757  13.1217  13.1439
    13.1671  13.1753  13.1813  13.2330  13.2381  13.2750  13.2760  13.2934
    13.3916  13.4592  13.4758  13.6360  13.6669  14.3143  14.5090  14.5978
    14.6213  14.7041  14.7298  14.8116  14.8382  14.8554  14.8921  14.9960
    15.0326  15.1636  15.2943  15.2978  15.3184  15.4298  15.5303  15.5823
    15.6746  15.6912  15.7686  15.8028  15.8243  15.9105  15.9501  16.0015
    16.0290  16.0323  16.0606  16.0712  16.1242  16.1409  16.1426  16.1663
    16.2040  16.2235  16.2311  16.2356  16.2826  16.3171  16.3406  16.3806
    16.4362  16.4491  16.5578  16.6472  16.7320  16.7895  16.9612  17.0412
    17.1679  17.2113  17.2355  17.2958  17.4213  17.5277  17.6078  17.6234
    17.7126  17.7433  17.8056  17.8266  17.8437  17.8582  17.9165  17.9177
    18.0427  18.0822  18.1163  18.2069  19.2753  19.3132  19.3164  19.3300

          k = 0.0000-0.5000-0.5734 ( 31696 PWs)   bands (ev):

   -66.7610 -66.7432 -66.7431 -66.7376 -66.6788 -66.6788 -66.6617 -66.6616
   -66.5990 -62.3970 -62.3928 -62.3927 -62.3682 -62.3681 -62.3510 -62.3289
   -62.3183 -62.3180 -35.5355 -35.5115 -35.5115 -35.5087 -35.5086 -35.5030
   -35.4997 -35.4771 -35.4746 -35.4603 -35.4574 -35.4572 -35.4378 -35.4376
   -35.4216 -35.4215 -35.4163 -35.4161 -35.4149 -35.4148 -35.3903 -35.3903
   -35.3831 -35.3824 -35.3767 -35.3318 -35.3202 -31.2488 -31.2485 -31.2327
   -31.2289 -31.2171 -31.2168 -31.2099 -31.2097 -31.2046 -31.1937 -31.1936
   -31.1936 -31.1912 -31.1871 -31.1767 -31.1693 -31.1690 -31.1679 -31.1677
   -31.1503 -31.1478 -31.1458 -31.1454 -31.1452 -31.1416 -31.1404 -31.1396
     6.5213   6.5739   6.5911   6.6378   7.8352   7.8427   7.8485   7.8687
     7.9146   7.9258   7.9261   7.9355   8.2670   8.2750   8.2967   8.3001
     8.5095   8.5219   8.5308   8.5311   8.6531   8.6612   8.6648   8.6833
     8.6871   8.6933   8.7096   8.7185   8.7191   8.7382   8.7385   8.7518
     8.7637   8.7721   8.7751   8.8130   8.9468   8.9992   9.0047   9.0324
     9.0382   9.0455   9.0515   9.0626   9.1787   9.2029   9.2117   9.2126
     9.2153   9.2214   9.2284   9.2347   9.2423   9.2435   9.2541   9.2550
     9.2557   9.2702   9.2842   9.2875   9.2875   9.3447   9.3856   9.3954
     9.4050   9.4229   9.4470   9.4603   9.4661   9.4684   9.4712   9.4780
     9.4854   9.5042   9.5168   9.5176   9.5204   9.5420   9.5427   9.5503
     9.5701   9.5981   9.7532   9.7559   9.7867   9.7896   9.8022   9.8096
     9.8289   9.8310   9.8475   9.8537   9.8555   9.8607   9.8664   9.8867
     9.9519   9.9676  10.0053  10.0067  10.0233  10.0273  10.0483  10.0609
    10.3597  10.3740  10.3858  10.3865  10.3993  10.4139  10.4184  10.4306
    10.4580  10.4609  10.4686  10.4796  10.4800  10.4860  10.4896  10.5069
    10.5111  10.5636  10.5666  10.5750  10.5883  10.6033  10.6118  10.6168
    10.6295  10.6345  10.6735  10.6743  10.6785  10.6862  10.7065  10.7522
    10.7541  10.8146  10.8684  10.8869  10.9652  10.9810  11.0214  11.0781
    11.1168  11.1204  11.1240  11.1532  11.1755  11.1852  11.1998  11.2009
    11.2104  11.2119  11.2610  11.3288  11.3387  11.3504  11.3576  11.3737
    11.3767  11.3808  11.4162  11.4253  11.4448  11.4741  11.4885  11.5105
    11.5114  11.5529  11.5712  11.5735  11.5767  11.5923  11.6018  11.6325
    11.6391  11.6474  11.7145  11.7309  11.7528  11.7575  11.7992  11.8290
    11.8870  11.9091  11.9301  11.9474  11.9616  11.9654  11.9898  12.0018
    12.0172  12.0243  12.0322  12.0322  12.0368  12.0389  12.1085  12.1130
    12.1383  12.1621  12.1811  12.2163  12.2508  12.2879  12.2940  12.3453
    12.3530  12.3543  12.3948  12.4072  12.4421  12.4432  12.4693  12.4762
    12.4814  12.5063  12.5123  12.5358  12.5375  12.5565  12.5670  12.5728
    12.5861  12.6281  12.6302  12.6399  12.6516  12.6712  12.6739  12.7194
    12.8055  12.8081  12.9081  12.9224  12.9549  12.9883  13.0331  13.0534
    13.1943  13.2001  13.3579  13.4042  13.4470  13.6226  13.7775  13.7779
    13.9320  13.9629  14.0053  14.0915  14.1470  14.2487  14.2612  14.4798
    14.5200  14.5386  14.5477  14.5617  14.5886  14.7466  14.7721  14.9023
    15.0420  15.1695  15.2964  15.3336  15.4794  15.5070  15.5524  15.5562
    15.6154  15.6649  15.6997  15.7323  15.8618  15.8653  15.8984  15.9293
    15.9449  16.0992  16.1178  16.1359  16.1543  16.1684  16.1743  16.1879
    16.2531  16.2913  16.2917  16.3257  16.3323  16.3909  16.3967  16.4532
    16.4614  16.5394  16.5538  16.5714  16.6074  16.6534  16.6638  16.7125
    16.7592  16.8165  16.8213  16.8837  16.9045  16.9635  16.9806  16.9865
    17.1205  17.1824  17.1923  17.2770  18.6099  18.6991  18.7028  18.7319
    18.7527  18.7724  18.7939  18.8401  18.8746  18.9095  18.9434  19.0050

          k =-0.5000-0.5000 0.0000 ( 31612 PWs)   bands (ev):

   -66.7610 -66.7432 -66.7431 -66.7376 -66.6788 -66.6788 -66.6617 -66.6616
   -66.5990 -62.3970 -62.3928 -62.3927 -62.3682 -62.3681 -62.3510 -62.3289
   -62.3183 -62.3180 -35.5355 -35.5115 -35.5115 -35.5087 -35.5086 -35.5030
   -35.4997 -35.4771 -35.4746 -35.4603 -35.4574 -35.4572 -35.4377 -35.4376
   -35.4216 -35.4215 -35.4163 -35.4161 -35.4149 -35.4148 -35.3903 -35.3903
   -35.3831 -35.3824 -35.3767 -35.3318 -35.3202 -31.2488 -31.2485 -31.2327
   -31.2289 -31.2171 -31.2169 -31.2099 -31.2098 -31.2046 -31.1937 -31.1936
   -31.1930 -31.1910 -31.1876 -31.1767 -31.1693 -31.1690 -31.1679 -31.1678
   -31.1503 -31.1478 -31.1458 -31.1454 -31.1452 -31.1416 -31.1404 -31.1396
     6.3971   6.4348   6.4370   6.4827   8.0060   8.0117   8.0132   8.0252
     8.0864   8.1172   8.2790   8.3094   8.3218   8.3257   8.3361   8.3406
     8.3489   8.3510   8.3600   8.3681   8.3688   8.4006   8.5631   8.6050
     8.6453   8.6622   8.6784   8.6969   8.7019   8.7207   8.7345   8.7478
     8.7494   8.7994   8.9147   8.9152   8.9632   8.9658   8.9742   8.9754
     8.9767   8.9939   8.9963   9.0005   9.0057   9.0360   9.0443   9.0464
     9.1116   9.1297   9.3077   9.3091   9.3099   9.3255   9.3934   9.4031
     9.4136   9.4196   9.4247   9.4269   9.4287   9.4332   9.4468   9.4472
     9.4619   9.4666   9.4681   9.4762   9.4831   9.4869   9.4893   9.4896
     9.5158   9.5224   9.5288   9.5358   9.5407   9.5647   9.5809   9.5886
     9.6016   9.6118   9.6955   9.6981   9.7502   9.8016   9.8128   9.8255
     9.8272   9.8315   9.8397   9.8545   9.8546   9.8679  10.0080  10.0535
    10.0889  10.0981  10.1036  10.1162  10.1305  10.1402  10.1424  10.1709
    10.1906  10.1984  10.2065  10.2105  10.2136  10.2193  10.2255  10.2258
    10.2306  10.2349  10.2484  10.2536  10.4343  10.4691  10.4749  10.4896
    10.4972  10.5079  10.5273  10.5498  10.5668  10.6151  10.6397  10.6515
    10.6659  10.6681  10.6683  10.6746  10.6992  10.6997  10.6998  10.7045
    10.7108  10.7373  10.7928  10.7981  10.8190  10.8532  10.8695  10.8768
    10.9255  10.9366  11.1957  11.2084  11.2089  11.2239  11.3017  11.3120
    11.3188  11.3309  11.3520  11.3565  11.3986  11.3993  11.5469  11.5557
    11.6047  11.6213  11.6283  11.6362  11.6430  11.6444  11.6470  11.6474
    11.6513  11.6586  11.6662  11.7249  11.7299  11.7669  11.7674  11.7936
    11.8640  11.8741  11.8768  11.8784  11.8841  11.8857  11.9630  11.9672
    12.0138  12.0349  12.0525  12.0586  12.0739  12.0855  12.1028  12.1047
    12.1057  12.1106  12.1109  12.1165  12.1299  12.1455  12.1532  12.1534
    12.1648  12.1759  12.1951  12.2153  12.2175  12.2274  12.2393  12.2403
    12.2524  12.2652  12.2794  12.2858  12.2862  12.2982  12.2988  12.3714
    12.4172  12.4417  12.4552  12.4802  12.4948  12.4959  12.4966  12.5276
    12.5378  12.5489  12.5504  12.5592  12.5612  12.5732  12.6442  12.6653
    12.6761  12.7652  12.7678  12.8261  12.8401  12.8473  12.8485  12.8915
    12.8916  12.9409  13.0025  13.0137  13.1265  13.5624  13.6294  13.6475
    13.6712  13.6712  13.7480  13.7722  13.8781  13.9795  14.0614  14.1456
    14.2780  14.3145  14.4647  14.4950  14.5652  14.6126  14.8598  14.8626
    15.0146  15.0890  15.1495  15.3174  15.3543  15.4375  15.7041  15.7511
    15.7675  15.7961  15.8203  15.8579  15.8629  15.8706  15.9370  15.9789
    16.0024  16.0173  16.0348  16.0521  16.0902  16.0904  16.1123  16.1378
    16.1555  16.1561  16.2664  16.2992  16.3182  16.3341  16.3517  16.3876
    16.4353  16.5069  16.5463  16.6742  16.6993  16.7177  16.7322  16.7405
    16.8648  16.9041  16.9184  17.0160  17.3815  17.3915  17.6497  18.0252
    18.1482  18.1546  18.2029  18.2049  18.2649  18.4218  18.5272  18.5544
    18.5971  18.6076  18.6685  18.6726  18.7271  18.7677  18.8028  18.8060

          k =-0.5000-0.5000-0.5734 ( 31672 PWs)   bands (ev):

   -66.7610 -66.7432 -66.7431 -66.7376 -66.6788 -66.6788 -66.6617 -66.6616
   -66.5990 -62.3970 -62.3928 -62.3927 -62.3682 -62.3681 -62.3510 -62.3289
   -62.3183 -62.3180 -35.5355 -35.5115 -35.5115 -35.5087 -35.5086 -35.5030
   -35.4997 -35.4771 -35.4746 -35.4603 -35.4574 -35.4572 -35.4377 -35.4376
   -35.4216 -35.4215 -35.4163 -35.4161 -35.4149 -35.4148 -35.3903 -35.3903
   -35.3831 -35.3824 -35.3767 -35.3318 -35.3202 -31.2488 -31.2485 -31.2327
   -31.2289 -31.2171 -31.2169 -31.2099 -31.2098 -31.2046 -31.1937 -31.1936
   -31.1930 -31.1910 -31.1876 -31.1767 -31.1693 -31.1690 -31.1679 -31.1678
   -31.1503 -31.1478 -31.1458 -31.1454 -31.1452 -31.1416 -31.1404 -31.1396
     6.8891   6.9101   6.9155   6.9391   6.9848   7.0163   7.0304   7.0461
     8.4449   8.4652   8.4702   8.4765   8.4779   8.4884   8.4884   8.4896
     8.4990   8.4998   8.5133   8.5186   8.5327   8.5348   8.5483   8.5603
     8.5673   8.5838   8.5848   8.6180   8.8760   8.8765   8.8876   8.8949
     8.9062   8.9191   8.9266   8.9344   9.0881   9.1044   9.1109   9.1164
     9.1226   9.1395   9.1427   9.1455   9.1460   9.1491   9.1568   9.1581
     9.1649   9.1659   9.1679   9.1707   9.1720   9.1721   9.1740   9.1764
     9.1797   9.1803   9.1843   9.1872   9.2044   9.2067   9.2099   9.2254
     9.2289   9.2377   9.2424   9.2459   9.2571   9.2619   9.2649   9.2745
     9.5444   9.5446   9.5502   9.5677   9.5877   9.5926   9.6049   9.6242
     9.6434   9.6652   9.6678   9.6760   9.7313   9.7433   9.7444   9.7811
     9.8146   9.8307   9.8411   9.8560   9.8677   9.8824   9.8855   9.8939
    10.1130  10.1150  10.1449  10.1574  10.1577  10.1620  10.1865  10.1865
    10.2797  10.3141  10.4413  10.4520  10.4549  10.4562  10.4799  10.4807
    10.4835  10.4836  10.4964  10.5002  10.5017  10.5071  10.5083  10.5146
    10.5168  10.5282  10.5374  10.5491  10.5538  10.5585  10.5741  10.5844
    10.6072  10.6124  10.6260  10.6406  10.6454  10.6611  10.6758  10.6839
    10.6883  10.6892  10.6950  10.7000  10.7122  10.7429  11.0373  11.0537
    11.0772  11.0788  11.0862  11.0917  11.0968  11.1208  11.3737  11.3792
    11.3888  11.3909  11.3997  11.4292  11.4406  11.4511  11.4601  11.4755
    11.4828  11.4839  11.4990  11.5009  11.5142  11.5373  11.6087  11.6401
    11.6434  11.6477  11.6480  11.6752  11.6763  11.6915  11.6945  11.7028
    11.7240  11.7245  11.7294  11.7585  11.7596  11.7626  11.7757  11.7844
    11.7983  11.8053  11.8106  11.8327  11.8399  11.9321  11.9787  12.0064
    12.0226  12.0415  12.0506  12.0703  12.0805  12.0903  12.1196  12.1500
    12.1800  12.1833  12.1919  12.2084  12.2100  12.2192  12.2429  12.3294
    12.3866  12.3980  12.4207  12.4304  12.4436  12.4442  12.4547  12.4561
    12.4883  12.4945  12.5112  12.5323  12.5360  12.5380  12.5641  12.5651
    12.6001  12.6571  12.6634  12.6725  12.6812  12.6831  12.7987  12.8284
    12.8760  12.8780  12.9715  13.0313  13.0565  13.0904  13.1590  13.1829
    13.1940  13.2706  13.2873  13.3036  13.4088  13.4298  13.4604  13.5230
    13.5825  13.6443  13.7788  13.8131  13.8230  13.9882  14.0930  14.1113
    14.1786  14.1985  14.4225  14.4285  14.6448  14.7061  14.9132  15.0577
    15.1945  15.2032  15.3734  15.3965  15.4446  15.5117  15.6196  15.7105
    15.8056  15.8092  15.8157  15.8358  15.8625  15.9129  15.9355  15.9436
    15.9490  15.9975  15.9997  16.0708  16.1022  16.1333  16.1943  16.1963
    16.2016  16.2471  16.2699  16.2973  16.3654  16.3716  16.4173  16.4703
    16.5366  16.5918  16.6103  16.6242  16.6311  16.6846  16.6970  16.7157
    16.7285  16.7874  16.8967  16.9041  16.9303  16.9543  16.9572  17.0357
    17.0724  17.0919  17.5990  17.7460  17.9079  17.9493  19.0096  19.0304
    19.0362  19.0490  19.1313  19.1551  19.1872  19.1894  19.3049  19.3133

          k =-0.5000 0.0000 0.0000 ( 31722 PWs)   bands (ev):

   -66.7610 -66.7432 -66.7431 -66.7376 -66.6788 -66.6788 -66.6617 -66.6616
   -66.5990 -62.3970 -62.3928 -62.3927 -62.3682 -62.3681 -62.3510 -62.3289
   -62.3183 -62.3180 -35.5355 -35.5115 -35.5115 -35.5087 -35.5086 -35.5030
   -35.4997 -35.4771 -35.4746 -35.4603 -35.4574 -35.4572 -35.4378 -35.4376
   -35.4216 -35.4215 -35.4163 -35.4161 -35.4149 -35.4148 -35.3903 -35.3903
   -35.3831 -35.3824 -35.3767 -35.3318 -35.3202 -31.2488 -31.2485 -31.2327
   -31.2289 -31.2170 -31.2169 -31.2099 -31.2097 -31.2046 -31.1937 -31.1936
   -31.1936 -31.1911 -31.1871 -31.1767 -31.1693 -31.1690 -31.1679 -31.1677
   -31.1503 -31.1478 -31.1458 -31.1454 -31.1452 -31.1416 -31.1404 -31.1396
     6.0257   6.0544   7.4079   7.4377   7.4495   7.4848   7.6672   7.6792
     8.1009   8.1155   8.1291   8.1642   8.2026   8.2268   8.2436   8.2767
     8.3911   8.4244   8.4519   8.4808   8.6123   8.6237   8.6441   8.6491
     8.6722   8.6727   8.6849   8.6961   8.7560   8.8088   8.8140   8.8259
     8.8532   8.8660   8.8742   8.8848   8.8972   8.9081   8.9129   8.9199
     8.9212   8.9297   8.9402   8.9501   9.0419   9.0537   9.1558   9.1701
     9.1871   9.1971   9.2133   9.2252   9.2293   9.2412   9.3150   9.3211
     9.3533   9.3665   9.3846   9.4151   9.4719   9.4793   9.4842   9.5025
     9.5291   9.5334   9.5544   9.5676   9.5741   9.6034   9.6134   9.6140
     9.6208   9.6247   9.6250   9.6297   9.6311   9.6349   9.6375   9.6463
     9.6503   9.6547   9.6734   9.6804   9.6979   9.7124   9.7143   9.7379
     9.7380   9.7493   9.7592   9.7667   9.8944   9.9009   9.9118   9.9832
    10.0065  10.0418  10.1485  10.1893  10.2071  10.2164  10.2447  10.2509
    10.2634  10.2662  10.2709  10.2744  10.2778  10.2853  10.3459  10.3560
    10.3630  10.3781  10.3818  10.3820  10.4278  10.4377  10.4462  10.4738
    10.4803  10.5220  10.5254  10.5417  10.5574  10.5605  10.5692  10.5898
    10.6014  10.6580  10.6766  10.6971  10.6992  10.7211  10.7314  10.7638
    10.8049  10.8189  10.8292  10.8481  10.8607  10.8795  10.8998  10.9180
    10.9532  10.9955  11.0092  11.0184  11.0496  11.0970  11.1656  11.1836
    11.2769  11.3439  11.3483  11.3581  11.3644  11.3805  11.3902  11.3991
    11.4186  11.4217  11.4627  11.4645  11.5057  11.5212  11.5373  11.5623
    11.5737  11.5928  11.6128  11.6336  11.6399  11.6508  11.6790  11.7131
    11.7335  11.7732  11.7850  11.8019  11.8114  11.8325  11.8555  11.8600
    11.8690  11.8771  11.8894  11.9149  11.9243  11.9475  11.9497  11.9642
    11.9719  11.9788  11.9810  12.0123  12.0828  12.1180  12.1650  12.1730
    12.1745  12.2025  12.2088  12.2096  12.2318  12.2406  12.2416  12.2794
    12.2875  12.3037  12.3192  12.3205  12.3409  12.3828  12.3965  12.4020
    12.4291  12.4502  12.4617  12.4692  12.4717  12.5171  12.5310  12.5394
    12.5662  12.6026  12.6121  12.6279  12.6627  12.7266  12.7281  12.7577
    12.8532  12.9004  12.9226  13.0028  13.0625  13.0757  13.1217  13.1439
    13.1670  13.1754  13.1813  13.2330  13.2381  13.2750  13.2761  13.2933
    13.3916  13.4591  13.4758  13.6360  13.6669  14.3143  14.5090  14.5978
    14.6213  14.7041  14.7298  14.8116  14.8382  14.8553  14.8921  14.9960
    15.0327  15.1636  15.2943  15.2978  15.3185  15.4298  15.5303  15.5823
    15.6746  15.6911  15.7686  15.8028  15.8243  15.9105  15.9502  16.0015
    16.0290  16.0323  16.0607  16.0712  16.1242  16.1409  16.1426  16.1663
    16.2040  16.2235  16.2310  16.2356  16.2826  16.3170  16.3406  16.3805
    16.4362  16.4491  16.5579  16.6472  16.7320  16.7894  16.9611  17.0412
    17.1679  17.2113  17.2355  17.2957  17.4214  17.5277  17.6078  17.6234
    17.7126  17.7433  17.8056  17.8266  17.8437  17.8582  17.9165  17.9178
    18.0427  18.0823  18.1163  18.2069  19.2753  19.3131  19.3164  19.3300

          k =-0.5000 0.0000 0.5734 ( 31696 PWs)   bands (ev):

   -66.7610 -66.7432 -66.7431 -66.7376 -66.6788 -66.6788 -66.6617 -66.6616
   -66.5990 -62.3970 -62.3928 -62.3927 -62.3682 -62.3681 -62.3510 -62.3289
   -62.3183 -62.3180 -35.5355 -35.5115 -35.5115 -35.5087 -35.5086 -35.5030
   -35.4997 -35.4771 -35.4746 -35.4603 -35.4574 -35.4572 -35.4378 -35.4376
   -35.4216 -35.4215 -35.4163 -35.4161 -35.4149 -35.4148 -35.3903 -35.3903
   -35.3831 -35.3824 -35.3767 -35.3318 -35.3202 -31.2488 -31.2485 -31.2327
   -31.2289 -31.2170 -31.2169 -31.2099 -31.2097 -31.2046 -31.1937 -31.1936
   -31.1936 -31.1911 -31.1871 -31.1767 -31.1693 -31.1690 -31.1679 -31.1677
   -31.1503 -31.1478 -31.1458 -31.1454 -31.1452 -31.1416 -31.1404 -31.1396
     6.5213   6.5739   6.5911   6.6378   7.8350   7.8429   7.8486   7.8688
     7.9146   7.9258   7.9260   7.9354   8.2670   8.2750   8.2967   8.3001
     8.5095   8.5219   8.5308   8.5311   8.6531   8.6613   8.6648   8.6833
     8.6871   8.6933   8.7095   8.7185   8.7191   8.7382   8.7384   8.7518
     8.7637   8.7721   8.7751   8.8130   8.9468   8.9992   9.0047   9.0325
     9.0381   9.0456   9.0516   9.0625   9.1786   9.2029   9.2117   9.2126
     9.2152   9.2215   9.2284   9.2347   9.2422   9.2435   9.2541   9.2550
     9.2557   9.2702   9.2842   9.2876   9.2876   9.3448   9.3856   9.3954
     9.4050   9.4229   9.4470   9.4604   9.4660   9.4684   9.4712   9.4781
     9.4854   9.5042   9.5169   9.5176   9.5204   9.5420   9.5427   9.5503
     9.5701   9.5981   9.7533   9.7559   9.7868   9.7896   9.8022   9.8096
     9.8288   9.8309   9.8475   9.8537   9.8556   9.8607   9.8664   9.8867
     9.9520   9.9677  10.0053  10.0066  10.0232  10.0273  10.0483  10.0610
    10.3598  10.3740  10.3858  10.3865  10.3993  10.4139  10.4184  10.4307
    10.4580  10.4609  10.4686  10.4796  10.4800  10.4860  10.4896  10.5069
    10.5110  10.5636  10.5666  10.5750  10.5883  10.6033  10.6118  10.6168
    10.6295  10.6345  10.6735  10.6743  10.6785  10.6862  10.7065  10.7522
    10.7541  10.8146  10.8683  10.8868  10.9653  10.9811  11.0213  11.0780
    11.1169  11.1203  11.1240  11.1532  11.1754  11.1852  11.1997  11.2009
    11.2104  11.2119  11.2610  11.3287  11.3387  11.3504  11.3577  11.3737
    11.3767  11.3808  11.4162  11.4253  11.4448  11.4742  11.4885  11.5106
    11.5114  11.5529  11.5712  11.5735  11.5767  11.5923  11.6018  11.6326
    11.6391  11.6474  11.7145  11.7309  11.7529  11.7575  11.7991  11.8289
    11.8870  11.9091  11.9301  11.9474  11.9616  11.9654  11.9898  12.0018
    12.0172  12.0243  12.0321  12.0322  12.0368  12.0389  12.1086  12.1131
    12.1383  12.1621  12.1811  12.2163  12.2509  12.2879  12.2940  12.3453
    12.3530  12.3543  12.3948  12.4072  12.4421  12.4433  12.4693  12.4761
    12.4814  12.5062  12.5123  12.5358  12.5375  12.5565  12.5670  12.5728
    12.5861  12.6281  12.6302  12.6399  12.6516  12.6712  12.6739  12.7194
    12.8055  12.8080  12.9081  12.9224  12.9549  12.9883  13.0331  13.0534
    13.1943  13.2001  13.3579  13.4042  13.4470  13.6226  13.7775  13.7779
    13.9320  13.9630  14.0053  14.0915  14.1470  14.2487  14.2612  14.4798
    14.5200  14.5386  14.5478  14.5617  14.5886  14.7466  14.7720  14.9024
    15.0421  15.1695  15.2964  15.3336  15.4794  15.5069  15.5523  15.5562
    15.6154  15.6649  15.6997  15.7322  15.8618  15.8653  15.8984  15.9293
    15.9450  16.0992  16.1178  16.1359  16.1543  16.1684  16.1743  16.1879
    16.2531  16.2913  16.2917  16.3257  16.3323  16.3909  16.3967  16.4532
    16.4614  16.5394  16.5538  16.5714  16.6075  16.6534  16.6637  16.7126
    16.7592  16.8165  16.8213  16.8837  16.9045  16.9635  16.9806  16.9866
    17.1205  17.1824  17.1922  17.2771  18.6098  18.6990  18.7028  18.7318
    18.7525  18.7725  18.7940  18.8402  18.8748  18.9095  18.9435  19.0050

 ------ SPIN DOWN ----------


          k = 0.0000 0.0000 0.0000 ( 31747 PWs)   bands (ev):

   -66.7753 -66.7062 -66.7062 -66.6681 -66.6678 -66.6360 -66.6359 -66.6164
   -66.5872 -62.4099 -62.3937 -62.3937 -62.3893 -62.3623 -62.3622 -62.3503
   -62.3501 -62.3228 -35.5333 -35.5258 -35.4960 -35.4690 -35.4689 -35.4561
   -35.4560 -35.4367 -35.4365 -35.4219 -35.4218 -35.4163 -35.4160 -35.3940
   -35.3939 -35.3886 -35.3885 -35.3858 -35.3855 -35.3674 -35.3645 -35.3623
   -35.3575 -35.3542 -35.3518 -35.3413 -35.2868 -31.2479 -31.2410 -31.2409
   -31.2337 -31.2218 -31.2205 -31.2155 -31.2110 -31.2101 -31.2076 -31.2038
   -31.2037 -31.1981 -31.1980 -31.1962 -31.1962 -31.1899 -31.1898 -31.1725
   -31.1723 -31.1697 -31.1695 -31.1643 -31.1612 -31.1611 -31.1405 -31.1394
     5.6162   7.1385   7.1592   7.2041   7.2184   7.3650   7.8448   7.8954
     7.9186   7.9481   8.0820   8.0903   8.1434   8.1827   8.1832   8.2507
     8.2509   8.3019   8.3061   8.5124   8.5567   8.5589   8.5707   8.5917
     8.6256   8.8565   8.8612   8.8640   8.8721   8.8840   8.8876   8.8967
     8.8969   8.9073   8.9115   8.9221   8.9363   8.9589   8.9731   8.9805
     8.9841   9.0836   9.1199   9.1254   9.1290   9.1366   9.1494   9.1584
     9.1982   9.1988   9.2165   9.2670   9.2864   9.2930   9.3071   9.3457
     9.3479   9.3665   9.3691   9.3748   9.3831   9.3990   9.3999   9.4331
     9.4399   9.4510   9.4557   9.4624   9.4684   9.4687   9.4893   9.5792
     9.5800   9.5862   9.5942   9.5943   9.6100   9.6680   9.6688   9.6705
     9.6722   9.6757   9.6882   9.7353   9.7625   9.7741   9.8021   9.8487
     9.8510   9.9071   9.9120   9.9481   9.9536   9.9541  10.0199  10.0445
    10.0878  10.1159  10.1337  10.1750  10.2863  10.2865  10.2937  10.2972
    10.3006  10.3016  10.3055  10.3219  10.3220  10.3329  10.3382  10.3409
    10.3437  10.3499  10.3516  10.3634  10.3659  10.3753  10.3764  10.3834
    10.4045  10.5101  10.5200  10.5425  10.6152  10.6163  10.6253  10.6592
    10.6772  10.7837  10.7883  10.8053  10.8115  10.8248  10.8283  10.8374
    10.8532  10.8584  10.8622  10.8750  10.8764  10.8879  10.8906  10.8989
    10.9116  10.9207  11.0147  11.0244  11.0875  11.0920  11.2074  11.2199
    11.2236  11.2295  11.2317  11.2602  11.2748  11.2852  11.3305  11.3309
    11.3506  11.3783  11.3846  11.3969  11.4001  11.4042  11.4074  11.4287
    11.4454  11.5109  11.5522  11.5911  11.5912  11.5950  11.5974  11.6203
    11.6895  11.7075  11.7094  11.7251  11.7308  11.7447  11.7517  11.7578
    11.8284  11.8361  11.8575  11.8708  11.8845  11.9203  11.9247  11.9429
    11.9492  12.0753  12.1013  12.1020  12.1025  12.1032  12.1056  12.1412
    12.1431  12.1473  12.1473  12.1482  12.1524  12.1666  12.1796  12.2039
    12.2699  12.2730  12.2935  12.3387  12.3548  12.3827  12.4022  12.4325
    12.4345  12.4393  12.4534  12.4670  12.5086  12.5108  12.5169  12.5261
    12.5408  12.5442  12.5449  12.5617  12.5896  12.6089  12.6299  12.6463
    12.7296  12.7437  12.7518  12.7729  12.8473  12.8967  13.0337  13.0881
    13.1106  13.1468  13.1755  13.1951  13.4330  13.5385  13.7801  13.8666
    13.8800  14.0889  14.0940  14.1863  14.2385  14.3927  14.4118  14.6570
    14.7167  14.8406  14.8717  14.9654  15.0332  15.0847  15.1182  15.2780
    15.2798  15.2801  15.3182  15.3564  15.4579  15.4821  15.5043  15.6358
    15.6595  15.6595  15.6894  15.7929  15.8212  15.8500  15.9147  15.9726
    16.0072  16.0512  16.0537  16.0924  16.1383  16.1591  16.1788  16.1882
    16.2344  16.2635  16.2931  16.3063  16.3305  16.3575  16.3663  16.4178
    16.4532  16.4603  16.4890  16.5919  16.6045  16.6369  16.8092  16.8440
    16.9090  17.0329  17.1877  17.1894  17.1976  17.2364  17.2434  17.3240
    17.4889  17.5679  17.8335  17.8987  17.9274  17.9373  17.9788  18.0637
    18.2457  18.2886  18.4582  18.9005  18.9990  19.0082  19.1830  19.2319

          k = 0.0000 0.0000-0.5734 ( 31692 PWs)   bands (ev):

   -66.7753 -66.7062 -66.7062 -66.6681 -66.6678 -66.6360 -66.6359 -66.6164
   -66.5872 -62.4099 -62.3937 -62.3937 -62.3893 -62.3623 -62.3622 -62.3503
   -62.3501 -62.3228 -35.5333 -35.5258 -35.4960 -35.4690 -35.4689 -35.4561
   -35.4560 -35.4367 -35.4365 -35.4219 -35.4218 -35.4163 -35.4160 -35.3940
   -35.3939 -35.3886 -35.3885 -35.3858 -35.3855 -35.3674 -35.3645 -35.3623
   -35.3575 -35.3542 -35.3518 -35.3413 -35.2868 -31.2479 -31.2410 -31.2409
   -31.2337 -31.2218 -31.2205 -31.2155 -31.2110 -31.2101 -31.2076 -31.2038
   -31.2037 -31.1981 -31.1980 -31.1962 -31.1962 -31.1899 -31.1898 -31.1725
   -31.1723 -31.1697 -31.1695 -31.1643 -31.1612 -31.1611 -31.1405 -31.1394
     6.1544   6.2176   7.5237   7.5472   7.5663   7.5841   7.5859   7.5957
     7.6303   7.6383   8.2994   8.3263   8.3283   8.3322   8.3641   8.3680
     8.3886   8.4034   8.4485   8.4675   8.4753   8.4803   8.4863   8.5011
     8.5187   8.5197   8.6908   8.7157   8.7431   8.7998   8.9364   8.9584
     8.9718   8.9730   8.9731   8.9882   8.9898   9.0030   9.0121   9.0181
     9.0258   9.0392   9.0431   9.0695   9.0707   9.1046   9.1907   9.1913
     9.2368   9.2370   9.2406   9.2417   9.2624   9.2742   9.2822   9.2837
     9.2912   9.2914   9.2920   9.3024   9.3123   9.3206   9.4042   9.4120
     9.4228   9.4302   9.4316   9.4404   9.4445   9.4511   9.4823   9.4842
     9.4844   9.4895   9.4910   9.5019   9.5492   9.5515   9.6161   9.7055
     9.7782   9.7930   9.7975   9.8040   9.8055   9.8153   9.8335   9.8492
     9.8731   9.8802   9.8803   9.8822   9.8858   9.8886   9.8897   9.8908
    10.0538  10.0555  10.0661  10.0680  10.1352  10.1467  10.1481  10.1574
    10.1636  10.1912  10.1947  10.1962  10.2020  10.2230  10.3543  10.3793
    10.3805  10.3861  10.3869  10.3915  10.4150  10.4212  10.4553  10.5284
    10.5789  10.5831  10.6154  10.6164  10.6347  10.6429  10.6446  10.6577
    10.6645  10.7036  10.7037  10.7257  10.7566  10.7856  10.8262  10.8809
    10.9227  10.9646  11.0114  11.0136  11.0324  11.0336  11.0388  11.0427
    11.0762  11.0990  11.1046  11.1489  11.1530  11.1770  11.2077  11.2187
    11.2218  11.2417  11.2475  11.2513  11.2524  11.2651  11.2669  11.2681
    11.2705  11.2735  11.2822  11.2879  11.2903  11.3002  11.3039  11.3097
    11.3101  11.3193  11.3211  11.3229  11.5259  11.5918  11.7075  11.7133
    11.7166  11.7181  11.7196  11.7240  11.7270  11.7273  11.7356  11.7678
    11.7705  11.7743  11.7746  11.7991  11.8078  11.8128  11.8410  11.9336
    11.9497  11.9669  11.9854  12.0152  12.0435  12.0452  12.0682  12.0962
    12.1226  12.1671  12.1733  12.2302  12.2497  12.2649  12.3569  12.4192
    12.4251  12.4275  12.4568  12.4628  12.4685  12.4731  12.4827  12.4933
    12.5223  12.5267  12.5370  12.5383  12.5642  12.6178  12.6280  12.6300
    12.6309  12.6438  12.6971  12.7293  12.7492  12.7829  12.8911  12.9253
    12.9710  13.0400  13.0514  13.0870  13.1195  13.1855  13.1893  13.1993
    13.2217  13.2370  13.2670  13.3768  13.5072  13.5116  13.5737  13.6778
    13.9367  13.9377  13.9866  14.0948  14.1357  14.2443  14.3228  14.4770
    14.5060  14.8845  14.8993  14.9112  14.9693  14.9926  15.0530  15.0806
    15.1767  15.1862  15.2058  15.2457  15.3124  15.4177  15.4314  15.5287
    15.6523  15.6919  15.7030  15.7626  15.8137  15.9384  15.9433  15.9841
    16.0696  16.1026  16.1288  16.1349  16.1366  16.1429  16.1834  16.2048
    16.2121  16.2154  16.2372  16.2529  16.2680  16.2847  16.2949  16.3138
    16.3774  16.4254  16.4400  16.5096  16.6083  16.6494  16.7066  16.7113
    16.8590  16.8883  17.3535  17.4031  17.4436  17.4481  17.4982  17.5395
    17.5498  17.5616  17.6325  17.6588  17.6664  17.7332  17.8491  17.8543
    17.9071  17.9178  18.0849  18.1880  18.2200  18.2643  18.3062  18.3442

          k = 0.0000-0.5000 0.0000 ( 31722 PWs)   bands (ev):

   -66.7753 -66.7062 -66.7062 -66.6681 -66.6678 -66.6360 -66.6359 -66.6164
   -66.5872 -62.4099 -62.3937 -62.3937 -62.3893 -62.3623 -62.3622 -62.3503
   -62.3501 -62.3228 -35.5333 -35.5258 -35.4960 -35.4690 -35.4689 -35.4561
   -35.4560 -35.4367 -35.4365 -35.4219 -35.4218 -35.4163 -35.4160 -35.3940
   -35.3939 -35.3886 -35.3885 -35.3858 -35.3855 -35.3674 -35.3645 -35.3623
   -35.3574 -35.3542 -35.3519 -35.3413 -35.2868 -31.2479 -31.2411 -31.2409
   -31.2337 -31.2219 -31.2205 -31.2159 -31.2109 -31.2092 -31.2076 -31.2038
   -31.2037 -31.1981 -31.1980 -31.1964 -31.1962 -31.1900 -31.1899 -31.1725
   -31.1723 -31.1697 -31.1695 -31.1643 -31.1612 -31.1611 -31.1405 -31.1394
     6.0289   6.0590   7.4213   7.4316   7.4548   7.4891   7.6733   7.6794
     8.1017   8.1160   8.1428   8.1765   8.1953   8.2302   8.2481   8.2752
     8.4025   8.4212   8.4501   8.4876   8.6130   8.6311   8.6442   8.6529
     8.6688   8.6793   8.6861   8.7061   8.7550   8.8089   8.8257   8.8406
     8.8530   8.8744   8.8756   8.8787   8.9029   8.9086   8.9127   8.9170
     8.9280   8.9350   8.9357   8.9550   9.0479   9.0518   9.1577   9.1768
     9.1800   9.1996   9.2178   9.2256   9.2359   9.2468   9.3125   9.3389
     9.3491   9.3652   9.4008   9.4054   9.4734   9.4835   9.4889   9.5025
     9.5278   9.5374   9.5570   9.5742   9.5742   9.5986   9.6157   9.6188
     9.6223   9.6283   9.6287   9.6348   9.6356   9.6387   9.6425   9.6522
     9.6532   9.6618   9.6714   9.6786   9.7031   9.7207   9.7216   9.7311
     9.7437   9.7461   9.7697   9.7770   9.8928   9.9044   9.9154   9.9826
    10.0174  10.0330  10.1494  10.1939  10.2080  10.2272  10.2474  10.2564
    10.2648  10.2680  10.2691  10.2700  10.2851  10.2900  10.3449  10.3514
    10.3688  10.3786  10.3845  10.3928  10.4344  10.4442  10.4484  10.4791
    10.4813  10.5160  10.5242  10.5516  10.5647  10.5665  10.5768  10.5910
    10.6053  10.6576  10.6858  10.6911  10.6983  10.7311  10.7507  10.7570
    10.7999  10.8103  10.8277  10.8534  10.8665  10.8843  10.9127  10.9346
    10.9566  10.9988  11.0194  11.0304  11.0398  11.0942  11.1654  11.1852
    11.2910  11.3463  11.3481  11.3711  11.3779  11.3919  11.3937  11.4080
    11.4188  11.4384  11.4530  11.4895  11.5079  11.5415  11.5419  11.5539
    11.5647  11.5795  11.6050  11.6311  11.6348  11.6656  11.6915  11.7360
    11.7643  11.7650  11.7880  11.8056  11.8312  11.8417  11.8618  11.8653
    11.8665  11.8938  11.8997  11.9048  11.9248  11.9469  11.9640  11.9785
    11.9809  11.9838  11.9981  12.0116  12.0648  12.1051  12.1568  12.1576
    12.1886  12.1992  12.2057  12.2118  12.2244  12.2513  12.2725  12.2794
    12.2876  12.2929  12.3285  12.3538  12.3818  12.4100  12.4184  12.4262
    12.4376  12.4783  12.5055  12.5136  12.5291  12.5542  12.5564  12.5674
    12.5762  12.5821  12.6160  12.6366  12.6499  12.6837  12.7075  12.8001
    12.8626  12.8878  13.0298  13.0370  13.0897  13.1002  13.1069  13.1553
    13.1736  13.2013  13.2099  13.2207  13.2698  13.2830  13.3050  13.3339
    13.4120  13.4210  13.4994  13.6712  13.6802  14.3148  14.4053  14.5581
    14.6075  14.6719  14.8176  14.8286  14.8459  14.8526  14.9307  15.0053
    15.0440  15.1109  15.2382  15.3556  15.4310  15.4677  15.5501  15.5710
    15.6515  15.6901  15.7533  15.7754  15.7972  15.8507  15.8722  15.9888
    16.0159  16.0574  16.0732  16.0901  16.1340  16.1479  16.1562  16.1611
    16.1841  16.2177  16.2284  16.2481  16.2642  16.2687  16.3646  16.3825
    16.3939  16.4463  16.5644  16.6207  16.6854  16.7393  17.0145  17.0593
    17.1496  17.2088  17.2313  17.3312  17.4061  17.5250  17.6185  17.6304
    17.7290  17.7587  17.8054  17.8078  17.8403  17.8592  17.9042  17.9371
    18.0255  18.0425  18.1236  18.2398  19.2735  19.3019  19.3086  19.3436

          k = 0.0000-0.5000-0.5734 ( 31696 PWs)   bands (ev):

   -66.7753 -66.7062 -66.7062 -66.6681 -66.6678 -66.6360 -66.6359 -66.6164
   -66.5872 -62.4099 -62.3937 -62.3937 -62.3893 -62.3623 -62.3622 -62.3503
   -62.3501 -62.3228 -35.5333 -35.5258 -35.4960 -35.4690 -35.4689 -35.4561
   -35.4560 -35.4367 -35.4365 -35.4219 -35.4218 -35.4163 -35.4160 -35.3940
   -35.3939 -35.3886 -35.3885 -35.3858 -35.3855 -35.3674 -35.3645 -35.3623
   -35.3574 -35.3542 -35.3519 -35.3413 -35.2868 -31.2479 -31.2411 -31.2409
   -31.2337 -31.2219 -31.2205 -31.2159 -31.2109 -31.2092 -31.2076 -31.2038
   -31.2037 -31.1981 -31.1980 -31.1964 -31.1962 -31.1900 -31.1899 -31.1725
   -31.1723 -31.1697 -31.1695 -31.1643 -31.1612 -31.1611 -31.1405 -31.1394
     6.5225   6.5842   6.5876   6.6461   7.8277   7.8474   7.8667   7.8746
     7.9157   7.9166   7.9282   7.9523   8.2649   8.2829   8.2975   8.3055
     8.5082   8.5257   8.5327   8.5417   8.6574   8.6626   8.6689   8.6831
     8.6866   8.6875   8.7023   8.7185   8.7386   8.7403   8.7527   8.7545
     8.7572   8.7749   8.7797   8.8193   8.9470   9.0021   9.0054   9.0292
     9.0348   9.0550   9.0572   9.0697   9.1859   9.2007   9.2104   9.2188
     9.2202   9.2257   9.2261   9.2360   9.2453   9.2474   9.2542   9.2627
     9.2718   9.2736   9.2761   9.2878   9.2910   9.3528   9.3787   9.4005
     9.4109   9.4257   9.4569   9.4619   9.4624   9.4663   9.4707   9.4739
     9.4902   9.5069   9.5085   9.5241   9.5329   9.5367   9.5541   9.5595
     9.5846   9.6052   9.7518   9.7600   9.7829   9.7903   9.8067   9.8165
     9.8364   9.8364   9.8508   9.8537   9.8553   9.8644   9.8689   9.8859
     9.9487   9.9741  10.0088  10.0123  10.0273  10.0275  10.0532  10.0602
    10.3550  10.3787  10.3924  10.3966  10.4008  10.4180  10.4279  10.4329
    10.4517  10.4688  10.4708  10.4713  10.4863  10.4976  10.5030  10.5068
    10.5312  10.5407  10.5708  10.5887  10.6011  10.6032  10.6196  10.6289
    10.6408  10.6522  10.6696  10.6710  10.6798  10.6817  10.7111  10.7125
    10.7414  10.8192  10.8962  10.9202  10.9646  10.9918  11.0284  11.0832
    11.1085  11.1250  11.1275  11.1554  11.1830  11.1958  11.1978  11.2101
    11.2127  11.2140  11.2804  11.3205  11.3250  11.3435  11.3676  11.3737
    11.3802  11.3896  11.4217  11.4250  11.4439  11.4843  11.4867  11.5134
    11.5330  11.5563  11.5735  11.5789  11.5822  11.5875  11.6147  11.6227
    11.6386  11.6446  11.7195  11.7302  11.7494  11.7657  11.7947  11.8418
    11.9012  11.9144  11.9284  11.9473  11.9670  11.9705  12.0038  12.0062
    12.0164  12.0300  12.0309  12.0380  12.0398  12.0600  12.1144  12.1299
    12.1660  12.1708  12.2069  12.2340  12.2827  12.3115  12.3130  12.3231
    12.3378  12.3398  12.4281  12.4362  12.4545  12.4600  12.4708  12.4981
    12.5103  12.5205  12.5406  12.5408  12.5463  12.5726  12.5846  12.5930
    12.6052  12.6246  12.6356  12.6587  12.6748  12.7080  12.7340  12.7638
    12.7927  12.8256  12.9319  12.9351  12.9856  12.9984  13.0357  13.0670
    13.1672  13.2050  13.3765  13.4668  13.5155  13.6448  13.7075  13.7103
    13.8245  14.0199  14.0364  14.1186  14.2408  14.2451  14.2760  14.3612
    14.5263  14.5459  14.5636  14.6232  14.6566  14.7722  14.8239  14.9060
    15.0493  15.2184  15.2814  15.3342  15.3689  15.4216  15.5333  15.5347
    15.6401  15.6414  15.6844  15.7045  15.8021  15.8619  15.9114  15.9717
    16.0219  16.0344  16.0825  16.1400  16.1595  16.1827  16.2150  16.2263
    16.2464  16.2592  16.2864  16.3497  16.3639  16.3759  16.3944  16.4565
    16.4733  16.5301  16.5439  16.5723  16.5875  16.6186  16.6750  16.6959
    16.7504  16.7705  16.8483  16.8778  16.9293  16.9506  16.9529  16.9898
    17.0811  17.1342  17.1718  17.3262  18.6011  18.6912  18.7146  18.7474
    18.7501  18.8057  18.8248  18.8685  18.8814  18.8832  18.9418  18.9483

          k =-0.5000-0.5000 0.0000 ( 31612 PWs)   bands (ev):

   -66.7753 -66.7062 -66.7062 -66.6681 -66.6678 -66.6360 -66.6359 -66.6164
   -66.5872 -62.4099 -62.3937 -62.3937 -62.3893 -62.3623 -62.3622 -62.3503
   -62.3501 -62.3228 -35.5333 -35.5258 -35.4960 -35.4690 -35.4689 -35.4561
   -35.4560 -35.4367 -35.4365 -35.4219 -35.4218 -35.4163 -35.4160 -35.3940
   -35.3939 -35.3886 -35.3885 -35.3858 -35.3855 -35.3674 -35.3645 -35.3622
   -35.3573 -35.3543 -35.3520 -35.3413 -35.2868 -31.2479 -31.2411 -31.2409
   -31.2337 -31.2220 -31.2205 -31.2164 -31.2104 -31.2086 -31.2076 -31.2038
   -31.2037 -31.1981 -31.1980 -31.1965 -31.1964 -31.1901 -31.1900 -31.1725
   -31.1723 -31.1697 -31.1695 -31.1643 -31.1612 -31.1611 -31.1405 -31.1394
     6.4061   6.4286   6.4394   6.4938   8.0098   8.0157   8.0189   8.0248
     8.0915   8.1222   8.2867   8.3129   8.3283   8.3291   8.3306   8.3384
     8.3466   8.3563   8.3617   8.3682   8.3724   8.4219   8.5679   8.6035
     8.6485   8.6670   8.6729   8.6954   8.7125   8.7290   8.7319   8.7388
     8.7545   8.8151   8.9181   8.9199   8.9647   8.9685   8.9758   8.9762
     8.9831   8.9920   8.9987   9.0015   9.0068   9.0451   9.0472   9.0481
     9.1090   9.1363   9.3092   9.3118   9.3162   9.3213   9.4010   9.4062
     9.4144   9.4159   9.4246   9.4261   9.4270   9.4309   9.4439   9.4557
     9.4679   9.4771   9.4804   9.4815   9.4835   9.4897   9.4907   9.4921
     9.5145   9.5269   9.5363   9.5402   9.5536   9.5719   9.5766   9.5935
     9.5994   9.6124   9.6975   9.6992   9.7610   9.8079   9.8125   9.8246
     9.8304   9.8345   9.8438   9.8468   9.8509   9.8900  10.0298  10.0494
    10.0723  10.1071  10.1133  10.1160  10.1330  10.1491  10.1547  10.1631
    10.1759  10.1983  10.2034  10.2118  10.2225  10.2247  10.2303  10.2339
    10.2361  10.2482  10.2518  10.2605  10.4417  10.4715  10.4726  10.4889
    10.4958  10.5081  10.5150  10.5562  10.5966  10.6259  10.6317  10.6440
    10.6496  10.6641  10.6749  10.6797  10.6944  10.7069  10.7073  10.7157
    10.7185  10.7565  10.7792  10.8185  10.8332  10.8575  10.8715  10.8730
    10.9255  10.9389  11.1982  11.2058  11.2101  11.2306  11.3040  11.3079
    11.3313  11.3521  11.3545  11.3569  11.3962  11.3980  11.5147  11.5573
    11.6221  11.6337  11.6367  11.6441  11.6466  11.6505  11.6527  11.6555
    11.6716  11.6720  11.6833  11.7187  11.7382  11.7450  11.7655  11.8584
    11.8684  11.8743  11.8782  11.8785  11.8814  11.8917  11.9709  11.9879
    12.0039  12.0376  12.0656  12.0697  12.0791  12.0871  12.1030  12.1066
    12.1071  12.1135  12.1155  12.1199  12.1369  12.1515  12.1536  12.1600
    12.1774  12.1815  12.1898  12.2125  12.2168  12.2341  12.2436  12.2607
    12.2759  12.2806  12.2843  12.2984  12.3014  12.3019  12.3064  12.4193
    12.4278  12.4452  12.4516  12.4717  12.4749  12.5005  12.5086  12.5239
    12.5287  12.5608  12.5649  12.6065  12.6161  12.6298  12.6415  12.6805
    12.6899  12.7472  12.8043  12.8515  12.8786  12.8952  12.9505  12.9588
    12.9652  12.9947  13.0075  13.0172  13.0476  13.4921  13.6444  13.6514
    13.6750  13.6774  13.8089  13.8149  13.8448  13.8669  14.1498  14.1998
    14.2247  14.2394  14.4668  14.5065  14.6329  14.7024  14.8115  14.8165
    15.0635  15.1155  15.1873  15.3327  15.3351  15.4383  15.6109  15.7015
    15.7301  15.8090  15.8155  15.8618  15.8880  15.8978  15.9054  15.9414
    15.9625  16.0079  16.0344  16.0543  16.0695  16.0716  16.1432  16.1487
    16.1815  16.1999  16.2544  16.2584  16.3432  16.3629  16.3812  16.4092
    16.4536  16.4593  16.4763  16.6021  16.6827  16.6928  16.7540  16.7762
    16.8827  16.8864  16.8941  16.9879  17.3857  17.3914  17.6412  18.0376
    18.1426  18.2046  18.2142  18.2218  18.2542  18.4262  18.4382  18.5573
    18.6015  18.6151  18.6649  18.6652  18.7189  18.8034  18.8103  18.8107

          k =-0.5000-0.5000-0.5734 ( 31672 PWs)   bands (ev):

   -66.7753 -66.7062 -66.7062 -66.6681 -66.6678 -66.6360 -66.6359 -66.6164
   -66.5872 -62.4099 -62.3937 -62.3937 -62.3893 -62.3623 -62.3622 -62.3503
   -62.3501 -62.3228 -35.5333 -35.5258 -35.4960 -35.4690 -35.4689 -35.4561
   -35.4560 -35.4367 -35.4365 -35.4219 -35.4218 -35.4163 -35.4160 -35.3940
   -35.3939 -35.3886 -35.3885 -35.3858 -35.3855 -35.3674 -35.3645 -35.3622
   -35.3573 -35.3543 -35.3520 -35.3413 -35.2868 -31.2479 -31.2411 -31.2409
   -31.2337 -31.2220 -31.2205 -31.2164 -31.2103 -31.2086 -31.2076 -31.2038
   -31.2037 -31.1981 -31.1980 -31.1965 -31.1964 -31.1901 -31.1900 -31.1725
   -31.1723 -31.1697 -31.1695 -31.1643 -31.1612 -31.1611 -31.1405 -31.1394
     6.8802   6.9254   6.9261   6.9373   6.9963   7.0206   7.0237   7.0546
     8.4441   8.4693   8.4723   8.4787   8.4832   8.4895   8.4913   8.4961
     8.5028   8.5069   8.5136   8.5185   8.5389   8.5411   8.5488   8.5687
     8.5703   8.5813   8.5839   8.6210   8.8791   8.8887   8.8913   8.8998
     8.9016   8.9142   8.9294   8.9457   9.0830   9.1093   9.1148   9.1156
     9.1252   9.1319   9.1485   9.1526   9.1543   9.1567   9.1572   9.1611
     9.1620   9.1650   9.1702   9.1719   9.1729   9.1748   9.1761   9.1814
     9.1830   9.1831   9.1973   9.1997   9.2029   9.2043   9.2179   9.2199
     9.2257   9.2321   9.2443   9.2512   9.2569   9.2592   9.2725   9.2925
     9.5354   9.5513   9.5584   9.5728   9.5818   9.5959   9.6233   9.6333
     9.6390   9.6641   9.6778   9.6857   9.7324   9.7353   9.7517   9.7926
     9.8170   9.8308   9.8420   9.8431   9.8814   9.8825   9.8891   9.8988
    10.1103  10.1123  10.1494  10.1521  10.1588  10.1773  10.1960  10.2011
    10.2801  10.3208  10.4367  10.4559  10.4575  10.4683  10.4807  10.4819
    10.4831  10.4864  10.4939  10.5048  10.5058  10.5127  10.5148  10.5221
    10.5233  10.5320  10.5405  10.5566  10.5597  10.5658  10.5852  10.5911
    10.6050  10.6344  10.6417  10.6420  10.6454  10.6652  10.6706  10.6739
    10.6856  10.6874  10.6975  10.6988  10.7205  10.7227  11.0429  11.0612
    11.0698  11.0827  11.0873  11.1071  11.1221  11.1234  11.3805  11.3871
    11.3910  11.3990  11.4007  11.4289  11.4400  11.4492  11.4630  11.4803
    11.4824  11.4915  11.5067  11.5079  11.5158  11.5465  11.5979  11.6262
    11.6372  11.6495  11.6560  11.6727  11.6832  11.6907  11.7086  11.7180
    11.7238  11.7318  11.7372  11.7567  11.7613  11.7688  11.7751  11.7795
    11.8149  11.8165  11.8181  11.8303  11.8347  11.9564  11.9762  12.0147
    12.0147  12.0355  12.0550  12.0972  12.1070  12.1386  12.1405  12.1411
    12.1420  12.1920  12.2135  12.2467  12.2622  12.2743  12.3215  12.3435
    12.3528  12.3623  12.4019  12.4145  12.4214  12.4379  12.4633  12.4670
    12.4830  12.5073  12.5113  12.5304  12.5525  12.5758  12.5939  12.6077
    12.6283  12.6315  12.6866  12.6961  12.7422  12.7643  12.7846  12.8119
    12.9296  12.9369  12.9737  13.1070  13.1143  13.1159  13.1874  13.2044
    13.2411  13.2590  13.3318  13.3396  13.3465  13.3829  13.4176  13.4548
    13.5548  13.5713  13.6955  13.8331  13.8812  14.0808  14.0905  14.0941
    14.2392  14.2702  14.4975  14.5155  14.7524  14.8333  14.8479  14.9236
    15.0031  15.0829  15.2354  15.4618  15.4876  15.6341  15.6705  15.7028
    15.7158  15.7501  15.7792  15.7805  15.8813  15.8898  15.9331  15.9362
    15.9407  16.0143  16.1153  16.1341  16.1540  16.1685  16.1746  16.1796
    16.2044  16.2826  16.2876  16.2927  16.3399  16.4272  16.4372  16.4710
    16.4852  16.5455  16.5488  16.6019  16.6257  16.6574  16.6580  16.6988
    16.7510  16.8082  16.8278  16.8836  16.9032  16.9228  16.9508  17.0483
    17.1102  17.1196  17.5727  17.7457  17.9065  17.9604  19.0144  19.0331
    19.0655  19.0675  19.0857  19.1781  19.1897  19.2276  19.2312  19.2464

          k =-0.5000 0.0000 0.0000 ( 31722 PWs)   bands (ev):

   -66.7753 -66.7062 -66.7062 -66.6681 -66.6678 -66.6360 -66.6359 -66.6164
   -66.5872 -62.4099 -62.3937 -62.3937 -62.3893 -62.3623 -62.3622 -62.3503
   -62.3501 -62.3228 -35.5333 -35.5258 -35.4960 -35.4690 -35.4689 -35.4561
   -35.4560 -35.4367 -35.4365 -35.4219 -35.4218 -35.4163 -35.4160 -35.3940
   -35.3939 -35.3886 -35.3885 -35.3858 -35.3855 -35.3674 -35.3645 -35.3623
   -35.3574 -35.3542 -35.3519 -35.3413 -35.2868 -31.2479 -31.2411 -31.2409
   -31.2337 -31.2219 -31.2205 -31.2159 -31.2109 -31.2092 -31.2076 -31.2038
   -31.2037 -31.1981 -31.1980 -31.1965 -31.1962 -31.1901 -31.1898 -31.1725
   -31.1723 -31.1697 -31.1695 -31.1643 -31.1612 -31.1611 -31.1405 -31.1394
     6.0289   6.0590   7.4211   7.4316   7.4550   7.4892   7.6732   7.6795
     8.1018   8.1160   8.1428   8.1765   8.1953   8.2302   8.2481   8.2752
     8.4024   8.4212   8.4501   8.4876   8.6130   8.6312   8.6443   8.6529
     8.6687   8.6793   8.6861   8.7060   8.7550   8.8089   8.8257   8.8406
     8.8530   8.8745   8.8757   8.8787   8.9029   8.9086   8.9128   8.9170
     8.9281   8.9350   8.9357   8.9550   9.0479   9.0518   9.1577   9.1768
     9.1800   9.1996   9.2178   9.2256   9.2359   9.2468   9.3126   9.3389
     9.3491   9.3652   9.4008   9.4053   9.4734   9.4835   9.4889   9.5025
     9.5278   9.5374   9.5570   9.5742   9.5742   9.5985   9.6156   9.6188
     9.6223   9.6283   9.6287   9.6348   9.6357   9.6388   9.6424   9.6521
     9.6532   9.6617   9.6714   9.6787   9.7031   9.7207   9.7216   9.7312
     9.7437   9.7462   9.7697   9.7771   9.8928   9.9044   9.9154   9.9826
    10.0174  10.0330  10.1494  10.1939  10.2080  10.2271  10.2474  10.2564
    10.2648  10.2681  10.2691  10.2700  10.2852  10.2900  10.3450  10.3514
    10.3688  10.3786  10.3845  10.3928  10.4344  10.4442  10.4484  10.4791
    10.4813  10.5161  10.5242  10.5516  10.5647  10.5665  10.5767  10.5910
    10.6052  10.6576  10.6858  10.6911  10.6984  10.7312  10.7507  10.7571
    10.7999  10.8103  10.8277  10.8534  10.8665  10.8843  10.9127  10.9345
    10.9567  10.9988  11.0195  11.0304  11.0397  11.0941  11.1654  11.1852
    11.2911  11.3463  11.3481  11.3710  11.3780  11.3919  11.3937  11.4079
    11.4189  11.4383  11.4530  11.4895  11.5078  11.5415  11.5420  11.5539
    11.5647  11.5794  11.6050  11.6311  11.6348  11.6656  11.6914  11.7360
    11.7644  11.7650  11.7880  11.8056  11.8312  11.8417  11.8618  11.8653
    11.8664  11.8938  11.8997  11.9048  11.9248  11.9469  11.9641  11.9785
    11.9809  11.9837  11.9981  12.0115  12.0648  12.1051  12.1567  12.1576
    12.1886  12.1992  12.2057  12.2118  12.2245  12.2513  12.2725  12.2794
    12.2876  12.2929  12.3285  12.3539  12.3818  12.4100  12.4184  12.4262
    12.4376  12.4783  12.5056  12.5136  12.5290  12.5541  12.5564  12.5674
    12.5762  12.5820  12.6160  12.6366  12.6500  12.6837  12.7075  12.8001
    12.8626  12.8878  13.0299  13.0370  13.0896  13.1001  13.1069  13.1553
    13.1736  13.2013  13.2099  13.2208  13.2698  13.2830  13.3050  13.3339
    13.4121  13.4210  13.4994  13.6712  13.6801  14.3148  14.4053  14.5581
    14.6074  14.6719  14.8176  14.8285  14.8459  14.8527  14.9306  15.0052
    15.0440  15.1109  15.2382  15.3556  15.4310  15.4677  15.5501  15.5710
    15.6515  15.6901  15.7534  15.7755  15.7972  15.8507  15.8721  15.9888
    16.0159  16.0574  16.0732  16.0901  16.1339  16.1479  16.1562  16.1611
    16.1841  16.2177  16.2284  16.2481  16.2642  16.2687  16.3646  16.3825
    16.3939  16.4463  16.5644  16.6207  16.6854  16.7394  17.0145  17.0593
    17.1496  17.2089  17.2313  17.3312  17.4060  17.5250  17.6185  17.6304
    17.7290  17.7587  17.8054  17.8078  17.8403  17.8592  17.9042  17.9371
    18.0255  18.0425  18.1237  18.2398  19.2735  19.3019  19.3085  19.3436

          k =-0.5000 0.0000 0.5734 ( 31696 PWs)   bands (ev):

   -66.7753 -66.7062 -66.7062 -66.6681 -66.6678 -66.6360 -66.6359 -66.6164
   -66.5872 -62.4099 -62.3937 -62.3937 -62.3893 -62.3623 -62.3622 -62.3503
   -62.3501 -62.3228 -35.5333 -35.5258 -35.4960 -35.4690 -35.4689 -35.4561
   -35.4560 -35.4367 -35.4365 -35.4219 -35.4218 -35.4163 -35.4160 -35.3940
   -35.3939 -35.3886 -35.3885 -35.3858 -35.3855 -35.3674 -35.3645 -35.3623
   -35.3574 -35.3542 -35.3519 -35.3413 -35.2868 -31.2479 -31.2411 -31.2409
   -31.2337 -31.2219 -31.2205 -31.2159 -31.2109 -31.2092 -31.2076 -31.2038
   -31.2037 -31.1981 -31.1980 -31.1965 -31.1962 -31.1901 -31.1898 -31.1725
   -31.1723 -31.1697 -31.1695 -31.1643 -31.1612 -31.1611 -31.1405 -31.1394
     6.5225   6.5842   6.5876   6.6462   7.8275   7.8475   7.8666   7.8745
     7.9157   7.9168   7.9284   7.9523   8.2649   8.2829   8.2975   8.3055
     8.5083   8.5256   8.5326   8.5417   8.6574   8.6626   8.6688   8.6831
     8.6865   8.6875   8.7024   8.7185   8.7385   8.7404   8.7527   8.7546
     8.7571   8.7749   8.7796   8.8193   8.9469   9.0021   9.0054   9.0291
     9.0349   9.0549   9.0572   9.0698   9.1860   9.2007   9.2104   9.2187
     9.2202   9.2257   9.2260   9.2359   9.2453   9.2475   9.2541   9.2628
     9.2718   9.2737   9.2760   9.2878   9.2909   9.3528   9.3788   9.4005
     9.4110   9.4257   9.4569   9.4619   9.4624   9.4663   9.4707   9.4739
     9.4902   9.5069   9.5085   9.5240   9.5329   9.5367   9.5541   9.5596
     9.5846   9.6052   9.7518   9.7600   9.7829   9.7903   9.8068   9.8164
     9.8364   9.8365   9.8508   9.8536   9.8554   9.8643   9.8689   9.8859
     9.9486   9.9741  10.0089  10.0124  10.0273  10.0275  10.0532  10.0601
    10.3550  10.3787  10.3924  10.3966  10.4009  10.4180  10.4279  10.4329
    10.4517  10.4688  10.4708  10.4713  10.4864  10.4976  10.5029  10.5068
    10.5312  10.5407  10.5708  10.5887  10.6011  10.6032  10.6196  10.6289
    10.6408  10.6523  10.6696  10.6711  10.6798  10.6818  10.7110  10.7124
    10.7414  10.8192  10.8962  10.9202  10.9645  10.9917  11.0285  11.0833
    11.1085  11.1250  11.1275  11.1555  11.1829  11.1959  11.1978  11.2101
    11.2128  11.2140  11.2805  11.3205  11.3250  11.3435  11.3676  11.3737
    11.3802  11.3896  11.4217  11.4249  11.4439  11.4843  11.4867  11.5133
    11.5329  11.5563  11.5735  11.5789  11.5821  11.5875  11.6147  11.6227
    11.6386  11.6446  11.7195  11.7302  11.7493  11.7658  11.7947  11.8418
    11.9012  11.9144  11.9284  11.9473  11.9670  11.9705  12.0038  12.0062
    12.0165  12.0300  12.0309  12.0380  12.0398  12.0600  12.1144  12.1299
    12.1660  12.1708  12.2069  12.2340  12.2827  12.3115  12.3130  12.3231
    12.3378  12.3398  12.4281  12.4362  12.4545  12.4600  12.4708  12.4980
    12.5104  12.5205  12.5406  12.5408  12.5463  12.5726  12.5846  12.5930
    12.6052  12.6246  12.6356  12.6587  12.6747  12.7080  12.7340  12.7638
    12.7927  12.8256  12.9319  12.9350  12.9857  12.9983  13.0357  13.0669
    13.1672  13.2050  13.3765  13.4668  13.5155  13.6448  13.7075  13.7103
    13.8245  14.0199  14.0365  14.1187  14.2408  14.2451  14.2760  14.3612
    14.5263  14.5459  14.5636  14.6232  14.6566  14.7723  14.8240  14.9059
    15.0492  15.2184  15.2815  15.3343  15.3689  15.4216  15.5333  15.5347
    15.6402  15.6413  15.6845  15.7045  15.8021  15.8619  15.9114  15.9717
    16.0218  16.0344  16.0825  16.1399  16.1595  16.1827  16.2150  16.2263
    16.2464  16.2592  16.2864  16.3497  16.3638  16.3759  16.3944  16.4564
    16.4734  16.5300  16.5439  16.5723  16.5875  16.6187  16.6750  16.6959
    16.7504  16.7705  16.8483  16.8778  16.9293  16.9506  16.9529  16.9898
    17.0811  17.1342  17.1718  17.3262  18.6012  18.6912  18.7148  18.7473
    18.7503  18.8057  18.8248  18.8683  18.8814  18.8832  18.9417  18.9483

     the Fermi energy is    14.8294 ev

!    total energy              =  -33062.58582705 Ry
     Harris-Foulkes estimate   =  -33062.58581122 Ry
     estimated scf accuracy    <       0.00000052 Ry

     total all-electron energy =  -1410574.676201 Ry

     The total energy is the sum of the following terms:

     one-electron contribution =   -1645.64244339 Ry
     hartree contribution      =    1489.86559898 Ry
     xc contribution           =   -1658.73618578 Ry
     ewald contribution        =   -4919.25534656 Ry
     one-center paw contrib.   =  -26328.81745031 Ry

     total magnetization       =     0.31 Bohr mag/cell
     absolute magnetization    =    78.66 Bohr mag/cell

     convergence has been achieved in  22 iterations

     Writing output data file mnau2.save
 
     init_run     :     51.64s CPU     52.45s WALL (       1 calls)
     electrons    :   3205.04s CPU   3260.17s WALL (       1 calls)

     Called by init_run:
     wfcinit      :     45.72s CPU     46.29s WALL (       1 calls)
     potinit      :      2.47s CPU      2.53s WALL (       1 calls)

     Called by electrons:
     c_bands      :   2847.68s CPU   2892.71s WALL (      22 calls)
     sum_band     :    299.32s CPU    305.76s WALL (      22 calls)
     v_of_rho     :      5.88s CPU      6.06s WALL (      23 calls)
     newd         :     18.78s CPU     21.26s WALL (      23 calls)
     PAW_pot      :     34.10s CPU     34.58s WALL (      23 calls)
     mix_rho      :      1.16s CPU      1.25s WALL (      22 calls)

     Called by c_bands:
     init_us_2    :     10.88s CPU     10.93s WALL (     720 calls)
     cegterg      :   2779.20s CPU   2823.31s WALL (     352 calls)

     Called by sum_band:
     sum_band:bec :      1.69s CPU      1.69s WALL (     352 calls)
     addusdens    :     33.27s CPU     36.34s WALL (      22 calls)

     Called by *egterg:
     h_psi        :    995.07s CPU   1005.62s WALL (    1378 calls)
     s_psi        :    239.76s CPU    239.97s WALL (    1378 calls)
     g_psi        :      3.66s CPU      3.68s WALL (    1010 calls)
     cdiaghg      :    988.02s CPU    988.76s WALL (    1362 calls)

     Called by h_psi:
     h_psi:pot    :    985.05s CPU    995.54s WALL (    1378 calls)
     h_psi:calbec :    241.75s CPU    243.85s WALL (    1378 calls)
     vloc_psi     :    499.91s CPU    508.02s WALL (    1378 calls)
     add_vuspsi   :    243.37s CPU    243.65s WALL (    1378 calls)

     General routines
     calbec       :    346.41s CPU    349.52s WALL (    1730 calls)
     fft          :      5.23s CPU      5.61s WALL (     703 calls)
     ffts         :      0.12s CPU      0.13s WALL (      90 calls)
     fftw         :    472.67s CPU    480.11s WALL (  776216 calls)
     interpolate  :      0.85s CPU      0.90s WALL (      90 calls)
 
     Parallel routines
     fft_scatt_xy :     59.50s CPU     60.25s WALL (  777009 calls)
     fft_scatt_yz :    121.17s CPU    124.70s WALL (  777009 calls)
 
     PWSCF        : 54m22.33s CPU    55m41.73s WALL

 
   This run was terminated on:  23:32:19   7Mar2019            

=------------------------------------------------------------------------------=
   JOB DONE.
=------------------------------------------------------------------------------=
