
     Program PWSCF v.6.2 (svn rev. 14038) starts on  8Mar2019 at  4: 8:23 

     This program is part of the open-source Quantum ESPRESSO suite
     for quantum simulation of materials; please cite
         "P. Giannozzi et al., J. Phys.:Condens. Matter 21 395502 (2009);
         "P. Giannozzi et al., J. Phys.:Condens. Matter 29 465901 (2017);
          URL http://www.quantum-espresso.org", 
     in publications or presentations arising from this work. More details at
     http://www.quantum-espresso.org/quote

     Parallel version (MPI), running on    16 processors

     MPI processes distributed on     1 nodes
     R & G space division:  proc/nbgrp/npool/nimage =      16
     Waiting for input...
     Reading input from standard input

     Current dimensions of program PWSCF are:
     Max number of different atomic species (ntypx) = 10
     Max number of k-points (npk) =  40000
     Max angular momentum in pseudopotentials (lmaxx) =  3
               file Mn.pbe-spn-kjpaw_psl.0.3.1.UPF: wavefunction(s)  3P 3D renormalized
               file Mn.pbe-spn-kjpaw_psl.0.3.1.UPF: wavefunction(s)  3P 3D renormalized
               file Au.pbe-dn-kjpaw_psl.0.1.UPF: wavefunction(s)  6S 6P 5D renormalized

     Subspace diagonalization in iterative solution of the eigenvalue problem:
     a serial algorithm will be used

 
     Parallelization info
     --------------------
     sticks:   dense  smooth     PW     G-vecs:    dense   smooth      PW
     Min         736     331     90                52486    15847    2256
     Max         737     332     91                52489    15850    2259
     Sum       11785    5297   1449               839803   253559   36125
 


     bravais-lattice index     =            0
     lattice parameter (alat)  =      19.2459  a.u.
     unit-cell volume          =    6216.1497 (a.u.)^3
     number of atoms/cell      =           54
     number of atomic types    =            3
     number of electrons       =       666.00
     number of Kohn-Sham states=          400
     kinetic-energy cutoff     =      45.0000  Ry
     charge density cutoff     =     400.0000  Ry
     convergence threshold     =      1.0E-06
     mixing beta               =       0.1000
     number of iterations used =            8  plain     mixing
     Exchange-correlation      = SLA PW PBX PBC ( 1  4  3  4 0 0)

     celldm(1)=  19.245946  celldm(2)=   0.000000  celldm(3)=   0.000000
     celldm(4)=   0.000000  celldm(5)=   0.000000  celldm(6)=   0.000000

     crystal axes: (cart. coord. in units of alat)
               a(1) = (   1.000000   0.000000   0.000000 )  
               a(2) = (   0.000000   1.000000   0.000000 )  
               a(3) = (   0.000000   0.000000   0.871974 )  

     reciprocal axes: (cart. coord. in units 2 pi/alat)
               b(1) = (  1.000000  0.000000  0.000000 )  
               b(2) = (  0.000000  1.000000  0.000000 )  
               b(3) = (  0.000000  0.000000  1.146823 )  


     PseudoPot. # 1 for Mn read from file:
     ./pseudo/Mn.pbe-spn-kjpaw_psl.0.3.1.UPF
     MD5 check sum: 7eef95dd2aae66803482eea66ebeebf1
     Pseudo is Projector augmented-wave + core cor, Zval = 15.0
     Generated using "atomic" code by A. Dal Corso v.5.0.99 svn rev. 10869
     Shape of augmentation charge: PSQ
     Using radial grid of 1187 points,  6 beta functions with: 
                l(1) =   0
                l(2) =   0
                l(3) =   1
                l(4) =   1
                l(5) =   2
                l(6) =   2
     Q(r) pseudized with 0 coefficients 


     PseudoPot. # 2 for Mn read from file:
     ./pseudo/Mn.pbe-spn-kjpaw_psl.0.3.1.UPF
     MD5 check sum: 7eef95dd2aae66803482eea66ebeebf1
     Pseudo is Projector augmented-wave + core cor, Zval = 15.0
     Generated using "atomic" code by A. Dal Corso v.5.0.99 svn rev. 10869
     Shape of augmentation charge: PSQ
     Using radial grid of 1187 points,  6 beta functions with: 
                l(1) =   0
                l(2) =   0
                l(3) =   1
                l(4) =   1
                l(5) =   2
                l(6) =   2
     Q(r) pseudized with 0 coefficients 


     PseudoPot. # 3 for Au read from file:
     ./pseudo/Au.pbe-dn-kjpaw_psl.0.1.UPF
     MD5 check sum: 5c9b92683623e7ae2ab3f8e525febab6
     Pseudo is Projector augmented-wave + core cor, Zval = 11.0
     Generated using "atomic" code by A. Dal Corso v.5.0.2 svn rev. 9415
     Shape of augmentation charge: PSQ
     Using radial grid of 1279 points,  6 beta functions with: 
                l(1) =   0
                l(2) =   0
                l(3) =   1
                l(4) =   1
                l(5) =   2
                l(6) =   2
     Q(r) pseudized with 0 coefficients 


     atomic species   valence    mass     pseudopotential
        Mn1           15.00    54.93800     Mn( 1.00)
        Mn2           15.00    54.93800     Mn( 1.00)
        Au            11.00   196.96600     Au( 1.00)

     Starting magnetic structure 
     atomic species   magnetization
        Mn1          0.800
        Mn2         -0.800
        Au           0.000

      2 Sym. Ops. (no inversion) found



   Cartesian axes

     site n.     atom                  positions (alat units)
         1           Mn1 tau(   1) = (   0.0000000   0.0000000   0.0000000  )
         2           Mn2 tau(   2) = (   0.0000000   0.3333300   0.0000000  )
         3           Mn1 tau(   3) = (   0.0000000   0.6666700   0.0000000  )
         4           Mn1 tau(   4) = (   0.3333300   0.0000000   0.0000000  )
         5           Mn1 tau(   5) = (   0.3333300   0.3333300   0.0000000  )
         6           Mn1 tau(   6) = (   0.3333300   0.6666700   0.0000000  )
         7           Mn2 tau(   7) = (   0.6666700   0.0000000   0.0000000  )
         8           Mn2 tau(   8) = (   0.6666700   0.3333300   0.0000000  )
         9           Mn1 tau(   9) = (   0.6666700   0.6666700   0.0000000  )
        10           Mn2 tau(  10) = (   0.1666700   0.1666700   0.4359871  )
        11           Mn1 tau(  11) = (   0.1666700   0.5000000   0.4359871  )
        12           Mn2 tau(  12) = (   0.1666700   0.8333300   0.4359871  )
        13           Mn2 tau(  13) = (   0.5000000   0.1666700   0.4359871  )
        14           Mn2 tau(  14) = (   0.5000000   0.5000000   0.4359871  )
        15           Mn2 tau(  15) = (   0.5000000   0.8333300   0.4359871  )
        16           Mn1 tau(  16) = (   0.8333300   0.1666700   0.4359871  )
        17           Mn1 tau(  17) = (   0.8333300   0.5000000   0.4359871  )
        18           Mn2 tau(  18) = (   0.8333300   0.8333300   0.4359871  )
        19           Au  tau(  19) = (   0.1666700   0.1666700   0.7327374  )
        20           Au  tau(  20) = (   0.1666700   0.5000000   0.7327374  )
        21           Au  tau(  21) = (   0.1666700   0.8333300   0.7327374  )
        22           Au  tau(  22) = (   0.5000000   0.1666700   0.7327374  )
        23           Au  tau(  23) = (   0.5000000   0.5000000   0.7327374  )
        24           Au  tau(  24) = (   0.5000000   0.8333300   0.7327374  )
        25           Au  tau(  25) = (   0.8333300   0.1666700   0.7327374  )
        26           Au  tau(  26) = (   0.8333300   0.5000000   0.7327374  )
        27           Au  tau(  27) = (   0.8333300   0.8333300   0.7327374  )
        28           Au  tau(  28) = (   0.1666700   0.1666700   0.1392369  )
        29           Au  tau(  29) = (   0.1666700   0.5000000   0.1392369  )
        30           Au  tau(  30) = (   0.1666700   0.8333300   0.1392369  )
        31           Au  tau(  31) = (   0.5000000   0.1666700   0.1392369  )
        32           Au  tau(  32) = (   0.5000000   0.5000000   0.1392369  )
        33           Au  tau(  33) = (   0.5000000   0.8333300   0.1392369  )
        34           Au  tau(  34) = (   0.8333300   0.1666700   0.1392369  )
        35           Au  tau(  35) = (   0.8333300   0.5000000   0.1392369  )
        36           Au  tau(  36) = (   0.8333300   0.8333300   0.1392369  )
        37           Au  tau(  37) = (   0.0000000   0.0000000   0.2967503  )
        38           Au  tau(  38) = (   0.0000000   0.3333300   0.2967503  )
        39           Au  tau(  39) = (   0.0000000   0.6666700   0.2967503  )
        40           Au  tau(  40) = (   0.3333300   0.0000000   0.2967503  )
        41           Au  tau(  41) = (   0.3333300   0.3333300   0.2967503  )
        42           Au  tau(  42) = (   0.3333300   0.6666700   0.2967503  )
        43           Au  tau(  43) = (   0.6666700   0.0000000   0.2967503  )
        44           Au  tau(  44) = (   0.6666700   0.3333300   0.2967503  )
        45           Au  tau(  45) = (   0.6666700   0.6666700   0.2967503  )
        46           Au  tau(  46) = (   0.0000000   0.0000000   0.5752240  )
        47           Au  tau(  47) = (   0.0000000   0.3333300   0.5752240  )
        48           Au  tau(  48) = (   0.0000000   0.6666700   0.5752240  )
        49           Au  tau(  49) = (   0.3333300   0.0000000   0.5752240  )
        50           Au  tau(  50) = (   0.3333300   0.3333300   0.5752240  )
        51           Au  tau(  51) = (   0.3333300   0.6666700   0.5752240  )
        52           Au  tau(  52) = (   0.6666700   0.0000000   0.5752240  )
        53           Au  tau(  53) = (   0.6666700   0.3333300   0.5752240  )
        54           Au  tau(  54) = (   0.6666700   0.6666700   0.5752240  )

     number of k points=     8 (tetrahedron method)
                       cart. coord. in units 2pi/alat
        k(    1) = (   0.0000000   0.0000000   0.0000000), wk =   0.1250000
        k(    2) = (   0.0000000   0.0000000  -0.5734114), wk =   0.1250000
        k(    3) = (   0.0000000  -0.5000000   0.0000000), wk =   0.1250000
        k(    4) = (   0.0000000  -0.5000000  -0.5734114), wk =   0.1250000
        k(    5) = (  -0.5000000  -0.5000000   0.0000000), wk =   0.1250000
        k(    6) = (  -0.5000000  -0.5000000  -0.5734114), wk =   0.1250000
        k(    7) = (  -0.5000000   0.0000000   0.0000000), wk =   0.1250000
        k(    8) = (  -0.5000000   0.0000000   0.5734114), wk =   0.1250000

     Dense  grid:   839803 G-vectors     FFT dimensions: ( 125, 125, 108)

     Smooth grid:   253559 G-vectors     FFT dimensions: (  90,  90,  72)

     Estimated max dynamical RAM per process >     570.13 MB

     Estimated total dynamical RAM >       8.91 GB
     Generating pointlists ...
     new r_m :   0.1129 (alat units)  2.1733 (a.u.) for type    1
     new r_m :   0.1129 (alat units)  2.1733 (a.u.) for type    2
     new r_m :   0.1129 (alat units)  2.1733 (a.u.) for type    3

     Check: negative/imaginary core charge=   -0.000006    0.000000

     Initial potential from superposition of free atoms

     starting charge  665.98709, renormalised to  666.00000
     Starting wfc are  504 randomized atomic wfcs
     Checking if some PAW data can be deallocated... 

     total cpu time spent up to now is       56.4 secs

     Self-consistent Calculation

     iteration #  1     ecut=    45.00 Ry     beta= 0.10
     Davidson diagonalization with overlap
     ethr =  1.00E-02,  avg # of iterations =  3.2

     total cpu time spent up to now is      217.0 secs

     total energy              =  -33047.19658433 Ry
     Harris-Foulkes estimate   =  -33044.04765994 Ry
     estimated scf accuracy    <      27.03882223 Ry

     total magnetization       =     0.00 Bohr mag/cell
     absolute magnetization    =    92.09 Bohr mag/cell

     iteration #  2     ecut=    45.00 Ry     beta= 0.10
     Davidson diagonalization with overlap
     ethr =  4.06E-03,  avg # of iterations =  1.0

     total cpu time spent up to now is      324.7 secs

     total energy              =  -33058.56488987 Ry
     Harris-Foulkes estimate   =  -33047.37518403 Ry
     estimated scf accuracy    <      21.37752599 Ry

     total magnetization       =     0.00 Bohr mag/cell
     absolute magnetization    =    91.66 Bohr mag/cell

     iteration #  3     ecut=    45.00 Ry     beta= 0.10
     Davidson diagonalization with overlap
     ethr =  3.21E-03,  avg # of iterations =  2.1

     total cpu time spent up to now is      456.4 secs

     total energy              =  -33065.85507942 Ry
     Harris-Foulkes estimate   =  -33061.35351512 Ry
     estimated scf accuracy    <       8.78705998 Ry

     total magnetization       =    -0.01 Bohr mag/cell
     absolute magnetization    =    85.54 Bohr mag/cell

     iteration #  4     ecut=    45.00 Ry     beta= 0.10
     Davidson diagonalization with overlap
     ethr =  1.32E-03,  avg # of iterations =  4.0

     total cpu time spent up to now is      650.3 secs

     total energy              =  -33059.07639451 Ry
     Harris-Foulkes estimate   =  -33068.18409033 Ry
     estimated scf accuracy    <      47.55972325 Ry

     total magnetization       =    -0.37 Bohr mag/cell
     absolute magnetization    =    73.04 Bohr mag/cell

     iteration #  5     ecut=    45.00 Ry     beta= 0.10
     Davidson diagonalization with overlap
     ethr =  1.32E-03,  avg # of iterations =  4.9

     total cpu time spent up to now is      885.9 secs

     total energy              =  -33062.12297958 Ry
     Harris-Foulkes estimate   =  -33062.55428380 Ry
     estimated scf accuracy    <       3.33255402 Ry

     total magnetization       =    -0.06 Bohr mag/cell
     absolute magnetization    =    83.40 Bohr mag/cell

     iteration #  6     ecut=    45.00 Ry     beta= 0.10
     Davidson diagonalization with overlap
     ethr =  5.00E-04,  avg # of iterations =  4.0

     total cpu time spent up to now is     1044.2 secs

     total energy              =  -33062.57667621 Ry
     Harris-Foulkes estimate   =  -33062.55483349 Ry
     estimated scf accuracy    <       0.13901861 Ry

     total magnetization       =     0.04 Bohr mag/cell
     absolute magnetization    =    79.98 Bohr mag/cell

     iteration #  7     ecut=    45.00 Ry     beta= 0.10
     Davidson diagonalization with overlap
     ethr =  2.09E-05,  avg # of iterations =  4.9

     total cpu time spent up to now is     1273.5 secs

     total energy              =  -33062.60395976 Ry
     Harris-Foulkes estimate   =  -33062.60327896 Ry
     estimated scf accuracy    <       0.08980269 Ry

     total magnetization       =     0.00 Bohr mag/cell
     absolute magnetization    =    78.65 Bohr mag/cell

     iteration #  8     ecut=    45.00 Ry     beta= 0.10
     Davidson diagonalization with overlap
     ethr =  1.35E-05,  avg # of iterations =  1.0

     total cpu time spent up to now is     1380.7 secs

     total energy              =  -33062.57864733 Ry
     Harris-Foulkes estimate   =  -33062.60580712 Ry
     estimated scf accuracy    <       0.11089121 Ry

     total magnetization       =     0.00 Bohr mag/cell
     absolute magnetization    =    78.31 Bohr mag/cell

     iteration #  9     ecut=    45.00 Ry     beta= 0.10
     Davidson diagonalization with overlap
     ethr =  1.35E-05,  avg # of iterations =  2.1

     total cpu time spent up to now is     1512.0 secs

     total energy              =  -33062.59752692 Ry
     Harris-Foulkes estimate   =  -33062.59570142 Ry
     estimated scf accuracy    <       0.02095852 Ry

     total magnetization       =    -0.01 Bohr mag/cell
     absolute magnetization    =    78.51 Bohr mag/cell

     iteration # 10     ecut=    45.00 Ry     beta= 0.10
     Davidson diagonalization with overlap
     ethr =  3.15E-06,  avg # of iterations =  3.5

     total cpu time spent up to now is     1710.7 secs

     total energy              =  -33062.60218564 Ry
     Harris-Foulkes estimate   =  -33062.60436246 Ry
     estimated scf accuracy    <       0.01265968 Ry

     total magnetization       =     0.01 Bohr mag/cell
     absolute magnetization    =    78.81 Bohr mag/cell

     iteration # 11     ecut=    45.00 Ry     beta= 0.10
     Davidson diagonalization with overlap
     ethr =  1.90E-06,  avg # of iterations =  2.4

     total cpu time spent up to now is     1840.3 secs

     total energy              =  -33062.60409282 Ry
     Harris-Foulkes estimate   =  -33062.60381930 Ry
     estimated scf accuracy    <       0.00203953 Ry

     total magnetization       =     0.00 Bohr mag/cell
     absolute magnetization    =    78.91 Bohr mag/cell

     iteration # 12     ecut=    45.00 Ry     beta= 0.10
     Davidson diagonalization with overlap
     ethr =  3.06E-07,  avg # of iterations =  3.0

     total cpu time spent up to now is     1988.8 secs

     total energy              =  -33062.60499279 Ry
     Harris-Foulkes estimate   =  -33062.60457837 Ry
     estimated scf accuracy    <       0.00218358 Ry

     total magnetization       =     0.01 Bohr mag/cell
     absolute magnetization    =    78.85 Bohr mag/cell

     iteration # 13     ecut=    45.00 Ry     beta= 0.10
     Davidson diagonalization with overlap
     ethr =  3.06E-07,  avg # of iterations =  2.0

     total cpu time spent up to now is     2114.7 secs

     total energy              =  -33062.60524074 Ry
     Harris-Foulkes estimate   =  -33062.60496469 Ry
     estimated scf accuracy    <       0.00027063 Ry

     total magnetization       =     0.00 Bohr mag/cell
     absolute magnetization    =    78.76 Bohr mag/cell

     iteration # 14     ecut=    45.00 Ry     beta= 0.10
     Davidson diagonalization with overlap
     ethr =  4.06E-08,  avg # of iterations =  3.1

     total cpu time spent up to now is     2266.2 secs

     total energy              =  -33062.60538021 Ry
     Harris-Foulkes estimate   =  -33062.60523938 Ry
     estimated scf accuracy    <       0.00016904 Ry

     total magnetization       =     0.00 Bohr mag/cell
     absolute magnetization    =    78.71 Bohr mag/cell

     iteration # 15     ecut=    45.00 Ry     beta= 0.10
     Davidson diagonalization with overlap
     ethr =  2.54E-08,  avg # of iterations =  2.0

     total cpu time spent up to now is     2387.7 secs

     total energy              =  -33062.60547592 Ry
     Harris-Foulkes estimate   =  -33062.60534964 Ry
     estimated scf accuracy    <       0.00007973 Ry

     total magnetization       =     0.00 Bohr mag/cell
     absolute magnetization    =    78.70 Bohr mag/cell

     iteration # 16     ecut=    45.00 Ry     beta= 0.10
     Davidson diagonalization with overlap
     ethr =  1.20E-08,  avg # of iterations =  2.9

     total cpu time spent up to now is     2535.9 secs

     total energy              =  -33062.60549742 Ry
     Harris-Foulkes estimate   =  -33062.60543575 Ry
     estimated scf accuracy    <       0.00003026 Ry

     total magnetization       =     0.00 Bohr mag/cell
     absolute magnetization    =    78.68 Bohr mag/cell

     iteration # 17     ecut=    45.00 Ry     beta= 0.10
     Davidson diagonalization with overlap
     ethr =  4.54E-09,  avg # of iterations =  3.0

     total cpu time spent up to now is     2698.3 secs

     total energy              =  -33062.60547895 Ry
     Harris-Foulkes estimate   =  -33062.60545958 Ry
     estimated scf accuracy    <       0.00000923 Ry

     total magnetization       =     0.00 Bohr mag/cell
     absolute magnetization    =    78.66 Bohr mag/cell

     iteration # 18     ecut=    45.00 Ry     beta= 0.10
     Davidson diagonalization with overlap
     ethr =  1.39E-09,  avg # of iterations =  2.3

     total cpu time spent up to now is     2831.1 secs

     total energy              =  -33062.60547186 Ry
     Harris-Foulkes estimate   =  -33062.60546112 Ry
     estimated scf accuracy    <       0.00000467 Ry

     total magnetization       =     0.00 Bohr mag/cell
     absolute magnetization    =    78.65 Bohr mag/cell

     iteration # 19     ecut=    45.00 Ry     beta= 0.10
     Davidson diagonalization with overlap
     ethr =  7.01E-10,  avg # of iterations =  2.6

     total cpu time spent up to now is     2972.0 secs

     total energy              =  -33062.60546910 Ry
     Harris-Foulkes estimate   =  -33062.60546194 Ry
     estimated scf accuracy    <       0.00000222 Ry

     total magnetization       =     0.00 Bohr mag/cell
     absolute magnetization    =    78.65 Bohr mag/cell

     iteration # 20     ecut=    45.00 Ry     beta= 0.10
     Davidson diagonalization with overlap
     ethr =  3.33E-10,  avg # of iterations =  3.0
 
     Magnetic moment per site:
     atom:    1    charge:   13.5774    magn:    4.0143    constr:    0.0000
     atom:    2    charge:   13.5697    magn:   -4.0802    constr:    0.0000
     atom:    3    charge:   13.5815    magn:    3.9538    constr:    0.0000
     atom:    4    charge:   13.5684    magn:    4.0519    constr:    0.0000
     atom:    5    charge:   13.5778    magn:    3.9885    constr:    0.0000
     atom:    6    charge:   13.5718    magn:    4.0200    constr:    0.0000
     atom:    7    charge:   13.5850    magn:   -3.9630    constr:    0.0000
     atom:    8    charge:   13.5746    magn:   -4.0108    constr:    0.0000
     atom:    9    charge:   13.5798    magn:    3.9770    constr:    0.0000
     atom:   10    charge:   13.5775    magn:   -4.0142    constr:    0.0000
     atom:   11    charge:   13.5850    magn:    3.9630    constr:    0.0000
     atom:   12    charge:   13.5685    magn:   -4.0519    constr:    0.0000
     atom:   13    charge:   13.5816    magn:   -3.9538    constr:    0.0000
     atom:   14    charge:   13.5798    magn:   -3.9770    constr:    0.0000
     atom:   15    charge:   13.5718    magn:   -4.0201    constr:    0.0000
     atom:   16    charge:   13.5698    magn:    4.0802    constr:    0.0000
     atom:   17    charge:   13.5747    magn:    4.0108    constr:    0.0000
     atom:   18    charge:   13.5779    magn:   -3.9885    constr:    0.0000
     atom:   19    charge:    9.1214    magn:    0.0206    constr:    0.0000
     atom:   20    charge:    9.1201    magn:    0.0379    constr:    0.0000
     atom:   21    charge:    9.1202    magn:    0.0480    constr:    0.0000
     atom:   22    charge:    9.1202    magn:   -0.0076    constr:    0.0000
     atom:   23    charge:    9.1198    magn:    0.0198    constr:    0.0000
     atom:   24    charge:    9.1212    magn:    0.0132    constr:    0.0000
     atom:   25    charge:    9.1226    magn:   -0.0155    constr:    0.0000
     atom:   26    charge:    9.1213    magn:    0.0116    constr:    0.0000
     atom:   27    charge:    9.1201    magn:    0.0178    constr:    0.0000
     atom:   28    charge:    9.1214    magn:    0.0206    constr:    0.0000
     atom:   29    charge:    9.1201    magn:    0.0379    constr:    0.0000
     atom:   30    charge:    9.1202    magn:    0.0480    constr:    0.0000
     atom:   31    charge:    9.1202    magn:   -0.0076    constr:    0.0000
     atom:   32    charge:    9.1198    magn:    0.0198    constr:    0.0000
     atom:   33    charge:    9.1212    magn:    0.0132    constr:    0.0000
     atom:   34    charge:    9.1226    magn:   -0.0155    constr:    0.0000
     atom:   35    charge:    9.1213    magn:    0.0116    constr:    0.0000
     atom:   36    charge:    9.1201    magn:    0.0178    constr:    0.0000
     atom:   37    charge:    9.1215    magn:   -0.0206    constr:    0.0000
     atom:   38    charge:    9.1227    magn:    0.0155    constr:    0.0000
     atom:   39    charge:    9.1203    magn:    0.0076    constr:    0.0000
     atom:   40    charge:    9.1203    magn:   -0.0480    constr:    0.0000
     atom:   41    charge:    9.1200    magn:   -0.0179    constr:    0.0000
     atom:   42    charge:    9.1212    magn:   -0.0132    constr:    0.0000
     atom:   43    charge:    9.1202    magn:   -0.0379    constr:    0.0000
     atom:   44    charge:    9.1213    magn:   -0.0116    constr:    0.0000
     atom:   45    charge:    9.1197    magn:   -0.0199    constr:    0.0000
     atom:   46    charge:    9.1215    magn:   -0.0206    constr:    0.0000
     atom:   47    charge:    9.1227    magn:    0.0155    constr:    0.0000
     atom:   48    charge:    9.1203    magn:    0.0076    constr:    0.0000
     atom:   49    charge:    9.1203    magn:   -0.0480    constr:    0.0000
     atom:   50    charge:    9.1200    magn:   -0.0179    constr:    0.0000
     atom:   51    charge:    9.1212    magn:   -0.0132    constr:    0.0000
     atom:   52    charge:    9.1202    magn:   -0.0379    constr:    0.0000
     atom:   53    charge:    9.1213    magn:   -0.0116    constr:    0.0000
     atom:   54    charge:    9.1197    magn:   -0.0199    constr:    0.0000

     total cpu time spent up to now is     3153.4 secs

     End of self-consistent calculation

 ------ SPIN UP ------------


          k = 0.0000 0.0000 0.0000 ( 31747 PWs)   bands (ev):

   -66.7870 -66.7461 -66.7445 -66.6840 -66.6691 -66.6640 -66.6369 -66.6030
   -66.5532 -62.4203 -62.4092 -62.3733 -62.3643 -62.3576 -62.3524 -62.3408
   -62.3390 -62.2862 -35.5462 -35.5241 -35.5176 -35.5080 -35.4990 -35.4960
   -35.4950 -35.4685 -35.4626 -35.4438 -35.4264 -35.4258 -35.4233 -35.4208
   -35.4127 -35.4117 -35.3983 -35.3927 -35.3924 -35.3881 -35.3598 -35.3518
   -35.3471 -35.3339 -35.3139 -35.2953 -35.2877 -31.2582 -31.2526 -31.2476
   -31.2328 -31.2267 -31.2260 -31.2171 -31.2046 -31.1975 -31.1951 -31.1941
   -31.1928 -31.1807 -31.1799 -31.1781 -31.1779 -31.1766 -31.1732 -31.1725
   -31.1669 -31.1629 -31.1586 -31.1563 -31.1444 -31.1361 -31.1112 -31.0916
     5.6148   7.1545   7.1563   7.1979   7.2010   7.3643   7.8573   7.8870
     7.9157   7.9394   8.0867   8.1004   8.1409   8.1606   8.1906   8.2468
     8.2520   8.3032   8.3065   8.5183   8.5566   8.5601   8.5690   8.5950
     8.5995   8.8543   8.8600   8.8603   8.8817   8.8919   8.8947   8.8987
     8.9020   8.9042   8.9105   8.9230   8.9346   8.9605   8.9639   8.9730
     8.9832   9.0838   9.1201   9.1214   9.1284   9.1358   9.1550   9.1572
     9.1864   9.1973   9.2084   9.2656   9.2860   9.2965   9.3086   9.3587
     9.3627   9.3668   9.3700   9.3733   9.3756   9.3822   9.3934   9.4312
     9.4397   9.4459   9.4493   9.4536   9.4671   9.4706   9.4851   9.5789
     9.5815   9.5887   9.5899   9.5936   9.6016   9.6666   9.6688   9.6735
     9.6761   9.6768   9.6854   9.7393   9.7624   9.7710   9.8007   9.8498
     9.8504   9.9079   9.9093   9.9489   9.9518   9.9532  10.0076  10.0292
    10.1136  10.1308  10.1396  10.1505  10.2896  10.2918  10.2959  10.3000
    10.3027  10.3033  10.3066  10.3086  10.3092  10.3278  10.3429  10.3444
    10.3450  10.3463  10.3517  10.3562  10.3596  10.3686  10.3829  10.3838
    10.4006  10.5101  10.5200  10.5775  10.5979  10.6304  10.6383  10.6537
    10.6751  10.7849  10.7870  10.8132  10.8164  10.8192  10.8277  10.8417
    10.8449  10.8535  10.8578  10.8726  10.8741  10.8785  10.8855  10.8906
    10.9023  10.9222  11.0181  11.0217  11.0904  11.0923  11.2120  11.2222
    11.2239  11.2254  11.2759  11.2845  11.3002  11.3282  11.3538  11.3544
    11.3568  11.3740  11.3818  11.3836  11.3924  11.3942  11.4032  11.4104
    11.4161  11.4461  11.5505  11.5895  11.5919  11.5956  11.5980  11.6011
    11.6300  11.6787  11.7011  11.7023  11.7269  11.7301  11.7447  11.7483
    11.8327  11.8356  11.8463  11.8650  11.8707  11.9158  11.9272  11.9502
    11.9602  12.0151  12.0891  12.0995  12.1015  12.1017  12.1061  12.1427
    12.1450  12.1471  12.1483  12.1635  12.1692  12.1713  12.1847  12.2191
    12.2368  12.2440  12.3117  12.3197  12.3443  12.3692  12.3816  12.4079
    12.4312  12.4341  12.4392  12.4788  12.4910  12.4958  12.5039  12.5058
    12.5238  12.5253  12.5367  12.5571  12.5723  12.6166  12.6291  12.7008
    12.7104  12.7469  12.7487  12.7593  12.9766  13.0000  13.0630  13.0784
    13.1310  13.1368  13.1774  13.1926  13.3376  13.7693  13.7823  13.7884
    13.8218  13.9411  13.9601  14.2460  14.2777  14.3159  14.3380  14.5090
    14.8019  14.8629  14.9347  14.9890  15.0023  15.1159  15.1635  15.2475
    15.2773  15.3538  15.3553  15.3721  15.4780  15.4941  15.5208  15.5807
    15.6266  15.6469  15.6805  15.7891  15.8375  15.8448  15.9514  15.9804
    16.0450  16.0783  16.0919  16.1046  16.1296  16.1552  16.1843  16.1875
    16.2200  16.2603  16.2978  16.3001  16.3204  16.3536  16.3645  16.3811
    16.4306  16.5374  16.5580  16.6169  16.6556  16.6566  16.7276  16.8575
    16.9958  17.0309  17.1738  17.1988  17.2045  17.2302  17.2378  17.2552
    17.4971  17.5245  17.8667  17.9171  17.9245  17.9314  17.9672  18.1147
    18.2287  18.2794  18.3608  18.9754  19.0045  19.0320  19.1785  19.2188

          k = 0.0000 0.0000-0.5734 ( 31692 PWs)   bands (ev):

   -66.7870 -66.7461 -66.7445 -66.6840 -66.6691 -66.6640 -66.6369 -66.6030
   -66.5532 -62.4203 -62.4092 -62.3733 -62.3643 -62.3576 -62.3524 -62.3408
   -62.3390 -62.2862 -35.5462 -35.5241 -35.5176 -35.5080 -35.4990 -35.4960
   -35.4950 -35.4685 -35.4626 -35.4438 -35.4264 -35.4258 -35.4233 -35.4208
   -35.4127 -35.4117 -35.3983 -35.3927 -35.3924 -35.3881 -35.3598 -35.3518
   -35.3471 -35.3339 -35.3139 -35.2953 -35.2877 -31.2582 -31.2526 -31.2476
   -31.2328 -31.2267 -31.2260 -31.2171 -31.2046 -31.1975 -31.1951 -31.1941
   -31.1928 -31.1807 -31.1799 -31.1781 -31.1779 -31.1766 -31.1732 -31.1725
   -31.1669 -31.1629 -31.1586 -31.1563 -31.1444 -31.1361 -31.1112 -31.0916
     6.1552   6.2137   7.5328   7.5405   7.5662   7.5814   7.5842   7.6006
     7.6136   7.6393   8.3075   8.3174   8.3291   8.3404   8.3633   8.3747
     8.3799   8.3944   8.4570   8.4659   8.4665   8.4734   8.4961   8.4984
     8.5103   8.5122   8.6925   8.7175   8.7442   8.7987   8.9429   8.9522
     8.9718   8.9724   8.9728   8.9768   8.9795   9.0022   9.0065   9.0268
     9.0277   9.0415   9.0459   9.0664   9.0786   9.0976   9.1889   9.1963
     9.2316   9.2366   9.2387   9.2459   9.2669   9.2780   9.2822   9.2834
     9.2858   9.2926   9.2938   9.2971   9.3075   9.3168   9.4135   9.4154
     9.4206   9.4229   9.4284   9.4304   9.4512   9.4597   9.4678   9.4778
     9.4833   9.4850   9.4881   9.4974   9.5445   9.5481   9.6200   9.7018
     9.7829   9.7888   9.7968   9.8033   9.8046   9.8193   9.8297   9.8469
     9.8709   9.8778   9.8793   9.8832   9.8848   9.8884   9.8908   9.8912
    10.0553  10.0581  10.0628  10.0656  10.1340  10.1471  10.1504  10.1533
    10.1619  10.1928  10.1944  10.1985  10.2031  10.2197  10.3398  10.3643
    10.3828  10.3873  10.3975  10.4004  10.4096  10.4322  10.4540  10.5283
    10.5908  10.5913  10.6048  10.6082  10.6308  10.6397  10.6548  10.6631
    10.6739  10.6955  10.7125  10.7211  10.7610  10.7772  10.8159  10.8795
    10.9210  10.9715  10.9955  11.0060  11.0435  11.0522  11.0584  11.0728
    11.0754  11.0873  11.1056  11.1356  11.1437  11.1610  11.1837  11.1943
    11.2138  11.2370  11.2513  11.2528  11.2556  11.2560  11.2569  11.2671
    11.2680  11.2717  11.2778  11.2842  11.2963  11.3007  11.3010  11.3012
    11.3127  11.3162  11.3246  11.3263  11.5279  11.5993  11.7051  11.7140
    11.7145  11.7160  11.7181  11.7243  11.7271  11.7303  11.7360  11.7624
    11.7642  11.7662  11.7714  11.8072  11.8111  11.8130  11.8459  11.9348
    11.9366  11.9669  11.9691  12.0049  12.0384  12.0437  12.0553  12.0683
    12.1523  12.1540  12.2118  12.2450  12.2519  12.2769  12.3158  12.3812
    12.4106  12.4160  12.4337  12.4404  12.4521  12.4778  12.4894  12.4988
    12.5062  12.5091  12.5302  12.5367  12.5421  12.5626  12.5717  12.6231
    12.6232  12.6763  12.7441  12.7787  12.7809  12.8074  12.8671  12.8709
    12.9587  13.0049  13.0390  13.0987  13.1461  13.1578  13.1754  13.2088
    13.2158  13.2247  13.3051  13.4257  13.4849  13.5157  13.6331  13.7066
    13.9644  13.9718  13.9755  14.0745  14.1192  14.1402  14.2825  14.3105
    14.5730  14.8968  14.9133  14.9359  14.9581  15.0350  15.0967  15.1094
    15.1660  15.1695  15.2252  15.2532  15.3343  15.3545  15.3667  15.5375
    15.6174  15.6877  15.7168  15.7465  15.8136  15.9070  15.9170  16.0558
    16.0851  16.0904  16.1154  16.1370  16.1660  16.1843  16.1971  16.2029
    16.2125  16.2265  16.2418  16.2703  16.2729  16.2927  16.2991  16.3371
    16.3586  16.4591  16.4778  16.5283  16.6654  16.7138  16.7398  16.7588
    16.8828  16.8895  17.2166  17.2974  17.3392  17.3931  17.5178  17.5617
    17.5637  17.5845  17.6424  17.6763  17.7319  17.7382  17.8417  17.8721
    17.9158  17.9723  18.1037  18.1987  18.2137  18.2620  18.3104  18.3569

          k = 0.0000-0.5000 0.0000 ( 31722 PWs)   bands (ev):

   -66.7870 -66.7461 -66.7445 -66.6840 -66.6691 -66.6640 -66.6369 -66.6030
   -66.5532 -62.4203 -62.4092 -62.3733 -62.3643 -62.3576 -62.3524 -62.3408
   -62.3390 -62.2862 -35.5462 -35.5241 -35.5176 -35.5080 -35.4990 -35.4960
   -35.4950 -35.4685 -35.4626 -35.4438 -35.4264 -35.4258 -35.4233 -35.4208
   -35.4127 -35.4117 -35.3983 -35.3927 -35.3924 -35.3881 -35.3598 -35.3518
   -35.3471 -35.3339 -35.3139 -35.2953 -35.2877 -31.2582 -31.2526 -31.2476
   -31.2329 -31.2267 -31.2260 -31.2171 -31.2046 -31.1975 -31.1951 -31.1941
   -31.1928 -31.1807 -31.1799 -31.1781 -31.1779 -31.1765 -31.1730 -31.1725
   -31.1673 -31.1629 -31.1586 -31.1563 -31.1444 -31.1361 -31.1112 -31.0916
     6.0277   6.0576   7.4069   7.4320   7.4474   7.5006   7.6718   7.6799
     8.1019   8.1158   8.1424   8.1742   8.1934   8.2343   8.2524   8.2755
     8.3930   8.4114   8.4482   8.4948   8.6110   8.6290   8.6393   8.6514
     8.6685   8.6794   8.6843   8.7146   8.7554   8.8033   8.8243   8.8381
     8.8529   8.8644   8.8699   8.8775   8.9026   8.9066   8.9151   8.9191
     8.9270   8.9345   8.9378   8.9577   9.0461   9.0528   9.1562   9.1708
     9.1827   9.2036   9.2128   9.2236   9.2405   9.2442   9.3145   9.3341
     9.3451   9.3668   9.3866   9.4193   9.4710   9.4774   9.4876   9.4990
     9.5318   9.5356   9.5580   9.5733   9.5849   9.6052   9.6121   9.6159
     9.6192   9.6219   9.6270   9.6309   9.6318   9.6373   9.6467   9.6475
     9.6559   9.6600   9.6710   9.6793   9.7052   9.7115   9.7117   9.7356
     9.7367   9.7417   9.7715   9.7797   9.8928   9.9052   9.9151   9.9824
    10.0174  10.0334  10.1499  10.1973  10.2098  10.2243  10.2487  10.2551
    10.2678  10.2686  10.2695  10.2722  10.2861  10.2903  10.3358  10.3517
    10.3691  10.3785  10.3843  10.3915  10.4209  10.4413  10.4555  10.4772
    10.4946  10.5125  10.5261  10.5290  10.5580  10.5689  10.5786  10.5961
    10.6043  10.6515  10.6858  10.6883  10.7179  10.7363  10.7459  10.7625
    10.8070  10.8241  10.8270  10.8495  10.8532  10.8722  10.8850  10.9331
    10.9520  11.0070  11.0145  11.0197  11.0483  11.0944  11.1674  11.1881
    11.2840  11.3458  11.3496  11.3595  11.3746  11.3915  11.4061  11.4080
    11.4219  11.4572  11.4637  11.4725  11.4904  11.5175  11.5495  11.5503
    11.5689  11.5904  11.6030  11.6301  11.6424  11.6680  11.6883  11.7352
    11.7417  11.7663  11.7849  11.8065  11.8190  11.8471  11.8518  11.8697
    11.8757  11.8830  11.9099  11.9283  11.9344  11.9527  11.9552  11.9635
    11.9784  11.9789  11.9907  12.0121  12.0767  12.1144  12.1565  12.1698
    12.1938  12.1995  12.2126  12.2308  12.2414  12.2477  12.2652  12.2770
    12.2874  12.2915  12.3017  12.3410  12.3419  12.3910  12.4009  12.4165
    12.4364  12.4604  12.4624  12.4835  12.4922  12.5103  12.5225  12.5596
    12.5888  12.6051  12.6155  12.6160  12.6393  12.7115  12.7448  12.7613
    12.8298  12.9301  12.9777  13.0101  13.0536  13.0595  13.1374  13.1547
    13.1600  13.1890  13.2036  13.2291  13.2488  13.2859  13.3182  13.3362
    13.4531  13.4619  13.4969  13.6667  13.6733  14.3142  14.5351  14.5842
    14.6581  14.7335  14.7721  14.7738  14.8291  14.8835  14.9186  14.9587
    15.0442  15.0746  15.1590  15.3054  15.4306  15.4627  15.5461  15.5647
    15.6891  15.7159  15.7506  15.7738  15.8369  15.8647  15.9244  16.0015
    16.0351  16.0442  16.0607  16.0704  16.0920  16.1354  16.1679  16.1837
    16.1902  16.2127  16.2209  16.2346  16.2395  16.2483  16.3696  16.4270
    16.4577  16.4842  16.5325  16.6582  16.7195  16.8350  16.9640  17.0473
    17.1581  17.2065  17.2444  17.3204  17.4391  17.5269  17.6131  17.6258
    17.7092  17.7765  17.7877  17.8043  17.8161  17.8304  17.9306  17.9528
    18.0217  18.0368  18.1582  18.2457  19.2415  19.3202  19.3244  19.3401

          k = 0.0000-0.5000-0.5734 ( 31696 PWs)   bands (ev):

   -66.7870 -66.7461 -66.7445 -66.6840 -66.6691 -66.6640 -66.6369 -66.6030
   -66.5532 -62.4203 -62.4092 -62.3733 -62.3643 -62.3576 -62.3524 -62.3408
   -62.3390 -62.2862 -35.5462 -35.5241 -35.5176 -35.5080 -35.4990 -35.4960
   -35.4950 -35.4685 -35.4626 -35.4438 -35.4264 -35.4258 -35.4233 -35.4208
   -35.4127 -35.4117 -35.3983 -35.3927 -35.3924 -35.3881 -35.3598 -35.3518
   -35.3471 -35.3339 -35.3139 -35.2953 -35.2877 -31.2582 -31.2526 -31.2476
   -31.2329 -31.2267 -31.2260 -31.2171 -31.2046 -31.1975 -31.1951 -31.1941
   -31.1928 -31.1807 -31.1799 -31.1781 -31.1779 -31.1765 -31.1730 -31.1725
   -31.1673 -31.1629 -31.1586 -31.1563 -31.1444 -31.1361 -31.1112 -31.0916
     6.5233   6.5831   6.5885   6.6392   7.8312   7.8521   7.8604   7.8694
     7.9093   7.9193   7.9300   7.9438   8.2663   8.2801   8.2985   8.3030
     8.5103   8.5245   8.5343   8.5359   8.6532   8.6751   8.6754   8.6844
     8.6909   8.6975   8.6998   8.7113   8.7164   8.7367   8.7372   8.7512
     8.7579   8.7786   8.7814   8.8176   8.9471   9.0040   9.0052   9.0340
     9.0368   9.0507   9.0543   9.0687   9.1866   9.2016   9.2123   9.2165
     9.2217   9.2218   9.2331   9.2343   9.2426   9.2432   9.2537   9.2556
     9.2618   9.2783   9.2808   9.2861   9.2899   9.3450   9.3807   9.4022
     9.4083   9.4221   9.4512   9.4576   9.4651   9.4664   9.4680   9.4788
     9.4881   9.5041   9.5096   9.5159   9.5276   9.5458   9.5545   9.5556
     9.5669   9.6072   9.7529   9.7587   9.7882   9.7926   9.8083   9.8151
     9.8303   9.8392   9.8479   9.8564   9.8589   9.8605   9.8722   9.8882
     9.9437   9.9677   9.9865  10.0013  10.0299  10.0462  10.0546  10.0687
    10.3650  10.3827  10.3993  10.3998  10.4111  10.4208  10.4264  10.4322
    10.4473  10.4721  10.4820  10.4832  10.4853  10.4894  10.4966  10.5039
    10.5309  10.5403  10.5731  10.5752  10.5833  10.5899  10.6227  10.6385
    10.6600  10.6612  10.6712  10.6722  10.6749  10.6908  10.7181  10.7213
    10.7406  10.8211  10.8498  10.8786  10.9677  10.9889  11.0331  11.0908
    11.1128  11.1287  11.1306  11.1532  11.1849  11.1909  11.1917  11.2026
    11.2104  11.2128  11.2838  11.3166  11.3318  11.3421  11.3632  11.3722
    11.3777  11.4000  11.4073  11.4231  11.4425  11.4778  11.4860  11.5161
    11.5259  11.5546  11.5719  11.5779  11.5804  11.5884  11.6007  11.6222
    11.6281  11.6317  11.7160  11.7265  11.7503  11.7608  11.8007  11.8389
    11.8830  11.9113  11.9294  11.9409  11.9504  11.9603  11.9996  12.0034
    12.0131  12.0279  12.0330  12.0367  12.0408  12.0440  12.0997  12.1133
    12.1545  12.1722  12.1883  12.2341  12.2499  12.2912  12.3030  12.3325
    12.3534  12.3618  12.3956  12.4015  12.4359  12.4512  12.4591  12.4632
    12.4893  12.5030  12.5268  12.5399  12.5586  12.5901  12.5921  12.6078
    12.6153  12.6380  12.6525  12.6556  12.6674  12.6888  12.8044  12.8114
    12.8338  12.8474  12.8937  12.9360  13.0147  13.0193  13.0217  13.0263
    13.2001  13.2087  13.3928  13.4415  13.5206  13.6261  13.7530  13.7638
    13.9517  13.9610  14.0327  14.1093  14.1557  14.2117  14.2550  14.3280
    14.4645  14.4735  14.5413  14.5695  14.6108  14.6125  14.6879  15.0211
    15.1012  15.1909  15.2841  15.3737  15.3856  15.4282  15.5398  15.5603
    15.6276  15.6814  15.7052  15.7525  15.7684  15.9681  16.0182  16.0576
    16.0774  16.0944  16.1349  16.1480  16.1706  16.1821  16.1884  16.2194
    16.2622  16.2699  16.2850  16.3134  16.3316  16.3782  16.4023  16.4871
    16.4876  16.5242  16.5421  16.5522  16.5808  16.6442  16.6971  16.7061
    16.7319  16.7828  16.8324  16.8618  16.8953  16.9769  16.9879  17.0149
    17.1012  17.1283  17.1411  17.2039  18.6033  18.6920  18.7036  18.7350
    18.7614  18.7805  18.8210  18.8486  18.8803  18.9029  18.9436  18.9689

          k =-0.5000-0.5000 0.0000 ( 31612 PWs)   bands (ev):

   -66.7870 -66.7461 -66.7445 -66.6840 -66.6691 -66.6640 -66.6369 -66.6030
   -66.5532 -62.4203 -62.4092 -62.3733 -62.3643 -62.3576 -62.3524 -62.3408
   -62.3390 -62.2862 -35.5462 -35.5241 -35.5176 -35.5080 -35.4990 -35.4960
   -35.4950 -35.4685 -35.4626 -35.4438 -35.4264 -35.4258 -35.4233 -35.4208
   -35.4127 -35.4117 -35.3983 -35.3927 -35.3924 -35.3881 -35.3597 -35.3519
   -35.3471 -35.3340 -35.3139 -35.2953 -35.2877 -31.2584 -31.2529 -31.2470
   -31.2328 -31.2267 -31.2262 -31.2171 -31.2046 -31.1975 -31.1951 -31.1942
   -31.1928 -31.1807 -31.1799 -31.1781 -31.1779 -31.1765 -31.1730 -31.1725
   -31.1673 -31.1629 -31.1586 -31.1563 -31.1444 -31.1361 -31.1112 -31.0916
     6.4141   6.4329   6.4380   6.4750   8.0082   8.0154   8.0208   8.0224
     8.0886   8.1230   8.2960   8.3218   8.3271   8.3335   8.3402   8.3460
     8.3508   8.3534   8.3540   8.3595   8.3649   8.3862   8.5680   8.5994
     8.6493   8.6652   8.6768   8.6960   8.7152   8.7236   8.7352   8.7440
     8.7493   8.7963   8.9164   8.9202   8.9747   8.9751   8.9774   8.9780
     8.9834   8.9907   8.9937   9.0025   9.0039   9.0335   9.0411   9.0472
     9.1101   9.1346   9.3061   9.3127   9.3168   9.3227   9.4013   9.4087
     9.4155   9.4173   9.4198   9.4263   9.4275   9.4318   9.4473   9.4558
     9.4614   9.4757   9.4757   9.4811   9.4840   9.4854   9.4927   9.5048
     9.5162   9.5192   9.5299   9.5400   9.5425   9.5676   9.5753   9.5959
     9.5984   9.6101   9.6972   9.6996   9.7685   9.8175   9.8248   9.8255
     9.8318   9.8334   9.8348   9.8395   9.8444   9.8677  10.0444  10.0619
    10.0736  10.1046  10.1117  10.1285  10.1383  10.1405  10.1563  10.1730
    10.1789  10.1923  10.2022  10.2041  10.2154  10.2202  10.2262  10.2285
    10.2319  10.2371  10.2487  10.2534  10.4561  10.4701  10.4882  10.4920
    10.4960  10.4996  10.5044  10.5367  10.6297  10.6369  10.6399  10.6481
    10.6637  10.6686  10.6724  10.6769  10.6909  10.6926  10.6949  10.7037
    10.7141  10.7327  10.7895  10.8114  10.8298  10.8420  10.8630  10.8803
    10.9233  10.9363  11.1968  11.2094  11.2127  11.2228  11.3072  11.3120
    11.3366  11.3411  11.3476  11.3588  11.3971  11.3995  11.5438  11.5517
    11.5867  11.6242  11.6339  11.6404  11.6407  11.6433  11.6466  11.6486
    11.6522  11.6526  11.6958  11.7225  11.7347  11.7528  11.7604  11.8519
    11.8727  11.8765  11.8784  11.8804  11.8834  11.8884  11.9896  12.0135
    12.0212  12.0262  12.0766  12.0899  12.0912  12.1056  12.1092  12.1099
    12.1110  12.1142  12.1154  12.1194  12.1379  12.1506  12.1706  12.1795
    12.1872  12.1872  12.2021  12.2060  12.2192  12.2240  12.2334  12.2443
    12.2543  12.2633  12.2777  12.2834  12.2850  12.2931  12.3026  12.3214
    12.3769  12.4282  12.4402  12.4467  12.4695  12.4770  12.4843  12.4943
    12.5113  12.5355  12.5727  12.5812  12.5989  12.6187  12.6377  12.6825
    12.7139  12.7457  12.7981  12.8813  12.8877  12.9143  12.9539  12.9556
    12.9617  12.9636  12.9885  13.0278  13.0724  13.5527  13.6722  13.6743
    13.7219  13.7975  13.8134  13.8277  13.8827  13.9300  14.0341  14.0971
    14.1822  14.2778  14.2955  14.3433  14.5238  14.6607  14.8653  14.8899
    15.0980  15.1949  15.1983  15.2951  15.3746  15.5127  15.5672  15.7356
    15.7953  15.7978  15.8469  15.8709  15.8864  15.8893  15.9179  15.9375
    15.9450  15.9567  15.9929  16.0075  16.0904  16.1275  16.1333  16.1631
    16.1890  16.2546  16.3163  16.3553  16.3604  16.3871  16.4010  16.4137
    16.4660  16.4695  16.5007  16.6650  16.6843  16.7090  16.7256  16.7504
    16.7848  16.8229  16.9196  16.9728  17.3836  17.3923  17.6340  18.0225
    18.1459  18.1982  18.2045  18.2373  18.2804  18.4481  18.4688  18.5371
    18.5927  18.6202  18.6560  18.6726  18.7711  18.7861  18.7939  18.8029

          k =-0.5000-0.5000-0.5734 ( 31672 PWs)   bands (ev):

   -66.7870 -66.7461 -66.7445 -66.6840 -66.6691 -66.6640 -66.6369 -66.6030
   -66.5532 -62.4203 -62.4092 -62.3733 -62.3643 -62.3576 -62.3524 -62.3408
   -62.3390 -62.2862 -35.5462 -35.5241 -35.5176 -35.5080 -35.4990 -35.4960
   -35.4950 -35.4685 -35.4626 -35.4438 -35.4264 -35.4258 -35.4233 -35.4208
   -35.4127 -35.4117 -35.3983 -35.3927 -35.3924 -35.3881 -35.3597 -35.3519
   -35.3471 -35.3340 -35.3139 -35.2953 -35.2877 -31.2584 -31.2529 -31.2470
   -31.2328 -31.2267 -31.2262 -31.2171 -31.2046 -31.1975 -31.1951 -31.1942
   -31.1928 -31.1807 -31.1799 -31.1781 -31.1779 -31.1765 -31.1730 -31.1725
   -31.1673 -31.1629 -31.1586 -31.1563 -31.1444 -31.1361 -31.1112 -31.0916
     6.8808   6.9143   6.9230   6.9467   6.9973   7.0156   7.0262   7.0474
     8.4447   8.4669   8.4705   8.4814   8.4872   8.4919   8.4924   8.4953
     8.4982   8.5009   8.5130   8.5160   8.5373   8.5415   8.5441   8.5708
     8.5740   8.5781   8.5835   8.6215   8.8744   8.8745   8.8897   8.8920
     8.8976   8.9199   8.9368   8.9413   9.0824   9.1026   9.1163   9.1228
     9.1243   9.1419   9.1466   9.1491   9.1543   9.1565   9.1600   9.1630
     9.1661   9.1679   9.1708   9.1727   9.1729   9.1749   9.1767   9.1793
     9.1797   9.1822   9.1944   9.1994   9.2006   9.2055   9.2097   9.2137
     9.2269   9.2320   9.2430   9.2451   9.2574   9.2613   9.2651   9.2832
     9.5453   9.5492   9.5579   9.5704   9.5769   9.5960   9.6036   9.6264
     9.6421   9.6639   9.6752   9.6755   9.7298   9.7401   9.7530   9.7870
     9.8132   9.8261   9.8426   9.8568   9.8798   9.8842   9.8910   9.8975
    10.1133  10.1208  10.1494  10.1540  10.1650  10.1721  10.1902  10.1985
    10.2835  10.3222  10.4369  10.4577  10.4588  10.4681  10.4805  10.4815
    10.4866  10.4869  10.4940  10.4994  10.5032  10.5114  10.5131  10.5193
    10.5234  10.5247  10.5415  10.5462  10.5696  10.5702  10.5865  10.6013
    10.6015  10.6267  10.6384  10.6385  10.6522  10.6551  10.6661  10.6844
    10.6865  10.6880  10.6991  10.7109  10.7147  10.7279  11.0189  11.0419
    11.0711  11.0793  11.0804  11.0859  11.1273  11.1432  11.3789  11.3873
    11.3905  11.3995  11.4021  11.4327  11.4385  11.4441  11.4554  11.4793
    11.4796  11.4905  11.5010  11.5042  11.5168  11.5450  11.6058  11.6211
    11.6411  11.6479  11.6527  11.6685  11.6734  11.6955  11.6972  11.7181
    11.7215  11.7274  11.7342  11.7606  11.7648  11.7671  11.7791  11.7833
    11.8028  11.8083  11.8184  11.8330  11.8368  11.9421  11.9637  12.0013
    12.0176  12.0262  12.0885  12.1036  12.1205  12.1305  12.1366  12.1482
    12.1585  12.2037  12.2085  12.2206  12.2391  12.2480  12.2704  12.3190
    12.3566  12.3735  12.4051  12.4267  12.4355  12.4464  12.4469  12.4504
    12.4777  12.4975  12.5072  12.5330  12.5435  12.5534  12.5871  12.6230
    12.6446  12.6714  12.6740  12.6780  12.7012  12.7622  12.7905  12.8041
    12.9121  12.9506  12.9651  12.9730  13.0556  13.1274  13.1501  13.1866
    13.2477  13.2747  13.2918  13.3317  13.3592  13.4959  13.4985  13.5031
    13.5163  13.6037  13.7629  13.7883  13.9129  14.0539  14.0837  14.1608
    14.1873  14.2087  14.4154  14.5533  14.6917  14.7529  14.8628  14.9608
    14.9735  15.3060  15.3162  15.3651  15.4303  15.6225  15.6511  15.6558
    15.7040  15.7220  15.7611  15.8395  15.8623  15.8683  15.9106  15.9483
    15.9623  15.9923  16.0846  16.1188  16.1393  16.1547  16.1626  16.2119
    16.2183  16.2511  16.2817  16.3597  16.4133  16.4421  16.4602  16.4902
    16.5222  16.5466  16.5779  16.6102  16.6475  16.6832  16.6897  16.7308
    16.7404  16.8210  16.8476  16.8877  16.9049  16.9489  16.9937  17.0241
    17.0883  17.1186  17.5904  17.7493  17.9083  17.9587  18.9988  19.0091
    19.0201  19.0634  19.0679  19.1068  19.1733  19.2040  19.2708  19.2867

          k =-0.5000 0.0000 0.0000 ( 31722 PWs)   bands (ev):

   -66.7870 -66.7461 -66.7445 -66.6840 -66.6691 -66.6640 -66.6369 -66.6030
   -66.5532 -62.4203 -62.4092 -62.3733 -62.3643 -62.3576 -62.3524 -62.3408
   -62.3390 -62.2862 -35.5462 -35.5241 -35.5176 -35.5080 -35.4990 -35.4960
   -35.4950 -35.4685 -35.4626 -35.4438 -35.4264 -35.4258 -35.4233 -35.4208
   -35.4127 -35.4117 -35.3983 -35.3927 -35.3924 -35.3881 -35.3597 -35.3519
   -35.3471 -35.3340 -35.3139 -35.2953 -35.2877 -31.2584 -31.2529 -31.2470
   -31.2328 -31.2267 -31.2262 -31.2171 -31.2046 -31.1975 -31.1951 -31.1942
   -31.1928 -31.1807 -31.1799 -31.1781 -31.1779 -31.1766 -31.1732 -31.1725
   -31.1669 -31.1629 -31.1586 -31.1563 -31.1444 -31.1361 -31.1112 -31.0916
     6.0268   6.0582   7.4016   7.4406   7.4545   7.4914   7.6706   7.6805
     8.1028   8.1177   8.1434   8.1693   8.1991   8.2346   8.2441   8.2741
     8.3851   8.4296   8.4492   8.4852   8.6130   8.6223   8.6491   8.6515
     8.6722   8.6776   8.6888   8.7044   8.7532   8.8039   8.8163   8.8300
     8.8555   8.8661   8.8712   8.8919   8.9057   8.9100   8.9176   8.9204
     8.9268   8.9294   8.9357   8.9532   9.0427   9.0552   9.1550   9.1752
     9.1942   9.2018   9.2084   9.2294   9.2340   9.2406   9.3125   9.3339
     9.3562   9.3719   9.3774   9.4138   9.4733   9.4749   9.4893   9.5084
     9.5279   9.5377   9.5604   9.5738   9.5780   9.5951   9.6093   9.6153
     9.6177   9.6219   9.6291   9.6362   9.6366   9.6391   9.6417   9.6459
     9.6533   9.6646   9.6708   9.6800   9.6988   9.7081   9.7172   9.7355
     9.7499   9.7539   9.7564   9.7745   9.8963   9.9021   9.9154   9.9851
    10.0072  10.0437  10.1527  10.1936  10.2093  10.2248  10.2491  10.2537
    10.2669  10.2706  10.2730  10.2747  10.2839  10.2855  10.3318  10.3555
    10.3599  10.3786  10.3839  10.3936  10.4216  10.4408  10.4512  10.4822
    10.4872  10.5096  10.5268  10.5459  10.5555  10.5775  10.5862  10.5886
    10.5981  10.6578  10.6728  10.6916  10.7089  10.7231  10.7546  10.7665
    10.8008  10.8172  10.8303  10.8489  10.8540  10.8747  10.8908  10.9318
    10.9577  10.9975  11.0213  11.0334  11.0444  11.0951  11.1652  11.1831
    11.2941  11.3452  11.3492  11.3668  11.3713  11.3825  11.4041  11.4066
    11.4179  11.4457  11.4630  11.4845  11.4911  11.5310  11.5367  11.5559
    11.5713  11.6041  11.6107  11.6189  11.6338  11.6475  11.6939  11.7453
    11.7510  11.7714  11.7888  11.7939  11.8158  11.8325  11.8480  11.8636
    11.8654  11.8910  11.9069  11.9166  11.9403  11.9570  11.9601  11.9709
    11.9759  11.9801  11.9829  12.0138  12.0942  12.1411  12.1469  12.1582
    12.1882  12.1923  12.2008  12.2338  12.2400  12.2484  12.2673  12.2753
    12.2798  12.2907  12.3469  12.3478  12.3607  12.3952  12.4017  12.4197
    12.4346  12.4463  12.4563  12.4615  12.4799  12.4950  12.5542  12.5720
    12.5888  12.5934  12.6054  12.6353  12.6442  12.6803  12.7020  12.7968
    12.8844  12.9453  12.9718  13.0073  13.0443  13.0685  13.1036  13.1303
    13.1376  13.1995  13.2199  13.2248  13.2751  13.2805  13.3147  13.3297
    13.4424  13.4645  13.5127  13.6699  13.6775  14.3219  14.4530  14.5463
    14.6321  14.7405  14.8223  14.8324  14.8477  14.9001  14.9415  14.9659
    14.9981  15.1525  15.2178  15.3216  15.3236  15.4415  15.5078  15.5216
    15.6533  15.7148  15.7684  15.8115  15.8452  15.8649  15.8958  15.9597
    16.0183  16.0361  16.0512  16.1067  16.1218  16.1278  16.1604  16.1796
    16.2028  16.2173  16.2208  16.2714  16.2953  16.3028  16.3791  16.3916
    16.3962  16.5070  16.5535  16.6418  16.6939  16.8131  17.0181  17.0634
    17.1642  17.2162  17.2351  17.3325  17.3790  17.5038  17.6071  17.6305
    17.6621  17.7364  17.8004  17.8271  17.8429  17.8554  17.9499  17.9518
    18.0115  18.0695  18.1541  18.2258  19.2526  19.3160  19.3165  19.3413

          k =-0.5000 0.0000 0.5734 ( 31696 PWs)   bands (ev):

   -66.7870 -66.7461 -66.7445 -66.6840 -66.6691 -66.6640 -66.6369 -66.6030
   -66.5532 -62.4203 -62.4092 -62.3733 -62.3643 -62.3576 -62.3524 -62.3408
   -62.3390 -62.2862 -35.5462 -35.5241 -35.5176 -35.5080 -35.4990 -35.4960
   -35.4950 -35.4685 -35.4626 -35.4438 -35.4264 -35.4258 -35.4233 -35.4208
   -35.4127 -35.4117 -35.3983 -35.3927 -35.3924 -35.3881 -35.3597 -35.3519
   -35.3471 -35.3340 -35.3139 -35.2953 -35.2877 -31.2584 -31.2529 -31.2470
   -31.2328 -31.2267 -31.2262 -31.2171 -31.2046 -31.1975 -31.1951 -31.1942
   -31.1928 -31.1807 -31.1799 -31.1781 -31.1779 -31.1766 -31.1732 -31.1725
   -31.1669 -31.1629 -31.1586 -31.1563 -31.1444 -31.1361 -31.1112 -31.0916
     6.5187   6.5782   6.5937   6.6443   7.8329   7.8433   7.8567   7.8721
     7.9104   7.9223   7.9322   7.9461   8.2667   8.2780   8.2977   8.3042
     8.5099   8.5227   8.5353   8.5374   8.6572   8.6742   8.6800   8.6868
     8.6883   8.6906   8.7013   8.7114   8.7186   8.7397   8.7424   8.7498
     8.7535   8.7735   8.7814   8.8167   8.9431   9.0048   9.0076   9.0314
     9.0387   9.0519   9.0554   9.0695   9.1745   9.2030   9.2127   9.2154
     9.2219   9.2226   9.2295   9.2331   9.2453   9.2459   9.2509   9.2520
     9.2651   9.2727   9.2815   9.2858   9.2957   9.3579   9.3810   9.4043
     9.4072   9.4225   9.4517   9.4589   9.4625   9.4673   9.4677   9.4791
     9.4824   9.4969   9.5125   9.5233   9.5241   9.5507   9.5539   9.5578
     9.5675   9.6118   9.7526   9.7588   9.7880   9.7932   9.8084   9.8151
     9.8345   9.8352   9.8523   9.8532   9.8572   9.8615   9.8636   9.8855
     9.9469   9.9634   9.9975  10.0027  10.0332  10.0408  10.0558  10.0630
    10.3556  10.3771  10.3880  10.3918  10.4041  10.4174  10.4297  10.4315
    10.4650  10.4770  10.4784  10.4796  10.4823  10.4907  10.4962  10.5127
    10.5398  10.5582  10.5637  10.5795  10.5915  10.5957  10.6176  10.6257
    10.6651  10.6660  10.6745  10.6764  10.6767  10.6846  10.7118  10.7186
    10.7387  10.8212  10.8485  10.8712  10.9728  10.9908  11.0255  11.0814
    11.1139  11.1300  11.1365  11.1556  11.1811  11.1862  11.1915  11.2028
    11.2100  11.2130  11.2785  11.3384  11.3437  11.3449  11.3622  11.3740
    11.3784  11.3920  11.4099  11.4142  11.4439  11.4799  11.4883  11.5153
    11.5189  11.5543  11.5667  11.5687  11.5760  11.5781  11.6086  11.6145
    11.6384  11.6416  11.7152  11.7203  11.7536  11.7606  11.7950  11.8393
    11.8841  11.9115  11.9134  11.9472  11.9633  11.9684  12.0026  12.0033
    12.0150  12.0209  12.0291  12.0351  12.0379  12.0421  12.1099  12.1190
    12.1597  12.1722  12.1985  12.2200  12.2549  12.2960  12.2966  12.3516
    12.3619  12.3685  12.3869  12.4007  12.4416  12.4500  12.4567  12.4902
    12.5009  12.5082  12.5129  12.5130  12.5202  12.5526  12.5803  12.5809
    12.6358  12.6382  12.6443  12.6556  12.7069  12.7081  12.7611  12.7939
    12.8439  12.8498  12.9384  12.9438  12.9822  12.9976  13.0261  13.0393
    13.1890  13.2566  13.4130  13.5200  13.5314  13.6697  13.7097  13.7527
    13.9028  14.0164  14.0192  14.0948  14.1058  14.1439  14.2184  14.3104
    14.3354  14.5391  14.5675  14.5796  14.5826  14.7053  14.7571  15.0151
    15.0797  15.2717  15.3017  15.3359  15.3645  15.4496  15.5242  15.5574
    15.6286  15.6651  15.7612  15.7696  15.8640  15.8700  15.9222  16.0147
    16.0572  16.1021  16.1075  16.1585  16.1639  16.1777  16.2217  16.2330
    16.2595  16.2852  16.3051  16.3130  16.3283  16.3643  16.3645  16.4634
    16.5035  16.5653  16.5669  16.5946  16.6307  16.6463  16.6955  16.7010
    16.7634  16.7692  16.8162  16.8717  16.8786  16.8999  16.9875  16.9877
    17.0821  17.1543  17.1557  17.2206  18.6001  18.6936  18.7112  18.7374
    18.7467  18.7784  18.7896  18.8489  18.8930  18.9089  18.9533  19.0052

 ------ SPIN DOWN ----------


          k = 0.0000 0.0000 0.0000 ( 31747 PWs)   bands (ev):

   -66.7871 -66.7462 -66.7444 -66.6839 -66.6692 -66.6640 -66.6371 -66.6031
   -66.5530 -62.4201 -62.4091 -62.3732 -62.3644 -62.3577 -62.3522 -62.3407
   -62.3390 -62.2865 -35.5463 -35.5242 -35.5177 -35.5079 -35.4991 -35.4961
   -35.4949 -35.4686 -35.4625 -35.4437 -35.4263 -35.4259 -35.4234 -35.4208
   -35.4126 -35.4117 -35.3985 -35.3929 -35.3924 -35.3882 -35.3599 -35.3520
   -35.3472 -35.3341 -35.3138 -35.2951 -35.2875 -31.2581 -31.2525 -31.2475
   -31.2328 -31.2265 -31.2259 -31.2170 -31.2044 -31.1976 -31.1952 -31.1940
   -31.1929 -31.1807 -31.1800 -31.1782 -31.1781 -31.1766 -31.1732 -31.1724
   -31.1669 -31.1628 -31.1584 -31.1563 -31.1444 -31.1363 -31.1115 -31.0918
     5.6148   7.1545   7.1563   7.1979   7.2010   7.3643   7.8574   7.8869
     7.9158   7.9395   8.0867   8.1004   8.1409   8.1606   8.1907   8.2468
     8.2520   8.3033   8.3064   8.5184   8.5566   8.5601   8.5690   8.5950
     8.5994   8.8543   8.8600   8.8603   8.8817   8.8920   8.8947   8.8987
     8.9020   8.9042   8.9106   8.9229   8.9346   8.9605   8.9639   8.9730
     8.9832   9.0838   9.1201   9.1214   9.1284   9.1358   9.1550   9.1572
     9.1864   9.1973   9.2084   9.2656   9.2860   9.2965   9.3086   9.3587
     9.3627   9.3668   9.3700   9.3733   9.3756   9.3822   9.3934   9.4312
     9.4397   9.4459   9.4494   9.4535   9.4671   9.4706   9.4851   9.5789
     9.5815   9.5887   9.5899   9.5936   9.6016   9.6666   9.6688   9.6735
     9.6760   9.6768   9.6854   9.7393   9.7624   9.7711   9.8007   9.8498
     9.8504   9.9079   9.9093   9.9490   9.9518   9.9532  10.0076  10.0292
    10.1136  10.1308  10.1396  10.1505  10.2896  10.2918  10.2959  10.3000
    10.3027  10.3033  10.3066  10.3086  10.3092  10.3278  10.3429  10.3445
    10.3450  10.3464  10.3516  10.3561  10.3597  10.3687  10.3830  10.3838
    10.4006  10.5101  10.5200  10.5775  10.5979  10.6304  10.6383  10.6537
    10.6751  10.7849  10.7870  10.8132  10.8164  10.8192  10.8277  10.8417
    10.8449  10.8535  10.8578  10.8726  10.8741  10.8785  10.8855  10.8907
    10.9023  10.9222  11.0180  11.0217  11.0904  11.0923  11.2120  11.2222
    11.2239  11.2254  11.2759  11.2845  11.3002  11.3282  11.3538  11.3545
    11.3568  11.3740  11.3818  11.3835  11.3924  11.3942  11.4032  11.4104
    11.4161  11.4461  11.5505  11.5895  11.5919  11.5956  11.5980  11.6011
    11.6300  11.6787  11.7011  11.7023  11.7269  11.7301  11.7447  11.7483
    11.8327  11.8357  11.8463  11.8650  11.8707  11.9158  11.9272  11.9502
    11.9602  12.0151  12.0891  12.0994  12.1015  12.1017  12.1060  12.1427
    12.1450  12.1471  12.1484  12.1635  12.1692  12.1713  12.1847  12.2191
    12.2368  12.2440  12.3117  12.3197  12.3443  12.3691  12.3816  12.4079
    12.4311  12.4341  12.4392  12.4789  12.4909  12.4958  12.5039  12.5058
    12.5238  12.5253  12.5367  12.5570  12.5723  12.6167  12.6291  12.7008
    12.7104  12.7470  12.7486  12.7593  12.9767  13.0000  13.0631  13.0783
    13.1309  13.1368  13.1773  13.1926  13.3376  13.7692  13.7824  13.7884
    13.8218  13.9411  13.9601  14.2460  14.2776  14.3160  14.3380  14.5090
    14.8019  14.8629  14.9347  14.9891  15.0023  15.1159  15.1635  15.2475
    15.2773  15.3538  15.3553  15.3721  15.4780  15.4941  15.5208  15.5807
    15.6267  15.6469  15.6804  15.7891  15.8375  15.8449  15.9514  15.9804
    16.0450  16.0783  16.0919  16.1046  16.1296  16.1552  16.1843  16.1874
    16.2200  16.2603  16.2978  16.3001  16.3205  16.3536  16.3645  16.3812
    16.4306  16.5374  16.5580  16.6169  16.6556  16.6566  16.7276  16.8575
    16.9958  17.0309  17.1737  17.1988  17.2045  17.2302  17.2378  17.2552
    17.4971  17.5245  17.8667  17.9171  17.9245  17.9314  17.9672  18.1148
    18.2287  18.2794  18.3608  18.9754  19.0045  19.0319  19.1785  19.2188

          k = 0.0000 0.0000-0.5734 ( 31692 PWs)   bands (ev):

   -66.7871 -66.7462 -66.7444 -66.6839 -66.6692 -66.6640 -66.6371 -66.6031
   -66.5530 -62.4201 -62.4091 -62.3732 -62.3644 -62.3577 -62.3522 -62.3407
   -62.3390 -62.2865 -35.5463 -35.5242 -35.5177 -35.5079 -35.4991 -35.4961
   -35.4949 -35.4686 -35.4625 -35.4437 -35.4263 -35.4259 -35.4234 -35.4208
   -35.4126 -35.4117 -35.3985 -35.3929 -35.3924 -35.3882 -35.3599 -35.3520
   -35.3472 -35.3341 -35.3138 -35.2951 -35.2875 -31.2581 -31.2525 -31.2475
   -31.2328 -31.2265 -31.2259 -31.2170 -31.2044 -31.1976 -31.1952 -31.1940
   -31.1929 -31.1807 -31.1800 -31.1782 -31.1781 -31.1766 -31.1732 -31.1724
   -31.1669 -31.1628 -31.1584 -31.1563 -31.1444 -31.1363 -31.1115 -31.0918
     6.1552   6.2137   7.5330   7.5403   7.5663   7.5814   7.5841   7.6006
     7.6137   7.6393   8.3074   8.3175   8.3291   8.3405   8.3633   8.3747
     8.3797   8.3945   8.4570   8.4659   8.4665   8.4734   8.4961   8.4984
     8.5103   8.5122   8.6925   8.7175   8.7442   8.7987   8.9428   8.9523
     8.9718   8.9724   8.9728   8.9768   8.9794   9.0022   9.0065   9.0269
     9.0278   9.0415   9.0458   9.0664   9.0786   9.0977   9.1889   9.1963
     9.2316   9.2366   9.2387   9.2459   9.2669   9.2780   9.2822   9.2833
     9.2858   9.2926   9.2938   9.2971   9.3075   9.3167   9.4135   9.4154
     9.4205   9.4229   9.4283   9.4304   9.4512   9.4597   9.4678   9.4778
     9.4833   9.4850   9.4881   9.4974   9.5445   9.5480   9.6200   9.7018
     9.7829   9.7888   9.7968   9.8033   9.8046   9.8193   9.8296   9.8468
     9.8709   9.8778   9.8793   9.8832   9.8848   9.8883   9.8908   9.8913
    10.0554  10.0581  10.0627  10.0656  10.1339  10.1472  10.1504  10.1534
    10.1619  10.1928  10.1944  10.1985  10.2031  10.2197  10.3398  10.3643
    10.3828  10.3873  10.3974  10.4004  10.4097  10.4322  10.4539  10.5283
    10.5908  10.5912  10.6048  10.6082  10.6308  10.6397  10.6548  10.6631
    10.6739  10.6955  10.7124  10.7211  10.7611  10.7772  10.8160  10.8794
    10.9210  10.9715  10.9955  11.0060  11.0436  11.0522  11.0584  11.0728
    11.0754  11.0873  11.1056  11.1356  11.1437  11.1610  11.1837  11.1943
    11.2138  11.2370  11.2514  11.2528  11.2556  11.2560  11.2569  11.2672
    11.2680  11.2716  11.2778  11.2842  11.2963  11.3007  11.3010  11.3011
    11.3127  11.3162  11.3246  11.3264  11.5279  11.5993  11.7050  11.7140
    11.7145  11.7160  11.7182  11.7243  11.7271  11.7302  11.7360  11.7624
    11.7642  11.7662  11.7714  11.8072  11.8111  11.8130  11.8460  11.9348
    11.9366  11.9668  11.9691  12.0049  12.0383  12.0437  12.0553  12.0683
    12.1523  12.1541  12.2119  12.2450  12.2519  12.2769  12.3158  12.3812
    12.4106  12.4161  12.4337  12.4404  12.4521  12.4778  12.4894  12.4989
    12.5062  12.5091  12.5301  12.5368  12.5420  12.5625  12.5717  12.6231
    12.6231  12.6763  12.7442  12.7786  12.7809  12.8074  12.8671  12.8710
    12.9587  13.0049  13.0389  13.0987  13.1461  13.1577  13.1754  13.2087
    13.2159  13.2247  13.3051  13.4257  13.4849  13.5156  13.6332  13.7065
    13.9645  13.9717  13.9756  14.0745  14.1192  14.1402  14.2825  14.3106
    14.5730  14.8968  14.9133  14.9359  14.9581  15.0349  15.0967  15.1094
    15.1660  15.1695  15.2252  15.2533  15.3343  15.3546  15.3666  15.5376
    15.6174  15.6876  15.7168  15.7464  15.8136  15.9070  15.9170  16.0558
    16.0851  16.0904  16.1155  16.1370  16.1660  16.1843  16.1972  16.2028
    16.2125  16.2265  16.2419  16.2704  16.2729  16.2927  16.2992  16.3371
    16.3586  16.4591  16.4778  16.5283  16.6655  16.7138  16.7397  16.7587
    16.8828  16.8895  17.2166  17.2973  17.3392  17.3931  17.5178  17.5618
    17.5638  17.5845  17.6424  17.6764  17.7319  17.7382  17.8417  17.8721
    17.9158  17.9723  18.1037  18.1987  18.2136  18.2619  18.3104  18.3597

          k = 0.0000-0.5000 0.0000 ( 31722 PWs)   bands (ev):

   -66.7871 -66.7462 -66.7444 -66.6839 -66.6692 -66.6640 -66.6371 -66.6031
   -66.5530 -62.4201 -62.4091 -62.3732 -62.3644 -62.3577 -62.3522 -62.3407
   -62.3390 -62.2865 -35.5463 -35.5242 -35.5177 -35.5079 -35.4991 -35.4961
   -35.4949 -35.4686 -35.4625 -35.4437 -35.4263 -35.4259 -35.4234 -35.4208
   -35.4126 -35.4117 -35.3985 -35.3929 -35.3924 -35.3882 -35.3598 -35.3521
   -35.3472 -35.3341 -35.3138 -35.2951 -35.2875 -31.2583 -31.2528 -31.2469
   -31.2327 -31.2265 -31.2260 -31.2170 -31.2044 -31.1976 -31.1952 -31.1941
   -31.1929 -31.1807 -31.1800 -31.1782 -31.1781 -31.1766 -31.1732 -31.1724
   -31.1669 -31.1628 -31.1584 -31.1563 -31.1444 -31.1363 -31.1115 -31.0918
     6.0268   6.0583   7.4016   7.4406   7.4546   7.4914   7.6706   7.6805
     8.1028   8.1177   8.1434   8.1693   8.1991   8.2346   8.2441   8.2741
     8.3851   8.4296   8.4493   8.4852   8.6130   8.6223   8.6491   8.6515
     8.6722   8.6776   8.6888   8.7045   8.7532   8.8038   8.8163   8.8300
     8.8555   8.8661   8.8713   8.8920   8.9057   8.9099   8.9177   8.9204
     8.9268   8.9293   8.9357   8.9532   9.0427   9.0552   9.1550   9.1752
     9.1942   9.2018   9.2084   9.2294   9.2340   9.2407   9.3126   9.3339
     9.3562   9.3719   9.3774   9.4138   9.4733   9.4749   9.4893   9.5084
     9.5279   9.5377   9.5604   9.5738   9.5780   9.5951   9.6092   9.6153
     9.6177   9.6219   9.6290   9.6362   9.6366   9.6390   9.6417   9.6460
     9.6533   9.6646   9.6708   9.6800   9.6988   9.7080   9.7172   9.7355
     9.7499   9.7540   9.7564   9.7745   9.8962   9.9021   9.9154   9.9851
    10.0072  10.0437  10.1526  10.1937  10.2093  10.2248  10.2491  10.2537
    10.2669  10.2705  10.2731  10.2747  10.2841  10.2854  10.3318  10.3556
    10.3599  10.3786  10.3839  10.3936  10.4216  10.4408  10.4512  10.4822
    10.4872  10.5096  10.5268  10.5460  10.5555  10.5775  10.5862  10.5886
    10.5981  10.6578  10.6728  10.6916  10.7090  10.7231  10.7546  10.7664
    10.8008  10.8171  10.8303  10.8488  10.8540  10.8747  10.8908  10.9318
    10.9576  10.9977  11.0214  11.0334  11.0444  11.0951  11.1652  11.1831
    11.2941  11.3452  11.3492  11.3668  11.3713  11.3824  11.4041  11.4066
    11.4179  11.4457  11.4630  11.4845  11.4911  11.5310  11.5367  11.5559
    11.5713  11.6041  11.6107  11.6189  11.6338  11.6475  11.6939  11.7453
    11.7510  11.7714  11.7888  11.7939  11.8158  11.8325  11.8480  11.8635
    11.8654  11.8910  11.9068  11.9166  11.9403  11.9570  11.9601  11.9710
    11.9759  11.9801  11.9829  12.0138  12.0943  12.1411  12.1469  12.1582
    12.1882  12.1923  12.2008  12.2337  12.2400  12.2483  12.2673  12.2753
    12.2798  12.2907  12.3468  12.3478  12.3607  12.3952  12.4017  12.4197
    12.4345  12.4462  12.4563  12.4616  12.4799  12.4950  12.5542  12.5720
    12.5888  12.5934  12.6053  12.6353  12.6442  12.6802  12.7020  12.7968
    12.8844  12.9453  12.9718  13.0073  13.0443  13.0685  13.1035  13.1302
    13.1377  13.1995  13.2198  13.2248  13.2751  13.2805  13.3147  13.3296
    13.4424  13.4645  13.5127  13.6699  13.6775  14.3219  14.4530  14.5463
    14.6321  14.7405  14.8223  14.8324  14.8477  14.9001  14.9414  14.9659
    14.9981  15.1525  15.2178  15.3217  15.3237  15.4415  15.5078  15.5216
    15.6533  15.7148  15.7684  15.8116  15.8452  15.8649  15.8958  15.9598
    16.0183  16.0361  16.0512  16.1067  16.1218  16.1278  16.1603  16.1797
    16.2028  16.2174  16.2208  16.2714  16.2952  16.3028  16.3791  16.3915
    16.3962  16.5070  16.5535  16.6418  16.6939  16.8130  17.0181  17.0634
    17.1642  17.2162  17.2351  17.3326  17.3790  17.5038  17.6071  17.6305
    17.6622  17.7364  17.8004  17.8271  17.8429  17.8555  17.9498  17.9518
    18.0115  18.0695  18.1541  18.2258  19.2526  19.3160  19.3164  19.3412

          k = 0.0000-0.5000-0.5734 ( 31696 PWs)   bands (ev):

   -66.7871 -66.7462 -66.7444 -66.6839 -66.6692 -66.6640 -66.6371 -66.6031
   -66.5530 -62.4201 -62.4091 -62.3732 -62.3644 -62.3577 -62.3522 -62.3407
   -62.3390 -62.2865 -35.5463 -35.5242 -35.5177 -35.5079 -35.4991 -35.4961
   -35.4949 -35.4686 -35.4625 -35.4437 -35.4263 -35.4259 -35.4234 -35.4208
   -35.4126 -35.4117 -35.3985 -35.3929 -35.3924 -35.3882 -35.3598 -35.3521
   -35.3472 -35.3341 -35.3138 -35.2951 -35.2875 -31.2583 -31.2528 -31.2469
   -31.2327 -31.2265 -31.2260 -31.2170 -31.2044 -31.1976 -31.1952 -31.1941
   -31.1929 -31.1807 -31.1800 -31.1782 -31.1781 -31.1766 -31.1732 -31.1724
   -31.1669 -31.1628 -31.1584 -31.1563 -31.1444 -31.1363 -31.1115 -31.0918
     6.5187   6.5782   6.5937   6.6443   7.8329   7.8433   7.8566   7.8722
     7.9104   7.9223   7.9321   7.9462   8.2667   8.2780   8.2977   8.3042
     8.5098   8.5227   8.5353   8.5374   8.6572   8.6743   8.6799   8.6867
     8.6883   8.6906   8.7013   8.7114   8.7187   8.7397   8.7424   8.7499
     8.7535   8.7735   8.7814   8.8167   8.9431   9.0048   9.0075   9.0314
     9.0387   9.0519   9.0555   9.0694   9.1745   9.2030   9.2127   9.2155
     9.2219   9.2225   9.2295   9.2331   9.2452   9.2459   9.2509   9.2520
     9.2651   9.2726   9.2816   9.2858   9.2957   9.3579   9.3810   9.4044
     9.4073   9.4225   9.4517   9.4589   9.4625   9.4673   9.4676   9.4790
     9.4824   9.4970   9.5125   9.5234   9.5241   9.5506   9.5539   9.5578
     9.5675   9.6118   9.7526   9.7588   9.7880   9.7932   9.8084   9.8151
     9.8344   9.8352   9.8523   9.8531   9.8572   9.8614   9.8636   9.8856
     9.9469   9.9633   9.9975  10.0027  10.0331  10.0408  10.0559  10.0630
    10.3556  10.3771  10.3879  10.3918  10.4041  10.4174  10.4297  10.4315
    10.4650  10.4770  10.4784  10.4797  10.4824  10.4907  10.4962  10.5127
    10.5398  10.5582  10.5637  10.5795  10.5915  10.5956  10.6176  10.6258
    10.6651  10.6660  10.6746  10.6764  10.6768  10.6846  10.7119  10.7186
    10.7386  10.8212  10.8485  10.8712  10.9729  10.9908  11.0255  11.0813
    11.1139  11.1301  11.1366  11.1556  11.1811  11.1861  11.1915  11.2028
    11.2100  11.2129  11.2785  11.3384  11.3437  11.3448  11.3622  11.3740
    11.3784  11.3920  11.4099  11.4142  11.4439  11.4799  11.4882  11.5152
    11.5189  11.5543  11.5667  11.5687  11.5760  11.5781  11.6086  11.6145
    11.6384  11.6416  11.7152  11.7203  11.7536  11.7606  11.7951  11.8393
    11.8841  11.9115  11.9134  11.9471  11.9633  11.9684  12.0027  12.0033
    12.0150  12.0209  12.0291  12.0351  12.0380  12.0420  12.1099  12.1190
    12.1596  12.1722  12.1985  12.2200  12.2549  12.2960  12.2966  12.3516
    12.3619  12.3685  12.3868  12.4007  12.4417  12.4500  12.4566  12.4902
    12.5010  12.5082  12.5129  12.5129  12.5201  12.5526  12.5804  12.5809
    12.6358  12.6382  12.6444  12.6556  12.7069  12.7080  12.7611  12.7939
    12.8438  12.8499  12.9384  12.9438  12.9821  12.9975  13.0261  13.0392
    13.1889  13.2566  13.4130  13.5200  13.5314  13.6697  13.7097  13.7527
    13.9028  14.0165  14.0192  14.0948  14.1058  14.1439  14.2184  14.3104
    14.3353  14.5391  14.5675  14.5796  14.5826  14.7053  14.7571  15.0151
    15.0797  15.2717  15.3017  15.3359  15.3645  15.4496  15.5242  15.5574
    15.6286  15.6651  15.7611  15.7697  15.8640  15.8700  15.9222  16.0148
    16.0571  16.1022  16.1075  16.1585  16.1640  16.1777  16.2217  16.2331
    16.2596  16.2852  16.3051  16.3129  16.3284  16.3643  16.3644  16.4635
    16.5034  16.5653  16.5669  16.5946  16.6307  16.6463  16.6956  16.7010
    16.7634  16.7692  16.8162  16.8717  16.8785  16.9000  16.9875  16.9877
    17.0821  17.1542  17.1557  17.2206  18.6001  18.6937  18.7112  18.7374
    18.7467  18.7784  18.7896  18.8489  18.8929  18.9089  18.9533  19.0052

          k =-0.5000-0.5000 0.0000 ( 31612 PWs)   bands (ev):

   -66.7871 -66.7462 -66.7444 -66.6839 -66.6692 -66.6640 -66.6371 -66.6031
   -66.5530 -62.4201 -62.4091 -62.3732 -62.3644 -62.3577 -62.3522 -62.3407
   -62.3390 -62.2865 -35.5463 -35.5242 -35.5178 -35.5079 -35.4991 -35.4961
   -35.4949 -35.4686 -35.4625 -35.4437 -35.4263 -35.4259 -35.4234 -35.4208
   -35.4126 -35.4117 -35.3985 -35.3929 -35.3924 -35.3882 -35.3598 -35.3521
   -35.3472 -35.3341 -35.3138 -35.2951 -35.2875 -31.2583 -31.2528 -31.2469
   -31.2328 -31.2265 -31.2260 -31.2170 -31.2044 -31.1976 -31.1952 -31.1941
   -31.1929 -31.1807 -31.1800 -31.1782 -31.1781 -31.1764 -31.1729 -31.1724
   -31.1672 -31.1628 -31.1584 -31.1563 -31.1444 -31.1363 -31.1115 -31.0918
     6.4140   6.4329   6.4380   6.4750   8.0082   8.0153   8.0208   8.0224
     8.0886   8.1230   8.2960   8.3218   8.3271   8.3335   8.3402   8.3460
     8.3508   8.3534   8.3540   8.3595   8.3649   8.3862   8.5680   8.5994
     8.6493   8.6652   8.6768   8.6960   8.7152   8.7236   8.7352   8.7440
     8.7493   8.7963   8.9164   8.9202   8.9747   8.9751   8.9774   8.9780
     8.9834   8.9907   8.9937   9.0024   9.0039   9.0335   9.0411   9.0472
     9.1101   9.1346   9.3061   9.3127   9.3167   9.3227   9.4013   9.4087
     9.4155   9.4173   9.4198   9.4263   9.4275   9.4318   9.4472   9.4558
     9.4614   9.4757   9.4757   9.4811   9.4840   9.4854   9.4927   9.5048
     9.5163   9.5192   9.5299   9.5400   9.5425   9.5676   9.5753   9.5959
     9.5984   9.6101   9.6972   9.6996   9.7685   9.8175   9.8248   9.8255
     9.8318   9.8334   9.8348   9.8395   9.8444   9.8677  10.0444  10.0619
    10.0736  10.1046  10.1116  10.1284  10.1383  10.1405  10.1563  10.1729
    10.1789  10.1923  10.2022  10.2041  10.2154  10.2202  10.2262  10.2285
    10.2319  10.2371  10.2487  10.2534  10.4562  10.4701  10.4882  10.4920
    10.4960  10.4996  10.5044  10.5367  10.6297  10.6369  10.6399  10.6480
    10.6637  10.6686  10.6724  10.6770  10.6908  10.6926  10.6949  10.7037
    10.7141  10.7327  10.7895  10.8114  10.8298  10.8420  10.8631  10.8803
    10.9233  10.9363  11.1967  11.2094  11.2127  11.2228  11.3072  11.3119
    11.3366  11.3411  11.3476  11.3588  11.3971  11.3995  11.5438  11.5517
    11.5867  11.6241  11.6339  11.6404  11.6407  11.6433  11.6466  11.6486
    11.6522  11.6526  11.6958  11.7225  11.7347  11.7528  11.7604  11.8520
    11.8727  11.8765  11.8784  11.8804  11.8834  11.8884  11.9896  12.0135
    12.0212  12.0262  12.0766  12.0899  12.0912  12.1056  12.1092  12.1099
    12.1111  12.1142  12.1154  12.1194  12.1378  12.1506  12.1706  12.1795
    12.1872  12.1872  12.2021  12.2059  12.2192  12.2240  12.2334  12.2443
    12.2543  12.2633  12.2777  12.2834  12.2850  12.2931  12.3026  12.3214
    12.3769  12.4282  12.4402  12.4467  12.4695  12.4770  12.4843  12.4943
    12.5113  12.5355  12.5727  12.5812  12.5989  12.6187  12.6377  12.6825
    12.7139  12.7457  12.7981  12.8813  12.8876  12.9143  12.9539  12.9556
    12.9617  12.9636  12.9885  13.0278  13.0724  13.5528  13.6722  13.6743
    13.7218  13.7975  13.8134  13.8277  13.8827  13.9299  14.0341  14.0971
    14.1822  14.2778  14.2955  14.3433  14.5238  14.6607  14.8653  14.8899
    15.0980  15.1949  15.1983  15.2951  15.3746  15.5127  15.5672  15.7355
    15.7953  15.7979  15.8469  15.8710  15.8864  15.8893  15.9179  15.9376
    15.9450  15.9567  15.9929  16.0076  16.0904  16.1275  16.1333  16.1631
    16.1890  16.2546  16.3163  16.3553  16.3605  16.3871  16.4010  16.4137
    16.4660  16.4695  16.5007  16.6650  16.6842  16.7090  16.7256  16.7503
    16.7848  16.8230  16.9197  16.9728  17.3836  17.3923  17.6340  18.0225
    18.1459  18.1982  18.2045  18.2374  18.2804  18.4481  18.4688  18.5371
    18.5927  18.6202  18.6560  18.6726  18.7711  18.7861  18.7939  18.8029

          k =-0.5000-0.5000-0.5734 ( 31672 PWs)   bands (ev):

   -66.7871 -66.7462 -66.7444 -66.6839 -66.6692 -66.6640 -66.6371 -66.6031
   -66.5530 -62.4201 -62.4091 -62.3732 -62.3644 -62.3577 -62.3522 -62.3407
   -62.3390 -62.2865 -35.5463 -35.5242 -35.5178 -35.5079 -35.4991 -35.4961
   -35.4949 -35.4686 -35.4625 -35.4437 -35.4263 -35.4259 -35.4234 -35.4208
   -35.4126 -35.4117 -35.3985 -35.3929 -35.3924 -35.3882 -35.3598 -35.3521
   -35.3472 -35.3341 -35.3138 -35.2951 -35.2875 -31.2583 -31.2528 -31.2469
   -31.2328 -31.2265 -31.2260 -31.2170 -31.2044 -31.1976 -31.1952 -31.1941
   -31.1929 -31.1807 -31.1800 -31.1782 -31.1781 -31.1764 -31.1729 -31.1724
   -31.1672 -31.1628 -31.1584 -31.1563 -31.1444 -31.1363 -31.1115 -31.0918
     6.8808   6.9143   6.9230   6.9467   6.9973   7.0156   7.0262   7.0474
     8.4447   8.4669   8.4705   8.4815   8.4872   8.4919   8.4924   8.4954
     8.4982   8.5009   8.5130   8.5159   8.5373   8.5415   8.5441   8.5708
     8.5740   8.5781   8.5835   8.6215   8.8744   8.8746   8.8897   8.8920
     8.8976   8.9199   8.9368   8.9413   9.0824   9.1026   9.1162   9.1228
     9.1243   9.1419   9.1466   9.1491   9.1544   9.1564   9.1600   9.1630
     9.1661   9.1679   9.1708   9.1726   9.1729   9.1749   9.1767   9.1793
     9.1797   9.1821   9.1944   9.1993   9.2006   9.2055   9.2097   9.2137
     9.2268   9.2320   9.2431   9.2451   9.2574   9.2612   9.2651   9.2832
     9.5453   9.5491   9.5579   9.5704   9.5769   9.5960   9.6036   9.6264
     9.6421   9.6639   9.6752   9.6755   9.7298   9.7402   9.7530   9.7871
     9.8132   9.8260   9.8425   9.8568   9.8799   9.8842   9.8910   9.8974
    10.1133  10.1208  10.1494  10.1540  10.1650  10.1721  10.1902  10.1985
    10.2834  10.3222  10.4369  10.4578  10.4589  10.4680  10.4805  10.4815
    10.4866  10.4869  10.4940  10.4995  10.5032  10.5114  10.5131  10.5193
    10.5233  10.5247  10.5415  10.5461  10.5696  10.5702  10.5865  10.6012
    10.6015  10.6267  10.6384  10.6385  10.6522  10.6551  10.6661  10.6844
    10.6865  10.6880  10.6991  10.7109  10.7147  10.7279  11.0190  11.0419
    11.0711  11.0793  11.0803  11.0859  11.1273  11.1432  11.3789  11.3872
    11.3905  11.3995  11.4021  11.4327  11.4385  11.4441  11.4554  11.4793
    11.4796  11.4905  11.5009  11.5042  11.5168  11.5450  11.6058  11.6211
    11.6411  11.6479  11.6526  11.6685  11.6734  11.6954  11.6972  11.7181
    11.7215  11.7274  11.7342  11.7606  11.7648  11.7671  11.7790  11.7833
    11.8028  11.8083  11.8184  11.8330  11.8368  11.9421  11.9637  12.0014
    12.0176  12.0262  12.0885  12.1036  12.1205  12.1305  12.1366  12.1482
    12.1585  12.2037  12.2084  12.2206  12.2391  12.2481  12.2704  12.3190
    12.3566  12.3735  12.4051  12.4267  12.4354  12.4464  12.4470  12.4504
    12.4776  12.4975  12.5073  12.5330  12.5435  12.5533  12.5870  12.6231
    12.6446  12.6714  12.6740  12.6779  12.7012  12.7622  12.7905  12.8041
    12.9121  12.9506  12.9650  12.9730  13.0556  13.1273  13.1501  13.1866
    13.2477  13.2747  13.2918  13.3317  13.3591  13.4959  13.4986  13.5032
    13.5163  13.6037  13.7629  13.7882  13.9129  14.0539  14.0837  14.1608
    14.1873  14.2088  14.4154  14.5533  14.6917  14.7529  14.8627  14.9608
    14.9735  15.3060  15.3162  15.3651  15.4304  15.6225  15.6511  15.6558
    15.7040  15.7220  15.7611  15.8395  15.8623  15.8683  15.9107  15.9484
    15.9623  15.9923  16.0846  16.1188  16.1393  16.1547  16.1626  16.2119
    16.2182  16.2511  16.2816  16.3598  16.4132  16.4421  16.4603  16.4901
    16.5222  16.5466  16.5779  16.6102  16.6475  16.6832  16.6896  16.7308
    16.7404  16.8211  16.8476  16.8878  16.9049  16.9489  16.9937  17.0241
    17.0883  17.1186  17.5904  17.7492  17.9083  17.9588  18.9988  19.0091
    19.0201  19.0634  19.0679  19.1068  19.1733  19.2040  19.2708  19.2866

          k =-0.5000 0.0000 0.0000 ( 31722 PWs)   bands (ev):

   -66.7871 -66.7462 -66.7444 -66.6839 -66.6692 -66.6640 -66.6371 -66.6031
   -66.5530 -62.4201 -62.4091 -62.3732 -62.3644 -62.3577 -62.3522 -62.3407
   -62.3390 -62.2865 -35.5463 -35.5242 -35.5178 -35.5079 -35.4991 -35.4961
   -35.4949 -35.4686 -35.4625 -35.4437 -35.4263 -35.4259 -35.4234 -35.4208
   -35.4126 -35.4117 -35.3985 -35.3929 -35.3924 -35.3882 -35.3599 -35.3520
   -35.3472 -35.3341 -35.3138 -35.2951 -35.2875 -31.2581 -31.2525 -31.2475
   -31.2328 -31.2265 -31.2259 -31.2170 -31.2044 -31.1976 -31.1952 -31.1940
   -31.1929 -31.1807 -31.1800 -31.1782 -31.1781 -31.1764 -31.1729 -31.1724
   -31.1672 -31.1628 -31.1584 -31.1563 -31.1444 -31.1363 -31.1115 -31.0918
     6.0277   6.0577   7.4070   7.4319   7.4474   7.5006   7.6718   7.6799
     8.1019   8.1158   8.1424   8.1742   8.1935   8.2343   8.2525   8.2755
     8.3930   8.4114   8.4482   8.4948   8.6110   8.6289   8.6394   8.6513
     8.6685   8.6794   8.6843   8.7146   8.7554   8.8033   8.8243   8.8381
     8.8530   8.8644   8.8698   8.8775   8.9026   8.9066   8.9151   8.9191
     8.9270   8.9345   8.9378   8.9577   9.0461   9.0528   9.1562   9.1708
     9.1827   9.2036   9.2128   9.2236   9.2405   9.2442   9.3145   9.3342
     9.3451   9.3668   9.3866   9.4193   9.4709   9.4773   9.4876   9.4991
     9.5318   9.5356   9.5580   9.5733   9.5849   9.6052   9.6121   9.6159
     9.6192   9.6219   9.6269   9.6309   9.6319   9.6372   9.6467   9.6475
     9.6559   9.6600   9.6711   9.6793   9.7052   9.7115   9.7117   9.7356
     9.7366   9.7417   9.7715   9.7797   9.8928   9.9052   9.9151   9.9825
    10.0174  10.0334  10.1499  10.1972  10.2098  10.2243  10.2487  10.2551
    10.2677  10.2685  10.2696  10.2722  10.2862  10.2902  10.3358  10.3517
    10.3691  10.3785  10.3843  10.3915  10.4209  10.4413  10.4555  10.4772
    10.4945  10.5125  10.5261  10.5290  10.5580  10.5689  10.5786  10.5961
    10.6043  10.6515  10.6858  10.6883  10.7180  10.7363  10.7459  10.7625
    10.8070  10.8241  10.8270  10.8495  10.8532  10.8722  10.8850  10.9331
    10.9520  11.0070  11.0145  11.0197  11.0482  11.0945  11.1674  11.1881
    11.2840  11.3458  11.3496  11.3595  11.3746  11.3916  11.4060  11.4079
    11.4219  11.4572  11.4637  11.4725  11.4904  11.5175  11.5495  11.5503
    11.5689  11.5904  11.6030  11.6301  11.6423  11.6680  11.6883  11.7352
    11.7417  11.7663  11.7849  11.8066  11.8190  11.8472  11.8518  11.8697
    11.8756  11.8829  11.9098  11.9283  11.9344  11.9527  11.9553  11.9635
    11.9784  11.9789  11.9907  12.0121  12.0767  12.1144  12.1565  12.1698
    12.1937  12.1995  12.2126  12.2308  12.2414  12.2477  12.2652  12.2770
    12.2874  12.2915  12.3017  12.3410  12.3418  12.3909  12.4009  12.4165
    12.4364  12.4604  12.4624  12.4836  12.4922  12.5103  12.5224  12.5596
    12.5888  12.6051  12.6155  12.6159  12.6392  12.7115  12.7448  12.7613
    12.8298  12.9301  12.9777  13.0101  13.0536  13.0594  13.1374  13.1546
    13.1600  13.1890  13.2036  13.2292  13.2488  13.2859  13.3182  13.3361
    13.4530  13.4619  13.4969  13.6667  13.6732  14.3142  14.5351  14.5842
    14.6581  14.7335  14.7721  14.7739  14.8291  14.8835  14.9186  14.9588
    15.0442  15.0746  15.1590  15.3054  15.4306  15.4627  15.5462  15.5647
    15.6892  15.7159  15.7506  15.7738  15.8369  15.8647  15.9244  16.0015
    16.0352  16.0441  16.0607  16.0703  16.0920  16.1354  16.1679  16.1838
    16.1901  16.2127  16.2209  16.2346  16.2395  16.2484  16.3696  16.4270
    16.4577  16.4842  16.5325  16.6581  16.7195  16.8350  16.9640  17.0473
    17.1581  17.2065  17.2444  17.3204  17.4390  17.5269  17.6131  17.6258
    17.7092  17.7765  17.7877  17.8042  17.8161  17.8304  17.9306  17.9528
    18.0217  18.0368  18.1583  18.2457  19.2415  19.3201  19.3244  19.3401

          k =-0.5000 0.0000 0.5734 ( 31696 PWs)   bands (ev):

   -66.7871 -66.7462 -66.7444 -66.6839 -66.6692 -66.6640 -66.6371 -66.6031
   -66.5530 -62.4201 -62.4091 -62.3732 -62.3644 -62.3577 -62.3522 -62.3407
   -62.3390 -62.2865 -35.5463 -35.5242 -35.5178 -35.5079 -35.4991 -35.4961
   -35.4949 -35.4686 -35.4625 -35.4437 -35.4263 -35.4259 -35.4234 -35.4208
   -35.4126 -35.4117 -35.3985 -35.3929 -35.3924 -35.3882 -35.3599 -35.3520
   -35.3472 -35.3341 -35.3138 -35.2951 -35.2875 -31.2581 -31.2525 -31.2475
   -31.2328 -31.2265 -31.2259 -31.2170 -31.2044 -31.1976 -31.1952 -31.1940
   -31.1929 -31.1807 -31.1800 -31.1782 -31.1781 -31.1764 -31.1729 -31.1724
   -31.1672 -31.1628 -31.1584 -31.1563 -31.1444 -31.1363 -31.1115 -31.0918
     6.5233   6.5831   6.5885   6.6392   7.8311   7.8522   7.8605   7.8694
     7.9094   7.9194   7.9299   7.9439   8.2663   8.2801   8.2985   8.3030
     8.5104   8.5244   8.5343   8.5360   8.6532   8.6750   8.6754   8.6844
     8.6909   8.6975   8.6997   8.7113   8.7163   8.7368   8.7372   8.7512
     8.7580   8.7786   8.7815   8.8176   8.9471   9.0040   9.0052   9.0340
     9.0367   9.0507   9.0543   9.0686   9.1867   9.2016   9.2123   9.2165
     9.2218   9.2218   9.2330   9.2342   9.2427   9.2431   9.2537   9.2555
     9.2617   9.2784   9.2808   9.2861   9.2899   9.3450   9.3807   9.4022
     9.4083   9.4221   9.4512   9.4576   9.4651   9.4663   9.4680   9.4789
     9.4882   9.5041   9.5096   9.5159   9.5276   9.5458   9.5545   9.5556
     9.5669   9.6072   9.7529   9.7586   9.7882   9.7926   9.8083   9.8151
     9.8303   9.8392   9.8479   9.8564   9.8590   9.8604   9.8722   9.8882
     9.9437   9.9678   9.9866  10.0014  10.0299  10.0461  10.0546  10.0687
    10.3650  10.3827  10.3993  10.3998  10.4111  10.4208  10.4264  10.4322
    10.4473  10.4721  10.4820  10.4832  10.4853  10.4894  10.4965  10.5039
    10.5309  10.5403  10.5731  10.5752  10.5832  10.5899  10.6227  10.6385
    10.6599  10.6612  10.6712  10.6721  10.6750  10.6907  10.7181  10.7212
    10.7406  10.8211  10.8498  10.8786  10.9677  10.9889  11.0331  11.0907
    11.1128  11.1287  11.1305  11.1533  11.1849  11.1910  11.1917  11.2026
    11.2104  11.2128  11.2838  11.3166  11.3318  11.3420  11.3632  11.3723
    11.3777  11.4000  11.4073  11.4230  11.4425  11.4779  11.4860  11.5161
    11.5259  11.5546  11.5719  11.5778  11.5804  11.5884  11.6007  11.6221
    11.6281  11.6317  11.7160  11.7265  11.7504  11.7608  11.8007  11.8389
    11.8830  11.9113  11.9293  11.9409  11.9504  11.9604  11.9996  12.0035
    12.0132  12.0278  12.0329  12.0367  12.0408  12.0440  12.0998  12.1133
    12.1545  12.1721  12.1883  12.2341  12.2499  12.2912  12.3030  12.3325
    12.3533  12.3618  12.3956  12.4016  12.4358  12.4512  12.4591  12.4632
    12.4894  12.5031  12.5269  12.5398  12.5585  12.5901  12.5921  12.6078
    12.6153  12.6380  12.6526  12.6556  12.6674  12.6888  12.8044  12.8114
    12.8339  12.8474  12.8937  12.9360  13.0147  13.0193  13.0216  13.0262
    13.2000  13.2087  13.3928  13.4415  13.5206  13.6261  13.7530  13.7638
    13.9517  13.9610  14.0327  14.1093  14.1557  14.2118  14.2550  14.3280
    14.4645  14.4735  14.5413  14.5695  14.6107  14.6125  14.6879  15.0211
    15.1011  15.1909  15.2841  15.3737  15.3856  15.4282  15.5398  15.5603
    15.6276  15.6815  15.7053  15.7525  15.7684  15.9681  16.0181  16.0575
    16.0775  16.0944  16.1349  16.1480  16.1707  16.1822  16.1883  16.2195
    16.2622  16.2699  16.2850  16.3134  16.3316  16.3782  16.4022  16.4870
    16.4876  16.5243  16.5421  16.5522  16.5809  16.6442  16.6971  16.7061
    16.7319  16.7828  16.8324  16.8618  16.8953  16.9769  16.9880  17.0149
    17.1012  17.1283  17.1411  17.2039  18.6033  18.6921  18.7036  18.7350
    18.7615  18.7805  18.8210  18.8486  18.8803  18.9028  18.9436  18.9689

     the Fermi energy is    14.8166 ev

!    total energy              =  -33062.60548308 Ry
     Harris-Foulkes estimate   =  -33062.60545921 Ry
     estimated scf accuracy    <       0.00000075 Ry

     total all-electron energy =  -1410574.695857 Ry

     The total energy is the sum of the following terms:

     one-electron contribution =   -1645.73647911 Ry
     hartree contribution      =    1489.93921316 Ry
     xc contribution           =   -1658.74395597 Ry
     ewald contribution        =   -4919.25534656 Ry
     one-center paw contrib.   =  -26328.80891461 Ry

     total magnetization       =     0.00 Bohr mag/cell
     absolute magnetization    =    78.65 Bohr mag/cell

     convergence has been achieved in  20 iterations

     Writing output data file mnau2.save
 
     init_run     :     52.08s CPU     52.84s WALL (       1 calls)
     electrons    :   3044.04s CPU   3097.90s WALL (       1 calls)

     Called by init_run:
     wfcinit      :     46.17s CPU     46.68s WALL (       1 calls)
     potinit      :      2.50s CPU      2.56s WALL (       1 calls)

     Called by electrons:
     c_bands      :   2719.19s CPU   2763.01s WALL (      20 calls)
     sum_band     :    272.04s CPU    278.05s WALL (      20 calls)
     v_of_rho     :      5.42s CPU      5.57s WALL (      21 calls)
     newd         :     17.14s CPU     19.55s WALL (      21 calls)
     PAW_pot      :     31.08s CPU     31.59s WALL (      21 calls)
     mix_rho      :      1.07s CPU      1.13s WALL (      20 calls)

     Called by c_bands:
     init_us_2    :     10.09s CPU     10.14s WALL (     656 calls)
     cegterg      :   2656.94s CPU   2699.95s WALL (     320 calls)

     Called by sum_band:
     sum_band:bec :      1.55s CPU      1.55s WALL (     320 calls)
     addusdens    :     30.09s CPU     32.88s WALL (      20 calls)

     Called by *egterg:
     h_psi        :    941.57s CPU    954.12s WALL (    1247 calls)
     s_psi        :    225.77s CPU    225.99s WALL (    1247 calls)
     g_psi        :      3.57s CPU      3.57s WALL (     911 calls)
     cdiaghg      :    953.65s CPU    954.22s WALL (    1231 calls)

     Called by h_psi:
     h_psi:pot    :    932.45s CPU    944.94s WALL (    1247 calls)
     h_psi:calbec :    228.11s CPU    230.52s WALL (    1247 calls)
     vloc_psi     :    475.54s CPU    485.36s WALL (    1247 calls)
     add_vuspsi   :    228.78s CPU    229.05s WALL (    1247 calls)

     General routines
     calbec       :    323.06s CPU    326.48s WALL (    1567 calls)
     fft          :      4.58s CPU      4.87s WALL (     641 calls)
     ffts         :      0.10s CPU      0.11s WALL (      82 calls)
     fftw         :    449.04s CPU    458.09s WALL (  727822 calls)
     interpolate  :      0.80s CPU      0.84s WALL (      82 calls)
 
     Parallel routines
     fft_scatt_xy :     55.14s CPU     56.12s WALL (  728545 calls)
     fft_scatt_yz :    124.11s CPU    128.01s WALL (  728545 calls)
 
     PWSCF        : 51m41.75s CPU    53m37.37s WALL

 
   This run was terminated on:   5: 2: 0   8Mar2019            

=------------------------------------------------------------------------------=
   JOB DONE.
=------------------------------------------------------------------------------=
