
     Program PWSCF v.6.2 (svn rev. 14038) starts on  8Mar2019 at 12: 8:51 

     This program is part of the open-source Quantum ESPRESSO suite
     for quantum simulation of materials; please cite
         "P. Giannozzi et al., J. Phys.:Condens. Matter 21 395502 (2009);
         "P. Giannozzi et al., J. Phys.:Condens. Matter 29 465901 (2017);
          URL http://www.quantum-espresso.org", 
     in publications or presentations arising from this work. More details at
     http://www.quantum-espresso.org/quote

     Parallel version (MPI), running on    16 processors

     MPI processes distributed on     1 nodes
     R & G space division:  proc/nbgrp/npool/nimage =      16
     Waiting for input...
     Reading input from standard input

     Current dimensions of program PWSCF are:
     Max number of different atomic species (ntypx) = 10
     Max number of k-points (npk) =  40000
     Max angular momentum in pseudopotentials (lmaxx) =  3
               file Mn.pbe-spn-kjpaw_psl.0.3.1.UPF: wavefunction(s)  3P 3D renormalized
               file Mn.pbe-spn-kjpaw_psl.0.3.1.UPF: wavefunction(s)  3P 3D renormalized
               file Au.pbe-dn-kjpaw_psl.0.1.UPF: wavefunction(s)  6S 6P 5D renormalized

     Subspace diagonalization in iterative solution of the eigenvalue problem:
     a serial algorithm will be used

     Found symmetry operation: I + ( -0.3333 -0.3333  0.0000)
     This is a supercell, fractional translations are disabled
 
     Parallelization info
     --------------------
     sticks:   dense  smooth     PW     G-vecs:    dense   smooth      PW
     Min         736     331     90                52486    15847    2256
     Max         737     332     91                52489    15850    2259
     Sum       11785    5297   1449               839803   253559   36125
 


     bravais-lattice index     =            0
     lattice parameter (alat)  =      19.2459  a.u.
     unit-cell volume          =    6216.1497 (a.u.)^3
     number of atoms/cell      =           54
     number of atomic types    =            3
     number of electrons       =       666.00
     number of Kohn-Sham states=          400
     kinetic-energy cutoff     =      45.0000  Ry
     charge density cutoff     =     400.0000  Ry
     convergence threshold     =      1.0E-06
     mixing beta               =       0.1000
     number of iterations used =            8  plain     mixing
     Exchange-correlation      = SLA PW PBX PBC ( 1  4  3  4 0 0)

     celldm(1)=  19.245946  celldm(2)=   0.000000  celldm(3)=   0.000000
     celldm(4)=   0.000000  celldm(5)=   0.000000  celldm(6)=   0.000000

     crystal axes: (cart. coord. in units of alat)
               a(1) = (   1.000000   0.000000   0.000000 )  
               a(2) = (   0.000000   1.000000   0.000000 )  
               a(3) = (   0.000000   0.000000   0.871974 )  

     reciprocal axes: (cart. coord. in units 2 pi/alat)
               b(1) = (  1.000000  0.000000  0.000000 )  
               b(2) = (  0.000000  1.000000  0.000000 )  
               b(3) = (  0.000000  0.000000  1.146823 )  


     PseudoPot. # 1 for Mn read from file:
     ./pseudo/Mn.pbe-spn-kjpaw_psl.0.3.1.UPF
     MD5 check sum: 7eef95dd2aae66803482eea66ebeebf1
     Pseudo is Projector augmented-wave + core cor, Zval = 15.0
     Generated using "atomic" code by A. Dal Corso v.5.0.99 svn rev. 10869
     Shape of augmentation charge: PSQ
     Using radial grid of 1187 points,  6 beta functions with: 
                l(1) =   0
                l(2) =   0
                l(3) =   1
                l(4) =   1
                l(5) =   2
                l(6) =   2
     Q(r) pseudized with 0 coefficients 


     PseudoPot. # 2 for Mn read from file:
     ./pseudo/Mn.pbe-spn-kjpaw_psl.0.3.1.UPF
     MD5 check sum: 7eef95dd2aae66803482eea66ebeebf1
     Pseudo is Projector augmented-wave + core cor, Zval = 15.0
     Generated using "atomic" code by A. Dal Corso v.5.0.99 svn rev. 10869
     Shape of augmentation charge: PSQ
     Using radial grid of 1187 points,  6 beta functions with: 
                l(1) =   0
                l(2) =   0
                l(3) =   1
                l(4) =   1
                l(5) =   2
                l(6) =   2
     Q(r) pseudized with 0 coefficients 


     PseudoPot. # 3 for Au read from file:
     ./pseudo/Au.pbe-dn-kjpaw_psl.0.1.UPF
     MD5 check sum: 5c9b92683623e7ae2ab3f8e525febab6
     Pseudo is Projector augmented-wave + core cor, Zval = 11.0
     Generated using "atomic" code by A. Dal Corso v.5.0.2 svn rev. 9415
     Shape of augmentation charge: PSQ
     Using radial grid of 1279 points,  6 beta functions with: 
                l(1) =   0
                l(2) =   0
                l(3) =   1
                l(4) =   1
                l(5) =   2
                l(6) =   2
     Q(r) pseudized with 0 coefficients 


     atomic species   valence    mass     pseudopotential
        Mn1           15.00    54.93800     Mn( 1.00)
        Mn2           15.00    54.93800     Mn( 1.00)
        Au            11.00   196.96600     Au( 1.00)

     Starting magnetic structure 
     atomic species   magnetization
        Mn1          0.800
        Mn2         -0.800
        Au           0.000

      4 Sym. Ops. (no inversion) found



   Cartesian axes

     site n.     atom                  positions (alat units)
         1           Mn1 tau(   1) = (   0.0000000   0.0000000   0.0000000  )
         2           Mn2 tau(   2) = (   0.0000000   0.3333300   0.0000000  )
         3           Mn1 tau(   3) = (   0.0000000   0.6666700   0.0000000  )
         4           Mn1 tau(   4) = (   0.3333300   0.0000000   0.0000000  )
         5           Mn1 tau(   5) = (   0.3333300   0.3333300   0.0000000  )
         6           Mn2 tau(   6) = (   0.3333300   0.6666700   0.0000000  )
         7           Mn2 tau(   7) = (   0.6666700   0.0000000   0.0000000  )
         8           Mn1 tau(   8) = (   0.6666700   0.3333300   0.0000000  )
         9           Mn1 tau(   9) = (   0.6666700   0.6666700   0.0000000  )
        10           Mn2 tau(  10) = (   0.1666700   0.1666700   0.4359871  )
        11           Mn1 tau(  11) = (   0.1666700   0.5000000   0.4359871  )
        12           Mn2 tau(  12) = (   0.1666700   0.8333300   0.4359871  )
        13           Mn2 tau(  13) = (   0.5000000   0.1666700   0.4359871  )
        14           Mn2 tau(  14) = (   0.5000000   0.5000000   0.4359871  )
        15           Mn1 tau(  15) = (   0.5000000   0.8333300   0.4359871  )
        16           Mn1 tau(  16) = (   0.8333300   0.1666700   0.4359871  )
        17           Mn2 tau(  17) = (   0.8333300   0.5000000   0.4359871  )
        18           Mn2 tau(  18) = (   0.8333300   0.8333300   0.4359871  )
        19           Au  tau(  19) = (   0.1666700   0.1666700   0.7327374  )
        20           Au  tau(  20) = (   0.1666700   0.5000000   0.7327374  )
        21           Au  tau(  21) = (   0.1666700   0.8333300   0.7327374  )
        22           Au  tau(  22) = (   0.5000000   0.1666700   0.7327374  )
        23           Au  tau(  23) = (   0.5000000   0.5000000   0.7327374  )
        24           Au  tau(  24) = (   0.5000000   0.8333300   0.7327374  )
        25           Au  tau(  25) = (   0.8333300   0.1666700   0.7327374  )
        26           Au  tau(  26) = (   0.8333300   0.5000000   0.7327374  )
        27           Au  tau(  27) = (   0.8333300   0.8333300   0.7327374  )
        28           Au  tau(  28) = (   0.1666700   0.1666700   0.1392369  )
        29           Au  tau(  29) = (   0.1666700   0.5000000   0.1392369  )
        30           Au  tau(  30) = (   0.1666700   0.8333300   0.1392369  )
        31           Au  tau(  31) = (   0.5000000   0.1666700   0.1392369  )
        32           Au  tau(  32) = (   0.5000000   0.5000000   0.1392369  )
        33           Au  tau(  33) = (   0.5000000   0.8333300   0.1392369  )
        34           Au  tau(  34) = (   0.8333300   0.1666700   0.1392369  )
        35           Au  tau(  35) = (   0.8333300   0.5000000   0.1392369  )
        36           Au  tau(  36) = (   0.8333300   0.8333300   0.1392369  )
        37           Au  tau(  37) = (   0.0000000   0.0000000   0.2967503  )
        38           Au  tau(  38) = (   0.0000000   0.3333300   0.2967503  )
        39           Au  tau(  39) = (   0.0000000   0.6666700   0.2967503  )
        40           Au  tau(  40) = (   0.3333300   0.0000000   0.2967503  )
        41           Au  tau(  41) = (   0.3333300   0.3333300   0.2967503  )
        42           Au  tau(  42) = (   0.3333300   0.6666700   0.2967503  )
        43           Au  tau(  43) = (   0.6666700   0.0000000   0.2967503  )
        44           Au  tau(  44) = (   0.6666700   0.3333300   0.2967503  )
        45           Au  tau(  45) = (   0.6666700   0.6666700   0.2967503  )
        46           Au  tau(  46) = (   0.0000000   0.0000000   0.5752240  )
        47           Au  tau(  47) = (   0.0000000   0.3333300   0.5752240  )
        48           Au  tau(  48) = (   0.0000000   0.6666700   0.5752240  )
        49           Au  tau(  49) = (   0.3333300   0.0000000   0.5752240  )
        50           Au  tau(  50) = (   0.3333300   0.3333300   0.5752240  )
        51           Au  tau(  51) = (   0.3333300   0.6666700   0.5752240  )
        52           Au  tau(  52) = (   0.6666700   0.0000000   0.5752240  )
        53           Au  tau(  53) = (   0.6666700   0.3333300   0.5752240  )
        54           Au  tau(  54) = (   0.6666700   0.6666700   0.5752240  )

     number of k points=     6 (tetrahedron method)
                       cart. coord. in units 2pi/alat
        k(    1) = (   0.0000000   0.0000000   0.0000000), wk =   0.1250000
        k(    2) = (   0.0000000   0.0000000  -0.5734114), wk =   0.1250000
        k(    3) = (   0.0000000  -0.5000000   0.0000000), wk =   0.2500000
        k(    4) = (   0.0000000  -0.5000000  -0.5734114), wk =   0.2500000
        k(    5) = (  -0.5000000  -0.5000000   0.0000000), wk =   0.1250000
        k(    6) = (  -0.5000000  -0.5000000  -0.5734114), wk =   0.1250000

     Dense  grid:   839803 G-vectors     FFT dimensions: ( 125, 125, 108)

     Smooth grid:   253559 G-vectors     FFT dimensions: (  90,  90,  72)

     Estimated max dynamical RAM per process >     521.79 MB

     Estimated total dynamical RAM >       8.15 GB
     Generating pointlists ...
     new r_m :   0.1129 (alat units)  2.1733 (a.u.) for type    1
     new r_m :   0.1129 (alat units)  2.1733 (a.u.) for type    2
     new r_m :   0.1129 (alat units)  2.1733 (a.u.) for type    3

     Check: negative/imaginary core charge=   -0.000006    0.000000

     Initial potential from superposition of free atoms

     starting charge  665.98709, renormalised to  666.00000
     Starting wfc are  504 randomized atomic wfcs
     Checking if some PAW data can be deallocated... 

     total cpu time spent up to now is       44.8 secs

     Self-consistent Calculation

     iteration #  1     ecut=    45.00 Ry     beta= 0.10
     Davidson diagonalization with overlap
     ethr =  1.00E-02,  avg # of iterations =  3.9

     total cpu time spent up to now is      177.0 secs

     total energy              =  -33047.23735827 Ry
     Harris-Foulkes estimate   =  -33044.09843305 Ry
     estimated scf accuracy    <      27.00588831 Ry

     total magnetization       =     0.00 Bohr mag/cell
     absolute magnetization    =    91.83 Bohr mag/cell

     iteration #  2     ecut=    45.00 Ry     beta= 0.10
     Davidson diagonalization with overlap
     ethr =  4.05E-03,  avg # of iterations =  1.0

     total cpu time spent up to now is      259.0 secs

     total energy              =  -33058.56239054 Ry
     Harris-Foulkes estimate   =  -33047.41583945 Ry
     estimated scf accuracy    <      21.35134776 Ry

     total magnetization       =     0.01 Bohr mag/cell
     absolute magnetization    =    91.48 Bohr mag/cell

     iteration #  3     ecut=    45.00 Ry     beta= 0.10
     Davidson diagonalization with overlap
     ethr =  3.21E-03,  avg # of iterations =  2.4

     total cpu time spent up to now is      363.7 secs

     total energy              =  -33066.49857894 Ry
     Harris-Foulkes estimate   =  -33061.35526326 Ry
     estimated scf accuracy    <       8.83517953 Ry

     total magnetization       =    -0.03 Bohr mag/cell
     absolute magnetization    =    85.42 Bohr mag/cell

     iteration #  4     ecut=    45.00 Ry     beta= 0.10
     Davidson diagonalization with overlap
     ethr =  1.33E-03,  avg # of iterations =  4.0

     total cpu time spent up to now is      521.5 secs

     total energy              =  -33058.53594286 Ry
     Harris-Foulkes estimate   =  -33069.50742750 Ry
     estimated scf accuracy    <      57.47499589 Ry

     total magnetization       =    -1.00 Bohr mag/cell
     absolute magnetization    =    70.38 Bohr mag/cell

     iteration #  5     ecut=    45.00 Ry     beta= 0.10
     Davidson diagonalization with overlap
     ethr =  1.33E-03,  avg # of iterations =  4.8

     total cpu time spent up to now is      704.5 secs

     total energy              =  -33062.03316875 Ry
     Harris-Foulkes estimate   =  -33062.63501718 Ry
     estimated scf accuracy    <       4.08569445 Ry

     total magnetization       =    -0.11 Bohr mag/cell
     absolute magnetization    =    83.26 Bohr mag/cell

     iteration #  6     ecut=    45.00 Ry     beta= 0.10
     Davidson diagonalization with overlap
     ethr =  6.13E-04,  avg # of iterations =  4.1

     total cpu time spent up to now is      824.6 secs

     total energy              =  -33062.57418897 Ry
     Harris-Foulkes estimate   =  -33062.54855043 Ry
     estimated scf accuracy    <       0.22013467 Ry

     total magnetization       =     0.21 Bohr mag/cell
     absolute magnetization    =    79.82 Bohr mag/cell

     iteration #  7     ecut=    45.00 Ry     beta= 0.10
     Davidson diagonalization with overlap
     ethr =  3.31E-05,  avg # of iterations =  4.8

     total cpu time spent up to now is      984.7 secs

     total energy              =  -33062.60112187 Ry
     Harris-Foulkes estimate   =  -33062.61056228 Ry
     estimated scf accuracy    <       0.06577786 Ry

     total magnetization       =     0.04 Bohr mag/cell
     absolute magnetization    =    79.13 Bohr mag/cell

     iteration #  8     ecut=    45.00 Ry     beta= 0.10
     Davidson diagonalization with overlap
     ethr =  9.88E-06,  avg # of iterations =  4.5

     total cpu time spent up to now is     1121.8 secs

     total energy              =  -33062.61605626 Ry
     Harris-Foulkes estimate   =  -33062.61894750 Ry
     estimated scf accuracy    <       0.13005112 Ry

     total magnetization       =    -0.01 Bohr mag/cell
     absolute magnetization    =    77.93 Bohr mag/cell

     iteration #  9     ecut=    45.00 Ry     beta= 0.10
     Davidson diagonalization with overlap
     ethr =  9.88E-06,  avg # of iterations =  1.0

     total cpu time spent up to now is     1204.4 secs

     total energy              =  -33062.59851639 Ry
     Harris-Foulkes estimate   =  -33062.61788615 Ry
     estimated scf accuracy    <       0.10242406 Ry

     total magnetization       =     0.02 Bohr mag/cell
     absolute magnetization    =    77.93 Bohr mag/cell

     iteration # 10     ecut=    45.00 Ry     beta= 0.10
     Davidson diagonalization with overlap
     ethr =  9.88E-06,  avg # of iterations =  2.2

     total cpu time spent up to now is     1306.8 secs

     total energy              =  -33062.61449978 Ry
     Harris-Foulkes estimate   =  -33062.61114960 Ry
     estimated scf accuracy    <       0.01126919 Ry

     total magnetization       =     0.03 Bohr mag/cell
     absolute magnetization    =    77.89 Bohr mag/cell

     iteration # 11     ecut=    45.00 Ry     beta= 0.10
     Davidson diagonalization with overlap
     ethr =  1.69E-06,  avg # of iterations =  4.6

     total cpu time spent up to now is     1439.9 secs

     total energy              =  -33062.61556819 Ry
     Harris-Foulkes estimate   =  -33062.61742819 Ry
     estimated scf accuracy    <       0.00453541 Ry

     total magnetization       =     0.00 Bohr mag/cell
     absolute magnetization    =    78.56 Bohr mag/cell

     iteration # 12     ecut=    45.00 Ry     beta= 0.10
     Davidson diagonalization with overlap
     ethr =  6.81E-07,  avg # of iterations =  3.0

     total cpu time spent up to now is     1554.4 secs

     total energy              =  -33062.61801769 Ry
     Harris-Foulkes estimate   =  -33062.61681694 Ry
     estimated scf accuracy    <       0.00754459 Ry

     total magnetization       =     0.02 Bohr mag/cell
     absolute magnetization    =    78.58 Bohr mag/cell

     iteration # 13     ecut=    45.00 Ry     beta= 0.10
     Davidson diagonalization with overlap
     ethr =  6.81E-07,  avg # of iterations =  1.0

     total cpu time spent up to now is     1636.1 secs

     total energy              =  -33062.61871765 Ry
     Harris-Foulkes estimate   =  -33062.61793450 Ry
     estimated scf accuracy    <       0.00589654 Ry

     total magnetization       =     0.01 Bohr mag/cell
     absolute magnetization    =    78.49 Bohr mag/cell

     iteration # 14     ecut=    45.00 Ry     beta= 0.10
     Davidson diagonalization with overlap
     ethr =  6.81E-07,  avg # of iterations =  2.0

     total cpu time spent up to now is     1731.3 secs

     total energy              =  -33062.61935135 Ry
     Harris-Foulkes estimate   =  -33062.61900638 Ry
     estimated scf accuracy    <       0.00097926 Ry

     total magnetization       =     0.00 Bohr mag/cell
     absolute magnetization    =    78.34 Bohr mag/cell

     iteration # 15     ecut=    45.00 Ry     beta= 0.10
     Davidson diagonalization with overlap
     ethr =  1.47E-07,  avg # of iterations =  2.5

     total cpu time spent up to now is     1832.2 secs

     total energy              =  -33062.61955770 Ry
     Harris-Foulkes estimate   =  -33062.61948646 Ry
     estimated scf accuracy    <       0.00032967 Ry

     total magnetization       =     0.00 Bohr mag/cell
     absolute magnetization    =    78.29 Bohr mag/cell

     iteration # 16     ecut=    45.00 Ry     beta= 0.10
     Davidson diagonalization with overlap
     ethr =  4.95E-08,  avg # of iterations =  3.6

     total cpu time spent up to now is     1941.3 secs

     total energy              =  -33062.61967609 Ry
     Harris-Foulkes estimate   =  -33062.61956619 Ry
     estimated scf accuracy    <       0.00021398 Ry

     total magnetization       =     0.00 Bohr mag/cell
     absolute magnetization    =    78.28 Bohr mag/cell

     iteration # 17     ecut=    45.00 Ry     beta= 0.10
     Davidson diagonalization with overlap
     ethr =  3.21E-08,  avg # of iterations =  1.4

     total cpu time spent up to now is     2026.7 secs

     total energy              =  -33062.61976593 Ry
     Harris-Foulkes estimate   =  -33062.61967576 Ry
     estimated scf accuracy    <       0.00016143 Ry

     total magnetization       =     0.00 Bohr mag/cell
     absolute magnetization    =    78.27 Bohr mag/cell

     iteration # 18     ecut=    45.00 Ry     beta= 0.10
     Davidson diagonalization with overlap
     ethr =  2.42E-08,  avg # of iterations =  1.1

     total cpu time spent up to now is     2108.7 secs

     total energy              =  -33062.61978974 Ry
     Harris-Foulkes estimate   =  -33062.61975908 Ry
     estimated scf accuracy    <       0.00013288 Ry

     total magnetization       =     0.00 Bohr mag/cell
     absolute magnetization    =    78.26 Bohr mag/cell

     iteration # 19     ecut=    45.00 Ry     beta= 0.10
     Davidson diagonalization with overlap
     ethr =  2.00E-08,  avg # of iterations =  1.0

     total cpu time spent up to now is     2190.2 secs

     total energy              =  -33062.61985927 Ry
     Harris-Foulkes estimate   =  -33062.61979103 Ry
     estimated scf accuracy    <       0.00026911 Ry

     total magnetization       =     0.00 Bohr mag/cell
     absolute magnetization    =    78.25 Bohr mag/cell

     iteration # 20     ecut=    45.00 Ry     beta= 0.10
     Davidson diagonalization with overlap
     ethr =  2.00E-08,  avg # of iterations =  2.0

     total cpu time spent up to now is     2282.0 secs

     total energy              =  -33062.61987706 Ry
     Harris-Foulkes estimate   =  -33062.61984974 Ry
     estimated scf accuracy    <       0.00009261 Ry

     total magnetization       =     0.00 Bohr mag/cell
     absolute magnetization    =    78.24 Bohr mag/cell

     iteration # 21     ecut=    45.00 Ry     beta= 0.10
     Davidson diagonalization with overlap
     ethr =  1.39E-08,  avg # of iterations =  1.0

     total cpu time spent up to now is     2363.3 secs

     total energy              =  -33062.61991391 Ry
     Harris-Foulkes estimate   =  -33062.61987102 Ry
     estimated scf accuracy    <       0.00005575 Ry

     total magnetization       =     0.00 Bohr mag/cell
     absolute magnetization    =    78.23 Bohr mag/cell

     iteration # 22     ecut=    45.00 Ry     beta= 0.10
     Davidson diagonalization with overlap
     ethr =  8.37E-09,  avg # of iterations =  2.4

     total cpu time spent up to now is     2461.1 secs

     total energy              =  -33062.61991881 Ry
     Harris-Foulkes estimate   =  -33062.61989995 Ry
     estimated scf accuracy    <       0.00002055 Ry

     total magnetization       =     0.00 Bohr mag/cell
     absolute magnetization    =    78.22 Bohr mag/cell

     iteration # 23     ecut=    45.00 Ry     beta= 0.10
     Davidson diagonalization with overlap
     ethr =  3.09E-09,  avg # of iterations =  2.6

     total cpu time spent up to now is     2562.8 secs

     total energy              =  -33062.61991471 Ry
     Harris-Foulkes estimate   =  -33062.61990630 Ry
     estimated scf accuracy    <       0.00001132 Ry

     total magnetization       =     0.00 Bohr mag/cell
     absolute magnetization    =    78.21 Bohr mag/cell

     iteration # 24     ecut=    45.00 Ry     beta= 0.10
     Davidson diagonalization with overlap
     ethr =  1.70E-09,  avg # of iterations =  2.2

     total cpu time spent up to now is     2659.0 secs

     total energy              =  -33062.61990840 Ry
     Harris-Foulkes estimate   =  -33062.61990496 Ry
     estimated scf accuracy    <       0.00000981 Ry

     total magnetization       =     0.00 Bohr mag/cell
     absolute magnetization    =    78.21 Bohr mag/cell

     iteration # 25     ecut=    45.00 Ry     beta= 0.10
     Davidson diagonalization with overlap
     ethr =  1.47E-09,  avg # of iterations =  1.1

     total cpu time spent up to now is     2741.1 secs

     total energy              =  -33062.61990805 Ry
     Harris-Foulkes estimate   =  -33062.61990487 Ry
     estimated scf accuracy    <       0.00000270 Ry

     total magnetization       =     0.00 Bohr mag/cell
     absolute magnetization    =    78.20 Bohr mag/cell

     iteration # 26     ecut=    45.00 Ry     beta= 0.10
     Davidson diagonalization with overlap
     ethr =  4.05E-10,  avg # of iterations =  2.7

     total cpu time spent up to now is     2840.6 secs

     total energy              =  -33062.61990669 Ry
     Harris-Foulkes estimate   =  -33062.61990407 Ry
     estimated scf accuracy    <       0.00000244 Ry

     total magnetization       =     0.00 Bohr mag/cell
     absolute magnetization    =    78.20 Bohr mag/cell

     iteration # 27     ecut=    45.00 Ry     beta= 0.10
     Davidson diagonalization with overlap
     ethr =  3.67E-10,  avg # of iterations =  2.0

     total cpu time spent up to now is     2932.5 secs

     total energy              =  -33062.61990438 Ry
     Harris-Foulkes estimate   =  -33062.61990234 Ry
     estimated scf accuracy    <       0.00000107 Ry

     total magnetization       =    -0.00 Bohr mag/cell
     absolute magnetization    =    78.20 Bohr mag/cell

     iteration # 28     ecut=    45.00 Ry     beta= 0.10
     Davidson diagonalization with overlap
     ethr =  1.60E-10,  avg # of iterations =  3.0
 
     Magnetic moment per site:
     atom:    1    charge:   13.5801    magn:    3.9761    constr:    0.0000
     atom:    2    charge:   13.5765    magn:   -4.0497    constr:    0.0000
     atom:    3    charge:   13.5803    magn:    3.9737    constr:    0.0000
     atom:    4    charge:   13.5803    magn:    3.9737    constr:    0.0000
     atom:    5    charge:   13.5802    magn:    3.9737    constr:    0.0000
     atom:    6    charge:   13.5769    magn:   -4.0462    constr:    0.0000
     atom:    7    charge:   13.5765    magn:   -4.0497    constr:    0.0000
     atom:    8    charge:   13.5799    magn:    3.9762    constr:    0.0000
     atom:    9    charge:   13.5802    magn:    3.9737    constr:    0.0000
     atom:   10    charge:   13.5804    magn:   -3.9737    constr:    0.0000
     atom:   11    charge:   13.5764    magn:    4.0497    constr:    0.0000
     atom:   12    charge:   13.5801    magn:   -3.9761    constr:    0.0000
     atom:   13    charge:   13.5802    magn:   -3.9738    constr:    0.0000
     atom:   14    charge:   13.5796    magn:   -3.9762    constr:    0.0000
     atom:   15    charge:   13.5764    magn:    4.0497    constr:    0.0000
     atom:   16    charge:   13.5771    magn:    4.0463    constr:    0.0000
     atom:   17    charge:   13.5802    magn:   -3.9738    constr:    0.0000
     atom:   18    charge:   13.5804    magn:   -3.9737    constr:    0.0000
     atom:   19    charge:    9.1216    magn:    0.0179    constr:    0.0000
     atom:   20    charge:    9.1217    magn:    0.0056    constr:    0.0000
     atom:   21    charge:    9.1216    magn:    0.0170    constr:    0.0000
     atom:   22    charge:    9.1216    magn:    0.0179    constr:    0.0000
     atom:   23    charge:    9.1215    magn:    0.0171    constr:    0.0000
     atom:   24    charge:    9.1217    magn:    0.0056    constr:    0.0000
     atom:   25    charge:    9.1220    magn:    0.0046    constr:    0.0000
     atom:   26    charge:    9.1216    magn:    0.0179    constr:    0.0000
     atom:   27    charge:    9.1216    magn:    0.0179    constr:    0.0000
     atom:   28    charge:    9.1216    magn:    0.0179    constr:    0.0000
     atom:   29    charge:    9.1217    magn:    0.0056    constr:    0.0000
     atom:   30    charge:    9.1216    magn:    0.0170    constr:    0.0000
     atom:   31    charge:    9.1216    magn:    0.0179    constr:    0.0000
     atom:   32    charge:    9.1215    magn:    0.0171    constr:    0.0000
     atom:   33    charge:    9.1217    magn:    0.0056    constr:    0.0000
     atom:   34    charge:    9.1220    magn:    0.0046    constr:    0.0000
     atom:   35    charge:    9.1216    magn:    0.0179    constr:    0.0000
     atom:   36    charge:    9.1216    magn:    0.0179    constr:    0.0000
     atom:   37    charge:    9.1217    magn:   -0.0171    constr:    0.0000
     atom:   38    charge:    9.1218    magn:   -0.0056    constr:    0.0000
     atom:   39    charge:    9.1217    magn:   -0.0180    constr:    0.0000
     atom:   40    charge:    9.1217    magn:   -0.0180    constr:    0.0000
     atom:   41    charge:    9.1215    magn:   -0.0179    constr:    0.0000
     atom:   42    charge:    9.1219    magn:   -0.0046    constr:    0.0000
     atom:   43    charge:    9.1218    magn:   -0.0056    constr:    0.0000
     atom:   44    charge:    9.1215    magn:   -0.0170    constr:    0.0000
     atom:   45    charge:    9.1215    magn:   -0.0179    constr:    0.0000
     atom:   46    charge:    9.1217    magn:   -0.0171    constr:    0.0000
     atom:   47    charge:    9.1218    magn:   -0.0056    constr:    0.0000
     atom:   48    charge:    9.1217    magn:   -0.0180    constr:    0.0000
     atom:   49    charge:    9.1217    magn:   -0.0180    constr:    0.0000
     atom:   50    charge:    9.1215    magn:   -0.0179    constr:    0.0000
     atom:   51    charge:    9.1219    magn:   -0.0046    constr:    0.0000
     atom:   52    charge:    9.1218    magn:   -0.0056    constr:    0.0000
     atom:   53    charge:    9.1215    magn:   -0.0170    constr:    0.0000
     atom:   54    charge:    9.1215    magn:   -0.0179    constr:    0.0000

     total cpu time spent up to now is     3042.8 secs

     End of self-consistent calculation

 ------ SPIN UP ------------


          k = 0.0000 0.0000 0.0000 ( 31747 PWs)   bands (ev):

   -66.6739 -66.6739 -66.6670 -66.6273 -66.6263 -66.6220 -66.6220 -66.6214
   -66.6214 -62.3459 -62.3455 -62.3439 -62.3439 -62.3435 -62.3435 -62.3194
   -62.3194 -62.3153 -35.4465 -35.4464 -35.4364 -35.4063 -35.4063 -35.4060
   -35.4059 -35.4029 -35.3990 -35.3862 -35.3851 -35.3806 -35.3806 -35.3799
   -35.3799 -35.3734 -35.3724 -35.3714 -35.3696 -35.3689 -35.3672 -35.3581
   -35.3572 -35.3508 -35.3506 -35.3482 -35.3479 -31.1908 -31.1905 -31.1895
   -31.1883 -31.1882 -31.1857 -31.1836 -31.1815 -31.1811 -31.1797 -31.1792
   -31.1788 -31.1673 -31.1671 -31.1626 -31.1432 -31.1428 -31.1399 -31.1398
   -31.1393 -31.1392 -31.1381 -31.1380 -31.1363 -31.1363 -31.1347 -31.1322
     5.6162   7.1690   7.1691   7.1846   7.1851   7.3633   7.8652   7.9086
     7.9155   7.9156   8.1221   8.1224   8.1309   8.1310   8.1876   8.2717
     8.2720   8.2825   8.2829   8.5513   8.5514   8.5556   8.5690   8.5784
     8.6052   8.8729   8.8733   8.8734   8.8735   8.8767   8.8768   8.9046
     8.9248   8.9252   8.9302   8.9336   8.9339   8.9408   8.9410   8.9646
     8.9647   9.0837   9.1216   9.1274   9.1274   9.1305   9.1533   9.1766
     9.1768   9.1892   9.1911   9.2888   9.2902   9.2903   9.2946   9.3506
     9.3796   9.3802   9.3806   9.3956   9.3957   9.3967   9.3968   9.4322
     9.4324   9.4474   9.4475   9.4484   9.4488   9.4514   9.4827   9.5825
     9.5829   9.5902   9.5903   9.6366   9.6367   9.6447   9.6452   9.6665
     9.6716   9.6717   9.6749   9.7555   9.7678   9.7678   9.7731   9.8493
     9.8514   9.9317   9.9321   9.9344   9.9347   9.9474   9.9738   9.9986
    10.1435  10.1468  10.1471  10.1806  10.2914  10.2915  10.2950  10.3050
    10.3150  10.3158  10.3245  10.3248  10.3271  10.3272  10.3299  10.3303
    10.3490  10.3493  10.3530  10.3531  10.3658  10.3680  10.3681  10.3841
    10.3931  10.4990  10.5178  10.5431  10.6318  10.6541  10.6549  10.7461
    10.7465  10.7774  10.7777  10.7865  10.7878  10.8046  10.8100  10.8101
    10.8501  10.8502  10.8768  10.8806  10.8809  10.8876  10.8878  10.8909
    10.8979  10.9509  11.0530  11.0531  11.0651  11.0655  11.2085  11.2088
    11.2163  11.2268  11.2269  11.2717  11.3467  11.3470  11.3721  11.3724
    11.3790  11.3790  11.3869  11.3913  11.3915  11.3979  11.4226  11.4231
    11.4232  11.5803  11.5804  11.5915  11.5940  11.5947  11.5947  11.5951
    11.5951  11.5970  11.6389  11.6570  11.6570  11.7380  11.7382  11.7382
    11.7383  11.8205  11.8271  11.8303  11.8306  11.8712  11.9454  11.9458
    11.9606  11.9607  12.1008  12.1011  12.1036  12.1040  12.1265  12.1375
    12.1463  12.1465  12.1466  12.1495  12.1903  12.1914  12.2039  12.2041
    12.2107  12.3182  12.3192  12.3651  12.3673  12.3792  12.4330  12.4502
    12.4543  12.4665  12.4692  12.4817  12.4834  12.4974  12.4999  12.5730
    12.5743  12.5812  12.5861  12.6293  12.6310  12.6439  12.7323  12.7937
    12.8204  12.8210  12.9517  12.9520  12.9603  12.9822  13.0673  13.0685
    13.1028  13.1063  13.1408  13.1423  13.4978  13.6715  13.8727  13.8765
    13.8769  13.9108  13.9112  14.0420  14.2875  14.2876  14.3136  14.3137
    14.9247  14.9271  14.9963  15.0607  15.0620  15.1912  15.1920  15.1989
    15.2001  15.2442  15.3296  15.4230  15.4233  15.5336  15.5571  15.5843
    15.6119  15.6119  15.7415  15.9404  15.9953  16.0000  16.0465  16.0466
    16.0702  16.0705  16.1283  16.1302  16.1411  16.1424  16.1424  16.1468
    16.2115  16.2125  16.2128  16.2131  16.2840  16.3020  16.4213  16.4768
    16.4771  16.5436  16.6095  16.6739  16.7393  16.7397  16.8405  16.8482
    16.8491  17.0365  17.2068  17.2074  17.2258  17.2259  17.3450  17.3455
    17.4167  17.4174  17.8471  17.9211  17.9212  17.9395  17.9570  17.9571
    18.2793  18.2799  18.2818  19.0398  19.0400  19.1289  19.1292  19.2008

          k = 0.0000 0.0000-0.5734 ( 31692 PWs)   bands (ev):

   -66.6739 -66.6739 -66.6670 -66.6273 -66.6263 -66.6220 -66.6220 -66.6214
   -66.6214 -62.3459 -62.3455 -62.3439 -62.3439 -62.3435 -62.3435 -62.3194
   -62.3194 -62.3153 -35.4465 -35.4464 -35.4364 -35.4063 -35.4063 -35.4060
   -35.4059 -35.4029 -35.3990 -35.3862 -35.3851 -35.3806 -35.3806 -35.3799
   -35.3799 -35.3734 -35.3724 -35.3714 -35.3696 -35.3689 -35.3672 -35.3581
   -35.3572 -35.3508 -35.3506 -35.3482 -35.3479 -31.1908 -31.1905 -31.1895
   -31.1883 -31.1882 -31.1857 -31.1836 -31.1815 -31.1811 -31.1797 -31.1792
   -31.1788 -31.1673 -31.1671 -31.1626 -31.1432 -31.1428 -31.1399 -31.1398
   -31.1392 -31.1392 -31.1381 -31.1380 -31.1363 -31.1363 -31.1347 -31.1322
     6.1590   6.2134   7.5361   7.5371   7.5555   7.5560   7.5938   7.5942
     7.6432   7.6433   8.3052   8.3268   8.3404   8.3406   8.3683   8.3683
     8.3693   8.4110   8.4644   8.4645   8.4661   8.4662   8.5028   8.5029
     8.5077   8.5080   8.6965   8.7131   8.7500   8.8009   8.9319   8.9609
     8.9633   8.9763   8.9764   9.0015   9.0026   9.0028   9.0051   9.0054
     9.0335   9.0406   9.0407   9.0617   9.0676   9.1112   9.2258   9.2263
     9.2293   9.2296   9.2626   9.2627   9.2715   9.2719   9.2733   9.2771
     9.2773   9.2791   9.2819   9.2969   9.2970   9.2980   9.4131   9.4134
     9.4197   9.4198   9.4535   9.4536   9.4540   9.4541   9.4625   9.4625
     9.4901   9.4902   9.5149   9.5154   9.5191   9.5192   9.6166   9.6880
     9.7838   9.7840   9.7896   9.7898   9.8180   9.8182   9.8505   9.8506
     9.8668   9.8719   9.8840   9.8840   9.8859   9.8859   9.8917   9.8926
    10.0553  10.0602  10.0612  10.0632  10.1351  10.1446  10.1595  10.1645
    10.1646  10.1763  10.1907  10.1996  10.1998  10.2206  10.3492  10.3599
    10.3933  10.3934  10.4059  10.4064  10.4316  10.4484  10.4649  10.5293
    10.5846  10.5848  10.5934  10.6105  10.6110  10.6451  10.6461  10.6545
    10.6891  10.6893  10.7530  10.7531  10.7716  10.8192  10.8195  10.8890
    10.9139  10.9446  10.9909  10.9910  11.0295  11.0409  11.0414  11.0652
    11.0654  11.0676  11.0684  11.1778  11.1780  11.1815  11.1815  11.2299
    11.2537  11.2539  11.2567  11.2567  11.2589  11.2612  11.2614  11.2621
    11.2623  11.2802  11.2804  11.2911  11.2912  11.3040  11.3080  11.3083
    11.3218  11.3248  11.3271  11.3271  11.5145  11.5389  11.7082  11.7194
    11.7194  11.7245  11.7245  11.7246  11.7332  11.7374  11.7376  11.7425
    11.7518  11.7837  11.7844  11.7950  11.7951  11.8500  11.8502  11.9230
    11.9768  12.0059  12.0063  12.0064  12.0152  12.0481  12.0488  12.1530
    12.1677  12.1804  12.1820  12.2500  12.2515  12.2853  12.2875  12.4501
    12.4506  12.4539  12.4554  12.4589  12.4590  12.4822  12.4960  12.5138
    12.5162  12.5428  12.5453  12.5472  12.5496  12.5952  12.5969  12.6242
    12.6703  12.6972  12.7056  12.7605  12.7609  12.7917  12.8571  12.8584
    12.9086  12.9091  12.9201  13.1525  13.1547  13.2226  13.2240  13.3501
    13.3732  13.3738  13.4494  13.5084  13.5087  13.5812  13.7366  13.7378
    13.7552  13.8058  13.9874  13.9882  14.1106  14.1112  14.4850  14.5883
    14.5888  14.9158  14.9251  14.9255  14.9668  14.9671  15.1126  15.1126
    15.1485  15.2614  15.2628  15.3016  15.3017  15.3042  15.3042  15.4658
    15.5583  15.6235  15.6248  15.6554  15.8700  16.0217  16.0235  16.0947
    16.1227  16.1244  16.1288  16.1305  16.1553  16.1624  16.1628  16.1757
    16.2399  16.2401  16.2767  16.3044  16.3074  16.3077  16.3084  16.3084
    16.4265  16.5241  16.6350  16.6354  16.6681  16.6683  16.7976  16.7994
    16.8869  16.8875  17.0598  17.3241  17.3389  17.3654  17.6067  17.6072
    17.6474  17.6479  17.6992  17.6993  17.7010  17.7025  17.7798  17.8825
    17.9409  18.0073  18.0300  18.1733  18.2105  18.2105  18.3491  18.3546

          k = 0.0000-0.5000 0.0000 ( 31722 PWs)   bands (ev):

   -66.6739 -66.6739 -66.6670 -66.6273 -66.6263 -66.6220 -66.6220 -66.6214
   -66.6214 -62.3459 -62.3455 -62.3439 -62.3439 -62.3435 -62.3435 -62.3194
   -62.3194 -62.3153 -35.4465 -35.4464 -35.4364 -35.4063 -35.4063 -35.4060
   -35.4059 -35.4030 -35.3990 -35.3862 -35.3851 -35.3806 -35.3806 -35.3800
   -35.3799 -35.3734 -35.3725 -35.3708 -35.3706 -35.3681 -35.3676 -35.3580
   -35.3573 -35.3507 -35.3507 -35.3481 -35.3480 -31.1908 -31.1906 -31.1892
   -31.1891 -31.1868 -31.1867 -31.1826 -31.1826 -31.1803 -31.1802 -31.1790
   -31.1789 -31.1673 -31.1671 -31.1626 -31.1432 -31.1428 -31.1398 -31.1398
   -31.1392 -31.1392 -31.1381 -31.1380 -31.1363 -31.1363 -31.1347 -31.1322
     6.0436   6.0438   7.3951   7.4442   7.4445   7.5067   7.6751   7.6753
     8.1084   8.1181   8.1438   8.1440   8.2295   8.2295   8.2702   8.2704
     8.3870   8.4401   8.4401   8.4801   8.6152   8.6206   8.6627   8.6631
     8.6734   8.6736   8.6794   8.7037   8.7731   8.7899   8.8334   8.8335
     8.8439   8.8597   8.8598   8.8919   8.9095   8.9096   8.9143   8.9248
     8.9249   8.9327   8.9328   8.9602   9.0466   9.0467   9.1469   9.1735
     9.1738   9.2132   9.2133   9.2307   9.2465   9.2467   9.3024   9.3296
     9.3580   9.3583   9.3963   9.4284   9.4747   9.4748   9.4882   9.5290
     9.5293   9.5600   9.5615   9.5617   9.5865   9.6033   9.6034   9.6133
     9.6208   9.6209   9.6287   9.6287   9.6342   9.6348   9.6350   9.6650
     9.6715   9.6717   9.6852   9.6853   9.6902   9.7162   9.7184   9.7187
     9.7392   9.7393   9.7655   9.7974   9.8971   9.8972   9.9121   9.9760
    10.0210  10.0212  10.1753  10.1753  10.2146  10.2147  10.2563  10.2564
    10.2714  10.2715  10.2795  10.2808  10.2808  10.2822  10.3147  10.3646
    10.3648  10.3813  10.3814  10.3977  10.4092  10.4653  10.4655  10.4717
    10.5210  10.5211  10.5298  10.5334  10.5338  10.5874  10.5958  10.5959
    10.6150  10.6151  10.6393  10.7192  10.7192  10.7416  10.7530  10.7532
    10.8253  10.8297  10.8298  10.8406  10.8406  10.8720  10.8721  10.9672
    10.9896  11.0198  11.0198  11.0300  11.0300  11.0560  11.1703  11.1815
    11.3117  11.3124  11.3457  11.3511  11.3714  11.3719  11.3758  11.4248
    11.4253  11.4479  11.4481  11.4821  11.4901  11.5581  11.5587  11.6067
    11.6114  11.6115  11.6425  11.6425  11.6492  11.6497  11.6689  11.7678
    11.7727  11.7727  11.8111  11.8142  11.8248  11.8248  11.8744  11.8924
    11.8926  11.8933  11.8934  11.9183  11.9352  11.9509  11.9588  11.9610
    11.9611  11.9612  11.9868  11.9870  12.1078  12.1082  12.1193  12.1959
    12.2017  12.2030  12.2181  12.2186  12.2658  12.2660  12.2785  12.2976
    12.2978  12.3421  12.3567  12.3585  12.3586  12.3592  12.3944  12.3998
    12.4217  12.4228  12.5100  12.5129  12.5152  12.5391  12.5395  12.5658
    12.5776  12.6076  12.6171  12.6684  12.6694  12.6855  12.6863  12.7986
    12.7996  13.0282  13.0284  13.0567  13.0843  13.0886  13.1341  13.1353
    13.2125  13.2128  13.2146  13.2709  13.2723  13.3202  13.3504  13.3515
    13.4520  13.5233  13.6573  13.6651  13.7606  14.5420  14.5427  14.5712
    14.5724  14.7523  14.7656  14.7659  14.8432  14.8549  14.8561  15.0174
    15.0206  15.0721  15.0731  15.2341  15.2347  15.4426  15.4443  15.6796
    15.6797  15.8437  15.8438  15.8738  15.9315  15.9317  15.9824  15.9863
    16.0212  16.0771  16.0788  16.0883  16.0975  16.1924  16.2033  16.2039
    16.2292  16.2302  16.2336  16.2385  16.2409  16.2556  16.3598  16.3849
    16.3854  16.5454  16.6628  16.6629  16.6738  16.8390  17.0521  17.0531
    17.1877  17.1879  17.3267  17.3270  17.4357  17.4359  17.6293  17.6559
    17.6575  17.6577  17.8215  17.8216  17.8358  17.8369  18.0011  18.0216
    18.0217  18.0952  18.0955  18.2975  19.2093  19.3224  19.3225  19.3686

          k = 0.0000-0.5000-0.5734 ( 31696 PWs)   bands (ev):

   -66.6739 -66.6739 -66.6670 -66.6273 -66.6263 -66.6220 -66.6220 -66.6214
   -66.6214 -62.3459 -62.3455 -62.3439 -62.3439 -62.3435 -62.3435 -62.3194
   -62.3194 -62.3153 -35.4465 -35.4464 -35.4364 -35.4063 -35.4063 -35.4060
   -35.4059 -35.4029 -35.3990 -35.3862 -35.3851 -35.3806 -35.3806 -35.3800
   -35.3799 -35.3734 -35.3725 -35.3708 -35.3706 -35.3681 -35.3676 -35.3580
   -35.3573 -35.3507 -35.3507 -35.3481 -35.3480 -31.1908 -31.1906 -31.1892
   -31.1891 -31.1868 -31.1867 -31.1826 -31.1826 -31.1803 -31.1802 -31.1790
   -31.1789 -31.1673 -31.1671 -31.1626 -31.1432 -31.1428 -31.1398 -31.1398
   -31.1392 -31.1392 -31.1381 -31.1380 -31.1363 -31.1363 -31.1347 -31.1322
     6.5585   6.5586   6.6092   6.6096   7.8285   7.8682   7.8705   7.8711
     7.9106   7.9109   7.9113   7.9486   8.2679   8.2776   8.3058   8.3059
     8.5271   8.5271   8.5281   8.5285   8.6810   8.6811   8.6850   8.6850
     8.6900   8.6964   8.6977   8.6978   8.6985   8.7151   8.7427   8.7430
     8.7749   8.7749   8.8008   8.8010   8.9835   8.9836   9.0339   9.0341
     9.0389   9.0393   9.0576   9.0580   9.2102   9.2102   9.2195   9.2215
     9.2277   9.2279   9.2321   9.2321   9.2496   9.2554   9.2561   9.2562
     9.2590   9.2705   9.2708   9.2762   9.3151   9.3154   9.3871   9.4141
     9.4192   9.4193   9.4243   9.4535   9.4596   9.4597   9.4652   9.4824
     9.4887   9.4990   9.5021   9.5108   9.5109   9.5503   9.5504   9.5829
     9.5831   9.6165   9.7530   9.7607   9.7880   9.8056   9.8060   9.8301
     9.8416   9.8449   9.8452   9.8539   9.8541   9.8569   9.8571   9.8835
     9.9559   9.9559   9.9742   9.9743  10.0549  10.0549  10.0635  10.0636
    10.3951  10.3952  10.4045  10.4049  10.4185  10.4188  10.4233  10.4516
    10.4764  10.4765  10.4927  10.4928  10.4970  10.4971  10.5008  10.5229
    10.5231  10.5668  10.5669  10.5728  10.5918  10.5919  10.6052  10.6052
    10.6521  10.6667  10.6668  10.6731  10.6750  10.6787  10.6789  10.7082
    10.7549  10.8480  10.8845  10.9015  11.0094  11.0097  11.0479  11.0481
    11.1311  11.1508  11.1510  11.1551  11.1579  11.1892  11.1893  11.1945
    11.2120  11.2133  11.3005  11.3012  11.3494  11.3496  11.3590  11.3590
    11.3714  11.3714  11.4015  11.4016  11.4312  11.4315  11.5074  11.5076
    11.5460  11.5460  11.5740  11.5810  11.5812  11.5916  11.5974  11.5977
    11.6086  11.6125  11.7362  11.7366  11.7602  11.7613  11.8148  11.8150
    11.9021  11.9256  11.9509  11.9510  11.9566  11.9580  11.9583  12.0031
    12.0114  12.0119  12.0119  12.0249  12.0374  12.0391  12.1207  12.1211
    12.1364  12.1536  12.1553  12.2195  12.2201  12.2432  12.3203  12.3209
    12.3857  12.3872  12.4146  12.4454  12.4470  12.4531  12.5033  12.5041
    12.5047  12.5074  12.5089  12.5322  12.5634  12.6115  12.6120  12.6391
    12.6552  12.7066  12.7068  12.7385  12.7387  12.8173  12.8267  12.8271
    12.8579  12.9538  12.9938  12.9950  13.0278  13.0407  13.0904  13.1999
    13.2105  13.3513  13.3513  13.6889  13.6902  13.7276  13.7288  13.8386
    13.8388  13.8755  13.9883  13.9887  14.0977  14.0997  14.2209  14.3156
    14.3157  14.3344  14.3351  14.4563  14.5347  14.5647  14.6145  15.1744
    15.2077  15.2787  15.3319  15.3326  15.4568  15.4580  15.6437  15.6448
    15.6538  15.6891  15.6895  15.9950  15.9953  16.0104  16.0910  16.0917
    16.1189  16.2008  16.2087  16.2096  16.2508  16.2646  16.2660  16.2678
    16.2891  16.2892  16.2921  16.3100  16.3108  16.3412  16.3430  16.4775
    16.4777  16.5698  16.5829  16.5842  16.6148  16.6251  16.6301  16.6629
    16.7401  16.7404  16.7963  16.7977  16.8783  16.8963  16.8971  16.9682
    17.0841  17.0848  17.1049  17.1887  18.6529  18.6533  18.7253  18.7258
    18.8398  18.8399  18.8442  18.8446  18.9490  18.9494  18.9828  18.9829

          k =-0.5000-0.5000 0.0000 ( 31612 PWs)   bands (ev):

   -66.6739 -66.6739 -66.6670 -66.6273 -66.6263 -66.6220 -66.6220 -66.6214
   -66.6214 -62.3459 -62.3455 -62.3439 -62.3439 -62.3435 -62.3435 -62.3194
   -62.3194 -62.3153 -35.4465 -35.4464 -35.4364 -35.4063 -35.4063 -35.4060
   -35.4059 -35.4029 -35.3990 -35.3862 -35.3851 -35.3806 -35.3806 -35.3800
   -35.3799 -35.3734 -35.3724 -35.3714 -35.3696 -35.3689 -35.3672 -35.3580
   -35.3572 -35.3509 -35.3505 -35.3481 -35.3480 -31.1908 -31.1905 -31.1896
   -31.1882 -31.1881 -31.1857 -31.1837 -31.1814 -31.1811 -31.1798 -31.1792
   -31.1788 -31.1673 -31.1671 -31.1626 -31.1432 -31.1428 -31.1399 -31.1398
   -31.1393 -31.1392 -31.1381 -31.1380 -31.1363 -31.1363 -31.1347 -31.1322
     6.4335   6.4410   6.4412   6.4470   8.0100   8.0157   8.0160   8.0235
     8.0862   8.1324   8.3196   8.3197   8.3300   8.3303   8.3405   8.3407
     8.3521   8.3522   8.3666   8.3673   8.3678   8.3679   8.5875   8.5876
     8.6532   8.6533   8.6841   8.6843   8.7276   8.7277   8.7494   8.7511
     8.7551   8.7552   8.9547   8.9555   8.9557   8.9557   8.9746   8.9768
     9.0037   9.0041   9.0047   9.0074   9.0095   9.0100   9.0100   9.0103
     9.1094   9.1365   9.3099   9.3146   9.3148   9.3183   9.4129   9.4130
     9.4149   9.4223   9.4244   9.4244   9.4343   9.4346   9.4510   9.4515
     9.4581   9.4584   9.4784   9.4820   9.4822   9.4862   9.5183   9.5183
     9.5238   9.5239   9.5425   9.5425   9.5727   9.5727   9.5785   9.6016
     9.6016   9.6065   9.6951   9.6971   9.8084   9.8085   9.8106   9.8264
     9.8268   9.8333   9.8335   9.8337   9.8375   9.8561  10.0489  10.0572
    10.0887  10.1297  10.1297  10.1445  10.1445  10.1522  10.1524  10.1782
    10.1859  10.1860  10.1933  10.2115  10.2128  10.2128  10.2283  10.2284
    10.2297  10.2359  10.2361  10.2407  10.4630  10.4714  10.4788  10.4790
    10.4857  10.4912  10.4914  10.5095  10.6278  10.6530  10.6533  10.6734
    10.6735  10.6763  10.6766  10.6797  10.6809  10.6811  10.6831  10.6832
    10.8057  10.8060  10.8133  10.8133  10.8324  10.8496  10.8535  10.8535
    10.8662  10.8664  11.2105  11.2113  11.2123  11.2125  11.3202  11.3202
    11.3398  11.3400  11.3677  11.3678  11.3894  11.3896  11.4892  11.5779
    11.6284  11.6420  11.6449  11.6458  11.6461  11.6482  11.6527  11.6564
    11.6566  11.6651  11.7033  11.7036  11.7237  11.7333  11.7354  11.8734
    11.8734  11.8827  11.8829  11.8862  11.8907  11.9600  11.9606  11.9722
    12.0788  12.0794  12.1005  12.1007  12.1029  12.1029  12.1039  12.1039
    12.1153  12.1164  12.1516  12.1527  12.1538  12.1543  12.1946  12.1957
    12.1962  12.1974  12.2133  12.2221  12.2233  12.2420  12.2423  12.2670
    12.2737  12.2838  12.2858  12.2865  12.2888  12.2907  12.2917  12.2951
    12.3090  12.3094  12.3215  12.3223  12.3649  12.3670  12.4940  12.5025
    12.5756  12.5774  12.5927  12.5927  12.6334  12.6918  12.7664  12.8213
    12.8647  12.8670  12.9048  12.9053  12.9241  12.9249  12.9260  13.0068
    13.0091  13.0178  13.0199  13.0562  13.0974  13.6761  13.6785  13.8185
    13.8188  13.8859  13.8865  14.0381  14.0384  14.0777  14.0787  14.0852
    14.1086  14.1091  14.1248  14.1262  14.4308  14.4310  14.7872  14.8941
    14.8975  14.8985  15.1832  15.2892  15.5750  15.5762  15.6036  15.7469
    15.7472  15.8296  15.8327  15.8753  15.9048  15.9048  15.9290  16.0808
    16.0823  16.0955  16.0974  16.1212  16.1460  16.1628  16.2083  16.2267
    16.2280  16.3341  16.3354  16.4361  16.4367  16.5026  16.5058  16.5341
    16.5914  16.5936  16.6051  16.6053  16.6377  16.6387  16.6390  16.6411
    16.7469  16.7478  16.8504  16.8509  17.3795  17.3932  17.5705  17.9068
    18.0312  18.2008  18.2008  18.2065  18.4383  18.4654  18.4662  18.4978
    18.6042  18.6296  18.6299  18.6386  18.7187  18.7891  18.7902  18.7905

          k =-0.5000-0.5000-0.5734 ( 31672 PWs)   bands (ev):

   -66.6739 -66.6739 -66.6670 -66.6273 -66.6263 -66.6220 -66.6220 -66.6214
   -66.6214 -62.3459 -62.3455 -62.3439 -62.3439 -62.3435 -62.3435 -62.3194
   -62.3194 -62.3153 -35.4465 -35.4464 -35.4364 -35.4063 -35.4063 -35.4060
   -35.4059 -35.4029 -35.3990 -35.3862 -35.3851 -35.3806 -35.3806 -35.3800
   -35.3799 -35.3734 -35.3724 -35.3714 -35.3696 -35.3689 -35.3672 -35.3580
   -35.3572 -35.3509 -35.3505 -35.3481 -35.3480 -31.1908 -31.1905 -31.1896
   -31.1882 -31.1881 -31.1857 -31.1837 -31.1814 -31.1811 -31.1798 -31.1792
   -31.1788 -31.1673 -31.1671 -31.1626 -31.1432 -31.1428 -31.1399 -31.1398
   -31.1393 -31.1392 -31.1381 -31.1380 -31.1363 -31.1363 -31.1347 -31.1322
     6.8987   6.9321   6.9430   6.9437   6.9905   6.9934   6.9937   7.0589
     8.4619   8.4674   8.4807   8.4807   8.4842   8.4846   8.4871   8.4876
     8.4981   8.4983   8.5282   8.5286   8.5465   8.5469   8.5474   8.5694
     8.5696   8.5814   8.5816   8.6173   8.8651   8.8755   8.8927   8.8928
     8.8963   8.8964   8.9554   8.9626   9.0938   9.1188   9.1248   9.1251
     9.1274   9.1363   9.1366   9.1528   9.1535   9.1536   9.1605   9.1607
     9.1643   9.1649   9.1673   9.1738   9.1739   9.1760   9.1774   9.1834
     9.1834   9.1893   9.1954   9.1958   9.1989   9.1991   9.2021   9.2022
     9.2220   9.2220   9.2403   9.2495   9.2496   9.2777   9.2833   9.2836
     9.5515   9.5515   9.5526   9.5530   9.5915   9.5915   9.6241   9.6241
     9.6510   9.6856   9.6858   9.7034   9.7194   9.7339   9.7342   9.7719
     9.8068   9.8209   9.8579   9.8581   9.8714   9.8815   9.8816   9.9127
    10.1413  10.1416  10.1477  10.1478  10.1763  10.1764  10.1822  10.1825
    10.2950  10.3204  10.4438  10.4477  10.4614  10.4773  10.4784  10.4829
    10.4833  10.4932  10.4940  10.4942  10.4987  10.4989  10.5112  10.5214
    10.5220  10.5380  10.5381  10.5415  10.5767  10.6132  10.6138  10.6150
    10.6153  10.6315  10.6317  10.6376  10.6380  10.6475  10.6519  10.6592
    10.6736  10.6739  10.7286  10.7287  10.7414  10.7415  10.9814  11.0136
    11.0719  11.0723  11.0941  11.0944  11.1722  11.1729  11.3838  11.3838
    11.4057  11.4060  11.4310  11.4364  11.4366  11.4439  11.4463  11.4465
    11.4909  11.4912  11.5152  11.5173  11.5176  11.5542  11.5717  11.5807
    11.6269  11.6423  11.6530  11.6607  11.6613  11.6685  11.6686  11.7152
    11.7234  11.7350  11.7588  11.7700  11.7778  11.7780  11.7863  11.7869
    11.7973  11.7975  11.8322  11.8327  11.8775  11.9291  11.9681  12.0846
    12.0848  12.1248  12.1257  12.1258  12.1270  12.1377  12.1977  12.1978
    12.2034  12.2036  12.2080  12.2210  12.2217  12.2378  12.2387  12.3095
    12.3119  12.3945  12.3960  12.4179  12.4555  12.4561  12.4736  12.4747
    12.4884  12.4907  12.4975  12.4993  12.5036  12.5128  12.5168  12.6163
    12.6422  12.6426  12.6846  12.6856  12.7064  12.8010  12.8022  12.9303
    12.9318  12.9418  13.0275  13.0280  13.1077  13.1553  13.1558  13.1697
    13.2797  13.2814  13.5038  13.5041  13.5048  13.5053  13.5511  13.5521
    13.5526  13.5591  13.5592  13.8142  13.9386  13.9396  14.1425  14.1440
    14.2620  14.3592  14.4918  14.6854  14.8053  14.8057  14.8720  14.9101
    14.9102  15.0688  15.1078  15.2995  15.3002  15.4366  15.4370  15.6499
    15.6499  15.7456  15.8423  15.8426  15.8655  16.0289  16.0305  16.0376
    16.0396  16.0500  16.1418  16.2038  16.2065  16.2192  16.2241  16.3012
    16.3028  16.4410  16.4419  16.4487  16.4508  16.4880  16.4890  16.5275
    16.5288  16.5406  16.5532  16.5556  16.5666  16.7362  16.7363  16.7578
    16.7908  16.8003  16.8600  16.8613  16.9145  16.9158  16.9452  16.9453
    17.0592  17.0597  17.5605  17.7532  17.8890  17.9325  18.9927  18.9928
    19.0075  19.0675  19.0678  19.1184  19.1230  19.1231  19.3020  19.3021

 ------ SPIN DOWN ----------


          k = 0.0000 0.0000 0.0000 ( 31747 PWs)   bands (ev):

   -66.6740 -66.6740 -66.6667 -66.6270 -66.6265 -66.6219 -66.6219 -66.6216
   -66.6215 -62.3464 -62.3457 -62.3438 -62.3438 -62.3433 -62.3433 -62.3191
   -62.3191 -62.3157 -35.4466 -35.4465 -35.4362 -35.4064 -35.4064 -35.4062
   -35.4062 -35.4026 -35.3986 -35.3857 -35.3852 -35.3807 -35.3806 -35.3801
   -35.3801 -35.3732 -35.3725 -35.3714 -35.3695 -35.3691 -35.3673 -35.3581
   -35.3574 -35.3508 -35.3506 -35.3481 -35.3479 -31.1911 -31.1906 -31.1894
   -31.1883 -31.1881 -31.1857 -31.1836 -31.1815 -31.1812 -31.1798 -31.1791
   -31.1788 -31.1671 -31.1669 -31.1629 -31.1437 -31.1430 -31.1398 -31.1397
   -31.1391 -31.1391 -31.1379 -31.1378 -31.1361 -31.1360 -31.1352 -31.1325
     5.6162   7.1690   7.1691   7.1846   7.1851   7.3633   7.8652   7.9086
     7.9155   7.9156   8.1221   8.1224   8.1310   8.1310   8.1876   8.2717
     8.2720   8.2824   8.2829   8.5513   8.5514   8.5556   8.5690   8.5784
     8.6052   8.8729   8.8733   8.8734   8.8735   8.8767   8.8768   8.9046
     8.9248   8.9252   8.9302   8.9336   8.9340   8.9407   8.9411   8.9645
     8.9648   9.0837   9.1216   9.1274   9.1274   9.1305   9.1533   9.1766
     9.1768   9.1892   9.1911   9.2888   9.2902   9.2903   9.2946   9.3506
     9.3796   9.3802   9.3806   9.3956   9.3957   9.3967   9.3968   9.4321
     9.4324   9.4474   9.4475   9.4483   9.4489   9.4514   9.4827   9.5825
     9.5829   9.5902   9.5903   9.6366   9.6367   9.6446   9.6452   9.6665
     9.6716   9.6717   9.6749   9.7555   9.7678   9.7678   9.7731   9.8493
     9.8514   9.9317   9.9321   9.9344   9.9346   9.9474   9.9738   9.9986
    10.1435  10.1469  10.1471  10.1806  10.2914  10.2915  10.2950  10.3050
    10.3150  10.3158  10.3245  10.3249  10.3271  10.3272  10.3299  10.3303
    10.3490  10.3494  10.3530  10.3532  10.3658  10.3680  10.3681  10.3841
    10.3931  10.4990  10.5178  10.5432  10.6318  10.6540  10.6550  10.7461
    10.7465  10.7774  10.7777  10.7865  10.7878  10.8046  10.8101  10.8101
    10.8501  10.8502  10.8768  10.8806  10.8809  10.8876  10.8878  10.8909
    10.8979  10.9509  11.0530  11.0531  11.0650  11.0655  11.2085  11.2088
    11.2163  11.2268  11.2269  11.2717  11.3466  11.3470  11.3722  11.3724
    11.3790  11.3791  11.3869  11.3913  11.3915  11.3979  11.4226  11.4231
    11.4232  11.5803  11.5804  11.5915  11.5940  11.5947  11.5947  11.5951
    11.5951  11.5970  11.6389  11.6570  11.6570  11.7380  11.7382  11.7382
    11.7383  11.8205  11.8271  11.8303  11.8307  11.8712  11.9454  11.9458
    11.9605  11.9607  12.1008  12.1011  12.1036  12.1040  12.1265  12.1375
    12.1462  12.1465  12.1466  12.1495  12.1901  12.1916  12.2039  12.2042
    12.2107  12.3181  12.3194  12.3651  12.3673  12.3792  12.4330  12.4502
    12.4543  12.4665  12.4692  12.4816  12.4835  12.4974  12.4999  12.5730
    12.5743  12.5812  12.5861  12.6291  12.6312  12.6439  12.7323  12.7937
    12.8203  12.8211  12.9517  12.9520  12.9603  12.9822  13.0672  13.0686
    13.1027  13.1064  13.1408  13.1423  13.4977  13.6715  13.8727  13.8765
    13.8769  13.9107  13.9113  14.0420  14.2875  14.2877  14.3136  14.3137
    14.9250  14.9268  14.9963  15.0608  15.0619  15.1912  15.1920  15.1989
    15.2001  15.2442  15.3296  15.4230  15.4234  15.5336  15.5571  15.5843
    15.6119  15.6120  15.7415  15.9404  15.9953  16.0000  16.0464  16.0466
    16.0701  16.0705  16.1283  16.1301  16.1411  16.1424  16.1429  16.1463
    16.2117  16.2124  16.2129  16.2130  16.2840  16.3019  16.4213  16.4768
    16.4771  16.5436  16.6095  16.6739  16.7392  16.7397  16.8404  16.8483
    16.8490  17.0365  17.2069  17.2073  17.2257  17.2259  17.3451  17.3454
    17.4166  17.4173  17.8471  17.9211  17.9212  17.9396  17.9570  17.9570
    18.2793  18.2798  18.2818  19.0397  19.0401  19.1289  19.1292  19.2007

          k = 0.0000 0.0000-0.5734 ( 31692 PWs)   bands (ev):

   -66.6740 -66.6740 -66.6667 -66.6270 -66.6265 -66.6219 -66.6219 -66.6216
   -66.6215 -62.3464 -62.3457 -62.3438 -62.3438 -62.3433 -62.3433 -62.3191
   -62.3191 -62.3156 -35.4466 -35.4465 -35.4362 -35.4064 -35.4064 -35.4062
   -35.4062 -35.4026 -35.3986 -35.3857 -35.3852 -35.3807 -35.3806 -35.3801
   -35.3801 -35.3732 -35.3725 -35.3714 -35.3695 -35.3691 -35.3673 -35.3581
   -35.3574 -35.3508 -35.3506 -35.3481 -35.3479 -31.1911 -31.1906 -31.1894
   -31.1883 -31.1881 -31.1857 -31.1836 -31.1815 -31.1812 -31.1798 -31.1791
   -31.1788 -31.1671 -31.1669 -31.1629 -31.1437 -31.1430 -31.1398 -31.1397
   -31.1391 -31.1391 -31.1379 -31.1378 -31.1360 -31.1360 -31.1352 -31.1325
     6.1590   6.2134   7.5361   7.5371   7.5555   7.5559   7.5938   7.5942
     7.6432   7.6433   8.3052   8.3267   8.3404   8.3406   8.3683   8.3683
     8.3693   8.4110   8.4643   8.4646   8.4661   8.4662   8.5028   8.5029
     8.5077   8.5080   8.6965   8.7131   8.7500   8.8009   8.9320   8.9609
     8.9633   8.9763   8.9764   9.0015   9.0026   9.0029   9.0051   9.0054
     9.0335   9.0406   9.0407   9.0617   9.0676   9.1111   9.2258   9.2263
     9.2294   9.2296   9.2626   9.2627   9.2714   9.2719   9.2733   9.2772
     9.2773   9.2792   9.2818   9.2968   9.2971   9.2980   9.4131   9.4134
     9.4197   9.4198   9.4534   9.4537   9.4540   9.4542   9.4624   9.4626
     9.4901   9.4902   9.5149   9.5154   9.5190   9.5193   9.6166   9.6880
     9.7839   9.7839   9.7896   9.7898   9.8180   9.8183   9.8505   9.8506
     9.8668   9.8719   9.8840   9.8840   9.8858   9.8859   9.8917   9.8926
    10.0553  10.0602  10.0612  10.0632  10.1351  10.1446  10.1595  10.1644
    10.1647  10.1763  10.1907  10.1996  10.1998  10.2206  10.3492  10.3599
    10.3934  10.3934  10.4059  10.4064  10.4316  10.4484  10.4649  10.5293
    10.5845  10.5848  10.5934  10.6105  10.6111  10.6451  10.6461  10.6545
    10.6891  10.6892  10.7531  10.7531  10.7716  10.8192  10.8195  10.8890
    10.9139  10.9446  10.9909  10.9910  11.0295  11.0409  11.0415  11.0652
    11.0654  11.0676  11.0684  11.1777  11.1780  11.1815  11.1816  11.2299
    11.2537  11.2540  11.2567  11.2567  11.2589  11.2612  11.2614  11.2621
    11.2623  11.2802  11.2803  11.2911  11.2912  11.3040  11.3080  11.3082
    11.3218  11.3248  11.3271  11.3272  11.5145  11.5389  11.7082  11.7194
    11.7194  11.7245  11.7245  11.7246  11.7332  11.7374  11.7376  11.7425
    11.7518  11.7837  11.7844  11.7949  11.7951  11.8501  11.8501  11.9230
    11.9768  12.0060  12.0063  12.0063  12.0152  12.0481  12.0488  12.1530
    12.1677  12.1805  12.1820  12.2500  12.2515  12.2851  12.2876  12.4500
    12.4506  12.4538  12.4553  12.4590  12.4592  12.4822  12.4960  12.5137
    12.5162  12.5427  12.5453  12.5470  12.5498  12.5952  12.5969  12.6242
    12.6703  12.6972  12.7056  12.7605  12.7608  12.7917  12.8571  12.8584
    12.9087  12.9091  12.9201  13.1525  13.1547  13.2226  13.2239  13.3501
    13.3733  13.3737  13.4494  13.5085  13.5087  13.5812  13.7366  13.7378
    13.7552  13.8058  13.9873  13.9883  14.1105  14.1112  14.4850  14.5883
    14.5887  14.9158  14.9252  14.9255  14.9669  14.9670  15.1124  15.1127
    15.1485  15.2616  15.2626  15.3015  15.3019  15.3042  15.3042  15.4658
    15.5582  15.6236  15.6247  15.6554  15.8700  16.0218  16.0234  16.0947
    16.1228  16.1244  16.1288  16.1305  16.1553  16.1623  16.1629  16.1757
    16.2398  16.2402  16.2767  16.3044  16.3076  16.3077  16.3082  16.3083
    16.4265  16.5241  16.6350  16.6355  16.6681  16.6683  16.7977  16.7992
    16.8870  16.8874  17.0598  17.3241  17.3389  17.3654  17.6066  17.6073
    17.6474  17.6478  17.6992  17.6994  17.7011  17.7024  17.7798  17.8825
    17.9409  18.0073  18.0300  18.1733  18.2104  18.2105  18.3490  18.3546

          k = 0.0000-0.5000 0.0000 ( 31722 PWs)   bands (ev):

   -66.6740 -66.6740 -66.6667 -66.6270 -66.6265 -66.6219 -66.6219 -66.6215
   -66.6215 -62.3464 -62.3457 -62.3438 -62.3438 -62.3433 -62.3433 -62.3191
   -62.3191 -62.3156 -35.4466 -35.4465 -35.4362 -35.4064 -35.4064 -35.4062
   -35.4062 -35.4026 -35.3986 -35.3857 -35.3852 -35.3806 -35.3806 -35.3801
   -35.3801 -35.3731 -35.3726 -35.3708 -35.3707 -35.3681 -35.3678 -35.3579
   -35.3576 -35.3507 -35.3507 -35.3480 -35.3480 -31.1911 -31.1906 -31.1892
   -31.1890 -31.1868 -31.1867 -31.1827 -31.1826 -31.1804 -31.1802 -31.1790
   -31.1788 -31.1671 -31.1669 -31.1629 -31.1437 -31.1430 -31.1398 -31.1397
   -31.1391 -31.1391 -31.1379 -31.1378 -31.1361 -31.1360 -31.1352 -31.1325
     6.0436   6.0437   7.3951   7.4442   7.4445   7.5067   7.6751   7.6752
     8.1084   8.1181   8.1439   8.1440   8.2295   8.2295   8.2702   8.2704
     8.3870   8.4401   8.4401   8.4801   8.6152   8.6206   8.6627   8.6631
     8.6734   8.6736   8.6794   8.7037   8.7731   8.7899   8.8334   8.8335
     8.8439   8.8597   8.8599   8.8919   8.9095   8.9096   8.9143   8.9248
     8.9249   8.9327   8.9328   8.9602   9.0466   9.0467   9.1469   9.1735
     9.1738   9.2132   9.2133   9.2307   9.2465   9.2467   9.3024   9.3296
     9.3581   9.3583   9.3963   9.4284   9.4747   9.4748   9.4882   9.5290
     9.5293   9.5600   9.5615   9.5617   9.5865   9.6033   9.6034   9.6133
     9.6208   9.6210   9.6286   9.6288   9.6342   9.6348   9.6349   9.6650
     9.6715   9.6717   9.6852   9.6853   9.6902   9.7162   9.7184   9.7187
     9.7392   9.7393   9.7655   9.7974   9.8972   9.8972   9.9121   9.9761
    10.0211  10.0211  10.1752  10.1753  10.2146  10.2147  10.2563  10.2564
    10.2714  10.2715  10.2795  10.2807  10.2809  10.2822  10.3147  10.3646
    10.3648  10.3813  10.3814  10.3977  10.4092  10.4653  10.4655  10.4717
    10.5210  10.5211  10.5298  10.5334  10.5338  10.5874  10.5958  10.5959
    10.6150  10.6151  10.6393  10.7192  10.7193  10.7416  10.7530  10.7532
    10.8253  10.8297  10.8298  10.8406  10.8406  10.8720  10.8721  10.9672
    10.9896  11.0198  11.0198  11.0300  11.0301  11.0560  11.1703  11.1815
    11.3118  11.3124  11.3457  11.3511  11.3714  11.3718  11.3758  11.4248
    11.4254  11.4478  11.4481  11.4821  11.4901  11.5581  11.5587  11.6067
    11.6114  11.6114  11.6425  11.6425  11.6492  11.6497  11.6689  11.7678
    11.7727  11.7727  11.8111  11.8142  11.8248  11.8248  11.8744  11.8924
    11.8926  11.8933  11.8935  11.9183  11.9352  11.9509  11.9589  11.9610
    11.9611  11.9612  11.9868  11.9870  12.1078  12.1082  12.1193  12.1959
    12.2015  12.2032  12.2181  12.2186  12.2658  12.2660  12.2785  12.2976
    12.2978  12.3421  12.3567  12.3585  12.3585  12.3592  12.3944  12.3998
    12.4216  12.4229  12.5100  12.5129  12.5152  12.5390  12.5395  12.5658
    12.5775  12.6076  12.6171  12.6685  12.6694  12.6853  12.6865  12.7986
    12.7996  13.0282  13.0284  13.0567  13.0843  13.0886  13.1341  13.1353
    13.2125  13.2128  13.2146  13.2709  13.2723  13.3202  13.3504  13.3515
    13.4520  13.5233  13.6573  13.6651  13.7606  14.5420  14.5427  14.5713
    14.5723  14.7523  14.7655  14.7659  14.8432  14.8549  14.8561  15.0174
    15.0206  15.0722  15.0730  15.2342  15.2347  15.4426  15.4442  15.6796
    15.6797  15.8437  15.8438  15.8738  15.9315  15.9317  15.9824  15.9863
    16.0212  16.0774  16.0786  16.0883  16.0975  16.1924  16.2032  16.2040
    16.2292  16.2302  16.2336  16.2386  16.2407  16.2557  16.3598  16.3849
    16.3854  16.5454  16.6627  16.6629  16.6738  16.8390  17.0522  17.0530
    17.1878  17.1879  17.3266  17.3270  17.4357  17.4359  17.6293  17.6559
    17.6576  17.6577  17.8215  17.8216  17.8358  17.8369  18.0011  18.0216
    18.0217  18.0951  18.0955  18.2975  19.2093  19.3224  19.3225  19.3686

          k = 0.0000-0.5000-0.5734 ( 31696 PWs)   bands (ev):

   -66.6740 -66.6740 -66.6667 -66.6270 -66.6265 -66.6219 -66.6219 -66.6215
   -66.6215 -62.3464 -62.3457 -62.3438 -62.3438 -62.3433 -62.3433 -62.3191
   -62.3191 -62.3156 -35.4466 -35.4465 -35.4362 -35.4064 -35.4064 -35.4062
   -35.4062 -35.4026 -35.3986 -35.3857 -35.3852 -35.3806 -35.3806 -35.3801
   -35.3801 -35.3731 -35.3726 -35.3708 -35.3707 -35.3681 -35.3678 -35.3579
   -35.3576 -35.3507 -35.3507 -35.3480 -35.3480 -31.1911 -31.1906 -31.1892
   -31.1890 -31.1868 -31.1867 -31.1827 -31.1826 -31.1804 -31.1802 -31.1790
   -31.1788 -31.1671 -31.1669 -31.1629 -31.1437 -31.1430 -31.1398 -31.1397
   -31.1391 -31.1391 -31.1379 -31.1378 -31.1360 -31.1360 -31.1352 -31.1325
     6.5585   6.5587   6.6092   6.6096   7.8285   7.8682   7.8705   7.8710
     7.9106   7.9108   7.9113   7.9486   8.2679   8.2776   8.3058   8.3059
     8.5271   8.5272   8.5281   8.5285   8.6810   8.6811   8.6849   8.6850
     8.6900   8.6964   8.6977   8.6978   8.6985   8.7151   8.7427   8.7429
     8.7749   8.7749   8.8009   8.8009   8.9835   8.9836   9.0339   9.0340
     9.0389   9.0392   9.0576   9.0580   9.2102   9.2102   9.2195   9.2215
     9.2277   9.2279   9.2320   9.2322   9.2496   9.2554   9.2561   9.2562
     9.2590   9.2705   9.2708   9.2762   9.3150   9.3154   9.3871   9.4141
     9.4192   9.4193   9.4243   9.4535   9.4595   9.4598   9.4652   9.4824
     9.4887   9.4990   9.5021   9.5108   9.5109   9.5503   9.5504   9.5829
     9.5831   9.6165   9.7530   9.7607   9.7880   9.8056   9.8060   9.8301
     9.8416   9.8449   9.8452   9.8539   9.8541   9.8569   9.8572   9.8835
     9.9559   9.9559   9.9742   9.9743  10.0549  10.0549  10.0635  10.0636
    10.3951  10.3952  10.4045  10.4049  10.4186  10.4187  10.4233  10.4516
    10.4764  10.4765  10.4927  10.4928  10.4970  10.4971  10.5008  10.5229
    10.5231  10.5668  10.5669  10.5728  10.5917  10.5919  10.6052  10.6052
    10.6521  10.6667  10.6668  10.6731  10.6750  10.6787  10.6790  10.7082
    10.7549  10.8480  10.8845  10.9015  11.0094  11.0097  11.0478  11.0482
    11.1311  11.1508  11.1510  11.1551  11.1580  11.1892  11.1893  11.1945
    11.2120  11.2133  11.3005  11.3012  11.3494  11.3495  11.3590  11.3590
    11.3714  11.3714  11.4015  11.4017  11.4312  11.4315  11.5074  11.5076
    11.5459  11.5460  11.5740  11.5810  11.5812  11.5916  11.5974  11.5977
    11.6086  11.6125  11.7362  11.7366  11.7602  11.7613  11.8148  11.8149
    11.9021  11.9256  11.9509  11.9510  11.9566  11.9580  11.9583  12.0031
    12.0114  12.0119  12.0119  12.0249  12.0374  12.0391  12.1207  12.1211
    12.1364  12.1535  12.1554  12.2195  12.2201  12.2432  12.3203  12.3209
    12.3856  12.3872  12.4146  12.4453  12.4470  12.4530  12.5033  12.5041
    12.5046  12.5074  12.5089  12.5322  12.5634  12.6115  12.6120  12.6391
    12.6552  12.7066  12.7068  12.7386  12.7387  12.8173  12.8267  12.8271
    12.8580  12.9538  12.9939  12.9950  13.0278  13.0407  13.0904  13.1999
    13.2105  13.3512  13.3513  13.6888  13.6903  13.7276  13.7288  13.8386
    13.8388  13.8755  13.9882  13.9888  14.0977  14.0996  14.2209  14.3156
    14.3157  14.3344  14.3351  14.4563  14.5347  14.5647  14.6144  15.1744
    15.2077  15.2787  15.3319  15.3326  15.4568  15.4580  15.6438  15.6447
    15.6538  15.6891  15.6896  15.9950  15.9953  16.0104  16.0910  16.0917
    16.1189  16.2008  16.2087  16.2096  16.2508  16.2646  16.2660  16.2678
    16.2890  16.2894  16.2921  16.3101  16.3107  16.3414  16.3428  16.4775
    16.4777  16.5698  16.5829  16.5842  16.6148  16.6251  16.6301  16.6629
    16.7401  16.7404  16.7964  16.7976  16.8783  16.8963  16.8971  16.9682
    17.0841  17.0847  17.1050  17.1887  18.6529  18.6533  18.7253  18.7257
    18.8397  18.8400  18.8442  18.8446  18.9491  18.9493  18.9827  18.9829

          k =-0.5000-0.5000 0.0000 ( 31612 PWs)   bands (ev):

   -66.6740 -66.6740 -66.6667 -66.6270 -66.6265 -66.6219 -66.6219 -66.6215
   -66.6215 -62.3464 -62.3457 -62.3438 -62.3438 -62.3433 -62.3433 -62.3191
   -62.3191 -62.3156 -35.4466 -35.4465 -35.4362 -35.4064 -35.4064 -35.4062
   -35.4062 -35.4026 -35.3986 -35.3857 -35.3852 -35.3806 -35.3806 -35.3802
   -35.3801 -35.3732 -35.3725 -35.3714 -35.3695 -35.3691 -35.3673 -35.3580
   -35.3575 -35.3509 -35.3505 -35.3480 -35.3480 -31.1911 -31.1906 -31.1895
   -31.1882 -31.1880 -31.1857 -31.1837 -31.1814 -31.1811 -31.1799 -31.1791
   -31.1788 -31.1671 -31.1669 -31.1629 -31.1437 -31.1430 -31.1398 -31.1397
   -31.1391 -31.1390 -31.1379 -31.1378 -31.1360 -31.1360 -31.1352 -31.1325
     6.4335   6.4410   6.4412   6.4470   8.0100   8.0157   8.0160   8.0235
     8.0862   8.1324   8.3196   8.3197   8.3300   8.3303   8.3405   8.3407
     8.3521   8.3522   8.3666   8.3674   8.3678   8.3679   8.5875   8.5876
     8.6532   8.6533   8.6842   8.6843   8.7276   8.7277   8.7494   8.7511
     8.7551   8.7552   8.9546   8.9556   8.9557   8.9557   8.9746   8.9768
     9.0037   9.0041   9.0047   9.0074   9.0095   9.0100   9.0100   9.0103
     9.1094   9.1365   9.3099   9.3146   9.3148   9.3183   9.4129   9.4130
     9.4149   9.4223   9.4244   9.4245   9.4343   9.4347   9.4510   9.4515
     9.4582   9.4584   9.4783   9.4820   9.4822   9.4862   9.5183   9.5183
     9.5239   9.5239   9.5425   9.5425   9.5727   9.5727   9.5785   9.6016
     9.6016   9.6065   9.6951   9.6971   9.8084   9.8085   9.8106   9.8264
     9.8268   9.8333   9.8334   9.8337   9.8375   9.8561  10.0489  10.0572
    10.0887  10.1297  10.1297  10.1445  10.1445  10.1522  10.1524  10.1782
    10.1859  10.1860  10.1933  10.2115  10.2128  10.2128  10.2283  10.2284
    10.2297  10.2359  10.2361  10.2407  10.4630  10.4714  10.4788  10.4790
    10.4857  10.4912  10.4914  10.5095  10.6278  10.6530  10.6533  10.6734
    10.6735  10.6763  10.6766  10.6797  10.6809  10.6810  10.6831  10.6832
    10.8057  10.8060  10.8133  10.8133  10.8324  10.8496  10.8535  10.8535
    10.8662  10.8664  11.2105  11.2113  11.2123  11.2125  11.3201  11.3202
    11.3398  11.3400  11.3677  11.3679  11.3894  11.3896  11.4892  11.5779
    11.6284  11.6421  11.6449  11.6458  11.6461  11.6482  11.6526  11.6564
    11.6566  11.6651  11.7033  11.7036  11.7237  11.7333  11.7354  11.8734
    11.8734  11.8827  11.8829  11.8862  11.8907  11.9598  11.9608  11.9722
    12.0788  12.0794  12.1005  12.1007  12.1029  12.1029  12.1039  12.1039
    12.1153  12.1164  12.1516  12.1527  12.1538  12.1544  12.1945  12.1957
    12.1962  12.1974  12.2133  12.2220  12.2234  12.2420  12.2422  12.2670
    12.2737  12.2838  12.2859  12.2864  12.2888  12.2907  12.2917  12.2951
    12.3090  12.3094  12.3215  12.3224  12.3649  12.3669  12.4940  12.5025
    12.5755  12.5774  12.5925  12.5928  12.6334  12.6918  12.7664  12.8213
    12.8647  12.8671  12.9046  12.9054  12.9240  12.9250  12.9261  13.0068
    13.0092  13.0177  13.0200  13.0562  13.0974  13.6761  13.6785  13.8184
    13.8188  13.8861  13.8864  14.0381  14.0384  14.0777  14.0788  14.0852
    14.1087  14.1091  14.1248  14.1263  14.4307  14.4311  14.7872  14.8941
    14.8976  14.8985  15.1832  15.2892  15.5750  15.5761  15.6036  15.7468
    15.7473  15.8296  15.8327  15.8753  15.9048  15.9048  15.9290  16.0811
    16.0820  16.0956  16.0972  16.1211  16.1460  16.1628  16.2083  16.2268
    16.2280  16.3341  16.3354  16.4360  16.4368  16.5030  16.5055  16.5341
    16.5915  16.5935  16.6051  16.6053  16.6378  16.6388  16.6389  16.6410
    16.7470  16.7477  16.8503  16.8510  17.3795  17.3932  17.5705  17.9068
    18.0312  18.2008  18.2008  18.2065  18.4383  18.4655  18.4662  18.4978
    18.6042  18.6296  18.6300  18.6386  18.7188  18.7892  18.7902  18.7905

          k =-0.5000-0.5000-0.5734 ( 31672 PWs)   bands (ev):

   -66.6740 -66.6740 -66.6667 -66.6270 -66.6265 -66.6219 -66.6219 -66.6215
   -66.6215 -62.3464 -62.3457 -62.3438 -62.3438 -62.3433 -62.3433 -62.3191
   -62.3191 -62.3156 -35.4466 -35.4465 -35.4362 -35.4064 -35.4064 -35.4062
   -35.4062 -35.4026 -35.3986 -35.3857 -35.3852 -35.3806 -35.3806 -35.3802
   -35.3801 -35.3732 -35.3725 -35.3714 -35.3695 -35.3691 -35.3673 -35.3580
   -35.3575 -35.3509 -35.3505 -35.3480 -35.3480 -31.1911 -31.1906 -31.1895
   -31.1882 -31.1880 -31.1857 -31.1837 -31.1814 -31.1811 -31.1799 -31.1791
   -31.1788 -31.1671 -31.1669 -31.1629 -31.1437 -31.1430 -31.1398 -31.1397
   -31.1391 -31.1390 -31.1379 -31.1378 -31.1360 -31.1360 -31.1352 -31.1325
     6.8987   6.9321   6.9430   6.9437   6.9905   6.9934   6.9936   7.0589
     8.4619   8.4675   8.4807   8.4807   8.4842   8.4846   8.4871   8.4876
     8.4981   8.4983   8.5283   8.5286   8.5465   8.5469   8.5474   8.5694
     8.5696   8.5814   8.5816   8.6172   8.8651   8.8755   8.8927   8.8928
     8.8963   8.8964   8.9554   8.9626   9.0938   9.1188   9.1247   9.1251
     9.1274   9.1363   9.1366   9.1529   9.1535   9.1536   9.1605   9.1607
     9.1643   9.1649   9.1673   9.1738   9.1739   9.1760   9.1773   9.1834
     9.1834   9.1893   9.1954   9.1958   9.1989   9.1991   9.2021   9.2022
     9.2219   9.2220   9.2403   9.2495   9.2496   9.2777   9.2833   9.2836
     9.5515   9.5516   9.5526   9.5530   9.5915   9.5916   9.6240   9.6241
     9.6510   9.6856   9.6858   9.7034   9.7195   9.7339   9.7342   9.7719
     9.8068   9.8208   9.8579   9.8580   9.8714   9.8815   9.8816   9.9127
    10.1413  10.1415  10.1477  10.1478  10.1763  10.1764  10.1821  10.1826
    10.2950  10.3204  10.4438  10.4477  10.4614  10.4773  10.4784  10.4829
    10.4833  10.4933  10.4940  10.4942  10.4987  10.4989  10.5112  10.5214
    10.5220  10.5380  10.5381  10.5415  10.5767  10.6132  10.6138  10.6150
    10.6153  10.6315  10.6317  10.6376  10.6380  10.6475  10.6519  10.6592
    10.6736  10.6740  10.7286  10.7287  10.7414  10.7415  10.9814  11.0136
    11.0719  11.0723  11.0941  11.0944  11.1722  11.1729  11.3838  11.3838
    11.4057  11.4060  11.4310  11.4364  11.4366  11.4439  11.4464  11.4465
    11.4910  11.4912  11.5152  11.5173  11.5176  11.5542  11.5717  11.5807
    11.6269  11.6423  11.6530  11.6607  11.6612  11.6686  11.6686  11.7152
    11.7234  11.7350  11.7587  11.7700  11.7778  11.7780  11.7862  11.7869
    11.7972  11.7975  11.8323  11.8327  11.8775  11.9291  11.9681  12.0847
    12.0848  12.1249  12.1257  12.1259  12.1269  12.1377  12.1977  12.1977
    12.2034  12.2036  12.2080  12.2210  12.2217  12.2378  12.2387  12.3095
    12.3119  12.3944  12.3961  12.4179  12.4555  12.4561  12.4735  12.4748
    12.4884  12.4908  12.4974  12.4993  12.5037  12.5127  12.5168  12.6163
    12.6422  12.6426  12.6846  12.6857  12.7064  12.8010  12.8021  12.9301
    12.9320  12.9418  13.0274  13.0280  13.1077  13.1553  13.1557  13.1697
    13.2796  13.2814  13.5038  13.5040  13.5048  13.5054  13.5511  13.5521
    13.5526  13.5591  13.5593  13.8142  13.9386  13.9397  14.1425  14.1439
    14.2620  14.3592  14.4918  14.6854  14.8054  14.8056  14.8720  14.9101
    14.9102  15.0688  15.1078  15.2995  15.3001  15.4366  15.4370  15.6498
    15.6500  15.7456  15.8423  15.8425  15.8655  16.0289  16.0305  16.0378
    16.0394  16.0500  16.1418  16.2041  16.2062  16.2191  16.2241  16.3013
    16.3027  16.4410  16.4418  16.4489  16.4506  16.4883  16.4888  16.5275
    16.5288  16.5405  16.5533  16.5555  16.5667  16.7361  16.7364  16.7578
    16.7908  16.8003  16.8601  16.8613  16.9146  16.9157  16.9452  16.9453
    17.0592  17.0597  17.5605  17.7532  17.8890  17.9325  18.9927  18.9928
    19.0075  19.0675  19.0678  19.1185  19.1230  19.1230  19.3020  19.3021

     the Fermi energy is    14.7896 ev

!    total energy              =  -33062.61990703 Ry
     Harris-Foulkes estimate   =  -33062.61990020 Ry
     estimated scf accuracy    <       0.00000057 Ry

     total all-electron energy =  -1410574.710281 Ry

     The total energy is the sum of the following terms:

     one-electron contribution =   -1646.24107754 Ry
     hartree contribution      =    1490.44761362 Ry
     xc contribution           =   -1658.78981046 Ry
     ewald contribution        =   -4919.25534656 Ry
     one-center paw contrib.   =  -26328.78128610 Ry

     total magnetization       =    -0.00 Bohr mag/cell
     absolute magnetization    =    78.20 Bohr mag/cell

     convergence has been achieved in  28 iterations

     Writing output data file mnau2.save
 
     init_run     :     40.43s CPU     41.13s WALL (       1 calls)
     electrons    :   2944.46s CPU   3009.48s WALL (       1 calls)

     Called by init_run:
     wfcinit      :     34.55s CPU     34.98s WALL (       1 calls)
     potinit      :      2.44s CPU      2.51s WALL (       1 calls)

     Called by electrons:
     c_bands      :   2569.41s CPU   2611.53s WALL (      28 calls)
     sum_band     :    301.15s CPU    308.44s WALL (      28 calls)
     v_of_rho     :      7.50s CPU      7.72s WALL (      29 calls)
     newd         :     23.56s CPU     26.82s WALL (      29 calls)
     PAW_pot      :     42.97s CPU     43.70s WALL (      29 calls)
     mix_rho      :      1.53s CPU      1.62s WALL (      28 calls)

     Called by c_bands:
     init_us_2    :     10.41s CPU     10.48s WALL (     684 calls)
     cegterg      :   2503.72s CPU   2545.10s WALL (     336 calls)

     Called by sum_band:
     sum_band:bec :      1.71s CPU      1.71s WALL (     336 calls)
     addusdens    :     42.31s CPU     46.17s WALL (      28 calls)

     Called by *egterg:
     h_psi        :    928.86s CPU    938.14s WALL (    1212 calls)
     s_psi        :    222.93s CPU    223.16s WALL (    1212 calls)
     g_psi        :      3.38s CPU      3.39s WALL (     864 calls)
     cdiaghg      :    833.90s CPU    834.44s WALL (    1200 calls)

     Called by h_psi:
     h_psi:pot    :    920.50s CPU    929.71s WALL (    1212 calls)
     h_psi:calbec :    224.84s CPU    226.88s WALL (    1212 calls)
     vloc_psi     :    470.41s CPU    477.32s WALL (    1212 calls)
     add_vuspsi   :    225.22s CPU    225.50s WALL (    1212 calls)

     General routines
     calbec       :    324.69s CPU    327.68s WALL (    1548 calls)
     fft          :      6.58s CPU      7.07s WALL (     889 calls)
     ffts         :      0.15s CPU      0.15s WALL (     114 calls)
     fftw         :    448.60s CPU    455.24s WALL (  726072 calls)
     interpolate  :      1.10s CPU      1.15s WALL (     114 calls)
 
     Parallel routines
     fft_scatt_xy :     55.99s CPU     56.64s WALL (  727075 calls)
     fft_scatt_yz :    117.68s CPU    120.92s WALL (  727075 calls)
 
     PWSCF        : 49m50.16s CPU    51m47.48s WALL

 
   This run was terminated on:  13: 0:38   8Mar2019            

=------------------------------------------------------------------------------=
   JOB DONE.
=------------------------------------------------------------------------------=
