
     Program PWSCF v.6.2 (svn rev. 14038) starts on  8Mar2019 at 15:44: 1 

     This program is part of the open-source Quantum ESPRESSO suite
     for quantum simulation of materials; please cite
         "P. Giannozzi et al., J. Phys.:Condens. Matter 21 395502 (2009);
         "P. Giannozzi et al., J. Phys.:Condens. Matter 29 465901 (2017);
          URL http://www.quantum-espresso.org", 
     in publications or presentations arising from this work. More details at
     http://www.quantum-espresso.org/quote

     Parallel version (MPI), running on    16 processors

     MPI processes distributed on     1 nodes
     R & G space division:  proc/nbgrp/npool/nimage =      16
     Waiting for input...
     Reading input from standard input

     Current dimensions of program PWSCF are:
     Max number of different atomic species (ntypx) = 10
     Max number of k-points (npk) =  40000
     Max angular momentum in pseudopotentials (lmaxx) =  3
               file Mn.pbe-spn-kjpaw_psl.0.3.1.UPF: wavefunction(s)  3P 3D renormalized
               file Mn.pbe-spn-kjpaw_psl.0.3.1.UPF: wavefunction(s)  3P 3D renormalized
               file Au.pbe-dn-kjpaw_psl.0.1.UPF: wavefunction(s)  6S 6P 5D renormalized

     Subspace diagonalization in iterative solution of the eigenvalue problem:
     a serial algorithm will be used

 
     Parallelization info
     --------------------
     sticks:   dense  smooth     PW     G-vecs:    dense   smooth      PW
     Min         736     331     90                52486    15847    2256
     Max         737     332     91                52489    15850    2259
     Sum       11785    5297   1449               839803   253559   36125
 


     bravais-lattice index     =            0
     lattice parameter (alat)  =      19.2459  a.u.
     unit-cell volume          =    6216.1497 (a.u.)^3
     number of atoms/cell      =           54
     number of atomic types    =            3
     number of electrons       =       666.00
     number of Kohn-Sham states=          400
     kinetic-energy cutoff     =      45.0000  Ry
     charge density cutoff     =     400.0000  Ry
     convergence threshold     =      1.0E-06
     mixing beta               =       0.1000
     number of iterations used =            8  plain     mixing
     Exchange-correlation      = SLA PW PBX PBC ( 1  4  3  4 0 0)

     celldm(1)=  19.245946  celldm(2)=   0.000000  celldm(3)=   0.000000
     celldm(4)=   0.000000  celldm(5)=   0.000000  celldm(6)=   0.000000

     crystal axes: (cart. coord. in units of alat)
               a(1) = (   1.000000   0.000000   0.000000 )  
               a(2) = (   0.000000   1.000000   0.000000 )  
               a(3) = (   0.000000   0.000000   0.871974 )  

     reciprocal axes: (cart. coord. in units 2 pi/alat)
               b(1) = (  1.000000  0.000000  0.000000 )  
               b(2) = (  0.000000  1.000000  0.000000 )  
               b(3) = (  0.000000  0.000000  1.146823 )  


     PseudoPot. # 1 for Mn read from file:
     ./pseudo/Mn.pbe-spn-kjpaw_psl.0.3.1.UPF
     MD5 check sum: 7eef95dd2aae66803482eea66ebeebf1
     Pseudo is Projector augmented-wave + core cor, Zval = 15.0
     Generated using "atomic" code by A. Dal Corso v.5.0.99 svn rev. 10869
     Shape of augmentation charge: PSQ
     Using radial grid of 1187 points,  6 beta functions with: 
                l(1) =   0
                l(2) =   0
                l(3) =   1
                l(4) =   1
                l(5) =   2
                l(6) =   2
     Q(r) pseudized with 0 coefficients 


     PseudoPot. # 2 for Mn read from file:
     ./pseudo/Mn.pbe-spn-kjpaw_psl.0.3.1.UPF
     MD5 check sum: 7eef95dd2aae66803482eea66ebeebf1
     Pseudo is Projector augmented-wave + core cor, Zval = 15.0
     Generated using "atomic" code by A. Dal Corso v.5.0.99 svn rev. 10869
     Shape of augmentation charge: PSQ
     Using radial grid of 1187 points,  6 beta functions with: 
                l(1) =   0
                l(2) =   0
                l(3) =   1
                l(4) =   1
                l(5) =   2
                l(6) =   2
     Q(r) pseudized with 0 coefficients 


     PseudoPot. # 3 for Au read from file:
     ./pseudo/Au.pbe-dn-kjpaw_psl.0.1.UPF
     MD5 check sum: 5c9b92683623e7ae2ab3f8e525febab6
     Pseudo is Projector augmented-wave + core cor, Zval = 11.0
     Generated using "atomic" code by A. Dal Corso v.5.0.2 svn rev. 9415
     Shape of augmentation charge: PSQ
     Using radial grid of 1279 points,  6 beta functions with: 
                l(1) =   0
                l(2) =   0
                l(3) =   1
                l(4) =   1
                l(5) =   2
                l(6) =   2
     Q(r) pseudized with 0 coefficients 


     atomic species   valence    mass     pseudopotential
        Mn1           15.00    54.93800     Mn( 1.00)
        Mn2           15.00    54.93800     Mn( 1.00)
        Au            11.00   196.96600     Au( 1.00)

     Starting magnetic structure 
     atomic species   magnetization
        Mn1          0.800
        Mn2         -0.800
        Au           0.000

      2 Sym. Ops. (no inversion) found



   Cartesian axes

     site n.     atom                  positions (alat units)
         1           Mn1 tau(   1) = (   0.0000000   0.0000000   0.0000000  )
         2           Mn2 tau(   2) = (   0.0000000   0.3333300   0.0000000  )
         3           Mn1 tau(   3) = (   0.0000000   0.6666700   0.0000000  )
         4           Mn1 tau(   4) = (   0.3333300   0.0000000   0.0000000  )
         5           Mn2 tau(   5) = (   0.3333300   0.3333300   0.0000000  )
         6           Mn1 tau(   6) = (   0.3333300   0.6666700   0.0000000  )
         7           Mn1 tau(   7) = (   0.6666700   0.0000000   0.0000000  )
         8           Mn1 tau(   8) = (   0.6666700   0.3333300   0.0000000  )
         9           Mn1 tau(   9) = (   0.6666700   0.6666700   0.0000000  )
        10           Mn2 tau(  10) = (   0.1666700   0.1666700   0.4359871  )
        11           Mn1 tau(  11) = (   0.1666700   0.5000000   0.4359871  )
        12           Mn2 tau(  12) = (   0.1666700   0.8333300   0.4359871  )
        13           Mn2 tau(  13) = (   0.5000000   0.1666700   0.4359871  )
        14           Mn1 tau(  14) = (   0.5000000   0.5000000   0.4359871  )
        15           Mn2 tau(  15) = (   0.5000000   0.8333300   0.4359871  )
        16           Mn2 tau(  16) = (   0.8333300   0.1666700   0.4359871  )
        17           Mn2 tau(  17) = (   0.8333300   0.5000000   0.4359871  )
        18           Mn2 tau(  18) = (   0.8333300   0.8333300   0.4359871  )
        19           Au  tau(  19) = (   0.1666700   0.1666700   0.7327374  )
        20           Au  tau(  20) = (   0.1666700   0.5000000   0.7327374  )
        21           Au  tau(  21) = (   0.1666700   0.8333300   0.7327374  )
        22           Au  tau(  22) = (   0.5000000   0.1666700   0.7327374  )
        23           Au  tau(  23) = (   0.5000000   0.5000000   0.7327374  )
        24           Au  tau(  24) = (   0.5000000   0.8333300   0.7327374  )
        25           Au  tau(  25) = (   0.8333300   0.1666700   0.7327374  )
        26           Au  tau(  26) = (   0.8333300   0.5000000   0.7327374  )
        27           Au  tau(  27) = (   0.8333300   0.8333300   0.7327374  )
        28           Au  tau(  28) = (   0.1666700   0.1666700   0.1392369  )
        29           Au  tau(  29) = (   0.1666700   0.5000000   0.1392369  )
        30           Au  tau(  30) = (   0.1666700   0.8333300   0.1392369  )
        31           Au  tau(  31) = (   0.5000000   0.1666700   0.1392369  )
        32           Au  tau(  32) = (   0.5000000   0.5000000   0.1392369  )
        33           Au  tau(  33) = (   0.5000000   0.8333300   0.1392369  )
        34           Au  tau(  34) = (   0.8333300   0.1666700   0.1392369  )
        35           Au  tau(  35) = (   0.8333300   0.5000000   0.1392369  )
        36           Au  tau(  36) = (   0.8333300   0.8333300   0.1392369  )
        37           Au  tau(  37) = (   0.0000000   0.0000000   0.2967503  )
        38           Au  tau(  38) = (   0.0000000   0.3333300   0.2967503  )
        39           Au  tau(  39) = (   0.0000000   0.6666700   0.2967503  )
        40           Au  tau(  40) = (   0.3333300   0.0000000   0.2967503  )
        41           Au  tau(  41) = (   0.3333300   0.3333300   0.2967503  )
        42           Au  tau(  42) = (   0.3333300   0.6666700   0.2967503  )
        43           Au  tau(  43) = (   0.6666700   0.0000000   0.2967503  )
        44           Au  tau(  44) = (   0.6666700   0.3333300   0.2967503  )
        45           Au  tau(  45) = (   0.6666700   0.6666700   0.2967503  )
        46           Au  tau(  46) = (   0.0000000   0.0000000   0.5752240  )
        47           Au  tau(  47) = (   0.0000000   0.3333300   0.5752240  )
        48           Au  tau(  48) = (   0.0000000   0.6666700   0.5752240  )
        49           Au  tau(  49) = (   0.3333300   0.0000000   0.5752240  )
        50           Au  tau(  50) = (   0.3333300   0.3333300   0.5752240  )
        51           Au  tau(  51) = (   0.3333300   0.6666700   0.5752240  )
        52           Au  tau(  52) = (   0.6666700   0.0000000   0.5752240  )
        53           Au  tau(  53) = (   0.6666700   0.3333300   0.5752240  )
        54           Au  tau(  54) = (   0.6666700   0.6666700   0.5752240  )

     number of k points=     8 (tetrahedron method)
                       cart. coord. in units 2pi/alat
        k(    1) = (   0.0000000   0.0000000   0.0000000), wk =   0.1250000
        k(    2) = (   0.0000000   0.0000000  -0.5734114), wk =   0.1250000
        k(    3) = (   0.0000000  -0.5000000   0.0000000), wk =   0.1250000
        k(    4) = (   0.0000000  -0.5000000  -0.5734114), wk =   0.1250000
        k(    5) = (  -0.5000000  -0.5000000   0.0000000), wk =   0.1250000
        k(    6) = (  -0.5000000  -0.5000000  -0.5734114), wk =   0.1250000
        k(    7) = (  -0.5000000   0.0000000   0.0000000), wk =   0.1250000
        k(    8) = (  -0.5000000   0.0000000   0.5734114), wk =   0.1250000

     Dense  grid:   839803 G-vectors     FFT dimensions: ( 125, 125, 108)

     Smooth grid:   253559 G-vectors     FFT dimensions: (  90,  90,  72)

     Estimated max dynamical RAM per process >     570.13 MB

     Estimated total dynamical RAM >       8.91 GB
     Generating pointlists ...
     new r_m :   0.1129 (alat units)  2.1733 (a.u.) for type    1
     new r_m :   0.1129 (alat units)  2.1733 (a.u.) for type    2
     new r_m :   0.1129 (alat units)  2.1733 (a.u.) for type    3

     Check: negative/imaginary core charge=   -0.000006    0.000000

     Initial potential from superposition of free atoms

     starting charge  665.98709, renormalised to  666.00000
     Starting wfc are  504 randomized atomic wfcs
     Checking if some PAW data can be deallocated... 

     total cpu time spent up to now is       56.3 secs

     Self-consistent Calculation

     iteration #  1     ecut=    45.00 Ry     beta= 0.10
     Davidson diagonalization with overlap
     ethr =  1.00E-02,  avg # of iterations =  3.0

     total cpu time spent up to now is      213.0 secs

     total energy              =  -33047.17075679 Ry
     Harris-Foulkes estimate   =  -33044.01114245 Ry
     estimated scf accuracy    <      27.03237799 Ry

     total magnetization       =     0.01 Bohr mag/cell
     absolute magnetization    =    92.12 Bohr mag/cell

     iteration #  2     ecut=    45.00 Ry     beta= 0.10
     Davidson diagonalization with overlap
     ethr =  4.06E-03,  avg # of iterations =  1.0

     total cpu time spent up to now is      320.8 secs

     total energy              =  -33058.59664978 Ry
     Harris-Foulkes estimate   =  -33047.35109062 Ry
     estimated scf accuracy    <      21.38757165 Ry

     total magnetization       =     0.01 Bohr mag/cell
     absolute magnetization    =    91.69 Bohr mag/cell

     iteration #  3     ecut=    45.00 Ry     beta= 0.10
     Davidson diagonalization with overlap
     ethr =  3.21E-03,  avg # of iterations =  2.1

     total cpu time spent up to now is      454.1 secs

     total energy              =  -33066.01705900 Ry
     Harris-Foulkes estimate   =  -33061.40638908 Ry
     estimated scf accuracy    <       8.79767157 Ry

     total magnetization       =    -0.03 Bohr mag/cell
     absolute magnetization    =    85.51 Bohr mag/cell

     iteration #  4     ecut=    45.00 Ry     beta= 0.10
     Davidson diagonalization with overlap
     ethr =  1.32E-03,  avg # of iterations =  4.0

     total cpu time spent up to now is      649.4 secs

     total energy              =  -33060.11409697 Ry
     Harris-Foulkes estimate   =  -33068.42279279 Ry
     estimated scf accuracy    <      48.73425483 Ry

     total magnetization       =    -0.58 Bohr mag/cell
     absolute magnetization    =    72.74 Bohr mag/cell

     iteration #  5     ecut=    45.00 Ry     beta= 0.10
     Davidson diagonalization with overlap
     ethr =  1.32E-03,  avg # of iterations =  5.6

     total cpu time spent up to now is      882.3 secs

     total energy              =  -33061.48278705 Ry
     Harris-Foulkes estimate   =  -33062.92571237 Ry
     estimated scf accuracy    <       5.44867669 Ry

     total magnetization       =    -0.14 Bohr mag/cell
     absolute magnetization    =    83.08 Bohr mag/cell

     iteration #  6     ecut=    45.00 Ry     beta= 0.10
     Davidson diagonalization with overlap
     ethr =  8.18E-04,  avg # of iterations =  4.1

     total cpu time spent up to now is     1065.4 secs

     total energy              =  -33062.52557913 Ry
     Harris-Foulkes estimate   =  -33062.62384605 Ry
     estimated scf accuracy    <       0.87841280 Ry

     total magnetization       =     0.20 Bohr mag/cell
     absolute magnetization    =    79.72 Bohr mag/cell

     iteration #  7     ecut=    45.00 Ry     beta= 0.10
     Davidson diagonalization with overlap
     ethr =  1.32E-04,  avg # of iterations =  2.4

     total cpu time spent up to now is     1196.2 secs

     total energy              =  -33062.61589525 Ry
     Harris-Foulkes estimate   =  -33062.60228813 Ry
     estimated scf accuracy    <       0.09833581 Ry

     total magnetization       =     0.01 Bohr mag/cell
     absolute magnetization    =    79.51 Bohr mag/cell

     iteration #  8     ecut=    45.00 Ry     beta= 0.10
     Davidson diagonalization with overlap
     ethr =  1.48E-05,  avg # of iterations =  3.9

     total cpu time spent up to now is     1359.9 secs

     total energy              =  -33062.59458759 Ry
     Harris-Foulkes estimate   =  -33062.63118864 Ry
     estimated scf accuracy    <       0.24476572 Ry

     total magnetization       =     0.06 Bohr mag/cell
     absolute magnetization    =    78.73 Bohr mag/cell

     iteration #  9     ecut=    45.00 Ry     beta= 0.10
     Davidson diagonalization with overlap
     ethr =  1.48E-05,  avg # of iterations =  2.1

     total cpu time spent up to now is     1487.6 secs

     total energy              =  -33062.60068383 Ry
     Harris-Foulkes estimate   =  -33062.60430751 Ry
     estimated scf accuracy    <       0.05942056 Ry

     total magnetization       =    -0.01 Bohr mag/cell
     absolute magnetization    =    78.62 Bohr mag/cell

     iteration # 10     ecut=    45.00 Ry     beta= 0.10
     Davidson diagonalization with overlap
     ethr =  8.92E-06,  avg # of iterations =  2.6

     total cpu time spent up to now is     1616.6 secs

     total energy              =  -33062.60449332 Ry
     Harris-Foulkes estimate   =  -33062.60445449 Ry
     estimated scf accuracy    <       0.01171866 Ry

     total magnetization       =     0.01 Bohr mag/cell
     absolute magnetization    =    78.80 Bohr mag/cell

     iteration # 11     ecut=    45.00 Ry     beta= 0.10
     Davidson diagonalization with overlap
     ethr =  1.76E-06,  avg # of iterations =  5.5

     total cpu time spent up to now is     1816.4 secs

     total energy              =  -33062.60869174 Ry
     Harris-Foulkes estimate   =  -33062.60794697 Ry
     estimated scf accuracy    <       0.00459831 Ry

     total magnetization       =     0.02 Bohr mag/cell
     absolute magnetization    =    79.30 Bohr mag/cell

     iteration # 12     ecut=    45.00 Ry     beta= 0.10
     Davidson diagonalization with overlap
     ethr =  6.90E-07,  avg # of iterations =  1.7

     total cpu time spent up to now is     1932.7 secs

     total energy              =  -33062.60970944 Ry
     Harris-Foulkes estimate   =  -33062.60889181 Ry
     estimated scf accuracy    <       0.00297377 Ry

     total magnetization       =     0.01 Bohr mag/cell
     absolute magnetization    =    79.24 Bohr mag/cell

     iteration # 13     ecut=    45.00 Ry     beta= 0.10
     Davidson diagonalization with overlap
     ethr =  4.47E-07,  avg # of iterations =  1.2

     total cpu time spent up to now is     2043.3 secs

     total energy              =  -33062.61028126 Ry
     Harris-Foulkes estimate   =  -33062.60970049 Ry
     estimated scf accuracy    <       0.00137323 Ry

     total magnetization       =     0.01 Bohr mag/cell
     absolute magnetization    =    79.18 Bohr mag/cell

     iteration # 14     ecut=    45.00 Ry     beta= 0.10
     Davidson diagonalization with overlap
     ethr =  2.06E-07,  avg # of iterations =  2.9

     total cpu time spent up to now is     2191.5 secs

     total energy              =  -33062.61038842 Ry
     Harris-Foulkes estimate   =  -33062.61027148 Ry
     estimated scf accuracy    <       0.00016318 Ry

     total magnetization       =     0.00 Bohr mag/cell
     absolute magnetization    =    79.03 Bohr mag/cell

     iteration # 15     ecut=    45.00 Ry     beta= 0.10
     Davidson diagonalization with overlap
     ethr =  2.45E-08,  avg # of iterations =  3.2

     total cpu time spent up to now is     2334.8 secs

     total energy              =  -33062.61039524 Ry
     Harris-Foulkes estimate   =  -33062.61038636 Ry
     estimated scf accuracy    <       0.00016449 Ry

     total magnetization       =     0.00 Bohr mag/cell
     absolute magnetization    =    79.01 Bohr mag/cell

     iteration # 16     ecut=    45.00 Ry     beta= 0.10
     Davidson diagonalization with overlap
     ethr =  2.45E-08,  avg # of iterations =  1.0

     total cpu time spent up to now is     2442.1 secs

     total energy              =  -33062.61057304 Ry
     Harris-Foulkes estimate   =  -33062.61039753 Ry
     estimated scf accuracy    <       0.00009752 Ry

     total magnetization       =     0.00 Bohr mag/cell
     absolute magnetization    =    79.02 Bohr mag/cell

     iteration # 17     ecut=    45.00 Ry     beta= 0.10
     Davidson diagonalization with overlap
     ethr =  1.46E-08,  avg # of iterations =  2.1

     total cpu time spent up to now is     2570.4 secs

     total energy              =  -33062.61063481 Ry
     Harris-Foulkes estimate   =  -33062.61055634 Ry
     estimated scf accuracy    <       0.00007008 Ry

     total magnetization       =     0.00 Bohr mag/cell
     absolute magnetization    =    78.99 Bohr mag/cell

     iteration # 18     ecut=    45.00 Ry     beta= 0.10
     Davidson diagonalization with overlap
     ethr =  1.05E-08,  avg # of iterations =  2.1

     total cpu time spent up to now is     2697.2 secs

     total energy              =  -33062.61064064 Ry
     Harris-Foulkes estimate   =  -33062.61060575 Ry
     estimated scf accuracy    <       0.00002849 Ry

     total magnetization       =     0.00 Bohr mag/cell
     absolute magnetization    =    78.98 Bohr mag/cell

     iteration # 19     ecut=    45.00 Ry     beta= 0.10
     Davidson diagonalization with overlap
     ethr =  4.28E-09,  avg # of iterations =  2.9

     total cpu time spent up to now is     2840.9 secs

     total energy              =  -33062.61062430 Ry
     Harris-Foulkes estimate   =  -33062.61060768 Ry
     estimated scf accuracy    <       0.00001313 Ry

     total magnetization       =     0.00 Bohr mag/cell
     absolute magnetization    =    78.97 Bohr mag/cell

     iteration # 20     ecut=    45.00 Ry     beta= 0.10
     Davidson diagonalization with overlap
     ethr =  1.97E-09,  avg # of iterations =  2.1

     total cpu time spent up to now is     2967.5 secs

     total energy              =  -33062.61060948 Ry
     Harris-Foulkes estimate   =  -33062.61060201 Ry
     estimated scf accuracy    <       0.00000780 Ry

     total magnetization       =     0.00 Bohr mag/cell
     absolute magnetization    =    78.96 Bohr mag/cell

     iteration # 21     ecut=    45.00 Ry     beta= 0.10
     Davidson diagonalization with overlap
     ethr =  1.17E-09,  avg # of iterations =  1.8

     total cpu time spent up to now is     3085.9 secs

     total energy              =  -33062.61060318 Ry
     Harris-Foulkes estimate   =  -33062.61059643 Ry
     estimated scf accuracy    <       0.00000558 Ry

     total magnetization       =     0.00 Bohr mag/cell
     absolute magnetization    =    78.95 Bohr mag/cell

     iteration # 22     ecut=    45.00 Ry     beta= 0.10
     Davidson diagonalization with overlap
     ethr =  8.38E-10,  avg # of iterations =  2.1

     total cpu time spent up to now is     3212.8 secs

     total energy              =  -33062.61059655 Ry
     Harris-Foulkes estimate   =  -33062.61059226 Ry
     estimated scf accuracy    <       0.00000300 Ry

     total magnetization       =     0.00 Bohr mag/cell
     absolute magnetization    =    78.95 Bohr mag/cell

     iteration # 23     ecut=    45.00 Ry     beta= 0.10
     Davidson diagonalization with overlap
     ethr =  4.51E-10,  avg # of iterations =  2.0

     total cpu time spent up to now is     3334.4 secs

     total energy              =  -33062.61059590 Ry
     Harris-Foulkes estimate   =  -33062.61059272 Ry
     estimated scf accuracy    <       0.00000190 Ry

     total magnetization       =     0.00 Bohr mag/cell
     absolute magnetization    =    78.95 Bohr mag/cell

     iteration # 24     ecut=    45.00 Ry     beta= 0.10
     Davidson diagonalization with overlap
     ethr =  2.86E-10,  avg # of iterations =  2.0

     total cpu time spent up to now is     3456.8 secs

     total energy              =  -33062.61059757 Ry
     Harris-Foulkes estimate   =  -33062.61059525 Ry
     estimated scf accuracy    <       0.00000113 Ry

     total magnetization       =     0.00 Bohr mag/cell
     absolute magnetization    =    78.95 Bohr mag/cell

     iteration # 25     ecut=    45.00 Ry     beta= 0.10
     Davidson diagonalization with overlap
     ethr =  1.69E-10,  avg # of iterations =  2.2
 
     Magnetic moment per site:
     atom:    1    charge:   13.5692    magn:    4.0606    constr:    0.0000
     atom:    2    charge:   13.5764    magn:   -4.0267    constr:    0.0000
     atom:    3    charge:   13.5798    magn:    3.9771    constr:    0.0000
     atom:    4    charge:   13.5749    magn:    4.0126    constr:    0.0000
     atom:    5    charge:   13.5728    magn:   -4.0533    constr:    0.0000
     atom:    6    charge:   13.5810    magn:    3.9645    constr:    0.0000
     atom:    7    charge:   13.5708    magn:    4.0458    constr:    0.0000
     atom:    8    charge:   13.5802    magn:    3.9785    constr:    0.0000
     atom:    9    charge:   13.5784    magn:    3.9713    constr:    0.0000
     atom:   10    charge:   13.5811    magn:   -3.9645    constr:    0.0000
     atom:   11    charge:   13.5728    magn:    4.0533    constr:    0.0000
     atom:   12    charge:   13.5750    magn:   -4.0126    constr:    0.0000
     atom:   13    charge:   13.5797    magn:   -3.9770    constr:    0.0000
     atom:   14    charge:   13.5762    magn:    4.0267    constr:    0.0000
     atom:   15    charge:   13.5691    magn:   -4.0605    constr:    0.0000
     atom:   16    charge:   13.5785    magn:   -3.9713    constr:    0.0000
     atom:   17    charge:   13.5802    magn:   -3.9785    constr:    0.0000
     atom:   18    charge:   13.5708    magn:   -4.0458    constr:    0.0000
     atom:   19    charge:    9.1219    magn:   -0.0081    constr:    0.0000
     atom:   20    charge:    9.1213    magn:    0.0090    constr:    0.0000
     atom:   21    charge:    9.1209    magn:    0.0526    constr:    0.0000
     atom:   22    charge:    9.1216    magn:    0.0180    constr:    0.0000
     atom:   23    charge:    9.1201    magn:    0.0409    constr:    0.0000
     atom:   24    charge:    9.1203    magn:    0.0472    constr:    0.0000
     atom:   25    charge:    9.1214    magn:    0.0185    constr:    0.0000
     atom:   26    charge:    9.1197    magn:    0.0166    constr:    0.0000
     atom:   27    charge:    9.1207    magn:    0.0461    constr:    0.0000
     atom:   28    charge:    9.1219    magn:   -0.0081    constr:    0.0000
     atom:   29    charge:    9.1213    magn:    0.0090    constr:    0.0000
     atom:   30    charge:    9.1209    magn:    0.0526    constr:    0.0000
     atom:   31    charge:    9.1216    magn:    0.0180    constr:    0.0000
     atom:   32    charge:    9.1201    magn:    0.0409    constr:    0.0000
     atom:   33    charge:    9.1203    magn:    0.0472    constr:    0.0000
     atom:   34    charge:    9.1214    magn:    0.0185    constr:    0.0000
     atom:   35    charge:    9.1197    magn:    0.0166    constr:    0.0000
     atom:   36    charge:    9.1207    magn:    0.0461    constr:    0.0000
     atom:   37    charge:    9.1205    magn:   -0.0472    constr:    0.0000
     atom:   38    charge:    9.1202    magn:   -0.0409    constr:    0.0000
     atom:   39    charge:    9.1218    magn:   -0.0180    constr:    0.0000
     atom:   40    charge:    9.1209    magn:   -0.0526    constr:    0.0000
     atom:   41    charge:    9.1213    magn:   -0.0091    constr:    0.0000
     atom:   42    charge:    9.1218    magn:    0.0080    constr:    0.0000
     atom:   43    charge:    9.1207    magn:   -0.0461    constr:    0.0000
     atom:   44    charge:    9.1197    magn:   -0.0166    constr:    0.0000
     atom:   45    charge:    9.1213    magn:   -0.0185    constr:    0.0000
     atom:   46    charge:    9.1205    magn:   -0.0472    constr:    0.0000
     atom:   47    charge:    9.1202    magn:   -0.0409    constr:    0.0000
     atom:   48    charge:    9.1218    magn:   -0.0180    constr:    0.0000
     atom:   49    charge:    9.1209    magn:   -0.0526    constr:    0.0000
     atom:   50    charge:    9.1213    magn:   -0.0091    constr:    0.0000
     atom:   51    charge:    9.1218    magn:    0.0080    constr:    0.0000
     atom:   52    charge:    9.1207    magn:   -0.0461    constr:    0.0000
     atom:   53    charge:    9.1197    magn:   -0.0166    constr:    0.0000
     atom:   54    charge:    9.1213    magn:   -0.0185    constr:    0.0000

     total cpu time spent up to now is     3592.9 secs

     End of self-consistent calculation

 ------ SPIN UP ------------


          k = 0.0000 0.0000 0.0000 ( 31747 PWs)   bands (ev):

   -66.7881 -66.7544 -66.7090 -66.7070 -66.6637 -66.6464 -66.6389 -66.6339
   -66.6170 -62.4136 -62.3917 -62.3849 -62.3591 -62.3505 -62.3492 -62.3474
   -62.3412 -62.3334 -35.5422 -35.5305 -35.5181 -35.5144 -35.4961 -35.4793
   -35.4636 -35.4609 -35.4585 -35.4564 -35.4393 -35.4358 -35.4332 -35.4099
   -35.4047 -35.4012 -35.3960 -35.3915 -35.3885 -35.3830 -35.3797 -35.3768
   -35.3759 -35.3709 -35.3550 -35.3535 -35.3335 -31.2500 -31.2473 -31.2309
   -31.2200 -31.2184 -31.2178 -31.2132 -31.2077 -31.2013 -31.1995 -31.1958
   -31.1957 -31.1854 -31.1815 -31.1796 -31.1753 -31.1742 -31.1726 -31.1694
   -31.1684 -31.1675 -31.1650 -31.1572 -31.1530 -31.1505 -31.1496 -31.1457
     5.6143   7.1508   7.1597   7.1943   7.2058   7.3658   7.8593   7.8884
     7.9117   7.9428   8.0843   8.1088   8.1348   8.1530   8.1908   8.2439
     8.2619   8.2923   8.3105   8.5238   8.5494   8.5640   8.5693   8.5945
     8.6035   8.8570   8.8676   8.8687   8.8789   8.8852   8.8932   8.9016
     8.9031   8.9059   8.9139   8.9168   8.9309   8.9409   8.9623   8.9637
     8.9866   9.0852   9.1194   9.1267   9.1285   9.1312   9.1594   9.1603
     9.1885   9.2010   9.2120   9.2690   9.2781   9.2936   9.3061   9.3525
     9.3556   9.3620   9.3720   9.3764   9.3823   9.3852   9.4126   9.4259
     9.4461   9.4481   9.4557   9.4664   9.4673   9.4726   9.4955   9.5813
     9.5839   9.5840   9.5887   9.5913   9.6138   9.6583   9.6684   9.6725
     9.6737   9.6767   9.6810   9.7404   9.7585   9.7731   9.7930   9.8493
     9.8506   9.9122   9.9207   9.9505   9.9550   9.9637  10.0164  10.0375
    10.0966  10.1286  10.1364  10.1582  10.2923  10.2931  10.2954  10.2997
    10.3008  10.3063  10.3064  10.3117  10.3117  10.3249  10.3342  10.3455
    10.3497  10.3511  10.3546  10.3565  10.3616  10.3658  10.3809  10.3854
    10.4009  10.5135  10.5167  10.5533  10.5706  10.6180  10.6220  10.6426
    10.6915  10.7846  10.7870  10.8140  10.8199  10.8266  10.8321  10.8493
    10.8540  10.8597  10.8629  10.8746  10.8780  10.8825  10.8988  10.9139
    10.9171  10.9180  11.0144  11.0351  11.0757  11.0978  11.2208  11.2227
    11.2265  11.2290  11.2571  11.2751  11.3070  11.3282  11.3339  11.3461
    11.3547  11.3670  11.3881  11.3916  11.4014  11.4090  11.4153  11.4217
    11.4399  11.4651  11.5322  11.5550  11.5911  11.5940  11.5968  11.5981
    11.5986  11.6680  11.7049  11.7271  11.7316  11.7318  11.7442  11.7493
    11.8302  11.8332  11.8364  11.8720  11.8732  11.9096  11.9273  11.9454
    11.9494  12.0143  12.0809  12.1013  12.1022  12.1035  12.1061  12.1443
    12.1459  12.1479  12.1494  12.1617  12.1740  12.1813  12.1915  12.2317
    12.2449  12.2464  12.3227  12.3358  12.3421  12.3617  12.3682  12.4258
    12.4292  12.4346  12.4428  12.4733  12.4881  12.5001  12.5033  12.5143
    12.5168  12.5416  12.5418  12.5552  12.5626  12.5766  12.5871  12.6514
    12.7002  12.7081  12.7437  12.7541  12.9974  13.0301  13.0914  13.1061
    13.1301  13.1311  13.1782  13.1885  13.3759  13.4665  13.6749  13.8220
    13.8390  13.9611  14.0069  14.2395  14.2436  14.3452  14.3519  14.5017
    14.7792  14.8898  14.9449  15.0459  15.0524  15.1535  15.1836  15.2345
    15.2952  15.3344  15.3729  15.3933  15.4474  15.4662  15.5182  15.5773
    15.6579  15.6585  15.7347  15.7560  15.7847  15.7981  15.9151  15.9226
    16.0065  16.0822  16.1081  16.1099  16.1147  16.1456  16.1792  16.2120
    16.2215  16.2446  16.2788  16.3404  16.3623  16.3668  16.3780  16.4388
    16.4471  16.4672  16.4739  16.5808  16.6419  16.6509  16.7561  16.8496
    16.9772  17.0302  17.1653  17.1909  17.2029  17.2472  17.2638  17.3295
    17.5023  17.5524  17.8675  17.9114  17.9336  17.9474  17.9714  18.0366
    18.1154  18.2167  18.3698  18.9817  19.0338  19.0341  19.1562  19.2290

          k = 0.0000 0.0000-0.5734 ( 31692 PWs)   bands (ev):

   -66.7881 -66.7544 -66.7090 -66.7070 -66.6637 -66.6464 -66.6389 -66.6339
   -66.6170 -62.4136 -62.3917 -62.3849 -62.3591 -62.3505 -62.3492 -62.3474
   -62.3412 -62.3334 -35.5422 -35.5305 -35.5181 -35.5144 -35.4961 -35.4793
   -35.4636 -35.4609 -35.4585 -35.4564 -35.4393 -35.4358 -35.4332 -35.4099
   -35.4047 -35.4012 -35.3960 -35.3915 -35.3885 -35.3830 -35.3797 -35.3768
   -35.3759 -35.3709 -35.3550 -35.3535 -35.3335 -31.2500 -31.2473 -31.2309
   -31.2200 -31.2184 -31.2178 -31.2132 -31.2077 -31.2013 -31.1995 -31.1958
   -31.1957 -31.1854 -31.1815 -31.1796 -31.1753 -31.1742 -31.1726 -31.1694
   -31.1684 -31.1675 -31.1650 -31.1572 -31.1530 -31.1505 -31.1496 -31.1457
     6.1373   6.2332   7.5249   7.5344   7.5621   7.5807   7.5857   7.6015
     7.6315   7.6383   8.3042   8.3075   8.3203   8.3434   8.3492   8.3832
     8.3904   8.4083   8.4558   8.4671   8.4690   8.4867   8.4896   8.4951
     8.5090   8.5113   8.6861   8.7253   8.7293   8.8163   8.9398   8.9463
     8.9505   8.9706   8.9813   8.9833   8.9901   8.9945   9.0094   9.0266
     9.0330   9.0468   9.0496   9.0608   9.0945   9.1012   9.1762   9.1878
     9.2192   9.2322   9.2456   9.2595   9.2616   9.2704   9.2792   9.2822
     9.2855   9.2984   9.2993   9.3047   9.3151   9.3271   9.4074   9.4118
     9.4119   9.4259   9.4296   9.4314   9.4422   9.4532   9.4611   9.4660
     9.4744   9.4878   9.4959   9.5149   9.5540   9.5751   9.5899   9.7288
     9.7783   9.7941   9.7991   9.8007   9.8091   9.8221   9.8453   9.8465
     9.8746   9.8781   9.8803   9.8830   9.8837   9.8857   9.8890   9.8906
    10.0538  10.0557  10.0662  10.0675  10.1293  10.1322  10.1352  10.1467
    10.1741  10.1816  10.1979  10.2150  10.2177  10.2224  10.3477  10.3780
    10.3788  10.3892  10.3954  10.4001  10.4006  10.4290  10.4323  10.5529
    10.5918  10.5979  10.6030  10.6094  10.6139  10.6329  10.6403  10.6696
    10.6724  10.6815  10.6939  10.7197  10.7622  10.8112  10.8718  10.8982
    10.9209  10.9431  10.9928  11.0088  11.0372  11.0605  11.0665  11.0819
    11.0849  11.0872  11.1141  11.1327  11.1419  11.1692  11.1720  11.1861
    11.1954  11.2316  11.2506  11.2510  11.2527  11.2547  11.2649  11.2659
    11.2686  11.2697  11.2779  11.2793  11.2874  11.3009  11.3036  11.3054
    11.3217  11.3283  11.3293  11.3315  11.5136  11.6243  11.7075  11.7114
    11.7114  11.7149  11.7179  11.7234  11.7263  11.7335  11.7358  11.7396
    11.7549  11.7742  11.7949  11.7971  11.8136  11.8324  11.8354  11.8407
    11.9496  11.9681  11.9873  11.9987  12.0349  12.0389  12.0815  12.0881
    12.1339  12.1743  12.2152  12.2421  12.2480  12.2694  12.3072  12.3729
    12.3828  12.4078  12.4211  12.4381  12.4526  12.4798  12.4893  12.4899
    12.4929  12.5297  12.5354  12.5457  12.5480  12.5700  12.5783  12.5906
    12.6202  12.6334  12.7348  12.7913  12.8195  12.8703  12.8790  12.9145
    12.9791  13.0338  13.0369  13.0739  13.1237  13.1250  13.1449  13.1453
    13.1961  13.2165  13.2507  13.4280  13.5025  13.5316  13.5358  13.7480
    13.8792  13.9535  14.0169  14.0720  14.1239  14.1688  14.2659  14.4350
    14.4910  14.8858  14.9222  14.9551  14.9759  15.0335  15.0578  15.0715
    15.1488  15.1879  15.2030  15.2092  15.2519  15.2745  15.3641  15.6302
    15.6559  15.7190  15.7435  15.7691  15.8492  15.8857  15.9579  16.0230
    16.1025  16.1245  16.1252  16.1319  16.1354  16.1725  16.1813  16.2126
    16.2346  16.2388  16.2440  16.2603  16.2641  16.2699  16.2870  16.3456
    16.3834  16.4395  16.4480  16.5159  16.6025  16.6904  16.7247  16.7598
    16.8894  16.9578  17.2468  17.3443  17.4171  17.4705  17.5392  17.5484
    17.5706  17.5724  17.6120  17.6434  17.6511  17.7257  17.7891  17.8374
    17.9058  17.9305  18.0795  18.1223  18.1773  18.2584  18.3470  18.3614

          k = 0.0000-0.5000 0.0000 ( 31722 PWs)   bands (ev):

   -66.7881 -66.7544 -66.7090 -66.7070 -66.6637 -66.6464 -66.6389 -66.6339
   -66.6170 -62.4136 -62.3917 -62.3849 -62.3591 -62.3505 -62.3492 -62.3474
   -62.3412 -62.3334 -35.5422 -35.5305 -35.5181 -35.5144 -35.4961 -35.4793
   -35.4636 -35.4609 -35.4585 -35.4564 -35.4393 -35.4358 -35.4332 -35.4099
   -35.4047 -35.4011 -35.3960 -35.3915 -35.3885 -35.3830 -35.3797 -35.3768
   -35.3759 -35.3709 -35.3550 -35.3535 -35.3335 -31.2500 -31.2473 -31.2309
   -31.2203 -31.2184 -31.2178 -31.2132 -31.2074 -31.2014 -31.1995 -31.1958
   -31.1957 -31.1853 -31.1815 -31.1796 -31.1753 -31.1742 -31.1726 -31.1696
   -31.1684 -31.1675 -31.1650 -31.1572 -31.1530 -31.1505 -31.1496 -31.1457
     6.0234   6.0608   7.4183   7.4372   7.4494   7.4840   7.6720   7.6819
     8.0994   8.1176   8.1374   8.1800   8.2118   8.2172   8.2422   8.2818
     8.4026   8.4269   8.4356   8.4770   8.5947   8.6361   8.6473   8.6548
     8.6602   8.6928   8.6974   8.7022   8.7353   8.7998   8.8264   8.8443
     8.8500   8.8603   8.8807   8.8914   8.9044   8.9090   8.9146   8.9201
     8.9262   8.9296   8.9356   8.9466   9.0476   9.0546   9.1616   9.1826
     9.1924   9.1957   9.2023   9.2317   9.2385   9.2532   9.3155   9.3388
     9.3537   9.3647   9.3778   9.4126   9.4752   9.4849   9.4941   9.5107
     9.5157   9.5374   9.5381   9.5557   9.5935   9.5948   9.6045   9.6180
     9.6213   9.6256   9.6311   9.6326   9.6348   9.6379   9.6419   9.6520
     9.6561   9.6637   9.6739   9.6787   9.6920   9.7171   9.7351   9.7518
     9.7594   9.7633   9.7658   9.7686   9.8956   9.8969   9.9061  10.0089
    10.0091  10.0427  10.1416  10.1914  10.2102  10.2377  10.2468  10.2554
    10.2639  10.2687  10.2703  10.2706  10.2842  10.2888  10.3437  10.3556
    10.3632  10.3793  10.3820  10.3851  10.4221  10.4452  10.4459  10.4728
    10.4808  10.5204  10.5240  10.5330  10.5454  10.5770  10.5795  10.5933
    10.6110  10.6593  10.6779  10.6810  10.7027  10.7243  10.7456  10.7621
    10.7969  10.8172  10.8267  10.8521  10.8659  10.8956  10.9144  10.9288
    10.9533  11.0121  11.0181  11.0218  11.0313  11.1259  11.1579  11.1912
    11.2857  11.3461  11.3523  11.3668  11.3842  11.3906  11.4066  11.4168
    11.4397  11.4429  11.4502  11.4634  11.5005  11.5292  11.5345  11.5572
    11.5719  11.5783  11.6022  11.6236  11.6454  11.6572  11.6860  11.7229
    11.7351  11.7768  11.7842  11.7901  11.7951  11.8329  11.8442  11.8449
    11.8524  11.8755  11.9096  11.9192  11.9382  11.9557  11.9579  11.9817
    11.9835  11.9915  12.0103  12.0119  12.1065  12.1517  12.1559  12.1876
    12.1971  12.2129  12.2132  12.2216  12.2430  12.2587  12.2777  12.2842
    12.2880  12.2947  12.3232  12.3356  12.3544  12.3740  12.4010  12.4156
    12.4307  12.4466  12.4641  12.4744  12.4824  12.5229  12.5321  12.5606
    12.5661  12.5741  12.6089  12.6174  12.6529  12.6529  12.6698  12.7487
    12.8821  12.9167  13.0206  13.0603  13.0672  13.1204  13.1375  13.1475
    13.1480  13.1870  13.1891  13.1965  13.2327  13.2865  13.2937  13.3192
    13.3474  13.3902  13.4221  13.7177  13.7468  14.2840  14.4766  14.4989
    14.6295  14.7492  14.7621  14.7935  14.8210  14.8646  14.8979  14.9709
    15.0459  15.2282  15.2406  15.3482  15.4233  15.4591  15.5152  15.6035
    15.6048  15.6980  15.7317  15.7726  15.8162  15.8191  15.8658  16.0448
    16.0502  16.0945  16.1011  16.1273  16.1460  16.1498  16.1665  16.1729
    16.2074  16.2085  16.2295  16.2542  16.2625  16.2763  16.2922  16.3430
    16.4215  16.4706  16.5128  16.5810  16.7145  16.7901  17.0011  17.0956
    17.1546  17.1912  17.1944  17.3112  17.4018  17.5335  17.6235  17.6291
    17.7149  17.7167  17.7835  17.8130  17.8764  17.8801  17.9221  17.9247
    18.0382  18.1043  18.1524  18.2310  19.2680  19.2827  19.2928  19.3323

          k = 0.0000-0.5000-0.5734 ( 31696 PWs)   bands (ev):

   -66.7881 -66.7544 -66.7090 -66.7070 -66.6637 -66.6464 -66.6389 -66.6339
   -66.6170 -62.4136 -62.3917 -62.3849 -62.3591 -62.3505 -62.3492 -62.3474
   -62.3412 -62.3334 -35.5422 -35.5305 -35.5181 -35.5144 -35.4961 -35.4793
   -35.4636 -35.4609 -35.4585 -35.4564 -35.4393 -35.4358 -35.4332 -35.4099
   -35.4047 -35.4011 -35.3960 -35.3915 -35.3885 -35.3830 -35.3797 -35.3768
   -35.3759 -35.3709 -35.3550 -35.3535 -35.3335 -31.2500 -31.2473 -31.2309
   -31.2203 -31.2184 -31.2178 -31.2132 -31.2074 -31.2014 -31.1995 -31.1958
   -31.1957 -31.1853 -31.1815 -31.1796 -31.1753 -31.1742 -31.1726 -31.1696
   -31.1684 -31.1675 -31.1650 -31.1572 -31.1530 -31.1505 -31.1496 -31.1457
     6.4979   6.5809   6.5921   6.6682   7.8214   7.8260   7.8605   7.8743
     7.9056   7.9273   7.9427   7.9548   8.2618   8.2844   8.2961   8.3030
     8.5151   8.5234   8.5274   8.5391   8.6562   8.6675   8.6734   8.6825
     8.6890   8.6965   8.7008   8.7149   8.7283   8.7301   8.7490   8.7498
     8.7681   8.7688   8.7805   8.8258   8.9263   8.9951   9.0173   9.0236
     9.0335   9.0650   9.0700   9.0778   9.1555   9.1980   9.2061   9.2205
     9.2301   9.2305   9.2330   9.2379   9.2405   9.2453   9.2560   9.2593
     9.2608   9.2655   9.2732   9.2760   9.2866   9.3808   9.3859   9.3927
     9.4054   9.4265   9.4534   9.4551   9.4704   9.4713   9.4759   9.4782
     9.4821   9.4843   9.5071   9.5101   9.5275   9.5445   9.5632   9.5709
     9.5870   9.6309   9.7520   9.7615   9.7832   9.7885   9.7921   9.8199
     9.8281   9.8300   9.8444   9.8499   9.8622   9.8720   9.8846   9.8893
     9.9443   9.9709  10.0054  10.0104  10.0322  10.0378  10.0556  10.0615
    10.3540  10.3753  10.3758  10.3862  10.4079  10.4190  10.4253  10.4284
    10.4332  10.4587  10.4714  10.4843  10.4862  10.4919  10.4962  10.5371
    10.5463  10.5607  10.5777  10.5838  10.5914  10.6036  10.6161  10.6258
    10.6546  10.6582  10.6726  10.6732  10.6814  10.6953  10.7138  10.7185
    10.7285  10.8559  10.8578  10.8947  10.9737  11.0032  11.0121  11.0853
    11.1146  11.1201  11.1268  11.1796  11.1865  11.1949  11.1953  11.2033
    11.2111  11.2145  11.2726  11.3309  11.3337  11.3355  11.3641  11.3698
    11.3706  11.3827  11.4054  11.4422  11.4503  11.4633  11.4754  11.5355
    11.5367  11.5657  11.5681  11.5712  11.5782  11.5825  11.5920  11.6025
    11.6321  11.6356  11.7216  11.7239  11.7371  11.7512  11.7724  11.8021
    11.8869  11.8979  11.9100  11.9568  11.9600  11.9657  11.9793  12.0050
    12.0122  12.0212  12.0216  12.0319  12.0354  12.0399  12.0955  12.1269
    12.1577  12.1799  12.1923  12.2033  12.2239  12.2442  12.3211  12.3383
    12.3827  12.3890  12.4049  12.4256  12.4462  12.4476  12.4554  12.4690
    12.4794  12.4907  12.5094  12.5138  12.5567  12.5614  12.5860  12.5868
    12.6328  12.6463  12.6479  12.6630  12.7053  12.7539  12.8497  12.8543
    12.8651  12.8864  12.9463  12.9984  13.0180  13.0318  13.0346  13.0733
    13.1573  13.1878  13.2639  13.3492  13.5220  13.5361  13.6820  13.7722
    13.7778  13.9306  14.0267  14.0456  14.1396  14.1409  14.1755  14.3733
    14.4168  14.5329  14.5757  14.6091  14.6283  14.7431  14.8176  15.0486
    15.1411  15.1901  15.2852  15.3881  15.4628  15.4725  15.5213  15.5565
    15.6334  15.6474  15.6955  15.7214  15.7278  15.7956  15.8942  16.0909
    16.1017  16.1091  16.1355  16.1534  16.1565  16.1812  16.2097  16.2097
    16.2549  16.2794  16.2893  16.2936  16.3282  16.3955  16.4681  16.4723
    16.5056  16.5365  16.5556  16.6112  16.6134  16.6353  16.6909  16.6946
    16.7003  16.7562  16.7761  16.8490  16.8754  16.9195  16.9700  16.9842
    17.0829  17.1011  17.2077  17.2922  18.6125  18.6675  18.7585  18.7621
    18.7839  18.7888  18.7943  18.8455  18.8795  18.8929  18.9456  18.9906

          k =-0.5000-0.5000 0.0000 ( 31612 PWs)   bands (ev):

   -66.7881 -66.7544 -66.7090 -66.7070 -66.6637 -66.6464 -66.6389 -66.6339
   -66.6170 -62.4136 -62.3917 -62.3849 -62.3591 -62.3505 -62.3492 -62.3474
   -62.3412 -62.3334 -35.5422 -35.5306 -35.5182 -35.5144 -35.4960 -35.4793
   -35.4637 -35.4609 -35.4585 -35.4564 -35.4393 -35.4358 -35.4332 -35.4099
   -35.4047 -35.4012 -35.3960 -35.3915 -35.3885 -35.3830 -35.3803 -35.3768
   -35.3743 -35.3718 -35.3550 -35.3535 -35.3335 -31.2503 -31.2473 -31.2300
   -31.2202 -31.2184 -31.2183 -31.2132 -31.2074 -31.2017 -31.1995 -31.1957
   -31.1956 -31.1856 -31.1815 -31.1785 -31.1753 -31.1742 -31.1727 -31.1695
   -31.1690 -31.1675 -31.1650 -31.1572 -31.1530 -31.1505 -31.1496 -31.1457
     6.4080   6.4307   6.4450   6.4753   8.0109   8.0169   8.0208   8.0238
     8.0807   8.1341   8.2893   8.3223   8.3252   8.3394   8.3402   8.3448
     8.3467   8.3578   8.3616   8.3639   8.3696   8.3885   8.5533   8.5725
     8.6416   8.6663   8.6779   8.6982   8.7121   8.7335   8.7394   8.7499
     8.7565   8.7943   8.9005   8.9196   8.9544   8.9755   8.9773   8.9781
     8.9827   8.9888   8.9955   9.0091   9.0113   9.0329   9.0528   9.0727
     9.1044   9.1440   9.3109   9.3154   9.3168   9.3212   9.4013   9.4071
     9.4093   9.4163   9.4176   9.4223   9.4272   9.4280   9.4403   9.4538
     9.4588   9.4669   9.4765   9.4808   9.4851   9.4912   9.4993   9.5026
     9.5120   9.5217   9.5423   9.5573   9.5665   9.5687   9.5737   9.5810
     9.5995   9.6101   9.6976   9.7000   9.7665   9.8213   9.8220   9.8329
     9.8332   9.8353   9.8361   9.8450   9.8595   9.8723  10.0324  10.0597
    10.0675  10.0886  10.1007  10.1210  10.1357  10.1407  10.1542  10.1599
    10.1806  10.1933  10.2019  10.2097  10.2217  10.2282  10.2307  10.2358
    10.2371  10.2380  10.2584  10.2731  10.4472  10.4705  10.4734  10.4884
    10.4949  10.5005  10.5249  10.5334  10.6226  10.6365  10.6505  10.6569
    10.6625  10.6639  10.6700  10.6725  10.6920  10.6970  10.7021  10.7039
    10.7162  10.7421  10.7637  10.7930  10.8162  10.8671  10.8781  10.8930
    10.9125  10.9286  11.1993  11.2070  11.2140  11.2234  11.2865  11.3014
    11.3202  11.3452  11.3583  11.3662  11.4037  11.4193  11.5524  11.5678
    11.5813  11.5951  11.6138  11.6385  11.6408  11.6453  11.6493  11.6501
    11.6573  11.6772  11.6847  11.7199  11.7400  11.7445  11.7557  11.8738
    11.8747  11.8780  11.8793  11.8802  11.8828  11.8908  11.9958  12.0153
    12.0188  12.0205  12.0932  12.0987  12.1031  12.1090  12.1096  12.1115
    12.1188  12.1190  12.1252  12.1297  12.1367  12.1430  12.1682  12.1753
    12.1944  12.2020  12.2108  12.2120  12.2183  12.2270  12.2273  12.2532
    12.2715  12.2784  12.2808  12.2844  12.2921  12.3007  12.3227  12.3337
    12.3492  12.3987  12.4328  12.4403  12.4543  12.4650  12.4848  12.5237
    12.5295  12.5522  12.5827  12.5969  12.6033  12.6260  12.6440  12.6817
    12.6977  12.7125  12.7534  12.7803  12.8158  12.8737  12.9379  12.9506
    12.9523  12.9766  12.9835  13.0072  13.0325  13.4381  13.6681  13.6720
    13.6773  13.7549  13.8351  13.8492  13.9253  13.9259  13.9838  14.2034
    14.2742  14.2814  14.3232  14.3887  14.4586  14.7784  14.8025  14.8618
    15.1068  15.1424  15.1743  15.3056  15.4094  15.5085  15.6147  15.7408
    15.7800  15.8016  15.8141  15.8402  15.8616  15.8900  15.8974  15.9307
    15.9425  15.9792  15.9866  16.0063  16.0319  16.0662  16.0912  16.1655
    16.1906  16.2393  16.2777  16.2996  16.3144  16.3661  16.3724  16.4163
    16.4865  16.5185  16.5776  16.6654  16.6655  16.7190  16.7408  16.7973
    16.8086  16.8770  16.9809  17.0156  17.3815  17.3974  17.4793  18.1375
    18.1637  18.2021  18.2081  18.2392  18.2448  18.4164  18.4987  18.5532
    18.5674  18.6167  18.6423  18.6532  18.7312  18.7924  18.7977  18.8048

          k =-0.5000-0.5000-0.5734 ( 31672 PWs)   bands (ev):

   -66.7881 -66.7544 -66.7090 -66.7070 -66.6637 -66.6464 -66.6389 -66.6339
   -66.6170 -62.4136 -62.3917 -62.3849 -62.3591 -62.3505 -62.3492 -62.3474
   -62.3412 -62.3334 -35.5422 -35.5306 -35.5182 -35.5144 -35.4960 -35.4793
   -35.4637 -35.4609 -35.4585 -35.4564 -35.4393 -35.4358 -35.4332 -35.4099
   -35.4047 -35.4012 -35.3960 -35.3915 -35.3885 -35.3830 -35.3803 -35.3768
   -35.3743 -35.3718 -35.3550 -35.3535 -35.3335 -31.2503 -31.2473 -31.2300
   -31.2202 -31.2184 -31.2183 -31.2132 -31.2074 -31.2017 -31.1995 -31.1957
   -31.1956 -31.1856 -31.1815 -31.1785 -31.1753 -31.1742 -31.1727 -31.1695
   -31.1690 -31.1675 -31.1650 -31.1572 -31.1530 -31.1505 -31.1496 -31.1457
     6.8810   6.8876   6.9314   6.9398   6.9989   7.0169   7.0474   7.0520
     8.4394   8.4705   8.4731   8.4788   8.4846   8.4900   8.4934   8.4952
     8.5011   8.5037   8.5061   8.5135   8.5236   8.5438   8.5443   8.5572
     8.5767   8.5770   8.5878   8.6452   8.8775   8.8788   8.8902   8.8985
     8.9166   8.9222   8.9291   8.9358   9.0836   9.0873   9.1152   9.1212
     9.1267   9.1272   9.1400   9.1474   9.1547   9.1571   9.1588   9.1628
     9.1628   9.1656   9.1692   9.1756   9.1774   9.1791   9.1792   9.1821
     9.1838   9.1849   9.1923   9.1950   9.1981   9.2047   9.2138   9.2155
     9.2346   9.2376   9.2403   9.2493   9.2610   9.2642   9.2711   9.2835
     9.5429   9.5473   9.5627   9.5662   9.5807   9.5882   9.6191   9.6267
     9.6349   9.6426   9.6682   9.6929   9.7097   9.7501   9.7864   9.7966
     9.8108   9.8193   9.8392   9.8586   9.8801   9.8923   9.8953   9.9010
    10.0978  10.1186  10.1501  10.1590  10.1602  10.1743  10.1996  10.2098
    10.2677  10.3355  10.4309  10.4412  10.4571  10.4658  10.4785  10.4830
    10.4883  10.4937  10.4977  10.5009  10.5037  10.5122  10.5194  10.5232
    10.5255  10.5358  10.5438  10.5499  10.5512  10.5591  10.6080  10.6155
    10.6263  10.6345  10.6359  10.6371  10.6468  10.6606  10.6636  10.6704
    10.6854  10.6893  10.6944  10.6962  10.7127  10.7190  11.0305  11.0578
    11.0675  11.0774  11.0849  11.0980  11.1081  11.1324  11.3775  11.3811
    11.3910  11.4012  11.4096  11.4204  11.4412  11.4553  11.4562  11.4656
    11.4867  11.4917  11.4979  11.5078  11.5382  11.5467  11.5898  11.6356
    11.6372  11.6389  11.6578  11.6651  11.6733  11.6991  11.7046  11.7148
    11.7161  11.7195  11.7231  11.7395  11.7633  11.7659  11.7703  11.7869
    11.8025  11.8152  11.8266  11.8334  11.8432  11.9566  11.9720  11.9795
    11.9935  12.0200  12.0539  12.0893  12.1050  12.1106  12.1199  12.1389
    12.1731  12.1851  12.2151  12.2250  12.2770  12.2826  12.2906  12.3020
    12.3086  12.3477  12.3744  12.3910  12.4385  12.4460  12.4645  12.4789
    12.4889  12.5058  12.5292  12.5356  12.5459  12.5655  12.5905  12.6005
    12.6582  12.6902  12.7099  12.7361  12.7417  12.7813  12.8071  12.8932
    12.9604  12.9773  12.9919  13.0033  13.1164  13.1201  13.1393  13.1694
    13.1873  13.2067  13.2499  13.2991  13.3388  13.3545  13.3741  13.5090
    13.5485  13.5768  13.6906  13.7554  13.9650  13.9687  14.0247  14.0979
    14.1742  14.2473  14.3577  14.3974  14.7718  14.7813  14.9781  15.0518
    15.1339  15.2833  15.3555  15.4223  15.4384  15.6362  15.7048  15.7254
    15.7266  15.7645  15.8117  15.8258  15.8325  15.8765  15.9100  15.9249
    15.9359  15.9630  15.9917  16.0433  16.0550  16.1074  16.1303  16.1941
    16.2148  16.2410  16.2499  16.2510  16.2940  16.3709  16.4444  16.5231
    16.5410  16.5820  16.6159  16.6195  16.6402  16.6747  16.7344  16.7599
    16.7828  16.8508  16.8545  16.9071  16.9208  16.9689  17.0002  17.0284
    17.1059  17.1331  17.4406  17.6901  17.9608  18.0631  19.0017  19.0363
    19.0385  19.0646  19.1104  19.1300  19.1740  19.2308  19.2327  19.3082

          k =-0.5000 0.0000 0.0000 ( 31722 PWs)   bands (ev):

   -66.7881 -66.7544 -66.7090 -66.7070 -66.6637 -66.6464 -66.6389 -66.6339
   -66.6170 -62.4136 -62.3917 -62.3849 -62.3591 -62.3505 -62.3492 -62.3474
   -62.3412 -62.3334 -35.5422 -35.5306 -35.5182 -35.5144 -35.4960 -35.4793
   -35.4637 -35.4609 -35.4585 -35.4564 -35.4393 -35.4358 -35.4332 -35.4099
   -35.4047 -35.4012 -35.3960 -35.3915 -35.3885 -35.3830 -35.3803 -35.3768
   -35.3743 -35.3718 -35.3550 -35.3535 -35.3335 -31.2503 -31.2473 -31.2300
   -31.2200 -31.2184 -31.2183 -31.2132 -31.2077 -31.2017 -31.1995 -31.1957
   -31.1956 -31.1857 -31.1815 -31.1785 -31.1753 -31.1742 -31.1727 -31.1694
   -31.1690 -31.1675 -31.1650 -31.1572 -31.1530 -31.1505 -31.1496 -31.1457
     6.0330   6.0514   7.4069   7.4395   7.4547   7.4860   7.6753   7.6795
     8.1014   8.1222   8.1506   8.1733   8.1777   8.2333   8.2452   8.2889
     8.3900   8.4162   8.4546   8.4857   8.5959   8.6227   8.6437   8.6542
     8.6777   8.6789   8.6988   8.7065   8.7381   8.8126   8.8212   8.8370
     8.8428   8.8734   8.8756   8.8817   8.9064   8.9092   8.9123   8.9203
     8.9263   8.9309   8.9389   8.9504   9.0501   9.0532   9.1580   9.1769
     9.1875   9.1989   9.2121   9.2246   9.2430   9.2503   9.3159   9.3234
     9.3376   9.3839   9.4016   9.4027   9.4740   9.4775   9.4839   9.4970
     9.5369   9.5406   9.5419   9.5728   9.5757   9.6025   9.6041   9.6158
     9.6180   9.6197   9.6284   9.6286   9.6333   9.6408   9.6467   9.6566
     9.6656   9.6673   9.6674   9.6801   9.6912   9.7151   9.7249   9.7494
     9.7564   9.7622   9.7702   9.7745   9.8896   9.8972   9.9034  10.0053
    10.0161  10.0320  10.1562  10.1856  10.2136  10.2250  10.2469  10.2522
    10.2694  10.2721  10.2777  10.2794  10.2813  10.2876  10.3461  10.3606
    10.3649  10.3815  10.3838  10.3901  10.4302  10.4411  10.4432  10.4497
    10.4889  10.5148  10.5182  10.5320  10.5633  10.5655  10.5853  10.5936
    10.6076  10.6572  10.6909  10.6989  10.7043  10.7062  10.7396  10.7806
    10.8056  10.8130  10.8342  10.8479  10.8698  10.8859  10.9063  10.9241
    10.9305  10.9961  11.0049  11.0274  11.0514  11.1237  11.1629  11.1935
    11.2744  11.3444  11.3510  11.3612  11.3661  11.3968  11.4002  11.4044
    11.4188  11.4453  11.4823  11.4920  11.4936  11.5469  11.5515  11.5759
    11.5839  11.5944  11.6003  11.6099  11.6152  11.6575  11.6578  11.7224
    11.7458  11.7830  11.8019  11.8115  11.8138  11.8388  11.8429  11.8611
    11.8648  11.8842  11.8978  11.9180  11.9258  11.9470  11.9678  11.9719
    11.9830  12.0053  12.0174  12.0183  12.0390  12.1302  12.1452  12.1879
    12.1951  12.2096  12.2294  12.2411  12.2428  12.2606  12.2630  12.2785
    12.2854  12.2957  12.2986  12.3010  12.3794  12.3961  12.4055  12.4066
    12.4493  12.4583  12.4641  12.4757  12.4814  12.5152  12.5193  12.5515
    12.5725  12.5779  12.6077  12.6633  12.6657  12.7042  12.7247  12.7721
    12.7972  12.8592  12.9271  12.9765  13.0585  13.0761  13.1359  13.1425
    13.1506  13.2022  13.2203  13.2280  13.2667  13.2693  13.3129  13.3252
    13.3676  13.4339  13.4581  13.7216  13.7453  14.1264  14.5108  14.5736
    14.6266  14.7448  14.7879  14.8568  14.8652  14.8836  14.9321  14.9546
    15.0782  15.1066  15.2298  15.3328  15.3781  15.3961  15.5117  15.5673
    15.6855  15.7470  15.7489  15.7887  15.8371  15.8624  15.9308  16.0251
    16.0252  16.0545  16.0554  16.0703  16.1018  16.1307  16.1427  16.1564
    16.1781  16.1976  16.2380  16.2478  16.2609  16.2959  16.3482  16.3644
    16.4213  16.4243  16.5502  16.5880  16.7163  16.8011  16.9980  17.0326
    17.1184  17.2073  17.2530  17.3929  17.4388  17.5602  17.6107  17.6247
    17.7091  17.7461  17.7705  17.8228  17.8322  17.8591  17.9188  18.0034
    18.0453  18.0620  18.1306  18.2138  19.2644  19.2911  19.3108  19.3599

          k =-0.5000 0.0000 0.5734 ( 31696 PWs)   bands (ev):

   -66.7881 -66.7544 -66.7090 -66.7070 -66.6637 -66.6464 -66.6389 -66.6339
   -66.6170 -62.4136 -62.3917 -62.3849 -62.3591 -62.3505 -62.3492 -62.3474
   -62.3412 -62.3334 -35.5422 -35.5306 -35.5182 -35.5144 -35.4960 -35.4793
   -35.4637 -35.4609 -35.4585 -35.4564 -35.4393 -35.4358 -35.4332 -35.4099
   -35.4047 -35.4012 -35.3960 -35.3915 -35.3885 -35.3830 -35.3803 -35.3768
   -35.3743 -35.3718 -35.3550 -35.3535 -35.3335 -31.2503 -31.2473 -31.2300
   -31.2200 -31.2184 -31.2183 -31.2132 -31.2077 -31.2017 -31.1995 -31.1957
   -31.1956 -31.1857 -31.1815 -31.1785 -31.1753 -31.1742 -31.1727 -31.1694
   -31.1690 -31.1675 -31.1650 -31.1572 -31.1530 -31.1505 -31.1496 -31.1457
     6.5232   6.5535   6.6066   6.6519   7.8323   7.8399   7.8456   7.8791
     7.8988   7.9315   7.9450   7.9495   8.2642   8.2822   8.2928   8.3049
     8.5040   8.5251   8.5356   8.5412   8.6376   8.6659   8.6736   8.6866
     8.6918   8.6961   8.7127   8.7166   8.7210   8.7239   8.7444   8.7582
     8.7588   8.7637   8.7838   8.8430   8.9457   8.9715   9.0246   9.0264
     9.0305   9.0608   9.0650   9.0807   9.1815   9.1990   9.2015   9.2117
     9.2177   9.2215   9.2234   9.2299   9.2358   9.2464   9.2552   9.2653
     9.2720   9.2811   9.2885   9.2915   9.3053   9.3623   9.3807   9.3830
     9.4067   9.4260   9.4528   9.4567   9.4637   9.4650   9.4715   9.4854
     9.4877   9.4928   9.5000   9.5019   9.5150   9.5453   9.5506   9.5739
     9.5826   9.6198   9.7520   9.7630   9.7742   9.7776   9.8046   9.8242
     9.8248   9.8388   9.8487   9.8544   9.8578   9.8610   9.8933   9.8948
     9.9594   9.9855   9.9889   9.9986  10.0301  10.0308  10.0547  10.0695
    10.3572  10.3861  10.3925  10.4060  10.4119  10.4176  10.4236  10.4303
    10.4490  10.4610  10.4729  10.4790  10.4884  10.4942  10.4986  10.5179
    10.5274  10.5634  10.5758  10.5793  10.5981  10.6103  10.6150  10.6170
    10.6408  10.6495  10.6676  10.6702  10.6781  10.6927  10.7164  10.7170
    10.7300  10.8554  10.8614  10.9049  10.9633  10.9951  11.0353  11.1087
    11.1148  11.1310  11.1346  11.1498  11.1607  11.1892  11.1977  11.2099
    11.2114  11.2144  11.2557  11.3169  11.3436  11.3523  11.3653  11.3705
    11.3784  11.3816  11.4105  11.4260  11.4399  11.4852  11.4887  11.5110
    11.5197  11.5572  11.5739  11.5788  11.5811  11.5960  11.6028  11.6204
    11.6228  11.6419  11.6430  11.7110  11.7562  11.7650  11.8161  11.8243
    11.8925  11.8977  11.9036  11.9531  11.9614  11.9621  11.9821  12.0093
    12.0219  12.0273  12.0274  12.0332  12.0367  12.0391  12.0784  12.1336
    12.1435  12.1597  12.1822  12.2214  12.2323  12.2578  12.2917  12.3371
    12.3703  12.4112  12.4165  12.4233  12.4445  12.4468  12.4742  12.4885
    12.4993  12.5125  12.5153  12.5307  12.5450  12.5620  12.6268  12.6280
    12.6309  12.6404  12.6586  12.6611  12.7309  12.7572  12.7669  12.7789
    12.8676  12.8810  12.9117  12.9767  13.0105  13.0255  13.0437  13.0628
    13.0810  13.1953  13.2596  13.3549  13.4468  13.5346  13.5653  13.7996
    13.8733  13.9809  14.0568  14.1161  14.1499  14.2425  14.2699  14.3974
    14.4215  14.4620  14.5295  14.5801  14.6945  14.7050  14.7917  15.0324
    15.0920  15.2020  15.2684  15.3117  15.3447  15.3834  15.5591  15.5874
    15.6073  15.6837  15.7821  15.7982  15.8610  15.9214  15.9394  15.9685
    16.0360  16.0727  16.0876  16.1243  16.1497  16.1742  16.2147  16.2295
    16.2427  16.2694  16.2783  16.2788  16.2913  16.3349  16.3668  16.4839
    16.4863  16.5335  16.5464  16.5951  16.6136  16.6489  16.6877  16.7446
    16.7470  16.8059  16.8322  16.8996  16.9137  16.9526  16.9591  16.9951
    17.0807  17.1208  17.2061  17.2828  18.5592  18.6772  18.7112  18.7182
    18.7459  18.7992  18.8346  18.8553  18.8646  18.9201  18.9660  18.9889

 ------ SPIN DOWN ----------


          k = 0.0000 0.0000 0.0000 ( 31747 PWs)   bands (ev):

   -66.7880 -66.7543 -66.7089 -66.7070 -66.6637 -66.6464 -66.6389 -66.6339
   -66.6170 -62.4136 -62.3917 -62.3850 -62.3591 -62.3504 -62.3493 -62.3474
   -62.3411 -62.3334 -35.5421 -35.5304 -35.5180 -35.5143 -35.4960 -35.4792
   -35.4635 -35.4609 -35.4584 -35.4564 -35.4393 -35.4358 -35.4332 -35.4100
   -35.4047 -35.4012 -35.3959 -35.3915 -35.3885 -35.3830 -35.3798 -35.3768
   -35.3759 -35.3709 -35.3550 -35.3535 -35.3334 -31.2501 -31.2474 -31.2309
   -31.2201 -31.2184 -31.2179 -31.2133 -31.2078 -31.2013 -31.1996 -31.1958
   -31.1958 -31.1854 -31.1815 -31.1796 -31.1752 -31.1742 -31.1726 -31.1695
   -31.1683 -31.1675 -31.1649 -31.1572 -31.1530 -31.1504 -31.1495 -31.1457
     5.6143   7.1506   7.1597   7.1943   7.2059   7.3658   7.8592   7.8884
     7.9118   7.9428   8.0843   8.1088   8.1348   8.1530   8.1908   8.2441
     8.2619   8.2922   8.3104   8.5237   8.5494   8.5641   8.5693   8.5945
     8.6035   8.8571   8.8676   8.8687   8.8789   8.8852   8.8932   8.9016
     8.9030   8.9058   8.9139   8.9168   8.9309   8.9409   8.9623   8.9637
     8.9867   9.0852   9.1194   9.1267   9.1286   9.1312   9.1594   9.1602
     9.1884   9.2010   9.2121   9.2690   9.2781   9.2936   9.3061   9.3526
     9.3556   9.3620   9.3720   9.3764   9.3821   9.3852   9.4126   9.4259
     9.4461   9.4481   9.4556   9.4664   9.4672   9.4727   9.4956   9.5813
     9.5839   9.5839   9.5886   9.5913   9.6138   9.6583   9.6685   9.6725
     9.6736   9.6766   9.6809   9.7403   9.7584   9.7731   9.7931   9.8493
     9.8506   9.9121   9.9207   9.9505   9.9550   9.9637  10.0164  10.0375
    10.0966  10.1286  10.1364  10.1582  10.2923  10.2930  10.2954  10.2997
    10.3008  10.3063  10.3064  10.3117  10.3118  10.3249  10.3342  10.3455
    10.3496  10.3511  10.3545  10.3565  10.3616  10.3657  10.3810  10.3854
    10.4010  10.5135  10.5167  10.5533  10.5706  10.6180  10.6219  10.6426
    10.6916  10.7846  10.7870  10.8140  10.8198  10.8266  10.8321  10.8492
    10.8540  10.8597  10.8629  10.8746  10.8780  10.8824  10.8989  10.9138
    10.9172  10.9181  11.0143  11.0351  11.0757  11.0979  11.2208  11.2227
    11.2265  11.2290  11.2570  11.2752  11.3070  11.3282  11.3339  11.3460
    11.3548  11.3670  11.3881  11.3916  11.4015  11.4091  11.4152  11.4217
    11.4399  11.4651  11.5322  11.5549  11.5911  11.5939  11.5968  11.5980
    11.5987  11.6680  11.7050  11.7271  11.7315  11.7318  11.7442  11.7494
    11.8302  11.8332  11.8364  11.8720  11.8731  11.9096  11.9273  11.9454
    11.9494  12.0143  12.0809  12.1012  12.1022  12.1035  12.1061  12.1443
    12.1459  12.1479  12.1494  12.1617  12.1740  12.1813  12.1915  12.2317
    12.2449  12.2464  12.3228  12.3358  12.3422  12.3617  12.3682  12.4258
    12.4292  12.4346  12.4429  12.4734  12.4882  12.5001  12.5033  12.5143
    12.5168  12.5416  12.5418  12.5552  12.5626  12.5766  12.5871  12.6515
    12.7002  12.7082  12.7437  12.7541  12.9974  13.0301  13.0914  13.1061
    13.1301  13.1311  13.1782  13.1886  13.3759  13.4664  13.6750  13.8220
    13.8390  13.9612  14.0070  14.2395  14.2436  14.3452  14.3519  14.5018
    14.7792  14.8898  14.9449  15.0459  15.0524  15.1535  15.1836  15.2345
    15.2953  15.3344  15.3729  15.3933  15.4473  15.4662  15.5182  15.5773
    15.6579  15.6584  15.7347  15.7560  15.7846  15.7981  15.9151  15.9226
    16.0065  16.0822  16.1080  16.1099  16.1147  16.1456  16.1792  16.2120
    16.2215  16.2446  16.2788  16.3404  16.3623  16.3668  16.3780  16.4388
    16.4471  16.4672  16.4739  16.5808  16.6418  16.6510  16.7561  16.8496
    16.9773  17.0302  17.1653  17.1909  17.2029  17.2472  17.2638  17.3295
    17.5023  17.5525  17.8675  17.9114  17.9335  17.9475  17.9714  18.0367
    18.1154  18.2167  18.3698  18.9817  19.0338  19.0341  19.1562  19.2290

          k = 0.0000 0.0000-0.5734 ( 31692 PWs)   bands (ev):

   -66.7880 -66.7543 -66.7089 -66.7070 -66.6637 -66.6464 -66.6389 -66.6339
   -66.6170 -62.4136 -62.3917 -62.3850 -62.3591 -62.3504 -62.3493 -62.3474
   -62.3411 -62.3334 -35.5421 -35.5304 -35.5180 -35.5143 -35.4960 -35.4792
   -35.4635 -35.4609 -35.4584 -35.4564 -35.4393 -35.4358 -35.4332 -35.4100
   -35.4047 -35.4012 -35.3959 -35.3915 -35.3885 -35.3830 -35.3798 -35.3768
   -35.3759 -35.3709 -35.3550 -35.3535 -35.3334 -31.2501 -31.2474 -31.2309
   -31.2201 -31.2184 -31.2179 -31.2133 -31.2078 -31.2013 -31.1996 -31.1958
   -31.1958 -31.1854 -31.1815 -31.1796 -31.1752 -31.1742 -31.1726 -31.1695
   -31.1683 -31.1675 -31.1649 -31.1572 -31.1530 -31.1504 -31.1495 -31.1457
     6.1373   6.2332   7.5249   7.5343   7.5621   7.5806   7.5858   7.6015
     7.6316   7.6383   8.3041   8.3075   8.3202   8.3434   8.3492   8.3831
     8.3905   8.4083   8.4558   8.4671   8.4690   8.4867   8.4896   8.4951
     8.5090   8.5112   8.6861   8.7253   8.7293   8.8163   8.9398   8.9463
     8.9505   8.9706   8.9813   8.9833   8.9901   8.9946   9.0094   9.0266
     9.0329   9.0467   9.0497   9.0608   9.0945   9.1012   9.1761   9.1878
     9.2192   9.2323   9.2455   9.2595   9.2616   9.2703   9.2792   9.2822
     9.2855   9.2985   9.2993   9.3048   9.3150   9.3272   9.4073   9.4118
     9.4119   9.4259   9.4296   9.4314   9.4422   9.4532   9.4611   9.4660
     9.4745   9.4878   9.4959   9.5149   9.5540   9.5752   9.5899   9.7288
     9.7783   9.7941   9.7991   9.8008   9.8092   9.8221   9.8453   9.8464
     9.8745   9.8780   9.8803   9.8829   9.8836   9.8858   9.8891   9.8907
    10.0538  10.0557  10.0662  10.0675  10.1292  10.1322  10.1352  10.1468
    10.1740  10.1817  10.1979  10.2150  10.2177  10.2225  10.3477  10.3780
    10.3787  10.3892  10.3954  10.4001  10.4006  10.4290  10.4323  10.5529
    10.5918  10.5979  10.6030  10.6095  10.6139  10.6329  10.6403  10.6696
    10.6724  10.6815  10.6939  10.7197  10.7622  10.8112  10.8717  10.8983
    10.9209  10.9431  10.9928  11.0088  11.0372  11.0606  11.0665  11.0818
    11.0849  11.0872  11.1141  11.1327  11.1420  11.1692  11.1720  11.1861
    11.1954  11.2316  11.2506  11.2510  11.2527  11.2547  11.2649  11.2659
    11.2686  11.2697  11.2780  11.2793  11.2873  11.3008  11.3037  11.3054
    11.3217  11.3283  11.3294  11.3315  11.5136  11.6243  11.7075  11.7114
    11.7114  11.7149  11.7178  11.7235  11.7264  11.7334  11.7359  11.7396
    11.7549  11.7742  11.7949  11.7971  11.8136  11.8324  11.8354  11.8407
    11.9496  11.9681  11.9873  11.9987  12.0349  12.0388  12.0815  12.0882
    12.1340  12.1744  12.2151  12.2421  12.2480  12.2695  12.3072  12.3729
    12.3828  12.4079  12.4211  12.4381  12.4527  12.4799  12.4894  12.4899
    12.4929  12.5297  12.5354  12.5457  12.5480  12.5700  12.5783  12.5907
    12.6202  12.6334  12.7348  12.7913  12.8196  12.8703  12.8790  12.9145
    12.9791  13.0339  13.0369  13.0739  13.1238  13.1250  13.1449  13.1454
    13.1961  13.2165  13.2508  13.4281  13.5026  13.5317  13.5358  13.7480
    13.8792  13.9534  14.0169  14.0720  14.1239  14.1688  14.2659  14.4351
    14.4910  14.8857  14.9222  14.9551  14.9759  15.0336  15.0578  15.0715
    15.1488  15.1879  15.2030  15.2092  15.2520  15.2745  15.3641  15.6302
    15.6558  15.7190  15.7435  15.7691  15.8492  15.8857  15.9578  16.0230
    16.1025  16.1245  16.1252  16.1319  16.1354  16.1725  16.1813  16.2126
    16.2346  16.2388  16.2440  16.2603  16.2641  16.2699  16.2870  16.3456
    16.3833  16.4395  16.4480  16.5159  16.6025  16.6904  16.7247  16.7597
    16.8894  16.9579  17.2468  17.3443  17.4171  17.4705  17.5392  17.5483
    17.5706  17.5725  17.6120  17.6434  17.6511  17.7258  17.7892  17.8373
    17.9059  17.9304  18.0794  18.1224  18.1773  18.2584  18.3471  18.3614

          k = 0.0000-0.5000 0.0000 ( 31722 PWs)   bands (ev):

   -66.7880 -66.7543 -66.7089 -66.7070 -66.6637 -66.6464 -66.6389 -66.6339
   -66.6170 -62.4136 -62.3917 -62.3850 -62.3591 -62.3504 -62.3493 -62.3474
   -62.3411 -62.3334 -35.5421 -35.5304 -35.5180 -35.5143 -35.4960 -35.4792
   -35.4635 -35.4609 -35.4584 -35.4564 -35.4393 -35.4358 -35.4332 -35.4100
   -35.4047 -35.4012 -35.3959 -35.3915 -35.3885 -35.3830 -35.3798 -35.3768
   -35.3759 -35.3709 -35.3550 -35.3535 -35.3334 -31.2501 -31.2473 -31.2309
   -31.2203 -31.2184 -31.2179 -31.2133 -31.2075 -31.2013 -31.1996 -31.1958
   -31.1958 -31.1853 -31.1815 -31.1796 -31.1752 -31.1742 -31.1726 -31.1696
   -31.1684 -31.1675 -31.1649 -31.1572 -31.1530 -31.1504 -31.1495 -31.1457
     6.0234   6.0608   7.4183   7.4372   7.4494   7.4840   7.6720   7.6819
     8.0994   8.1176   8.1374   8.1800   8.2118   8.2172   8.2422   8.2818
     8.4026   8.4270   8.4356   8.4770   8.5947   8.6361   8.6473   8.6548
     8.6602   8.6928   8.6973   8.7022   8.7353   8.7998   8.8265   8.8443
     8.8500   8.8603   8.8807   8.8914   8.9044   8.9090   8.9146   8.9200
     8.9262   8.9296   8.9355   8.9466   9.0476   9.0546   9.1616   9.1826
     9.1924   9.1958   9.2023   9.2317   9.2385   9.2532   9.3155   9.3388
     9.3537   9.3647   9.3778   9.4126   9.4752   9.4849   9.4941   9.5107
     9.5157   9.5374   9.5381   9.5557   9.5935   9.5948   9.6045   9.6180
     9.6213   9.6256   9.6311   9.6326   9.6348   9.6379   9.6419   9.6520
     9.6561   9.6636   9.6739   9.6787   9.6920   9.7171   9.7351   9.7518
     9.7594   9.7633   9.7658   9.7686   9.8955   9.8969   9.9061  10.0089
    10.0091  10.0427  10.1416  10.1914  10.2102  10.2377  10.2468  10.2554
    10.2639  10.2687  10.2703  10.2706  10.2842  10.2888  10.3437  10.3556
    10.3632  10.3794  10.3820  10.3851  10.4221  10.4452  10.4459  10.4729
    10.4808  10.5204  10.5240  10.5330  10.5454  10.5770  10.5795  10.5933
    10.6110  10.6593  10.6779  10.6810  10.7027  10.7243  10.7456  10.7620
    10.7969  10.8172  10.8267  10.8521  10.8659  10.8956  10.9144  10.9288
    10.9533  11.0121  11.0181  11.0218  11.0313  11.1259  11.1579  11.1912
    11.2857  11.3461  11.3523  11.3668  11.3842  11.3906  11.4067  11.4168
    11.4397  11.4429  11.4502  11.4634  11.5005  11.5292  11.5345  11.5572
    11.5719  11.5783  11.6022  11.6236  11.6454  11.6572  11.6860  11.7229
    11.7351  11.7768  11.7841  11.7900  11.7951  11.8329  11.8442  11.8449
    11.8524  11.8755  11.9096  11.9192  11.9382  11.9557  11.9579  11.9817
    11.9835  11.9915  12.0103  12.0119  12.1065  12.1517  12.1559  12.1877
    12.1971  12.2129  12.2133  12.2215  12.2430  12.2587  12.2777  12.2842
    12.2880  12.2947  12.3232  12.3357  12.3544  12.3740  12.4011  12.4157
    12.4307  12.4466  12.4642  12.4744  12.4824  12.5229  12.5321  12.5606
    12.5661  12.5741  12.6090  12.6174  12.6529  12.6529  12.6698  12.7487
    12.8821  12.9167  13.0206  13.0604  13.0673  13.1205  13.1376  13.1475
    13.1480  13.1870  13.1891  13.1965  13.2328  13.2865  13.2937  13.3192
    13.3474  13.3902  13.4221  13.7177  13.7468  14.2840  14.4766  14.4989
    14.6296  14.7493  14.7621  14.7935  14.8210  14.8647  14.8979  14.9709
    15.0460  15.2282  15.2406  15.3482  15.4233  15.4591  15.5152  15.6035
    15.6048  15.6980  15.7317  15.7726  15.8162  15.8191  15.8658  16.0448
    16.0502  16.0945  16.1011  16.1273  16.1460  16.1498  16.1665  16.1729
    16.2073  16.2085  16.2295  16.2542  16.2625  16.2763  16.2922  16.3430
    16.4215  16.4706  16.5127  16.5810  16.7145  16.7901  17.0011  17.0955
    17.1545  17.1912  17.1944  17.3112  17.4018  17.5335  17.6235  17.6291
    17.7148  17.7167  17.7835  17.8131  17.8764  17.8801  17.9221  17.9247
    18.0382  18.1043  18.1524  18.2310  19.2681  19.2828  19.2927  19.3323

          k = 0.0000-0.5000-0.5734 ( 31696 PWs)   bands (ev):

   -66.7880 -66.7543 -66.7089 -66.7070 -66.6637 -66.6464 -66.6389 -66.6339
   -66.6170 -62.4136 -62.3917 -62.3850 -62.3591 -62.3504 -62.3493 -62.3474
   -62.3411 -62.3334 -35.5421 -35.5304 -35.5180 -35.5143 -35.4960 -35.4792
   -35.4635 -35.4609 -35.4584 -35.4564 -35.4393 -35.4358 -35.4332 -35.4100
   -35.4047 -35.4012 -35.3959 -35.3915 -35.3885 -35.3830 -35.3798 -35.3768
   -35.3759 -35.3709 -35.3550 -35.3535 -35.3334 -31.2501 -31.2473 -31.2309
   -31.2203 -31.2184 -31.2179 -31.2133 -31.2075 -31.2013 -31.1996 -31.1958
   -31.1958 -31.1853 -31.1815 -31.1796 -31.1752 -31.1742 -31.1726 -31.1696
   -31.1684 -31.1675 -31.1649 -31.1572 -31.1530 -31.1504 -31.1495 -31.1457
     6.4979   6.5809   6.5921   6.6682   7.8214   7.8260   7.8605   7.8743
     7.9056   7.9273   7.9427   7.9548   8.2618   8.2844   8.2961   8.3029
     8.5151   8.5234   8.5274   8.5391   8.6562   8.6675   8.6735   8.6825
     8.6890   8.6965   8.7008   8.7149   8.7283   8.7301   8.7491   8.7497
     8.7681   8.7688   8.7805   8.8258   8.9263   8.9951   9.0173   9.0236
     9.0335   9.0650   9.0700   9.0778   9.1554   9.1980   9.2060   9.2205
     9.2301   9.2305   9.2330   9.2379   9.2405   9.2453   9.2560   9.2593
     9.2608   9.2656   9.2732   9.2760   9.2866   9.3807   9.3858   9.3927
     9.4055   9.4264   9.4534   9.4552   9.4704   9.4713   9.4759   9.4782
     9.4822   9.4844   9.5071   9.5101   9.5275   9.5445   9.5633   9.5708
     9.5870   9.6309   9.7520   9.7615   9.7832   9.7884   9.7921   9.8198
     9.8281   9.8300   9.8442   9.8501   9.8624   9.8720   9.8846   9.8893
     9.9443   9.9710  10.0053  10.0104  10.0322  10.0377  10.0556  10.0615
    10.3540  10.3754  10.3758  10.3861  10.4079  10.4190  10.4253  10.4284
    10.4331  10.4587  10.4714  10.4843  10.4862  10.4919  10.4962  10.5371
    10.5462  10.5606  10.5777  10.5839  10.5915  10.6036  10.6160  10.6258
    10.6546  10.6582  10.6726  10.6732  10.6814  10.6953  10.7139  10.7185
    10.7286  10.8559  10.8578  10.8947  10.9738  11.0032  11.0121  11.0854
    11.1146  11.1201  11.1269  11.1796  11.1865  11.1949  11.1954  11.2033
    11.2111  11.2145  11.2727  11.3309  11.3337  11.3355  11.3641  11.3698
    11.3706  11.3827  11.4054  11.4422  11.4503  11.4634  11.4753  11.5355
    11.5368  11.5658  11.5681  11.5712  11.5782  11.5825  11.5921  11.6025
    11.6321  11.6356  11.7216  11.7240  11.7371  11.7513  11.7724  11.8021
    11.8869  11.8979  11.9100  11.9569  11.9600  11.9657  11.9794  12.0050
    12.0123  12.0212  12.0216  12.0319  12.0354  12.0399  12.0955  12.1269
    12.1577  12.1800  12.1923  12.2033  12.2239  12.2442  12.3211  12.3383
    12.3828  12.3890  12.4049  12.4256  12.4463  12.4477  12.4554  12.4691
    12.4795  12.4908  12.5094  12.5138  12.5567  12.5614  12.5860  12.5868
    12.6328  12.6463  12.6479  12.6630  12.7054  12.7539  12.8497  12.8543
    12.8651  12.8864  12.9463  12.9984  13.0181  13.0318  13.0346  13.0733
    13.1574  13.1878  13.2639  13.3492  13.5220  13.5361  13.6820  13.7722
    13.7779  13.9307  14.0267  14.0456  14.1397  14.1409  14.1755  14.3733
    14.4168  14.5329  14.5757  14.6091  14.6283  14.7430  14.8177  15.0486
    15.1411  15.1901  15.2852  15.3881  15.4627  15.4725  15.5213  15.5565
    15.6334  15.6474  15.6955  15.7214  15.7278  15.7956  15.8942  16.0908
    16.1016  16.1091  16.1355  16.1534  16.1565  16.1812  16.2097  16.2097
    16.2549  16.2794  16.2893  16.2936  16.3282  16.3955  16.4681  16.4723
    16.5056  16.5364  16.5556  16.6112  16.6134  16.6353  16.6909  16.6946
    16.7003  16.7562  16.7761  16.8490  16.8754  16.9195  16.9700  16.9842
    17.0829  17.1011  17.2077  17.2922  18.6125  18.6675  18.7585  18.7622
    18.7839  18.7888  18.7944  18.8455  18.8795  18.8929  18.9456  18.9906

          k =-0.5000-0.5000 0.0000 ( 31612 PWs)   bands (ev):

   -66.7880 -66.7543 -66.7089 -66.7070 -66.6637 -66.6464 -66.6389 -66.6339
   -66.6170 -62.4136 -62.3917 -62.3850 -62.3591 -62.3504 -62.3493 -62.3474
   -62.3411 -62.3334 -35.5421 -35.5305 -35.5180 -35.5143 -35.4959 -35.4792
   -35.4636 -35.4609 -35.4584 -35.4564 -35.4393 -35.4358 -35.4332 -35.4100
   -35.4047 -35.4012 -35.3960 -35.3915 -35.3885 -35.3830 -35.3803 -35.3768
   -35.3744 -35.3718 -35.3550 -35.3536 -35.3334 -31.2504 -31.2474 -31.2301
   -31.2203 -31.2184 -31.2184 -31.2133 -31.2075 -31.2017 -31.1996 -31.1958
   -31.1955 -31.1856 -31.1815 -31.1785 -31.1752 -31.1742 -31.1726 -31.1696
   -31.1690 -31.1675 -31.1649 -31.1572 -31.1530 -31.1504 -31.1495 -31.1457
     6.4080   6.4307   6.4450   6.4753   8.0109   8.0169   8.0208   8.0237
     8.0807   8.1341   8.2893   8.3223   8.3252   8.3394   8.3402   8.3448
     8.3467   8.3578   8.3616   8.3639   8.3696   8.3885   8.5533   8.5725
     8.6416   8.6663   8.6779   8.6982   8.7121   8.7335   8.7394   8.7499
     8.7565   8.7943   8.9005   8.9196   8.9544   8.9755   8.9773   8.9781
     8.9827   8.9887   8.9955   9.0091   9.0113   9.0329   9.0528   9.0728
     9.1044   9.1440   9.3109   9.3154   9.3168   9.3211   9.4013   9.4072
     9.4093   9.4163   9.4176   9.4223   9.4272   9.4280   9.4404   9.4537
     9.4588   9.4669   9.4765   9.4808   9.4851   9.4912   9.4993   9.5026
     9.5120   9.5217   9.5423   9.5572   9.5665   9.5686   9.5737   9.5810
     9.5995   9.6101   9.6976   9.7000   9.7665   9.8213   9.8220   9.8329
     9.8332   9.8353   9.8361   9.8450   9.8596   9.8723  10.0324  10.0597
    10.0675  10.0886  10.1007  10.1210  10.1357  10.1407  10.1542  10.1599
    10.1805  10.1933  10.2019  10.2097  10.2217  10.2282  10.2307  10.2359
    10.2371  10.2379  10.2584  10.2730  10.4472  10.4705  10.4734  10.4884
    10.4949  10.5005  10.5249  10.5334  10.6226  10.6365  10.6505  10.6569
    10.6625  10.6639  10.6700  10.6725  10.6920  10.6970  10.7021  10.7039
    10.7162  10.7421  10.7637  10.7930  10.8162  10.8672  10.8781  10.8930
    10.9125  10.9286  11.1993  11.2070  11.2140  11.2234  11.2865  11.3014
    11.3202  11.3452  11.3583  11.3662  11.4037  11.4193  11.5524  11.5678
    11.5813  11.5951  11.6138  11.6385  11.6408  11.6453  11.6493  11.6501
    11.6573  11.6773  11.6847  11.7199  11.7400  11.7445  11.7557  11.8738
    11.8747  11.8780  11.8793  11.8802  11.8828  11.8908  11.9958  12.0153
    12.0187  12.0204  12.0932  12.0987  12.1031  12.1090  12.1096  12.1115
    12.1188  12.1190  12.1252  12.1297  12.1368  12.1430  12.1682  12.1753
    12.1944  12.2021  12.2109  12.2120  12.2183  12.2270  12.2273  12.2532
    12.2716  12.2784  12.2808  12.2844  12.2921  12.3007  12.3227  12.3337
    12.3492  12.3987  12.4328  12.4403  12.4543  12.4650  12.4848  12.5237
    12.5295  12.5522  12.5828  12.5970  12.6034  12.6260  12.6441  12.6816
    12.6978  12.7126  12.7534  12.7803  12.8159  12.8737  12.9379  12.9506
    12.9523  12.9766  12.9835  13.0073  13.0325  13.4382  13.6681  13.6721
    13.6773  13.7550  13.8351  13.8492  13.9253  13.9259  13.9838  14.2034
    14.2742  14.2814  14.3232  14.3887  14.4586  14.7784  14.8025  14.8618
    15.1068  15.1424  15.1743  15.3056  15.4094  15.5085  15.6147  15.7408
    15.7800  15.8016  15.8141  15.8402  15.8616  15.8900  15.8974  15.9306
    15.9425  15.9791  15.9866  16.0063  16.0319  16.0662  16.0912  16.1654
    16.1906  16.2393  16.2777  16.2996  16.3144  16.3661  16.3724  16.4163
    16.4865  16.5185  16.5776  16.6654  16.6655  16.7190  16.7408  16.7972
    16.8086  16.8770  16.9808  17.0156  17.3815  17.3974  17.4793  18.1376
    18.1637  18.2021  18.2081  18.2391  18.2448  18.4164  18.4987  18.5532
    18.5674  18.6167  18.6423  18.6533  18.7312  18.7925  18.7977  18.8049

          k =-0.5000-0.5000-0.5734 ( 31672 PWs)   bands (ev):

   -66.7880 -66.7543 -66.7089 -66.7070 -66.6637 -66.6464 -66.6389 -66.6339
   -66.6170 -62.4136 -62.3917 -62.3850 -62.3591 -62.3504 -62.3493 -62.3474
   -62.3411 -62.3334 -35.5421 -35.5305 -35.5180 -35.5143 -35.4959 -35.4792
   -35.4636 -35.4609 -35.4584 -35.4564 -35.4393 -35.4358 -35.4332 -35.4100
   -35.4047 -35.4012 -35.3960 -35.3915 -35.3885 -35.3830 -35.3803 -35.3768
   -35.3744 -35.3718 -35.3550 -35.3536 -35.3334 -31.2504 -31.2474 -31.2301
   -31.2203 -31.2184 -31.2184 -31.2133 -31.2075 -31.2017 -31.1996 -31.1958
   -31.1955 -31.1856 -31.1815 -31.1785 -31.1752 -31.1742 -31.1726 -31.1696
   -31.1690 -31.1675 -31.1649 -31.1572 -31.1530 -31.1504 -31.1495 -31.1457
     6.8810   6.8876   6.9314   6.9398   6.9989   7.0169   7.0474   7.0520
     8.4394   8.4705   8.4731   8.4788   8.4846   8.4901   8.4933   8.4952
     8.5011   8.5037   8.5062   8.5135   8.5235   8.5438   8.5443   8.5572
     8.5767   8.5770   8.5878   8.6452   8.8775   8.8788   8.8902   8.8985
     8.9166   8.9222   8.9291   8.9358   9.0836   9.0874   9.1152   9.1212
     9.1267   9.1272   9.1400   9.1474   9.1547   9.1571   9.1588   9.1627
     9.1628   9.1656   9.1692   9.1756   9.1774   9.1791   9.1792   9.1821
     9.1838   9.1849   9.1923   9.1950   9.1981   9.2047   9.2138   9.2155
     9.2347   9.2376   9.2404   9.2493   9.2610   9.2642   9.2711   9.2835
     9.5429   9.5473   9.5627   9.5662   9.5807   9.5883   9.6191   9.6267
     9.6348   9.6426   9.6683   9.6929   9.7097   9.7501   9.7865   9.7966
     9.8109   9.8193   9.8391   9.8587   9.8800   9.8923   9.8954   9.9009
    10.0978  10.1186  10.1501  10.1590  10.1602  10.1743  10.1996  10.2098
    10.2677  10.3355  10.4309  10.4412  10.4571  10.4658  10.4785  10.4829
    10.4883  10.4937  10.4977  10.5009  10.5037  10.5121  10.5193  10.5232
    10.5256  10.5358  10.5437  10.5499  10.5512  10.5591  10.6080  10.6156
    10.6263  10.6345  10.6359  10.6371  10.6468  10.6606  10.6636  10.6705
    10.6854  10.6893  10.6943  10.6962  10.7127  10.7190  11.0305  11.0579
    11.0675  11.0774  11.0849  11.0980  11.1081  11.1325  11.3776  11.3811
    11.3910  11.4012  11.4096  11.4204  11.4412  11.4553  11.4562  11.4656
    11.4867  11.4917  11.4979  11.5078  11.5382  11.5467  11.5898  11.6356
    11.6372  11.6389  11.6578  11.6651  11.6733  11.6991  11.7047  11.7148
    11.7161  11.7195  11.7231  11.7395  11.7634  11.7659  11.7703  11.7869
    11.8025  11.8153  11.8267  11.8334  11.8432  11.9566  11.9720  11.9795
    11.9936  12.0200  12.0539  12.0894  12.1049  12.1106  12.1199  12.1389
    12.1731  12.1852  12.2151  12.2250  12.2770  12.2826  12.2906  12.3020
    12.3086  12.3477  12.3744  12.3910  12.4386  12.4460  12.4645  12.4789
    12.4889  12.5058  12.5293  12.5356  12.5458  12.5655  12.5906  12.6005
    12.6582  12.6902  12.7100  12.7361  12.7417  12.7813  12.8072  12.8932
    12.9604  12.9773  12.9919  13.0033  13.1164  13.1201  13.1394  13.1694
    13.1873  13.2067  13.2499  13.2992  13.3388  13.3545  13.3741  13.5091
    13.5486  13.5768  13.6907  13.7554  13.9651  13.9687  14.0247  14.0979
    14.1742  14.2473  14.3577  14.3974  14.7718  14.7813  14.9781  15.0518
    15.1339  15.2833  15.3555  15.4223  15.4384  15.6361  15.7049  15.7254
    15.7266  15.7646  15.8117  15.8258  15.8325  15.8765  15.9100  15.9249
    15.9359  15.9630  15.9916  16.0432  16.0549  16.1074  16.1303  16.1941
    16.2148  16.2410  16.2499  16.2510  16.2940  16.3709  16.4444  16.5231
    16.5410  16.5820  16.6158  16.6195  16.6402  16.6748  16.7344  16.7599
    16.7828  16.8507  16.8545  16.9071  16.9208  16.9689  17.0002  17.0285
    17.1059  17.1331  17.4406  17.6901  17.9609  18.0631  19.0017  19.0363
    19.0385  19.0646  19.1104  19.1300  19.1740  19.2309  19.2326  19.3082

          k =-0.5000 0.0000 0.0000 ( 31722 PWs)   bands (ev):

   -66.7880 -66.7543 -66.7089 -66.7070 -66.6637 -66.6464 -66.6389 -66.6339
   -66.6170 -62.4136 -62.3917 -62.3850 -62.3591 -62.3504 -62.3493 -62.3474
   -62.3411 -62.3334 -35.5421 -35.5305 -35.5180 -35.5143 -35.4959 -35.4792
   -35.4636 -35.4609 -35.4584 -35.4564 -35.4393 -35.4358 -35.4332 -35.4100
   -35.4047 -35.4013 -35.3959 -35.3915 -35.3885 -35.3830 -35.3803 -35.3768
   -35.3744 -35.3718 -35.3550 -35.3536 -35.3334 -31.2504 -31.2474 -31.2301
   -31.2200 -31.2184 -31.2184 -31.2133 -31.2078 -31.2016 -31.1996 -31.1958
   -31.1956 -31.1857 -31.1815 -31.1785 -31.1752 -31.1742 -31.1726 -31.1694
   -31.1690 -31.1675 -31.1649 -31.1572 -31.1530 -31.1504 -31.1495 -31.1457
     6.0330   6.0514   7.4068   7.4393   7.4548   7.4861   7.6752   7.6795
     8.1014   8.1222   8.1506   8.1733   8.1777   8.2333   8.2452   8.2890
     8.3900   8.4162   8.4546   8.4857   8.5959   8.6228   8.6438   8.6542
     8.6777   8.6788   8.6988   8.7064   8.7381   8.8126   8.8212   8.8370
     8.8427   8.8735   8.8756   8.8817   8.9064   8.9092   8.9123   8.9203
     8.9263   8.9309   8.9389   8.9504   9.0501   9.0532   9.1580   9.1769
     9.1876   9.1989   9.2120   9.2246   9.2429   9.2503   9.3160   9.3234
     9.3377   9.3838   9.4015   9.4027   9.4740   9.4775   9.4839   9.4970
     9.5369   9.5406   9.5418   9.5728   9.5757   9.6024   9.6040   9.6158
     9.6180   9.6196   9.6284   9.6287   9.6333   9.6407   9.6467   9.6566
     9.6657   9.6673   9.6674   9.6800   9.6912   9.7151   9.7248   9.7493
     9.7564   9.7622   9.7703   9.7745   9.8896   9.8971   9.9034  10.0053
    10.0160  10.0320  10.1562  10.1856  10.2136  10.2250  10.2469  10.2522
    10.2694  10.2722  10.2777  10.2794  10.2813  10.2876  10.3461  10.3606
    10.3649  10.3815  10.3838  10.3901  10.4302  10.4410  10.4432  10.4497
    10.4889  10.5148  10.5182  10.5320  10.5633  10.5655  10.5853  10.5936
    10.6076  10.6572  10.6909  10.6989  10.7043  10.7062  10.7396  10.7806
    10.8057  10.8130  10.8343  10.8479  10.8698  10.8859  10.9063  10.9242
    10.9305  10.9961  11.0049  11.0274  11.0513  11.1237  11.1629  11.1935
    11.2745  11.3444  11.3510  11.3612  11.3661  11.3968  11.4002  11.4044
    11.4188  11.4453  11.4823  11.4919  11.4936  11.5469  11.5515  11.5759
    11.5838  11.5944  11.6003  11.6100  11.6152  11.6575  11.6578  11.7223
    11.7458  11.7830  11.8019  11.8115  11.8138  11.8388  11.8428  11.8611
    11.8648  11.8841  11.8977  11.9181  11.9258  11.9471  11.9679  11.9719
    11.9830  12.0053  12.0174  12.0183  12.0389  12.1302  12.1453  12.1879
    12.1951  12.2096  12.2294  12.2411  12.2428  12.2607  12.2630  12.2786
    12.2854  12.2957  12.2986  12.3010  12.3794  12.3961  12.4055  12.4067
    12.4493  12.4584  12.4641  12.4757  12.4814  12.5152  12.5193  12.5515
    12.5725  12.5779  12.6077  12.6633  12.6657  12.7042  12.7247  12.7721
    12.7972  12.8593  12.9272  12.9765  13.0585  13.0762  13.1359  13.1426
    13.1506  13.2022  13.2203  13.2280  13.2667  13.2693  13.3130  13.3252
    13.3675  13.4340  13.4581  13.7216  13.7453  14.1263  14.5108  14.5736
    14.6267  14.7449  14.7879  14.8568  14.8652  14.8836  14.9321  14.9546
    15.0783  15.1066  15.2298  15.3328  15.3781  15.3961  15.5117  15.5673
    15.6855  15.7469  15.7489  15.7886  15.8371  15.8623  15.9307  16.0251
    16.0252  16.0544  16.0554  16.0703  16.1018  16.1307  16.1427  16.1564
    16.1781  16.1976  16.2380  16.2478  16.2608  16.2959  16.3482  16.3644
    16.4213  16.4243  16.5502  16.5881  16.7164  16.8011  16.9980  17.0326
    17.1184  17.2073  17.2530  17.3929  17.4388  17.5602  17.6107  17.6247
    17.7090  17.7461  17.7705  17.8228  17.8322  17.8591  17.9188  18.0034
    18.0453  18.0620  18.1306  18.2138  19.2645  19.2911  19.3109  19.3634

          k =-0.5000 0.0000 0.5734 ( 31696 PWs)   bands (ev):

   -66.7880 -66.7543 -66.7089 -66.7070 -66.6637 -66.6464 -66.6389 -66.6339
   -66.6170 -62.4136 -62.3917 -62.3850 -62.3591 -62.3504 -62.3493 -62.3474
   -62.3411 -62.3334 -35.5421 -35.5305 -35.5180 -35.5143 -35.4959 -35.4792
   -35.4636 -35.4609 -35.4584 -35.4564 -35.4393 -35.4358 -35.4332 -35.4100
   -35.4047 -35.4013 -35.3959 -35.3915 -35.3885 -35.3830 -35.3803 -35.3768
   -35.3744 -35.3718 -35.3550 -35.3536 -35.3334 -31.2504 -31.2474 -31.2301
   -31.2200 -31.2184 -31.2184 -31.2133 -31.2078 -31.2016 -31.1996 -31.1958
   -31.1956 -31.1857 -31.1815 -31.1785 -31.1752 -31.1742 -31.1726 -31.1694
   -31.1690 -31.1675 -31.1649 -31.1572 -31.1530 -31.1504 -31.1495 -31.1457
     6.5232   6.5535   6.6066   6.6519   7.8322   7.8398   7.8457   7.8790
     7.8989   7.9314   7.9451   7.9496   8.2642   8.2822   8.2928   8.3049
     8.5040   8.5251   8.5355   8.5411   8.6376   8.6659   8.6736   8.6866
     8.6918   8.6961   8.7127   8.7166   8.7210   8.7239   8.7444   8.7582
     8.7588   8.7637   8.7838   8.8430   8.9457   8.9715   9.0246   9.0264
     9.0305   9.0607   9.0650   9.0808   9.1815   9.1990   9.2015   9.2118
     9.2177   9.2215   9.2233   9.2298   9.2357   9.2465   9.2552   9.2654
     9.2719   9.2810   9.2885   9.2914   9.3052   9.3623   9.3807   9.3830
     9.4067   9.4260   9.4528   9.4568   9.4637   9.4651   9.4715   9.4854
     9.4877   9.4928   9.4999   9.5019   9.5149   9.5452   9.5506   9.5740
     9.5826   9.6198   9.7520   9.7630   9.7741   9.7775   9.8047   9.8242
     9.8249   9.8388   9.8487   9.8544   9.8578   9.8610   9.8934   9.8948
     9.9594   9.9855   9.9889   9.9985  10.0302  10.0308  10.0547  10.0695
    10.3572  10.3861  10.3924  10.4060  10.4118  10.4176  10.4236  10.4303
    10.4490  10.4610  10.4729  10.4790  10.4884  10.4942  10.4986  10.5179
    10.5274  10.5635  10.5758  10.5793  10.5981  10.6103  10.6149  10.6170
    10.6409  10.6495  10.6676  10.6702  10.6782  10.6927  10.7164  10.7170
    10.7300  10.8554  10.8614  10.9049  10.9632  10.9950  11.0354  11.1086
    11.1148  11.1310  11.1346  11.1498  11.1607  11.1891  11.1977  11.2100
    11.2114  11.2144  11.2557  11.3169  11.3436  11.3523  11.3652  11.3705
    11.3784  11.3816  11.4105  11.4260  11.4398  11.4852  11.4886  11.5110
    11.5196  11.5572  11.5740  11.5788  11.5811  11.5960  11.6028  11.6205
    11.6227  11.6419  11.6429  11.7109  11.7562  11.7650  11.8162  11.8243
    11.8926  11.8978  11.9036  11.9531  11.9615  11.9621  11.9821  12.0092
    12.0219  12.0273  12.0274  12.0333  12.0366  12.0391  12.0784  12.1337
    12.1435  12.1597  12.1822  12.2214  12.2323  12.2578  12.2917  12.3372
    12.3704  12.4112  12.4165  12.4233  12.4446  12.4468  12.4742  12.4885
    12.4993  12.5125  12.5152  12.5307  12.5451  12.5620  12.6269  12.6280
    12.6309  12.6404  12.6587  12.6611  12.7309  12.7572  12.7669  12.7789
    12.8676  12.8810  12.9118  12.9767  13.0105  13.0255  13.0437  13.0629
    13.0810  13.1953  13.2596  13.3549  13.4467  13.5347  13.5654  13.7996
    13.8733  13.9810  14.0568  14.1162  14.1498  14.2426  14.2699  14.3973
    14.4216  14.4621  14.5295  14.5801  14.6945  14.7050  14.7917  15.0323
    15.0920  15.2020  15.2684  15.3117  15.3447  15.3834  15.5591  15.5874
    15.6072  15.6837  15.7820  15.7983  15.8609  15.9213  15.9393  15.9684
    16.0359  16.0726  16.0876  16.1243  16.1497  16.1742  16.2147  16.2294
    16.2427  16.2694  16.2783  16.2788  16.2912  16.3348  16.3668  16.4838
    16.4863  16.5335  16.5464  16.5951  16.6136  16.6489  16.6877  16.7446
    16.7470  16.8059  16.8322  16.8996  16.9137  16.9527  16.9591  16.9951
    17.0807  17.1208  17.2061  17.2828  18.5593  18.6773  18.7113  18.7181
    18.7460  18.7992  18.8345  18.8553  18.8645  18.9200  18.9658  18.9889

     the Fermi energy is    14.8423 ev

!    total energy              =  -33062.61060782 Ry
     Harris-Foulkes estimate   =  -33062.61059638 Ry
     estimated scf accuracy    <       0.00000033 Ry

     total all-electron energy =  -1410574.700982 Ry

     The total energy is the sum of the following terms:

     one-electron contribution =   -1645.67680257 Ry
     hartree contribution      =    1489.88888500 Ry
     xc contribution           =   -1658.75237482 Ry
     ewald contribution        =   -4919.25534656 Ry
     one-center paw contrib.   =  -26328.81496888 Ry

     total magnetization       =     0.00 Bohr mag/cell
     absolute magnetization    =    78.95 Bohr mag/cell

     convergence has been achieved in  25 iterations

     Writing output data file mnau2.save
 
     init_run     :     52.03s CPU     52.92s WALL (       1 calls)
     electrons    :   3474.82s CPU   3536.93s WALL (       1 calls)

     Called by init_run:
     wfcinit      :     46.13s CPU     46.76s WALL (       1 calls)
     potinit      :      2.50s CPU      2.56s WALL (       1 calls)

     Called by electrons:
     c_bands      :   3065.42s CPU   3115.98s WALL (      25 calls)
     sum_band     :    343.45s CPU    350.80s WALL (      25 calls)
     v_of_rho     :      6.68s CPU      6.86s WALL (      26 calls)
     newd         :     21.19s CPU     24.14s WALL (      26 calls)
     PAW_pot      :     38.49s CPU     39.11s WALL (      26 calls)
     mix_rho      :      1.37s CPU      1.46s WALL (      25 calls)

     Called by c_bands:
     init_us_2    :     12.47s CPU     12.53s WALL (     816 calls)
     cegterg      :   2987.59s CPU   3037.06s WALL (     400 calls)

     Called by sum_band:
     sum_band:bec :      1.92s CPU      1.92s WALL (     400 calls)
     addusdens    :     37.74s CPU     41.15s WALL (      25 calls)

     Called by *egterg:
     h_psi        :   1104.32s CPU   1116.32s WALL (    1469 calls)
     s_psi        :    265.92s CPU    266.15s WALL (    1469 calls)
     g_psi        :      4.02s CPU      4.02s WALL (    1053 calls)
     cdiaghg      :   1008.74s CPU   1009.43s WALL (    1453 calls)

     Called by h_psi:
     h_psi:pot    :   1093.29s CPU   1105.21s WALL (    1469 calls)
     h_psi:calbec :    267.77s CPU    270.31s WALL (    1469 calls)
     vloc_psi     :    555.74s CPU    564.83s WALL (    1469 calls)
     add_vuspsi   :    269.76s CPU    270.06s WALL (    1469 calls)

     General routines
     calbec       :    386.45s CPU    390.03s WALL (    1869 calls)
     fft          :      5.97s CPU      6.36s WALL (     796 calls)
     ffts         :      0.14s CPU      0.15s WALL (     102 calls)
     fftw         :    531.31s CPU    539.69s WALL (  864986 calls)
     interpolate  :      0.97s CPU      1.03s WALL (     102 calls)
 
     Parallel routines
     fft_scatt_xy :     66.14s CPU     66.98s WALL (  865884 calls)
     fft_scatt_yz :    134.58s CPU    138.40s WALL (  865884 calls)
 
     PWSCF        :     0h58m CPU        1h 0m WALL

 
   This run was terminated on:  16:44: 9   8Mar2019            

=------------------------------------------------------------------------------=
   JOB DONE.
=------------------------------------------------------------------------------=
