
     Program PWSCF v.6.2 (svn rev. 14038) starts on  4Mar2019 at  9:53:26 

     This program is part of the open-source Quantum ESPRESSO suite
     for quantum simulation of materials; please cite
         "P. Giannozzi et al., J. Phys.:Condens. Matter 21 395502 (2009);
         "P. Giannozzi et al., J. Phys.:Condens. Matter 29 465901 (2017);
          URL http://www.quantum-espresso.org", 
     in publications or presentations arising from this work. More details at
     http://www.quantum-espresso.org/quote

     Parallel version (MPI), running on    16 processors

     MPI processes distributed on     1 nodes
     R & G space division:  proc/nbgrp/npool/nimage =      16
     Waiting for input...
     Reading input from standard input

     Current dimensions of program PWSCF are:
     Max number of different atomic species (ntypx) = 10
     Max number of k-points (npk) =  40000
     Max angular momentum in pseudopotentials (lmaxx) =  3
               file Mn.pbe-spn-kjpaw_psl.0.3.1.UPF: wavefunction(s)  3P 3D renormalized
               file Mn.pbe-spn-kjpaw_psl.0.3.1.UPF: wavefunction(s)  3P 3D renormalized
               file Au.pbe-dn-kjpaw_psl.0.1.UPF: wavefunction(s)  6S 6P 5D renormalized

     Subspace diagonalization in iterative solution of the eigenvalue problem:
     a serial algorithm will be used

 
     Parallelization info
     --------------------
     sticks:   dense  smooth     PW     G-vecs:    dense   smooth      PW
     Min         736     331     90                52486    15847    2256
     Max         737     332     91                52489    15850    2259
     Sum       11785    5297   1449               839803   253559   36125
 


     bravais-lattice index     =            0
     lattice parameter (alat)  =      19.2459  a.u.
     unit-cell volume          =    6216.1497 (a.u.)^3
     number of atoms/cell      =           54
     number of atomic types    =            3
     number of electrons       =       666.00
     number of Kohn-Sham states=          400
     kinetic-energy cutoff     =      45.0000  Ry
     charge density cutoff     =     400.0000  Ry
     convergence threshold     =      1.0E-06
     mixing beta               =       0.1000
     number of iterations used =            8  plain     mixing
     Exchange-correlation      = SLA PW PBX PBC ( 1  4  3  4 0 0)

     celldm(1)=  19.245946  celldm(2)=   0.000000  celldm(3)=   0.000000
     celldm(4)=   0.000000  celldm(5)=   0.000000  celldm(6)=   0.000000

     crystal axes: (cart. coord. in units of alat)
               a(1) = (   1.000000   0.000000   0.000000 )  
               a(2) = (   0.000000   1.000000   0.000000 )  
               a(3) = (   0.000000   0.000000   0.871974 )  

     reciprocal axes: (cart. coord. in units 2 pi/alat)
               b(1) = (  1.000000  0.000000  0.000000 )  
               b(2) = (  0.000000  1.000000  0.000000 )  
               b(3) = (  0.000000  0.000000  1.146823 )  


     PseudoPot. # 1 for Mn read from file:
     ./pseudo/Mn.pbe-spn-kjpaw_psl.0.3.1.UPF
     MD5 check sum: 7eef95dd2aae66803482eea66ebeebf1
     Pseudo is Projector augmented-wave + core cor, Zval = 15.0
     Generated using "atomic" code by A. Dal Corso v.5.0.99 svn rev. 10869
     Shape of augmentation charge: PSQ
     Using radial grid of 1187 points,  6 beta functions with: 
                l(1) =   0
                l(2) =   0
                l(3) =   1
                l(4) =   1
                l(5) =   2
                l(6) =   2
     Q(r) pseudized with 0 coefficients 


     PseudoPot. # 2 for Mn read from file:
     ./pseudo/Mn.pbe-spn-kjpaw_psl.0.3.1.UPF
     MD5 check sum: 7eef95dd2aae66803482eea66ebeebf1
     Pseudo is Projector augmented-wave + core cor, Zval = 15.0
     Generated using "atomic" code by A. Dal Corso v.5.0.99 svn rev. 10869
     Shape of augmentation charge: PSQ
     Using radial grid of 1187 points,  6 beta functions with: 
                l(1) =   0
                l(2) =   0
                l(3) =   1
                l(4) =   1
                l(5) =   2
                l(6) =   2
     Q(r) pseudized with 0 coefficients 


     PseudoPot. # 3 for Au read from file:
     ./pseudo/Au.pbe-dn-kjpaw_psl.0.1.UPF
     MD5 check sum: 5c9b92683623e7ae2ab3f8e525febab6
     Pseudo is Projector augmented-wave + core cor, Zval = 11.0
     Generated using "atomic" code by A. Dal Corso v.5.0.2 svn rev. 9415
     Shape of augmentation charge: PSQ
     Using radial grid of 1279 points,  6 beta functions with: 
                l(1) =   0
                l(2) =   0
                l(3) =   1
                l(4) =   1
                l(5) =   2
                l(6) =   2
     Q(r) pseudized with 0 coefficients 


     atomic species   valence    mass     pseudopotential
        Mn1           15.00    54.93800     Mn( 1.00)
        Mn2           15.00    54.93800     Mn( 1.00)
        Au            11.00   196.96600     Au( 1.00)

     Starting magnetic structure 
     atomic species   magnetization
        Mn1          0.800
        Mn2         -0.800
        Au           0.000

      2 Sym. Ops. (no inversion) found



   Cartesian axes

     site n.     atom                  positions (alat units)
         1           Mn1 tau(   1) = (   0.0000000   0.0000000   0.0000000  )
         2           Mn1 tau(   2) = (   0.0000000   0.3333300   0.0000000  )
         3           Mn1 tau(   3) = (   0.0000000   0.6666700   0.0000000  )
         4           Mn1 tau(   4) = (   0.3333300   0.0000000   0.0000000  )
         5           Mn1 tau(   5) = (   0.3333300   0.3333300   0.0000000  )
         6           Mn2 tau(   6) = (   0.3333300   0.6666700   0.0000000  )
         7           Mn2 tau(   7) = (   0.6666700   0.0000000   0.0000000  )
         8           Mn2 tau(   8) = (   0.6666700   0.3333300   0.0000000  )
         9           Mn1 tau(   9) = (   0.6666700   0.6666700   0.0000000  )
        10           Mn2 tau(  10) = (   0.1666700   0.1666700   0.4359871  )
        11           Mn2 tau(  11) = (   0.1666700   0.5000000   0.4359871  )
        12           Mn2 tau(  12) = (   0.1666700   0.8333300   0.4359871  )
        13           Mn2 tau(  13) = (   0.5000000   0.1666700   0.4359871  )
        14           Mn2 tau(  14) = (   0.5000000   0.5000000   0.4359871  )
        15           Mn1 tau(  15) = (   0.5000000   0.8333300   0.4359871  )
        16           Mn1 tau(  16) = (   0.8333300   0.1666700   0.4359871  )
        17           Mn1 tau(  17) = (   0.8333300   0.5000000   0.4359871  )
        18           Mn2 tau(  18) = (   0.8333300   0.8333300   0.4359871  )
        19           Au  tau(  19) = (   0.1666700   0.1666700   0.7327374  )
        20           Au  tau(  20) = (   0.1666700   0.5000000   0.7327374  )
        21           Au  tau(  21) = (   0.1666700   0.8333300   0.7327374  )
        22           Au  tau(  22) = (   0.5000000   0.1666700   0.7327374  )
        23           Au  tau(  23) = (   0.5000000   0.5000000   0.7327374  )
        24           Au  tau(  24) = (   0.5000000   0.8333300   0.7327374  )
        25           Au  tau(  25) = (   0.8333300   0.1666700   0.7327374  )
        26           Au  tau(  26) = (   0.8333300   0.5000000   0.7327374  )
        27           Au  tau(  27) = (   0.8333300   0.8333300   0.7327374  )
        28           Au  tau(  28) = (   0.1666700   0.1666700   0.1392369  )
        29           Au  tau(  29) = (   0.1666700   0.5000000   0.1392369  )
        30           Au  tau(  30) = (   0.1666700   0.8333300   0.1392369  )
        31           Au  tau(  31) = (   0.5000000   0.1666700   0.1392369  )
        32           Au  tau(  32) = (   0.5000000   0.5000000   0.1392369  )
        33           Au  tau(  33) = (   0.5000000   0.8333300   0.1392369  )
        34           Au  tau(  34) = (   0.8333300   0.1666700   0.1392369  )
        35           Au  tau(  35) = (   0.8333300   0.5000000   0.1392369  )
        36           Au  tau(  36) = (   0.8333300   0.8333300   0.1392369  )
        37           Au  tau(  37) = (   0.0000000   0.0000000   0.2967503  )
        38           Au  tau(  38) = (   0.0000000   0.3333300   0.2967503  )
        39           Au  tau(  39) = (   0.0000000   0.6666700   0.2967503  )
        40           Au  tau(  40) = (   0.3333300   0.0000000   0.2967503  )
        41           Au  tau(  41) = (   0.3333300   0.3333300   0.2967503  )
        42           Au  tau(  42) = (   0.3333300   0.6666700   0.2967503  )
        43           Au  tau(  43) = (   0.6666700   0.0000000   0.2967503  )
        44           Au  tau(  44) = (   0.6666700   0.3333300   0.2967503  )
        45           Au  tau(  45) = (   0.6666700   0.6666700   0.2967503  )
        46           Au  tau(  46) = (   0.0000000   0.0000000   0.5752240  )
        47           Au  tau(  47) = (   0.0000000   0.3333300   0.5752240  )
        48           Au  tau(  48) = (   0.0000000   0.6666700   0.5752240  )
        49           Au  tau(  49) = (   0.3333300   0.0000000   0.5752240  )
        50           Au  tau(  50) = (   0.3333300   0.3333300   0.5752240  )
        51           Au  tau(  51) = (   0.3333300   0.6666700   0.5752240  )
        52           Au  tau(  52) = (   0.6666700   0.0000000   0.5752240  )
        53           Au  tau(  53) = (   0.6666700   0.3333300   0.5752240  )
        54           Au  tau(  54) = (   0.6666700   0.6666700   0.5752240  )

     number of k points=     8 (tetrahedron method)
                       cart. coord. in units 2pi/alat
        k(    1) = (   0.0000000   0.0000000   0.0000000), wk =   0.1250000
        k(    2) = (   0.0000000   0.0000000  -0.5734114), wk =   0.1250000
        k(    3) = (   0.0000000  -0.5000000   0.0000000), wk =   0.1250000
        k(    4) = (   0.0000000  -0.5000000  -0.5734114), wk =   0.1250000
        k(    5) = (  -0.5000000  -0.5000000   0.0000000), wk =   0.1250000
        k(    6) = (  -0.5000000  -0.5000000  -0.5734114), wk =   0.1250000
        k(    7) = (  -0.5000000   0.0000000   0.0000000), wk =   0.1250000
        k(    8) = (  -0.5000000   0.0000000   0.5734114), wk =   0.1250000

     Dense  grid:   839803 G-vectors     FFT dimensions: ( 125, 125, 108)

     Smooth grid:   253559 G-vectors     FFT dimensions: (  90,  90,  72)

     Estimated max dynamical RAM per process >     570.13 MB

     Estimated total dynamical RAM >       8.91 GB
     Generating pointlists ...
     new r_m :   0.1129 (alat units)  2.1733 (a.u.) for type    1
     new r_m :   0.1129 (alat units)  2.1733 (a.u.) for type    2
     new r_m :   0.1129 (alat units)  2.1733 (a.u.) for type    3

     Check: negative/imaginary core charge=   -0.000006    0.000000

     Initial potential from superposition of free atoms

     starting charge  665.98709, renormalised to  666.00000
     Starting wfc are  504 randomized atomic wfcs
     Checking if some PAW data can be deallocated... 

     total cpu time spent up to now is       56.3 secs

     Self-consistent Calculation

     iteration #  1     ecut=    45.00 Ry     beta= 0.10
     Davidson diagonalization with overlap
     ethr =  1.00E-02,  avg # of iterations =  3.2

     total cpu time spent up to now is      217.0 secs

     total energy              =  -33047.21407937 Ry
     Harris-Foulkes estimate   =  -33044.06760992 Ry
     estimated scf accuracy    <      26.98669824 Ry

     total magnetization       =     0.02 Bohr mag/cell
     absolute magnetization    =    92.05 Bohr mag/cell

     iteration #  2     ecut=    45.00 Ry     beta= 0.10
     Davidson diagonalization with overlap
     ethr =  4.05E-03,  avg # of iterations =  1.0

     total cpu time spent up to now is      325.5 secs

     total energy              =  -33058.59435985 Ry
     Harris-Foulkes estimate   =  -33047.39465301 Ry
     estimated scf accuracy    <      21.35427227 Ry

     total magnetization       =     0.02 Bohr mag/cell
     absolute magnetization    =    91.66 Bohr mag/cell

     iteration #  3     ecut=    45.00 Ry     beta= 0.10
     Davidson diagonalization with overlap
     ethr =  3.21E-03,  avg # of iterations =  2.1

     total cpu time spent up to now is      459.7 secs

     total energy              =  -33066.16163512 Ry
     Harris-Foulkes estimate   =  -33061.41841192 Ry
     estimated scf accuracy    <       8.91527824 Ry

     total magnetization       =    -0.07 Bohr mag/cell
     absolute magnetization    =    85.51 Bohr mag/cell

     iteration #  4     ecut=    45.00 Ry     beta= 0.10
     Davidson diagonalization with overlap
     ethr =  1.34E-03,  avg # of iterations =  3.9

     total cpu time spent up to now is      654.5 secs

     total energy              =  -33059.01242416 Ry
     Harris-Foulkes estimate   =  -33068.65790447 Ry
     estimated scf accuracy    <      49.98304569 Ry

     total magnetization       =    -0.09 Bohr mag/cell
     absolute magnetization    =    72.38 Bohr mag/cell

     iteration #  5     ecut=    45.00 Ry     beta= 0.10
     Davidson diagonalization with overlap
     ethr =  1.34E-03,  avg # of iterations =  4.8

     total cpu time spent up to now is      885.3 secs

     total energy              =  -33062.03385891 Ry
     Harris-Foulkes estimate   =  -33062.59467594 Ry
     estimated scf accuracy    <       3.67916868 Ry

     total magnetization       =    -0.03 Bohr mag/cell
     absolute magnetization    =    83.37 Bohr mag/cell

     iteration #  6     ecut=    45.00 Ry     beta= 0.10
     Davidson diagonalization with overlap
     ethr =  5.52E-04,  avg # of iterations =  3.7

     total cpu time spent up to now is     1040.7 secs

     total energy              =  -33062.55799287 Ry
     Harris-Foulkes estimate   =  -33062.54718159 Ry
     estimated scf accuracy    <       0.17624283 Ry

     total magnetization       =     0.17 Bohr mag/cell
     absolute magnetization    =    79.62 Bohr mag/cell

     iteration #  7     ecut=    45.00 Ry     beta= 0.10
     Davidson diagonalization with overlap
     ethr =  2.65E-05,  avg # of iterations =  5.7

     total cpu time spent up to now is     1272.3 secs

     total energy              =  -33062.58957812 Ry
     Harris-Foulkes estimate   =  -33062.58962634 Ry
     estimated scf accuracy    <       0.06325917 Ry

     total magnetization       =     0.16 Bohr mag/cell
     absolute magnetization    =    78.78 Bohr mag/cell

     iteration #  8     ecut=    45.00 Ry     beta= 0.10
     Davidson diagonalization with overlap
     ethr =  9.50E-06,  avg # of iterations =  3.7

     total cpu time spent up to now is     1435.8 secs

     total energy              =  -33062.58380984 Ry
     Harris-Foulkes estimate   =  -33062.60452663 Ry
     estimated scf accuracy    <       0.18195063 Ry

     total magnetization       =     0.17 Bohr mag/cell
     absolute magnetization    =    78.10 Bohr mag/cell

     iteration #  9     ecut=    45.00 Ry     beta= 0.10
     Davidson diagonalization with overlap
     ethr =  9.50E-06,  avg # of iterations =  1.7

     total cpu time spent up to now is     1555.8 secs

     total energy              =  -33062.58782075 Ry
     Harris-Foulkes estimate   =  -33062.58845696 Ry
     estimated scf accuracy    <       0.06712630 Ry

     total magnetization       =     0.18 Bohr mag/cell
     absolute magnetization    =    78.09 Bohr mag/cell

     iteration # 10     ecut=    45.00 Ry     beta= 0.10
     Davidson diagonalization with overlap
     ethr =  9.50E-06,  avg # of iterations =  2.1

     total cpu time spent up to now is     1679.1 secs

     total energy              =  -33062.58917577 Ry
     Harris-Foulkes estimate   =  -33062.59300919 Ry
     estimated scf accuracy    <       0.01639727 Ry

     total magnetization       =     0.19 Bohr mag/cell
     absolute magnetization    =    78.44 Bohr mag/cell

     iteration # 11     ecut=    45.00 Ry     beta= 0.10
     Davidson diagonalization with overlap
     ethr =  2.46E-06,  avg # of iterations =  5.1

     total cpu time spent up to now is     1887.8 secs

     total energy              =  -33062.59116327 Ry
     Harris-Foulkes estimate   =  -33062.59413163 Ry
     estimated scf accuracy    <       0.00650732 Ry

     total magnetization       =     0.19 Bohr mag/cell
     absolute magnetization    =    78.65 Bohr mag/cell

     iteration # 12     ecut=    45.00 Ry     beta= 0.10
     Davidson diagonalization with overlap
     ethr =  9.77E-07,  avg # of iterations =  3.2

     total cpu time spent up to now is     2054.4 secs

     total energy              =  -33062.59381614 Ry
     Harris-Foulkes estimate   =  -33062.59348769 Ry
     estimated scf accuracy    <       0.00677879 Ry

     total magnetization       =     0.20 Bohr mag/cell
     absolute magnetization    =    78.67 Bohr mag/cell

     iteration # 13     ecut=    45.00 Ry     beta= 0.10
     Davidson diagonalization with overlap
     ethr =  9.77E-07,  avg # of iterations =  2.0

     total cpu time spent up to now is     2184.6 secs

     total energy              =  -33062.59487896 Ry
     Harris-Foulkes estimate   =  -33062.59456751 Ry
     estimated scf accuracy    <       0.00039242 Ry

     total magnetization       =     0.20 Bohr mag/cell
     absolute magnetization    =    78.49 Bohr mag/cell

     iteration # 14     ecut=    45.00 Ry     beta= 0.10
     Davidson diagonalization with overlap
     ethr =  5.89E-08,  avg # of iterations =  4.0

     total cpu time spent up to now is     2359.2 secs

     total energy              =  -33062.59496362 Ry
     Harris-Foulkes estimate   =  -33062.59490021 Ry
     estimated scf accuracy    <       0.00015835 Ry

     total magnetization       =     0.21 Bohr mag/cell
     absolute magnetization    =    78.46 Bohr mag/cell

     iteration # 15     ecut=    45.00 Ry     beta= 0.10
     Davidson diagonalization with overlap
     ethr =  2.38E-08,  avg # of iterations =  1.4

     total cpu time spent up to now is     2472.4 secs

     total energy              =  -33062.59513063 Ry
     Harris-Foulkes estimate   =  -33062.59495971 Ry
     estimated scf accuracy    <       0.00011007 Ry

     total magnetization       =     0.21 Bohr mag/cell
     absolute magnetization    =    78.45 Bohr mag/cell

     iteration # 16     ecut=    45.00 Ry     beta= 0.10
     Davidson diagonalization with overlap
     ethr =  1.65E-08,  avg # of iterations =  2.0

     total cpu time spent up to now is     2597.0 secs

     total energy              =  -33062.59522140 Ry
     Harris-Foulkes estimate   =  -33062.59511653 Ry
     estimated scf accuracy    <       0.00005234 Ry

     total magnetization       =     0.21 Bohr mag/cell
     absolute magnetization    =    78.44 Bohr mag/cell

     iteration # 17     ecut=    45.00 Ry     beta= 0.10
     Davidson diagonalization with overlap
     ethr =  7.86E-09,  avg # of iterations =  2.9

     total cpu time spent up to now is     2751.5 secs

     total energy              =  -33062.59524463 Ry
     Harris-Foulkes estimate   =  -33062.59520567 Ry
     estimated scf accuracy    <       0.00002004 Ry

     total magnetization       =     0.21 Bohr mag/cell
     absolute magnetization    =    78.42 Bohr mag/cell

     iteration # 18     ecut=    45.00 Ry     beta= 0.10
     Davidson diagonalization with overlap
     ethr =  3.01E-09,  avg # of iterations =  3.0

     total cpu time spent up to now is     2931.3 secs

     total energy              =  -33062.59521779 Ry
     Harris-Foulkes estimate   =  -33062.59520746 Ry
     estimated scf accuracy    <       0.00000445 Ry

     total magnetization       =     0.22 Bohr mag/cell
     absolute magnetization    =    78.40 Bohr mag/cell

     iteration # 19     ecut=    45.00 Ry     beta= 0.10
     Davidson diagonalization with overlap
     ethr =  6.68E-10,  avg # of iterations =  2.2

     total cpu time spent up to now is     3061.5 secs

     total energy              =  -33062.59521427 Ry
     Harris-Foulkes estimate   =  -33062.59520753 Ry
     estimated scf accuracy    <       0.00000245 Ry

     total magnetization       =     0.22 Bohr mag/cell
     absolute magnetization    =    78.39 Bohr mag/cell

     iteration # 20     ecut=    45.00 Ry     beta= 0.10
     Davidson diagonalization with overlap
     ethr =  3.69E-10,  avg # of iterations =  2.0

     total cpu time spent up to now is     3184.5 secs

     total energy              =  -33062.59521450 Ry
     Harris-Foulkes estimate   =  -33062.59520863 Ry
     estimated scf accuracy    <       0.00000161 Ry

     total magnetization       =     0.22 Bohr mag/cell
     absolute magnetization    =    78.39 Bohr mag/cell

     iteration # 21     ecut=    45.00 Ry     beta= 0.10
     Davidson diagonalization with overlap
     ethr =  2.42E-10,  avg # of iterations =  2.9
 
     Magnetic moment per site:
     atom:    1    charge:   13.5811    magn:    3.9664    constr:    0.0000
     atom:    2    charge:   13.5739    magn:    4.0196    constr:    0.0000
     atom:    3    charge:   13.5794    magn:    3.9631    constr:    0.0000
     atom:    4    charge:   13.5715    magn:    4.0465    constr:    0.0000
     atom:    5    charge:   13.5756    magn:    4.0086    constr:    0.0000
     atom:    6    charge:   13.5823    magn:   -3.9893    constr:    0.0000
     atom:    7    charge:   13.5755    magn:   -4.0205    constr:    0.0000
     atom:    8    charge:   13.5763    magn:   -4.0135    constr:    0.0000
     atom:    9    charge:   13.5803    magn:    3.9771    constr:    0.0000
     atom:   10    charge:   13.5784    magn:   -3.9912    constr:    0.0000
     atom:   11    charge:   13.5708    magn:   -4.0357    constr:    0.0000
     atom:   12    charge:   13.5743    magn:   -4.0018    constr:    0.0000
     atom:   13    charge:   13.5813    magn:   -3.9668    constr:    0.0000
     atom:   14    charge:   13.5819    magn:   -3.9614    constr:    0.0000
     atom:   15    charge:   13.5727    magn:    4.0842    constr:    0.0000
     atom:   16    charge:   13.5815    magn:    3.9832    constr:    0.0000
     atom:   17    charge:   13.5772    magn:    4.0166    constr:    0.0000
     atom:   18    charge:   13.5799    magn:   -3.9846    constr:    0.0000
     atom:   19    charge:    9.1221    magn:    0.0532    constr:    0.0000
     atom:   20    charge:    9.1211    magn:    0.0147    constr:    0.0000
     atom:   21    charge:    9.1211    magn:    0.0150    constr:    0.0000
     atom:   22    charge:    9.1211    magn:   -0.0058    constr:    0.0000
     atom:   23    charge:    9.1206    magn:   -0.0096    constr:    0.0000
     atom:   24    charge:    9.1209    magn:    0.0094    constr:    0.0000
     atom:   25    charge:    9.1206    magn:    0.0123    constr:    0.0000
     atom:   26    charge:    9.1203    magn:    0.0433    constr:    0.0000
     atom:   27    charge:    9.1201    magn:    0.0211    constr:    0.0000
     atom:   28    charge:    9.1221    magn:    0.0532    constr:    0.0000
     atom:   29    charge:    9.1211    magn:    0.0147    constr:    0.0000
     atom:   30    charge:    9.1211    magn:    0.0150    constr:    0.0000
     atom:   31    charge:    9.1211    magn:   -0.0058    constr:    0.0000
     atom:   32    charge:    9.1206    magn:   -0.0096    constr:    0.0000
     atom:   33    charge:    9.1209    magn:    0.0094    constr:    0.0000
     atom:   34    charge:    9.1206    magn:    0.0123    constr:    0.0000
     atom:   35    charge:    9.1203    magn:    0.0433    constr:    0.0000
     atom:   36    charge:    9.1201    magn:    0.0211    constr:    0.0000
     atom:   37    charge:    9.1216    magn:   -0.0147    constr:    0.0000
     atom:   38    charge:    9.1216    magn:    0.0142    constr:    0.0000
     atom:   39    charge:    9.1209    magn:   -0.0174    constr:    0.0000
     atom:   40    charge:    9.1213    magn:   -0.0155    constr:    0.0000
     atom:   41    charge:    9.1204    magn:   -0.0519    constr:    0.0000
     atom:   42    charge:    9.1196    magn:   -0.0322    constr:    0.0000
     atom:   43    charge:    9.1218    magn:   -0.0096    constr:    0.0000
     atom:   44    charge:    9.1207    magn:   -0.0088    constr:    0.0000
     atom:   45    charge:    9.1198    magn:    0.0093    constr:    0.0000
     atom:   46    charge:    9.1216    magn:   -0.0147    constr:    0.0000
     atom:   47    charge:    9.1216    magn:    0.0142    constr:    0.0000
     atom:   48    charge:    9.1209    magn:   -0.0174    constr:    0.0000
     atom:   49    charge:    9.1213    magn:   -0.0155    constr:    0.0000
     atom:   50    charge:    9.1204    magn:   -0.0519    constr:    0.0000
     atom:   51    charge:    9.1196    magn:   -0.0322    constr:    0.0000
     atom:   52    charge:    9.1218    magn:   -0.0096    constr:    0.0000
     atom:   53    charge:    9.1207    magn:   -0.0088    constr:    0.0000
     atom:   54    charge:    9.1198    magn:    0.0093    constr:    0.0000

     total cpu time spent up to now is     3360.1 secs

     End of self-consistent calculation

 ------ SPIN UP ------------


          k = 0.0000 0.0000 0.0000 ( 31747 PWs)   bands (ev):

   -66.7441 -66.7331 -66.6988 -66.6879 -66.6510 -66.6454 -66.6269 -66.6139
   -66.6109 -62.4230 -62.3981 -62.3661 -62.3601 -62.3525 -62.3415 -62.3303
   -62.3251 -62.2923 -35.5173 -35.4857 -35.4848 -35.4793 -35.4768 -35.4670
   -35.4587 -35.4545 -35.4447 -35.4322 -35.4277 -35.4274 -35.4062 -35.4024
   -35.3988 -35.3954 -35.3886 -35.3792 -35.3750 -35.3660 -35.3652 -35.3604
   -35.3592 -35.3588 -35.3560 -35.3410 -35.3203 -31.2617 -31.2500 -31.2462
   -31.2320 -31.2236 -31.2152 -31.2010 -31.1959 -31.1923 -31.1914 -31.1894
   -31.1843 -31.1824 -31.1782 -31.1771 -31.1683 -31.1682 -31.1645 -31.1598
   -31.1590 -31.1437 -31.1426 -31.1419 -31.1386 -31.1327 -31.1148 -31.1001
     5.6132   7.1406   7.1555   7.1944   7.2143   7.3625   7.8568   7.8856
     7.9035   7.9476   8.0736   8.1087   8.1427   8.1693   8.1775   8.2479
     8.2708   8.2795   8.3019   8.5215   8.5442   8.5658   8.5717   8.5890
     8.6112   8.8558   8.8598   8.8722   8.8770   8.8792   8.8919   8.8939
     8.8940   8.8992   8.9127   8.9257   8.9316   8.9479   8.9590   8.9700
     8.9859   9.0824   9.1183   9.1249   9.1270   9.1332   9.1552   9.1617
     9.1797   9.1958   9.2104   9.2665   9.2854   9.2945   9.3027   9.3476
     9.3494   9.3613   9.3708   9.3777   9.3872   9.4002   9.4181   9.4294
     9.4372   9.4399   9.4461   9.4540   9.4598   9.4706   9.4810   9.5773
     9.5808   9.5873   9.5920   9.5973   9.6393   9.6453   9.6671   9.6688
     9.6707   9.6747   9.6769   9.7452   9.7507   9.7748   9.7849   9.8481
     9.8491   9.9138   9.9275   9.9302   9.9489   9.9495  10.0026  10.0277
    10.0788  10.1154  10.1441  10.1886  10.2824  10.2869  10.2924  10.2951
    10.2999  10.3102  10.3107  10.3150  10.3217  10.3248  10.3375  10.3392
    10.3426  10.3551  10.3556  10.3615  10.3622  10.3640  10.3807  10.3829
    10.3970  10.5096  10.5141  10.5405  10.5796  10.6137  10.6416  10.6953
    10.7052  10.7810  10.7865  10.7888  10.8054  10.8109  10.8304  10.8376
    10.8557  10.8609  10.8689  10.8733  10.8747  10.8766  10.8948  10.9021
    10.9091  10.9097  11.0189  11.0512  11.0549  11.0904  11.1512  11.2144
    11.2172  11.2184  11.2290  11.2315  11.2680  11.3318  11.3453  11.3495
    11.3855  11.3871  11.3938  11.3997  11.4052  11.4186  11.4266  11.4287
    11.4499  11.4796  11.5300  11.5892  11.5901  11.5932  11.5953  11.5980
    11.6000  11.6488  11.6977  11.7229  11.7329  11.7410  11.7495  11.7537
    11.8248  11.8328  11.8379  11.8695  11.8734  11.9263  11.9354  11.9475
    11.9535  12.0030  12.0577  12.0974  12.1001  12.1021  12.1049  12.1427
    12.1436  12.1441  12.1453  12.1474  12.1617  12.1713  12.1836  12.2311
    12.2529  12.2699  12.3159  12.3256  12.3416  12.3480  12.3527  12.3978
    12.4247  12.4335  12.4483  12.4668  12.4898  12.5146  12.5242  12.5292
    12.5410  12.5628  12.5790  12.5931  12.5971  12.6439  12.6814  12.7031
    12.7221  12.7333  12.7409  12.8416  12.9184  12.9814  13.0404  13.0854
    13.1139  13.1261  13.1530  13.1555  13.4372  13.5992  13.6910  13.7779
    13.8401  14.1236  14.1816  14.1972  14.2326  14.3708  14.3974  14.4285
    14.7569  14.8763  14.9252  14.9973  15.0176  15.1030  15.1897  15.2568
    15.2588  15.2945  15.3856  15.4241  15.4548  15.4726  15.4741  15.5699
    15.5733  15.6334  15.6555  15.8521  15.8573  15.8623  15.9229  16.0293
    16.0447  16.0517  16.1200  16.1434  16.1452  16.1737  16.1778  16.1791
    16.2272  16.2423  16.2800  16.3123  16.3354  16.3566  16.3721  16.4011
    16.4601  16.4973  16.5739  16.6023  16.6636  16.6810  16.8427  16.8571
    16.9222  17.0305  17.1255  17.1897  17.1968  17.2560  17.2853  17.3543
    17.4291  17.5324  17.8265  17.8964  17.9353  17.9512  17.9641  18.0347
    18.1248  18.3250  18.4456  18.9826  18.9969  19.0662  19.1108  19.2142

          k = 0.0000 0.0000-0.5734 ( 31692 PWs)   bands (ev):

   -66.7441 -66.7331 -66.6988 -66.6879 -66.6510 -66.6454 -66.6269 -66.6139
   -66.6109 -62.4230 -62.3981 -62.3661 -62.3601 -62.3525 -62.3415 -62.3303
   -62.3251 -62.2923 -35.5173 -35.4857 -35.4848 -35.4793 -35.4768 -35.4670
   -35.4587 -35.4545 -35.4447 -35.4322 -35.4277 -35.4274 -35.4062 -35.4024
   -35.3988 -35.3954 -35.3886 -35.3792 -35.3750 -35.3660 -35.3652 -35.3604
   -35.3592 -35.3588 -35.3560 -35.3410 -35.3203 -31.2617 -31.2500 -31.2462
   -31.2320 -31.2236 -31.2152 -31.2010 -31.1959 -31.1923 -31.1914 -31.1894
   -31.1843 -31.1824 -31.1782 -31.1771 -31.1683 -31.1682 -31.1645 -31.1598
   -31.1590 -31.1437 -31.1426 -31.1419 -31.1386 -31.1327 -31.1148 -31.1001
     6.1529   6.2137   7.5190   7.5463   7.5471   7.5655   7.5995   7.6127
     7.6135   7.6403   8.2990   8.3106   8.3395   8.3417   8.3427   8.3635
     8.3915   8.4017   8.4575   8.4630   8.4651   8.4811   8.4831   8.4882
     8.5207   8.5231   8.6883   8.7135   8.7428   8.7988   8.9335   8.9444
     8.9694   8.9732   8.9757   8.9834   8.9962   8.9997   9.0117   9.0249
     9.0319   9.0404   9.0426   9.0503   9.0696   9.0961   9.1944   9.2152
     9.2188   9.2370   9.2432   9.2627   9.2659   9.2664   9.2745   9.2770
     9.2828   9.2885   9.2899   9.2973   9.3004   9.3103   9.4107   9.4160
     9.4221   9.4288   9.4294   9.4399   9.4443   9.4551   9.4594   9.4735
     9.4830   9.4880   9.5095   9.5122   9.5199   9.5476   9.6110   9.6955
     9.7689   9.7824   9.7930   9.8004   9.8199   9.8273   9.8304   9.8421
     9.8720   9.8766   9.8785   9.8808   9.8822   9.8869   9.8894   9.8913
    10.0535  10.0554  10.0628  10.0643  10.1376  10.1443  10.1468  10.1607
    10.1676  10.1781  10.1824  10.1952  10.2024  10.2193  10.3532  10.3680
    10.3713  10.3808  10.3921  10.4102  10.4191  10.4260  10.4567  10.5299
    10.5843  10.5987  10.6061  10.6063  10.6161  10.6173  10.6271  10.6541
    10.6771  10.6882  10.7240  10.7443  10.7834  10.7847  10.8487  10.8659
    10.9152  10.9443  10.9614  10.9926  11.0039  11.0278  11.0470  11.0555
    11.0888  11.0900  11.1041  11.1428  11.1640  11.1871  11.1927  11.2211
    11.2271  11.2425  11.2491  11.2575  11.2605  11.2628  11.2685  11.2690
    11.2725  11.2734  11.2827  11.2840  11.2862  11.2877  11.3014  11.3109
    11.3171  11.3222  11.3238  11.3277  11.5102  11.5743  11.7079  11.7091
    11.7149  11.7153  11.7163  11.7196  11.7216  11.7333  11.7391  11.7433
    11.7569  11.7655  11.7762  11.7905  11.8105  11.8167  11.8448  11.9263
    11.9761  11.9771  11.9978  12.0215  12.0277  12.0401  12.0652  12.0973
    12.1405  12.1674  12.2112  12.2376  12.2495  12.2511  12.2808  12.3970
    12.4241  12.4312  12.4485  12.4543  12.4592  12.4825  12.4837  12.4877
    12.5057  12.5112  12.5226  12.5482  12.5499  12.5844  12.5888  12.6484
    12.6575  12.6626  12.7052  12.7551  12.7909  12.8108  12.8374  12.8712
    12.9293  12.9611  13.0035  13.0413  13.1619  13.1782  13.1880  13.1947
    13.2592  13.2832  13.3144  13.4662  13.4928  13.5330  13.7001  13.7409
    13.7757  13.9126  14.0252  14.0677  14.1282  14.1636  14.3597  14.4941
    14.7108  14.7860  14.8920  14.9350  14.9880  14.9994  15.0803  15.1314
    15.1315  15.1547  15.1886  15.2087  15.2707  15.4020  15.4344  15.4729
    15.5561  15.7002  15.7627  15.8076  15.8789  15.9713  15.9815  15.9990
    16.0110  16.0750  16.1301  16.1420  16.1440  16.1692  16.1883  16.2044
    16.2127  16.2274  16.2319  16.2411  16.2703  16.2896  16.3133  16.3301
    16.3494  16.4927  16.5104  16.5832  16.6419  16.6738  16.7537  16.7561
    16.7974  16.9019  17.3075  17.3807  17.3843  17.4367  17.4867  17.5493
    17.5569  17.5734  17.6693  17.6994  17.7374  17.7920  17.8351  17.8591
    17.8767  17.9051  18.0747  18.1344  18.2461  18.2642  18.2712  18.3126

          k = 0.0000-0.5000 0.0000 ( 31722 PWs)   bands (ev):

   -66.7441 -66.7331 -66.6988 -66.6879 -66.6510 -66.6454 -66.6269 -66.6139
   -66.6109 -62.4230 -62.3981 -62.3661 -62.3601 -62.3525 -62.3415 -62.3303
   -62.3251 -62.2923 -35.5173 -35.4857 -35.4848 -35.4793 -35.4768 -35.4670
   -35.4587 -35.4545 -35.4447 -35.4322 -35.4277 -35.4274 -35.4061 -35.4024
   -35.3988 -35.3954 -35.3886 -35.3791 -35.3750 -35.3660 -35.3652 -35.3604
   -35.3592 -35.3588 -35.3560 -35.3410 -35.3203 -31.2618 -31.2502 -31.2459
   -31.2320 -31.2236 -31.2152 -31.2011 -31.1959 -31.1923 -31.1915 -31.1894
   -31.1843 -31.1824 -31.1782 -31.1771 -31.1683 -31.1681 -31.1645 -31.1598
   -31.1590 -31.1437 -31.1426 -31.1419 -31.1386 -31.1327 -31.1148 -31.1001
     6.0353   6.0463   7.4012   7.4287   7.4670   7.4871   7.6697   7.6786
     8.1044   8.1164   8.1323   8.1612   8.1821   8.2317   8.2646   8.2800
     8.3902   8.4206   8.4597   8.4790   8.6088   8.6230   8.6446   8.6580
     8.6739   8.6747   8.6818   8.6975   8.7654   8.8062   8.8260   8.8323
     8.8337   8.8590   8.8738   8.8881   8.8998   8.9064   8.9122   8.9244
     8.9246   8.9290   8.9387   8.9538   9.0438   9.0508   9.1531   9.1649
     9.1856   9.2000   9.2136   9.2196   9.2379   9.2489   9.3142   9.3197
     9.3297   9.3874   9.3946   9.4117   9.4689   9.4712   9.4902   9.5054
     9.5458   9.5489   9.5532   9.5578   9.5745   9.5952   9.6042   9.6141
     9.6142   9.6246   9.6319   9.6347   9.6351   9.6389   9.6452   9.6499
     9.6596   9.6737   9.6775   9.6843   9.6927   9.7000   9.7136   9.7313
     9.7393   9.7605   9.7617   9.7775   9.8932   9.8983   9.9074   9.9753
    10.0173  10.0245  10.1688  10.1760  10.2054  10.2135  10.2421  10.2471
    10.2611  10.2720  10.2784  10.2801  10.2805  10.2849  10.3359  10.3549
    10.3730  10.3775  10.3835  10.3920  10.4241  10.4401  10.4658  10.4819
    10.4820  10.4925  10.5120  10.5478  10.5583  10.5691  10.5764  10.5898
    10.6172  10.6474  10.6754  10.6985  10.7131  10.7169  10.7368  10.7633
    10.8065  10.8233  10.8370  10.8415  10.8552  10.8663  10.9097  10.9453
    10.9484  10.9941  11.0194  11.0289  11.0394  11.0826  11.1665  11.1845
    11.2970  11.3221  11.3421  11.3477  11.3593  11.3672  11.3782  11.4040
    11.4123  11.4457  11.4695  11.4895  11.4926  11.5287  11.5652  11.5814
    11.5876  11.6034  11.6150  11.6154  11.6441  11.6742  11.6760  11.7480
    11.7722  11.7887  11.8025  11.8185  11.8319  11.8396  11.8579  11.8589
    11.8621  11.8694  11.8718  11.9029  11.9283  11.9486  11.9611  11.9634
    11.9749  11.9798  11.9826  12.0128  12.0228  12.1229  12.1462  12.1591
    12.1769  12.2125  12.2248  12.2298  12.2384  12.2458  12.2725  12.2863
    12.2866  12.2975  12.2985  12.3227  12.3889  12.4015  12.4056  12.4194
    12.4551  12.4668  12.4845  12.5116  12.5138  12.5386  12.5456  12.5535
    12.5840  12.5860  12.6018  12.6325  12.6402  12.6978  12.7163  12.7962
    12.8481  12.8791  13.0047  13.0253  13.0537  13.0558  13.0938  13.1107
    13.1543  13.1958  13.2257  13.2376  13.2893  13.2977  13.3376  13.3867
    13.4469  13.5013  13.5046  13.6808  13.7122  14.2899  14.4185  14.5977
    14.6760  14.7499  14.7798  14.7851  14.8368  14.8963  14.9516  14.9689
    15.0095  15.1008  15.1402  15.3116  15.3436  15.3810  15.5430  15.6121
    15.6642  15.7091  15.7919  15.8487  15.8678  15.9255  15.9433  15.9785
    16.0438  16.0453  16.0682  16.1004  16.1211  16.1212  16.1488  16.1693
    16.1975  16.2034  16.2275  16.2523  16.2679  16.2806  16.3630  16.3844
    16.4596  16.4759  16.5731  16.6518  16.6890  16.7725  16.9917  17.0784
    17.1470  17.1943  17.2533  17.3767  17.4382  17.4912  17.6209  17.6323
    17.7018  17.7469  17.7924  17.8161  17.8318  17.8927  17.9195  17.9428
    18.0370  18.0455  18.1257  18.2456  19.2551  19.2923  19.3079  19.3709

          k = 0.0000-0.5000-0.5734 ( 31696 PWs)   bands (ev):

   -66.7441 -66.7331 -66.6988 -66.6879 -66.6510 -66.6454 -66.6269 -66.6139
   -66.6109 -62.4230 -62.3981 -62.3661 -62.3601 -62.3525 -62.3415 -62.3303
   -62.3251 -62.2923 -35.5173 -35.4857 -35.4848 -35.4793 -35.4768 -35.4670
   -35.4587 -35.4545 -35.4447 -35.4322 -35.4277 -35.4274 -35.4061 -35.4024
   -35.3988 -35.3954 -35.3886 -35.3791 -35.3750 -35.3660 -35.3652 -35.3604
   -35.3592 -35.3588 -35.3560 -35.3410 -35.3203 -31.2618 -31.2502 -31.2459
   -31.2320 -31.2236 -31.2152 -31.2011 -31.1959 -31.1923 -31.1915 -31.1894
   -31.1843 -31.1824 -31.1782 -31.1771 -31.1683 -31.1681 -31.1645 -31.1598
   -31.1590 -31.1437 -31.1426 -31.1419 -31.1386 -31.1327 -31.1148 -31.1001
     6.5429   6.5623   6.6073   6.6130   7.8246   7.8501   7.8754   7.8858
     7.8910   7.8961   7.9374   7.9468   8.2643   8.2776   8.2965   8.3042
     8.5038   8.5206   8.5356   8.5377   8.6513   8.6545   8.6600   8.6856
     8.6909   8.6990   8.7034   8.7136   8.7174   8.7293   8.7337   8.7540
     8.7645   8.7820   8.7921   8.8149   8.9645   8.9858   9.0217   9.0259
     9.0378   9.0379   9.0469   9.0731   9.1984   9.2074   9.2099   9.2137
     9.2175   9.2187   9.2194   9.2261   9.2361   9.2467   9.2644   9.2660
     9.2722   9.2749   9.2857   9.2871   9.3127   9.3161   9.3786   9.3995
     9.4210   9.4227   9.4273   9.4563   9.4575   9.4648   9.4766   9.4775
     9.4840   9.4886   9.5094   9.5193   9.5325   9.5338   9.5461   9.5621
     9.5719   9.6046   9.7518   9.7593   9.7785   9.7864   9.8133   9.8192
     9.8306   9.8339   9.8449   9.8528   9.8573   9.8580   9.8658   9.8868
     9.9622   9.9749   9.9780   9.9997  10.0260  10.0410  10.0559  10.0586
    10.3621  10.3867  10.4003  10.4005  10.4064  10.4107  10.4256  10.4555
    10.4584  10.4666  10.4769  10.4791  10.4883  10.4899  10.5011  10.5140
    10.5308  10.5340  10.5676  10.5719  10.5878  10.5930  10.6071  10.6172
    10.6210  10.6236  10.6697  10.6698  10.6735  10.6976  10.7106  10.7287
    10.7601  10.8302  10.8836  10.9119  10.9728  10.9962  11.0390  11.0770
    11.1160  11.1307  11.1359  11.1533  11.1680  11.1683  11.1958  11.2084
    11.2097  11.2141  11.2875  11.3194  11.3291  11.3584  11.3625  11.3626
    11.3694  11.3701  11.3768  11.4165  11.4345  11.4834  11.4960  11.5153
    11.5240  11.5456  11.5644  11.5751  11.5859  11.5906  11.6000  11.6234
    11.6370  11.6407  11.7042  11.7167  11.7465  11.7619  11.7942  11.8536
    11.9084  11.9148  11.9310  11.9420  11.9534  11.9662  11.9981  12.0059
    12.0116  12.0316  12.0365  12.0384  12.0431  12.0787  12.1139  12.1148
    12.1355  12.1539  12.1756  12.2223  12.2344  12.2548  12.2923  12.3226
    12.3282  12.4049  12.4241  12.4273  12.4410  12.4621  12.4749  12.4917
    12.4991  12.5244  12.5338  12.5496  12.5544  12.5678  12.5773  12.5835
    12.5981  12.5999  12.6351  12.6543  12.7106  12.7415  12.7645  12.8246
    12.8248  12.8701  12.9230  12.9233  13.0181  13.0262  13.0534  13.0670
    13.0928  13.2464  13.3983  13.5324  13.6211  13.6534  13.7233  13.8037
    13.8567  13.8847  14.0001  14.0730  14.1732  14.2070  14.2264  14.3864
    14.4862  14.5207  14.5241  14.5665  14.5669  14.6739  14.7326  15.0374
    15.0762  15.1809  15.3218  15.3300  15.3461  15.3897  15.4618  15.5696
    15.6978  15.7620  15.8313  15.8598  15.8600  15.9308  15.9309  16.0275
    16.0396  16.1056  16.1264  16.1266  16.1550  16.1909  16.2217  16.2488
    16.2585  16.2799  16.2938  16.3073  16.3096  16.3526  16.3981  16.4001
    16.5079  16.5424  16.5475  16.5830  16.6071  16.6319  16.6870  16.7247
    16.7541  16.7632  16.8041  16.8668  16.8807  16.9161  16.9448  17.0678
    17.1009  17.1134  17.1453  17.2810  18.5772  18.6715  18.7401  18.7435
    18.7746  18.8057  18.8464  18.8502  18.8737  18.9498  18.9499  18.9803

          k =-0.5000-0.5000 0.0000 ( 31612 PWs)   bands (ev):

   -66.7441 -66.7331 -66.6988 -66.6879 -66.6510 -66.6454 -66.6269 -66.6139
   -66.6109 -62.4230 -62.3981 -62.3661 -62.3601 -62.3525 -62.3415 -62.3303
   -62.3251 -62.2923 -35.5173 -35.4857 -35.4848 -35.4793 -35.4768 -35.4670
   -35.4587 -35.4545 -35.4447 -35.4322 -35.4277 -35.4274 -35.4061 -35.4024
   -35.3988 -35.3954 -35.3886 -35.3791 -35.3750 -35.3660 -35.3652 -35.3604
   -35.3592 -35.3588 -35.3560 -35.3410 -35.3203 -31.2618 -31.2502 -31.2459
   -31.2320 -31.2236 -31.2152 -31.2011 -31.1959 -31.1923 -31.1915 -31.1894
   -31.1843 -31.1824 -31.1782 -31.1771 -31.1683 -31.1681 -31.1645 -31.1598
   -31.1590 -31.1437 -31.1426 -31.1419 -31.1386 -31.1327 -31.1148 -31.1001
     6.3916   6.4326   6.4494   6.4814   8.0031   8.0096   8.0182   8.0290
     8.0859   8.1209   8.2772   8.3170   8.3238   8.3301   8.3350   8.3398
     8.3440   8.3477   8.3552   8.3724   8.3773   8.4006   8.5745   8.6109
     8.6351   8.6375   8.6955   8.6990   8.7079   8.7105   8.7312   8.7424
     8.7680   8.7979   8.9139   8.9411   8.9508   8.9695   8.9739   8.9753
     8.9804   8.9829   8.9980   9.0100   9.0179   9.0200   9.0338   9.0439
     9.1085   9.1342   9.3055   9.3086   9.3145   9.3231   9.3984   9.4053
     9.4101   9.4108   9.4139   9.4273   9.4341   9.4366   9.4382   9.4524
     9.4548   9.4611   9.4702   9.4766   9.4839   9.4966   9.5033   9.5097
     9.5258   9.5324   9.5395   9.5442   9.5444   9.5772   9.5784   9.5865
     9.6054   9.6068   9.6947   9.6968   9.7603   9.8059   9.8096   9.8254
     9.8293   9.8320   9.8366   9.8367   9.8557   9.8782  10.0058  10.0642
    10.0708  10.0980  10.1104  10.1308  10.1477  10.1516  10.1579  10.1691
    10.1733  10.1875  10.1980  10.2094  10.2198  10.2208  10.2300  10.2337
    10.2338  10.2354  10.2403  10.2510  10.4381  10.4697  10.4724  10.4798
    10.4939  10.4969  10.5044  10.5465  10.5653  10.6147  10.6526  10.6553
    10.6583  10.6661  10.6720  10.6940  10.6943  10.6966  10.7038  10.7105
    10.7403  10.7823  10.7939  10.8103  10.8245  10.8466  10.8574  10.8706
    10.9047  10.9165  11.1942  11.2053  11.2162  11.2227  11.2958  11.3257
    11.3296  11.3473  11.3557  11.3677  11.3746  11.3934  11.5508  11.5617
    11.6083  11.6273  11.6352  11.6384  11.6420  11.6442  11.6496  11.6519
    11.6632  11.6775  11.6819  11.7147  11.7229  11.7343  11.7437  11.8642
    11.8682  11.8743  11.8772  11.8808  11.8810  11.8881  11.9739  12.0043
    12.0130  12.0232  12.0553  12.0827  12.0957  12.0998  12.1055  12.1073
    12.1089  12.1129  12.1225  12.1330  12.1367  12.1529  12.1545  12.1571
    12.1693  12.1759  12.2042  12.2093  12.2177  12.2312  12.2364  12.2366
    12.2688  12.2712  12.2803  12.2849  12.2960  12.3066  12.3091  12.3320
    12.3370  12.3809  12.3858  12.4307  12.4651  12.4707  12.5004  12.5140
    12.5325  12.5622  12.5854  12.6123  12.6472  12.6627  12.6744  12.7168
    12.7284  12.7335  12.8126  12.8428  12.8765  12.9224  12.9528  12.9606
    12.9717  12.9736  12.9845  13.0465  13.1265  13.6031  13.6647  13.6706
    13.6754  13.6961  13.8542  13.8781  13.9116  13.9279  14.1689  14.1712
    14.2368  14.3200  14.3399  14.3849  14.4524  14.4891  14.7632  14.8693
    15.0616  15.1607  15.1660  15.2285  15.3558  15.3934  15.6733  15.7252
    15.7753  15.7817  15.8024  15.8471  15.8785  15.9372  15.9412  15.9715
    15.9891  16.0228  16.0763  16.1136  16.1459  16.1672  16.1701  16.1788
    16.1981  16.2432  16.2707  16.3187  16.3374  16.3660  16.4263  16.4886
    16.5281  16.5288  16.5729  16.6079  16.6768  16.6769  16.7319  16.7389
    16.7936  16.8547  16.8907  16.9324  17.3821  17.3909  17.5865  17.9874
    18.1401  18.1549  18.2015  18.2115  18.2431  18.4411  18.5021  18.5475
    18.5849  18.6253  18.6516  18.6678  18.7101  18.7799  18.8001  18.8047

          k =-0.5000-0.5000-0.5734 ( 31672 PWs)   bands (ev):

   -66.7441 -66.7331 -66.6988 -66.6879 -66.6510 -66.6454 -66.6269 -66.6139
   -66.6109 -62.4230 -62.3981 -62.3661 -62.3601 -62.3525 -62.3415 -62.3303
   -62.3251 -62.2923 -35.5173 -35.4857 -35.4848 -35.4793 -35.4768 -35.4670
   -35.4587 -35.4545 -35.4447 -35.4322 -35.4277 -35.4274 -35.4061 -35.4024
   -35.3988 -35.3954 -35.3886 -35.3791 -35.3750 -35.3660 -35.3652 -35.3604
   -35.3592 -35.3588 -35.3560 -35.3410 -35.3203 -31.2618 -31.2502 -31.2459
   -31.2320 -31.2236 -31.2152 -31.2011 -31.1959 -31.1923 -31.1915 -31.1894
   -31.1843 -31.1824 -31.1782 -31.1771 -31.1683 -31.1681 -31.1645 -31.1598
   -31.1590 -31.1437 -31.1426 -31.1419 -31.1386 -31.1327 -31.1148 -31.1001
     6.8689   6.9142   6.9408   6.9692   6.9797   6.9934   7.0242   7.0469
     8.4410   8.4646   8.4661   8.4791   8.4851   8.4875   8.4905   8.4947
     8.4956   8.4983   8.5086   8.5307   8.5349   8.5349   8.5511   8.5569
     8.5632   8.5851   8.5945   8.6183   8.8689   8.8711   8.8771   8.8994
     8.9146   8.9263   8.9301   8.9460   9.0750   9.0995   9.1126   9.1198
     9.1328   9.1434   9.1435   9.1455   9.1474   9.1507   9.1554   9.1585
     9.1612   9.1623   9.1635   9.1710   9.1710   9.1750   9.1765   9.1831
     9.1832   9.1846   9.1860   9.1910   9.1958   9.2062   9.2100   9.2214
     9.2266   9.2341   9.2398   9.2469   9.2529   9.2705   9.2765   9.2858
     9.5358   9.5454   9.5517   9.5668   9.5861   9.6040   9.6108   9.6295
     9.6444   9.6601   9.6951   9.7020   9.7108   9.7169   9.7570   9.7815
     9.8035   9.8294   9.8478   9.8632   9.8640   9.8766   9.8865   9.8980
    10.1094  10.1386  10.1443  10.1452  10.1650  10.1712  10.1744  10.1994
    10.2777  10.3190  10.4340  10.4440  10.4574  10.4622  10.4780  10.4814
    10.4829  10.4967  10.4997  10.5013  10.5081  10.5103  10.5111  10.5185
    10.5230  10.5274  10.5295  10.5314  10.5613  10.5666  10.5918  10.5987
    10.6101  10.6314  10.6393  10.6446  10.6479  10.6487  10.6532  10.6620
    10.6685  10.6835  10.6935  10.7022  10.7519  10.7528  11.0221  11.0450
    11.0457  11.0631  11.0964  11.1074  11.1436  11.1479  11.3721  11.3759
    11.3840  11.4077  11.4246  11.4358  11.4368  11.4415  11.4537  11.4632
    11.4798  11.4915  11.5051  11.5078  11.5296  11.5452  11.5842  11.6230
    11.6256  11.6392  11.6418  11.6441  11.6526  11.6782  11.7045  11.7183
    11.7196  11.7310  11.7377  11.7636  11.7706  11.7824  11.7883  11.7884
    11.7984  11.8004  11.8208  11.8250  11.8376  11.9667  11.9948  12.0199
    12.0217  12.0608  12.0804  12.0937  12.1130  12.1210  12.1401  12.1665
    12.1825  12.1920  12.2162  12.2290  12.2376  12.2631  12.2640  12.3406
    12.3443  12.3617  12.3823  12.3973  12.4239  12.4305  12.4417  12.4474
    12.4644  12.4932  12.4959  12.5184  12.5252  12.5453  12.5849  12.5864
    12.6339  12.6559  12.7023  12.7077  12.7400  12.7676  12.8041  12.8090
    12.9113  12.9633  12.9908  13.0202  13.0967  13.1451  13.1798  13.1868
    13.2019  13.2779  13.2788  13.3302  13.4390  13.4755  13.4768  13.5455
    13.5529  13.6123  13.6584  13.8129  13.9393  13.9826  14.0237  14.1963
    14.2495  14.3226  14.4892  14.5186  14.7515  14.7600  14.9543  14.9767
    15.0187  15.0659  15.1518  15.1923  15.4183  15.5852  15.6250  15.6791
    15.7245  15.7926  15.8068  15.8294  15.8791  15.8975  15.9109  15.9522
    16.0524  16.0802  16.0957  16.1646  16.1928  16.2292  16.2404  16.2424
    16.2587  16.2638  16.2735  16.3235  16.3729  16.4706  16.4723  16.4867
    16.5451  16.5504  16.5569  16.5933  16.6357  16.6632  16.7138  16.7361
    16.7655  16.7869  16.8481  16.8653  16.8797  16.9129  16.9780  17.0011
    17.0311  17.1286  17.5517  17.7461  17.9051  17.9422  19.0024  19.0162
    19.0425  19.0699  19.0979  19.1026  19.1826  19.1921  19.2298  19.3243

          k =-0.5000 0.0000 0.0000 ( 31722 PWs)   bands (ev):

   -66.7441 -66.7331 -66.6988 -66.6879 -66.6510 -66.6454 -66.6269 -66.6139
   -66.6109 -62.4230 -62.3981 -62.3661 -62.3601 -62.3525 -62.3415 -62.3303
   -62.3251 -62.2923 -35.5173 -35.4857 -35.4848 -35.4793 -35.4768 -35.4670
   -35.4587 -35.4545 -35.4447 -35.4322 -35.4277 -35.4274 -35.4062 -35.4024
   -35.3988 -35.3954 -35.3886 -35.3792 -35.3750 -35.3660 -35.3652 -35.3604
   -35.3592 -35.3588 -35.3560 -35.3410 -35.3203 -31.2617 -31.2500 -31.2462
   -31.2320 -31.2236 -31.2152 -31.2010 -31.1959 -31.1923 -31.1914 -31.1894
   -31.1843 -31.1824 -31.1782 -31.1771 -31.1683 -31.1682 -31.1645 -31.1598
   -31.1590 -31.1437 -31.1426 -31.1419 -31.1386 -31.1327 -31.1148 -31.1001
     6.0202   6.0616   7.4079   7.4294   7.4603   7.4865   7.6674   7.6804
     8.0939   8.1136   8.1340   8.1610   8.2084   8.2390   8.2429   8.2797
     8.4034   8.4159   8.4507   8.4737   8.6095   8.6325   8.6433   8.6472
     8.6719   8.6771   8.6945   8.6955   8.7508   8.8113   8.8212   8.8416
     8.8482   8.8527   8.8718   8.8932   8.8988   8.9050   8.9096   8.9138
     8.9222   8.9327   8.9365   8.9572   9.0414   9.0520   9.1557   9.1722
     9.1814   9.1908   9.2166   9.2255   9.2363   9.2527   9.3146   9.3332
     9.3404   9.3516   9.4036   9.4128   9.4670   9.4867   9.4896   9.5043
     9.5357   9.5383   9.5586   9.5661   9.5754   9.5939   9.6029   9.6235
     9.6243   9.6271   9.6274   9.6322   9.6340   9.6361   9.6381   9.6473
     9.6570   9.6690   9.6750   9.6911   9.6919   9.7038   9.7111   9.7315
     9.7378   9.7570   9.7632   9.7814   9.8886   9.9043   9.9127   9.9799
    10.0172  10.0286  10.1465  10.1897  10.2036  10.2247  10.2458  10.2492
    10.2541  10.2621  10.2669  10.2724  10.2862  10.2920  10.3312  10.3518
    10.3708  10.3744  10.3857  10.3883  10.4203  10.4375  10.4582  10.4805
    10.5065  10.5200  10.5229  10.5301  10.5569  10.5710  10.5718  10.5918
    10.6144  10.6429  10.6773  10.6837  10.6899  10.7319  10.7389  10.7521
    10.8037  10.8260  10.8325  10.8495  10.8522  10.8633  10.9156  10.9509
    10.9829  11.0104  11.0161  11.0172  11.0301  11.0773  11.1628  11.1846
    11.2994  11.3441  11.3487  11.3552  11.3769  11.3830  11.3846  11.4006
    11.4183  11.4327  11.4514  11.4624  11.4874  11.5340  11.5505  11.5523
    11.5609  11.5919  11.6250  11.6300  11.6415  11.6739  11.6859  11.7480
    11.7619  11.7800  11.7879  11.7906  11.8154  11.8296  11.8539  11.8675
    11.8714  11.9013  11.9096  11.9174  11.9408  11.9532  11.9609  11.9683
    11.9693  11.9807  11.9877  11.9902  12.0402  12.1043  12.1368  12.1655
    12.1840  12.2016  12.2182  12.2365  12.2417  12.2471  12.2603  12.2830
    12.2999  12.3051  12.3203  12.3367  12.3545  12.3892  12.4134  12.4214
    12.4348  12.4619  12.4953  12.4958  12.4990  12.5247  12.5428  12.5636
    12.5662  12.5809  12.6076  12.6236  12.6539  12.7130  12.7197  12.7988
    12.8760  12.8883  13.0530  13.0733  13.0827  13.1025  13.1054  13.1140
    13.1493  13.1698  13.1793  13.2262  13.2821  13.3141  13.3200  13.3794
    13.4109  13.4654  13.4865  13.6584  13.7216  14.4670  14.5138  14.5801
    14.5834  14.7240  14.7332  14.7495  14.8070  14.8112  14.8910  15.0000
    15.0114  15.1141  15.2154  15.3003  15.3733  15.4392  15.5180  15.5383
    15.6562  15.7469  15.7702  15.8061  15.8180  15.8688  15.9684  16.0198
    16.0331  16.0937  16.1050  16.1462  16.1467  16.1583  16.1695  16.1723
    16.1944  16.2335  16.2412  16.2500  16.2907  16.3193  16.3510  16.3672
    16.4591  16.4893  16.5334  16.6125  16.6972  16.7471  17.0344  17.0700
    17.1603  17.1714  17.2478  17.3389  17.3918  17.4466  17.6317  17.6372
    17.6881  17.7397  17.7818  17.8134  17.8392  17.8849  17.9199  17.9720
    17.9728  18.0884  18.1866  18.2401  19.2261  19.2855  19.3430  19.3500

          k =-0.5000 0.0000 0.5734 ( 31696 PWs)   bands (ev):

   -66.7441 -66.7331 -66.6988 -66.6879 -66.6510 -66.6454 -66.6269 -66.6139
   -66.6109 -62.4230 -62.3981 -62.3661 -62.3601 -62.3525 -62.3415 -62.3303
   -62.3251 -62.2923 -35.5173 -35.4857 -35.4848 -35.4793 -35.4768 -35.4670
   -35.4587 -35.4545 -35.4447 -35.4322 -35.4277 -35.4274 -35.4062 -35.4024
   -35.3988 -35.3954 -35.3886 -35.3792 -35.3750 -35.3660 -35.3652 -35.3604
   -35.3592 -35.3588 -35.3560 -35.3410 -35.3203 -31.2617 -31.2500 -31.2462
   -31.2320 -31.2236 -31.2152 -31.2010 -31.1959 -31.1923 -31.1914 -31.1894
   -31.1843 -31.1824 -31.1782 -31.1771 -31.1683 -31.1682 -31.1645 -31.1598
   -31.1590 -31.1437 -31.1426 -31.1419 -31.1386 -31.1327 -31.1148 -31.1001
     6.5146   6.5832   6.5927   6.6384   7.8241   7.8373   7.8695   7.8867
     7.8915   7.9096   7.9267   7.9534   8.2630   8.2788   8.2983   8.3031
     8.5148   8.5241   8.5269   8.5306   8.6520   8.6610   8.6763   8.6827
     8.6898   8.6923   8.7026   8.7085   8.7243   8.7338   8.7461   8.7483
     8.7631   8.7800   8.7878   8.8013   8.9410   9.0093   9.0126   9.0245
     9.0393   9.0521   9.0560   9.0611   9.1791   9.2078   9.2092   9.2203
     9.2204   9.2276   9.2287   9.2402   9.2463   9.2473   9.2557   9.2559
     9.2598   9.2687   9.2737   9.2817   9.2853   9.3456   9.3783   9.4007
     9.4221   9.4253   9.4310   9.4526   9.4549   9.4641   9.4739   9.4802
     9.4859   9.4874   9.5128   9.5307   9.5327   9.5358   9.5551   9.5659
     9.5764   9.6126   9.7513   9.7580   9.7811   9.7981   9.8157   9.8176
     9.8246   9.8306   9.8457   9.8471   9.8515   9.8608   9.8719   9.8809
     9.9362   9.9545  10.0011  10.0171  10.0321  10.0413  10.0492  10.0588
    10.3624  10.3756  10.3920  10.4010  10.4060  10.4163  10.4213  10.4261
    10.4439  10.4701  10.4718  10.4755  10.4854  10.4880  10.5137  10.5140
    10.5294  10.5616  10.5722  10.5778  10.5813  10.5892  10.5906  10.6087
    10.6354  10.6444  10.6698  10.6752  10.6811  10.6979  10.7119  10.7308
    10.7610  10.8328  10.8837  10.9064  10.9869  11.0035  11.0285  11.0337
    11.1189  11.1324  11.1438  11.1450  11.1835  11.1923  11.1949  11.2043
    11.2091  11.2130  11.2768  11.2995  11.3363  11.3427  11.3635  11.3700
    11.3742  11.3772  11.3975  11.4297  11.4477  11.4499  11.4743  11.5339
    11.5524  11.5582  11.5691  11.5694  11.5761  11.5837  11.5915  11.6200
    11.6279  11.6318  11.7277  11.7343  11.7595  11.7632  11.7678  11.8532
    11.8997  11.9078  11.9371  11.9455  11.9544  11.9570  11.9906  12.0048
    12.0093  12.0189  12.0254  12.0351  12.0370  12.0523  12.0601  12.1231
    12.1598  12.1631  12.2200  12.2483  12.2551  12.2740  12.2796  12.3313
    12.3458  12.3640  12.4046  12.4079  12.4356  12.4357  12.4672  12.4712
    12.4716  12.4894  12.5080  12.5248  12.5350  12.5655  12.5721  12.5798
    12.6159  12.6365  12.6562  12.6606  12.6637  12.7559  12.7853  12.8097
    12.9048  12.9386  12.9467  12.9560  13.0418  13.0479  13.0709  13.1039
    13.1894  13.2186  13.3954  13.4244  13.4888  13.6825  13.7096  13.8007
    13.9331  13.9557  13.9903  14.0672  14.0676  14.1267  14.2583  14.3966
    14.4149  14.5331  14.5444  14.5693  14.5706  14.6280  14.8189  15.0430
    15.1474  15.1974  15.2653  15.3251  15.3701  15.4219  15.5330  15.5492
    15.6387  15.6619  15.7073  15.7779  15.9206  15.9727  15.9839  16.0448
    16.0715  16.1083  16.1306  16.1673  16.1697  16.2208  16.2315  16.2463
    16.2594  16.3045  16.3172  16.3275  16.3761  16.4197  16.4342  16.4421
    16.4643  16.5009  16.5532  16.5782  16.5975  16.6020  16.6744  16.7109
    16.7255  16.7387  16.7742  16.8134  16.8705  16.9130  16.9462  17.0667
    17.0749  17.0925  17.1050  17.2898  18.6410  18.6889  18.7270  18.7709
    18.8106  18.8169  18.8419  18.8647  18.8930  18.9012  18.9021  18.9660

 ------ SPIN DOWN ----------


          k = 0.0000 0.0000 0.0000 ( 31747 PWs)   bands (ev):

   -66.7716 -66.7109 -66.6822 -66.6685 -66.6676 -66.6282 -66.6029 -66.5927
   -66.5810 -62.4021 -62.3902 -62.3852 -62.3737 -62.3519 -62.3357 -62.3324
   -62.3252 -62.3032 -35.5312 -35.5194 -35.4911 -35.4762 -35.4642 -35.4599
   -35.4313 -35.4282 -35.4212 -35.4211 -35.4199 -35.4162 -35.4074 -35.3979
   -35.3898 -35.3885 -35.3830 -35.3630 -35.3578 -35.3542 -35.3455 -35.3420
   -35.3360 -35.3281 -35.3183 -35.3111 -35.3054 -31.2419 -31.2389 -31.2343
   -31.2264 -31.2207 -31.2194 -31.2152 -31.2064 -31.1985 -31.1933 -31.1885
   -31.1878 -31.1872 -31.1791 -31.1773 -31.1765 -31.1627 -31.1595 -31.1578
   -31.1573 -31.1507 -31.1502 -31.1464 -31.1370 -31.1312 -31.1270 -31.1198
     5.6165   7.1423   7.1634   7.1944   7.2171   7.3652   7.8551   7.8850
     7.9104   7.9547   8.0798   8.1093   8.1457   8.1592   8.1913   8.2492
     8.2753   8.2799   8.3075   8.5257   8.5444   8.5684   8.5724   8.5783
     8.6245   8.8554   8.8604   8.8740   8.8797   8.8871   8.8977   8.8982
     8.9039   8.9094   8.9160   8.9195   8.9308   8.9478   8.9541   8.9695
     8.9879   9.0840   9.1200   9.1244   9.1276   9.1335   9.1574   9.1627
     9.1859   9.1958   9.2138   9.2692   9.2816   9.3017   9.3072   9.3468
     9.3502   9.3623   9.3731   9.3800   9.3821   9.3962   9.4200   9.4275
     9.4410   9.4447   9.4488   9.4631   9.4641   9.4673   9.4902   9.5783
     9.5821   9.5874   9.5932   9.5960   9.6425   9.6456   9.6675   9.6703
     9.6727   9.6769   9.6858   9.7481   9.7593   9.7747   9.7834   9.8500
     9.8504   9.9110   9.9245   9.9338   9.9502   9.9532  10.0002  10.0294
    10.0853  10.1278  10.1531  10.1815  10.2854  10.2919  10.2949  10.2965
    10.3051  10.3102  10.3105  10.3142  10.3245  10.3262  10.3389  10.3422
    10.3488  10.3507  10.3592  10.3604  10.3617  10.3633  10.3831  10.3840
    10.3928  10.5113  10.5118  10.5580  10.5882  10.6084  10.6386  10.6890
    10.7057  10.7838  10.7867  10.7901  10.8066  10.8124  10.8256  10.8485
    10.8522  10.8677  10.8733  10.8756  10.8760  10.8806  10.8975  10.9054
    10.9082  10.9091  11.0207  11.0551  11.0577  11.0927  11.2036  11.2155
    11.2212  11.2263  11.2306  11.2597  11.2726  11.2921  11.3351  11.3417
    11.3544  11.3812  11.3905  11.3918  11.4032  11.4077  11.4258  11.4279
    11.4966  11.5065  11.5693  11.5872  11.5904  11.5936  11.5960  11.5980
    11.6217  11.6282  11.6675  11.7240  11.7326  11.7430  11.7515  11.7957
    11.8213  11.8347  11.8415  11.8671  11.8704  11.9180  11.9339  11.9480
    11.9636  11.9888  12.0975  12.0979  12.1012  12.1032  12.1061  12.1062
    12.1408  12.1440  12.1462  12.1475  12.1503  12.1690  12.2000  12.2349
    12.2572  12.2965  12.3334  12.3592  12.3716  12.3731  12.3948  12.3979
    12.4339  12.4357  12.4631  12.4932  12.5025  12.5043  12.5115  12.5416
    12.5519  12.5621  12.5754  12.5896  12.6145  12.6259  12.6580  12.6992
    12.7159  12.7312  12.7651  12.8010  12.9653  13.0169  13.0407  13.1170
    13.1326  13.1460  13.1593  13.1649  13.4090  13.6350  13.7318  13.7944
    13.8391  14.0661  14.1237  14.2151  14.2252  14.3783  14.3824  14.4946
    14.7739  14.8894  14.9084  15.0383  15.1002  15.1411  15.1754  15.2149
    15.2631  15.2703  15.3225  15.3507  15.3819  15.4931  15.5017  15.5532
    15.5805  15.6946  15.7535  15.8305  15.8474  15.8789  15.9829  16.0175
    16.0569  16.0888  16.1218  16.1376  16.1465  16.1623  16.1652  16.1902
    16.1909  16.2217  16.2372  16.2771  16.3275  16.3539  16.3953  16.4252
    16.4493  16.4744  16.5389  16.5880  16.6597  16.6607  16.8545  16.8700
    16.9541  17.0328  17.1653  17.1763  17.2027  17.2534  17.3168  17.3720
    17.3984  17.4925  17.8424  17.8972  17.9384  17.9466  17.9684  18.0432
    18.1282  18.3428  18.4513  18.9579  18.9964  19.0613  19.1201  19.2213

          k = 0.0000 0.0000-0.5734 ( 31692 PWs)   bands (ev):

   -66.7716 -66.7109 -66.6822 -66.6685 -66.6676 -66.6282 -66.6029 -66.5927
   -66.5810 -62.4021 -62.3902 -62.3852 -62.3737 -62.3519 -62.3357 -62.3324
   -62.3252 -62.3032 -35.5312 -35.5194 -35.4911 -35.4762 -35.4642 -35.4599
   -35.4313 -35.4282 -35.4212 -35.4211 -35.4199 -35.4162 -35.4074 -35.3979
   -35.3898 -35.3885 -35.3830 -35.3630 -35.3578 -35.3542 -35.3455 -35.3420
   -35.3360 -35.3281 -35.3183 -35.3111 -35.3054 -31.2419 -31.2389 -31.2343
   -31.2264 -31.2207 -31.2194 -31.2152 -31.2064 -31.1985 -31.1933 -31.1885
   -31.1878 -31.1872 -31.1791 -31.1773 -31.1765 -31.1627 -31.1595 -31.1578
   -31.1573 -31.1507 -31.1502 -31.1464 -31.1370 -31.1312 -31.1270 -31.1198
     6.1584   6.2143   7.5251   7.5462   7.5545   7.5687   7.6015   7.6166
     7.6217   7.6332   8.3056   8.3111   8.3307   8.3522   8.3527   8.3676
     8.3841   8.4099   8.4578   8.4596   8.4775   8.4840   8.4865   8.4959
     8.5122   8.5216   8.6913   8.7154   8.7469   8.7999   8.9420   8.9480
     8.9721   8.9758   8.9780   8.9834   8.9963   9.0009   9.0166   9.0243
     9.0384   9.0391   9.0464   9.0502   9.0730   9.0933   9.1961   9.2184
     9.2223   9.2325   9.2510   9.2628   9.2644   9.2709   9.2781   9.2816
     9.2837   9.2860   9.2896   9.2985   9.3037   9.3082   9.4086   9.4109
     9.4292   9.4359   9.4423   9.4427   9.4483   9.4584   9.4639   9.4687
     9.4833   9.4902   9.5065   9.5111   9.5193   9.5470   9.6170   9.6959
     9.7703   9.7816   9.7980   9.8019   9.8228   9.8305   9.8306   9.8450
     9.8744   9.8755   9.8787   9.8792   9.8875   9.8880   9.8910   9.8950
    10.0569  10.0586  10.0621  10.0636  10.1382  10.1480  10.1518  10.1629
    10.1660  10.1741  10.1872  10.1963  10.2109  10.2159  10.3557  10.3681
    10.3704  10.3878  10.4039  10.4072  10.4150  10.4313  10.4588  10.5292
    10.5799  10.5810  10.6125  10.6140  10.6189  10.6354  10.6374  10.6793
    10.6845  10.6887  10.7354  10.7511  10.7670  10.7677  10.8313  10.8702
    10.9186  10.9462  10.9857  11.0099  11.0236  11.0263  11.0428  11.0586
    11.0819  11.0911  11.1352  11.1358  11.1417  11.1601  11.2090  11.2214
    11.2261  11.2435  11.2502  11.2540  11.2608  11.2666  11.2684  11.2712
    11.2754  11.2802  11.2816  11.2827  11.2905  11.2935  11.3060  11.3142
    11.3196  11.3198  11.3213  11.3252  11.5186  11.5864  11.7092  11.7127
    11.7148  11.7154  11.7217  11.7230  11.7278  11.7324  11.7370  11.7444
    11.7564  11.7644  11.7777  11.7954  11.8108  11.8299  11.8437  11.9266
    11.9689  11.9765  12.0010  12.0028  12.0146  12.0738  12.0741  12.1186
    12.1657  12.1678  12.2253  12.2282  12.2471  12.2474  12.3025  12.3791
    12.4157  12.4431  12.4454  12.4592  12.4755  12.4803  12.4951  12.5096
    12.5184  12.5303  12.5477  12.5502  12.5676  12.5885  12.6235  12.6378
    12.6594  12.6853  12.7251  12.7580  12.7800  12.8265  12.8651  12.8749
    12.9210  12.9477  12.9983  13.0405  13.1669  13.1763  13.2164  13.2189
    13.2509  13.2599  13.3564  13.4175  13.5124  13.5416  13.7475  13.7779
    13.7803  13.9144  14.0466  14.0658  14.1280  14.1369  14.2932  14.4729
    14.7273  14.8867  14.9112  14.9338  14.9670  15.0143  15.0572  15.0860
    15.1326  15.1559  15.2150  15.2987  15.3433  15.3634  15.4525  15.4773
    15.5024  15.6750  15.6999  15.7686  15.8034  15.9264  16.0526  16.0658
    16.0741  16.0779  16.1095  16.1251  16.1518  16.1650  16.1951  16.2107
    16.2222  16.2356  16.2491  16.2550  16.2694  16.2804  16.2948  16.2984
    16.3532  16.4949  16.5088  16.6172  16.6290  16.6606  16.7252  16.7484
    16.8333  16.8875  17.2849  17.3851  17.3968  17.4070  17.4824  17.5285
    17.5690  17.6146  17.6477  17.7160  17.7603  17.7777  17.8062  17.8851
    17.8978  17.8985  18.1084  18.1151  18.2393  18.2725  18.2912  18.3044

          k = 0.0000-0.5000 0.0000 ( 31722 PWs)   bands (ev):

   -66.7716 -66.7109 -66.6822 -66.6685 -66.6676 -66.6282 -66.6029 -66.5927
   -66.5810 -62.4021 -62.3902 -62.3852 -62.3737 -62.3519 -62.3357 -62.3324
   -62.3252 -62.3032 -35.5313 -35.5194 -35.4912 -35.4762 -35.4642 -35.4599
   -35.4313 -35.4282 -35.4212 -35.4211 -35.4199 -35.4163 -35.4074 -35.3979
   -35.3898 -35.3885 -35.3830 -35.3630 -35.3578 -35.3542 -35.3455 -35.3420
   -35.3360 -35.3281 -35.3183 -35.3111 -35.3054 -31.2420 -31.2389 -31.2344
   -31.2264 -31.2206 -31.2193 -31.2152 -31.2064 -31.1981 -31.1935 -31.1885
   -31.1878 -31.1872 -31.1792 -31.1773 -31.1765 -31.1627 -31.1595 -31.1578
   -31.1573 -31.1507 -31.1502 -31.1464 -31.1370 -31.1312 -31.1270 -31.1198
     6.0394   6.0489   7.4041   7.4329   7.4698   7.4870   7.6727   7.6811
     8.1067   8.1188   8.1412   8.1660   8.1856   8.2426   8.2624   8.2734
     8.3906   8.4196   8.4666   8.4822   8.6107   8.6265   8.6443   8.6625
     8.6755   8.6774   8.6868   8.7014   8.7661   8.8139   8.8235   8.8327
     8.8401   8.8589   8.8748   8.8883   8.9022   8.9028   8.9066   8.9227
     8.9332   8.9382   8.9414   8.9547   9.0456   9.0522   9.1543   9.1667
     9.1875   9.2058   9.2140   9.2222   9.2404   9.2470   9.3147   9.3182
     9.3374   9.3895   9.4003   9.4123   9.4720   9.4774   9.4827   9.5021
     9.5469   9.5538   9.5554   9.5676   9.5725   9.5960   9.6130   9.6167
     9.6232   9.6261   9.6308   9.6360   9.6383   9.6387   9.6478   9.6510
     9.6522   9.6747   9.6804   9.6865   9.6896   9.7036   9.7135   9.7360
     9.7445   9.7583   9.7589   9.7754   9.8960   9.8997   9.9099   9.9780
    10.0191  10.0274  10.1719  10.1771  10.2091  10.2141  10.2507  10.2542
    10.2648  10.2736  10.2741  10.2808  10.2825  10.2847  10.3425  10.3497
    10.3787  10.3800  10.3843  10.3884  10.4239  10.4396  10.4735  10.4842
    10.4874  10.4989  10.5181  10.5385  10.5604  10.5683  10.5750  10.5934
    10.6213  10.6541  10.6823  10.7013  10.7211  10.7215  10.7371  10.7523
    10.8146  10.8241  10.8388  10.8436  10.8620  10.8681  10.9053  10.9430
    10.9476  11.0025  11.0152  11.0198  11.0474  11.0893  11.1688  11.1875
    11.2843  11.3275  11.3447  11.3497  11.3657  11.3797  11.3907  11.4003
    11.4089  11.4565  11.4827  11.4862  11.5025  11.5215  11.5479  11.5766
    11.6073  11.6120  11.6134  11.6379  11.6421  11.6577  11.6806  11.7479
    11.7663  11.7943  11.8085  11.8182  11.8205  11.8391  11.8543  11.8672
    11.8737  11.8816  11.9012  11.9064  11.9260  11.9454  11.9605  11.9664
    11.9837  11.9874  12.0029  12.0145  12.0216  12.1006  12.1439  12.1759
    12.1887  12.1927  12.2196  12.2254  12.2419  12.2525  12.2652  12.2826
    12.3014  12.3048  12.3422  12.3504  12.3591  12.3944  12.4126  12.4308
    12.4506  12.4808  12.4857  12.5095  12.5522  12.5559  12.5560  12.5670
    12.5821  12.5909  12.6147  12.6409  12.6570  12.7275  12.7469  12.7750
    12.7982  12.9263  12.9505  13.0199  13.0407  13.0779  13.1143  13.1664
    13.1948  13.2088  13.2213  13.2438  13.2457  13.3007  13.3834  13.3992
    13.4507  13.4837  13.5150  13.6853  13.7110  14.2916  14.4863  14.6418
    14.6901  14.7063  14.7123  14.7889  14.8435  14.9045  14.9241  14.9398
    15.0882  15.0910  15.2056  15.2537  15.3343  15.3502  15.5289  15.6414
    15.6784  15.6981  15.8391  15.8521  15.8773  15.8952  15.9548  15.9883
    16.0313  16.0328  16.0450  16.1068  16.1074  16.1408  16.1449  16.1700
    16.1983  16.2164  16.2438  16.2475  16.2756  16.3074  16.3141  16.3302
    16.4274  16.5005  16.5893  16.6509  16.7401  16.7568  16.9573  17.0845
    17.1569  17.1859  17.2483  17.3566  17.4725  17.5174  17.6187  17.6380
    17.7062  17.7744  17.7875  17.7909  17.8149  17.8862  17.9119  17.9399
    18.0433  18.0891  18.1304  18.2247  19.2524  19.2945  19.3202  19.3734

          k = 0.0000-0.5000-0.5734 ( 31696 PWs)   bands (ev):

   -66.7716 -66.7109 -66.6822 -66.6685 -66.6676 -66.6282 -66.6029 -66.5927
   -66.5810 -62.4021 -62.3902 -62.3852 -62.3737 -62.3519 -62.3357 -62.3324
   -62.3252 -62.3032 -35.5313 -35.5194 -35.4912 -35.4762 -35.4642 -35.4599
   -35.4313 -35.4282 -35.4212 -35.4211 -35.4199 -35.4163 -35.4074 -35.3979
   -35.3898 -35.3885 -35.3830 -35.3630 -35.3578 -35.3542 -35.3455 -35.3420
   -35.3360 -35.3281 -35.3183 -35.3111 -35.3054 -31.2420 -31.2389 -31.2344
   -31.2264 -31.2206 -31.2193 -31.2152 -31.2064 -31.1981 -31.1935 -31.1885
   -31.1878 -31.1872 -31.1792 -31.1773 -31.1765 -31.1627 -31.1595 -31.1578
   -31.1573 -31.1507 -31.1502 -31.1464 -31.1370 -31.1312 -31.1270 -31.1198
     6.5542   6.5618   6.6031   6.6186   7.8321   7.8563   7.8705   7.8892
     7.8913   7.9068   7.9405   7.9429   8.2683   8.2782   8.3005   8.3051
     8.5105   8.5280   8.5313   8.5382   8.6578   8.6602   8.6655   8.6901
     8.6905   8.7017   8.7019   8.7142   8.7220   8.7296   8.7390   8.7547
     8.7607   8.7862   8.7907   8.8137   8.9721   8.9863   9.0217   9.0337
     9.0386   9.0392   9.0471   9.0711   9.2021   9.2114   9.2128   9.2186
     9.2214   9.2235   9.2282   9.2349   9.2407   9.2497   9.2517   9.2608
     9.2731   9.2733   9.2894   9.2924   9.3000   9.3212   9.3867   9.3950
     9.4242   9.4316   9.4325   9.4568   9.4579   9.4681   9.4726   9.4797
     9.4880   9.4913   9.5146   9.5215   9.5261   9.5313   9.5508   9.5613
     9.5776   9.5985   9.7538   9.7596   9.7845   9.7887   9.8156   9.8224
     9.8314   9.8314   9.8521   9.8540   9.8543   9.8593   9.8735   9.8862
     9.9665   9.9797   9.9805   9.9975  10.0160  10.0293  10.0667  10.0712
    10.3732  10.3955  10.3975  10.3998  10.4104  10.4132  10.4273  10.4556
    10.4591  10.4706  10.4795  10.4823  10.4927  10.4934  10.5006  10.5228
    10.5307  10.5388  10.5615  10.5715  10.5964  10.5994  10.6173  10.6205
    10.6302  10.6397  10.6624  10.6692  10.6808  10.6888  10.6964  10.7196
    10.7387  10.8330  10.9022  10.9237  10.9748  10.9917  11.0439  11.0928
    11.1177  11.1302  11.1311  11.1535  11.1684  11.1780  11.1905  11.2107
    11.2116  11.2175  11.2914  11.3240  11.3370  11.3596  11.3647  11.3661
    11.3720  11.3729  11.3752  11.4184  11.4349  11.4865  11.4963  11.5115
    11.5148  11.5515  11.5717  11.5778  11.5933  11.5947  11.6021  11.6298
    11.6310  11.6376  11.7096  11.7222  11.7531  11.7575  11.7995  11.8823
    11.9031  11.9147  11.9187  11.9508  11.9661  11.9727  11.9988  11.9993
    12.0202  12.0364  12.0365  12.0397  12.0426  12.0846  12.1025  12.1150
    12.1266  12.1503  12.1860  12.2077  12.2413  12.2532  12.2595  12.3447
    12.3668  12.3826  12.4271  12.4511  12.4665  12.4691  12.4891  12.4921
    12.5023  12.5315  12.5515  12.5765  12.5987  12.6089  12.6222  12.6229
    12.6386  12.6415  12.6547  12.6582  12.7027  12.7029  12.7182  12.7598
    12.8553  12.8750  12.8754  12.9425  13.0152  13.0219  13.0445  13.0779
    13.0876  13.2347  13.4464  13.5495  13.5930  13.6495  13.7727  13.7862
    13.8370  13.9189  14.0316  14.0846  14.1777  14.2073  14.3388  14.3743
    14.3902  14.5172  14.5459  14.5696  14.6428  14.6538  14.6581  15.0350
    15.1814  15.2044  15.2618  15.3221  15.3647  15.3932  15.4703  15.5754
    15.6343  15.7062  15.7241  15.8809  15.9238  15.9803  15.9924  16.0388
    16.0539  16.1108  16.1174  16.1197  16.1522  16.1717  16.1967  16.2013
    16.2522  16.2640  16.2988  16.3122  16.3353  16.3814  16.4151  16.4393
    16.4933  16.5287  16.5604  16.5655  16.6277  16.6316  16.6483  16.7221
    16.7237  16.7635  16.8034  16.8610  16.8696  16.9454  16.9595  17.0548
    17.0665  17.1320  17.1714  17.2808  18.5995  18.7029  18.7219  18.7406
    18.7613  18.7854  18.8604  18.8615  18.8806  18.9421  18.9498  18.9791

          k =-0.5000-0.5000 0.0000 ( 31612 PWs)   bands (ev):

   -66.7716 -66.7109 -66.6822 -66.6685 -66.6676 -66.6282 -66.6029 -66.5927
   -66.5810 -62.4021 -62.3902 -62.3852 -62.3737 -62.3519 -62.3357 -62.3324
   -62.3252 -62.3032 -35.5313 -35.5194 -35.4912 -35.4762 -35.4642 -35.4599
   -35.4313 -35.4282 -35.4212 -35.4211 -35.4199 -35.4163 -35.4074 -35.3979
   -35.3898 -35.3885 -35.3830 -35.3630 -35.3578 -35.3542 -35.3455 -35.3420
   -35.3360 -35.3281 -35.3183 -35.3111 -35.3054 -31.2420 -31.2389 -31.2344
   -31.2264 -31.2206 -31.2193 -31.2152 -31.2064 -31.1981 -31.1935 -31.1885
   -31.1878 -31.1872 -31.1792 -31.1773 -31.1765 -31.1627 -31.1595 -31.1578
   -31.1573 -31.1507 -31.1502 -31.1464 -31.1370 -31.1312 -31.1270 -31.1198
     6.4039   6.4378   6.4454   6.4799   8.0027   8.0183   8.0240   8.0260
     8.0897   8.1255   8.2870   8.3193   8.3250   8.3261   8.3378   8.3414
     8.3460   8.3569   8.3619   8.3736   8.3746   8.3994   8.5848   8.6063
     8.6320   8.6466   8.6961   8.7058   8.7078   8.7183   8.7283   8.7475
     8.7593   8.7960   8.9155   8.9463   8.9529   8.9755   8.9761   8.9802
     8.9832   8.9850   9.0034   9.0126   9.0128   9.0194   9.0346   9.0471
     9.1114   9.1348   9.3012   9.3134   9.3216   9.3223   9.4014   9.4070
     9.4122   9.4178   9.4214   9.4255   9.4354   9.4377   9.4414   9.4524
     9.4610   9.4654   9.4720   9.4835   9.4849   9.5014   9.5026   9.5061
     9.5191   9.5281   9.5379   9.5459   9.5484   9.5692   9.5839   9.5867
     9.6067   9.6128   9.6971   9.6984   9.7666   9.7992   9.8116   9.8324
     9.8328   9.8368   9.8413   9.8466   9.8537   9.8637  10.0363  10.0606
    10.0784  10.0883  10.1026  10.1226  10.1513  10.1560  10.1585  10.1715
    10.1861  10.1924  10.1952  10.2026  10.2246  10.2255  10.2308  10.2335
    10.2343  10.2366  10.2479  10.2573  10.4373  10.4708  10.4744  10.4766
    10.4972  10.5071  10.5084  10.5508  10.6039  10.6257  10.6367  10.6528
    10.6564  10.6601  10.6647  10.6719  10.6923  10.6968  10.7075  10.7160
    10.7276  10.7851  10.8093  10.8131  10.8243  10.8586  10.8624  10.8732
    10.9067  10.9204  11.2003  11.2082  11.2130  11.2229  11.3011  11.3251
    11.3331  11.3499  11.3536  11.3678  11.3812  11.3970  11.5469  11.5649
    11.5867  11.6141  11.6369  11.6419  11.6452  11.6472  11.6505  11.6512
    11.6660  11.6715  11.6827  11.7240  11.7330  11.7484  11.7679  11.8700
    11.8776  11.8786  11.8823  11.8825  11.8842  11.8872  11.9599  12.0160
    12.0405  12.0633  12.0669  12.0727  12.0785  12.1009  12.1052  12.1091
    12.1097  12.1190  12.1270  12.1306  12.1464  12.1504  12.1508  12.1559
    12.1717  12.1801  12.1828  12.2321  12.2381  12.2430  12.2507  12.2555
    12.2642  12.2783  12.2891  12.2899  12.2905  12.3022  12.3113  12.3393
    12.3553  12.3616  12.3720  12.4502  12.4790  12.5011  12.5281  12.5455
    12.5630  12.5896  12.6017  12.6094  12.6292  12.6376  12.6575  12.6915
    12.7271  12.7615  12.7761  12.8724  12.8732  12.9269  12.9311  12.9539
    12.9695  13.0202  13.0329  13.0344  13.1329  13.6224  13.6633  13.6766
    13.6825  13.6958  13.8176  13.8945  13.9135  13.9439  14.1461  14.2160
    14.2376  14.3112  14.4162  14.4457  14.4716  14.4753  14.7959  14.8285
    14.9755  15.1334  15.1580  15.2024  15.3984  15.4370  15.6586  15.7168
    15.7696  15.7879  15.8230  15.8472  15.8530  15.9045  15.9521  15.9723
    15.9960  16.0022  16.0527  16.1305  16.1491  16.1619  16.1637  16.2265
    16.2490  16.2603  16.3134  16.3143  16.3503  16.3531  16.4157  16.4437
    16.5161  16.5293  16.5396  16.5633  16.6895  16.7063  16.7392  16.7542
    16.7734  16.7977  16.8924  16.9710  17.3824  17.3936  17.5912  17.9891
    18.1292  18.1584  18.2085  18.2525  18.2553  18.4283  18.5080  18.5506
    18.5882  18.6163  18.6527  18.6755  18.6770  18.7781  18.8016  18.8162

          k =-0.5000-0.5000-0.5734 ( 31672 PWs)   bands (ev):

   -66.7716 -66.7109 -66.6822 -66.6685 -66.6676 -66.6282 -66.6029 -66.5927
   -66.5810 -62.4021 -62.3902 -62.3852 -62.3737 -62.3519 -62.3357 -62.3324
   -62.3252 -62.3032 -35.5313 -35.5194 -35.4912 -35.4762 -35.4642 -35.4599
   -35.4313 -35.4282 -35.4212 -35.4211 -35.4199 -35.4163 -35.4074 -35.3979
   -35.3898 -35.3885 -35.3830 -35.3630 -35.3578 -35.3542 -35.3455 -35.3420
   -35.3360 -35.3281 -35.3183 -35.3111 -35.3054 -31.2420 -31.2389 -31.2344
   -31.2264 -31.2206 -31.2193 -31.2152 -31.2064 -31.1981 -31.1935 -31.1885
   -31.1878 -31.1872 -31.1792 -31.1773 -31.1765 -31.1627 -31.1595 -31.1578
   -31.1573 -31.1507 -31.1502 -31.1464 -31.1370 -31.1312 -31.1270 -31.1198
     6.8846   6.9070   6.9366   6.9770   6.9878   6.9988   7.0266   7.0431
     8.4491   8.4674   8.4693   8.4788   8.4860   8.4888   8.4895   8.4961
     8.5012   8.5021   8.5134   8.5332   8.5399   8.5403   8.5573   8.5587
     8.5683   8.5799   8.5862   8.6230   8.8708   8.8795   8.8903   8.8939
     8.9187   8.9240   8.9280   8.9410   9.0837   9.0988   9.1220   9.1240
     9.1273   9.1423   9.1442   9.1477   9.1511   9.1536   9.1621   9.1625
     9.1646   9.1650   9.1686   9.1728   9.1766   9.1776   9.1806   9.1813
     9.1858   9.1885   9.1942   9.1969   9.1981   9.2000   9.2041   9.2116
     9.2272   9.2392   9.2427   9.2506   9.2591   9.2632   9.2729   9.2866
     9.5408   9.5419   9.5573   9.5705   9.5848   9.6109   9.6135   9.6222
     9.6515   9.6587   9.6909   9.7092   9.7148   9.7152   9.7607   9.7761
     9.8085   9.8271   9.8499   9.8599   9.8709   9.8805   9.8937   9.8986
    10.1186  10.1440  10.1458  10.1521  10.1619  10.1723  10.1773  10.1919
    10.2825  10.3215  10.4380  10.4501  10.4544  10.4700  10.4735  10.4801
    10.4826  10.4956  10.4972  10.5014  10.5076  10.5093  10.5121  10.5212
    10.5260  10.5288  10.5349  10.5358  10.5631  10.5822  10.5909  10.6014
    10.6157  10.6368  10.6423  10.6510  10.6583  10.6609  10.6610  10.6690
    10.6720  10.6778  10.6971  10.6994  10.7358  10.7433  11.0308  11.0441
    11.0506  11.0688  11.1031  11.1065  11.1422  11.1426  11.3761  11.3818
    11.3829  11.4111  11.4249  11.4367  11.4391  11.4481  11.4528  11.4571
    11.4794  11.4968  11.5027  11.5116  11.5331  11.5407  11.5867  11.6209
    11.6268  11.6425  11.6446  11.6510  11.6751  11.7001  11.7071  11.7151
    11.7226  11.7310  11.7340  11.7714  11.7765  11.7813  11.7851  11.7921
    11.7934  11.8028  11.8184  11.8282  11.8352  11.9766  11.9874  12.0162
    12.0204  12.0642  12.0732  12.0984  12.1073  12.1263  12.1540  12.1745
    12.1784  12.2186  12.2327  12.2394  12.2434  12.2681  12.3026  12.3299
    12.3325  12.3554  12.3795  12.4110  12.4265  12.4520  12.4629  12.4694
    12.4790  12.4809  12.5174  12.5277  12.5621  12.5791  12.5872  12.6014
    12.6045  12.6338  12.6716  12.7219  12.7291  12.7741  12.7999  12.8267
    12.9233  12.9428  12.9928  13.0654  13.1237  13.1449  13.1736  13.1833
    13.2149  13.2560  13.3027  13.3274  13.4118  13.4498  13.4873  13.5781
    13.6019  13.6040  13.7232  13.8844  13.9589  13.9780  14.0222  14.1350
    14.2278  14.2517  14.4488  14.5250  14.8006  14.8326  14.9147  15.0227
    15.0236  15.0686  15.1579  15.3607  15.4498  15.4619  15.5545  15.6492
    15.7348  15.7625  15.7896  15.8421  15.8614  15.9228  15.9311  15.9541
    16.0178  16.0682  16.1092  16.1692  16.1996  16.2045  16.2180  16.2351
    16.2683  16.2685  16.3159  16.3200  16.3683  16.4674  16.4699  16.5006
    16.5408  16.5656  16.5817  16.6191  16.6483  16.6660  16.6700  16.6904
    16.7652  16.7824  16.8535  16.8682  16.9026  16.9517  16.9619  16.9975
    17.0356  17.0911  17.5726  17.7478  17.9072  17.9409  19.0146  19.0351
    19.0538  19.0633  19.0976  19.1366  19.1761  19.1855  19.2728  19.2904

          k =-0.5000 0.0000 0.0000 ( 31722 PWs)   bands (ev):

   -66.7716 -66.7109 -66.6822 -66.6685 -66.6676 -66.6282 -66.6029 -66.5927
   -66.5810 -62.4021 -62.3902 -62.3852 -62.3737 -62.3519 -62.3357 -62.3324
   -62.3252 -62.3032 -35.5312 -35.5194 -35.4911 -35.4762 -35.4642 -35.4599
   -35.4313 -35.4282 -35.4212 -35.4211 -35.4199 -35.4162 -35.4074 -35.3979
   -35.3898 -35.3885 -35.3830 -35.3630 -35.3578 -35.3542 -35.3455 -35.3420
   -35.3360 -35.3281 -35.3183 -35.3111 -35.3054 -31.2419 -31.2389 -31.2343
   -31.2264 -31.2207 -31.2194 -31.2152 -31.2064 -31.1985 -31.1933 -31.1885
   -31.1878 -31.1872 -31.1791 -31.1773 -31.1765 -31.1627 -31.1595 -31.1578
   -31.1573 -31.1507 -31.1502 -31.1464 -31.1370 -31.1312 -31.1270 -31.1198
     6.0296   6.0583   7.4157   7.4371   7.4567   7.4866   7.6683   7.6849
     8.1022   8.1177   8.1263   8.1782   8.2127   8.2376   8.2436   8.2721
     8.4056   8.4304   8.4435   8.4756   8.6131   8.6367   8.6535   8.6550
     8.6677   8.6789   8.6906   8.6947   8.7528   8.8114   8.8224   8.8362
     8.8557   8.8662   8.8700   8.8930   8.9023   8.9046   8.9141   8.9232
     8.9246   8.9303   8.9373   8.9530   9.0403   9.0569   9.1599   9.1731
     9.1915   9.1942   9.2106   9.2301   9.2395   9.2470   9.3147   9.3243
     9.3623   9.3747   9.3797   9.4144   9.4725   9.4839   9.4946   9.5154
     9.5303   9.5400   9.5547   9.5671   9.5789   9.5955   9.6033   9.6205
     9.6266   9.6297   9.6314   9.6324   9.6358   9.6374   9.6413   9.6533
     9.6666   9.6707   9.6792   9.6838   9.6902   9.7031   9.7205   9.7374
     9.7412   9.7563   9.7608   9.7735   9.8955   9.9020   9.9155   9.9844
    10.0055  10.0444  10.1504  10.1906  10.2053  10.2274  10.2482  10.2528
    10.2615  10.2698  10.2715  10.2729  10.2808  10.2888  10.3379  10.3501
    10.3714  10.3770  10.3833  10.3853  10.4244  10.4387  10.4568  10.4797
    10.5186  10.5264  10.5272  10.5319  10.5520  10.5769  10.5770  10.5942
    10.6138  10.6394  10.6682  10.6912  10.6937  10.7307  10.7354  10.7729
    10.8068  10.8168  10.8287  10.8502  10.8643  10.8775  10.9089  10.9390
    10.9891  11.0154  11.0178  11.0202  11.0304  11.0829  11.1647  11.1844
    11.2981  11.3443  11.3503  11.3584  11.3755  11.3877  11.3955  11.4029
    11.4205  11.4348  11.4450  11.4609  11.5057  11.5328  11.5456  11.5697
    11.5979  11.6030  11.6218  11.6363  11.6435  11.6736  11.6807  11.7332
    11.7495  11.7704  11.7803  11.8061  11.8161  11.8359  11.8547  11.8608
    11.8734  11.8919  11.9083  11.9281  11.9372  11.9588  11.9640  11.9682
    11.9774  11.9846  11.9915  12.0133  12.0392  12.1267  12.1419  12.1800
    12.1927  12.2029  12.2035  12.2334  12.2436  12.2603  12.2677  12.2776
    12.3001  12.3053  12.3218  12.3608  12.3751  12.3871  12.4002  12.4278
    12.4559  12.4794  12.4843  12.4924  12.5249  12.5271  12.5533  12.5575
    12.5702  12.6007  12.6172  12.6262  12.6485  12.7282  12.7457  12.7695
    12.9036  12.9917  13.0016  13.0464  13.0769  13.0868  13.1444  13.1535
    13.1697  13.1874  13.2090  13.2299  13.2513  13.2785  13.3204  13.3603
    13.4426  13.4863  13.5034  13.6600  13.7412  14.4850  14.5078  14.5540
    14.5934  14.7075  14.7328  14.7463  14.7854  14.8003  14.8807  14.9761
    15.0980  15.1294  15.2286  15.3387  15.3558  15.4543  15.5344  15.5880
    15.6101  15.6757  15.7712  15.7983  15.8327  15.9250  15.9530  16.0328
    16.0492  16.0656  16.1005  16.1307  16.1363  16.1549  16.1588  16.1983
    16.2306  16.2417  16.2529  16.2752  16.2856  16.2975  16.3496  16.3732
    16.4027  16.4385  16.4714  16.6185  16.6746  16.8249  17.0371  17.0576
    17.1552  17.1829  17.2606  17.3231  17.3716  17.4557  17.6372  17.6429
    17.7106  17.7758  17.8177  17.8246  17.8409  17.8589  17.9281  17.9557
    17.9561  18.0989  18.1750  18.2348  19.2349  19.2917  19.3452  19.3515

          k =-0.5000 0.0000 0.5734 ( 31696 PWs)   bands (ev):

   -66.7716 -66.7109 -66.6822 -66.6685 -66.6676 -66.6282 -66.6029 -66.5927
   -66.5810 -62.4021 -62.3902 -62.3852 -62.3737 -62.3519 -62.3357 -62.3324
   -62.3252 -62.3032 -35.5312 -35.5194 -35.4911 -35.4762 -35.4642 -35.4599
   -35.4313 -35.4282 -35.4212 -35.4211 -35.4199 -35.4162 -35.4074 -35.3979
   -35.3898 -35.3885 -35.3830 -35.3630 -35.3578 -35.3542 -35.3455 -35.3420
   -35.3360 -35.3281 -35.3183 -35.3111 -35.3054 -31.2419 -31.2389 -31.2343
   -31.2264 -31.2207 -31.2194 -31.2152 -31.2064 -31.1985 -31.1933 -31.1885
   -31.1878 -31.1872 -31.1791 -31.1773 -31.1765 -31.1627 -31.1595 -31.1578
   -31.1573 -31.1507 -31.1502 -31.1464 -31.1370 -31.1312 -31.1270 -31.1198
     6.5193   6.5829   6.5992   6.6399   7.8321   7.8389   7.8736   7.8891
     7.8968   7.9107   7.9304   7.9492   8.2680   8.2783   8.3019   8.3052
     8.5202   8.5253   8.5282   8.5333   8.6610   8.6654   8.6789   8.6877
     8.6939   8.6945   8.7051   8.7122   8.7234   8.7357   8.7427   8.7512
     8.7636   8.7792   8.7876   8.8024   8.9434   9.0120   9.0169   9.0312
     9.0411   9.0511   9.0516   9.0640   9.1749   9.2106   9.2140   9.2246
     9.2251   9.2297   9.2306   9.2370   9.2463   9.2537   9.2553   9.2571
     9.2599   9.2650   9.2768   9.2783   9.2906   9.3519   9.3871   9.4024
     9.4243   9.4294   9.4351   9.4535   9.4538   9.4682   9.4730   9.4813
     9.4815   9.4914   9.5195   9.5254   9.5339   9.5407   9.5584   9.5662
     9.5790   9.6145   9.7528   9.7585   9.7882   9.7978   9.8158   9.8222
     9.8304   9.8381   9.8412   9.8424   9.8558   9.8610   9.8667   9.8820
     9.9467   9.9671   9.9974  10.0085  10.0267  10.0422  10.0562  10.0640
    10.3655  10.3797  10.3870  10.3875  10.4027  10.4177  10.4226  10.4281
    10.4550  10.4693  10.4770  10.4807  10.4934  10.4942  10.5030  10.5472
    10.5498  10.5526  10.5629  10.5795  10.5888  10.5926  10.6233  10.6245
    10.6388  10.6422  10.6641  10.6722  10.6844  10.6924  10.6959  10.7184
    10.7382  10.8356  10.8963  10.9128  10.9917  11.0028  11.0211  11.0454
    11.1179  11.1329  11.1532  11.1571  11.1726  11.1871  11.1995  11.2093
    11.2106  11.2133  11.3041  11.3228  11.3341  11.3402  11.3623  11.3745
    11.3785  11.3835  11.3867  11.4356  11.4449  11.4500  11.4774  11.5324
    11.5356  11.5535  11.5681  11.5733  11.5784  11.5837  11.6015  11.6190
    11.6265  11.6368  11.7313  11.7337  11.7640  11.7705  11.7804  11.8614
    11.9005  11.9091  11.9296  11.9352  11.9546  11.9735  11.9912  11.9964
    12.0261  12.0289  12.0356  12.0389  12.0406  12.0489  12.0553  12.1140
    12.1563  12.1644  12.2109  12.2493  12.2546  12.3023  12.3043  12.3206
    12.3691  12.3942  12.4204  12.4259  12.4511  12.4534  12.4625  12.4780
    12.4868  12.4989  12.5250  12.5337  12.5491  12.5857  12.5905  12.5925
    12.6278  12.6285  12.6402  12.6562  12.6678  12.7083  12.8278  12.8364
    12.8490  12.9286  12.9367  12.9524  13.0294  13.0519  13.0708  13.0826
    13.2155  13.2196  13.3986  13.5497  13.6432  13.6896  13.7366  13.7470
    13.8999  13.9366  14.0093  14.0518  14.1237  14.1640  14.2068  14.3085
    14.3319  14.3448  14.5413  14.5677  14.6055  14.8315  14.8598  15.1903
    15.1933  15.1971  15.2192  15.2431  15.4348  15.4702  15.5431  15.5811
    15.6171  15.6436  15.6554  15.7065  15.7810  16.0150  16.0442  16.0609
    16.1019  16.1057  16.1325  16.1480  16.1679  16.1843  16.2178  16.2658
    16.2912  16.2918  16.3344  16.3371  16.3937  16.3938  16.4094  16.4606
    16.4682  16.5269  16.5705  16.5777  16.6114  16.6382  16.6465  16.6488
    16.6764  16.7374  16.7782  16.8206  16.8211  16.8955  16.9316  17.0425
    17.0633  17.1768  17.1800  17.2705  18.6501  18.6857  18.7353  18.7649
    18.7759  18.7997  18.8461  18.8659  18.8721  18.9005  18.9418  19.0223

     the Fermi energy is    14.8128 ev

!    total energy              =  -33062.59522643 Ry
     Harris-Foulkes estimate   =  -33062.59520822 Ry
     estimated scf accuracy    <       0.00000069 Ry

     total all-electron energy =  -1410574.685601 Ry

     The total energy is the sum of the following terms:

     one-electron contribution =   -1645.89092626 Ry
     hartree contribution      =    1490.09552897 Ry
     xc contribution           =   -1658.74436649 Ry
     ewald contribution        =   -4919.25534656 Ry
     one-center paw contrib.   =  -26328.80011609 Ry

     total magnetization       =     0.22 Bohr mag/cell
     absolute magnetization    =    78.39 Bohr mag/cell

     convergence has been achieved in  21 iterations

     Writing output data file mnau2.save
 
     init_run     :     51.85s CPU     52.64s WALL (       1 calls)
     electrons    :   3248.94s CPU   3304.65s WALL (       1 calls)

     Called by init_run:
     wfcinit      :     46.03s CPU     46.59s WALL (       1 calls)
     potinit      :      2.47s CPU      2.51s WALL (       1 calls)

     Called by electrons:
     c_bands      :   2903.62s CPU   2948.39s WALL (      21 calls)
     sum_band     :    290.12s CPU    296.76s WALL (      21 calls)
     v_of_rho     :      5.61s CPU      5.80s WALL (      22 calls)
     newd         :     17.78s CPU     20.28s WALL (      22 calls)
     PAW_pot      :     32.56s CPU     33.11s WALL (      22 calls)
     mix_rho      :      1.14s CPU      1.30s WALL (      21 calls)

     Called by c_bands:
     init_us_2    :     10.29s CPU     10.35s WALL (     688 calls)
     cegterg      :   2837.94s CPU   2881.80s WALL (     336 calls)

     Called by sum_band:
     sum_band:bec :      1.63s CPU      1.63s WALL (     336 calls)
     addusdens    :     31.64s CPU     34.62s WALL (      21 calls)

     Called by *egterg:
     h_psi        :    981.75s CPU    992.68s WALL (    1354 calls)
     s_psi        :    239.38s CPU    239.58s WALL (    1354 calls)
     g_psi        :      3.75s CPU      3.77s WALL (    1002 calls)
     cdiaghg      :   1045.24s CPU   1046.19s WALL (    1338 calls)

     Called by h_psi:
     h_psi:pot    :    972.39s CPU    983.26s WALL (    1354 calls)
     h_psi:calbec :    239.40s CPU    241.57s WALL (    1354 calls)
     vloc_psi     :    492.59s CPU    500.99s WALL (    1354 calls)
     add_vuspsi   :    240.37s CPU    240.69s WALL (    1354 calls)

     General routines
     calbec       :    339.74s CPU    342.96s WALL (    1690 calls)
     fft          :      4.70s CPU      5.04s WALL (     672 calls)
     ffts         :      0.10s CPU      0.11s WALL (      86 calls)
     fftw         :    470.13s CPU    477.94s WALL (  763042 calls)
     interpolate  :      0.84s CPU      0.88s WALL (      86 calls)
 
     Parallel routines
     fft_scatt_xy :     58.14s CPU     58.91s WALL (  763800 calls)
     fft_scatt_yz :    123.29s CPU    127.04s WALL (  763800 calls)
 
     PWSCF        : 55m 6.60s CPU    56m21.32s WALL

 
   This run was terminated on:  10:49:47   4Mar2019            

=------------------------------------------------------------------------------=
   JOB DONE.
=------------------------------------------------------------------------------=
