
     Program PWSCF v.6.2 (svn rev. 14038) starts on  7Mar2019 at 18:46:52 

     This program is part of the open-source Quantum ESPRESSO suite
     for quantum simulation of materials; please cite
         "P. Giannozzi et al., J. Phys.:Condens. Matter 21 395502 (2009);
         "P. Giannozzi et al., J. Phys.:Condens. Matter 29 465901 (2017);
          URL http://www.quantum-espresso.org", 
     in publications or presentations arising from this work. More details at
     http://www.quantum-espresso.org/quote

     Parallel version (MPI), running on    16 processors

     MPI processes distributed on     1 nodes
     R & G space division:  proc/nbgrp/npool/nimage =      16
     Waiting for input...
     Reading input from standard input

     Current dimensions of program PWSCF are:
     Max number of different atomic species (ntypx) = 10
     Max number of k-points (npk) =  40000
     Max angular momentum in pseudopotentials (lmaxx) =  3
               file Mn.pbe-spn-kjpaw_psl.0.3.1.UPF: wavefunction(s)  3P 3D renormalized
               file Mn.pbe-spn-kjpaw_psl.0.3.1.UPF: wavefunction(s)  3P 3D renormalized
               file Au.pbe-dn-kjpaw_psl.0.1.UPF: wavefunction(s)  6S 6P 5D renormalized

     Subspace diagonalization in iterative solution of the eigenvalue problem:
     a serial algorithm will be used

 
     Parallelization info
     --------------------
     sticks:   dense  smooth     PW     G-vecs:    dense   smooth      PW
     Min         736     331     90                52486    15847    2256
     Max         737     332     91                52489    15850    2259
     Sum       11785    5297   1449               839803   253559   36125
 


     bravais-lattice index     =            0
     lattice parameter (alat)  =      19.2459  a.u.
     unit-cell volume          =    6216.1497 (a.u.)^3
     number of atoms/cell      =           54
     number of atomic types    =            3
     number of electrons       =       666.00
     number of Kohn-Sham states=          400
     kinetic-energy cutoff     =      45.0000  Ry
     charge density cutoff     =     400.0000  Ry
     convergence threshold     =      1.0E-06
     mixing beta               =       0.1000
     number of iterations used =            8  plain     mixing
     Exchange-correlation      = SLA PW PBX PBC ( 1  4  3  4 0 0)

     celldm(1)=  19.245946  celldm(2)=   0.000000  celldm(3)=   0.000000
     celldm(4)=   0.000000  celldm(5)=   0.000000  celldm(6)=   0.000000

     crystal axes: (cart. coord. in units of alat)
               a(1) = (   1.000000   0.000000   0.000000 )  
               a(2) = (   0.000000   1.000000   0.000000 )  
               a(3) = (   0.000000   0.000000   0.871974 )  

     reciprocal axes: (cart. coord. in units 2 pi/alat)
               b(1) = (  1.000000  0.000000  0.000000 )  
               b(2) = (  0.000000  1.000000  0.000000 )  
               b(3) = (  0.000000  0.000000  1.146823 )  


     PseudoPot. # 1 for Mn read from file:
     ./pseudo/Mn.pbe-spn-kjpaw_psl.0.3.1.UPF
     MD5 check sum: 7eef95dd2aae66803482eea66ebeebf1
     Pseudo is Projector augmented-wave + core cor, Zval = 15.0
     Generated using "atomic" code by A. Dal Corso v.5.0.99 svn rev. 10869
     Shape of augmentation charge: PSQ
     Using radial grid of 1187 points,  6 beta functions with: 
                l(1) =   0
                l(2) =   0
                l(3) =   1
                l(4) =   1
                l(5) =   2
                l(6) =   2
     Q(r) pseudized with 0 coefficients 


     PseudoPot. # 2 for Mn read from file:
     ./pseudo/Mn.pbe-spn-kjpaw_psl.0.3.1.UPF
     MD5 check sum: 7eef95dd2aae66803482eea66ebeebf1
     Pseudo is Projector augmented-wave + core cor, Zval = 15.0
     Generated using "atomic" code by A. Dal Corso v.5.0.99 svn rev. 10869
     Shape of augmentation charge: PSQ
     Using radial grid of 1187 points,  6 beta functions with: 
                l(1) =   0
                l(2) =   0
                l(3) =   1
                l(4) =   1
                l(5) =   2
                l(6) =   2
     Q(r) pseudized with 0 coefficients 


     PseudoPot. # 3 for Au read from file:
     ./pseudo/Au.pbe-dn-kjpaw_psl.0.1.UPF
     MD5 check sum: 5c9b92683623e7ae2ab3f8e525febab6
     Pseudo is Projector augmented-wave + core cor, Zval = 11.0
     Generated using "atomic" code by A. Dal Corso v.5.0.2 svn rev. 9415
     Shape of augmentation charge: PSQ
     Using radial grid of 1279 points,  6 beta functions with: 
                l(1) =   0
                l(2) =   0
                l(3) =   1
                l(4) =   1
                l(5) =   2
                l(6) =   2
     Q(r) pseudized with 0 coefficients 


     atomic species   valence    mass     pseudopotential
        Mn1           15.00    54.93800     Mn( 1.00)
        Mn2           15.00    54.93800     Mn( 1.00)
        Au            11.00   196.96600     Au( 1.00)

     Starting magnetic structure 
     atomic species   magnetization
        Mn1          0.800
        Mn2         -0.800
        Au           0.000

      2 Sym. Ops. (no inversion) found



   Cartesian axes

     site n.     atom                  positions (alat units)
         1           Mn1 tau(   1) = (   0.0000000   0.0000000   0.0000000  )
         2           Mn2 tau(   2) = (   0.0000000   0.3333300   0.0000000  )
         3           Mn1 tau(   3) = (   0.0000000   0.6666700   0.0000000  )
         4           Mn1 tau(   4) = (   0.3333300   0.0000000   0.0000000  )
         5           Mn2 tau(   5) = (   0.3333300   0.3333300   0.0000000  )
         6           Mn2 tau(   6) = (   0.3333300   0.6666700   0.0000000  )
         7           Mn1 tau(   7) = (   0.6666700   0.0000000   0.0000000  )
         8           Mn2 tau(   8) = (   0.6666700   0.3333300   0.0000000  )
         9           Mn1 tau(   9) = (   0.6666700   0.6666700   0.0000000  )
        10           Mn2 tau(  10) = (   0.1666700   0.1666700   0.4359871  )
        11           Mn1 tau(  11) = (   0.1666700   0.5000000   0.4359871  )
        12           Mn2 tau(  12) = (   0.1666700   0.8333300   0.4359871  )
        13           Mn2 tau(  13) = (   0.5000000   0.1666700   0.4359871  )
        14           Mn1 tau(  14) = (   0.5000000   0.5000000   0.4359871  )
        15           Mn1 tau(  15) = (   0.5000000   0.8333300   0.4359871  )
        16           Mn2 tau(  16) = (   0.8333300   0.1666700   0.4359871  )
        17           Mn1 tau(  17) = (   0.8333300   0.5000000   0.4359871  )
        18           Mn2 tau(  18) = (   0.8333300   0.8333300   0.4359871  )
        19           Au  tau(  19) = (   0.1666700   0.1666700   0.7327374  )
        20           Au  tau(  20) = (   0.1666700   0.5000000   0.7327374  )
        21           Au  tau(  21) = (   0.1666700   0.8333300   0.7327374  )
        22           Au  tau(  22) = (   0.5000000   0.1666700   0.7327374  )
        23           Au  tau(  23) = (   0.5000000   0.5000000   0.7327374  )
        24           Au  tau(  24) = (   0.5000000   0.8333300   0.7327374  )
        25           Au  tau(  25) = (   0.8333300   0.1666700   0.7327374  )
        26           Au  tau(  26) = (   0.8333300   0.5000000   0.7327374  )
        27           Au  tau(  27) = (   0.8333300   0.8333300   0.7327374  )
        28           Au  tau(  28) = (   0.1666700   0.1666700   0.1392369  )
        29           Au  tau(  29) = (   0.1666700   0.5000000   0.1392369  )
        30           Au  tau(  30) = (   0.1666700   0.8333300   0.1392369  )
        31           Au  tau(  31) = (   0.5000000   0.1666700   0.1392369  )
        32           Au  tau(  32) = (   0.5000000   0.5000000   0.1392369  )
        33           Au  tau(  33) = (   0.5000000   0.8333300   0.1392369  )
        34           Au  tau(  34) = (   0.8333300   0.1666700   0.1392369  )
        35           Au  tau(  35) = (   0.8333300   0.5000000   0.1392369  )
        36           Au  tau(  36) = (   0.8333300   0.8333300   0.1392369  )
        37           Au  tau(  37) = (   0.0000000   0.0000000   0.2967503  )
        38           Au  tau(  38) = (   0.0000000   0.3333300   0.2967503  )
        39           Au  tau(  39) = (   0.0000000   0.6666700   0.2967503  )
        40           Au  tau(  40) = (   0.3333300   0.0000000   0.2967503  )
        41           Au  tau(  41) = (   0.3333300   0.3333300   0.2967503  )
        42           Au  tau(  42) = (   0.3333300   0.6666700   0.2967503  )
        43           Au  tau(  43) = (   0.6666700   0.0000000   0.2967503  )
        44           Au  tau(  44) = (   0.6666700   0.3333300   0.2967503  )
        45           Au  tau(  45) = (   0.6666700   0.6666700   0.2967503  )
        46           Au  tau(  46) = (   0.0000000   0.0000000   0.5752240  )
        47           Au  tau(  47) = (   0.0000000   0.3333300   0.5752240  )
        48           Au  tau(  48) = (   0.0000000   0.6666700   0.5752240  )
        49           Au  tau(  49) = (   0.3333300   0.0000000   0.5752240  )
        50           Au  tau(  50) = (   0.3333300   0.3333300   0.5752240  )
        51           Au  tau(  51) = (   0.3333300   0.6666700   0.5752240  )
        52           Au  tau(  52) = (   0.6666700   0.0000000   0.5752240  )
        53           Au  tau(  53) = (   0.6666700   0.3333300   0.5752240  )
        54           Au  tau(  54) = (   0.6666700   0.6666700   0.5752240  )

     number of k points=     8 (tetrahedron method)
                       cart. coord. in units 2pi/alat
        k(    1) = (   0.0000000   0.0000000   0.0000000), wk =   0.1250000
        k(    2) = (   0.0000000   0.0000000  -0.5734114), wk =   0.1250000
        k(    3) = (   0.0000000  -0.5000000   0.0000000), wk =   0.1250000
        k(    4) = (   0.0000000  -0.5000000  -0.5734114), wk =   0.1250000
        k(    5) = (  -0.5000000  -0.5000000   0.0000000), wk =   0.1250000
        k(    6) = (  -0.5000000  -0.5000000  -0.5734114), wk =   0.1250000
        k(    7) = (  -0.5000000   0.0000000   0.0000000), wk =   0.1250000
        k(    8) = (  -0.5000000   0.0000000   0.5734114), wk =   0.1250000

     Dense  grid:   839803 G-vectors     FFT dimensions: ( 125, 125, 108)

     Smooth grid:   253559 G-vectors     FFT dimensions: (  90,  90,  72)

     Estimated max dynamical RAM per process >     570.13 MB

     Estimated total dynamical RAM >       8.91 GB
     Generating pointlists ...
     new r_m :   0.1129 (alat units)  2.1733 (a.u.) for type    1
     new r_m :   0.1129 (alat units)  2.1733 (a.u.) for type    2
     new r_m :   0.1129 (alat units)  2.1733 (a.u.) for type    3

     Check: negative/imaginary core charge=   -0.000006    0.000000

     Initial potential from superposition of free atoms

     starting charge  665.98709, renormalised to  666.00000
     Starting wfc are  504 randomized atomic wfcs
     Checking if some PAW data can be deallocated... 

     total cpu time spent up to now is       41.4 secs

     Self-consistent Calculation

     iteration #  1     ecut=    45.00 Ry     beta= 0.10
     Davidson diagonalization with overlap
     ethr =  1.00E-02,  avg # of iterations =  3.4

     total cpu time spent up to now is      157.9 secs

     total energy              =  -33047.18725917 Ry
     Harris-Foulkes estimate   =  -33044.03858427 Ry
     estimated scf accuracy    <      27.02354348 Ry

     total magnetization       =    -0.01 Bohr mag/cell
     absolute magnetization    =    92.11 Bohr mag/cell

     iteration #  2     ecut=    45.00 Ry     beta= 0.10
     Davidson diagonalization with overlap
     ethr =  4.06E-03,  avg # of iterations =  1.0

     total cpu time spent up to now is      237.2 secs

     total energy              =  -33058.57447609 Ry
     Harris-Foulkes estimate   =  -33047.36661828 Ry
     estimated scf accuracy    <      21.37211575 Ry

     total magnetization       =    -0.01 Bohr mag/cell
     absolute magnetization    =    91.70 Bohr mag/cell

     iteration #  3     ecut=    45.00 Ry     beta= 0.10
     Davidson diagonalization with overlap
     ethr =  3.21E-03,  avg # of iterations =  2.1

     total cpu time spent up to now is      333.1 secs

     total energy              =  -33066.52452812 Ry
     Harris-Foulkes estimate   =  -33061.38467690 Ry
     estimated scf accuracy    <       8.82051271 Ry

     total magnetization       =     0.13 Bohr mag/cell
     absolute magnetization    =    85.57 Bohr mag/cell

     iteration #  4     ecut=    45.00 Ry     beta= 0.10
     Davidson diagonalization with overlap
     ethr =  1.32E-03,  avg # of iterations =  4.2

     total cpu time spent up to now is      482.6 secs

     total energy              =  -33059.06306747 Ry
     Harris-Foulkes estimate   =  -33069.51980626 Ry
     estimated scf accuracy    <      56.90276082 Ry

     total magnetization       =     0.17 Bohr mag/cell
     absolute magnetization    =    70.33 Bohr mag/cell

     iteration #  5     ecut=    45.00 Ry     beta= 0.10
     Davidson diagonalization with overlap
     ethr =  1.32E-03,  avg # of iterations =  5.1

     total cpu time spent up to now is      647.2 secs

     total energy              =  -33061.80831383 Ry
     Harris-Foulkes estimate   =  -33062.78033272 Ry
     estimated scf accuracy    <       4.89412884 Ry

     total magnetization       =     0.11 Bohr mag/cell
     absolute magnetization    =    83.26 Bohr mag/cell

     iteration #  6     ecut=    45.00 Ry     beta= 0.10
     Davidson diagonalization with overlap
     ethr =  7.35E-04,  avg # of iterations =  3.9

     total cpu time spent up to now is      760.6 secs

     total energy              =  -33062.53534904 Ry
     Harris-Foulkes estimate   =  -33062.51956332 Ry
     estimated scf accuracy    <       0.26635133 Ry

     total magnetization       =     0.27 Bohr mag/cell
     absolute magnetization    =    80.11 Bohr mag/cell

     iteration #  7     ecut=    45.00 Ry     beta= 0.10
     Davidson diagonalization with overlap
     ethr =  4.00E-05,  avg # of iterations =  4.8

     total cpu time spent up to now is      908.6 secs

     total energy              =  -33062.57860277 Ry
     Harris-Foulkes estimate   =  -33062.58613558 Ry
     estimated scf accuracy    <       0.05985470 Ry

     total magnetization       =     0.37 Bohr mag/cell
     absolute magnetization    =    79.17 Bohr mag/cell

     iteration #  8     ecut=    45.00 Ry     beta= 0.10
     Davidson diagonalization with overlap
     ethr =  8.99E-06,  avg # of iterations =  4.9

     total cpu time spent up to now is     1033.7 secs

     total energy              =  -33062.58674801 Ry
     Harris-Foulkes estimate   =  -33062.58973044 Ry
     estimated scf accuracy    <       0.09471386 Ry

     total magnetization       =     0.37 Bohr mag/cell
     absolute magnetization    =    78.47 Bohr mag/cell

     iteration #  9     ecut=    45.00 Ry     beta= 0.10
     Davidson diagonalization with overlap
     ethr =  8.99E-06,  avg # of iterations =  1.0

     total cpu time spent up to now is     1113.5 secs

     total energy              =  -33062.58257472 Ry
     Harris-Foulkes estimate   =  -33062.58774635 Ry
     estimated scf accuracy    <       0.06619969 Ry

     total magnetization       =     0.41 Bohr mag/cell
     absolute magnetization    =    78.37 Bohr mag/cell

     iteration # 10     ecut=    45.00 Ry     beta= 0.10
     Davidson diagonalization with overlap
     ethr =  8.99E-06,  avg # of iterations =  2.1

     total cpu time spent up to now is     1203.2 secs

     total energy              =  -33062.58649635 Ry
     Harris-Foulkes estimate   =  -33062.58767670 Ry
     estimated scf accuracy    <       0.00845461 Ry

     total magnetization       =     0.46 Bohr mag/cell
     absolute magnetization    =    78.52 Bohr mag/cell

     iteration # 11     ecut=    45.00 Ry     beta= 0.10
     Davidson diagonalization with overlap
     ethr =  1.27E-06,  avg # of iterations =  4.0

     total cpu time spent up to now is     1317.2 secs

     total energy              =  -33062.59085612 Ry
     Harris-Foulkes estimate   =  -33062.58925711 Ry
     estimated scf accuracy    <       0.00327124 Ry

     total magnetization       =     0.43 Bohr mag/cell
     absolute magnetization    =    79.00 Bohr mag/cell

     iteration # 12     ecut=    45.00 Ry     beta= 0.10
     Davidson diagonalization with overlap
     ethr =  4.91E-07,  avg # of iterations =  3.0

     total cpu time spent up to now is     1417.2 secs

     total energy              =  -33062.59126688 Ry
     Harris-Foulkes estimate   =  -33062.59083571 Ry
     estimated scf accuracy    <       0.00140678 Ry

     total magnetization       =     0.45 Bohr mag/cell
     absolute magnetization    =    78.79 Bohr mag/cell

     iteration # 13     ecut=    45.00 Ry     beta= 0.10
     Davidson diagonalization with overlap
     ethr =  2.11E-07,  avg # of iterations =  3.1

     total cpu time spent up to now is     1520.3 secs

     total energy              =  -33062.59159950 Ry
     Harris-Foulkes estimate   =  -33062.59133692 Ry
     estimated scf accuracy    <       0.00027013 Ry

     total magnetization       =     0.46 Bohr mag/cell
     absolute magnetization    =    78.73 Bohr mag/cell

     iteration # 14     ecut=    45.00 Ry     beta= 0.10
     Davidson diagonalization with overlap
     ethr =  4.06E-08,  avg # of iterations =  3.5

     total cpu time spent up to now is     1624.6 secs

     total energy              =  -33062.59176100 Ry
     Harris-Foulkes estimate   =  -33062.59155245 Ry
     estimated scf accuracy    <       0.00015496 Ry

     total magnetization       =     0.46 Bohr mag/cell
     absolute magnetization    =    78.69 Bohr mag/cell

     iteration # 15     ecut=    45.00 Ry     beta= 0.10
     Davidson diagonalization with overlap
     ethr =  2.33E-08,  avg # of iterations =  2.2

     total cpu time spent up to now is     1718.8 secs

     total energy              =  -33062.59185084 Ry
     Harris-Foulkes estimate   =  -33062.59176361 Ry
     estimated scf accuracy    <       0.00006705 Ry

     total magnetization       =     0.47 Bohr mag/cell
     absolute magnetization    =    78.66 Bohr mag/cell

     iteration # 16     ecut=    45.00 Ry     beta= 0.10
     Davidson diagonalization with overlap
     ethr =  1.01E-08,  avg # of iterations =  2.0

     total cpu time spent up to now is     1808.4 secs

     total energy              =  -33062.59190684 Ry
     Harris-Foulkes estimate   =  -33062.59183405 Ry
     estimated scf accuracy    <       0.00003600 Ry

     total magnetization       =     0.47 Bohr mag/cell
     absolute magnetization    =    78.65 Bohr mag/cell

     iteration # 17     ecut=    45.00 Ry     beta= 0.10
     Davidson diagonalization with overlap
     ethr =  5.41E-09,  avg # of iterations =  3.3

     total cpu time spent up to now is     1936.3 secs

     total energy              =  -33062.59190040 Ry
     Harris-Foulkes estimate   =  -33062.59188234 Ry
     estimated scf accuracy    <       0.00001017 Ry

     total magnetization       =     0.48 Bohr mag/cell
     absolute magnetization    =    78.63 Bohr mag/cell

     iteration # 18     ecut=    45.00 Ry     beta= 0.10
     Davidson diagonalization with overlap
     ethr =  1.53E-09,  avg # of iterations =  2.2

     total cpu time spent up to now is     2031.6 secs

     total energy              =  -33062.59189274 Ry
     Harris-Foulkes estimate   =  -33062.59188237 Ry
     estimated scf accuracy    <       0.00000437 Ry

     total magnetization       =     0.48 Bohr mag/cell
     absolute magnetization    =    78.62 Bohr mag/cell

     iteration # 19     ecut=    45.00 Ry     beta= 0.10
     Davidson diagonalization with overlap
     ethr =  6.56E-10,  avg # of iterations =  2.7

     total cpu time spent up to now is     2138.4 secs

     total energy              =  -33062.59188882 Ry
     Harris-Foulkes estimate   =  -33062.59188214 Ry
     estimated scf accuracy    <       0.00000219 Ry

     total magnetization       =     0.48 Bohr mag/cell
     absolute magnetization    =    78.61 Bohr mag/cell

     iteration # 20     ecut=    45.00 Ry     beta= 0.10
     Davidson diagonalization with overlap
     ethr =  3.29E-10,  avg # of iterations =  2.2
 
     Magnetic moment per site:
     atom:    1    charge:   13.5686    magn:    4.0633    constr:    0.0000
     atom:    2    charge:   13.5818    magn:   -3.9517    constr:    0.0000
     atom:    3    charge:   13.5805    magn:    3.9869    constr:    0.0000
     atom:    4    charge:   13.5725    magn:    4.0417    constr:    0.0000
     atom:    5    charge:   13.5790    magn:   -3.9558    constr:    0.0000
     atom:    6    charge:   13.5726    magn:   -4.0718    constr:    0.0000
     atom:    7    charge:   13.5705    magn:    4.0500    constr:    0.0000
     atom:    8    charge:   13.5766    magn:   -3.9928    constr:    0.0000
     atom:    9    charge:   13.5835    magn:    3.9541    constr:    0.0000
     atom:   10    charge:   13.5828    magn:   -3.9384    constr:    0.0000
     atom:   11    charge:   13.5725    magn:    4.0432    constr:    0.0000
     atom:   12    charge:   13.5727    magn:   -4.0464    constr:    0.0000
     atom:   13    charge:   13.5834    magn:   -3.9336    constr:    0.0000
     atom:   14    charge:   13.5712    magn:    4.0342    constr:    0.0000
     atom:   15    charge:   13.5824    magn:    3.9789    constr:    0.0000
     atom:   16    charge:   13.5755    magn:   -3.9983    constr:    0.0000
     atom:   17    charge:   13.5732    magn:    4.0316    constr:    0.0000
     atom:   18    charge:   13.5692    magn:   -4.0570    constr:    0.0000
     atom:   19    charge:    9.1206    magn:   -0.0047    constr:    0.0000
     atom:   20    charge:    9.1212    magn:   -0.0123    constr:    0.0000
     atom:   21    charge:    9.1219    magn:    0.0202    constr:    0.0000
     atom:   22    charge:    9.1201    magn:   -0.0014    constr:    0.0000
     atom:   23    charge:    9.1212    magn:   -0.0125    constr:    0.0000
     atom:   24    charge:    9.1201    magn:    0.0372    constr:    0.0000
     atom:   25    charge:    9.1211    magn:   -0.0092    constr:    0.0000
     atom:   26    charge:    9.1195    magn:    0.0146    constr:    0.0000
     atom:   27    charge:    9.1212    magn:    0.0516    constr:    0.0000
     atom:   28    charge:    9.1206    magn:   -0.0047    constr:    0.0000
     atom:   29    charge:    9.1212    magn:   -0.0123    constr:    0.0000
     atom:   30    charge:    9.1219    magn:    0.0202    constr:    0.0000
     atom:   31    charge:    9.1201    magn:   -0.0014    constr:    0.0000
     atom:   32    charge:    9.1212    magn:   -0.0125    constr:    0.0000
     atom:   33    charge:    9.1201    magn:    0.0372    constr:    0.0000
     atom:   34    charge:    9.1211    magn:   -0.0092    constr:    0.0000
     atom:   35    charge:    9.1195    magn:    0.0146    constr:    0.0000
     atom:   36    charge:    9.1212    magn:    0.0516    constr:    0.0000
     atom:   37    charge:    9.1218    magn:   -0.0460    constr:    0.0000
     atom:   38    charge:    9.1204    magn:   -0.0046    constr:    0.0000
     atom:   39    charge:    9.1209    magn:    0.0104    constr:    0.0000
     atom:   40    charge:    9.1206    magn:   -0.0106    constr:    0.0000
     atom:   41    charge:    9.1206    magn:   -0.0083    constr:    0.0000
     atom:   42    charge:    9.1216    magn:    0.0200    constr:    0.0000
     atom:   43    charge:    9.1203    magn:   -0.0117    constr:    0.0000
     atom:   44    charge:    9.1203    magn:   -0.0089    constr:    0.0000
     atom:   45    charge:    9.1201    magn:    0.0404    constr:    0.0000
     atom:   46    charge:    9.1218    magn:   -0.0460    constr:    0.0000
     atom:   47    charge:    9.1204    magn:   -0.0046    constr:    0.0000
     atom:   48    charge:    9.1209    magn:    0.0104    constr:    0.0000
     atom:   49    charge:    9.1206    magn:   -0.0106    constr:    0.0000
     atom:   50    charge:    9.1206    magn:   -0.0083    constr:    0.0000
     atom:   51    charge:    9.1216    magn:    0.0200    constr:    0.0000
     atom:   52    charge:    9.1203    magn:   -0.0117    constr:    0.0000
     atom:   53    charge:    9.1203    magn:   -0.0089    constr:    0.0000
     atom:   54    charge:    9.1201    magn:    0.0404    constr:    0.0000

     total cpu time spent up to now is     2241.8 secs

     End of self-consistent calculation

 ------ SPIN UP ------------


          k = 0.0000 0.0000 0.0000 ( 31747 PWs)   bands (ev):

   -66.7846 -66.7630 -66.7433 -66.7391 -66.7309 -66.7266 -66.6115 -66.5819
   -66.5558 -62.4026 -62.3831 -62.3728 -62.3695 -62.3683 -62.3586 -62.3560
   -62.3442 -62.3235 -35.5365 -35.5315 -35.5262 -35.5150 -35.5092 -35.5063
   -35.5046 -35.4951 -35.4889 -35.4872 -35.4825 -35.4804 -35.4795 -35.4757
   -35.4614 -35.4555 -35.4506 -35.4432 -35.3659 -35.3557 -35.3540 -35.3481
   -35.3305 -35.3183 -35.3071 -35.2887 -35.2834 -31.2406 -31.2307 -31.2222
   -31.2154 -31.2135 -31.2133 -31.2086 -31.2057 -31.2042 -31.2013 -31.2004
   -31.1970 -31.1916 -31.1866 -31.1854 -31.1844 -31.1834 -31.1809 -31.1799
   -31.1785 -31.1724 -31.1617 -31.1602 -31.1559 -31.1495 -31.1474 -31.1433
     5.6118   7.1371   7.1671   7.1863   7.2101   7.3614   7.8596   7.8619
     7.9137   7.9495   8.0719   8.1040   8.1354   8.1639   8.1961   8.2315
     8.2607   8.2884   8.3192   8.5214   8.5320   8.5594   8.5723   8.5931
     8.6079   8.8405   8.8642   8.8646   8.8798   8.8837   8.8882   8.9033
     8.9067   8.9076   8.9142   8.9178   8.9264   8.9494   8.9541   8.9789
     8.9950   9.0823   9.1172   9.1199   9.1227   9.1309   9.1579   9.1622
     9.1786   9.2011   9.2147   9.2676   9.2740   9.3015   9.3139   9.3338
     9.3463   9.3525   9.3648   9.3673   9.3829   9.3864   9.4022   9.4256
     9.4400   9.4414   9.4459   9.4489   9.4533   9.4652   9.5088   9.5661
     9.5746   9.5813   9.5848   9.5881   9.6212   9.6633   9.6678   9.6717
     9.6727   9.6749   9.7061   9.7371   9.7573   9.7801   9.7984   9.8495
     9.8501   9.8930   9.9099   9.9287   9.9522   9.9579  10.0190  10.0393
    10.0934  10.1201  10.1301  10.1569  10.2908  10.2919  10.2932  10.2952
    10.2975  10.2989  10.3019  10.3085  10.3100  10.3235  10.3279  10.3425
    10.3481  10.3498  10.3527  10.3548  10.3552  10.3726  10.3824  10.3825
    10.3997  10.5188  10.5197  10.5732  10.6086  10.6096  10.6309  10.6358
    10.6916  10.7611  10.7840  10.7854  10.7898  10.8214  10.8293  10.8380
    10.8428  10.8527  10.8631  10.8686  10.8723  10.8758  10.8798  10.8953
    10.9004  10.9201  10.9972  11.0375  11.0728  11.1082  11.2017  11.2180
    11.2224  11.2274  11.2554  11.2574  11.2792  11.2941  11.3359  11.3385
    11.3644  11.3651  11.3833  11.3901  11.3994  11.4034  11.4080  11.4116
    11.4186  11.4529  11.5871  11.5876  11.5891  11.5953  11.5981  11.6071
    11.6281  11.6709  11.7206  11.7270  11.7320  11.7400  11.7554  11.7861
    11.8321  11.8479  11.8599  11.8689  11.8770  11.8990  11.9327  11.9377
    11.9631  12.0578  12.0984  12.1008  12.1017  12.1030  12.1043  12.1392
    12.1416  12.1441  12.1443  12.1485  12.1526  12.1719  12.1918  12.2178
    12.2458  12.2594  12.3195  12.3209  12.3447  12.3484  12.3659  12.4035
    12.4056  12.4230  12.4342  12.4344  12.4587  12.4806  12.4875  12.4892
    12.5028  12.5200  12.5285  12.5485  12.5734  12.5824  12.5976  12.6252
    12.6816  12.7033  12.7790  12.7840  12.7884  12.8938  12.9943  13.0601
    13.1106  13.1375  13.2152  13.3170  13.3544  13.6613  13.7110  13.7312
    13.8825  14.0079  14.2353  14.2475  14.3106  14.3406  14.4338  14.4365
    14.7315  14.7741  14.7823  15.0185  15.1175  15.1620  15.2069  15.2570
    15.2654  15.2864  15.3107  15.3370  15.3798  15.4456  15.4875  15.5645
    15.6562  15.6853  15.7069  15.8170  15.8691  15.8850  15.9153  15.9376
    16.0034  16.0620  16.0791  16.1303  16.1358  16.1546  16.1599  16.1672
    16.2572  16.2712  16.2796  16.2961  16.3260  16.3386  16.3780  16.3903
    16.4433  16.4873  16.5186  16.5727  16.6143  16.6734  16.7797  16.8926
    17.0254  17.0462  17.0920  17.1661  17.1902  17.2432  17.2689  17.2846
    17.4351  17.5290  17.8850  17.8982  17.9192  17.9498  17.9514  18.1914
    18.2445  18.3192  18.4478  18.9461  19.0000  19.0035  19.0687  19.1780

          k = 0.0000 0.0000-0.5734 ( 31692 PWs)   bands (ev):

   -66.7846 -66.7630 -66.7433 -66.7391 -66.7309 -66.7266 -66.6115 -66.5819
   -66.5558 -62.4026 -62.3831 -62.3728 -62.3695 -62.3683 -62.3586 -62.3560
   -62.3442 -62.3235 -35.5365 -35.5315 -35.5262 -35.5150 -35.5092 -35.5063
   -35.5046 -35.4951 -35.4889 -35.4872 -35.4825 -35.4804 -35.4795 -35.4757
   -35.4614 -35.4555 -35.4506 -35.4432 -35.3659 -35.3557 -35.3540 -35.3481
   -35.3305 -35.3183 -35.3071 -35.2887 -35.2834 -31.2406 -31.2307 -31.2222
   -31.2154 -31.2135 -31.2133 -31.2086 -31.2057 -31.2042 -31.2013 -31.2004
   -31.1970 -31.1916 -31.1866 -31.1854 -31.1844 -31.1834 -31.1809 -31.1799
   -31.1785 -31.1724 -31.1617 -31.1602 -31.1559 -31.1495 -31.1474 -31.1433
     6.1713   6.1897   7.5360   7.5445   7.5628   7.5820   7.5840   7.5946
     7.6130   7.6198   8.3121   8.3247   8.3257   8.3305   8.3613   8.3664
     8.3672   8.3891   8.4578   8.4591   8.4789   8.4835   8.4944   8.4949
     8.5021   8.5035   8.6996   8.7076   8.7605   8.7776   8.9461   8.9652
     8.9653   8.9747   8.9749   8.9801   8.9813   8.9857   9.0086   9.0176
     9.0225   9.0349   9.0425   9.0541   9.0770   9.0984   9.1868   9.1991
     9.2153   9.2278   9.2412   9.2518   9.2739   9.2777   9.2796   9.2836
     9.2869   9.2877   9.2903   9.3024   9.3025   9.3088   9.4112   9.4129
     9.4260   9.4359   9.4407   9.4412   9.4544   9.4549   9.4575   9.4589
     9.4619   9.4777   9.4922   9.5085   9.5242   9.5424   9.6504   9.6746
     9.7822   9.7841   9.7979   9.8051   9.8065   9.8169   9.8289   9.8348
     9.8719   9.8724   9.8771   9.8787   9.8881   9.8892   9.8911   9.8922
    10.0585  10.0600  10.0601  10.0613  10.1315  10.1442  10.1538  10.1632
    10.1665  10.1834  10.1885  10.1946  10.1974  10.2099  10.3483  10.3503
    10.3682  10.3758  10.4017  10.4080  10.4139  10.4150  10.4754  10.4990
    10.5819  10.5830  10.6114  10.6191  10.6342  10.6514  10.6736  10.6757
    10.6780  10.7032  10.7085  10.7319  10.7411  10.7632  10.7759  10.7937
    10.9583  10.9644  10.9998  11.0200  11.0248  11.0305  11.0493  11.0659
    11.0946  11.1174  11.1281  11.1399  11.1454  11.1492  11.1520  11.1542
    11.2217  11.2311  11.2478  11.2496  11.2593  11.2604  11.2634  11.2668
    11.2723  11.2726  11.2804  11.2825  11.2881  11.2888  11.2962  11.2977
    11.3063  11.3067  11.3192  11.3203  11.5668  11.5870  11.7060  11.7079
    11.7081  11.7157  11.7192  11.7231  11.7292  11.7303  11.7332  11.7501
    11.7596  11.7602  11.7731  11.7735  11.7942  11.8509  11.8550  11.9121
    11.9649  11.9722  11.9798  11.9987  12.0079  12.0249  12.0467  12.0616
    12.1399  12.1662  12.1801  12.2171  12.2650  12.3477  12.3492  12.3643
    12.3933  12.4049  12.4070  12.4276  12.4323  12.4332  12.4378  12.4721
    12.4767  12.4997  12.5162  12.5366  12.5431  12.5721  12.5818  12.6097
    12.6513  12.7127  12.7345  12.7476  12.7605  12.7720  12.8887  12.9322
    12.9347  12.9658  13.0631  13.1016  13.1339  13.1571  13.1662  13.2132
    13.2156  13.2410  13.2448  13.2861  13.3144  13.5735  13.6670  13.7463
    13.9152  13.9956  14.0429  14.0712  14.0753  14.1398  14.2934  14.3892
    14.4695  14.8757  14.9003  14.9412  14.9789  15.0093  15.0647  15.0758
    15.1148  15.2161  15.2738  15.3193  15.3374  15.4180  15.4794  15.5249
    15.5744  15.7004  15.7099  15.7493  15.7791  15.8306  15.8720  16.0370
    16.0648  16.0708  16.0985  16.1370  16.1843  16.1935  16.2054  16.2263
    16.2326  16.2497  16.2573  16.2662  16.2693  16.2819  16.3199  16.3235
    16.3472  16.3593  16.5021  16.5769  16.6009  16.6346  16.7437  16.7961
    16.8641  16.9014  17.2670  17.2917  17.2959  17.3287  17.4527  17.4703
    17.5560  17.6046  17.7177  17.7255  17.7697  17.7707  17.8702  17.8760
    17.9165  17.9208  18.1885  18.2007  18.2328  18.2622  18.2936  18.3374

          k = 0.0000-0.5000 0.0000 ( 31722 PWs)   bands (ev):

   -66.7846 -66.7630 -66.7433 -66.7391 -66.7309 -66.7266 -66.6115 -66.5819
   -66.5558 -62.4026 -62.3831 -62.3728 -62.3695 -62.3683 -62.3586 -62.3560
   -62.3442 -62.3235 -35.5365 -35.5315 -35.5262 -35.5150 -35.5092 -35.5063
   -35.5046 -35.4951 -35.4889 -35.4872 -35.4825 -35.4804 -35.4795 -35.4757
   -35.4614 -35.4555 -35.4506 -35.4432 -35.3659 -35.3557 -35.3540 -35.3481
   -35.3305 -35.3183 -35.3071 -35.2887 -35.2834 -31.2406 -31.2307 -31.2222
   -31.2154 -31.2135 -31.2133 -31.2086 -31.2057 -31.2042 -31.2013 -31.2004
   -31.1970 -31.1916 -31.1866 -31.1854 -31.1844 -31.1834 -31.1809 -31.1799
   -31.1785 -31.1724 -31.1617 -31.1602 -31.1559 -31.1495 -31.1474 -31.1433
     6.0221   6.0566   7.4106   7.4495   7.4572   7.4609   7.6608   7.6842
     8.1024   8.1059   8.1299   8.1919   8.2071   8.2306   8.2398   8.2462
     8.3924   8.4449   8.4509   8.4541   8.6257   8.6329   8.6463   8.6536
     8.6663   8.6710   8.6724   8.6973   8.7606   8.7836   8.8144   8.8353
     8.8617   8.8648   8.8775   8.8786   8.9141   8.9162   8.9168   8.9182
     8.9248   8.9275   8.9353   8.9357   9.0354   9.0603   9.1596   9.1842
     9.1910   9.1987   9.2171   9.2207   9.2260   9.2273   9.3161   9.3396
     9.3624   9.3724   9.3797   9.3833   9.4770   9.4809   9.4895   9.5229
     9.5309   9.5313   9.5342   9.5756   9.5869   9.5961   9.6020   9.6049
     9.6108   9.6210   9.6282   9.6312   9.6314   9.6342   9.6360   9.6456
     9.6521   9.6626   9.6724   9.6798   9.6968   9.7145   9.7152   9.7330
     9.7401   9.7427   9.7520   9.7571   9.8971   9.9016   9.9454   9.9692
     9.9964  10.0606  10.1448  10.1854  10.2164  10.2306  10.2474  10.2492
    10.2603  10.2648  10.2681  10.2744  10.2773  10.2798  10.3439  10.3503
    10.3550  10.3712  10.3769  10.3829  10.4292  10.4352  10.4454  10.4518
    10.5253  10.5303  10.5460  10.5555  10.5636  10.5689  10.5789  10.5896
    10.5951  10.6066  10.6636  10.6645  10.7137  10.7275  10.7553  10.7737
    10.7970  10.8093  10.8231  10.8514  10.8641  10.8772  10.8862  10.9075
    10.9841  11.0064  11.0128  11.0213  11.0422  11.0982  11.1683  11.1754
    11.3430  11.3472  11.3486  11.3570  11.3742  11.3830  11.3918  11.3953
    11.4020  11.4168  11.4491  11.4810  11.4932  11.5355  11.5413  11.5434
    11.5651  11.5901  11.6067  11.6173  11.6226  11.6298  11.6788  11.6987
    11.7487  11.7673  11.7847  11.7863  11.8015  11.8148  11.8505  11.8506
    11.9034  11.9079  11.9104  11.9239  11.9369  11.9372  11.9451  11.9599
    11.9748  11.9789  11.9845  12.0141  12.0977  12.1028  12.1608  12.1697
    12.1927  12.1978  12.2062  12.2114  12.2390  12.2478  12.2563  12.2661
    12.2804  12.3311  12.3369  12.3614  12.3631  12.3705  12.3865  12.3935
    12.3956  12.4241  12.4383  12.4483  12.4583  12.4787  12.5189  12.5440
    12.5544  12.5855  12.6139  12.6486  12.6563  12.7486  12.7670  12.9004
    12.9057  12.9437  12.9671  12.9907  13.0230  13.0646  13.0836  13.1443
    13.1512  13.1605  13.1921  13.2035  13.2281  13.2404  13.2735  13.3170
    13.4366  13.4579  13.4778  13.5811  13.6237  14.4955  14.5301  14.5639
    14.6300  14.6914  14.7224  14.7799  14.8010  14.8470  14.8676  15.0064
    15.0136  15.1361  15.2989  15.3089  15.4089  15.4106  15.4581  15.5010
    15.5776  15.7315  15.7722  15.8557  15.8799  15.8841  15.9279  15.9998
    16.0150  16.0159  16.0471  16.0967  16.1055  16.1247  16.1889  16.2014
    16.2280  16.2310  16.2317  16.2736  16.2964  16.3180  16.3354  16.3762
    16.4287  16.4428  16.5237  16.6546  16.7089  16.7852  17.0194  17.0658
    17.1437  17.1913  17.2238  17.2955  17.3530  17.4106  17.6185  17.6256
    17.6772  17.7471  17.8257  17.8296  17.8643  17.8769  17.9142  17.9202
    18.0191  18.0538  18.1228  18.2396  19.2536  19.3057  19.3207  19.3821

          k = 0.0000-0.5000-0.5734 ( 31696 PWs)   bands (ev):

   -66.7846 -66.7630 -66.7433 -66.7391 -66.7309 -66.7266 -66.6115 -66.5819
   -66.5558 -62.4026 -62.3831 -62.3728 -62.3695 -62.3683 -62.3586 -62.3560
   -62.3442 -62.3235 -35.5365 -35.5315 -35.5262 -35.5150 -35.5092 -35.5063
   -35.5046 -35.4951 -35.4889 -35.4872 -35.4825 -35.4804 -35.4795 -35.4757
   -35.4614 -35.4555 -35.4506 -35.4432 -35.3659 -35.3557 -35.3540 -35.3481
   -35.3305 -35.3183 -35.3071 -35.2887 -35.2834 -31.2406 -31.2307 -31.2222
   -31.2154 -31.2135 -31.2133 -31.2086 -31.2057 -31.2042 -31.2013 -31.2004
   -31.1970 -31.1916 -31.1866 -31.1854 -31.1844 -31.1834 -31.1809 -31.1799
   -31.1785 -31.1724 -31.1617 -31.1602 -31.1559 -31.1495 -31.1474 -31.1433
     6.5186   6.5380   6.6265   6.6415   7.8339   7.8461   7.8491   7.8624
     7.9043   7.9139   7.9306   7.9425   8.2688   8.2720   8.2992   8.3007
     8.5168   8.5222   8.5277   8.5291   8.6695   8.6724   8.6799   8.6877
     8.6890   8.6939   8.7080   8.7207   8.7304   8.7314   8.7383   8.7422
     8.7511   8.7750   8.7799   8.7816   8.9478   8.9642   9.0348   9.0417
     9.0434   9.0440   9.0520   9.0542   9.1689   9.1866   9.2105   9.2157
     9.2171   9.2234   9.2332   9.2336   9.2394   9.2408   9.2455   9.2550
     9.2569   9.2576   9.2697   9.2730   9.3222   9.3547   9.3857   9.4045
     9.4148   9.4265   9.4480   9.4542   9.4591   9.4628   9.4654   9.4754
     9.5056   9.5116   9.5147   9.5245   9.5329   9.5401   9.5485   9.5547
     9.5789   9.5942   9.7514   9.7533   9.7967   9.8079   9.8097   9.8135
     9.8213   9.8330   9.8334   9.8403   9.8562   9.8608   9.8609   9.8775
     9.9492   9.9542  10.0104  10.0115  10.0285  10.0364  10.0496  10.0548
    10.3577  10.3655  10.3681  10.3714  10.3896  10.3933  10.4343  10.4367
    10.4427  10.4555  10.4616  10.4641  10.4730  10.5032  10.5180  10.5286
    10.5477  10.5502  10.5593  10.5713  10.5888  10.6061  10.6328  10.6413
    10.6516  10.6549  10.6717  10.6754  10.6889  10.6935  10.7292  10.7329
    10.7521  10.7809  10.8307  10.8403  10.9855  10.9905  11.0061  11.0126
    11.1115  11.1277  11.1510  11.1787  11.1834  11.1856  11.1930  11.1931
    11.2110  11.2112  11.3261  11.3262  11.3335  11.3393  11.3697  11.3829
    11.3838  11.3878  11.4140  11.4452  11.4452  11.4490  11.4861  11.4979
    11.5490  11.5493  11.5628  11.5684  11.5723  11.5754  11.6032  11.6278
    11.6405  11.6432  11.7347  11.7424  11.7514  11.7704  11.7837  11.8782
    11.8852  11.9067  11.9146  11.9187  11.9689  11.9751  11.9977  12.0044
    12.0091  12.0295  12.0325  12.0348  12.0352  12.0387  12.0423  12.0606
    12.1972  12.2176  12.2518  12.2570  12.2721  12.2773  12.3089  12.3317
    12.3358  12.3477  12.3695  12.3753  12.3830  12.4105  12.4441  12.4497
    12.4654  12.4743  12.4912  12.4955  12.5275  12.5357  12.5526  12.5817
    12.5964  12.6451  12.6479  12.6556  12.6646  12.6713  12.6882  12.7425
    12.7746  12.8305  12.8532  12.9394  12.9524  12.9700  12.9765  13.1548
    13.2866  13.2989  13.3930  13.4349  13.5369  13.6752  13.7154  13.8927
    13.9630  14.0156  14.0234  14.0801  14.1155  14.1575  14.1646  14.2013
    14.3051  14.5465  14.5558  14.6531  14.6787  14.7341  14.7765  15.0353
    15.0371  15.2938  15.2965  15.4166  15.4406  15.4476  15.5113  15.5727
    15.5889  15.6150  15.6583  15.6986  15.7356  15.8658  15.8849  15.9484
    15.9766  16.0974  16.1223  16.1700  16.1802  16.2017  16.2144  16.2201
    16.2826  16.2834  16.3019  16.3428  16.3886  16.3973  16.4135  16.4302
    16.4642  16.5384  16.5453  16.5817  16.5935  16.6333  16.6672  16.7243
    16.7640  16.7735  16.8363  16.8380  16.8889  16.8904  16.9511  17.0028
    17.1392  17.1611  17.2017  17.2046  18.6735  18.6781  18.6945  18.7120
    18.7432  18.7654  18.8052  18.8066  18.8687  18.8805  18.9862  19.0047

          k =-0.5000-0.5000 0.0000 ( 31612 PWs)   bands (ev):

   -66.7846 -66.7630 -66.7433 -66.7391 -66.7309 -66.7266 -66.6115 -66.5819
   -66.5558 -62.4026 -62.3831 -62.3728 -62.3695 -62.3683 -62.3586 -62.3560
   -62.3442 -62.3235 -35.5365 -35.5319 -35.5257 -35.5150 -35.5093 -35.5063
   -35.5046 -35.4952 -35.4889 -35.4872 -35.4825 -35.4804 -35.4794 -35.4757
   -35.4613 -35.4555 -35.4507 -35.4432 -35.3659 -35.3557 -35.3540 -35.3481
   -35.3305 -35.3183 -35.3071 -35.2887 -35.2834 -31.2406 -31.2307 -31.2222
   -31.2154 -31.2135 -31.2133 -31.2088 -31.2057 -31.2042 -31.2030 -31.2004
   -31.1938 -31.1916 -31.1867 -31.1865 -31.1844 -31.1826 -31.1809 -31.1800
   -31.1785 -31.1729 -31.1617 -31.1602 -31.1559 -31.1495 -31.1474 -31.1433
     6.4070   6.4302   6.4544   6.4565   8.0031   8.0096   8.0157   8.0269
     8.0974   8.1092   8.2831   8.3174   8.3271   8.3354   8.3372   8.3431
     8.3457   8.3501   8.3536   8.3574   8.3680   8.3754   8.5865   8.6084
     8.6404   8.6614   8.6790   8.6976   8.7093   8.7157   8.7286   8.7406
     8.7728   8.7776   8.9156   8.9321   8.9537   8.9708   8.9755   8.9759
     8.9827   8.9892   9.0020   9.0044   9.0156   9.0184   9.0318   9.0475
     9.1171   9.1245   9.3019   9.3059   9.3181   9.3266   9.3965   9.4091
     9.4176   9.4232   9.4241   9.4275   9.4301   9.4420   9.4479   9.4508
     9.4616   9.4686   9.4708   9.4764   9.4803   9.4809   9.4864   9.4962
     9.4989   9.5044   9.5133   9.5310   9.5441   9.5582   9.5791   9.5897
     9.6068   9.6090   9.6981   9.6993   9.7567   9.7986   9.8179   9.8317
     9.8323   9.8340   9.8346   9.8420   9.8499   9.8575  10.0419  10.0609
    10.0796  10.1000  10.1098  10.1108  10.1385  10.1444  10.1519  10.1624
    10.1774  10.1907  10.2016  10.2123  10.2207  10.2215  10.2252  10.2275
    10.2284  10.2304  10.2382  10.2476  10.4410  10.4787  10.4920  10.4949
    10.4981  10.5061  10.5262  10.5461  10.6091  10.6245  10.6390  10.6468
    10.6590  10.6617  10.6778  10.6812  10.6833  10.6867  10.6896  10.6965
    10.7019  10.7055  10.8080  10.8116  10.8305  10.8496  10.8652  10.8804
    10.9342  10.9480  11.1976  11.2081  11.2153  11.2167  11.3076  11.3215
    11.3229  11.3369  11.3498  11.3623  11.3866  11.3948  11.5424  11.5596
    11.5712  11.5801  11.6385  11.6438  11.6445  11.6448  11.6464  11.6477
    11.6725  11.6884  11.6895  11.7153  11.7264  11.7288  11.7737  11.7748
    11.8748  11.8749  11.8772  11.8791  11.8854  11.8861  11.9715  11.9956
    12.0053  12.0068  12.0627  12.0658  12.0659  12.1049  12.1083  12.1090
    12.1129  12.1134  12.1143  12.1198  12.1449  12.1450  12.1499  12.1605
    12.1721  12.1781  12.1934  12.2045  12.2172  12.2564  12.2649  12.2660
    12.2750  12.2808  12.2866  12.2885  12.2896  12.2940  12.2950  12.3221
    12.3604  12.3693  12.4379  12.4442  12.4584  12.5031  12.5266  12.5342
    12.5385  12.5471  12.5632  12.5727  12.5799  12.6133  12.6447  12.6566
    12.6576  12.6976  12.7432  12.8072  12.8489  12.8611  12.8907  12.9247
    12.9718  12.9741  13.0135  13.0228  13.1309  13.5451  13.5960  13.6186
    13.6541  13.6813  13.7029  13.9124  13.9424  13.9501  14.1078  14.1456
    14.1611  14.2207  14.4634  14.4828  14.4996  14.5646  14.7379  15.1096
    15.1253  15.1914  15.2106  15.2686  15.3679  15.4020  15.6635  15.7612
    15.7730  15.7984  15.8090  15.8118  15.8783  15.9017  15.9202  15.9650
    15.9815  15.9897  16.0001  16.0132  16.0368  16.0467  16.0642  16.1624
    16.1843  16.2006  16.2904  16.3117  16.3187  16.3232  16.3464  16.4204
    16.4866  16.4900  16.5387  16.6596  16.6716  16.6889  16.6950  16.7271
    16.7808  16.8883  16.9577  16.9788  17.3846  17.3885  17.7984  17.9274
    18.1634  18.1911  18.2048  18.2094  18.2641  18.4159  18.5293  18.5510
    18.6121  18.6362  18.6429  18.6667  18.7349  18.7902  18.7988  18.8039

          k =-0.5000-0.5000-0.5734 ( 31672 PWs)   bands (ev):

   -66.7846 -66.7630 -66.7433 -66.7391 -66.7309 -66.7266 -66.6115 -66.5819
   -66.5558 -62.4026 -62.3831 -62.3728 -62.3695 -62.3683 -62.3586 -62.3560
   -62.3442 -62.3235 -35.5365 -35.5319 -35.5257 -35.5150 -35.5093 -35.5063
   -35.5046 -35.4952 -35.4889 -35.4872 -35.4825 -35.4804 -35.4794 -35.4757
   -35.4613 -35.4555 -35.4507 -35.4432 -35.3659 -35.3557 -35.3540 -35.3481
   -35.3305 -35.3183 -35.3071 -35.2887 -35.2834 -31.2406 -31.2307 -31.2222
   -31.2154 -31.2135 -31.2133 -31.2088 -31.2057 -31.2042 -31.2030 -31.2004
   -31.1938 -31.1916 -31.1867 -31.1865 -31.1844 -31.1826 -31.1809 -31.1800
   -31.1785 -31.1729 -31.1617 -31.1602 -31.1559 -31.1495 -31.1474 -31.1433
     6.8864   6.9153   6.9198   6.9297   6.9933   7.0044   7.0296   7.0469
     8.4503   8.4582   8.4688   8.4753   8.4825   8.4864   8.4889   8.4916
     8.5014   8.5040   8.5155   8.5218   8.5372   8.5401   8.5420   8.5610
     8.5701   8.5717   8.5946   8.6073   8.8772   8.8808   8.8849   8.8864
     8.9070   8.9121   8.9255   8.9309   9.0897   9.1088   9.1103   9.1180
     9.1237   9.1447   9.1467   9.1494   9.1510   9.1544   9.1545   9.1633
     9.1635   9.1678   9.1685   9.1696   9.1721   9.1747   9.1767   9.1816
     9.1831   9.1841   9.1902   9.1910   9.1967   9.2038   9.2062   9.2188
     9.2329   9.2340   9.2404   9.2418   9.2538   9.2587   9.2614   9.2699
     9.5433   9.5443   9.5603   9.5711   9.5772   9.5831   9.6100   9.6146
     9.6477   9.6603   9.6656   9.6781   9.7190   9.7387   9.7539   9.7778
     9.8167   9.8384   9.8448   9.8505   9.8759   9.8773   9.8848   9.8956
    10.1151  10.1261  10.1399  10.1500  10.1658  10.1714  10.1779  10.1787
    10.2912  10.3053  10.4430  10.4512  10.4670  10.4676  10.4734  10.4746
    10.4845  10.4867  10.4913  10.4958  10.4992  10.5024  10.5153  10.5177
    10.5212  10.5281  10.5376  10.5473  10.5608  10.5609  10.5791  10.5844
    10.5978  10.6186  10.6318  10.6411  10.6491  10.6703  10.6782  10.6836
    10.6905  10.6912  10.7007  10.7054  10.7170  10.7209  11.0431  11.0475
    11.0592  11.0666  11.0930  11.0945  11.1098  11.1099  11.3697  11.3699
    11.3967  11.3986  11.4016  11.4257  11.4412  11.4502  11.4660  11.4712
    11.4770  11.4912  11.5008  11.5069  11.5081  11.5161  11.6381  11.6401
    11.6446  11.6469  11.6696  11.6720  11.6861  11.6879  11.7023  11.7231
    11.7246  11.7276  11.7342  11.7438  11.7754  11.7769  11.7846  11.7877
    11.7984  11.8012  11.8124  11.8285  11.8321  11.8401  11.9901  12.0067
    12.0153  12.0502  12.0579  12.0646  12.1038  12.1231  12.1313  12.1392
    12.1647  12.1864  12.2046  12.2173  12.2432  12.2690  12.2860  12.2920
    12.2951  12.3496  12.4032  12.4220  12.4279  12.4368  12.4558  12.4585
    12.4822  12.4838  12.5397  12.5572  12.5656  12.5784  12.5878  12.5934
    12.6196  12.6509  12.6795  12.6849  12.6922  12.7047  12.7157  12.7620
    12.8103  12.8409  12.9557  12.9589  13.0732  13.0821  13.1134  13.1717
    13.2473  13.2877  13.2971  13.3144  13.4115  13.4719  13.5228  13.5420
    13.6238  13.6929  13.8431  13.8706  13.8779  13.9198  14.0749  14.1134
    14.1444  14.1674  14.2286  14.6476  14.7131  14.7491  14.8455  15.0620
    15.0633  15.1758  15.2154  15.4432  15.4446  15.5817  15.6648  15.7008
    15.7020  15.7825  15.8282  15.8330  15.8693  15.9049  15.9195  15.9386
    15.9488  15.9924  16.0688  16.0712  16.1378  16.1831  16.1866  16.2068
    16.2151  16.2195  16.2344  16.2411  16.3471  16.4203  16.4572  16.4959
    16.5170  16.5227  16.5888  16.5980  16.6432  16.6759  16.6816  16.6863
    16.7726  16.8555  16.8696  16.8903  16.8964  16.9328  16.9838  17.0186
    17.0792  17.1052  17.7318  17.8075  17.8532  17.8574  19.0119  19.0179
    19.0504  19.0512  19.0630  19.0950  19.1689  19.2349  19.3005  19.3037

          k =-0.5000 0.0000 0.0000 ( 31722 PWs)   bands (ev):

   -66.7846 -66.7630 -66.7433 -66.7391 -66.7309 -66.7266 -66.6115 -66.5819
   -66.5558 -62.4026 -62.3831 -62.3728 -62.3695 -62.3683 -62.3586 -62.3560
   -62.3442 -62.3235 -35.5365 -35.5319 -35.5257 -35.5150 -35.5093 -35.5063
   -35.5046 -35.4952 -35.4889 -35.4872 -35.4825 -35.4804 -35.4794 -35.4757
   -35.4613 -35.4555 -35.4507 -35.4432 -35.3659 -35.3557 -35.3540 -35.3481
   -35.3305 -35.3183 -35.3071 -35.2887 -35.2834 -31.2406 -31.2307 -31.2222
   -31.2154 -31.2135 -31.2133 -31.2088 -31.2057 -31.2042 -31.2030 -31.2004
   -31.1938 -31.1916 -31.1867 -31.1865 -31.1844 -31.1826 -31.1809 -31.1800
   -31.1785 -31.1729 -31.1617 -31.1602 -31.1559 -31.1495 -31.1474 -31.1433
     6.0326   6.0472   7.4042   7.4097   7.4704   7.4884   7.6696   7.6767
     8.1081   8.1130   8.1424   8.1729   8.1928   8.2043   8.2612   8.2750
     8.3843   8.3940   8.4760   8.4944   8.6175   8.6237   8.6335   8.6524
     8.6561   8.6719   8.6910   8.7103   8.7876   8.8081   8.8143   8.8218
     8.8325   8.8505   8.8754   8.8861   8.8931   8.8993   8.9096   8.9117
     8.9361   8.9422   8.9472   8.9566   9.0459   9.0506   9.1548   9.1571
     9.1905   9.2058   9.2174   9.2201   9.2280   9.2344   9.3100   9.3150
     9.3509   9.3680   9.3961   9.4174   9.4711   9.4745   9.4793   9.4813
     9.5304   9.5469   9.5624   9.5749   9.5841   9.5940   9.6054   9.6132
     9.6184   9.6282   9.6312   9.6332   9.6377   9.6395   9.6420   9.6462
     9.6469   9.6539   9.6628   9.6646   9.7051   9.7106   9.7112   9.7125
     9.7378   9.7474   9.7625   9.7643   9.8956   9.9004   9.9325   9.9563
    10.0180  10.0330  10.1629  10.1909  10.2086  10.2120  10.2503  10.2537
    10.2700  10.2707  10.2719  10.2759  10.2826  10.2847  10.3461  10.3525
    10.3774  10.3799  10.3814  10.3852  10.4241  10.4306  10.4716  10.4808
    10.4859  10.5067  10.5190  10.5203  10.5256  10.5359  10.5848  10.5899
    10.6595  10.6672  10.6876  10.6977  10.7192  10.7195  10.7400  10.7636
    10.8120  10.8248  10.8345  10.8474  10.8585  10.8624  10.8847  10.8987
    10.9470  10.9568  11.0097  11.0189  11.0708  11.0845  11.1783  11.1848
    11.2788  11.3036  11.3452  11.3469  11.3626  11.3647  11.3997  11.4147
    11.4575  11.4598  11.4697  11.4794  11.4927  11.5123  11.5223  11.5609
    11.5804  11.5895  11.5968  11.6069  11.6609  11.6702  11.6814  11.7363
    11.7509  11.7794  11.7919  11.8017  11.8337  11.8555  11.8623  11.8686
    11.8686  11.8731  11.8811  11.9070  11.9205  11.9225  11.9433  11.9505
    11.9637  11.9824  12.0144  12.0166  12.0842  12.1183  12.1530  12.1556
    12.1603  12.1958  12.2080  12.2173  12.2432  12.2486  12.2506  12.2672
    12.2709  12.2920  12.2987  12.3613  12.3746  12.3819  12.3963  12.4132
    12.4434  12.4454  12.4541  12.4598  12.4753  12.5063  12.5269  12.5505
    12.5821  12.5883  12.6130  12.6739  12.7173  12.7263  12.7466  12.7667
    12.7820  12.8500  12.9030  12.9102  12.9768  13.0293  13.1303  13.1478
    13.1622  13.1698  13.2122  13.2325  13.2574  13.3018  13.3150  13.4150
    13.4348  13.4608  13.5197  13.5678  13.6331  14.3279  14.4990  14.5538
    14.5740  14.7462  14.7715  14.8035  14.8486  14.8668  15.0237  15.0740
    15.0994  15.1008  15.1479  15.2634  15.3226  15.4057  15.4991  15.6702
    15.6839  15.7371  15.7668  15.7856  15.8489  15.8734  15.9406  15.9845
    15.9877  16.0215  16.0417  16.0458  16.0580  16.0719  16.1204  16.1450
    16.1888  16.2007  16.2213  16.2358  16.2503  16.2854  16.3327  16.3668
    16.4284  16.4546  16.7009  16.7119  16.7309  16.8283  16.9209  16.9974
    17.1439  17.2240  17.2773  17.2938  17.5518  17.5668  17.6028  17.6042
    17.7248  17.7485  17.7682  17.7847  17.8029  17.8627  17.9049  17.9270
    17.9926  18.1001  18.1152  18.1791  19.2802  19.3143  19.3465  19.3894

          k =-0.5000 0.0000 0.5734 ( 31696 PWs)   bands (ev):

   -66.7846 -66.7630 -66.7433 -66.7391 -66.7309 -66.7266 -66.6115 -66.5819
   -66.5558 -62.4026 -62.3831 -62.3728 -62.3695 -62.3683 -62.3586 -62.3560
   -62.3442 -62.3235 -35.5365 -35.5319 -35.5257 -35.5150 -35.5093 -35.5063
   -35.5046 -35.4952 -35.4889 -35.4872 -35.4825 -35.4804 -35.4794 -35.4757
   -35.4613 -35.4555 -35.4507 -35.4432 -35.3659 -35.3557 -35.3540 -35.3481
   -35.3305 -35.3183 -35.3071 -35.2887 -35.2834 -31.2406 -31.2307 -31.2222
   -31.2154 -31.2135 -31.2133 -31.2088 -31.2057 -31.2042 -31.2030 -31.2004
   -31.1938 -31.1916 -31.1867 -31.1865 -31.1844 -31.1826 -31.1809 -31.1800
   -31.1785 -31.1729 -31.1617 -31.1602 -31.1559 -31.1495 -31.1474 -31.1433
     6.5525   6.5738   6.5887   6.6019   7.8327   7.8492   7.8647   7.8743
     7.9052   7.9205   7.9217   7.9337   8.2690   8.2719   8.2972   8.2988
     8.5109   8.5153   8.5348   8.5358   8.6565   8.6668   8.6684   8.6811
     8.6919   8.6939   8.7060   8.7068   8.7172   8.7216   8.7500   8.7510
     8.7550   8.7596   8.7957   8.8156   8.9745   8.9960   9.0066   9.0186
     9.0340   9.0393   9.0516   9.0610   9.2005   9.2018   9.2109   9.2168
     9.2176   9.2185   9.2235   9.2289   9.2421   9.2502   9.2561   9.2624
     9.2690   9.2711   9.2817   9.2950   9.3005   9.3024   9.3839   9.3996
     9.4104   9.4210   9.4552   9.4580   9.4644   9.4646   9.4720   9.4849
     9.4980   9.5105   9.5108   9.5181   9.5229   9.5302   9.5392   9.5413
     9.5459   9.5620   9.7547   9.7566   9.7911   9.7929   9.8044   9.8055
     9.8300   9.8377   9.8411   9.8435   9.8637   9.8696   9.8731   9.8901
     9.9662   9.9741   9.9873   9.9984  10.0048  10.0167  10.0663  10.0707
    10.3767  10.3957  10.3992  10.4047  10.4057  10.4074  10.4239  10.4559
    10.4655  10.4656  10.4740  10.4754  10.4884  10.4884  10.4948  10.4986
    10.5088  10.5108  10.5573  10.5595  10.5778  10.6065  10.6281  10.6311
    10.6388  10.6443  10.6636  10.6698  10.6885  10.6915  10.7297  10.7337
    10.7502  10.7769  10.8549  10.8658  10.9528  10.9600  11.0800  11.0906
    11.1101  11.1227  11.1252  11.1322  11.1622  11.1816  11.1965  11.2002
    11.2106  11.2111  11.2918  11.3152  11.3527  11.3606  11.3616  11.3734
    11.3734  11.3763  11.4028  11.4090  11.4792  11.4821  11.4834  11.5055
    11.5120  11.5186  11.5802  11.5831  11.5926  11.5989  11.6164  11.6320
    11.6389  11.6466  11.7245  11.7280  11.7419  11.7951  11.7967  11.8037
    11.9140  11.9170  11.9273  11.9390  11.9453  11.9721  11.9789  12.0080
    12.0311  12.0355  12.0362  12.0383  12.0718  12.1001  12.1067  12.1072
    12.1601  12.1625  12.1741  12.1809  12.2412  12.2575  12.2836  12.2960
    12.3296  12.4023  12.4044  12.4262  12.4276  12.4434  12.4463  12.4542
    12.5035  12.5154  12.5326  12.5619  12.5821  12.6015  12.6016  12.6071
    12.6278  12.6344  12.6427  12.6445  12.6466  12.6671  12.6946  12.7232
    12.7407  12.8049  12.8168  12.8871  12.8976  12.9219  12.9286  12.9490
    13.0527  13.1944  13.4038  13.5390  13.5757  13.6084  13.7840  13.7930
    13.9031  14.0630  14.0911  14.2664  14.2690  14.3179  14.3292  14.4207
    14.4369  14.5248  14.5476  14.5567  14.5774  14.6149  14.6208  14.8973
    14.9005  15.2620  15.2894  15.3400  15.4041  15.4766  15.4815  15.5051
    15.6031  15.7176  15.7822  15.8282  15.8624  15.8747  15.9068  15.9669
    15.9762  16.0627  16.0883  16.1085  16.1228  16.1274  16.1434  16.1814
    16.1855  16.2644  16.2905  16.3137  16.3507  16.3550  16.3936  16.4039
    16.4299  16.5314  16.5531  16.5596  16.6133  16.6231  16.7330  16.7611
    16.8105  16.8228  16.9193  16.9255  16.9728  16.9832  16.9957  17.0329
    17.1066  17.1545  17.1720  17.1934  18.6028  18.6309  18.6589  18.6730
    18.7432  18.7736  18.8526  18.8728  18.8943  18.9156  18.9175  18.9425

 ------ SPIN DOWN ----------


          k = 0.0000 0.0000 0.0000 ( 31747 PWs)   bands (ev):

   -66.7682 -66.7220 -66.7000 -66.6932 -66.6716 -66.6352 -66.6177 -66.5962
   -66.5929 -62.4088 -62.4012 -62.3969 -62.3931 -62.3895 -62.3818 -62.3170
   -62.2998 -62.2947 -35.5285 -35.5118 -35.4929 -35.4880 -35.4711 -35.4709
   -35.4629 -35.4428 -35.4374 -35.4370 -35.4349 -35.4284 -35.4145 -35.4045
   -35.4015 -35.3966 -35.3743 -35.3737 -35.3627 -35.3576 -35.3479 -35.3472
   -35.3415 -35.3413 -35.3402 -35.3318 -35.3292 -31.2453 -31.2425 -31.2372
   -31.2335 -31.2326 -31.2271 -31.2261 -31.2261 -31.2249 -31.2206 -31.2166
   -31.2136 -31.2132 -31.2074 -31.2025 -31.1995 -31.1952 -31.1945 -31.1534
   -31.1522 -31.1480 -31.1438 -31.1282 -31.1252 -31.1159 -31.1015 -31.1007
     5.6173   7.1409   7.1648   7.1968   7.2201   7.3666   7.8486   7.8920
     7.9293   7.9405   8.0611   8.1210   8.1375   8.1765   8.1919   8.2404
     8.2627   8.2967   8.3198   8.5110   8.5456   8.5691   8.5807   8.5972
     8.6107   8.8506   8.8556   8.8658   8.8847   8.8875   8.8901   8.8911
     8.9061   8.9084   8.9139   8.9258   8.9324   8.9625   8.9705   8.9863
     9.0086   9.0852   9.1205   9.1246   9.1312   9.1402   9.1520   9.1598
     9.1846   9.2081   9.2105   9.2677   9.2895   9.3029   9.3056   9.3499
     9.3580   9.3649   9.3703   9.3723   9.3912   9.3964   9.4009   9.4294
     9.4411   9.4488   9.4542   9.4558   9.4582   9.4610   9.4932   9.5796
     9.5814   9.5823   9.5897   9.5949   9.6260   9.6676   9.6707   9.6720
     9.6773   9.6788   9.6958   9.7389   9.7535   9.7884   9.8078   9.8506
     9.8525   9.9039   9.9145   9.9398   9.9550   9.9608  10.0257  10.0431
    10.0939  10.1207  10.1340  10.1611  10.2873  10.2886  10.2930  10.2956
    10.3056  10.3069  10.3075  10.3084  10.3188  10.3298  10.3396  10.3420
    10.3436  10.3550  10.3613  10.3649  10.3662  10.3698  10.3851  10.3964
    10.4016  10.5193  10.5207  10.5722  10.6166  10.6226  10.6398  10.6724
    10.6997  10.7861  10.7889  10.7910  10.8123  10.8151  10.8269  10.8312
    10.8450  10.8541  10.8572  10.8756  10.8769  10.8787  10.8799  10.8893
    10.9093  10.9232  11.0035  11.0329  11.0771  11.1094  11.2131  11.2209
    11.2256  11.2273  11.2343  11.2647  11.3239  11.3247  11.3352  11.3504
    11.3614  11.3817  11.3898  11.3912  11.3938  11.4024  11.4115  11.4178
    11.4457  11.4487  11.5152  11.5913  11.5927  11.5954  11.5991  11.5997
    11.6445  11.6690  11.7265  11.7324  11.7441  11.7541  11.7744  11.8334
    11.8448  11.8682  11.8726  11.8771  11.9224  11.9288  11.9427  11.9554
    11.9768  11.9900  12.0611  12.1016  12.1024  12.1051  12.1063  12.1308
    12.1417  12.1441  12.1487  12.1496  12.1563  12.1798  12.2210  12.2344
    12.2509  12.2584  12.2641  12.2644  12.3339  12.3525  12.3945  12.4082
    12.4365  12.4366  12.4505  12.4920  12.5104  12.5122  12.5218  12.5278
    12.5497  12.5654  12.5825  12.5908  12.5927  12.6006  12.6623  12.7086
    12.7172  12.7235  12.7311  12.7511  12.7668  12.8609  13.0924  13.0986
    13.1171  13.1349  13.2001  13.2200  13.3910  13.6440  13.8129  13.8347
    13.8740  14.0331  14.1391  14.1927  14.2790  14.3554  14.3894  14.6832
    14.7610  14.8152  14.8229  14.9800  15.0248  15.0405  15.1559  15.1646
    15.2103  15.3632  15.3672  15.3977  15.4291  15.4567  15.5653  15.6237
    15.6270  15.7255  15.7306  15.7663  15.7673  15.8734  15.8842  16.0146
    16.0241  16.0482  16.1111  16.1115  16.1196  16.1676  16.1829  16.2087
    16.2605  16.2784  16.3092  16.3176  16.3384  16.3512  16.3727  16.3932
    16.4276  16.4682  16.4755  16.6074  16.6213  16.6979  16.7751  16.7974
    16.9675  17.0324  17.0790  17.1651  17.2151  17.2371  17.2910  17.3167
    17.4499  17.5895  17.8500  17.9087  17.9245  17.9325  17.9713  18.1766
    18.2841  18.3300  18.4246  18.9237  18.9494  19.0541  19.1277  19.2758

          k = 0.0000 0.0000-0.5734 ( 31692 PWs)   bands (ev):

   -66.7682 -66.7220 -66.7000 -66.6932 -66.6716 -66.6352 -66.6177 -66.5962
   -66.5929 -62.4088 -62.4012 -62.3969 -62.3931 -62.3895 -62.3818 -62.3170
   -62.2998 -62.2947 -35.5285 -35.5118 -35.4929 -35.4880 -35.4711 -35.4709
   -35.4629 -35.4428 -35.4374 -35.4370 -35.4349 -35.4284 -35.4145 -35.4045
   -35.4015 -35.3966 -35.3743 -35.3737 -35.3627 -35.3576 -35.3479 -35.3472
   -35.3415 -35.3413 -35.3402 -35.3318 -35.3292 -31.2453 -31.2425 -31.2372
   -31.2335 -31.2326 -31.2271 -31.2261 -31.2261 -31.2249 -31.2206 -31.2166
   -31.2136 -31.2132 -31.2074 -31.2025 -31.1995 -31.1952 -31.1945 -31.1534
   -31.1522 -31.1480 -31.1438 -31.1282 -31.1252 -31.1159 -31.1015 -31.1007
     6.1757   6.1972   7.5394   7.5530   7.5664   7.5840   7.5870   7.6022
     7.6193   7.6302   8.3084   8.3250   8.3392   8.3490   8.3617   8.3695
     8.3784   8.3869   8.4525   8.4557   8.4782   8.4784   8.4901   8.5002
     8.5250   8.5254   8.7010   8.7099   8.7619   8.7806   8.9447   8.9648
     8.9659   8.9807   8.9812   8.9872   8.9874   8.9946   9.0088   9.0179
     9.0283   9.0421   9.0439   9.0571   9.0819   9.1067   9.1946   9.2116
     9.2175   9.2326   9.2467   9.2596   9.2731   9.2747   9.2809   9.2854
     9.2897   9.2905   9.2952   9.3047   9.3079   9.3099   9.4104   9.4105
     9.4300   9.4306   9.4374   9.4484   9.4517   9.4552   9.4629   9.4755
     9.4887   9.4955   9.5022   9.5167   9.5278   9.5471   9.6509   9.6795
     9.7885   9.7934   9.7991   9.8053   9.8061   9.8192   9.8275   9.8354
     9.8791   9.8812   9.8816   9.8834   9.8884   9.8908   9.8924   9.8937
    10.0592  10.0612  10.0637  10.0655  10.1394  10.1568  10.1589  10.1696
    10.1719  10.1864  10.1880  10.1933  10.2049  10.2161  10.3594  10.3610
    10.3761  10.3794  10.3931  10.4044  10.4181  10.4211  10.4789  10.5036
    10.5961  10.5972  10.6134  10.6170  10.6229  10.6358  10.6678  10.6722
    10.6725  10.6889  10.7097  10.7445  10.7527  10.8001  10.8014  10.8162
    10.9808  10.9992  10.9993  11.0074  11.0145  11.0199  11.0388  11.0830
    11.0872  11.0997  11.1074  11.1290  11.1503  11.1656  11.2046  11.2167
    11.2380  11.2437  11.2513  11.2514  11.2621  11.2625  11.2720  11.2729
    11.2743  11.2804  11.2814  11.2835  11.2906  11.2907  11.2971  11.3000
    11.3071  11.3090  11.3252  11.3261  11.5592  11.5744  11.7144  11.7150
    11.7159  11.7205  11.7237  11.7246  11.7265  11.7276  11.7348  11.7660
    11.7766  11.7815  11.7885  11.7966  11.8070  11.8228  11.8292  11.9293
    11.9815  11.9887  11.9948  12.0157  12.0277  12.0329  12.0500  12.0721
    12.1315  12.1711  12.1965  12.2345  12.2583  12.3343  12.3481  12.3687
    12.3759  12.4300  12.4362  12.4772  12.4802  12.4823  12.4853  12.4899
    12.4984  12.5049  12.5352  12.5395  12.5456  12.5542  12.5785  12.6454
    12.6571  12.6793  12.6853  12.7713  12.7832  12.8135  12.9222  12.9693
    12.9827  13.0340  13.0520  13.0748  13.1360  13.1609  13.2273  13.2275
    13.2443  13.2744  13.2871  13.3099  13.3230  13.5418  13.6247  13.7277
    13.9083  13.9620  13.9877  14.1181  14.1543  14.1630  14.2982  14.4739
    14.5215  14.8611  14.9011  14.9135  14.9830  14.9986  15.0061  15.1177
    15.1633  15.1671  15.1734  15.3287  15.3650  15.4144  15.4669  15.5493
    15.6577  15.6634  15.6813  15.7686  15.8004  15.8765  15.9510  15.9790
    16.0825  16.0861  16.1157  16.1490  16.1725  16.1848  16.2063  16.2164
    16.2302  16.2456  16.2538  16.2621  16.2726  16.2880  16.2967  16.2999
    16.3239  16.3523  16.5124  16.5875  16.5930  16.6735  16.7102  16.7410
    16.8472  16.8929  17.3219  17.3278  17.3530  17.4031  17.4816  17.5443
    17.5538  17.5651  17.6637  17.6936  17.7117  17.7437  17.8861  17.9058
    17.9178  17.9204  18.1662  18.2338  18.2338  18.2733  18.2985  18.3286

          k = 0.0000-0.5000 0.0000 ( 31722 PWs)   bands (ev):

   -66.7682 -66.7220 -66.7000 -66.6932 -66.6716 -66.6352 -66.6177 -66.5962
   -66.5929 -62.4088 -62.4012 -62.3969 -62.3931 -62.3895 -62.3818 -62.3170
   -62.2998 -62.2947 -35.5285 -35.5118 -35.4929 -35.4880 -35.4711 -35.4709
   -35.4629 -35.4428 -35.4374 -35.4370 -35.4349 -35.4284 -35.4145 -35.4045
   -35.4015 -35.3966 -35.3743 -35.3737 -35.3627 -35.3576 -35.3479 -35.3472
   -35.3415 -35.3413 -35.3402 -35.3318 -35.3292 -31.2453 -31.2425 -31.2372
   -31.2335 -31.2326 -31.2271 -31.2261 -31.2261 -31.2249 -31.2206 -31.2166
   -31.2136 -31.2132 -31.2074 -31.2025 -31.1995 -31.1952 -31.1945 -31.1534
   -31.1522 -31.1480 -31.1438 -31.1282 -31.1252 -31.1159 -31.1015 -31.1007
     6.0185   6.0720   7.4250   7.4309   7.4442   7.5004   7.6760   7.6794
     8.0920   8.1137   8.1459   8.1821   8.2092   8.2353   8.2513   8.2642
     8.4058   8.4214   8.4376   8.4941   8.6336   8.6397   8.6414   8.6468
     8.6580   8.6636   8.7056   8.7126   8.7544   8.8073   8.8322   8.8413
     8.8474   8.8693   8.8841   8.8902   8.8971   8.9102   8.9166   8.9214
     8.9249   8.9305   8.9415   8.9630   9.0462   9.0559   9.1661   9.1688
     9.1832   9.2083   9.2220   9.2270   9.2306   9.2497   9.3383   9.3416
     9.3458   9.3545   9.3836   9.4161   9.4718   9.4869   9.4969   9.5049
     9.5220   9.5338   9.5781   9.5807   9.5867   9.6032   9.6103   9.6129
     9.6213   9.6280   9.6301   9.6317   9.6372   9.6391   9.6442   9.6472
     9.6565   9.6624   9.6781   9.6894   9.6972   9.7052   9.7197   9.7230
     9.7303   9.7456   9.7776   9.7858   9.8878   9.9137   9.9449   9.9670
    10.0219  10.0413  10.1380  10.2003  10.2185  10.2301  10.2518  10.2567
    10.2595  10.2612  10.2614  10.2642  10.2928  10.2984  10.3376  10.3516
    10.3615  10.3761  10.3894  10.3942  10.4315  10.4446  10.4512  10.4724
    10.5262  10.5314  10.5373  10.5544  10.5635  10.5704  10.5736  10.5876
    10.6059  10.6528  10.6567  10.6942  10.7042  10.7403  10.7503  10.7758
    10.7860  10.8193  10.8203  10.8576  10.8604  10.8708  10.9017  10.9428
    10.9994  11.0092  11.0157  11.0251  11.0399  11.0824  11.1722  11.1816
    11.3484  11.3506  11.3527  11.3787  11.3792  11.4010  11.4013  11.4137
    11.4216  11.4347  11.4574  11.4791  11.4795  11.5352  11.5415  11.5424
    11.5611  11.5728  11.5834  11.6178  11.6234  11.6481  11.6704  11.7380
    11.7656  11.7847  11.7915  11.8192  11.8528  11.8681  11.8686  11.8728
    11.8940  11.9001  11.9210  11.9252  11.9411  11.9426  11.9552  11.9601
    11.9697  11.9726  11.9879  11.9956  12.0536  12.0922  12.1690  12.1698
    12.1958  12.2075  12.2099  12.2148  12.2291  12.2529  12.2728  12.2832
    12.2881  12.2945  12.3192  12.3221  12.3446  12.4044  12.4110  12.4457
    12.4491  12.4846  12.4870  12.4929  12.5133  12.5402  12.5483  12.5610
    12.5731  12.6096  12.6186  12.6440  12.6556  12.6640  12.7291  12.7989
    12.8669  13.0077  13.0338  13.0681  13.0988  13.1027  13.1150  13.1443
    13.1650  13.1787  13.2023  13.2331  13.2530  13.2833  13.3416  13.3430
    13.3481  13.4665  13.4993  13.5815  13.6341  14.4529  14.4787  14.5744
    14.6435  14.7362  14.7642  14.7690  14.7982  14.9030  14.9487  14.9913
    15.0504  15.0683  15.1129  15.2527  15.4266  15.4643  15.5378  15.6295
    15.7024  15.7676  15.7886  15.7927  15.8009  15.8107  15.8478  16.0174
    16.0197  16.0595  16.0737  16.0840  16.1202  16.1349  16.1579  16.1760
    16.1903  16.2047  16.2439  16.2527  16.2961  16.3193  16.3702  16.4213
    16.4304  16.4975  16.5577  16.6005  16.6562  16.7787  17.0450  17.0722
    17.1382  17.1888  17.2184  17.3242  17.4051  17.4346  17.6161  17.6354
    17.7214  17.7674  17.7709  17.8255  17.8507  17.8709  17.8748  17.9747
    17.9880  18.0020  18.1761  18.2750  19.2293  19.2938  19.3411  19.3843

          k = 0.0000-0.5000-0.5734 ( 31696 PWs)   bands (ev):

   -66.7682 -66.7220 -66.7000 -66.6932 -66.6716 -66.6352 -66.6177 -66.5962
   -66.5929 -62.4088 -62.4012 -62.3969 -62.3931 -62.3895 -62.3818 -62.3170
   -62.2998 -62.2947 -35.5285 -35.5118 -35.4929 -35.4880 -35.4711 -35.4709
   -35.4629 -35.4428 -35.4374 -35.4370 -35.4349 -35.4284 -35.4145 -35.4045
   -35.4015 -35.3966 -35.3743 -35.3737 -35.3627 -35.3576 -35.3479 -35.3472
   -35.3415 -35.3413 -35.3402 -35.3318 -35.3292 -31.2453 -31.2425 -31.2372
   -31.2335 -31.2326 -31.2271 -31.2261 -31.2261 -31.2249 -31.2206 -31.2166
   -31.2136 -31.2132 -31.2074 -31.2025 -31.1995 -31.1952 -31.1945 -31.1534
   -31.1522 -31.1480 -31.1438 -31.1282 -31.1252 -31.1159 -31.1015 -31.1007
     6.5270   6.5491   6.6260   6.6448   7.8340   7.8604   7.8627   7.8690
     7.9092   7.9158   7.9284   7.9512   8.2714   8.2781   8.3020   8.3049
     8.5173   8.5256   8.5328   8.5360   8.6663   8.6726   8.6746   8.6756
     8.6860   8.7015   8.7122   8.7263   8.7311   8.7368   8.7503   8.7537
     8.7565   8.7848   8.7876   8.7902   8.9534   8.9693   9.0371   9.0428
     9.0432   9.0480   9.0571   9.0595   9.1911   9.2062   9.2140   9.2169
     9.2225   9.2292   9.2358   9.2390   9.2438   9.2473   9.2501   9.2578
     9.2605   9.2654   9.2763   9.2795   9.3036   9.3448   9.3830   9.4064
     9.4170   9.4280   9.4522   9.4566   9.4654   9.4672   9.4693   9.4892
     9.5054   9.5193   9.5209   9.5315   9.5318   9.5461   9.5549   9.5603
     9.5819   9.5978   9.7552   9.7573   9.7954   9.8135   9.8178   9.8214
     9.8230   9.8407   9.8461   9.8504   9.8569   9.8620   9.8675   9.8808
     9.9390   9.9453  10.0170  10.0273  10.0334  10.0470  10.0526  10.0534
    10.3602  10.3765  10.3895  10.3918  10.4070  10.4140  10.4318  10.4404
    10.4516  10.4522  10.4724  10.4759  10.4779  10.4815  10.4912  10.5150
    10.5310  10.5638  10.5690  10.5783  10.5799  10.5910  10.6424  10.6498
    10.6562  10.6591  10.6804  10.6828  10.6924  10.7013  10.7139  10.7271
    10.7701  10.7905  10.8618  10.8796  10.9767  10.9876  11.0305  11.0329
    11.1134  11.1206  11.1478  11.1858  11.1923  11.1939  11.1958  11.2072
    11.2124  11.2138  11.2966  11.2988  11.3428  11.3480  11.3690  11.3812
    11.3848  11.3979  11.4219  11.4480  11.4496  11.4527  11.4875  11.4986
    11.5672  11.5708  11.5824  11.5837  11.5921  11.6128  11.6185  11.6216
    11.6241  11.6275  11.7326  11.7462  11.7464  11.7715  11.7834  11.8815
    11.8894  11.9092  11.9269  11.9379  11.9670  11.9951  12.0046  12.0138
    12.0217  12.0271  12.0300  12.0402  12.0420  12.0432  12.0572  12.0904
    12.2249  12.2355  12.2621  12.2749  12.2794  12.2935  12.3068  12.3300
    12.3432  12.3478  12.3664  12.3725  12.4098  12.4407  12.4427  12.4753
    12.4850  12.4969  12.5006  12.5176  12.5529  12.5619  12.5725  12.6109
    12.6160  12.6401  12.6451  12.6538  12.6543  12.7017  12.7391  12.7668
    12.7792  12.8444  12.9324  12.9836  12.9998  13.0426  13.0857  13.1310
    13.2212  13.2589  13.3595  13.4554  13.4721  13.5562  13.6086  13.9166
    13.9580  13.9769  14.0492  14.0790  14.1540  14.2795  14.3091  14.4160
    14.4226  14.5511  14.5606  14.5759  14.6307  14.7532  14.7700  15.0730
    15.0856  15.1357  15.2010  15.3824  15.3940  15.4214  15.4326  15.4734
    15.4818  15.6647  15.7160  15.7299  15.8366  15.9380  15.9688  16.0251
    16.0476  16.0639  16.1044  16.1499  16.1560  16.2206  16.2263  16.2451
    16.2872  16.3088  16.3508  16.3910  16.3932  16.4064  16.4102  16.4241
    16.4279  16.4451  16.4843  16.5698  16.5705  16.6166  16.6943  16.7417
    16.7865  16.8038  16.8396  16.8596  16.9098  16.9661  16.9773  17.0035
    17.0483  17.0711  17.1620  17.2666  18.6656  18.6959  18.7175  18.7534
    18.7812  18.7877  18.8002  18.8458  18.8772  18.8995  18.9162  18.9170

          k =-0.5000-0.5000 0.0000 ( 31612 PWs)   bands (ev):

   -66.7682 -66.7220 -66.7000 -66.6932 -66.6716 -66.6352 -66.6177 -66.5962
   -66.5929 -62.4088 -62.4012 -62.3969 -62.3931 -62.3895 -62.3818 -62.3170
   -62.2998 -62.2947 -35.5285 -35.5118 -35.4929 -35.4880 -35.4711 -35.4709
   -35.4629 -35.4428 -35.4374 -35.4370 -35.4349 -35.4284 -35.4145 -35.4045
   -35.4015 -35.3967 -35.3740 -35.3737 -35.3627 -35.3578 -35.3479 -35.3472
   -35.3414 -35.3413 -35.3402 -35.3318 -35.3292 -31.2469 -31.2403 -31.2376
   -31.2337 -31.2331 -31.2267 -31.2261 -31.2259 -31.2250 -31.2207 -31.2169
   -31.2132 -31.2130 -31.2074 -31.2025 -31.1999 -31.1952 -31.1945 -31.1534
   -31.1522 -31.1480 -31.1438 -31.1282 -31.1252 -31.1159 -31.1015 -31.1007
     6.4067   6.4210   6.4501   6.4944   8.0124   8.0148   8.0226   8.0262
     8.1001   8.1115   8.2963   8.3081   8.3214   8.3294   8.3369   8.3399
     8.3481   8.3521   8.3583   8.3720   8.3758   8.4152   8.5906   8.6167
     8.6404   8.6606   8.6783   8.7009   8.7139   8.7179   8.7275   8.7378
     8.7669   8.8163   8.9226   8.9384   8.9537   8.9722   8.9780   8.9788
     8.9798   8.9883   8.9976   9.0131   9.0181   9.0338   9.0470   9.0491
     9.1195   9.1279   9.3101   9.3109   9.3209   9.3228   9.4051   9.4088
     9.4137   9.4233   9.4277   9.4311   9.4373   9.4423   9.4480   9.4533
     9.4596   9.4716   9.4766   9.4777   9.4830   9.4918   9.4959   9.5044
     9.5119   9.5158   9.5353   9.5415   9.5471   9.5664   9.5811   9.5939
     9.6043   9.6135   9.7003   9.7012   9.7754   9.7794   9.8211   9.8271
     9.8286   9.8362   9.8443   9.8492   9.8519   9.8875  10.0398  10.0600
    10.0802  10.1072  10.1245  10.1284  10.1420  10.1502  10.1528  10.1639
    10.1748  10.1802  10.2064  10.2151  10.2246  10.2272  10.2292  10.2354
    10.2379  10.2385  10.2419  10.2563  10.4610  10.4754  10.4901  10.4948
    10.4990  10.5035  10.5085  10.5558  10.5941  10.6216  10.6452  10.6500
    10.6586  10.6649  10.6799  10.6869  10.6951  10.7014  10.7082  10.7105
    10.7144  10.7496  10.7857  10.8225  10.8332  10.8410  10.8686  10.8805
    10.9368  10.9511  11.1963  11.2011  11.2196  11.2322  11.3074  11.3235
    11.3325  11.3424  11.3610  11.3684  11.3857  11.3925  11.5310  11.5473
    11.6046  11.6333  11.6375  11.6434  11.6447  11.6500  11.6526  11.6545
    11.7003  11.7023  11.7266  11.7326  11.7340  11.7476  11.7548  11.7595
    11.8702  11.8772  11.8792  11.8818  11.8857  11.8886  11.9426  11.9457
    12.0023  12.0420  12.0666  12.0843  12.0972  12.1049  12.1073  12.1108
    12.1118  12.1155  12.1203  12.1217  12.1454  12.1465  12.1659  12.1732
    12.1979  12.2009  12.2112  12.2272  12.2275  12.2386  12.2578  12.2737
    12.2748  12.2798  12.2906  12.2970  12.2981  12.3074  12.3130  12.3424
    12.3663  12.3819  12.4163  12.4398  12.4821  12.4931  12.5176  12.5301
    12.5400  12.5702  12.5825  12.6065  12.6091  12.6363  12.6632  12.6636
    12.7060  12.8077  12.8448  12.8737  12.8923  12.9290  12.9441  12.9539
    12.9746  12.9991  13.0001  13.0058  13.0291  13.5634  13.5748  13.6763
    13.6782  13.6790  13.7014  13.8625  13.8798  14.0038  14.0569  14.1795
    14.1994  14.2076  14.3457  14.4529  14.5414  14.6871  14.8086  15.0706
    15.1976  15.2166  15.2312  15.2354  15.3768  15.4868  15.5468  15.7185
    15.7422  15.7980  15.7985  15.8798  15.8852  15.9017  15.9185  15.9494
    15.9774  15.9937  16.0138  16.0178  16.0193  16.0795  16.1061  16.1404
    16.1708  16.1796  16.2549  16.2953  16.3306  16.3468  16.4167  16.4462
    16.4715  16.4928  16.5071  16.6649  16.6677  16.6976  16.7094  16.7219
    16.8569  16.8938  16.9111  16.9228  17.3890  17.3914  17.8093  17.9381
    18.1704  18.1954  18.2217  18.2427  18.2953  18.3147  18.4946  18.5717
    18.5758  18.6443  18.6753  18.7140  18.7479  18.7961  18.7977  18.8086

          k =-0.5000-0.5000-0.5734 ( 31672 PWs)   bands (ev):

   -66.7682 -66.7220 -66.7000 -66.6932 -66.6716 -66.6352 -66.6177 -66.5962
   -66.5929 -62.4088 -62.4012 -62.3969 -62.3931 -62.3895 -62.3818 -62.3170
   -62.2998 -62.2947 -35.5285 -35.5118 -35.4929 -35.4880 -35.4711 -35.4709
   -35.4629 -35.4428 -35.4374 -35.4370 -35.4349 -35.4284 -35.4145 -35.4045
   -35.4015 -35.3967 -35.3740 -35.3737 -35.3627 -35.3578 -35.3479 -35.3472
   -35.3414 -35.3413 -35.3402 -35.3318 -35.3292 -31.2469 -31.2403 -31.2376
   -31.2337 -31.2331 -31.2267 -31.2261 -31.2259 -31.2250 -31.2207 -31.2169
   -31.2132 -31.2130 -31.2074 -31.2025 -31.1999 -31.1952 -31.1945 -31.1534
   -31.1522 -31.1480 -31.1438 -31.1282 -31.1252 -31.1159 -31.1015 -31.1007
     6.8832   6.9170   6.9373   6.9457   6.9959   7.0079   7.0297   7.0558
     8.4481   8.4593   8.4792   8.4842   8.4866   8.4898   8.4923   8.4993
     8.5042   8.5086   8.5142   8.5206   8.5393   8.5458   8.5463   8.5666
     8.5761   8.5921   8.5927   8.6015   8.8766   8.8793   8.8865   8.8966
     8.9087   8.9099   8.9373   8.9511   9.0871   9.1074   9.1142   9.1203
     9.1258   9.1467   9.1518   9.1532   9.1607   9.1613   9.1625   9.1651
     9.1662   9.1675   9.1689   9.1728   9.1748   9.1768   9.1790   9.1822
     9.1852   9.1873   9.1907   9.1984   9.2013   9.2123   9.2184   9.2220
     9.2290   9.2344   9.2366   9.2450   9.2535   9.2669   9.2764   9.2901
     9.5445   9.5527   9.5621   9.5737   9.5835   9.5956   9.6157   9.6250
     9.6496   9.6725   9.6780   9.6895   9.7177   9.7372   9.7513   9.7850
     9.8184   9.8377   9.8432   9.8523   9.8769   9.8840   9.8897   9.8980
    10.1061  10.1201  10.1443  10.1547  10.1694  10.1817  10.1940  10.2023
    10.2944  10.3107  10.4494  10.4630  10.4647  10.4666  10.4795  10.4842
    10.4844  10.4910  10.5019  10.5033  10.5108  10.5133  10.5135  10.5141
    10.5205  10.5339  10.5389  10.5635  10.5726  10.5731  10.5815  10.6006
    10.6064  10.6089  10.6177  10.6407  10.6424  10.6639  10.6654  10.6848
    10.6898  10.6933  10.7040  10.7068  10.7327  10.7359  11.0464  11.0520
    11.0659  11.0703  11.0907  11.1000  11.1301  11.1357  11.3837  11.3859
    11.3959  11.3963  11.4060  11.4273  11.4399  11.4448  11.4755  11.4814
    11.4857  11.4923  11.5025  11.5070  11.5199  11.5306  11.6358  11.6412
    11.6451  11.6465  11.6508  11.6521  11.6952  11.7007  11.7054  11.7249
    11.7277  11.7334  11.7390  11.7420  11.7725  11.7789  11.7816  11.8043
    11.8053  11.8188  11.8237  11.8373  11.8454  11.8681  11.9928  12.0172
    12.0335  12.0556  12.0723  12.0801  12.0883  12.1274  12.1513  12.1618
    12.1788  12.2063  12.2279  12.2312  12.2496  12.2873  12.3247  12.3343
    12.3507  12.3990  12.4030  12.4161  12.4194  12.4298  12.4372  12.4670
    12.4784  12.4951  12.5023  12.5320  12.5357  12.5605  12.5754  12.6014
    12.6146  12.6740  12.7006  12.7238  12.7262  12.7591  12.7743  12.8194
    12.9021  12.9275  12.9534  12.9787  13.1043  13.1370  13.1498  13.2437
    13.2641  13.2825  13.2922  13.3321  13.3513  13.3968  13.4846  13.4983
    13.5283  13.7094  13.7910  13.8142  13.8515  13.9740  14.1351  14.1586
    14.2138  14.3016  14.3425  14.6924  14.8092  14.8321  14.8641  14.8926
    14.9603  15.0676  15.1805  15.3140  15.3356  15.6639  15.6768  15.6852
    15.7018  15.7540  15.8006  15.8912  15.9323  15.9627  15.9679  16.0007
    16.0104  16.0211  16.0888  16.1155  16.1437  16.1645  16.1702  16.2210
    16.2213  16.2339  16.2495  16.3176  16.3320  16.3911  16.3937  16.4938
    16.5317  16.5352  16.5598  16.6006  16.6087  16.6379  16.7026  16.7203
    16.7770  16.7847  16.8099  16.8827  16.8901  16.9635  16.9905  17.0005
    17.1257  17.1285  17.7285  17.8082  17.8575  17.8607  19.0056  19.0122
    19.0405  19.0446  19.0797  19.1090  19.1883  19.2237  19.2330  19.3402

          k =-0.5000 0.0000 0.0000 ( 31722 PWs)   bands (ev):

   -66.7682 -66.7220 -66.7000 -66.6932 -66.6716 -66.6352 -66.6177 -66.5962
   -66.5929 -62.4088 -62.4012 -62.3969 -62.3931 -62.3895 -62.3818 -62.3170
   -62.2998 -62.2947 -35.5285 -35.5118 -35.4929 -35.4880 -35.4711 -35.4709
   -35.4629 -35.4428 -35.4374 -35.4370 -35.4349 -35.4284 -35.4145 -35.4045
   -35.4015 -35.3967 -35.3740 -35.3737 -35.3627 -35.3578 -35.3479 -35.3472
   -35.3414 -35.3413 -35.3402 -35.3318 -35.3292 -31.2469 -31.2403 -31.2376
   -31.2337 -31.2331 -31.2267 -31.2261 -31.2259 -31.2250 -31.2207 -31.2169
   -31.2132 -31.2130 -31.2074 -31.2025 -31.1999 -31.1952 -31.1945 -31.1534
   -31.1522 -31.1480 -31.1438 -31.1282 -31.1252 -31.1159 -31.1015 -31.1007
     6.0352   6.0552   7.4022   7.4289   7.4801   7.4880   7.6767   7.6800
     8.1108   8.1166   8.1550   8.1731   8.1908   8.1973   8.2695   8.2818
     8.3841   8.4195   8.4797   8.4873   8.6197   8.6365   8.6375   8.6548
     8.6576   8.6746   8.6980   8.7065   8.7827   8.8012   8.8157   8.8313
     8.8569   8.8600   8.8731   8.8933   8.9022   8.9100   8.9216   8.9249
     8.9313   8.9370   8.9493   8.9526   9.0507   9.0532   9.1533   9.1687
     9.2026   9.2083   9.2194   9.2260   9.2281   9.2340   9.3148   9.3275
     9.3570   9.3778   9.3985   9.4055   9.4699   9.4778   9.4857   9.4981
     9.5382   9.5587   9.5622   9.5670   9.5874   9.5980   9.6030   9.6171
     9.6261   9.6262   9.6356   9.6378   9.6408   9.6423   9.6445   9.6459
     9.6499   9.6721   9.6792   9.6896   9.6992   9.7051   9.7085   9.7315
     9.7386   9.7618   9.7631   9.7721   9.8977   9.9017   9.9342   9.9576
    10.0200  10.0351  10.1714  10.1926  10.2075  10.2173  10.2453  10.2470
    10.2758  10.2774  10.2782  10.2853  10.2856  10.2881  10.3366  10.3503
    10.3823  10.3853  10.3884  10.3928  10.4355  10.4424  10.4689  10.4743
    10.4911  10.5023  10.5105  10.5362  10.5555  10.5635  10.5850  10.5902
    10.6606  10.6621  10.6762  10.7089  10.7098  10.7457  10.7468  10.7673
    10.8028  10.8071  10.8365  10.8500  10.8594  10.8654  10.9031  10.9302
    10.9577  10.9667  11.0233  11.0421  11.0647  11.0784  11.1752  11.1814
    11.3022  11.3268  11.3462  11.3512  11.3623  11.3674  11.4150  11.4209
    11.4382  11.4632  11.4880  11.4888  11.4905  11.5343  11.5361  11.5635
    11.5704  11.5996  11.6098  11.6111  11.6306  11.6646  11.7333  11.7469
    11.7513  11.7911  11.8174  11.8291  11.8295  11.8524  11.8641  11.8683
    11.8729  11.8779  11.8867  11.9015  11.9139  11.9214  11.9468  11.9537
    11.9681  11.9813  12.0119  12.0142  12.1001  12.1166  12.1546  12.1645
    12.1723  12.1789  12.2047  12.2219  12.2437  12.2506  12.2516  12.2669
    12.2905  12.3031  12.3345  12.3950  12.4004  12.4007  12.4230  12.4462
    12.4617  12.4689  12.4809  12.5098  12.5147  12.5398  12.5437  12.5756
    12.5897  12.5976  12.6082  12.6253  12.6581  12.6627  12.7487  12.7854
    12.8535  12.8818  12.9537  13.0192  13.0304  13.0408  13.0944  13.1337
    13.1648  13.2208  13.2270  13.2491  13.2782  13.2846  13.3152  13.3971
    13.4784  13.4947  13.5644  13.5844  13.6453  14.3358  14.3895  14.4943
    14.4943  14.7520  14.7684  14.8294  14.9147  14.9759  15.0643  15.1172
    15.1228  15.1304  15.1621  15.2833  15.3250  15.4204  15.5389  15.6043
    15.6317  15.7077  15.7495  15.7837  15.8348  15.8428  15.9036  15.9766
    15.9941  16.0127  16.0167  16.0758  16.0974  16.1071  16.1200  16.1331
    16.1677  16.2044  16.2456  16.2507  16.2792  16.2816  16.3189  16.4004
    16.4119  16.5595  16.6280  16.6660  16.7295  16.7534  17.0031  17.0322
    17.1997  17.2181  17.2842  17.2880  17.5042  17.5238  17.6030  17.6224
    17.6881  17.7565  17.7903  17.7909  17.8735  17.9060  17.9067  17.9105
    17.9831  18.0519  18.1166  18.2254  19.3004  19.3210  19.3368  19.3717

          k =-0.5000 0.0000 0.5734 ( 31696 PWs)   bands (ev):

   -66.7682 -66.7220 -66.7000 -66.6932 -66.6716 -66.6352 -66.6177 -66.5962
   -66.5929 -62.4088 -62.4012 -62.3969 -62.3931 -62.3895 -62.3818 -62.3170
   -62.2998 -62.2947 -35.5285 -35.5118 -35.4929 -35.4880 -35.4711 -35.4709
   -35.4629 -35.4428 -35.4374 -35.4370 -35.4349 -35.4284 -35.4145 -35.4045
   -35.4015 -35.3967 -35.3740 -35.3737 -35.3627 -35.3578 -35.3479 -35.3472
   -35.3414 -35.3413 -35.3402 -35.3318 -35.3292 -31.2469 -31.2403 -31.2376
   -31.2337 -31.2331 -31.2267 -31.2261 -31.2259 -31.2250 -31.2207 -31.2169
   -31.2132 -31.2130 -31.2074 -31.2025 -31.1999 -31.1952 -31.1945 -31.1534
   -31.1522 -31.1480 -31.1438 -31.1282 -31.1252 -31.1159 -31.1015 -31.1007
     6.5518   6.5761   6.5984   6.6147   7.8344   7.8590   7.8766   7.8851
     7.9040   7.9176   7.9231   7.9451   8.2726   8.2777   8.3008   8.3044
     8.5075   8.5144   8.5445   8.5481   8.6621   8.6667   8.6722   8.6775
     8.6800   8.6841   8.7079   8.7139   8.7397   8.7405   8.7477   8.7532
     8.7580   8.7765   8.8010   8.8202   8.9727   8.9974   9.0107   9.0230
     9.0353   9.0443   9.0544   9.0670   9.2038   9.2056   9.2107   9.2129
     9.2158   9.2220   9.2247   9.2264   9.2468   9.2497   9.2564   9.2691
     9.2734   9.2736   9.3000   9.3004   9.3084   9.3210   9.3825   9.4017
     9.4163   9.4254   9.4610   9.4647   9.4652   9.4658   9.4675   9.4899
     9.4949   9.5081   9.5154   9.5237   9.5402   9.5451   9.5452   9.5532
     9.5554   9.5792   9.7571   9.7597   9.7914   9.7956   9.8083   9.8102
     9.8445   9.8477   9.8509   9.8527   9.8595   9.8627   9.8672   9.8877
     9.9714   9.9749   9.9960  10.0076  10.0251  10.0294  10.0584  10.0623
    10.3620  10.3800  10.4009  10.4029  10.4123  10.4201  10.4317  10.4613
    10.4674  10.4695  10.4798  10.4821  10.4916  10.4923  10.5053  10.5089
    10.5091  10.5197  10.5664  10.5772  10.6054  10.6084  10.6127  10.6172
    10.6515  10.6553  10.6748  10.6752  10.6854  10.7009  10.7057  10.7275
    10.7667  10.7865  10.8696  10.8829  10.9637  10.9749  11.0791  11.0840
    11.1120  11.1282  11.1330  11.1414  11.1673  11.1926  11.1971  11.2020
    11.2113  11.2133  11.3017  11.3209  11.3534  11.3639  11.3691  11.3721
    11.3748  11.3858  11.3995  11.4155  11.4848  11.4864  11.4872  11.5177
    11.5195  11.5276  11.5719  11.5722  11.5863  11.6019  11.6374  11.6394
    11.6431  11.6450  11.7184  11.7267  11.7360  11.8007  11.8045  11.8158
    11.9180  11.9273  11.9342  11.9523  11.9605  11.9637  11.9822  12.0182
    12.0356  12.0364  12.0406  12.0448  12.0802  12.0939  12.1138  12.1416
    12.1867  12.1922  12.2214  12.2314  12.2424  12.2891  12.2968  12.3205
    12.3648  12.3822  12.4023  12.4406  12.4490  12.4682  12.4849  12.4909
    12.5106  12.5271  12.5438  12.5511  12.5569  12.5603  12.5815  12.5817
    12.5938  12.6012  12.6435  12.6519  12.6643  12.7270  12.7283  12.7800
    12.7961  12.8259  12.8490  12.8848  12.9108  12.9448  12.9885  13.0308
    13.0628  13.2146  13.5429  13.6088  13.6154  13.6320  13.6888  13.7594
    13.8564  13.9954  14.0090  14.1487  14.2460  14.2520  14.2887  14.4880
    14.4888  14.5478  14.5526  14.6147  14.6261  14.7476  14.7650  14.9009
    14.9097  15.2598  15.2899  15.3404  15.3753  15.3816  15.3952  15.5357
    15.6333  15.7980  15.8079  15.8199  15.8451  15.8797  15.9431  15.9571
    16.0067  16.0242  16.0347  16.0377  16.0444  16.1493  16.1807  16.1933
    16.2086  16.2572  16.2888  16.3208  16.3535  16.3594  16.3801  16.4134
    16.4308  16.5839  16.6010  16.6387  16.6578  16.6978  16.7330  16.7428
    16.7555  16.8300  16.8948  16.8980  16.9422  16.9814  16.9917  16.9976
    17.0597  17.1003  17.1982  17.2729  18.5798  18.6086  18.6677  18.6855
    18.8040  18.8269  18.8336  18.8614  18.8942  18.9014  18.9452  18.9480

     the Fermi energy is    14.8205 ev

!    total energy              =  -33062.59190896 Ry
     Harris-Foulkes estimate   =  -33062.59188575 Ry
     estimated scf accuracy    <       0.00000093 Ry

     total all-electron energy =  -1410574.682283 Ry

     The total energy is the sum of the following terms:

     one-electron contribution =   -1645.67457906 Ry
     hartree contribution      =    1489.89022233 Ry
     xc contribution           =   -1658.73866490 Ry
     ewald contribution        =   -4919.25534656 Ry
     one-center paw contrib.   =  -26328.81354077 Ry

     total magnetization       =     0.48 Bohr mag/cell
     absolute magnetization    =    78.61 Bohr mag/cell

     convergence has been achieved in  20 iterations

     Writing output data file mnau2.save
 
     init_run     :     37.69s CPU     38.88s WALL (       1 calls)
     electrons    :   2131.77s CPU   2200.75s WALL (       1 calls)

     Called by init_run:
     wfcinit      :     32.82s CPU     33.79s WALL (       1 calls)
     potinit      :      2.05s CPU      2.10s WALL (       1 calls)

     Called by electrons:
     c_bands      :   1875.83s CPU   1931.53s WALL (      20 calls)
     sum_band     :    212.62s CPU    222.55s WALL (      20 calls)
     v_of_rho     :      4.37s CPU      4.69s WALL (      21 calls)
     newd         :     14.90s CPU     17.14s WALL (      21 calls)
     PAW_pot      :     24.72s CPU     25.00s WALL (      21 calls)
     mix_rho      :      0.86s CPU      0.96s WALL (      20 calls)

     Called by c_bands:
     init_us_2    :      7.59s CPU      7.62s WALL (     656 calls)
     cegterg      :   1815.69s CPU   1869.12s WALL (     320 calls)

     Called by sum_band:
     sum_band:bec :      1.26s CPU      1.27s WALL (     320 calls)
     addusdens    :     30.81s CPU     33.32s WALL (      20 calls)

     Called by *egterg:
     h_psi        :    660.36s CPU    676.38s WALL (    1308 calls)
     s_psi        :    121.00s CPU    121.02s WALL (    1308 calls)
     g_psi        :      2.35s CPU      2.36s WALL (     972 calls)
     cdiaghg      :    643.36s CPU    643.48s WALL (    1292 calls)

     Called by h_psi:
     h_psi:pot    :    654.43s CPU    670.42s WALL (    1308 calls)
     h_psi:calbec :    141.03s CPU    145.18s WALL (    1308 calls)
     vloc_psi     :    389.93s CPU    401.67s WALL (    1308 calls)
     add_vuspsi   :    123.46s CPU    123.56s WALL (    1308 calls)

     General routines
     calbec       :    201.80s CPU    207.86s WALL (    1628 calls)
     fft          :     12.43s CPU     13.23s WALL (     641 calls)
     ffts         :      0.18s CPU      0.19s WALL (      82 calls)
     fftw         :    446.99s CPU    462.61s WALL (  716244 calls)
     interpolate  :      0.65s CPU      0.74s WALL (      82 calls)
 
     Parallel routines
     fft_scatt_xy :     55.52s CPU     57.38s WALL (  716967 calls)
     fft_scatt_yz :    185.45s CPU    193.87s WALL (  716967 calls)
 
     PWSCF        : 36m14.36s CPU    38m 2.02s WALL

 
   This run was terminated on:  19:24:54   7Mar2019            

=------------------------------------------------------------------------------=
   JOB DONE.
=------------------------------------------------------------------------------=
