
     Program PWSCF v.6.2 (svn rev. 14038) starts on  7Mar2019 at 19:24:55 

     This program is part of the open-source Quantum ESPRESSO suite
     for quantum simulation of materials; please cite
         "P. Giannozzi et al., J. Phys.:Condens. Matter 21 395502 (2009);
         "P. Giannozzi et al., J. Phys.:Condens. Matter 29 465901 (2017);
          URL http://www.quantum-espresso.org", 
     in publications or presentations arising from this work. More details at
     http://www.quantum-espresso.org/quote

     Parallel version (MPI), running on    16 processors

     MPI processes distributed on     1 nodes
     R & G space division:  proc/nbgrp/npool/nimage =      16
     Waiting for input...
     Reading input from standard input

     Current dimensions of program PWSCF are:
     Max number of different atomic species (ntypx) = 10
     Max number of k-points (npk) =  40000
     Max angular momentum in pseudopotentials (lmaxx) =  3
               file Mn.pbe-spn-kjpaw_psl.0.3.1.UPF: wavefunction(s)  3P 3D renormalized
               file Mn.pbe-spn-kjpaw_psl.0.3.1.UPF: wavefunction(s)  3P 3D renormalized
               file Au.pbe-dn-kjpaw_psl.0.1.UPF: wavefunction(s)  6S 6P 5D renormalized

     Subspace diagonalization in iterative solution of the eigenvalue problem:
     a serial algorithm will be used

 
     Parallelization info
     --------------------
     sticks:   dense  smooth     PW     G-vecs:    dense   smooth      PW
     Min         736     331     90                52486    15847    2256
     Max         737     332     91                52489    15850    2259
     Sum       11785    5297   1449               839803   253559   36125
 


     bravais-lattice index     =            0
     lattice parameter (alat)  =      19.2459  a.u.
     unit-cell volume          =    6216.1497 (a.u.)^3
     number of atoms/cell      =           54
     number of atomic types    =            3
     number of electrons       =       666.00
     number of Kohn-Sham states=          400
     kinetic-energy cutoff     =      45.0000  Ry
     charge density cutoff     =     400.0000  Ry
     convergence threshold     =      1.0E-06
     mixing beta               =       0.1000
     number of iterations used =            8  plain     mixing
     Exchange-correlation      = SLA PW PBX PBC ( 1  4  3  4 0 0)

     celldm(1)=  19.245946  celldm(2)=   0.000000  celldm(3)=   0.000000
     celldm(4)=   0.000000  celldm(5)=   0.000000  celldm(6)=   0.000000

     crystal axes: (cart. coord. in units of alat)
               a(1) = (   1.000000   0.000000   0.000000 )  
               a(2) = (   0.000000   1.000000   0.000000 )  
               a(3) = (   0.000000   0.000000   0.871974 )  

     reciprocal axes: (cart. coord. in units 2 pi/alat)
               b(1) = (  1.000000  0.000000  0.000000 )  
               b(2) = (  0.000000  1.000000  0.000000 )  
               b(3) = (  0.000000  0.000000  1.146823 )  


     PseudoPot. # 1 for Mn read from file:
     ./pseudo/Mn.pbe-spn-kjpaw_psl.0.3.1.UPF
     MD5 check sum: 7eef95dd2aae66803482eea66ebeebf1
     Pseudo is Projector augmented-wave + core cor, Zval = 15.0
     Generated using "atomic" code by A. Dal Corso v.5.0.99 svn rev. 10869
     Shape of augmentation charge: PSQ
     Using radial grid of 1187 points,  6 beta functions with: 
                l(1) =   0
                l(2) =   0
                l(3) =   1
                l(4) =   1
                l(5) =   2
                l(6) =   2
     Q(r) pseudized with 0 coefficients 


     PseudoPot. # 2 for Mn read from file:
     ./pseudo/Mn.pbe-spn-kjpaw_psl.0.3.1.UPF
     MD5 check sum: 7eef95dd2aae66803482eea66ebeebf1
     Pseudo is Projector augmented-wave + core cor, Zval = 15.0
     Generated using "atomic" code by A. Dal Corso v.5.0.99 svn rev. 10869
     Shape of augmentation charge: PSQ
     Using radial grid of 1187 points,  6 beta functions with: 
                l(1) =   0
                l(2) =   0
                l(3) =   1
                l(4) =   1
                l(5) =   2
                l(6) =   2
     Q(r) pseudized with 0 coefficients 


     PseudoPot. # 3 for Au read from file:
     ./pseudo/Au.pbe-dn-kjpaw_psl.0.1.UPF
     MD5 check sum: 5c9b92683623e7ae2ab3f8e525febab6
     Pseudo is Projector augmented-wave + core cor, Zval = 11.0
     Generated using "atomic" code by A. Dal Corso v.5.0.2 svn rev. 9415
     Shape of augmentation charge: PSQ
     Using radial grid of 1279 points,  6 beta functions with: 
                l(1) =   0
                l(2) =   0
                l(3) =   1
                l(4) =   1
                l(5) =   2
                l(6) =   2
     Q(r) pseudized with 0 coefficients 


     atomic species   valence    mass     pseudopotential
        Mn1           15.00    54.93800     Mn( 1.00)
        Mn2           15.00    54.93800     Mn( 1.00)
        Au            11.00   196.96600     Au( 1.00)

     Starting magnetic structure 
     atomic species   magnetization
        Mn1          0.800
        Mn2         -0.800
        Au           0.000

      2 Sym. Ops. (no inversion) found



   Cartesian axes

     site n.     atom                  positions (alat units)
         1           Mn1 tau(   1) = (   0.0000000   0.0000000   0.0000000  )
         2           Mn2 tau(   2) = (   0.0000000   0.3333300   0.0000000  )
         3           Mn1 tau(   3) = (   0.0000000   0.6666700   0.0000000  )
         4           Mn1 tau(   4) = (   0.3333300   0.0000000   0.0000000  )
         5           Mn2 tau(   5) = (   0.3333300   0.3333300   0.0000000  )
         6           Mn2 tau(   6) = (   0.3333300   0.6666700   0.0000000  )
         7           Mn1 tau(   7) = (   0.6666700   0.0000000   0.0000000  )
         8           Mn2 tau(   8) = (   0.6666700   0.3333300   0.0000000  )
         9           Mn2 tau(   9) = (   0.6666700   0.6666700   0.0000000  )
        10           Mn2 tau(  10) = (   0.1666700   0.1666700   0.4359871  )
        11           Mn1 tau(  11) = (   0.1666700   0.5000000   0.4359871  )
        12           Mn2 tau(  12) = (   0.1666700   0.8333300   0.4359871  )
        13           Mn2 tau(  13) = (   0.5000000   0.1666700   0.4359871  )
        14           Mn1 tau(  14) = (   0.5000000   0.5000000   0.4359871  )
        15           Mn1 tau(  15) = (   0.5000000   0.8333300   0.4359871  )
        16           Mn2 tau(  16) = (   0.8333300   0.1666700   0.4359871  )
        17           Mn1 tau(  17) = (   0.8333300   0.5000000   0.4359871  )
        18           Mn1 tau(  18) = (   0.8333300   0.8333300   0.4359871  )
        19           Au  tau(  19) = (   0.1666700   0.1666700   0.7327374  )
        20           Au  tau(  20) = (   0.1666700   0.5000000   0.7327374  )
        21           Au  tau(  21) = (   0.1666700   0.8333300   0.7327374  )
        22           Au  tau(  22) = (   0.5000000   0.1666700   0.7327374  )
        23           Au  tau(  23) = (   0.5000000   0.5000000   0.7327374  )
        24           Au  tau(  24) = (   0.5000000   0.8333300   0.7327374  )
        25           Au  tau(  25) = (   0.8333300   0.1666700   0.7327374  )
        26           Au  tau(  26) = (   0.8333300   0.5000000   0.7327374  )
        27           Au  tau(  27) = (   0.8333300   0.8333300   0.7327374  )
        28           Au  tau(  28) = (   0.1666700   0.1666700   0.1392369  )
        29           Au  tau(  29) = (   0.1666700   0.5000000   0.1392369  )
        30           Au  tau(  30) = (   0.1666700   0.8333300   0.1392369  )
        31           Au  tau(  31) = (   0.5000000   0.1666700   0.1392369  )
        32           Au  tau(  32) = (   0.5000000   0.5000000   0.1392369  )
        33           Au  tau(  33) = (   0.5000000   0.8333300   0.1392369  )
        34           Au  tau(  34) = (   0.8333300   0.1666700   0.1392369  )
        35           Au  tau(  35) = (   0.8333300   0.5000000   0.1392369  )
        36           Au  tau(  36) = (   0.8333300   0.8333300   0.1392369  )
        37           Au  tau(  37) = (   0.0000000   0.0000000   0.2967503  )
        38           Au  tau(  38) = (   0.0000000   0.3333300   0.2967503  )
        39           Au  tau(  39) = (   0.0000000   0.6666700   0.2967503  )
        40           Au  tau(  40) = (   0.3333300   0.0000000   0.2967503  )
        41           Au  tau(  41) = (   0.3333300   0.3333300   0.2967503  )
        42           Au  tau(  42) = (   0.3333300   0.6666700   0.2967503  )
        43           Au  tau(  43) = (   0.6666700   0.0000000   0.2967503  )
        44           Au  tau(  44) = (   0.6666700   0.3333300   0.2967503  )
        45           Au  tau(  45) = (   0.6666700   0.6666700   0.2967503  )
        46           Au  tau(  46) = (   0.0000000   0.0000000   0.5752240  )
        47           Au  tau(  47) = (   0.0000000   0.3333300   0.5752240  )
        48           Au  tau(  48) = (   0.0000000   0.6666700   0.5752240  )
        49           Au  tau(  49) = (   0.3333300   0.0000000   0.5752240  )
        50           Au  tau(  50) = (   0.3333300   0.3333300   0.5752240  )
        51           Au  tau(  51) = (   0.3333300   0.6666700   0.5752240  )
        52           Au  tau(  52) = (   0.6666700   0.0000000   0.5752240  )
        53           Au  tau(  53) = (   0.6666700   0.3333300   0.5752240  )
        54           Au  tau(  54) = (   0.6666700   0.6666700   0.5752240  )

     number of k points=     8 (tetrahedron method)
                       cart. coord. in units 2pi/alat
        k(    1) = (   0.0000000   0.0000000   0.0000000), wk =   0.1250000
        k(    2) = (   0.0000000   0.0000000  -0.5734114), wk =   0.1250000
        k(    3) = (   0.0000000  -0.5000000   0.0000000), wk =   0.1250000
        k(    4) = (   0.0000000  -0.5000000  -0.5734114), wk =   0.1250000
        k(    5) = (  -0.5000000  -0.5000000   0.0000000), wk =   0.1250000
        k(    6) = (  -0.5000000  -0.5000000  -0.5734114), wk =   0.1250000
        k(    7) = (  -0.5000000   0.0000000   0.0000000), wk =   0.1250000
        k(    8) = (  -0.5000000   0.0000000   0.5734114), wk =   0.1250000

     Dense  grid:   839803 G-vectors     FFT dimensions: ( 125, 125, 108)

     Smooth grid:   253559 G-vectors     FFT dimensions: (  90,  90,  72)

     Estimated max dynamical RAM per process >     570.13 MB

     Estimated total dynamical RAM >       8.91 GB
     Generating pointlists ...
     new r_m :   0.1129 (alat units)  2.1733 (a.u.) for type    1
     new r_m :   0.1129 (alat units)  2.1733 (a.u.) for type    2
     new r_m :   0.1129 (alat units)  2.1733 (a.u.) for type    3

     Check: negative/imaginary core charge=   -0.000006    0.000000

     Initial potential from superposition of free atoms

     starting charge  665.98709, renormalised to  666.00000
     Starting wfc are  504 randomized atomic wfcs
     Checking if some PAW data can be deallocated... 

     total cpu time spent up to now is       41.1 secs

     Self-consistent Calculation

     iteration #  1     ecut=    45.00 Ry     beta= 0.10
     Davidson diagonalization with overlap
     ethr =  1.00E-02,  avg # of iterations =  3.3

     total cpu time spent up to now is      157.2 secs

     total energy              =  -33047.18971900 Ry
     Harris-Foulkes estimate   =  -33044.04264427 Ry
     estimated scf accuracy    <      27.02838637 Ry

     total magnetization       =    -0.02 Bohr mag/cell
     absolute magnetization    =    92.12 Bohr mag/cell

     iteration #  2     ecut=    45.00 Ry     beta= 0.10
     Davidson diagonalization with overlap
     ethr =  4.06E-03,  avg # of iterations =  1.0

     total cpu time spent up to now is      236.7 secs

     total energy              =  -33058.56798334 Ry
     Harris-Foulkes estimate   =  -33047.36864344 Ry
     estimated scf accuracy    <      21.37208617 Ry

     total magnetization       =    -0.01 Bohr mag/cell
     absolute magnetization    =    91.71 Bohr mag/cell

     iteration #  3     ecut=    45.00 Ry     beta= 0.10
     Davidson diagonalization with overlap
     ethr =  3.21E-03,  avg # of iterations =  2.1

     total cpu time spent up to now is      332.6 secs

     total energy              =  -33066.57988377 Ry
     Harris-Foulkes estimate   =  -33061.37208739 Ry
     estimated scf accuracy    <       8.81018471 Ry

     total magnetization       =     0.15 Bohr mag/cell
     absolute magnetization    =    85.58 Bohr mag/cell

     iteration #  4     ecut=    45.00 Ry     beta= 0.10
     Davidson diagonalization with overlap
     ethr =  1.32E-03,  avg # of iterations =  4.2

     total cpu time spent up to now is      484.5 secs

     total energy              =  -33058.68978428 Ry
     Harris-Foulkes estimate   =  -33069.65716293 Ry
     estimated scf accuracy    <      57.77788394 Ry

     total magnetization       =     0.49 Bohr mag/cell
     absolute magnetization    =    70.09 Bohr mag/cell

     iteration #  5     ecut=    45.00 Ry     beta= 0.10
     Davidson diagonalization with overlap
     ethr =  1.32E-03,  avg # of iterations =  4.9

     total cpu time spent up to now is      652.7 secs

     total energy              =  -33061.83137674 Ry
     Harris-Foulkes estimate   =  -33062.70286283 Ry
     estimated scf accuracy    <       4.34642113 Ry

     total magnetization       =     0.22 Bohr mag/cell
     absolute magnetization    =    83.35 Bohr mag/cell

     iteration #  6     ecut=    45.00 Ry     beta= 0.10
     Davidson diagonalization with overlap
     ethr =  6.53E-04,  avg # of iterations =  3.8

     total cpu time spent up to now is      770.2 secs

     total energy              =  -33062.53321428 Ry
     Harris-Foulkes estimate   =  -33062.56585514 Ry
     estimated scf accuracy    <       0.32141019 Ry

     total magnetization       =     0.20 Bohr mag/cell
     absolute magnetization    =    79.57 Bohr mag/cell

     iteration #  7     ecut=    45.00 Ry     beta= 0.10
     Davidson diagonalization with overlap
     ethr =  4.83E-05,  avg # of iterations =  4.4

     total cpu time spent up to now is      899.3 secs

     total energy              =  -33062.58581190 Ry
     Harris-Foulkes estimate   =  -33062.58184075 Ry
     estimated scf accuracy    <       0.05949818 Ry

     total magnetization       =     0.39 Bohr mag/cell
     absolute magnetization    =    78.73 Bohr mag/cell

     iteration #  8     ecut=    45.00 Ry     beta= 0.10
     Davidson diagonalization with overlap
     ethr =  8.93E-06,  avg # of iterations =  3.6

     total cpu time spent up to now is     1016.3 secs

     total energy              =  -33062.58731634 Ry
     Harris-Foulkes estimate   =  -33062.59722897 Ry
     estimated scf accuracy    <       0.13785366 Ry

     total magnetization       =     0.34 Bohr mag/cell
     absolute magnetization    =    78.55 Bohr mag/cell

     iteration #  9     ecut=    45.00 Ry     beta= 0.10
     Davidson diagonalization with overlap
     ethr =  8.93E-06,  avg # of iterations =  1.4

     total cpu time spent up to now is     1099.6 secs

     total energy              =  -33062.58565264 Ry
     Harris-Foulkes estimate   =  -33062.59051101 Ry
     estimated scf accuracy    <       0.05521814 Ry

     total magnetization       =     0.39 Bohr mag/cell
     absolute magnetization    =    78.55 Bohr mag/cell

     iteration # 10     ecut=    45.00 Ry     beta= 0.10
     Davidson diagonalization with overlap
     ethr =  8.29E-06,  avg # of iterations =  2.1

     total cpu time spent up to now is     1189.4 secs

     total energy              =  -33062.58793021 Ry
     Harris-Foulkes estimate   =  -33062.58947452 Ry
     estimated scf accuracy    <       0.00814334 Ry

     total magnetization       =     0.44 Bohr mag/cell
     absolute magnetization    =    78.70 Bohr mag/cell

     iteration # 11     ecut=    45.00 Ry     beta= 0.10
     Davidson diagonalization with overlap
     ethr =  1.22E-06,  avg # of iterations =  4.8

     total cpu time spent up to now is     1309.2 secs

     total energy              =  -33062.59035024 Ry
     Harris-Foulkes estimate   =  -33062.58972142 Ry
     estimated scf accuracy    <       0.00265531 Ry

     total magnetization       =     0.44 Bohr mag/cell
     absolute magnetization    =    78.96 Bohr mag/cell

     iteration # 12     ecut=    45.00 Ry     beta= 0.10
     Davidson diagonalization with overlap
     ethr =  3.99E-07,  avg # of iterations =  3.2

     total cpu time spent up to now is     1417.6 secs

     total energy              =  -33062.59125465 Ry
     Harris-Foulkes estimate   =  -33062.59074376 Ry
     estimated scf accuracy    <       0.00257581 Ry

     total magnetization       =     0.44 Bohr mag/cell
     absolute magnetization    =    78.86 Bohr mag/cell

     iteration # 13     ecut=    45.00 Ry     beta= 0.10
     Davidson diagonalization with overlap
     ethr =  3.87E-07,  avg # of iterations =  2.0

     total cpu time spent up to now is     1511.6 secs

     total energy              =  -33062.59154898 Ry
     Harris-Foulkes estimate   =  -33062.59128949 Ry
     estimated scf accuracy    <       0.00025872 Ry

     total magnetization       =     0.46 Bohr mag/cell
     absolute magnetization    =    78.70 Bohr mag/cell

     iteration # 14     ecut=    45.00 Ry     beta= 0.10
     Davidson diagonalization with overlap
     ethr =  3.88E-08,  avg # of iterations =  4.0

     total cpu time spent up to now is     1622.7 secs

     total energy              =  -33062.59175021 Ry
     Harris-Foulkes estimate   =  -33062.59160003 Ry
     estimated scf accuracy    <       0.00016383 Ry

     total magnetization       =     0.46 Bohr mag/cell
     absolute magnetization    =    78.69 Bohr mag/cell

     iteration # 15     ecut=    45.00 Ry     beta= 0.10
     Davidson diagonalization with overlap
     ethr =  2.46E-08,  avg # of iterations =  2.0

     total cpu time spent up to now is     1712.4 secs

     total energy              =  -33062.59187018 Ry
     Harris-Foulkes estimate   =  -33062.59172126 Ry
     estimated scf accuracy    <       0.00008129 Ry

     total magnetization       =     0.47 Bohr mag/cell
     absolute magnetization    =    78.67 Bohr mag/cell

     iteration # 16     ecut=    45.00 Ry     beta= 0.10
     Davidson diagonalization with overlap
     ethr =  1.22E-08,  avg # of iterations =  3.1

     total cpu time spent up to now is     1828.7 secs

     total energy              =  -33062.59189677 Ry
     Harris-Foulkes estimate   =  -33062.59185558 Ry
     estimated scf accuracy    <       0.00002437 Ry

     total magnetization       =     0.48 Bohr mag/cell
     absolute magnetization    =    78.64 Bohr mag/cell

     iteration # 17     ecut=    45.00 Ry     beta= 0.10
     Davidson diagonalization with overlap
     ethr =  3.66E-09,  avg # of iterations =  2.1

     total cpu time spent up to now is     1922.4 secs

     total energy              =  -33062.59189846 Ry
     Harris-Foulkes estimate   =  -33062.59187661 Ry
     estimated scf accuracy    <       0.00001141 Ry

     total magnetization       =     0.48 Bohr mag/cell
     absolute magnetization    =    78.63 Bohr mag/cell

     iteration # 18     ecut=    45.00 Ry     beta= 0.10
     Davidson diagonalization with overlap
     ethr =  1.71E-09,  avg # of iterations =  3.1

     total cpu time spent up to now is     2036.1 secs

     total energy              =  -33062.59189287 Ry
     Harris-Foulkes estimate   =  -33062.59188186 Ry
     estimated scf accuracy    <       0.00000435 Ry

     total magnetization       =     0.48 Bohr mag/cell
     absolute magnetization    =    78.62 Bohr mag/cell

     iteration # 19     ecut=    45.00 Ry     beta= 0.10
     Davidson diagonalization with overlap
     ethr =  6.54E-10,  avg # of iterations =  2.8

     total cpu time spent up to now is     2144.7 secs

     total energy              =  -33062.59188828 Ry
     Harris-Foulkes estimate   =  -33062.59188182 Ry
     estimated scf accuracy    <       0.00000195 Ry

     total magnetization       =     0.48 Bohr mag/cell
     absolute magnetization    =    78.61 Bohr mag/cell

     iteration # 20     ecut=    45.00 Ry     beta= 0.10
     Davidson diagonalization with overlap
     ethr =  2.93E-10,  avg # of iterations =  3.0
 
     Magnetic moment per site:
     atom:    1    charge:   13.5714    magn:    4.0342    constr:    0.0000
     atom:    2    charge:   13.5834    magn:   -3.9336    constr:    0.0000
     atom:    3    charge:   13.5826    magn:    3.9789    constr:    0.0000
     atom:    4    charge:   13.5725    magn:    4.0432    constr:    0.0000
     atom:    5    charge:   13.5827    magn:   -3.9383    constr:    0.0000
     atom:    6    charge:   13.5727    magn:   -4.0464    constr:    0.0000
     atom:    7    charge:   13.5731    magn:    4.0316    constr:    0.0000
     atom:    8    charge:   13.5753    magn:   -3.9983    constr:    0.0000
     atom:    9    charge:   13.5691    magn:   -4.0570    constr:    0.0000
     atom:   10    charge:   13.5791    magn:   -3.9558    constr:    0.0000
     atom:   11    charge:   13.5725    magn:    4.0417    constr:    0.0000
     atom:   12    charge:   13.5729    magn:   -4.0718    constr:    0.0000
     atom:   13    charge:   13.5817    magn:   -3.9518    constr:    0.0000
     atom:   14    charge:   13.5684    magn:    4.0632    constr:    0.0000
     atom:   15    charge:   13.5805    magn:    3.9869    constr:    0.0000
     atom:   16    charge:   13.5767    magn:   -3.9928    constr:    0.0000
     atom:   17    charge:   13.5705    magn:    4.0500    constr:    0.0000
     atom:   18    charge:   13.5837    magn:    3.9541    constr:    0.0000
     atom:   19    charge:    9.1206    magn:   -0.0083    constr:    0.0000
     atom:   20    charge:    9.1205    magn:   -0.0106    constr:    0.0000
     atom:   21    charge:    9.1217    magn:    0.0200    constr:    0.0000
     atom:   22    charge:    9.1204    magn:   -0.0046    constr:    0.0000
     atom:   23    charge:    9.1217    magn:   -0.0460    constr:    0.0000
     atom:   24    charge:    9.1208    magn:    0.0104    constr:    0.0000
     atom:   25    charge:    9.1204    magn:   -0.0088    constr:    0.0000
     atom:   26    charge:    9.1202    magn:   -0.0117    constr:    0.0000
     atom:   27    charge:    9.1202    magn:    0.0404    constr:    0.0000
     atom:   28    charge:    9.1206    magn:   -0.0083    constr:    0.0000
     atom:   29    charge:    9.1205    magn:   -0.0106    constr:    0.0000
     atom:   30    charge:    9.1217    magn:    0.0200    constr:    0.0000
     atom:   31    charge:    9.1204    magn:   -0.0046    constr:    0.0000
     atom:   32    charge:    9.1217    magn:   -0.0460    constr:    0.0000
     atom:   33    charge:    9.1208    magn:    0.0104    constr:    0.0000
     atom:   34    charge:    9.1204    magn:   -0.0088    constr:    0.0000
     atom:   35    charge:    9.1202    magn:   -0.0117    constr:    0.0000
     atom:   36    charge:    9.1202    magn:    0.0404    constr:    0.0000
     atom:   37    charge:    9.1213    magn:   -0.0124    constr:    0.0000
     atom:   38    charge:    9.1202    magn:   -0.0014    constr:    0.0000
     atom:   39    charge:    9.1202    magn:    0.0372    constr:    0.0000
     atom:   40    charge:    9.1214    magn:   -0.0123    constr:    0.0000
     atom:   41    charge:    9.1204    magn:   -0.0047    constr:    0.0000
     atom:   42    charge:    9.1218    magn:    0.0202    constr:    0.0000
     atom:   43    charge:    9.1196    magn:    0.0146    constr:    0.0000
     atom:   44    charge:    9.1210    magn:   -0.0092    constr:    0.0000
     atom:   45    charge:    9.1211    magn:    0.0516    constr:    0.0000
     atom:   46    charge:    9.1213    magn:   -0.0124    constr:    0.0000
     atom:   47    charge:    9.1202    magn:   -0.0014    constr:    0.0000
     atom:   48    charge:    9.1202    magn:    0.0372    constr:    0.0000
     atom:   49    charge:    9.1214    magn:   -0.0123    constr:    0.0000
     atom:   50    charge:    9.1204    magn:   -0.0047    constr:    0.0000
     atom:   51    charge:    9.1218    magn:    0.0202    constr:    0.0000
     atom:   52    charge:    9.1196    magn:    0.0146    constr:    0.0000
     atom:   53    charge:    9.1210    magn:   -0.0092    constr:    0.0000
     atom:   54    charge:    9.1211    magn:    0.0516    constr:    0.0000

     total cpu time spent up to now is     2252.5 secs

     End of self-consistent calculation

 ------ SPIN UP ------------


          k = 0.0000 0.0000 0.0000 ( 31747 PWs)   bands (ev):

   -66.7847 -66.7633 -66.7436 -66.7392 -66.7308 -66.7264 -66.6116 -66.5823
   -66.5562 -62.4027 -62.3830 -62.3728 -62.3695 -62.3684 -62.3584 -62.3562
   -62.3441 -62.3238 -35.5366 -35.5317 -35.5265 -35.5151 -35.5095 -35.5065
   -35.5049 -35.4952 -35.4891 -35.4872 -35.4828 -35.4802 -35.4794 -35.4756
   -35.4616 -35.4554 -35.4505 -35.4435 -35.3660 -35.3561 -35.3542 -35.3482
   -35.3309 -35.3187 -35.3074 -35.2890 -35.2838 -31.2407 -31.2308 -31.2222
   -31.2153 -31.2136 -31.2134 -31.2085 -31.2057 -31.2043 -31.2013 -31.2002
   -31.1969 -31.1915 -31.1866 -31.1853 -31.1845 -31.1835 -31.1809 -31.1799
   -31.1786 -31.1724 -31.1620 -31.1600 -31.1561 -31.1495 -31.1478 -31.1436
     5.6118   7.1371   7.1671   7.1863   7.2102   7.3615   7.8596   7.8618
     7.9137   7.9495   8.0719   8.1039   8.1353   8.1638   8.1961   8.2315
     8.2607   8.2885   8.3192   8.5214   8.5319   8.5593   8.5722   8.5930
     8.6079   8.8405   8.8642   8.8645   8.8798   8.8837   8.8881   8.9033
     8.9067   8.9075   8.9141   8.9178   8.9263   8.9494   8.9540   8.9788
     8.9950   9.0823   9.1172   9.1198   9.1226   9.1309   9.1579   9.1621
     9.1785   9.2011   9.2147   9.2676   9.2740   9.3014   9.3139   9.3337
     9.3462   9.3525   9.3647   9.3673   9.3829   9.3864   9.4021   9.4255
     9.4400   9.4413   9.4459   9.4489   9.4533   9.4652   9.5087   9.5660
     9.5746   9.5813   9.5847   9.5880   9.6211   9.6633   9.6678   9.6716
     9.6727   9.6749   9.7060   9.7370   9.7572   9.7800   9.7983   9.8495
     9.8500   9.8930   9.9099   9.9287   9.9521   9.9578  10.0189  10.0392
    10.0933  10.1201  10.1300  10.1569  10.2908  10.2919  10.2932  10.2951
    10.2974  10.2988  10.3019  10.3084  10.3100  10.3234  10.3279  10.3424
    10.3481  10.3498  10.3527  10.3548  10.3551  10.3725  10.3823  10.3825
    10.3997  10.5188  10.5196  10.5731  10.6085  10.6095  10.6309  10.6358
    10.6915  10.7610  10.7839  10.7854  10.7897  10.8213  10.8293  10.8379
    10.8427  10.8527  10.8630  10.8685  10.8722  10.8757  10.8797  10.8952
    10.9003  10.9201  10.9972  11.0374  11.0728  11.1081  11.2017  11.2180
    11.2224  11.2274  11.2554  11.2573  11.2792  11.2940  11.3358  11.3385
    11.3643  11.3650  11.3833  11.3900  11.3993  11.4033  11.4080  11.4115
    11.4185  11.4528  11.5870  11.5875  11.5891  11.5952  11.5980  11.6070
    11.6280  11.6708  11.7205  11.7269  11.7320  11.7399  11.7553  11.7860
    11.8320  11.8478  11.8598  11.8688  11.8770  11.8989  11.9326  11.9376
    11.9630  12.0577  12.0983  12.1007  12.1017  12.1029  12.1042  12.1390
    12.1415  12.1440  12.1442  12.1485  12.1525  12.1718  12.1916  12.2177
    12.2457  12.2593  12.3194  12.3208  12.3446  12.3483  12.3658  12.4035
    12.4055  12.4229  12.4341  12.4343  12.4586  12.4806  12.4874  12.4892
    12.5027  12.5199  12.5284  12.5483  12.5733  12.5822  12.5975  12.6249
    12.6815  12.7031  12.7789  12.7839  12.7881  12.8936  12.9941  13.0599
    13.1104  13.1373  13.2151  13.3168  13.3543  13.6612  13.7109  13.7311
    13.8825  14.0078  14.2353  14.2475  14.3106  14.3405  14.4337  14.4364
    14.7315  14.7741  14.7823  15.0184  15.1174  15.1620  15.2069  15.2569
    15.2654  15.2863  15.3106  15.3369  15.3797  15.4455  15.4875  15.5645
    15.6562  15.6852  15.7068  15.8169  15.8690  15.8850  15.9152  15.9376
    16.0034  16.0619  16.0791  16.1303  16.1358  16.1545  16.1598  16.1672
    16.2572  16.2711  16.2795  16.2961  16.3259  16.3386  16.3779  16.3903
    16.4432  16.4873  16.5185  16.5725  16.6142  16.6733  16.7797  16.8926
    17.0254  17.0461  17.0920  17.1661  17.1902  17.2432  17.2689  17.2846
    17.4351  17.5289  17.8850  17.8982  17.9192  17.9498  17.9515  18.1914
    18.2445  18.3191  18.4478  18.9461  18.9999  19.0035  19.0686  19.1779

          k = 0.0000 0.0000-0.5734 ( 31692 PWs)   bands (ev):

   -66.7847 -66.7633 -66.7436 -66.7392 -66.7308 -66.7264 -66.6116 -66.5823
   -66.5562 -62.4027 -62.3830 -62.3728 -62.3695 -62.3684 -62.3584 -62.3562
   -62.3441 -62.3238 -35.5366 -35.5317 -35.5265 -35.5151 -35.5095 -35.5065
   -35.5049 -35.4952 -35.4891 -35.4872 -35.4828 -35.4802 -35.4794 -35.4756
   -35.4616 -35.4554 -35.4505 -35.4435 -35.3660 -35.3561 -35.3542 -35.3482
   -35.3309 -35.3187 -35.3074 -35.2890 -35.2838 -31.2407 -31.2308 -31.2222
   -31.2153 -31.2136 -31.2134 -31.2085 -31.2057 -31.2043 -31.2013 -31.2002
   -31.1969 -31.1915 -31.1866 -31.1853 -31.1845 -31.1835 -31.1809 -31.1799
   -31.1786 -31.1724 -31.1620 -31.1600 -31.1561 -31.1495 -31.1478 -31.1436
     6.1713   6.1897   7.5360   7.5445   7.5628   7.5821   7.5841   7.5945
     7.6130   7.6198   8.3121   8.3246   8.3257   8.3304   8.3612   8.3663
     8.3672   8.3890   8.4578   8.4591   8.4789   8.4835   8.4944   8.4949
     8.5021   8.5035   8.6996   8.7076   8.7605   8.7775   8.9461   8.9651
     8.9653   8.9746   8.9749   8.9801   8.9813   8.9856   9.0086   9.0175
     9.0225   9.0348   9.0424   9.0541   9.0770   9.0984   9.1867   9.1990
     9.2153   9.2278   9.2412   9.2517   9.2739   9.2777   9.2795   9.2836
     9.2869   9.2876   9.2902   9.3024   9.3025   9.3088   9.4112   9.4128
     9.4259   9.4358   9.4407   9.4411   9.4543   9.4549   9.4575   9.4589
     9.4619   9.4776   9.4922   9.5085   9.5242   9.5423   9.6503   9.6745
     9.7821   9.7841   9.7978   9.8050   9.8064   9.8168   9.8289   9.8347
     9.8719   9.8724   9.8771   9.8787   9.8881   9.8892   9.8911   9.8921
    10.0585  10.0599  10.0601  10.0612  10.1314  10.1442  10.1538  10.1632
    10.1664  10.1833  10.1884  10.1946  10.1974  10.2098  10.3483  10.3502
    10.3682  10.3757  10.4016  10.4080  10.4138  10.4149  10.4753  10.4989
    10.5818  10.5829  10.6113  10.6190  10.6341  10.6514  10.6736  10.6757
    10.6780  10.7031  10.7085  10.7318  10.7410  10.7632  10.7758  10.7937
    10.9582  10.9643  10.9997  11.0200  11.0248  11.0304  11.0492  11.0659
    11.0945  11.1173  11.1280  11.1398  11.1453  11.1491  11.1519  11.1541
    11.2217  11.2310  11.2477  11.2495  11.2592  11.2603  11.2634  11.2667
    11.2722  11.2725  11.2803  11.2825  11.2881  11.2887  11.2962  11.2976
    11.3062  11.3067  11.3191  11.3203  11.5667  11.5869  11.7060  11.7079
    11.7081  11.7156  11.7191  11.7230  11.7291  11.7302  11.7331  11.7501
    11.7595  11.7601  11.7730  11.7734  11.7941  11.8508  11.8549  11.9120
    11.9648  11.9721  11.9797  11.9987  12.0078  12.0249  12.0466  12.0615
    12.1397  12.1661  12.1800  12.2171  12.2649  12.3477  12.3491  12.3642
    12.3932  12.4048  12.4069  12.4274  12.4323  12.4332  12.4376  12.4721
    12.4766  12.4995  12.5162  12.5364  12.5430  12.5719  12.5816  12.6095
    12.6512  12.7126  12.7344  12.7475  12.7604  12.7718  12.8886  12.9322
    12.9346  12.9657  13.0630  13.1015  13.1338  13.1570  13.1660  13.2132
    13.2154  13.2409  13.2447  13.2860  13.3142  13.5734  13.6669  13.7462
    13.9151  13.9955  14.0428  14.0712  14.0752  14.1398  14.2933  14.3892
    14.4694  14.8757  14.9003  14.9412  14.9789  15.0093  15.0647  15.0758
    15.1148  15.2160  15.2738  15.3193  15.3373  15.4179  15.4793  15.5248
    15.5744  15.7004  15.7098  15.7492  15.7791  15.8306  15.8720  16.0369
    16.0648  16.0707  16.0984  16.1370  16.1842  16.1934  16.2053  16.2263
    16.2326  16.2496  16.2573  16.2662  16.2693  16.2818  16.3198  16.3235
    16.3472  16.3592  16.5019  16.5768  16.6009  16.6345  16.7436  16.7960
    16.8641  16.9013  17.2669  17.2916  17.2959  17.3287  17.4527  17.4703
    17.5560  17.6046  17.7176  17.7254  17.7696  17.7706  17.8701  17.8760
    17.9165  17.9208  18.1885  18.2007  18.2327  18.2622  18.2937  18.3356

          k = 0.0000-0.5000 0.0000 ( 31722 PWs)   bands (ev):

   -66.7847 -66.7633 -66.7436 -66.7392 -66.7308 -66.7264 -66.6116 -66.5823
   -66.5562 -62.4027 -62.3830 -62.3728 -62.3695 -62.3684 -62.3584 -62.3562
   -62.3441 -62.3238 -35.5366 -35.5317 -35.5265 -35.5151 -35.5095 -35.5065
   -35.5049 -35.4952 -35.4891 -35.4872 -35.4828 -35.4802 -35.4794 -35.4756
   -35.4616 -35.4554 -35.4505 -35.4435 -35.3660 -35.3561 -35.3542 -35.3482
   -35.3309 -35.3187 -35.3074 -35.2890 -35.2838 -31.2407 -31.2308 -31.2222
   -31.2153 -31.2136 -31.2134 -31.2085 -31.2057 -31.2043 -31.2013 -31.2002
   -31.1969 -31.1915 -31.1866 -31.1853 -31.1845 -31.1835 -31.1809 -31.1800
   -31.1786 -31.1724 -31.1620 -31.1600 -31.1561 -31.1495 -31.1478 -31.1436
     6.0221   6.0566   7.4106   7.4495   7.4572   7.4609   7.6609   7.6843
     8.1024   8.1059   8.1298   8.1919   8.2070   8.2306   8.2398   8.2462
     8.3924   8.4449   8.4509   8.4540   8.6257   8.6328   8.6462   8.6536
     8.6663   8.6710   8.6725   8.6973   8.7605   8.7835   8.8144   8.8352
     8.8617   8.8648   8.8775   8.8786   8.9141   8.9162   8.9168   8.9182
     8.9248   8.9275   8.9353   8.9356   9.0354   9.0603   9.1595   9.1842
     9.1910   9.1987   9.2171   9.2207   9.2260   9.2273   9.3160   9.3396
     9.3623   9.3724   9.3796   9.3832   9.4770   9.4809   9.4895   9.5228
     9.5308   9.5312   9.5341   9.5755   9.5868   9.5961   9.6019   9.6049
     9.6107   9.6210   9.6281   9.6311   9.6314   9.6342   9.6360   9.6455
     9.6521   9.6626   9.6723   9.6797   9.6967   9.7144   9.7151   9.7329
     9.7401   9.7427   9.7520   9.7571   9.8970   9.9016   9.9454   9.9692
     9.9964  10.0606  10.1447  10.1854  10.2163  10.2305  10.2473  10.2491
    10.2603  10.2647  10.2680  10.2743  10.2773  10.2798  10.3438  10.3502
    10.3549  10.3711  10.3768  10.3828  10.4292  10.4352  10.4454  10.4518
    10.5252  10.5302  10.5459  10.5554  10.5635  10.5688  10.5789  10.5896
    10.5950  10.6065  10.6636  10.6644  10.7136  10.7275  10.7552  10.7736
    10.7969  10.8093  10.8230  10.8513  10.8641  10.8771  10.8861  10.9074
    10.9840  11.0064  11.0128  11.0212  11.0422  11.0982  11.1683  11.1754
    11.3429  11.3472  11.3486  11.3569  11.3741  11.3829  11.3917  11.3952
    11.4020  11.4167  11.4490  11.4809  11.4931  11.5353  11.5412  11.5433
    11.5650  11.5900  11.6066  11.6173  11.6225  11.6297  11.6787  11.6986
    11.7486  11.7672  11.7847  11.7863  11.8014  11.8147  11.8504  11.8505
    11.9033  11.9078  11.9103  11.9238  11.9369  11.9371  11.9450  11.9598
    11.9747  11.9788  11.9844  12.0140  12.0976  12.1027  12.1607  12.1696
    12.1926  12.1977  12.2061  12.2113  12.2389  12.2477  12.2563  12.2660
    12.2804  12.3310  12.3368  12.3614  12.3629  12.3704  12.3864  12.3934
    12.3955  12.4240  12.4382  12.4482  12.4583  12.4786  12.5188  12.5438
    12.5543  12.5853  12.6137  12.6484  12.6561  12.7483  12.7668  12.9003
    12.9056  12.9435  12.9670  12.9906  13.0229  13.0645  13.0835  13.1442
    13.1511  13.1603  13.1920  13.2034  13.2279  13.2404  13.2734  13.3169
    13.4365  13.4578  13.4777  13.5810  13.6236  14.4955  14.5301  14.5638
    14.6299  14.6914  14.7223  14.7798  14.8009  14.8470  14.8675  15.0064
    15.0136  15.1360  15.2989  15.3088  15.4089  15.4105  15.4580  15.5010
    15.5776  15.7314  15.7721  15.8556  15.8798  15.8840  15.9278  15.9998
    16.0150  16.0159  16.0470  16.0967  16.1054  16.1247  16.1889  16.2014
    16.2279  16.2310  16.2317  16.2737  16.2963  16.3179  16.3353  16.3761
    16.4287  16.4427  16.5236  16.6544  16.7088  16.7851  17.0194  17.0658
    17.1436  17.1913  17.2238  17.2954  17.3529  17.4106  17.6184  17.6255
    17.6771  17.7470  17.8257  17.8296  17.8643  17.8769  17.9141  17.9202
    18.0190  18.0538  18.1227  18.2396  19.2535  19.3056  19.3207  19.3820

          k = 0.0000-0.5000-0.5734 ( 31696 PWs)   bands (ev):

   -66.7847 -66.7633 -66.7436 -66.7392 -66.7308 -66.7264 -66.6116 -66.5823
   -66.5562 -62.4027 -62.3830 -62.3728 -62.3695 -62.3684 -62.3584 -62.3562
   -62.3441 -62.3238 -35.5366 -35.5317 -35.5265 -35.5151 -35.5095 -35.5065
   -35.5049 -35.4952 -35.4891 -35.4872 -35.4828 -35.4802 -35.4794 -35.4756
   -35.4616 -35.4554 -35.4505 -35.4435 -35.3660 -35.3561 -35.3542 -35.3482
   -35.3309 -35.3187 -35.3074 -35.2890 -35.2838 -31.2407 -31.2308 -31.2222
   -31.2153 -31.2136 -31.2134 -31.2085 -31.2057 -31.2043 -31.2013 -31.2001
   -31.1969 -31.1915 -31.1866 -31.1853 -31.1845 -31.1835 -31.1809 -31.1800
   -31.1786 -31.1724 -31.1620 -31.1600 -31.1561 -31.1495 -31.1478 -31.1436
     6.5187   6.5380   6.6265   6.6415   7.8339   7.8462   7.8491   7.8623
     7.9043   7.9139   7.9306   7.9424   8.2688   8.2720   8.2992   8.3006
     8.5168   8.5221   8.5277   8.5291   8.6694   8.6723   8.6799   8.6876
     8.6890   8.6939   8.7079   8.7207   8.7304   8.7314   8.7382   8.7421
     8.7510   8.7749   8.7799   8.7815   8.9478   8.9642   9.0348   9.0416
     9.0433   9.0440   9.0519   9.0542   9.1689   9.1865   9.2105   9.2157
     9.2170   9.2233   9.2332   9.2336   9.2394   9.2408   9.2455   9.2549
     9.2569   9.2576   9.2697   9.2729   9.3221   9.3546   9.3857   9.4044
     9.4148   9.4264   9.4480   9.4542   9.4590   9.4628   9.4654   9.4754
     9.5055   9.5116   9.5146   9.5244   9.5329   9.5401   9.5484   9.5546
     9.5789   9.5941   9.7514   9.7532   9.7966   9.8079   9.8097   9.8135
     9.8213   9.8330   9.8334   9.8402   9.8562   9.8607   9.8609   9.8775
     9.9491   9.9541  10.0103  10.0115  10.0284  10.0364  10.0495  10.0548
    10.3577  10.3654  10.3681  10.3713  10.3896  10.3933  10.4343  10.4367
    10.4426  10.4554  10.4615  10.4641  10.4729  10.5031  10.5179  10.5285
    10.5477  10.5501  10.5593  10.5712  10.5888  10.6060  10.6328  10.6412
    10.6515  10.6549  10.6716  10.6753  10.6888  10.6934  10.7291  10.7328
    10.7521  10.7809  10.8306  10.8402  10.9854  10.9905  11.0061  11.0125
    11.1114  11.1276  11.1509  11.1786  11.1834  11.1855  11.1930  11.1931
    11.2110  11.2111  11.3260  11.3261  11.3335  11.3392  11.3696  11.3829
    11.3837  11.3877  11.4140  11.4451  11.4452  11.4489  11.4859  11.4979
    11.5489  11.5492  11.5627  11.5683  11.5723  11.5753  11.6031  11.6277
    11.6405  11.6431  11.7346  11.7423  11.7513  11.7704  11.7836  11.8781
    11.8850  11.9067  11.9145  11.9186  11.9688  11.9750  11.9976  12.0044
    12.0090  12.0294  12.0325  12.0347  12.0352  12.0386  12.0422  12.0606
    12.1971  12.2175  12.2516  12.2569  12.2720  12.2772  12.3088  12.3316
    12.3357  12.3476  12.3694  12.3753  12.3830  12.4104  12.4439  12.4496
    12.4653  12.4742  12.4912  12.4954  12.5274  12.5356  12.5524  12.5815
    12.5963  12.6451  12.6478  12.6555  12.6644  12.6712  12.6881  12.7424
    12.7745  12.8303  12.8531  12.9393  12.9522  12.9698  12.9763  13.1547
    13.2865  13.2988  13.3929  13.4347  13.5368  13.6751  13.7153  13.8927
    13.9629  14.0155  14.0234  14.0800  14.1154  14.1574  14.1645  14.2013
    14.3050  14.5465  14.5558  14.6530  14.6786  14.7340  14.7765  15.0352
    15.0370  15.2937  15.2964  15.4165  15.4405  15.4475  15.5112  15.5726
    15.5889  15.6150  15.6582  15.6986  15.7355  15.8657  15.8849  15.9484
    15.9766  16.0973  16.1223  16.1699  16.1801  16.2016  16.2144  16.2201
    16.2826  16.2833  16.3018  16.3428  16.3885  16.3973  16.4135  16.4301
    16.4641  16.5383  16.5453  16.5817  16.5935  16.6332  16.6671  16.7242
    16.7640  16.7735  16.8362  16.8380  16.8889  16.8903  16.9511  17.0027
    17.1392  17.1611  17.2017  17.2046  18.6735  18.6781  18.6945  18.7120
    18.7432  18.7653  18.8052  18.8066  18.8687  18.8805  18.9863  19.0046

          k =-0.5000-0.5000 0.0000 ( 31612 PWs)   bands (ev):

   -66.7847 -66.7633 -66.7436 -66.7392 -66.7308 -66.7264 -66.6116 -66.5823
   -66.5562 -62.4027 -62.3830 -62.3728 -62.3695 -62.3684 -62.3584 -62.3562
   -62.3441 -62.3238 -35.5366 -35.5321 -35.5259 -35.5151 -35.5096 -35.5065
   -35.5049 -35.4953 -35.4890 -35.4872 -35.4828 -35.4802 -35.4793 -35.4756
   -35.4614 -35.4554 -35.4506 -35.4435 -35.3660 -35.3561 -35.3542 -35.3482
   -35.3309 -35.3187 -35.3074 -35.2890 -35.2838 -31.2407 -31.2308 -31.2222
   -31.2153 -31.2136 -31.2134 -31.2087 -31.2058 -31.2043 -31.2030 -31.2001
   -31.1938 -31.1915 -31.1866 -31.1865 -31.1845 -31.1827 -31.1809 -31.1801
   -31.1786 -31.1728 -31.1620 -31.1600 -31.1561 -31.1495 -31.1478 -31.1436
     6.4069   6.4302   6.4544   6.4565   8.0031   8.0097   8.0158   8.0269
     8.0974   8.1091   8.2830   8.3174   8.3271   8.3353   8.3372   8.3431
     8.3457   8.3500   8.3536   8.3574   8.3680   8.3754   8.5865   8.6083
     8.6404   8.6613   8.6789   8.6975   8.7092   8.7157   8.7285   8.7406
     8.7727   8.7776   8.9155   8.9320   8.9537   8.9707   8.9755   8.9758
     8.9826   8.9892   9.0020   9.0044   9.0156   9.0183   9.0318   9.0475
     9.1171   9.1245   9.3019   9.3059   9.3180   9.3265   9.3965   9.4090
     9.4176   9.4231   9.4240   9.4275   9.4300   9.4420   9.4479   9.4507
     9.4616   9.4685   9.4707   9.4763   9.4803   9.4809   9.4864   9.4962
     9.4988   9.5043   9.5133   9.5310   9.5441   9.5581   9.5791   9.5897
     9.6068   9.6090   9.6981   9.6992   9.7566   9.7985   9.8179   9.8316
     9.8322   9.8339   9.8346   9.8419   9.8499   9.8575  10.0419  10.0608
    10.0795  10.0999  10.1097  10.1107  10.1385  10.1443  10.1518  10.1624
    10.1773  10.1907  10.2015  10.2123  10.2207  10.2215  10.2251  10.2274
    10.2284  10.2304  10.2382  10.2476  10.4409  10.4786  10.4919  10.4948
    10.4980  10.5061  10.5261  10.5460  10.6090  10.6244  10.6389  10.6467
    10.6589  10.6616  10.6777  10.6811  10.6832  10.6866  10.6896  10.6965
    10.7018  10.7054  10.8079  10.8115  10.8304  10.8496  10.8651  10.8803
    10.9341  10.9480  11.1975  11.2080  11.2152  11.2166  11.3075  11.3215
    11.3228  11.3368  11.3497  11.3622  11.3865  11.3947  11.5423  11.5595
    11.5711  11.5800  11.6385  11.6437  11.6445  11.6447  11.6463  11.6476
    11.6724  11.6883  11.6894  11.7152  11.7263  11.7287  11.7735  11.7747
    11.8747  11.8748  11.8771  11.8790  11.8854  11.8860  11.9713  11.9955
    12.0052  12.0067  12.0626  12.0657  12.0658  12.1048  12.1082  12.1089
    12.1128  12.1133  12.1143  12.1196  12.1449  12.1449  12.1498  12.1604
    12.1719  12.1779  12.1933  12.2044  12.2172  12.2563  12.2648  12.2660
    12.2749  12.2808  12.2866  12.2884  12.2896  12.2939  12.2949  12.3220
    12.3603  12.3692  12.4378  12.4441  12.4582  12.5030  12.5265  12.5341
    12.5384  12.5470  12.5630  12.5726  12.5798  12.6131  12.6446  12.6564
    12.6575  12.6974  12.7431  12.8070  12.8488  12.8610  12.8906  12.9246
    12.9717  12.9739  13.0134  13.0226  13.1306  13.5450  13.5960  13.6185
    13.6541  13.6813  13.7028  13.9123  13.9424  13.9500  14.1078  14.1455
    14.1611  14.2206  14.4633  14.4828  14.4995  14.5645  14.7378  15.1095
    15.1252  15.1914  15.2106  15.2685  15.3678  15.4019  15.6634  15.7612
    15.7730  15.7984  15.8089  15.8118  15.8782  15.9016  15.9201  15.9650
    15.9815  15.9897  16.0000  16.0131  16.0368  16.0466  16.0642  16.1623
    16.1842  16.2006  16.2903  16.3117  16.3187  16.3231  16.3464  16.4203
    16.4866  16.4899  16.5387  16.6595  16.6716  16.6888  16.6949  16.7271
    16.7807  16.8882  16.9577  16.9787  17.3846  17.3885  17.7984  17.9273
    18.1634  18.1910  18.2048  18.2093  18.2640  18.4158  18.5293  18.5510
    18.6121  18.6362  18.6429  18.6667  18.7350  18.7901  18.7993  18.8031

          k =-0.5000-0.5000-0.5734 ( 31672 PWs)   bands (ev):

   -66.7847 -66.7633 -66.7436 -66.7392 -66.7308 -66.7264 -66.6116 -66.5823
   -66.5562 -62.4027 -62.3830 -62.3728 -62.3695 -62.3684 -62.3584 -62.3562
   -62.3441 -62.3238 -35.5366 -35.5321 -35.5259 -35.5151 -35.5096 -35.5065
   -35.5049 -35.4953 -35.4890 -35.4872 -35.4828 -35.4802 -35.4793 -35.4756
   -35.4614 -35.4554 -35.4506 -35.4435 -35.3660 -35.3561 -35.3542 -35.3482
   -35.3309 -35.3187 -35.3074 -35.2890 -35.2838 -31.2407 -31.2308 -31.2222
   -31.2153 -31.2136 -31.2134 -31.2087 -31.2058 -31.2043 -31.2030 -31.2001
   -31.1938 -31.1915 -31.1866 -31.1865 -31.1845 -31.1827 -31.1809 -31.1801
   -31.1786 -31.1728 -31.1620 -31.1600 -31.1561 -31.1495 -31.1478 -31.1436
     6.8865   6.9153   6.9198   6.9298   6.9933   7.0044   7.0296   7.0469
     8.4502   8.4581   8.4688   8.4753   8.4825   8.4864   8.4888   8.4916
     8.5014   8.5039   8.5155   8.5218   8.5372   8.5401   8.5419   8.5610
     8.5701   8.5717   8.5946   8.6073   8.8772   8.8807   8.8849   8.8863
     8.9069   8.9120   8.9255   8.9309   9.0897   9.1087   9.1103   9.1180
     9.1236   9.1447   9.1466   9.1494   9.1509   9.1544   9.1545   9.1632
     9.1634   9.1678   9.1685   9.1696   9.1721   9.1746   9.1767   9.1816
     9.1831   9.1841   9.1902   9.1910   9.1967   9.2037   9.2062   9.2187
     9.2329   9.2340   9.2404   9.2417   9.2537   9.2586   9.2613   9.2698
     9.5433   9.5442   9.5603   9.5710   9.5772   9.5830   9.6100   9.6145
     9.6476   9.6602   9.6655   9.6780   9.7190   9.7386   9.7538   9.7778
     9.8167   9.8384   9.8447   9.8504   9.8758   9.8772   9.8847   9.8956
    10.1151  10.1260  10.1398  10.1499  10.1658  10.1713  10.1779  10.1786
    10.2911  10.3052  10.4430  10.4511  10.4669  10.4675  10.4733  10.4746
    10.4844  10.4867  10.4913  10.4957  10.4991  10.5023  10.5152  10.5176
    10.5211  10.5280  10.5375  10.5472  10.5607  10.5609  10.5791  10.5843
    10.5977  10.6185  10.6318  10.6411  10.6490  10.6702  10.6782  10.6836
    10.6904  10.6912  10.7006  10.7054  10.7169  10.7208  11.0430  11.0474
    11.0591  11.0665  11.0929  11.0944  11.1097  11.1098  11.3696  11.3698
    11.3967  11.3985  11.4015  11.4256  11.4411  11.4501  11.4660  11.4711
    11.4769  11.4911  11.5007  11.5069  11.5080  11.5160  11.6380  11.6400
    11.6446  11.6468  11.6695  11.6719  11.6860  11.6878  11.7022  11.7230
    11.7246  11.7275  11.7341  11.7437  11.7752  11.7768  11.7845  11.7876
    11.7984  11.8011  11.8124  11.8285  11.8320  11.8400  11.9900  12.0066
    12.0152  12.0501  12.0578  12.0645  12.1037  12.1230  12.1312  12.1391
    12.1646  12.1863  12.2045  12.2172  12.2430  12.2689  12.2859  12.2919
    12.2951  12.3495  12.4031  12.4219  12.4278  12.4368  12.4557  12.4585
    12.4820  12.4836  12.5396  12.5571  12.5654  12.5782  12.5875  12.5933
    12.6194  12.6508  12.6794  12.6848  12.6921  12.7046  12.7156  12.7619
    12.8101  12.8407  12.9555  12.9588  13.0731  13.0821  13.1133  13.1715
    13.2472  13.2876  13.2970  13.3143  13.4114  13.4718  13.5227  13.5418
    13.6237  13.6928  13.8430  13.8706  13.8778  13.9197  14.0748  14.1133
    14.1443  14.1673  14.2285  14.6475  14.7130  14.7490  14.8455  15.0620
    15.0633  15.1757  15.2154  15.4432  15.4446  15.5816  15.6648  15.7008
    15.7020  15.7824  15.8281  15.8330  15.8692  15.9048  15.9194  15.9385
    15.9487  15.9924  16.0688  16.0712  16.1377  16.1830  16.1866  16.2068
    16.2151  16.2195  16.2344  16.2411  16.3469  16.4203  16.4571  16.4958
    16.5169  16.5226  16.5888  16.5979  16.6432  16.6759  16.6815  16.6861
    16.7725  16.8554  16.8696  16.8902  16.8963  16.9328  16.9838  17.0186
    17.0791  17.1052  17.7318  17.8074  17.8532  17.8574  19.0119  19.0178
    19.0504  19.0511  19.0630  19.0950  19.1689  19.2348  19.3005  19.3037

          k =-0.5000 0.0000 0.0000 ( 31722 PWs)   bands (ev):

   -66.7847 -66.7633 -66.7436 -66.7392 -66.7308 -66.7264 -66.6116 -66.5823
   -66.5562 -62.4027 -62.3830 -62.3728 -62.3695 -62.3684 -62.3584 -62.3562
   -62.3441 -62.3238 -35.5366 -35.5321 -35.5259 -35.5151 -35.5096 -35.5065
   -35.5049 -35.4953 -35.4890 -35.4872 -35.4828 -35.4802 -35.4793 -35.4756
   -35.4614 -35.4554 -35.4506 -35.4435 -35.3660 -35.3561 -35.3542 -35.3482
   -35.3309 -35.3187 -35.3074 -35.2890 -35.2838 -31.2407 -31.2308 -31.2222
   -31.2153 -31.2136 -31.2134 -31.2087 -31.2058 -31.2043 -31.2030 -31.2002
   -31.1938 -31.1915 -31.1866 -31.1866 -31.1845 -31.1827 -31.1809 -31.1801
   -31.1786 -31.1728 -31.1620 -31.1600 -31.1561 -31.1495 -31.1478 -31.1436
     6.0326   6.0472   7.4042   7.4096   7.4704   7.4885   7.6697   7.6768
     8.1081   8.1130   8.1423   8.1729   8.1928   8.2043   8.2612   8.2750
     8.3842   8.3939   8.4759   8.4944   8.6175   8.6238   8.6335   8.6524
     8.6560   8.6718   8.6910   8.7104   8.7876   8.8080   8.8143   8.8217
     8.8325   8.8504   8.8753   8.8860   8.8931   8.8993   8.9096   8.9116
     8.9360   8.9421   8.9471   8.9565   9.0459   9.0506   9.1548   9.1571
     9.1905   9.2057   9.2174   9.2201   9.2280   9.2344   9.3099   9.3149
     9.3508   9.3679   9.3960   9.4173   9.4710   9.4745   9.4793   9.4813
     9.5303   9.5468   9.5623   9.5748   9.5841   9.5940   9.6053   9.6131
     9.6183   9.6282   9.6311   9.6332   9.6377   9.6394   9.6420   9.6461
     9.6468   9.6538   9.6627   9.6645   9.7051   9.7106   9.7112   9.7125
     9.7378   9.7474   9.7625   9.7643   9.8956   9.9004   9.9324   9.9562
    10.0179  10.0330  10.1628  10.1909  10.2085  10.2119  10.2502  10.2536
    10.2699  10.2706  10.2718  10.2758  10.2826  10.2847  10.3460  10.3524
    10.3773  10.3798  10.3813  10.3851  10.4241  10.4306  10.4716  10.4808
    10.4858  10.5067  10.5189  10.5202  10.5256  10.5358  10.5847  10.5899
    10.6594  10.6671  10.6875  10.6977  10.7191  10.7194  10.7399  10.7635
    10.8119  10.8247  10.8345  10.8474  10.8585  10.8624  10.8846  10.8986
    10.9469  10.9568  11.0096  11.0189  11.0707  11.0844  11.1782  11.1847
    11.2786  11.3036  11.3452  11.3468  11.3626  11.3646  11.3996  11.4146
    11.4574  11.4597  11.4696  11.4793  11.4926  11.5122  11.5223  11.5608
    11.5803  11.5895  11.5967  11.6068  11.6608  11.6702  11.6813  11.7362
    11.7508  11.7793  11.7919  11.8017  11.8336  11.8554  11.8623  11.8685
    11.8685  11.8731  11.8810  11.9069  11.9204  11.9225  11.9432  11.9505
    11.9636  11.9823  12.0143  12.0165  12.0840  12.1182  12.1529  12.1555
    12.1602  12.1958  12.2078  12.2171  12.2432  12.2485  12.2505  12.2671
    12.2708  12.2919  12.2986  12.3612  12.3745  12.3817  12.3962  12.4132
    12.4434  12.4453  12.4539  12.4598  12.4752  12.5062  12.5268  12.5504
    12.5819  12.5881  12.6127  12.6737  12.7172  12.7260  12.7465  12.7666
    12.7819  12.8498  12.9029  12.9101  12.9767  13.0291  13.1302  13.1477
    13.1620  13.1697  13.2120  13.2324  13.2573  13.3017  13.3149  13.4149
    13.4346  13.4607  13.5196  13.5678  13.6330  14.3279  14.4990  14.5538
    14.5740  14.7462  14.7715  14.8034  14.8486  14.8667  15.0236  15.0740
    15.0994  15.1007  15.1478  15.2634  15.3225  15.4056  15.4990  15.6701
    15.6839  15.7371  15.7668  15.7855  15.8489  15.8733  15.9405  15.9845
    15.9876  16.0214  16.0417  16.0457  16.0580  16.0719  16.1204  16.1449
    16.1887  16.2007  16.2212  16.2357  16.2502  16.2854  16.3326  16.3667
    16.4284  16.4545  16.7009  16.7119  16.7308  16.8282  16.9209  16.9973
    17.1438  17.2239  17.2773  17.2938  17.5518  17.5668  17.6027  17.6042
    17.7248  17.7485  17.7682  17.7847  17.8028  17.8627  17.9049  17.9269
    17.9925  18.1001  18.1151  18.1791  19.2802  19.3141  19.3465  19.3894

          k =-0.5000 0.0000 0.5734 ( 31696 PWs)   bands (ev):

   -66.7847 -66.7633 -66.7436 -66.7392 -66.7308 -66.7264 -66.6116 -66.5823
   -66.5562 -62.4027 -62.3830 -62.3728 -62.3695 -62.3684 -62.3584 -62.3562
   -62.3441 -62.3238 -35.5366 -35.5321 -35.5259 -35.5151 -35.5096 -35.5065
   -35.5049 -35.4953 -35.4890 -35.4872 -35.4828 -35.4802 -35.4793 -35.4756
   -35.4614 -35.4554 -35.4506 -35.4435 -35.3660 -35.3561 -35.3542 -35.3482
   -35.3309 -35.3187 -35.3074 -35.2890 -35.2838 -31.2407 -31.2308 -31.2222
   -31.2153 -31.2136 -31.2134 -31.2087 -31.2058 -31.2043 -31.2030 -31.2002
   -31.1938 -31.1915 -31.1866 -31.1866 -31.1845 -31.1827 -31.1809 -31.1801
   -31.1786 -31.1728 -31.1620 -31.1600 -31.1561 -31.1495 -31.1478 -31.1436
     6.5525   6.5737   6.5887   6.6020   7.8327   7.8491   7.8647   7.8743
     7.9052   7.9205   7.9217   7.9337   8.2690   8.2719   8.2972   8.2987
     8.5108   8.5152   8.5348   8.5358   8.6564   8.6667   8.6683   8.6811
     8.6919   8.6938   8.7060   8.7068   8.7171   8.7216   8.7500   8.7509
     8.7550   8.7596   8.7957   8.8156   8.9745   8.9959   9.0066   9.0186
     9.0340   9.0393   9.0516   9.0610   9.2005   9.2018   9.2109   9.2167
     9.2176   9.2184   9.2235   9.2289   9.2420   9.2501   9.2561   9.2623
     9.2690   9.2710   9.2817   9.2949   9.3004   9.3024   9.3838   9.3996
     9.4104   9.4209   9.4551   9.4580   9.4643   9.4646   9.4720   9.4849
     9.4980   9.5104   9.5107   9.5181   9.5228   9.5301   9.5391   9.5412
     9.5459   9.5619   9.7546   9.7566   9.7911   9.7928   9.8043   9.8055
     9.8300   9.8377   9.8410   9.8434   9.8636   9.8696   9.8731   9.8900
     9.9662   9.9740   9.9872   9.9984  10.0047  10.0166  10.0662  10.0707
    10.3767  10.3957  10.3992  10.4046  10.4056  10.4073  10.4238  10.4558
    10.4654  10.4656  10.4740  10.4753  10.4883  10.4883  10.4947  10.4985
    10.5088  10.5107  10.5573  10.5594  10.5777  10.6064  10.6280  10.6310
    10.6387  10.6442  10.6635  10.6697  10.6884  10.6914  10.7296  10.7336
    10.7501  10.7769  10.8548  10.8657  10.9528  10.9599  11.0800  11.0905
    11.1101  11.1226  11.1251  11.1321  11.1621  11.1815  11.1965  11.2001
    11.2105  11.2111  11.2917  11.3151  11.3526  11.3605  11.3615  11.3733
    11.3733  11.3762  11.4027  11.4090  11.4791  11.4820  11.4833  11.5054
    11.5119  11.5185  11.5801  11.5830  11.5925  11.5989  11.6164  11.6319
    11.6389  11.6465  11.7244  11.7279  11.7419  11.7950  11.7967  11.8037
    11.9139  11.9169  11.9272  11.9390  11.9452  11.9720  11.9788  12.0080
    12.0310  12.0355  12.0361  12.0383  12.0718  12.1000  12.1066  12.1071
    12.1600  12.1624  12.1740  12.1808  12.2412  12.2573  12.2835  12.2959
    12.3295  12.4022  12.4043  12.4261  12.4274  12.4434  12.4463  12.4541
    12.5034  12.5152  12.5324  12.5618  12.5820  12.6014  12.6015  12.6071
    12.6276  12.6342  12.6426  12.6444  12.6465  12.6670  12.6945  12.7231
    12.7406  12.8048  12.8166  12.8870  12.8975  12.9218  12.9286  12.9488
    13.0525  13.1942  13.4036  13.5389  13.5756  13.6083  13.7839  13.7929
    13.9030  14.0629  14.0911  14.2663  14.2690  14.3179  14.3291  14.4206
    14.4369  14.5247  14.5476  14.5566  14.5773  14.6148  14.6207  14.8972
    14.9004  15.2619  15.2894  15.3399  15.4041  15.4765  15.4815  15.5051
    15.6030  15.7175  15.7822  15.8281  15.8623  15.8747  15.9067  15.9668
    15.9761  16.0627  16.0883  16.1084  16.1228  16.1273  16.1433  16.1814
    16.1854  16.2643  16.2905  16.3137  16.3507  16.3549  16.3936  16.4039
    16.4298  16.5314  16.5530  16.5594  16.6133  16.6230  16.7330  16.7611
    16.8105  16.8227  16.9193  16.9255  16.9727  16.9832  16.9957  17.0328
    17.1066  17.1544  17.1720  17.1933  18.6028  18.6308  18.6589  18.6729
    18.7431  18.7737  18.8526  18.8728  18.8943  18.9156  18.9175  18.9425

 ------ SPIN DOWN ----------


          k = 0.0000 0.0000 0.0000 ( 31747 PWs)   bands (ev):

   -66.7683 -66.7222 -66.7005 -66.6930 -66.6717 -66.6354 -66.6176 -66.5963
   -66.5928 -62.4088 -62.4014 -62.3971 -62.3932 -62.3894 -62.3817 -62.3171
   -62.3002 -62.2949 -35.5286 -35.5120 -35.4930 -35.4882 -35.4713 -35.4713
   -35.4633 -35.4427 -35.4373 -35.4372 -35.4350 -35.4282 -35.4146 -35.4046
   -35.4019 -35.3968 -35.3745 -35.3736 -35.3627 -35.3578 -35.3479 -35.3471
   -35.3414 -35.3411 -35.3402 -35.3318 -35.3291 -31.2455 -31.2427 -31.2374
   -31.2336 -31.2327 -31.2270 -31.2263 -31.2261 -31.2248 -31.2205 -31.2168
   -31.2137 -31.2134 -31.2075 -31.2027 -31.1994 -31.1951 -31.1944 -31.1535
   -31.1525 -31.1481 -31.1440 -31.1282 -31.1255 -31.1161 -31.1017 -31.1010
     5.6173   7.1409   7.1648   7.1968   7.2201   7.3667   7.8486   7.8920
     7.9292   7.9404   8.0610   8.1209   8.1375   8.1764   8.1919   8.2404
     8.2627   8.2967   8.3199   8.5110   8.5455   8.5691   8.5806   8.5972
     8.6106   8.8506   8.8555   8.8658   8.8847   8.8875   8.8900   8.8911
     8.9061   8.9084   8.9138   8.9257   8.9324   8.9624   8.9704   8.9863
     9.0086   9.0851   9.1204   9.1246   9.1311   9.1402   9.1519   9.1597
     9.1846   9.2081   9.2104   9.2676   9.2895   9.3029   9.3056   9.3499
     9.3579   9.3649   9.3703   9.3723   9.3912   9.3964   9.4009   9.4294
     9.4411   9.4488   9.4542   9.4558   9.4581   9.4610   9.4931   9.5796
     9.5813   9.5822   9.5897   9.5949   9.6259   9.6676   9.6707   9.6720
     9.6772   9.6787   9.6958   9.7388   9.7534   9.7883   9.8078   9.8505
     9.8524   9.9038   9.9144   9.9398   9.9549   9.9608  10.0257  10.0430
    10.0938  10.1206  10.1340  10.1610  10.2873  10.2886  10.2929  10.2955
    10.3056  10.3069  10.3075  10.3084  10.3186  10.3297  10.3395  10.3419
    10.3436  10.3549  10.3612  10.3649  10.3661  10.3697  10.3851  10.3964
    10.4016  10.5193  10.5206  10.5721  10.6165  10.6225  10.6397  10.6723
    10.6996  10.7860  10.7888  10.7909  10.8123  10.8151  10.8268  10.8311
    10.8449  10.8541  10.8572  10.8755  10.8768  10.8786  10.8799  10.8892
    10.9093  10.9231  11.0034  11.0329  11.0771  11.1094  11.2130  11.2208
    11.2256  11.2272  11.2342  11.2647  11.3238  11.3246  11.3351  11.3503
    11.3614  11.3817  11.3897  11.3911  11.3937  11.4024  11.4114  11.4177
    11.4456  11.4486  11.5151  11.5912  11.5926  11.5953  11.5991  11.5996
    11.6445  11.6689  11.7264  11.7324  11.7441  11.7540  11.7744  11.8333
    11.8447  11.8681  11.8725  11.8771  11.9223  11.9287  11.9426  11.9553
    11.9767  11.9900  12.0611  12.1015  12.1023  12.1050  12.1062  12.1306
    12.1416  12.1440  12.1487  12.1496  12.1562  12.1797  12.2209  12.2343
    12.2509  12.2583  12.2640  12.2643  12.3338  12.3524  12.3944  12.4081
    12.4364  12.4366  12.4504  12.4918  12.5103  12.5121  12.5217  12.5277
    12.5496  12.5653  12.5824  12.5906  12.5927  12.6005  12.6623  12.7086
    12.7171  12.7234  12.7310  12.7511  12.7667  12.8608  13.0923  13.0986
    13.1171  13.1348  13.2000  13.2200  13.3909  13.6440  13.8128  13.8346
    13.8740  14.0330  14.1390  14.1926  14.2790  14.3554  14.3893  14.6830
    14.7608  14.8152  14.8228  14.9799  15.0248  15.0404  15.1559  15.1646
    15.2103  15.3631  15.3672  15.3977  15.4291  15.4566  15.5652  15.6236
    15.6269  15.7255  15.7304  15.7662  15.7672  15.8733  15.8841  16.0144
    16.0240  16.0481  16.1110  16.1114  16.1195  16.1675  16.1828  16.2085
    16.2604  16.2783  16.3091  16.3176  16.3384  16.3511  16.3726  16.3932
    16.4275  16.4681  16.4754  16.6073  16.6212  16.6979  16.7749  16.7973
    16.9673  17.0324  17.0789  17.1651  17.2151  17.2371  17.2910  17.3166
    17.4498  17.5895  17.8499  17.9087  17.9245  17.9325  17.9713  18.1765
    18.2840  18.3300  18.4246  18.9236  18.9494  19.0541  19.1277  19.2757

          k = 0.0000 0.0000-0.5734 ( 31692 PWs)   bands (ev):

   -66.7683 -66.7222 -66.7005 -66.6930 -66.6717 -66.6354 -66.6176 -66.5963
   -66.5928 -62.4088 -62.4014 -62.3971 -62.3932 -62.3894 -62.3817 -62.3171
   -62.3002 -62.2949 -35.5286 -35.5120 -35.4930 -35.4882 -35.4713 -35.4713
   -35.4633 -35.4427 -35.4373 -35.4372 -35.4350 -35.4282 -35.4146 -35.4046
   -35.4019 -35.3968 -35.3745 -35.3736 -35.3627 -35.3578 -35.3479 -35.3471
   -35.3414 -35.3411 -35.3402 -35.3318 -35.3291 -31.2455 -31.2427 -31.2374
   -31.2336 -31.2327 -31.2270 -31.2263 -31.2261 -31.2248 -31.2205 -31.2168
   -31.2137 -31.2134 -31.2075 -31.2027 -31.1994 -31.1951 -31.1944 -31.1535
   -31.1525 -31.1481 -31.1440 -31.1282 -31.1255 -31.1161 -31.1017 -31.1010
     6.1757   6.1972   7.5394   7.5530   7.5664   7.5840   7.5870   7.6022
     7.6193   7.6302   8.3084   8.3250   8.3391   8.3490   8.3617   8.3694
     8.3783   8.3869   8.4525   8.4557   8.4781   8.4784   8.4900   8.5002
     8.5249   8.5254   8.7010   8.7099   8.7618   8.7806   8.9447   8.9648
     8.9659   8.9807   8.9811   8.9871   8.9873   8.9945   9.0087   9.0179
     9.0283   9.0420   9.0439   9.0571   9.0818   9.1067   9.1946   9.2115
     9.2174   9.2326   9.2466   9.2595   9.2731   9.2746   9.2808   9.2853
     9.2897   9.2904   9.2951   9.3046   9.3078   9.3099   9.4104   9.4105
     9.4300   9.4305   9.4374   9.4483   9.4516   9.4551   9.4628   9.4754
     9.4886   9.4955   9.5021   9.5167   9.5277   9.5471   9.6509   9.6794
     9.7885   9.7934   9.7991   9.8052   9.8060   9.8192   9.8275   9.8354
     9.8790   9.8811   9.8815   9.8833   9.8884   9.8908   9.8923   9.8937
    10.0592  10.0612  10.0636  10.0655  10.1393  10.1568  10.1588  10.1695
    10.1719  10.1864  10.1880  10.1932  10.2048  10.2160  10.3593  10.3610
    10.3761  10.3793  10.3930  10.4044  10.4181  10.4210  10.4789  10.5035
    10.5961  10.5971  10.6133  10.6170  10.6229  10.6358  10.6677  10.6722
    10.6724  10.6888  10.7097  10.7444  10.7526  10.8000  10.8014  10.8161
    10.9807  10.9991  10.9992  11.0073  11.0145  11.0198  11.0387  11.0829
    11.0872  11.0996  11.1073  11.1290  11.1503  11.1655  11.2045  11.2166
    11.2379  11.2436  11.2513  11.2513  11.2620  11.2624  11.2719  11.2729
    11.2742  11.2804  11.2814  11.2835  11.2905  11.2907  11.2970  11.2999
    11.3070  11.3089  11.3251  11.3261  11.5592  11.5743  11.7143  11.7149
    11.7159  11.7205  11.7237  11.7246  11.7265  11.7275  11.7348  11.7660
    11.7766  11.7814  11.7884  11.7966  11.8069  11.8227  11.8291  11.9291
    11.9814  11.9886  11.9947  12.0157  12.0277  12.0328  12.0500  12.0720
    12.1314  12.1710  12.1964  12.2344  12.2583  12.3342  12.3480  12.3686
    12.3759  12.4299  12.4361  12.4770  12.4800  12.4823  12.4851  12.4898
    12.4983  12.5048  12.5351  12.5394  12.5456  12.5542  12.5784  12.6453
    12.6570  12.6793  12.6851  12.7712  12.7832  12.8134  12.9221  12.9693
    12.9826  13.0339  13.0519  13.0748  13.1359  13.1608  13.2272  13.2274
    13.2442  13.2743  13.2871  13.3098  13.3229  13.5418  13.6246  13.7276
    13.9082  13.9619  13.9877  14.1181  14.1543  14.1629  14.2981  14.4738
    14.5215  14.8611  14.9010  14.9135  14.9830  14.9985  15.0061  15.1177
    15.1633  15.1671  15.1733  15.3286  15.3649  15.4144  15.4668  15.5492
    15.6576  15.6633  15.6813  15.7686  15.8003  15.8763  15.9509  15.9789
    16.0824  16.0859  16.1156  16.1489  16.1724  16.1848  16.2062  16.2162
    16.2301  16.2456  16.2537  16.2620  16.2725  16.2879  16.2966  16.2997
    16.3238  16.3522  16.5123  16.5873  16.5930  16.6733  16.7101  16.7409
    16.8471  16.8928  17.3218  17.3277  17.3530  17.4030  17.4816  17.5442
    17.5537  17.5650  17.6636  17.6936  17.7117  17.7436  17.8860  17.9057
    17.9177  17.9203  18.1662  18.2337  18.2338  18.2733  18.2985  18.3286

          k = 0.0000-0.5000 0.0000 ( 31722 PWs)   bands (ev):

   -66.7683 -66.7222 -66.7005 -66.6930 -66.6717 -66.6354 -66.6176 -66.5963
   -66.5928 -62.4088 -62.4014 -62.3971 -62.3932 -62.3894 -62.3817 -62.3171
   -62.3002 -62.2949 -35.5286 -35.5120 -35.4930 -35.4882 -35.4713 -35.4713
   -35.4633 -35.4427 -35.4373 -35.4372 -35.4350 -35.4282 -35.4146 -35.4046
   -35.4019 -35.3968 -35.3745 -35.3736 -35.3627 -35.3578 -35.3479 -35.3471
   -35.3414 -35.3411 -35.3402 -35.3318 -35.3291 -31.2455 -31.2427 -31.2374
   -31.2336 -31.2327 -31.2270 -31.2263 -31.2261 -31.2248 -31.2205 -31.2168
   -31.2137 -31.2134 -31.2075 -31.2027 -31.1994 -31.1951 -31.1944 -31.1535
   -31.1525 -31.1481 -31.1440 -31.1282 -31.1255 -31.1161 -31.1017 -31.1010
     6.0186   6.0720   7.4250   7.4309   7.4442   7.5004   7.6761   7.6794
     8.0920   8.1137   8.1459   8.1820   8.2092   8.2353   8.2513   8.2642
     8.4057   8.4214   8.4375   8.4940   8.6337   8.6397   8.6413   8.6468
     8.6580   8.6635   8.7055   8.7126   8.7543   8.8073   8.8322   8.8413
     8.8473   8.8692   8.8840   8.8902   8.8971   8.9101   8.9165   8.9213
     8.9248   8.9304   8.9415   8.9630   9.0462   9.0559   9.1661   9.1687
     9.1832   9.2083   9.2220   9.2270   9.2306   9.2496   9.3382   9.3416
     9.3458   9.3545   9.3836   9.4160   9.4717   9.4868   9.4969   9.5048
     9.5220   9.5337   9.5781   9.5807   9.5866   9.6031   9.6103   9.6129
     9.6212   9.6281   9.6300   9.6317   9.6371   9.6391   9.6441   9.6471
     9.6564   9.6623   9.6780   9.6893   9.6971   9.7052   9.7197   9.7230
     9.7302   9.7455   9.7775   9.7858   9.8878   9.9136   9.9448   9.9669
    10.0219  10.0413  10.1380  10.2002  10.2184  10.2300  10.2517  10.2566
    10.2595  10.2611  10.2614  10.2642  10.2928  10.2984  10.3375  10.3515
    10.3614  10.3761  10.3893  10.3941  10.4314  10.4445  10.4511  10.4723
    10.5261  10.5313  10.5372  10.5543  10.5634  10.5704  10.5735  10.5876
    10.6058  10.6528  10.6566  10.6942  10.7041  10.7402  10.7502  10.7757
    10.7860  10.8192  10.8202  10.8575  10.8604  10.8707  10.9016  10.9427
    10.9993  11.0092  11.0156  11.0251  11.0398  11.0823  11.1722  11.1816
    11.3483  11.3505  11.3527  11.3786  11.3791  11.4009  11.4012  11.4136
    11.4216  11.4347  11.4573  11.4790  11.4794  11.5351  11.5414  11.5424
    11.5610  11.5728  11.5833  11.6178  11.6233  11.6479  11.6703  11.7379
    11.7655  11.7847  11.7915  11.8191  11.8527  11.8680  11.8685  11.8728
    11.8939  11.9001  11.9210  11.9251  11.9410  11.9425  11.9551  11.9600
    11.9697  11.9725  11.9878  11.9956  12.0535  12.0922  12.1690  12.1697
    12.1958  12.2074  12.2099  12.2147  12.2290  12.2528  12.2728  12.2831
    12.2881  12.2944  12.3191  12.3221  12.3445  12.4043  12.4109  12.4456
    12.4489  12.4846  12.4869  12.4928  12.5132  12.5402  12.5482  12.5609
    12.5730  12.6095  12.6186  12.6440  12.6555  12.6639  12.7290  12.7988
    12.8667  13.0076  13.0337  13.0680  13.0987  13.1027  13.1149  13.1443
    13.1650  13.1787  13.2022  13.2330  13.2529  13.2832  13.3415  13.3429
    13.3480  13.4664  13.4992  13.5814  13.6341  14.4528  14.4786  14.5743
    14.6434  14.7362  14.7641  14.7689  14.7981  14.9030  14.9487  14.9913
    15.0504  15.0682  15.1128  15.2526  15.4265  15.4642  15.5377  15.6294
    15.7023  15.7675  15.7885  15.7926  15.8008  15.8106  15.8477  16.0173
    16.0195  16.0594  16.0736  16.0839  16.1201  16.1348  16.1577  16.1760
    16.1902  16.2046  16.2438  16.2526  16.2961  16.3192  16.3701  16.4211
    16.4302  16.4973  16.5575  16.6005  16.6561  16.7785  17.0449  17.0722
    17.1381  17.1887  17.2184  17.3241  17.4050  17.4345  17.6160  17.6354
    17.7214  17.7674  17.7709  17.8255  17.8506  17.8709  17.8747  17.9747
    17.9879  18.0019  18.1761  18.2749  19.2293  19.2938  19.3411  19.3843

          k = 0.0000-0.5000-0.5734 ( 31696 PWs)   bands (ev):

   -66.7683 -66.7222 -66.7005 -66.6930 -66.6717 -66.6354 -66.6176 -66.5963
   -66.5928 -62.4088 -62.4014 -62.3971 -62.3932 -62.3894 -62.3817 -62.3171
   -62.3002 -62.2949 -35.5286 -35.5120 -35.4930 -35.4882 -35.4713 -35.4713
   -35.4633 -35.4427 -35.4373 -35.4372 -35.4350 -35.4282 -35.4146 -35.4046
   -35.4019 -35.3968 -35.3745 -35.3736 -35.3627 -35.3578 -35.3479 -35.3471
   -35.3414 -35.3411 -35.3402 -35.3318 -35.3291 -31.2455 -31.2427 -31.2374
   -31.2336 -31.2327 -31.2270 -31.2263 -31.2261 -31.2248 -31.2205 -31.2168
   -31.2137 -31.2134 -31.2075 -31.2027 -31.1994 -31.1951 -31.1944 -31.1535
   -31.1525 -31.1481 -31.1440 -31.1282 -31.1255 -31.1161 -31.1017 -31.1010
     6.5271   6.5491   6.6260   6.6448   7.8340   7.8604   7.8627   7.8690
     7.9092   7.9158   7.9284   7.9512   8.2714   8.2781   8.3020   8.3049
     8.5173   8.5255   8.5328   8.5359   8.6663   8.6725   8.6746   8.6756
     8.6860   8.7014   8.7122   8.7263   8.7311   8.7368   8.7503   8.7536
     8.7564   8.7848   8.7876   8.7901   8.9534   8.9693   9.0371   9.0427
     9.0432   9.0480   9.0570   9.0595   9.1911   9.2062   9.2139   9.2169
     9.2225   9.2292   9.2358   9.2389   9.2438   9.2473   9.2501   9.2577
     9.2605   9.2654   9.2762   9.2795   9.3035   9.3447   9.3829   9.4063
     9.4170   9.4279   9.4521   9.4566   9.4653   9.4671   9.4692   9.4892
     9.5053   9.5193   9.5208   9.5314   9.5317   9.5460   9.5548   9.5602
     9.5819   9.5977   9.7551   9.7572   9.7953   9.8134   9.8177   9.8214
     9.8229   9.8407   9.8461   9.8504   9.8569   9.8619   9.8674   9.8807
     9.9389   9.9452  10.0169  10.0273  10.0333  10.0470  10.0526  10.0533
    10.3602  10.3764  10.3895  10.3918  10.4069  10.4140  10.4317  10.4403
    10.4515  10.4521  10.4723  10.4759  10.4778  10.4815  10.4911  10.5149
    10.5309  10.5638  10.5690  10.5782  10.5798  10.5909  10.6424  10.6498
    10.6562  10.6590  10.6803  10.6828  10.6923  10.7012  10.7139  10.7271
    10.7701  10.7904  10.8617  10.8795  10.9766  10.9875  11.0304  11.0329
    11.1133  11.1206  11.1477  11.1858  11.1922  11.1939  11.1957  11.2071
    11.2124  11.2137  11.2965  11.2987  11.3428  11.3479  11.3690  11.3811
    11.3847  11.3978  11.4219  11.4479  11.4495  11.4527  11.4874  11.4986
    11.5671  11.5707  11.5823  11.5836  11.5920  11.6127  11.6184  11.6216
    11.6240  11.6274  11.7326  11.7461  11.7463  11.7713  11.7833  11.8814
    11.8893  11.9092  11.9268  11.9378  11.9670  11.9950  12.0046  12.0137
    12.0216  12.0270  12.0300  12.0401  12.0419  12.0431  12.0572  12.0903
    12.2249  12.2355  12.2620  12.2748  12.2793  12.2933  12.3067  12.3298
    12.3431  12.3477  12.3663  12.3724  12.4097  12.4406  12.4426  12.4752
    12.4848  12.4968  12.5006  12.5175  12.5528  12.5617  12.5725  12.6108
    12.6160  12.6400  12.6450  12.6538  12.6541  12.7016  12.7390  12.7667
    12.7792  12.8444  12.9324  12.9835  12.9997  13.0425  13.0857  13.1309
    13.2212  13.2588  13.3594  13.4553  13.4719  13.5562  13.6085  13.9165
    13.9580  13.9769  14.0492  14.0790  14.1539  14.2794  14.3091  14.4159
    14.4226  14.5511  14.5606  14.5758  14.6306  14.7532  14.7699  15.0730
    15.0855  15.1356  15.2010  15.3824  15.3939  15.4213  15.4326  15.4733
    15.4818  15.6646  15.7159  15.7298  15.8364  15.9379  15.9687  16.0250
    16.0475  16.0638  16.1043  16.1498  16.1558  16.2205  16.2262  16.2450
    16.2871  16.3087  16.3507  16.3909  16.3931  16.4064  16.4101  16.4240
    16.4277  16.4449  16.4843  16.5697  16.5704  16.6165  16.6942  16.7416
    16.7864  16.8037  16.8394  16.8595  16.9097  16.9660  16.9772  17.0034
    17.0483  17.0710  17.1619  17.2665  18.6656  18.6959  18.7175  18.7534
    18.7811  18.7877  18.8002  18.8457  18.8772  18.8995  18.9161  18.9170

          k =-0.5000-0.5000 0.0000 ( 31612 PWs)   bands (ev):

   -66.7683 -66.7222 -66.7005 -66.6930 -66.6717 -66.6354 -66.6176 -66.5963
   -66.5928 -62.4088 -62.4014 -62.3971 -62.3932 -62.3894 -62.3817 -62.3171
   -62.3002 -62.2949 -35.5286 -35.5120 -35.4930 -35.4882 -35.4713 -35.4713
   -35.4633 -35.4427 -35.4373 -35.4372 -35.4350 -35.4282 -35.4146 -35.4046
   -35.4019 -35.3969 -35.3742 -35.3736 -35.3627 -35.3579 -35.3479 -35.3471
   -35.3413 -35.3411 -35.3402 -35.3319 -35.3291 -31.2471 -31.2404 -31.2377
   -31.2338 -31.2332 -31.2266 -31.2261 -31.2261 -31.2249 -31.2206 -31.2171
   -31.2134 -31.2131 -31.2075 -31.2027 -31.1998 -31.1951 -31.1944 -31.1535
   -31.1525 -31.1481 -31.1440 -31.1282 -31.1255 -31.1161 -31.1017 -31.1010
     6.4068   6.4211   6.4501   6.4943   8.0125   8.0149   8.0227   8.0262
     8.1001   8.1115   8.2963   8.3081   8.3214   8.3293   8.3369   8.3399
     8.3481   8.3521   8.3582   8.3719   8.3757   8.4151   8.5905   8.6166
     8.6404   8.6606   8.6782   8.7008   8.7139   8.7178   8.7274   8.7377
     8.7668   8.8161   8.9226   8.9384   8.9537   8.9722   8.9779   8.9787
     8.9798   8.9883   8.9976   9.0131   9.0180   9.0337   9.0470   9.0491
     9.1195   9.1278   9.3101   9.3109   9.3209   9.3228   9.4051   9.4088
     9.4136   9.4232   9.4277   9.4311   9.4372   9.4422   9.4480   9.4533
     9.4595   9.4715   9.4765   9.4776   9.4830   9.4917   9.4958   9.5044
     9.5119   9.5158   9.5352   9.5415   9.5470   9.5663   9.5810   9.5938
     9.6042   9.6135   9.7003   9.7012   9.7754   9.7793   9.8211   9.8271
     9.8286   9.8361   9.8442   9.8492   9.8519   9.8874  10.0397  10.0599
    10.0801  10.1072  10.1244  10.1283  10.1420  10.1501  10.1527  10.1638
    10.1748  10.1802  10.2064  10.2150  10.2245  10.2272  10.2292  10.2354
    10.2379  10.2384  10.2418  10.2562  10.4609  10.4753  10.4901  10.4947
    10.4990  10.5034  10.5084  10.5558  10.5940  10.6216  10.6451  10.6499
    10.6585  10.6649  10.6798  10.6869  10.6951  10.7014  10.7081  10.7104
    10.7143  10.7496  10.7856  10.8225  10.8331  10.8410  10.8686  10.8805
    10.9368  10.9510  11.1962  11.2010  11.2196  11.2321  11.3073  11.3234
    11.3325  11.3423  11.3610  11.3683  11.3857  11.3924  11.5309  11.5472
    11.6045  11.6332  11.6374  11.6433  11.6446  11.6499  11.6525  11.6545
    11.7002  11.7023  11.7265  11.7326  11.7339  11.7475  11.7547  11.7594
    11.8701  11.8771  11.8791  11.8817  11.8856  11.8886  11.9425  11.9456
    12.0022  12.0418  12.0665  12.0842  12.0972  12.1048  12.1072  12.1107
    12.1117  12.1155  12.1203  12.1216  12.1453  12.1465  12.1658  12.1731
    12.1978  12.2007  12.2111  12.2271  12.2274  12.2385  12.2577  12.2737
    12.2748  12.2797  12.2905  12.2969  12.2980  12.3073  12.3130  12.3424
    12.3662  12.3819  12.4162  12.4397  12.4820  12.4929  12.5175  12.5300
    12.5399  12.5701  12.5825  12.6065  12.6090  12.6363  12.6631  12.6636
    12.7059  12.8077  12.8446  12.8736  12.8922  12.9289  12.9440  12.9538
    12.9746  12.9990  13.0001  13.0058  13.0290  13.5633  13.5748  13.6763
    13.6781  13.6789  13.7014  13.8624  13.8797  14.0037  14.0568  14.1794
    14.1993  14.2075  14.3457  14.4528  14.5413  14.6870  14.8085  15.0705
    15.1976  15.2165  15.2312  15.2353  15.3767  15.4867  15.5467  15.7183
    15.7421  15.7979  15.7983  15.8797  15.8850  15.9015  15.9185  15.9493
    15.9773  15.9936  16.0136  16.0178  16.0192  16.0794  16.1060  16.1403
    16.1706  16.1795  16.2548  16.2952  16.3305  16.3466  16.4165  16.4461
    16.4715  16.4926  16.5070  16.6647  16.6676  16.6974  16.7093  16.7218
    16.8568  16.8938  16.9109  16.9227  17.3890  17.3914  17.8092  17.9380
    18.1704  18.1953  18.2217  18.2426  18.2953  18.3147  18.4946  18.5717
    18.5758  18.6443  18.6752  18.7140  18.7477  18.7961  18.7976  18.8089

          k =-0.5000-0.5000-0.5734 ( 31672 PWs)   bands (ev):

   -66.7683 -66.7222 -66.7005 -66.6930 -66.6717 -66.6354 -66.6176 -66.5963
   -66.5928 -62.4088 -62.4014 -62.3971 -62.3932 -62.3894 -62.3817 -62.3171
   -62.3002 -62.2949 -35.5286 -35.5120 -35.4930 -35.4882 -35.4713 -35.4713
   -35.4633 -35.4427 -35.4373 -35.4372 -35.4350 -35.4282 -35.4146 -35.4046
   -35.4019 -35.3969 -35.3742 -35.3736 -35.3627 -35.3579 -35.3479 -35.3471
   -35.3413 -35.3411 -35.3402 -35.3319 -35.3291 -31.2471 -31.2404 -31.2377
   -31.2338 -31.2332 -31.2266 -31.2261 -31.2261 -31.2249 -31.2206 -31.2171
   -31.2134 -31.2131 -31.2075 -31.2027 -31.1998 -31.1951 -31.1944 -31.1535
   -31.1525 -31.1481 -31.1440 -31.1282 -31.1255 -31.1161 -31.1017 -31.1010
     6.8832   6.9170   6.9373   6.9457   6.9959   7.0079   7.0296   7.0558
     8.4481   8.4593   8.4792   8.4842   8.4866   8.4898   8.4922   8.4993
     8.5042   8.5086   8.5141   8.5206   8.5393   8.5458   8.5462   8.5666
     8.5760   8.5921   8.5927   8.6015   8.8766   8.8792   8.8864   8.8966
     8.9087   8.9098   8.9372   8.9510   9.0871   9.1073   9.1142   9.1203
     9.1257   9.1467   9.1517   9.1532   9.1606   9.1613   9.1625   9.1651
     9.1662   9.1675   9.1689   9.1728   9.1747   9.1768   9.1790   9.1821
     9.1851   9.1873   9.1906   9.1984   9.2012   9.2122   9.2184   9.2220
     9.2289   9.2344   9.2365   9.2450   9.2535   9.2669   9.2764   9.2901
     9.5444   9.5526   9.5620   9.5737   9.5834   9.5955   9.6156   9.6249
     9.6495   9.6724   9.6779   9.6895   9.7176   9.7372   9.7512   9.7849
     9.8183   9.8376   9.8431   9.8523   9.8769   9.8839   9.8896   9.8980
    10.1061  10.1200  10.1443  10.1546  10.1694  10.1817  10.1939  10.2022
    10.2943  10.3106  10.4494  10.4630  10.4647  10.4665  10.4794  10.4841
    10.4843  10.4909  10.5018  10.5033  10.5108  10.5132  10.5135  10.5140
    10.5204  10.5338  10.5389  10.5634  10.5725  10.5731  10.5814  10.6005
    10.6063  10.6088  10.6176  10.6406  10.6424  10.6639  10.6653  10.6847
    10.6897  10.6933  10.7040  10.7067  10.7326  10.7358  11.0463  11.0520
    11.0658  11.0702  11.0906  11.0999  11.1300  11.1356  11.3836  11.3858
    11.3958  11.3962  11.4059  11.4272  11.4398  11.4447  11.4754  11.4814
    11.4856  11.4922  11.5024  11.5069  11.5199  11.5306  11.6357  11.6411
    11.6450  11.6464  11.6507  11.6520  11.6951  11.7006  11.7054  11.7248
    11.7277  11.7333  11.7390  11.7419  11.7724  11.7788  11.7816  11.8043
    11.8052  11.8187  11.8236  11.8372  11.8453  11.8680  11.9927  12.0172
    12.0335  12.0555  12.0722  12.0800  12.0882  12.1273  12.1512  12.1617
    12.1787  12.2062  12.2279  12.2311  12.2495  12.2873  12.3246  12.3342
    12.3506  12.3989  12.4029  12.4160  12.4193  12.4296  12.4371  12.4669
    12.4783  12.4950  12.5022  12.5318  12.5357  12.5604  12.5753  12.6013
    12.6146  12.6739  12.7005  12.7239  12.7260  12.7591  12.7742  12.8193
    12.9019  12.9274  12.9533  12.9787  13.1042  13.1369  13.1498  13.2436
    13.2640  13.2824  13.2921  13.3321  13.3512  13.3967  13.4845  13.4982
    13.5282  13.7093  13.7910  13.8141  13.8515  13.9739  14.1350  14.1585
    14.2137  14.3015  14.3425  14.6924  14.8091  14.8320  14.8640  14.8925
    14.9603  15.0676  15.1804  15.3139  15.3355  15.6638  15.6767  15.6851
    15.7017  15.7539  15.8005  15.8910  15.9322  15.9626  15.9678  16.0006
    16.0103  16.0210  16.0887  16.1154  16.1436  16.1644  16.1701  16.2210
    16.2212  16.2339  16.2494  16.3174  16.3318  16.3910  16.3936  16.4937
    16.5316  16.5352  16.5597  16.6005  16.6086  16.6378  16.7024  16.7202
    16.7769  16.7845  16.8098  16.8826  16.8900  16.9635  16.9904  17.0004
    17.1256  17.1285  17.7284  17.8082  17.8575  17.8607  19.0056  19.0122
    19.0404  19.0446  19.0796  19.1089  19.1883  19.2237  19.2329  19.3398

          k =-0.5000 0.0000 0.0000 ( 31722 PWs)   bands (ev):

   -66.7683 -66.7222 -66.7005 -66.6930 -66.6717 -66.6354 -66.6176 -66.5963
   -66.5928 -62.4088 -62.4014 -62.3971 -62.3932 -62.3894 -62.3817 -62.3171
   -62.3002 -62.2949 -35.5286 -35.5120 -35.4930 -35.4882 -35.4713 -35.4713
   -35.4633 -35.4427 -35.4373 -35.4372 -35.4350 -35.4282 -35.4146 -35.4046
   -35.4019 -35.3969 -35.3742 -35.3736 -35.3627 -35.3579 -35.3479 -35.3471
   -35.3413 -35.3411 -35.3402 -35.3319 -35.3291 -31.2471 -31.2404 -31.2377
   -31.2338 -31.2332 -31.2266 -31.2261 -31.2261 -31.2249 -31.2206 -31.2171
   -31.2134 -31.2131 -31.2075 -31.2027 -31.1998 -31.1951 -31.1944 -31.1535
   -31.1525 -31.1481 -31.1440 -31.1282 -31.1255 -31.1161 -31.1017 -31.1010
     6.0353   6.0551   7.4023   7.4289   7.4801   7.4880   7.6767   7.6800
     8.1108   8.1165   8.1550   8.1730   8.1907   8.1972   8.2695   8.2818
     8.3841   8.4195   8.4797   8.4872   8.6197   8.6364   8.6375   8.6548
     8.6576   8.6745   8.6981   8.7065   8.7826   8.8011   8.8157   8.8313
     8.8568   8.8599   8.8731   8.8932   8.9022   8.9099   8.9215   8.9248
     8.9312   8.9370   8.9493   8.9526   9.0507   9.0532   9.1533   9.1686
     9.2026   9.2083   9.2194   9.2260   9.2281   9.2340   9.3148   9.3274
     9.3569   9.3778   9.3985   9.4054   9.4699   9.4777   9.4856   9.4981
     9.5381   9.5586   9.5622   9.5669   9.5874   9.5980   9.6030   9.6171
     9.6261   9.6262   9.6356   9.6378   9.6407   9.6423   9.6444   9.6459
     9.6498   9.6721   9.6792   9.6895   9.6991   9.7050   9.7085   9.7315
     9.7386   9.7617   9.7630   9.7720   9.8977   9.9016   9.9342   9.9575
    10.0199  10.0351  10.1714  10.1925  10.2074  10.2173  10.2452  10.2470
    10.2758  10.2774  10.2781  10.2853  10.2855  10.2881  10.3366  10.3502
    10.3822  10.3853  10.3883  10.3928  10.4354  10.4423  10.4688  10.4742
    10.4910  10.5023  10.5104  10.5361  10.5555  10.5634  10.5850  10.5901
    10.6605  10.6621  10.6762  10.7088  10.7097  10.7456  10.7467  10.7673
    10.8028  10.8070  10.8365  10.8499  10.8593  10.8654  10.9031  10.9302
    10.9576  10.9667  11.0233  11.0420  11.0647  11.0783  11.1751  11.1814
    11.3021  11.3267  11.3461  11.3511  11.3623  11.3673  11.4149  11.4209
    11.4381  11.4632  11.4879  11.4887  11.4905  11.5342  11.5360  11.5634
    11.5703  11.5996  11.6098  11.6110  11.6305  11.6645  11.7332  11.7468
    11.7512  11.7910  11.8173  11.8290  11.8294  11.8524  11.8640  11.8682
    11.8729  11.8778  11.8866  11.9015  11.9139  11.9213  11.9468  11.9536
    11.9680  11.9812  12.0119  12.0141  12.1000  12.1165  12.1545  12.1644
    12.1723  12.1787  12.2046  12.2218  12.2436  12.2506  12.2515  12.2668
    12.2904  12.3030  12.3344  12.3949  12.4002  12.4006  12.4229  12.4462
    12.4616  12.4688  12.4808  12.5097  12.5145  12.5397  12.5436  12.5755
    12.5897  12.5976  12.6081  12.6253  12.6581  12.6626  12.7487  12.7853
    12.8535  12.8817  12.9536  13.0191  13.0303  13.0407  13.0943  13.1336
    13.1647  13.2207  13.2270  13.2491  13.2781  13.2845  13.3152  13.3970
    13.4783  13.4946  13.5643  13.5843  13.6452  14.3357  14.3894  14.4942
    14.4943  14.7519  14.7683  14.8294  14.9146  14.9758  15.0643  15.1171
    15.1228  15.1303  15.1620  15.2832  15.3249  15.4203  15.5388  15.6042
    15.6316  15.7076  15.7494  15.7836  15.8347  15.8426  15.9035  15.9765
    15.9940  16.0126  16.0166  16.0757  16.0972  16.1071  16.1199  16.1330
    16.1676  16.2043  16.2455  16.2506  16.2790  16.2814  16.3188  16.4002
    16.4119  16.5593  16.6278  16.6659  16.7294  16.7533  17.0030  17.0321
    17.1996  17.2180  17.2841  17.2879  17.5041  17.5237  17.6029  17.6223
    17.6881  17.7565  17.7902  17.7909  17.8734  17.9060  17.9066  17.9104
    17.9830  18.0519  18.1165  18.2253  19.3003  19.3203  19.3367  19.3821

          k =-0.5000 0.0000 0.5734 ( 31696 PWs)   bands (ev):

   -66.7683 -66.7222 -66.7005 -66.6930 -66.6717 -66.6354 -66.6176 -66.5963
   -66.5928 -62.4088 -62.4014 -62.3971 -62.3932 -62.3894 -62.3817 -62.3171
   -62.3002 -62.2949 -35.5286 -35.5120 -35.4930 -35.4882 -35.4713 -35.4713
   -35.4633 -35.4427 -35.4373 -35.4372 -35.4350 -35.4282 -35.4146 -35.4046
   -35.4019 -35.3969 -35.3742 -35.3736 -35.3627 -35.3579 -35.3479 -35.3471
   -35.3413 -35.3411 -35.3402 -35.3319 -35.3291 -31.2471 -31.2404 -31.2377
   -31.2338 -31.2332 -31.2266 -31.2261 -31.2261 -31.2249 -31.2206 -31.2171
   -31.2134 -31.2131 -31.2075 -31.2027 -31.1998 -31.1951 -31.1944 -31.1535
   -31.1525 -31.1481 -31.1440 -31.1282 -31.1255 -31.1161 -31.1017 -31.1010
     6.5518   6.5761   6.5984   6.6147   7.8344   7.8589   7.8765   7.8851
     7.9040   7.9175   7.9231   7.9451   8.2726   8.2777   8.3008   8.3044
     8.5075   8.5143   8.5444   8.5481   8.6620   8.6666   8.6722   8.6774
     8.6800   8.6841   8.7078   8.7139   8.7396   8.7405   8.7476   8.7531
     8.7579   8.7765   8.8009   8.8202   8.9726   8.9974   9.0107   9.0230
     9.0352   9.0443   9.0543   9.0670   9.2038   9.2056   9.2107   9.2129
     9.2158   9.2220   9.2247   9.2264   9.2468   9.2497   9.2563   9.2690
     9.2734   9.2735   9.2999   9.3003   9.3083   9.3210   9.3824   9.4016
     9.4162   9.4254   9.4609   9.4647   9.4652   9.4657   9.4674   9.4899
     9.4948   9.5080   9.5153   9.5237   9.5401   9.5450   9.5451   9.5531
     9.5554   9.5791   9.7571   9.7597   9.7914   9.7955   9.8082   9.8102
     9.8444   9.8477   9.8509   9.8527   9.8594   9.8626   9.8671   9.8876
     9.9713   9.9749   9.9959  10.0075  10.0251  10.0293  10.0584  10.0623
    10.3619  10.3800  10.4008  10.4029  10.4123  10.4200  10.4317  10.4612
    10.4673  10.4695  10.4797  10.4820  10.4916  10.4922  10.5052  10.5088
    10.5090  10.5197  10.5663  10.5772  10.6054  10.6084  10.6126  10.6171
    10.6515  10.6552  10.6747  10.6751  10.6853  10.7008  10.7057  10.7275
    10.7667  10.7864  10.8696  10.8828  10.9636  10.9749  11.0790  11.0839
    11.1120  11.1281  11.1330  11.1414  11.1672  11.1926  11.1971  11.2020
    11.2112  11.2132  11.3017  11.3208  11.3533  11.3638  11.3690  11.3720
    11.3748  11.3858  11.3994  11.4154  11.4848  11.4864  11.4871  11.5177
    11.5195  11.5275  11.5718  11.5720  11.5862  11.6018  11.6374  11.6393
    11.6430  11.6449  11.7184  11.7266  11.7359  11.8006  11.8044  11.8156
    11.9179  11.9272  11.9342  11.9523  11.9604  11.9636  11.9821  12.0181
    12.0355  12.0363  12.0406  12.0447  12.0801  12.0938  12.1137  12.1415
    12.1867  12.1921  12.2213  12.2313  12.2423  12.2890  12.2967  12.3205
    12.3648  12.3821  12.4022  12.4405  12.4489  12.4681  12.4849  12.4908
    12.5106  12.5270  12.5437  12.5510  12.5568  12.5602  12.5813  12.5816
    12.5937  12.6011  12.6434  12.6519  12.6641  12.7270  12.7282  12.7800
    12.7961  12.8258  12.8490  12.8847  12.9108  12.9447  12.9885  13.0308
    13.0627  13.2146  13.5429  13.6087  13.6153  13.6319  13.6887  13.7594
    13.8563  13.9954  14.0089  14.1486  14.2460  14.2520  14.2887  14.4880
    14.4887  14.5478  14.5526  14.6147  14.6260  14.7475  14.7649  14.9009
    14.9097  15.2597  15.2899  15.3403  15.3752  15.3816  15.3952  15.5356
    15.6333  15.7979  15.8078  15.8198  15.8449  15.8796  15.9430  15.9570
    16.0066  16.0241  16.0346  16.0376  16.0444  16.1492  16.1806  16.1932
    16.2085  16.2571  16.2887  16.3207  16.3534  16.3593  16.3799  16.4132
    16.4307  16.5837  16.6009  16.6386  16.6578  16.6976  16.7330  16.7427
    16.7554  16.8299  16.8948  16.8979  16.9421  16.9813  16.9917  16.9975
    17.0597  17.1002  17.1981  17.2728  18.5798  18.6085  18.6676  18.6855
    18.8040  18.8269  18.8336  18.8614  18.8942  18.9014  18.9452  18.9480

     the Fermi energy is    14.8204 ev

!    total energy              =  -33062.59190783 Ry
     Harris-Foulkes estimate   =  -33062.59188514 Ry
     estimated scf accuracy    <       0.00000095 Ry

     total all-electron energy =  -1410574.682282 Ry

     The total energy is the sum of the following terms:

     one-electron contribution =   -1645.67861901 Ry
     hartree contribution      =    1489.89605203 Ry
     xc contribution           =   -1658.74002443 Ry
     ewald contribution        =   -4919.25534656 Ry
     one-center paw contrib.   =  -26328.81396987 Ry

     total magnetization       =     0.48 Bohr mag/cell
     absolute magnetization    =    78.61 Bohr mag/cell

     convergence has been achieved in  20 iterations

     Writing output data file mnau2.save
 
     init_run     :     37.49s CPU     38.65s WALL (       1 calls)
     electrons    :   2140.66s CPU   2211.93s WALL (       1 calls)

     Called by init_run:
     wfcinit      :     32.72s CPU     33.65s WALL (       1 calls)
     potinit      :      2.04s CPU      2.09s WALL (       1 calls)

     Called by electrons:
     c_bands      :   1882.33s CPU   1939.49s WALL (      20 calls)
     sum_band     :    215.01s CPU    225.47s WALL (      20 calls)
     v_of_rho     :      4.30s CPU      4.63s WALL (      21 calls)
     newd         :     14.92s CPU     17.25s WALL (      21 calls)
     PAW_pot      :     24.75s CPU     25.07s WALL (      21 calls)
     mix_rho      :      0.86s CPU      0.96s WALL (      20 calls)

     Called by c_bands:
     init_us_2    :      7.94s CPU      7.97s WALL (     656 calls)
     cegterg      :   1822.07s CPU   1876.99s WALL (     320 calls)

     Called by sum_band:
     sum_band:bec :      1.28s CPU      1.28s WALL (     320 calls)
     addusdens    :     31.03s CPU     33.52s WALL (      20 calls)

     Called by *egterg:
     h_psi        :    667.08s CPU    684.11s WALL (    1309 calls)
     s_psi        :    121.84s CPU    121.89s WALL (    1309 calls)
     g_psi        :      2.37s CPU      2.37s WALL (     973 calls)
     cdiaghg      :    640.11s CPU    640.26s WALL (    1293 calls)

     Called by h_psi:
     h_psi:pot    :    660.88s CPU    677.88s WALL (    1309 calls)
     h_psi:calbec :    141.79s CPU    145.95s WALL (    1309 calls)
     vloc_psi     :    394.90s CPU    407.65s WALL (    1309 calls)
     add_vuspsi   :    124.18s CPU    124.27s WALL (    1309 calls)

     General routines
     calbec       :    202.62s CPU    208.69s WALL (    1629 calls)
     fft          :     12.40s CPU     13.18s WALL (     641 calls)
     ffts         :      0.18s CPU      0.20s WALL (      82 calls)
     fftw         :    452.68s CPU    469.78s WALL (  717804 calls)
     interpolate  :      0.65s CPU      0.73s WALL (      82 calls)
 
     Parallel routines
     fft_scatt_xy :     54.46s CPU     56.50s WALL (  718527 calls)
     fft_scatt_yz :    192.31s CPU    201.47s WALL (  718527 calls)
 
     PWSCF        : 36m22.90s CPU    37m59.22s WALL

 
   This run was terminated on:  20: 2:54   7Mar2019            

=------------------------------------------------------------------------------=
   JOB DONE.
=------------------------------------------------------------------------------=
