
     Program PWSCF v.6.2 (svn rev. 14038) starts on  4Mar2019 at 10:49:48 

     This program is part of the open-source Quantum ESPRESSO suite
     for quantum simulation of materials; please cite
         "P. Giannozzi et al., J. Phys.:Condens. Matter 21 395502 (2009);
         "P. Giannozzi et al., J. Phys.:Condens. Matter 29 465901 (2017);
          URL http://www.quantum-espresso.org", 
     in publications or presentations arising from this work. More details at
     http://www.quantum-espresso.org/quote

     Parallel version (MPI), running on    16 processors

     MPI processes distributed on     1 nodes
     R & G space division:  proc/nbgrp/npool/nimage =      16
     Waiting for input...
     Reading input from standard input

     Current dimensions of program PWSCF are:
     Max number of different atomic species (ntypx) = 10
     Max number of k-points (npk) =  40000
     Max angular momentum in pseudopotentials (lmaxx) =  3
               file Mn.pbe-spn-kjpaw_psl.0.3.1.UPF: wavefunction(s)  3P 3D renormalized
               file Mn.pbe-spn-kjpaw_psl.0.3.1.UPF: wavefunction(s)  3P 3D renormalized
               file Au.pbe-dn-kjpaw_psl.0.1.UPF: wavefunction(s)  6S 6P 5D renormalized

     Subspace diagonalization in iterative solution of the eigenvalue problem:
     a serial algorithm will be used

 
     Parallelization info
     --------------------
     sticks:   dense  smooth     PW     G-vecs:    dense   smooth      PW
     Min         736     331     90                52486    15847    2256
     Max         737     332     91                52489    15850    2259
     Sum       11785    5297   1449               839803   253559   36125
 


     bravais-lattice index     =            0
     lattice parameter (alat)  =      19.2459  a.u.
     unit-cell volume          =    6216.1497 (a.u.)^3
     number of atoms/cell      =           54
     number of atomic types    =            3
     number of electrons       =       666.00
     number of Kohn-Sham states=          400
     kinetic-energy cutoff     =      45.0000  Ry
     charge density cutoff     =     400.0000  Ry
     convergence threshold     =      1.0E-06
     mixing beta               =       0.1000
     number of iterations used =            8  plain     mixing
     Exchange-correlation      = SLA PW PBX PBC ( 1  4  3  4 0 0)

     celldm(1)=  19.245946  celldm(2)=   0.000000  celldm(3)=   0.000000
     celldm(4)=   0.000000  celldm(5)=   0.000000  celldm(6)=   0.000000

     crystal axes: (cart. coord. in units of alat)
               a(1) = (   1.000000   0.000000   0.000000 )  
               a(2) = (   0.000000   1.000000   0.000000 )  
               a(3) = (   0.000000   0.000000   0.871974 )  

     reciprocal axes: (cart. coord. in units 2 pi/alat)
               b(1) = (  1.000000  0.000000  0.000000 )  
               b(2) = (  0.000000  1.000000  0.000000 )  
               b(3) = (  0.000000  0.000000  1.146823 )  


     PseudoPot. # 1 for Mn read from file:
     ./pseudo/Mn.pbe-spn-kjpaw_psl.0.3.1.UPF
     MD5 check sum: 7eef95dd2aae66803482eea66ebeebf1
     Pseudo is Projector augmented-wave + core cor, Zval = 15.0
     Generated using "atomic" code by A. Dal Corso v.5.0.99 svn rev. 10869
     Shape of augmentation charge: PSQ
     Using radial grid of 1187 points,  6 beta functions with: 
                l(1) =   0
                l(2) =   0
                l(3) =   1
                l(4) =   1
                l(5) =   2
                l(6) =   2
     Q(r) pseudized with 0 coefficients 


     PseudoPot. # 2 for Mn read from file:
     ./pseudo/Mn.pbe-spn-kjpaw_psl.0.3.1.UPF
     MD5 check sum: 7eef95dd2aae66803482eea66ebeebf1
     Pseudo is Projector augmented-wave + core cor, Zval = 15.0
     Generated using "atomic" code by A. Dal Corso v.5.0.99 svn rev. 10869
     Shape of augmentation charge: PSQ
     Using radial grid of 1187 points,  6 beta functions with: 
                l(1) =   0
                l(2) =   0
                l(3) =   1
                l(4) =   1
                l(5) =   2
                l(6) =   2
     Q(r) pseudized with 0 coefficients 


     PseudoPot. # 3 for Au read from file:
     ./pseudo/Au.pbe-dn-kjpaw_psl.0.1.UPF
     MD5 check sum: 5c9b92683623e7ae2ab3f8e525febab6
     Pseudo is Projector augmented-wave + core cor, Zval = 11.0
     Generated using "atomic" code by A. Dal Corso v.5.0.2 svn rev. 9415
     Shape of augmentation charge: PSQ
     Using radial grid of 1279 points,  6 beta functions with: 
                l(1) =   0
                l(2) =   0
                l(3) =   1
                l(4) =   1
                l(5) =   2
                l(6) =   2
     Q(r) pseudized with 0 coefficients 


     atomic species   valence    mass     pseudopotential
        Mn1           15.00    54.93800     Mn( 1.00)
        Mn2           15.00    54.93800     Mn( 1.00)
        Au            11.00   196.96600     Au( 1.00)

     Starting magnetic structure 
     atomic species   magnetization
        Mn1          0.800
        Mn2         -0.800
        Au           0.000

      2 Sym. Ops. (no inversion) found



   Cartesian axes

     site n.     atom                  positions (alat units)
         1           Mn1 tau(   1) = (   0.0000000   0.0000000   0.0000000  )
         2           Mn1 tau(   2) = (   0.0000000   0.3333300   0.0000000  )
         3           Mn1 tau(   3) = (   0.0000000   0.6666700   0.0000000  )
         4           Mn1 tau(   4) = (   0.3333300   0.0000000   0.0000000  )
         5           Mn1 tau(   5) = (   0.3333300   0.3333300   0.0000000  )
         6           Mn2 tau(   6) = (   0.3333300   0.6666700   0.0000000  )
         7           Mn2 tau(   7) = (   0.6666700   0.0000000   0.0000000  )
         8           Mn2 tau(   8) = (   0.6666700   0.3333300   0.0000000  )
         9           Mn2 tau(   9) = (   0.6666700   0.6666700   0.0000000  )
        10           Mn2 tau(  10) = (   0.1666700   0.1666700   0.4359871  )
        11           Mn2 tau(  11) = (   0.1666700   0.5000000   0.4359871  )
        12           Mn2 tau(  12) = (   0.1666700   0.8333300   0.4359871  )
        13           Mn2 tau(  13) = (   0.5000000   0.1666700   0.4359871  )
        14           Mn2 tau(  14) = (   0.5000000   0.5000000   0.4359871  )
        15           Mn1 tau(  15) = (   0.5000000   0.8333300   0.4359871  )
        16           Mn1 tau(  16) = (   0.8333300   0.1666700   0.4359871  )
        17           Mn1 tau(  17) = (   0.8333300   0.5000000   0.4359871  )
        18           Mn1 tau(  18) = (   0.8333300   0.8333300   0.4359871  )
        19           Au  tau(  19) = (   0.1666700   0.1666700   0.7327374  )
        20           Au  tau(  20) = (   0.1666700   0.5000000   0.7327374  )
        21           Au  tau(  21) = (   0.1666700   0.8333300   0.7327374  )
        22           Au  tau(  22) = (   0.5000000   0.1666700   0.7327374  )
        23           Au  tau(  23) = (   0.5000000   0.5000000   0.7327374  )
        24           Au  tau(  24) = (   0.5000000   0.8333300   0.7327374  )
        25           Au  tau(  25) = (   0.8333300   0.1666700   0.7327374  )
        26           Au  tau(  26) = (   0.8333300   0.5000000   0.7327374  )
        27           Au  tau(  27) = (   0.8333300   0.8333300   0.7327374  )
        28           Au  tau(  28) = (   0.1666700   0.1666700   0.1392369  )
        29           Au  tau(  29) = (   0.1666700   0.5000000   0.1392369  )
        30           Au  tau(  30) = (   0.1666700   0.8333300   0.1392369  )
        31           Au  tau(  31) = (   0.5000000   0.1666700   0.1392369  )
        32           Au  tau(  32) = (   0.5000000   0.5000000   0.1392369  )
        33           Au  tau(  33) = (   0.5000000   0.8333300   0.1392369  )
        34           Au  tau(  34) = (   0.8333300   0.1666700   0.1392369  )
        35           Au  tau(  35) = (   0.8333300   0.5000000   0.1392369  )
        36           Au  tau(  36) = (   0.8333300   0.8333300   0.1392369  )
        37           Au  tau(  37) = (   0.0000000   0.0000000   0.2967503  )
        38           Au  tau(  38) = (   0.0000000   0.3333300   0.2967503  )
        39           Au  tau(  39) = (   0.0000000   0.6666700   0.2967503  )
        40           Au  tau(  40) = (   0.3333300   0.0000000   0.2967503  )
        41           Au  tau(  41) = (   0.3333300   0.3333300   0.2967503  )
        42           Au  tau(  42) = (   0.3333300   0.6666700   0.2967503  )
        43           Au  tau(  43) = (   0.6666700   0.0000000   0.2967503  )
        44           Au  tau(  44) = (   0.6666700   0.3333300   0.2967503  )
        45           Au  tau(  45) = (   0.6666700   0.6666700   0.2967503  )
        46           Au  tau(  46) = (   0.0000000   0.0000000   0.5752240  )
        47           Au  tau(  47) = (   0.0000000   0.3333300   0.5752240  )
        48           Au  tau(  48) = (   0.0000000   0.6666700   0.5752240  )
        49           Au  tau(  49) = (   0.3333300   0.0000000   0.5752240  )
        50           Au  tau(  50) = (   0.3333300   0.3333300   0.5752240  )
        51           Au  tau(  51) = (   0.3333300   0.6666700   0.5752240  )
        52           Au  tau(  52) = (   0.6666700   0.0000000   0.5752240  )
        53           Au  tau(  53) = (   0.6666700   0.3333300   0.5752240  )
        54           Au  tau(  54) = (   0.6666700   0.6666700   0.5752240  )

     number of k points=     8 (tetrahedron method)
                       cart. coord. in units 2pi/alat
        k(    1) = (   0.0000000   0.0000000   0.0000000), wk =   0.1250000
        k(    2) = (   0.0000000   0.0000000  -0.5734114), wk =   0.1250000
        k(    3) = (   0.0000000  -0.5000000   0.0000000), wk =   0.1250000
        k(    4) = (   0.0000000  -0.5000000  -0.5734114), wk =   0.1250000
        k(    5) = (  -0.5000000  -0.5000000   0.0000000), wk =   0.1250000
        k(    6) = (  -0.5000000  -0.5000000  -0.5734114), wk =   0.1250000
        k(    7) = (  -0.5000000   0.0000000   0.0000000), wk =   0.1250000
        k(    8) = (  -0.5000000   0.0000000   0.5734114), wk =   0.1250000

     Dense  grid:   839803 G-vectors     FFT dimensions: ( 125, 125, 108)

     Smooth grid:   253559 G-vectors     FFT dimensions: (  90,  90,  72)

     Estimated max dynamical RAM per process >     570.13 MB

     Estimated total dynamical RAM >       8.91 GB
     Generating pointlists ...
     new r_m :   0.1129 (alat units)  2.1733 (a.u.) for type    1
     new r_m :   0.1129 (alat units)  2.1733 (a.u.) for type    2
     new r_m :   0.1129 (alat units)  2.1733 (a.u.) for type    3

     Check: negative/imaginary core charge=   -0.000006    0.000000

     Initial potential from superposition of free atoms

     starting charge  665.98709, renormalised to  666.00000
     Starting wfc are  504 randomized atomic wfcs
     Checking if some PAW data can be deallocated... 

     total cpu time spent up to now is       57.1 secs

     Self-consistent Calculation

     iteration #  1     ecut=    45.00 Ry     beta= 0.10
     Davidson diagonalization with overlap
     ethr =  1.00E-02,  avg # of iterations =  3.3

     total cpu time spent up to now is      220.6 secs

     total energy              =  -33047.18891502 Ry
     Harris-Foulkes estimate   =  -33044.03875329 Ry
     estimated scf accuracy    <      27.02221001 Ry

     total magnetization       =     0.01 Bohr mag/cell
     absolute magnetization    =    92.13 Bohr mag/cell

     iteration #  2     ecut=    45.00 Ry     beta= 0.10
     Davidson diagonalization with overlap
     ethr =  4.06E-03,  avg # of iterations =  1.0

     total cpu time spent up to now is      330.0 secs

     total energy              =  -33058.57591980 Ry
     Harris-Foulkes estimate   =  -33047.36832675 Ry
     estimated scf accuracy    <      21.37156225 Ry

     total magnetization       =     0.01 Bohr mag/cell
     absolute magnetization    =    91.72 Bohr mag/cell

     iteration #  3     ecut=    45.00 Ry     beta= 0.10
     Davidson diagonalization with overlap
     ethr =  3.21E-03,  avg # of iterations =  2.1

     total cpu time spent up to now is      464.0 secs

     total energy              =  -33066.66586820 Ry
     Harris-Foulkes estimate   =  -33061.38873726 Ry
     estimated scf accuracy    <       8.82674158 Ry

     total magnetization       =    -0.15 Bohr mag/cell
     absolute magnetization    =    85.57 Bohr mag/cell

     iteration #  4     ecut=    45.00 Ry     beta= 0.10
     Davidson diagonalization with overlap
     ethr =  1.33E-03,  avg # of iterations =  4.2

     total cpu time spent up to now is      687.2 secs

     total energy              =  -33058.80677200 Ry
     Harris-Foulkes estimate   =  -33069.81012230 Ry
     estimated scf accuracy    <      58.99867453 Ry

     total magnetization       =    -0.64 Bohr mag/cell
     absolute magnetization    =    69.72 Bohr mag/cell

     iteration #  5     ecut=    45.00 Ry     beta= 0.10
     Davidson diagonalization with overlap
     ethr =  1.33E-03,  avg # of iterations =  4.9

     total cpu time spent up to now is      930.0 secs

     total energy              =  -33061.81921530 Ry
     Harris-Foulkes estimate   =  -33062.76624636 Ry
     estimated scf accuracy    <       4.77328086 Ry

     total magnetization       =    -0.25 Bohr mag/cell
     absolute magnetization    =    83.29 Bohr mag/cell

     iteration #  6     ecut=    45.00 Ry     beta= 0.10
     Davidson diagonalization with overlap
     ethr =  7.17E-04,  avg # of iterations =  3.8

     total cpu time spent up to now is     1090.5 secs

     total energy              =  -33062.53972562 Ry
     Harris-Foulkes estimate   =  -33062.53068764 Ry
     estimated scf accuracy    <       0.25092289 Ry

     total magnetization       =    -0.23 Bohr mag/cell
     absolute magnetization    =    79.98 Bohr mag/cell

     iteration #  7     ecut=    45.00 Ry     beta= 0.10
     Davidson diagonalization with overlap
     ethr =  3.77E-05,  avg # of iterations =  4.8

     total cpu time spent up to now is     1298.8 secs

     total energy              =  -33062.58348635 Ry
     Harris-Foulkes estimate   =  -33062.58422306 Ry
     estimated scf accuracy    <       0.05540112 Ry

     total magnetization       =    -0.36 Bohr mag/cell
     absolute magnetization    =    79.01 Bohr mag/cell

     iteration #  8     ecut=    45.00 Ry     beta= 0.10
     Davidson diagonalization with overlap
     ethr =  8.32E-06,  avg # of iterations =  3.9

     total cpu time spent up to now is     1459.3 secs

     total energy              =  -33062.58152665 Ry
     Harris-Foulkes estimate   =  -33062.59272308 Ry
     estimated scf accuracy    <       0.11063375 Ry

     total magnetization       =    -0.35 Bohr mag/cell
     absolute magnetization    =    78.50 Bohr mag/cell

     iteration #  9     ecut=    45.00 Ry     beta= 0.10
     Davidson diagonalization with overlap
     ethr =  8.32E-06,  avg # of iterations =  1.0

     total cpu time spent up to now is     1568.9 secs

     total energy              =  -33062.58455971 Ry
     Harris-Foulkes estimate   =  -33062.58388835 Ry
     estimated scf accuracy    <       0.04862484 Ry

     total magnetization       =    -0.42 Bohr mag/cell
     absolute magnetization    =    78.39 Bohr mag/cell

     iteration # 10     ecut=    45.00 Ry     beta= 0.10
     Davidson diagonalization with overlap
     ethr =  7.30E-06,  avg # of iterations =  2.1

     total cpu time spent up to now is     1693.4 secs

     total energy              =  -33062.58775731 Ry
     Harris-Foulkes estimate   =  -33062.58833051 Ry
     estimated scf accuracy    <       0.00852594 Ry

     total magnetization       =    -0.44 Bohr mag/cell
     absolute magnetization    =    78.61 Bohr mag/cell

     iteration # 11     ecut=    45.00 Ry     beta= 0.10
     Davidson diagonalization with overlap
     ethr =  1.28E-06,  avg # of iterations =  4.6

     total cpu time spent up to now is     1868.1 secs

     total energy              =  -33062.59017229 Ry
     Harris-Foulkes estimate   =  -33062.58978711 Ry
     estimated scf accuracy    <       0.00249038 Ry

     total magnetization       =    -0.44 Bohr mag/cell
     absolute magnetization    =    78.91 Bohr mag/cell

     iteration # 12     ecut=    45.00 Ry     beta= 0.10
     Davidson diagonalization with overlap
     ethr =  3.74E-07,  avg # of iterations =  3.4

     total cpu time spent up to now is     2015.7 secs

     total energy              =  -33062.59119231 Ry
     Harris-Foulkes estimate   =  -33062.59048747 Ry
     estimated scf accuracy    <       0.00179871 Ry

     total magnetization       =    -0.44 Bohr mag/cell
     absolute magnetization    =    78.86 Bohr mag/cell

     iteration # 13     ecut=    45.00 Ry     beta= 0.10
     Davidson diagonalization with overlap
     ethr =  2.70E-07,  avg # of iterations =  1.5

     total cpu time spent up to now is     2131.8 secs

     total energy              =  -33062.59162497 Ry
     Harris-Foulkes estimate   =  -33062.59111162 Ry
     estimated scf accuracy    <       0.00048460 Ry

     total magnetization       =    -0.45 Bohr mag/cell
     absolute magnetization    =    78.77 Bohr mag/cell

     iteration # 14     ecut=    45.00 Ry     beta= 0.10
     Davidson diagonalization with overlap
     ethr =  7.28E-08,  avg # of iterations =  4.0

     total cpu time spent up to now is     2318.1 secs

     total energy              =  -33062.59172429 Ry
     Harris-Foulkes estimate   =  -33062.59162368 Ry
     estimated scf accuracy    <       0.00012750 Ry

     total magnetization       =    -0.47 Bohr mag/cell
     absolute magnetization    =    78.69 Bohr mag/cell

     iteration # 15     ecut=    45.00 Ry     beta= 0.10
     Davidson diagonalization with overlap
     ethr =  1.91E-08,  avg # of iterations =  1.2

     total cpu time spent up to now is     2429.7 secs

     total energy              =  -33062.59184442 Ry
     Harris-Foulkes estimate   =  -33062.59169906 Ry
     estimated scf accuracy    <       0.00009093 Ry

     total magnetization       =    -0.47 Bohr mag/cell
     absolute magnetization    =    78.68 Bohr mag/cell

     iteration # 16     ecut=    45.00 Ry     beta= 0.10
     Davidson diagonalization with overlap
     ethr =  1.37E-08,  avg # of iterations =  2.4

     total cpu time spent up to now is     2562.8 secs

     total energy              =  -33062.59190548 Ry
     Harris-Foulkes estimate   =  -33062.59182678 Ry
     estimated scf accuracy    <       0.00004099 Ry

     total magnetization       =    -0.47 Bohr mag/cell
     absolute magnetization    =    78.65 Bohr mag/cell

     iteration # 17     ecut=    45.00 Ry     beta= 0.10
     Davidson diagonalization with overlap
     ethr =  6.15E-09,  avg # of iterations =  3.0

     total cpu time spent up to now is     2732.2 secs

     total energy              =  -33062.59190014 Ry
     Harris-Foulkes estimate   =  -33062.59188018 Ry
     estimated scf accuracy    <       0.00001092 Ry

     total magnetization       =    -0.48 Bohr mag/cell
     absolute magnetization    =    78.63 Bohr mag/cell

     iteration # 18     ecut=    45.00 Ry     beta= 0.10
     Davidson diagonalization with overlap
     ethr =  1.64E-09,  avg # of iterations =  2.6

     total cpu time spent up to now is     2871.8 secs

     total energy              =  -33062.59189440 Ry
     Harris-Foulkes estimate   =  -33062.59188354 Ry
     estimated scf accuracy    <       0.00000452 Ry

     total magnetization       =    -0.48 Bohr mag/cell
     absolute magnetization    =    78.62 Bohr mag/cell

     iteration # 19     ecut=    45.00 Ry     beta= 0.10
     Davidson diagonalization with overlap
     ethr =  6.79E-10,  avg # of iterations =  3.1

     total cpu time spent up to now is     3046.5 secs

     total energy              =  -33062.59188904 Ry
     Harris-Foulkes estimate   =  -33062.59188320 Ry
     estimated scf accuracy    <       0.00000171 Ry

     total magnetization       =    -0.48 Bohr mag/cell
     absolute magnetization    =    78.61 Bohr mag/cell

     iteration # 20     ecut=    45.00 Ry     beta= 0.10
     Davidson diagonalization with overlap
     ethr =  2.57E-10,  avg # of iterations =  2.1
 
     Magnetic moment per site:
     atom:    1    charge:   13.5827    magn:    3.9384    constr:    0.0000
     atom:    2    charge:   13.5754    magn:    3.9983    constr:    0.0000
     atom:    3    charge:   13.5835    magn:    3.9335    constr:    0.0000
     atom:    4    charge:   13.5727    magn:    4.0464    constr:    0.0000
     atom:    5    charge:   13.5691    magn:    4.0569    constr:    0.0000
     atom:    6    charge:   13.5826    magn:   -3.9788    constr:    0.0000
     atom:    7    charge:   13.5726    magn:   -4.0431    constr:    0.0000
     atom:    8    charge:   13.5731    magn:   -4.0316    constr:    0.0000
     atom:    9    charge:   13.5713    magn:   -4.0341    constr:    0.0000
     atom:   10    charge:   13.5686    magn:   -4.0632    constr:    0.0000
     atom:   11    charge:   13.5705    magn:   -4.0500    constr:    0.0000
     atom:   12    charge:   13.5726    magn:   -4.0417    constr:    0.0000
     atom:   13    charge:   13.5805    magn:   -3.9869    constr:    0.0000
     atom:   14    charge:   13.5835    magn:   -3.9542    constr:    0.0000
     atom:   15    charge:   13.5727    magn:    4.0718    constr:    0.0000
     atom:   16    charge:   13.5818    magn:    3.9518    constr:    0.0000
     atom:   17    charge:   13.5766    magn:    3.9928    constr:    0.0000
     atom:   18    charge:   13.5791    magn:    3.9558    constr:    0.0000
     atom:   19    charge:    9.1217    magn:    0.0461    constr:    0.0000
     atom:   20    charge:    9.1202    magn:    0.0117    constr:    0.0000
     atom:   21    charge:    9.1205    magn:    0.0106    constr:    0.0000
     atom:   22    charge:    9.1208    magn:   -0.0104    constr:    0.0000
     atom:   23    charge:    9.1201    magn:   -0.0404    constr:    0.0000
     atom:   24    charge:    9.1216    magn:   -0.0200    constr:    0.0000
     atom:   25    charge:    9.1204    magn:    0.0046    constr:    0.0000
     atom:   26    charge:    9.1203    magn:    0.0088    constr:    0.0000
     atom:   27    charge:    9.1206    magn:    0.0083    constr:    0.0000
     atom:   28    charge:    9.1217    magn:    0.0461    constr:    0.0000
     atom:   29    charge:    9.1202    magn:    0.0117    constr:    0.0000
     atom:   30    charge:    9.1205    magn:    0.0106    constr:    0.0000
     atom:   31    charge:    9.1208    magn:   -0.0104    constr:    0.0000
     atom:   32    charge:    9.1201    magn:   -0.0404    constr:    0.0000
     atom:   33    charge:    9.1216    magn:   -0.0200    constr:    0.0000
     atom:   34    charge:    9.1204    magn:    0.0046    constr:    0.0000
     atom:   35    charge:    9.1203    magn:    0.0088    constr:    0.0000
     atom:   36    charge:    9.1206    magn:    0.0083    constr:    0.0000
     atom:   37    charge:    9.1206    magn:    0.0047    constr:    0.0000
     atom:   38    charge:    9.1211    magn:    0.0092    constr:    0.0000
     atom:   39    charge:    9.1202    magn:    0.0014    constr:    0.0000
     atom:   40    charge:    9.1219    magn:   -0.0202    constr:    0.0000
     atom:   41    charge:    9.1210    magn:   -0.0516    constr:    0.0000
     atom:   42    charge:    9.1200    magn:   -0.0372    constr:    0.0000
     atom:   43    charge:    9.1213    magn:    0.0123    constr:    0.0000
     atom:   44    charge:    9.1195    magn:   -0.0146    constr:    0.0000
     atom:   45    charge:    9.1211    magn:    0.0125    constr:    0.0000
     atom:   46    charge:    9.1206    magn:    0.0047    constr:    0.0000
     atom:   47    charge:    9.1211    magn:    0.0092    constr:    0.0000
     atom:   48    charge:    9.1202    magn:    0.0014    constr:    0.0000
     atom:   49    charge:    9.1219    magn:   -0.0202    constr:    0.0000
     atom:   50    charge:    9.1210    magn:   -0.0516    constr:    0.0000
     atom:   51    charge:    9.1200    magn:   -0.0372    constr:    0.0000
     atom:   52    charge:    9.1213    magn:    0.0123    constr:    0.0000
     atom:   53    charge:    9.1195    magn:   -0.0146    constr:    0.0000
     atom:   54    charge:    9.1211    magn:    0.0125    constr:    0.0000

     total cpu time spent up to now is     3173.4 secs

     End of self-consistent calculation

 ------ SPIN UP ------------


          k = 0.0000 0.0000 0.0000 ( 31747 PWs)   bands (ev):

   -66.7684 -66.7221 -66.7004 -66.6931 -66.6715 -66.6353 -66.6174 -66.5963
   -66.5928 -62.4088 -62.4014 -62.3970 -62.3933 -62.3895 -62.3818 -62.3170
   -62.3002 -62.2948 -35.5287 -35.5120 -35.4931 -35.4881 -35.4713 -35.4712
   -35.4633 -35.4427 -35.4372 -35.4371 -35.4348 -35.4283 -35.4144 -35.4045
   -35.4018 -35.3966 -35.3743 -35.3734 -35.3625 -35.3576 -35.3479 -35.3470
   -35.3414 -35.3411 -35.3402 -35.3318 -35.3291 -31.2454 -31.2426 -31.2373
   -31.2336 -31.2328 -31.2271 -31.2263 -31.2261 -31.2249 -31.2207 -31.2167
   -31.2138 -31.2133 -31.2076 -31.2026 -31.1995 -31.1952 -31.1945 -31.1534
   -31.1525 -31.1480 -31.1439 -31.1281 -31.1256 -31.1160 -31.1016 -31.1010
     5.6173   7.1410   7.1648   7.1969   7.2200   7.3667   7.8487   7.8920
     7.9291   7.9405   8.0611   8.1210   8.1375   8.1764   8.1919   8.2403
     8.2626   8.2967   8.3200   8.5111   8.5456   8.5691   8.5806   8.5972
     8.6107   8.8506   8.8556   8.8658   8.8847   8.8876   8.8901   8.8911
     8.9062   8.9084   8.9139   8.9258   8.9324   8.9625   8.9704   8.9862
     9.0086   9.0852   9.1205   9.1246   9.1312   9.1402   9.1521   9.1598
     9.1847   9.2080   9.2105   9.2677   9.2895   9.3029   9.3056   9.3499
     9.3579   9.3649   9.3704   9.3723   9.3913   9.3965   9.4009   9.4294
     9.4411   9.4487   9.4543   9.4559   9.4581   9.4611   9.4931   9.5796
     9.5814   9.5823   9.5897   9.5950   9.6261   9.6677   9.6707   9.6720
     9.6773   9.6788   9.6959   9.7389   9.7535   9.7884   9.8078   9.8506
     9.8525   9.9039   9.9145   9.9398   9.9550   9.9608  10.0257  10.0430
    10.0939  10.1206  10.1341  10.1611  10.2874  10.2887  10.2929  10.2956
    10.3056  10.3069  10.3077  10.3085  10.3187  10.3298  10.3395  10.3420
    10.3437  10.3548  10.3613  10.3650  10.3661  10.3699  10.3851  10.3964
    10.4015  10.5193  10.5207  10.5721  10.6166  10.6225  10.6398  10.6724
    10.6997  10.7861  10.7889  10.7910  10.8124  10.8152  10.8269  10.8311
    10.8449  10.8542  10.8573  10.8756  10.8769  10.8787  10.8800  10.8893
    10.9093  10.9231  11.0035  11.0330  11.0771  11.1094  11.2131  11.2209
    11.2256  11.2273  11.2343  11.2648  11.3238  11.3247  11.3352  11.3503
    11.3614  11.3817  11.3898  11.3911  11.3938  11.4024  11.4114  11.4177
    11.4456  11.4487  11.5153  11.5913  11.5928  11.5954  11.5991  11.5997
    11.6446  11.6689  11.7265  11.7324  11.7441  11.7540  11.7743  11.8333
    11.8448  11.8682  11.8726  11.8772  11.9224  11.9288  11.9427  11.9554
    11.9768  11.9901  12.0611  12.1016  12.1024  12.1051  12.1063  12.1307
    12.1416  12.1442  12.1487  12.1496  12.1563  12.1799  12.2210  12.2344
    12.2509  12.2584  12.2641  12.2643  12.3338  12.3524  12.3944  12.4082
    12.4364  12.4366  12.4504  12.4919  12.5103  12.5121  12.5217  12.5278
    12.5496  12.5654  12.5825  12.5907  12.5928  12.6006  12.6624  12.7086
    12.7171  12.7234  12.7311  12.7511  12.7668  12.8609  13.0924  13.0986
    13.1172  13.1349  13.2001  13.2201  13.3910  13.6440  13.8129  13.8347
    13.8740  14.0331  14.1390  14.1926  14.2791  14.3553  14.3895  14.6830
    14.7609  14.8151  14.8228  14.9799  15.0247  15.0404  15.1559  15.1645
    15.2103  15.3631  15.3672  15.3977  15.4291  15.4565  15.5653  15.6236
    15.6270  15.7254  15.7306  15.7662  15.7672  15.8733  15.8841  16.0145
    16.0240  16.0481  16.1110  16.1114  16.1195  16.1676  16.1828  16.2085
    16.2604  16.2784  16.3091  16.3176  16.3384  16.3511  16.3726  16.3932
    16.4275  16.4680  16.4754  16.6073  16.6212  16.6979  16.7749  16.7973
    16.9674  17.0324  17.0789  17.1651  17.2151  17.2371  17.2910  17.3167
    17.4499  17.5895  17.8499  17.9088  17.9244  17.9325  17.9714  18.1764
    18.2840  18.3300  18.4246  18.9236  18.9494  19.0541  19.1277  19.2758

          k = 0.0000 0.0000-0.5734 ( 31692 PWs)   bands (ev):

   -66.7684 -66.7221 -66.7004 -66.6931 -66.6715 -66.6353 -66.6174 -66.5963
   -66.5928 -62.4088 -62.4014 -62.3970 -62.3933 -62.3895 -62.3818 -62.3170
   -62.3002 -62.2948 -35.5287 -35.5120 -35.4931 -35.4881 -35.4713 -35.4712
   -35.4633 -35.4427 -35.4372 -35.4371 -35.4348 -35.4283 -35.4144 -35.4045
   -35.4018 -35.3966 -35.3743 -35.3734 -35.3625 -35.3576 -35.3479 -35.3470
   -35.3414 -35.3411 -35.3402 -35.3318 -35.3291 -31.2454 -31.2426 -31.2373
   -31.2336 -31.2328 -31.2271 -31.2263 -31.2261 -31.2249 -31.2207 -31.2167
   -31.2138 -31.2133 -31.2076 -31.2026 -31.1995 -31.1952 -31.1945 -31.1534
   -31.1525 -31.1480 -31.1439 -31.1281 -31.1256 -31.1160 -31.1016 -31.1010
     6.1757   6.1972   7.5394   7.5531   7.5664   7.5839   7.5869   7.6023
     7.6191   7.6302   8.3085   8.3251   8.3392   8.3490   8.3616   8.3694
     8.3783   8.3869   8.4525   8.4558   8.4782   8.4784   8.4900   8.5003
     8.5249   8.5255   8.7010   8.7099   8.7619   8.7806   8.9448   8.9648
     8.9660   8.9807   8.9812   8.9872   8.9874   8.9946   9.0088   9.0180
     9.0284   9.0421   9.0440   9.0572   9.0818   9.1068   9.1947   9.2117
     9.2175   9.2327   9.2465   9.2596   9.2732   9.2746   9.2808   9.2854
     9.2898   9.2905   9.2952   9.3046   9.3079   9.3099   9.4105   9.4105
     9.4301   9.4306   9.4375   9.4484   9.4517   9.4552   9.4629   9.4755
     9.4887   9.4955   9.5021   9.5168   9.5277   9.5471   9.6509   9.6795
     9.7885   9.7934   9.7992   9.8053   9.8060   9.8193   9.8276   9.8354
     9.8791   9.8813   9.8817   9.8833   9.8883   9.8908   9.8924   9.8936
    10.0592  10.0612  10.0637  10.0655  10.1395  10.1569  10.1589  10.1696
    10.1721  10.1864  10.1881  10.1933  10.2047  10.2160  10.3595  10.3610
    10.3762  10.3794  10.3931  10.4044  10.4181  10.4210  10.4790  10.5036
    10.5961  10.5971  10.6134  10.6170  10.6229  10.6358  10.6678  10.6722
    10.6724  10.6890  10.7098  10.7446  10.7527  10.8000  10.8015  10.8162
    10.9808  10.9992  10.9992  11.0074  11.0146  11.0199  11.0388  11.0829
    11.0873  11.0997  11.1073  11.1291  11.1504  11.1655  11.2046  11.2167
    11.2380  11.2437  11.2513  11.2514  11.2621  11.2625  11.2719  11.2729
    11.2743  11.2805  11.2814  11.2836  11.2905  11.2907  11.2971  11.2999
    11.3071  11.3090  11.3252  11.3261  11.5593  11.5743  11.7144  11.7150
    11.7161  11.7205  11.7237  11.7246  11.7266  11.7275  11.7348  11.7661
    11.7767  11.7814  11.7885  11.7966  11.8069  11.8228  11.8292  11.9292
    11.9815  11.9888  11.9947  12.0157  12.0278  12.0328  12.0500  12.0721
    12.1314  12.1711  12.1964  12.2345  12.2583  12.3343  12.3481  12.3687
    12.3759  12.4299  12.4361  12.4771  12.4801  12.4823  12.4853  12.4899
    12.4983  12.5049  12.5352  12.5395  12.5456  12.5542  12.5785  12.6453
    12.6571  12.6793  12.6852  12.7713  12.7832  12.8134  12.9222  12.9693
    12.9828  13.0340  13.0519  13.0748  13.1361  13.1609  13.2273  13.2276
    13.2443  13.2744  13.2871  13.3098  13.3229  13.5418  13.6246  13.7277
    13.9083  13.9619  13.9877  14.1181  14.1544  14.1630  14.2981  14.4738
    14.5214  14.8612  14.9010  14.9135  14.9830  14.9986  15.0061  15.1177
    15.1633  15.1670  15.1732  15.3287  15.3649  15.4144  15.4668  15.5492
    15.6577  15.6634  15.6813  15.7686  15.8003  15.8764  15.9509  15.9789
    16.0824  16.0860  16.1156  16.1489  16.1725  16.1847  16.2062  16.2163
    16.2301  16.2455  16.2537  16.2620  16.2725  16.2879  16.2966  16.2998
    16.3238  16.3522  16.5123  16.5874  16.5930  16.6734  16.7100  16.7409
    16.8470  16.8928  17.3219  17.3278  17.3529  17.4031  17.4815  17.5443
    17.5537  17.5650  17.6637  17.6936  17.7116  17.7436  17.8860  17.9057
    17.9178  17.9203  18.1662  18.2337  18.2338  18.2732  18.2985  18.3286

          k = 0.0000-0.5000 0.0000 ( 31722 PWs)   bands (ev):

   -66.7684 -66.7221 -66.7004 -66.6931 -66.6715 -66.6353 -66.6174 -66.5963
   -66.5928 -62.4088 -62.4014 -62.3970 -62.3933 -62.3895 -62.3818 -62.3170
   -62.3002 -62.2948 -35.5287 -35.5120 -35.4931 -35.4881 -35.4713 -35.4712
   -35.4633 -35.4427 -35.4372 -35.4371 -35.4348 -35.4283 -35.4144 -35.4045
   -35.4018 -35.3967 -35.3740 -35.3734 -35.3625 -35.3578 -35.3479 -35.3470
   -35.3413 -35.3411 -35.3402 -35.3318 -35.3291 -31.2470 -31.2403 -31.2377
   -31.2337 -31.2333 -31.2267 -31.2261 -31.2261 -31.2250 -31.2207 -31.2170
   -31.2133 -31.2132 -31.2076 -31.2026 -31.1999 -31.1952 -31.1945 -31.1534
   -31.1525 -31.1480 -31.1439 -31.1281 -31.1256 -31.1160 -31.1016 -31.1010
     6.0353   6.0552   7.4024   7.4290   7.4800   7.4879   7.6767   7.6800
     8.1108   8.1166   8.1550   8.1731   8.1908   8.1973   8.2695   8.2819
     8.3841   8.4195   8.4797   8.4872   8.6197   8.6365   8.6374   8.6549
     8.6577   8.6746   8.6981   8.7066   8.7826   8.8012   8.8157   8.8313
     8.8569   8.8600   8.8731   8.8933   8.9022   8.9099   8.9216   8.9249
     8.9313   8.9371   8.9493   8.9526   9.0507   9.0533   9.1533   9.1687
     9.2027   9.2083   9.2194   9.2260   9.2282   9.2340   9.3148   9.3274
     9.3570   9.3778   9.3986   9.4056   9.4699   9.4778   9.4857   9.4981
     9.5382   9.5587   9.5622   9.5670   9.5874   9.5981   9.6031   9.6172
     9.6261   9.6262   9.6356   9.6379   9.6409   9.6424   9.6445   9.6460
     9.6500   9.6722   9.6792   9.6895   9.6991   9.7051   9.7085   9.7315
     9.7385   9.7618   9.7630   9.7721   9.8978   9.9017   9.9342   9.9575
    10.0200  10.0352  10.1714  10.1926  10.2075  10.2173  10.2452  10.2471
    10.2758  10.2775  10.2781  10.2853  10.2855  10.2882  10.3367  10.3503
    10.3823  10.3853  10.3884  10.3928  10.4355  10.4424  10.4689  10.4743
    10.4911  10.5023  10.5105  10.5362  10.5555  10.5634  10.5850  10.5902
    10.6606  10.6622  10.6762  10.7089  10.7098  10.7457  10.7468  10.7674
    10.8028  10.8071  10.8365  10.8500  10.8594  10.8654  10.9032  10.9303
    10.9576  10.9667  11.0233  11.0420  11.0649  11.0784  11.1752  11.1814
    11.3021  11.3268  11.3462  11.3512  11.3624  11.3675  11.4150  11.4209
    11.4383  11.4633  11.4880  11.4889  11.4905  11.5341  11.5361  11.5635
    11.5704  11.5996  11.6098  11.6110  11.6306  11.6646  11.7333  11.7469
    11.7513  11.7911  11.8174  11.8291  11.8295  11.8525  11.8641  11.8683
    11.8729  11.8779  11.8867  11.9016  11.9140  11.9213  11.9468  11.9536
    11.9681  11.9813  12.0120  12.0142  12.1001  12.1166  12.1546  12.1645
    12.1724  12.1788  12.2048  12.2219  12.2436  12.2506  12.2516  12.2668
    12.2905  12.3031  12.3343  12.3950  12.4003  12.4007  12.4229  12.4462
    12.4617  12.4689  12.4809  12.5097  12.5146  12.5398  12.5437  12.5756
    12.5898  12.5976  12.6082  12.6253  12.6581  12.6627  12.7487  12.7854
    12.8535  12.8818  12.9537  13.0192  13.0304  13.0408  13.0943  13.1336
    13.1647  13.2207  13.2270  13.2491  13.2782  13.2846  13.3153  13.3970
    13.4784  13.4947  13.5643  13.5844  13.6452  14.3357  14.3894  14.4942
    14.4943  14.7519  14.7683  14.8295  14.9147  14.9759  15.0643  15.1171
    15.1228  15.1303  15.1620  15.2833  15.3249  15.4203  15.5388  15.6042
    15.6316  15.7076  15.7494  15.7836  15.8348  15.8427  15.9035  15.9766
    15.9940  16.0126  16.0166  16.0757  16.0973  16.1070  16.1199  16.1330
    16.1677  16.2044  16.2455  16.2505  16.2791  16.2814  16.3188  16.4003
    16.4119  16.5593  16.6279  16.6659  16.7294  16.7532  17.0030  17.0322
    17.1996  17.2180  17.2841  17.2880  17.5042  17.5237  17.6030  17.6223
    17.6881  17.7565  17.7903  17.7909  17.8735  17.9060  17.9066  17.9104
    17.9831  18.0519  18.1165  18.2254  19.3003  19.3203  19.3368  19.3717

          k = 0.0000-0.5000-0.5734 ( 31696 PWs)   bands (ev):

   -66.7684 -66.7221 -66.7004 -66.6931 -66.6715 -66.6353 -66.6174 -66.5963
   -66.5928 -62.4088 -62.4014 -62.3970 -62.3933 -62.3895 -62.3818 -62.3170
   -62.3002 -62.2948 -35.5287 -35.5120 -35.4931 -35.4881 -35.4713 -35.4712
   -35.4633 -35.4427 -35.4372 -35.4371 -35.4348 -35.4283 -35.4144 -35.4045
   -35.4018 -35.3967 -35.3740 -35.3734 -35.3625 -35.3578 -35.3479 -35.3470
   -35.3413 -35.3411 -35.3402 -35.3318 -35.3291 -31.2470 -31.2403 -31.2377
   -31.2337 -31.2333 -31.2267 -31.2261 -31.2261 -31.2250 -31.2207 -31.2170
   -31.2133 -31.2132 -31.2076 -31.2026 -31.1999 -31.1952 -31.1945 -31.1534
   -31.1525 -31.1480 -31.1439 -31.1281 -31.1256 -31.1160 -31.1016 -31.1010
     6.5518   6.5761   6.5984   6.6147   7.8345   7.8591   7.8767   7.8851
     7.9039   7.9175   7.9229   7.9451   8.2726   8.2778   8.3008   8.3044
     8.5074   8.5144   8.5445   8.5481   8.6621   8.6667   8.6722   8.6775
     8.6801   8.6842   8.7078   8.7140   8.7397   8.7405   8.7477   8.7531
     8.7580   8.7765   8.8010   8.8203   8.9727   8.9974   9.0107   9.0231
     9.0353   9.0445   9.0543   9.0669   9.2038   9.2056   9.2107   9.2130
     9.2158   9.2222   9.2247   9.2264   9.2468   9.2496   9.2563   9.2690
     9.2734   9.2736   9.3000   9.3005   9.3084   9.3211   9.3826   9.4017
     9.4162   9.4255   9.4610   9.4647   9.4653   9.4658   9.4674   9.4900
     9.4949   9.5082   9.5153   9.5236   9.5401   9.5452   9.5452   9.5531
     9.5554   9.5792   9.7571   9.7598   9.7915   9.7956   9.8083   9.8103
     9.8444   9.8479   9.8509   9.8527   9.8595   9.8626   9.8672   9.8877
     9.9714   9.9750   9.9960  10.0075  10.0252  10.0294  10.0585  10.0624
    10.3620  10.3801  10.4009  10.4029  10.4123  10.4201  10.4318  10.4613
    10.4674  10.4696  10.4797  10.4821  10.4917  10.4923  10.5053  10.5089
    10.5091  10.5197  10.5664  10.5773  10.6054  10.6085  10.6127  10.6173
    10.6515  10.6552  10.6747  10.6751  10.6854  10.7009  10.7057  10.7275
    10.7668  10.7865  10.8697  10.8829  10.9637  10.9750  11.0789  11.0839
    11.1121  11.1283  11.1330  11.1414  11.1672  11.1925  11.1970  11.2021
    11.2113  11.2133  11.3017  11.3209  11.3534  11.3639  11.3691  11.3721
    11.3748  11.3858  11.3995  11.4155  11.4848  11.4865  11.4872  11.5178
    11.5196  11.5276  11.5719  11.5721  11.5863  11.6018  11.6375  11.6394
    11.6431  11.6450  11.7185  11.7266  11.7360  11.8006  11.8044  11.8157
    11.9179  11.9272  11.9343  11.9524  11.9604  11.9637  11.9822  12.0181
    12.0355  12.0364  12.0406  12.0448  12.0802  12.0938  12.1138  12.1416
    12.1867  12.1922  12.2214  12.2314  12.2424  12.2891  12.2968  12.3206
    12.3648  12.3822  12.4022  12.4405  12.4490  12.4681  12.4849  12.4909
    12.5107  12.5270  12.5438  12.5510  12.5568  12.5603  12.5814  12.5817
    12.5937  12.6012  12.6435  12.6520  12.6642  12.7270  12.7283  12.7801
    12.7961  12.8260  12.8490  12.8848  12.9109  12.9448  12.9886  13.0308
    13.0628  13.2146  13.5429  13.6087  13.6154  13.6320  13.6888  13.7594
    13.8562  13.9955  14.0090  14.1487  14.2460  14.2520  14.2887  14.4881
    14.4888  14.5478  14.5526  14.6147  14.6261  14.7475  14.7649  14.9009
    14.9097  15.2598  15.2899  15.3403  15.3752  15.3815  15.3952  15.5357
    15.6333  15.7979  15.8078  15.8198  15.8450  15.8796  15.9430  15.9571
    16.0066  16.0242  16.0347  16.0376  16.0444  16.1492  16.1806  16.1932
    16.2085  16.2571  16.2887  16.3208  16.3534  16.3593  16.3799  16.4133
    16.4306  16.5837  16.6009  16.6387  16.6578  16.6977  16.7330  16.7427
    16.7554  16.8299  16.8948  16.8979  16.9421  16.9813  16.9917  16.9975
    17.0597  17.1002  17.1981  17.2729  18.5797  18.6085  18.6675  18.6854
    18.8040  18.8269  18.8336  18.8615  18.8943  18.9014  18.9453  18.9481

          k =-0.5000-0.5000 0.0000 ( 31612 PWs)   bands (ev):

   -66.7684 -66.7221 -66.7004 -66.6931 -66.6715 -66.6353 -66.6174 -66.5963
   -66.5928 -62.4088 -62.4014 -62.3970 -62.3933 -62.3895 -62.3818 -62.3170
   -62.3002 -62.2948 -35.5287 -35.5120 -35.4931 -35.4881 -35.4713 -35.4712
   -35.4633 -35.4427 -35.4372 -35.4371 -35.4348 -35.4283 -35.4144 -35.4045
   -35.4018 -35.3967 -35.3740 -35.3734 -35.3625 -35.3578 -35.3479 -35.3470
   -35.3413 -35.3411 -35.3402 -35.3318 -35.3291 -31.2470 -31.2403 -31.2377
   -31.2337 -31.2333 -31.2267 -31.2261 -31.2261 -31.2250 -31.2207 -31.2170
   -31.2133 -31.2132 -31.2076 -31.2026 -31.1999 -31.1952 -31.1945 -31.1534
   -31.1525 -31.1480 -31.1439 -31.1281 -31.1256 -31.1160 -31.1016 -31.1010
     6.4068   6.4211   6.4501   6.4943   8.0125   8.0149   8.0226   8.0262
     8.1001   8.1115   8.2963   8.3082   8.3214   8.3294   8.3369   8.3400
     8.3481   8.3521   8.3583   8.3720   8.3757   8.4152   8.5905   8.6167
     8.6404   8.6606   8.6783   8.7009   8.7139   8.7178   8.7275   8.7377
     8.7669   8.8162   8.9227   8.9385   8.9538   8.9722   8.9780   8.9788
     8.9798   8.9883   8.9976   9.0131   9.0181   9.0337   9.0470   9.0492
     9.1195   9.1279   9.3101   9.3110   9.3209   9.3228   9.4051   9.4088
     9.4136   9.4232   9.4277   9.4311   9.4373   9.4423   9.4480   9.4533
     9.4596   9.4716   9.4766   9.4776   9.4830   9.4918   9.4959   9.5044
     9.5119   9.5158   9.5353   9.5416   9.5470   9.5664   9.5812   9.5939
     9.6043   9.6136   9.7004   9.7012   9.7754   9.7794   9.8211   9.8271
     9.8286   9.8362   9.8442   9.8493   9.8520   9.8875  10.0397  10.0600
    10.0802  10.1072  10.1245  10.1284  10.1420  10.1501  10.1528  10.1639
    10.1748  10.1803  10.2064  10.2151  10.2246  10.2272  10.2292  10.2354
    10.2379  10.2384  10.2419  10.2563  10.4610  10.4754  10.4901  10.4948
    10.4991  10.5035  10.5085  10.5558  10.5940  10.6217  10.6452  10.6500
    10.6586  10.6649  10.6799  10.6869  10.6951  10.7014  10.7082  10.7105
    10.7144  10.7496  10.7857  10.8226  10.8332  10.8411  10.8686  10.8806
    10.9368  10.9510  11.1963  11.2010  11.2196  11.2322  11.3074  11.3235
    11.3326  11.3424  11.3611  11.3684  11.3858  11.3924  11.5310  11.5473
    11.6046  11.6333  11.6375  11.6434  11.6446  11.6501  11.6526  11.6545
    11.7003  11.7023  11.7266  11.7327  11.7340  11.7476  11.7548  11.7595
    11.8702  11.8772  11.8792  11.8818  11.8856  11.8887  11.9426  11.9458
    12.0023  12.0419  12.0666  12.0843  12.0972  12.1049  12.1073  12.1108
    12.1119  12.1155  12.1203  12.1217  12.1454  12.1465  12.1659  12.1732
    12.1978  12.2007  12.2112  12.2271  12.2274  12.2385  12.2578  12.2738
    12.2748  12.2798  12.2906  12.2969  12.2980  12.3073  12.3130  12.3425
    12.3663  12.3820  12.4163  12.4398  12.4821  12.4930  12.5175  12.5300
    12.5400  12.5702  12.5826  12.6065  12.6090  12.6363  12.6632  12.6636
    12.7060  12.8077  12.8447  12.8737  12.8923  12.9290  12.9441  12.9539
    12.9746  12.9991  13.0002  13.0058  13.0290  13.5634  13.5748  13.6762
    13.6782  13.6789  13.7014  13.8624  13.8797  14.0037  14.0569  14.1794
    14.1994  14.2076  14.3457  14.4528  14.5413  14.6870  14.8085  15.0705
    15.1976  15.2165  15.2311  15.2353  15.3767  15.4868  15.5468  15.7183
    15.7421  15.7979  15.7984  15.8797  15.8851  15.9016  15.9185  15.9494
    15.9774  15.9937  16.0137  16.0178  16.0192  16.0794  16.1060  16.1403
    16.1706  16.1795  16.2548  16.2952  16.3305  16.3466  16.4165  16.4461
    16.4715  16.4927  16.5070  16.6647  16.6676  16.6975  16.7094  16.7218
    16.8568  16.8938  16.9110  16.9226  17.3890  17.3914  17.8092  17.9380
    18.1704  18.1954  18.2217  18.2426  18.2952  18.3147  18.4946  18.5717
    18.5758  18.6443  18.6752  18.7139  18.7478  18.7961  18.7976  18.8083

          k =-0.5000-0.5000-0.5734 ( 31672 PWs)   bands (ev):

   -66.7684 -66.7221 -66.7004 -66.6931 -66.6715 -66.6353 -66.6174 -66.5963
   -66.5928 -62.4088 -62.4014 -62.3970 -62.3933 -62.3895 -62.3818 -62.3170
   -62.3002 -62.2948 -35.5287 -35.5120 -35.4931 -35.4881 -35.4713 -35.4712
   -35.4633 -35.4427 -35.4372 -35.4371 -35.4348 -35.4283 -35.4144 -35.4045
   -35.4018 -35.3967 -35.3740 -35.3734 -35.3625 -35.3578 -35.3479 -35.3470
   -35.3413 -35.3411 -35.3402 -35.3318 -35.3291 -31.2470 -31.2403 -31.2377
   -31.2337 -31.2333 -31.2267 -31.2261 -31.2261 -31.2250 -31.2207 -31.2170
   -31.2133 -31.2132 -31.2076 -31.2026 -31.1999 -31.1952 -31.1945 -31.1534
   -31.1525 -31.1480 -31.1439 -31.1281 -31.1256 -31.1160 -31.1016 -31.1010
     6.8832   6.9171   6.9373   6.9457   6.9959   7.0080   7.0296   7.0558
     8.4480   8.4594   8.4792   8.4843   8.4866   8.4899   8.4922   8.4993
     8.5042   8.5086   8.5141   8.5207   8.5392   8.5458   8.5464   8.5666
     8.5761   8.5921   8.5928   8.6016   8.8767   8.8793   8.8865   8.8967
     8.9087   8.9098   8.9373   8.9511   9.0871   9.1074   9.1142   9.1203
     9.1257   9.1468   9.1517   9.1532   9.1607   9.1614   9.1626   9.1651
     9.1662   9.1675   9.1689   9.1728   9.1748   9.1768   9.1790   9.1822
     9.1852   9.1873   9.1906   9.1985   9.2013   9.2123   9.2184   9.2220
     9.2289   9.2344   9.2366   9.2451   9.2535   9.2669   9.2764   9.2902
     9.5444   9.5527   9.5620   9.5738   9.5835   9.5956   9.6157   9.6250
     9.6497   9.6725   9.6779   9.6896   9.7176   9.7373   9.7511   9.7850
     9.8183   9.8377   9.8432   9.8524   9.8769   9.8841   9.8898   9.8981
    10.1061  10.1201  10.1443  10.1547  10.1694  10.1817  10.1940  10.2023
    10.2944  10.3107  10.4494  10.4630  10.4647  10.4666  10.4795  10.4842
    10.4843  10.4910  10.5019  10.5033  10.5109  10.5133  10.5136  10.5141
    10.5204  10.5339  10.5389  10.5635  10.5726  10.5732  10.5815  10.6006
    10.6064  10.6089  10.6176  10.6406  10.6424  10.6639  10.6653  10.6848
    10.6898  10.6933  10.7041  10.7067  10.7326  10.7360  11.0464  11.0521
    11.0659  11.0703  11.0907  11.1000  11.1301  11.1356  11.3837  11.3858
    11.3960  11.3963  11.4060  11.4273  11.4399  11.4448  11.4755  11.4815
    11.4856  11.4923  11.5025  11.5070  11.5200  11.5307  11.6358  11.6413
    11.6451  11.6465  11.6508  11.6520  11.6951  11.7006  11.7055  11.7248
    11.7278  11.7334  11.7391  11.7420  11.7725  11.7788  11.7817  11.8043
    11.8053  11.8187  11.8237  11.8372  11.8454  11.8682  11.9928  12.0173
    12.0336  12.0556  12.0723  12.0801  12.0883  12.1274  12.1513  12.1618
    12.1788  12.2063  12.2280  12.2312  12.2495  12.2873  12.3246  12.3344
    12.3506  12.3990  12.4030  12.4161  12.4193  12.4297  12.4372  12.4670
    12.4784  12.4951  12.5023  12.5319  12.5358  12.5605  12.5754  12.6014
    12.6146  12.6740  12.7006  12.7239  12.7261  12.7591  12.7743  12.8193
    12.9020  12.9275  12.9533  12.9787  13.1043  13.1370  13.1498  13.2437
    13.2640  13.2825  13.2922  13.3321  13.3513  13.3967  13.4846  13.4982
    13.5283  13.7094  13.7910  13.8142  13.8515  13.9740  14.1351  14.1586
    14.2138  14.3016  14.3425  14.6924  14.8091  14.8320  14.8640  14.8925
    14.9602  15.0676  15.1804  15.3139  15.3355  15.6639  15.6767  15.6852
    15.7017  15.7539  15.8005  15.8911  15.9322  15.9627  15.9678  16.0006
    16.0104  16.0210  16.0888  16.1155  16.1436  16.1645  16.1701  16.2210
    16.2212  16.2339  16.2495  16.3175  16.3318  16.3910  16.3936  16.4937
    16.5317  16.5352  16.5597  16.6005  16.6086  16.6378  16.7025  16.7203
    16.7769  16.7846  16.8099  16.8827  16.8901  16.9635  16.9904  17.0005
    17.1256  17.1285  17.7284  17.8082  17.8575  17.8607  19.0056  19.0122
    19.0405  19.0445  19.0797  19.1090  19.1882  19.2237  19.2330  19.3400

          k =-0.5000 0.0000 0.0000 ( 31722 PWs)   bands (ev):

   -66.7684 -66.7221 -66.7004 -66.6931 -66.6715 -66.6353 -66.6174 -66.5963
   -66.5928 -62.4088 -62.4014 -62.3970 -62.3933 -62.3895 -62.3818 -62.3170
   -62.3002 -62.2948 -35.5287 -35.5120 -35.4931 -35.4881 -35.4713 -35.4712
   -35.4633 -35.4427 -35.4372 -35.4371 -35.4348 -35.4283 -35.4144 -35.4045
   -35.4018 -35.3966 -35.3743 -35.3734 -35.3625 -35.3576 -35.3479 -35.3470
   -35.3414 -35.3411 -35.3402 -35.3318 -35.3291 -31.2454 -31.2426 -31.2373
   -31.2336 -31.2328 -31.2271 -31.2263 -31.2261 -31.2249 -31.2207 -31.2167
   -31.2138 -31.2133 -31.2076 -31.2026 -31.1995 -31.1952 -31.1945 -31.1534
   -31.1525 -31.1480 -31.1439 -31.1281 -31.1256 -31.1160 -31.1016 -31.1010
     6.0186   6.0720   7.4251   7.4309   7.4442   7.5003   7.6761   7.6794
     8.0920   8.1137   8.1459   8.1821   8.2092   8.2353   8.2513   8.2642
     8.4058   8.4214   8.4376   8.4941   8.6336   8.6397   8.6414   8.6469
     8.6580   8.6635   8.7055   8.7126   8.7544   8.8073   8.8323   8.8412
     8.8474   8.8693   8.8842   8.8902   8.8971   8.9102   8.9166   8.9214
     8.9249   8.9305   8.9415   8.9630   9.0462   9.0559   9.1662   9.1687
     9.1832   9.2083   9.2221   9.2270   9.2306   9.2497   9.3383   9.3416
     9.3458   9.3545   9.3836   9.4161   9.4718   9.4869   9.4969   9.5049
     9.5220   9.5338   9.5781   9.5807   9.5867   9.6032   9.6104   9.6129
     9.6212   9.6282   9.6301   9.6317   9.6371   9.6392   9.6441   9.6472
     9.6565   9.6624   9.6781   9.6894   9.6972   9.7052   9.7197   9.7231
     9.7303   9.7456   9.7776   9.7858   9.8879   9.9137   9.9449   9.9669
    10.0220  10.0413  10.1380  10.2003  10.2185  10.2301  10.2518  10.2567
    10.2596  10.2612  10.2614  10.2642  10.2927  10.2985  10.3376  10.3516
    10.3615  10.3761  10.3894  10.3941  10.4315  10.4446  10.4511  10.4724
    10.5262  10.5314  10.5373  10.5544  10.5635  10.5704  10.5736  10.5876
    10.6058  10.6528  10.6567  10.6943  10.7042  10.7404  10.7503  10.7758
    10.7860  10.8193  10.8203  10.8576  10.8604  10.8708  10.9017  10.9428
    10.9994  11.0092  11.0156  11.0251  11.0400  11.0824  11.1722  11.1817
    11.3484  11.3506  11.3527  11.3787  11.3792  11.4010  11.4013  11.4137
    11.4216  11.4347  11.4574  11.4792  11.4794  11.5352  11.5415  11.5424
    11.5611  11.5729  11.5834  11.6179  11.6234  11.6479  11.6704  11.7380
    11.7656  11.7847  11.7915  11.8192  11.8527  11.8681  11.8687  11.8729
    11.8940  11.9001  11.9211  11.9252  11.9411  11.9426  11.9552  11.9601
    11.9697  11.9726  11.9878  11.9957  12.0536  12.0923  12.1690  12.1698
    12.1959  12.2075  12.2099  12.2148  12.2290  12.2528  12.2728  12.2832
    12.2881  12.2944  12.3191  12.3221  12.3446  12.4044  12.4109  12.4456
    12.4489  12.4846  12.4870  12.4929  12.5133  12.5402  12.5483  12.5610
    12.5731  12.6096  12.6186  12.6440  12.6556  12.6640  12.7290  12.7988
    12.8668  13.0077  13.0338  13.0681  13.0987  13.1027  13.1149  13.1443
    13.1650  13.1788  13.2023  13.2331  13.2529  13.2833  13.3415  13.3431
    13.3481  13.4665  13.4992  13.5814  13.6341  14.4528  14.4786  14.5743
    14.6434  14.7362  14.7641  14.7690  14.7982  14.9030  14.9488  14.9913
    15.0504  15.0682  15.1129  15.2526  15.4265  15.4642  15.5377  15.6294
    15.7024  15.7675  15.7885  15.7927  15.8009  15.8106  15.8477  16.0173
    16.0196  16.0594  16.0737  16.0839  16.1201  16.1349  16.1577  16.1760
    16.1902  16.2047  16.2438  16.2527  16.2961  16.3192  16.3701  16.4212
    16.4303  16.4974  16.5576  16.6005  16.6561  16.7785  17.0449  17.0723
    17.1382  17.1888  17.2184  17.3242  17.4050  17.4346  17.6160  17.6354
    17.7214  17.7673  17.7709  17.8256  17.8506  17.8709  17.8747  17.9747
    17.9879  18.0020  18.1761  18.2749  19.2293  19.2938  19.3410  19.3843

          k =-0.5000 0.0000 0.5734 ( 31696 PWs)   bands (ev):

   -66.7684 -66.7221 -66.7004 -66.6931 -66.6715 -66.6353 -66.6174 -66.5963
   -66.5928 -62.4088 -62.4014 -62.3970 -62.3933 -62.3895 -62.3818 -62.3170
   -62.3002 -62.2948 -35.5287 -35.5120 -35.4931 -35.4881 -35.4713 -35.4712
   -35.4633 -35.4427 -35.4372 -35.4371 -35.4348 -35.4283 -35.4144 -35.4045
   -35.4018 -35.3966 -35.3743 -35.3734 -35.3625 -35.3576 -35.3479 -35.3470
   -35.3414 -35.3411 -35.3402 -35.3318 -35.3291 -31.2454 -31.2426 -31.2373
   -31.2336 -31.2328 -31.2271 -31.2263 -31.2261 -31.2249 -31.2207 -31.2167
   -31.2138 -31.2133 -31.2076 -31.2026 -31.1995 -31.1952 -31.1945 -31.1534
   -31.1525 -31.1480 -31.1439 -31.1281 -31.1256 -31.1160 -31.1016 -31.1010
     6.5270   6.5491   6.6260   6.6448   7.8341   7.8603   7.8627   7.8691
     7.9093   7.9158   7.9283   7.9513   8.2714   8.2781   8.3020   8.3049
     8.5173   8.5256   8.5329   8.5359   8.6663   8.6727   8.6747   8.6757
     8.6860   8.7014   8.7122   8.7264   8.7312   8.7368   8.7503   8.7537
     8.7564   8.7849   8.7876   8.7901   8.9535   8.9693   9.0371   9.0428
     9.0432   9.0482   9.0570   9.0596   9.1911   9.2064   9.2140   9.2170
     9.2226   9.2293   9.2358   9.2390   9.2437   9.2473   9.2501   9.2577
     9.2606   9.2654   9.2762   9.2796   9.3035   9.3448   9.3831   9.4064
     9.4170   9.4280   9.4521   9.4567   9.4654   9.4671   9.4692   9.4893
     9.5054   9.5193   9.5210   9.5315   9.5317   9.5461   9.5549   9.5603
     9.5819   9.5978   9.7552   9.7573   9.7954   9.8135   9.8177   9.8215
     9.8230   9.8408   9.8462   9.8505   9.8569   9.8619   9.8674   9.8808
     9.9390   9.9453  10.0170  10.0273  10.0335  10.0471  10.0527  10.0534
    10.3602  10.3765  10.3895  10.3919  10.4070  10.4140  10.4318  10.4403
    10.4516  10.4522  10.4723  10.4759  10.4779  10.4815  10.4912  10.5150
    10.5311  10.5638  10.5691  10.5783  10.5799  10.5911  10.6425  10.6499
    10.6562  10.6590  10.6804  10.6829  10.6923  10.7012  10.7139  10.7271
    10.7701  10.7905  10.8618  10.8796  10.9767  10.9876  11.0304  11.0329
    11.1134  11.1207  11.1477  11.1858  11.1922  11.1940  11.1957  11.2072
    11.2124  11.2138  11.2967  11.2988  11.3428  11.3480  11.3690  11.3811
    11.3848  11.3979  11.4220  11.4480  11.4496  11.4528  11.4875  11.4987
    11.5672  11.5707  11.5824  11.5837  11.5921  11.6127  11.6185  11.6216
    11.6240  11.6275  11.7327  11.7462  11.7464  11.7714  11.7833  11.8815
    11.8894  11.9092  11.9269  11.9379  11.9670  11.9952  12.0047  12.0138
    12.0217  12.0270  12.0301  12.0402  12.0420  12.0432  12.0572  12.0904
    12.2249  12.2355  12.2621  12.2749  12.2794  12.2934  12.3067  12.3299
    12.3432  12.3478  12.3664  12.3725  12.4097  12.4406  12.4427  12.4752
    12.4850  12.4969  12.5006  12.5175  12.5529  12.5619  12.5725  12.6110
    12.6160  12.6401  12.6450  12.6539  12.6542  12.7016  12.7391  12.7667
    12.7792  12.8445  12.9324  12.9836  12.9997  13.0425  13.0858  13.1310
    13.2212  13.2589  13.3594  13.4553  13.4720  13.5562  13.6085  13.9166
    13.9580  13.9769  14.0493  14.0789  14.1540  14.2795  14.3091  14.4160
    14.4226  14.5511  14.5606  14.5759  14.6307  14.7531  14.7699  15.0730
    15.0854  15.1356  15.2009  15.3824  15.3940  15.4213  15.4326  15.4733
    15.4818  15.6646  15.7160  15.7298  15.8365  15.9379  15.9687  16.0250
    16.0475  16.0638  16.1043  16.1498  16.1558  16.2205  16.2262  16.2450
    16.2871  16.3087  16.3507  16.3909  16.3931  16.4064  16.4101  16.4240
    16.4278  16.4450  16.4842  16.5697  16.5704  16.6165  16.6942  16.7416
    16.7864  16.8037  16.8394  16.8595  16.9098  16.9660  16.9772  17.0034
    17.0483  17.0710  17.1618  17.2665  18.6656  18.6958  18.7175  18.7534
    18.7811  18.7876  18.8002  18.8458  18.8773  18.8996  18.9162  18.9170

 ------ SPIN DOWN ----------


          k = 0.0000 0.0000 0.0000 ( 31747 PWs)   bands (ev):

   -66.7845 -66.7631 -66.7435 -66.7392 -66.7309 -66.7265 -66.6115 -66.5822
   -66.5561 -62.4028 -62.3831 -62.3727 -62.3695 -62.3684 -62.3584 -62.3563
   -62.3442 -62.3238 -35.5364 -35.5315 -35.5263 -35.5150 -35.5093 -35.5064
   -35.5047 -35.4951 -35.4890 -35.4873 -35.4826 -35.4802 -35.4795 -35.4756
   -35.4615 -35.4555 -35.4505 -35.4433 -35.3659 -35.3560 -35.3541 -35.3481
   -35.3309 -35.3186 -35.3073 -35.2890 -35.2838 -31.2408 -31.2309 -31.2222
   -31.2152 -31.2137 -31.2134 -31.2086 -31.2057 -31.2044 -31.2012 -31.2002
   -31.1969 -31.1916 -31.1866 -31.1853 -31.1845 -31.1835 -31.1808 -31.1800
   -31.1785 -31.1724 -31.1619 -31.1600 -31.1561 -31.1495 -31.1477 -31.1435
     5.6118   7.1370   7.1670   7.1863   7.2103   7.3615   7.8596   7.8617
     7.9137   7.9496   8.0719   8.1040   8.1353   8.1639   8.1961   8.2316
     8.2607   8.2884   8.3191   8.5214   8.5319   8.5594   8.5723   8.5931
     8.6080   8.8405   8.8643   8.8645   8.8798   8.8837   8.8881   8.9033
     8.9067   8.9075   8.9142   8.9178   8.9264   8.9493   8.9541   8.9789
     8.9951   9.0823   9.1173   9.1198   9.1227   9.1310   9.1579   9.1621
     9.1785   9.2011   9.2148   9.2676   9.2740   9.3015   9.3139   9.3338
     9.3462   9.3525   9.3648   9.3673   9.3829   9.3864   9.4021   9.4255
     9.4401   9.4414   9.4460   9.4488   9.4533   9.4652   9.5089   9.5661
     9.5747   9.5813   9.5848   9.5880   9.6211   9.6634   9.6678   9.6716
     9.6727   9.6748   9.7060   9.7370   9.7572   9.7801   9.7984   9.8495
     9.8501   9.8930   9.9099   9.9287   9.9522   9.9579  10.0190  10.0393
    10.0934  10.1201  10.1301  10.1569  10.2908  10.2919  10.2931  10.2951
    10.2975  10.2988  10.3019  10.3085  10.3101  10.3235  10.3281  10.3424
    10.3482  10.3498  10.3527  10.3549  10.3552  10.3726  10.3824  10.3825
    10.3998  10.5188  10.5197  10.5731  10.6086  10.6096  10.6309  10.6358
    10.6916  10.7611  10.7839  10.7854  10.7898  10.8214  10.8293  10.8380
    10.8427  10.8527  10.8630  10.8685  10.8722  10.8758  10.8798  10.8953
    10.9003  10.9202  10.9972  11.0375  11.0729  11.1082  11.2017  11.2180
    11.2224  11.2274  11.2553  11.2574  11.2792  11.2941  11.3357  11.3385
    11.3644  11.3651  11.3833  11.3901  11.3994  11.4034  11.4080  11.4116
    11.4185  11.4529  11.5871  11.5876  11.5892  11.5953  11.5979  11.6072
    11.6281  11.6710  11.7205  11.7270  11.7320  11.7400  11.7554  11.7861
    11.8320  11.8479  11.8599  11.8689  11.8771  11.8990  11.9327  11.9377
    11.9631  12.0578  12.0984  12.1008  12.1017  12.1030  12.1043  12.1390
    12.1416  12.1440  12.1443  12.1486  12.1526  12.1719  12.1918  12.2178
    12.2458  12.2594  12.3195  12.3209  12.3447  12.3484  12.3660  12.4035
    12.4057  12.4230  12.4342  12.4344  12.4587  12.4806  12.4875  12.4892
    12.5028  12.5200  12.5285  12.5484  12.5735  12.5823  12.5976  12.6250
    12.6816  12.7032  12.7790  12.7840  12.7883  12.8937  12.9942  13.0600
    13.1105  13.1373  13.2152  13.3168  13.3544  13.6613  13.7110  13.7312
    13.8826  14.0080  14.2353  14.2476  14.3106  14.3406  14.4338  14.4365
    14.7315  14.7741  14.7823  15.0184  15.1176  15.1620  15.2070  15.2569
    15.2653  15.2864  15.3106  15.3370  15.3797  15.4455  15.4875  15.5645
    15.6562  15.6852  15.7068  15.8169  15.8690  15.8849  15.9152  15.9375
    16.0034  16.0619  16.0790  16.1302  16.1358  16.1545  16.1598  16.1672
    16.2572  16.2711  16.2795  16.2961  16.3259  16.3386  16.3779  16.3903
    16.4432  16.4872  16.5186  16.5726  16.6142  16.6733  16.7797  16.8926
    17.0254  17.0463  17.0920  17.1661  17.1902  17.2433  17.2689  17.2846
    17.4351  17.5289  17.8850  17.8984  17.9192  17.9499  17.9514  18.1914
    18.2446  18.3192  18.4478  18.9461  19.0000  19.0035  19.0686  19.1780

          k = 0.0000 0.0000-0.5734 ( 31692 PWs)   bands (ev):

   -66.7845 -66.7631 -66.7435 -66.7392 -66.7309 -66.7265 -66.6115 -66.5822
   -66.5562 -62.4028 -62.3831 -62.3727 -62.3695 -62.3684 -62.3584 -62.3563
   -62.3442 -62.3238 -35.5364 -35.5315 -35.5263 -35.5150 -35.5093 -35.5064
   -35.5047 -35.4951 -35.4890 -35.4873 -35.4826 -35.4802 -35.4795 -35.4756
   -35.4615 -35.4555 -35.4505 -35.4433 -35.3659 -35.3560 -35.3541 -35.3481
   -35.3309 -35.3186 -35.3073 -35.2890 -35.2838 -31.2407 -31.2309 -31.2222
   -31.2152 -31.2137 -31.2134 -31.2086 -31.2057 -31.2044 -31.2012 -31.2002
   -31.1969 -31.1916 -31.1866 -31.1853 -31.1845 -31.1835 -31.1808 -31.1800
   -31.1785 -31.1724 -31.1619 -31.1600 -31.1561 -31.1495 -31.1477 -31.1435
     6.1713   6.1897   7.5360   7.5443   7.5629   7.5819   7.5840   7.5947
     7.6131   7.6199   8.3122   8.3246   8.3256   8.3305   8.3613   8.3663
     8.3673   8.3891   8.4579   8.4591   8.4789   8.4834   8.4944   8.4950
     8.5021   8.5035   8.6996   8.7076   8.7605   8.7775   8.9462   8.9651
     8.9653   8.9747   8.9750   8.9802   8.9813   8.9856   9.0087   9.0175
     9.0225   9.0347   9.0425   9.0541   9.0771   9.0985   9.1867   9.1989
     9.2153   9.2277   9.2413   9.2518   9.2740   9.2778   9.2795   9.2837
     9.2869   9.2877   9.2903   9.3024   9.3026   9.3088   9.4112   9.4129
     9.4260   9.4359   9.4407   9.4411   9.4544   9.4550   9.4575   9.4590
     9.4619   9.4776   9.4922   9.5085   9.5242   9.5424   9.6504   9.6746
     9.7822   9.7842   9.7979   9.8051   9.8065   9.8168   9.8290   9.8347
     9.8719   9.8723   9.8771   9.8787   9.8881   9.8893   9.8911   9.8922
    10.0585  10.0600  10.0601  10.0612  10.1315  10.1441  10.1538  10.1632
    10.1665  10.1833  10.1885  10.1946  10.1975  10.2100  10.3483  10.3502
    10.3682  10.3757  10.4017  10.4080  10.4139  10.4149  10.4754  10.4990
    10.5819  10.5830  10.6114  10.6191  10.6342  10.6514  10.6736  10.6758
    10.6781  10.7032  10.7086  10.7318  10.7411  10.7633  10.7759  10.7936
    10.9582  10.9644  10.9997  11.0200  11.0249  11.0304  11.0492  11.0659
    11.0946  11.1174  11.1282  11.1398  11.1454  11.1492  11.1520  11.1541
    11.2218  11.2311  11.2477  11.2496  11.2593  11.2604  11.2634  11.2668
    11.2723  11.2726  11.2803  11.2825  11.2882  11.2888  11.2962  11.2977
    11.3063  11.3068  11.3192  11.3204  11.5668  11.5870  11.7061  11.7080
    11.7081  11.7156  11.7192  11.7230  11.7291  11.7303  11.7332  11.7502
    11.7596  11.7602  11.7732  11.7734  11.7942  11.8510  11.8550  11.9121
    11.9649  11.9722  11.9797  11.9987  12.0079  12.0249  12.0468  12.0616
    12.1398  12.1662  12.1801  12.2172  12.2649  12.3477  12.3492  12.3643
    12.3934  12.4049  12.4070  12.4275  12.4324  12.4332  12.4377  12.4721
    12.4767  12.4996  12.5162  12.5364  12.5430  12.5720  12.5817  12.6095
    12.6513  12.7127  12.7345  12.7475  12.7604  12.7719  12.8887  12.9323
    12.9347  12.9659  13.0632  13.1016  13.1340  13.1571  13.1661  13.2132
    13.2154  13.2410  13.2447  13.2861  13.3144  13.5734  13.6670  13.7463
    13.9152  13.9955  14.0429  14.0711  14.0753  14.1397  14.2933  14.3892
    14.4694  14.8756  14.9003  14.9412  14.9789  15.0093  15.0647  15.0758
    15.1148  15.2161  15.2738  15.3193  15.3374  15.4179  15.4794  15.5249
    15.5744  15.7004  15.7098  15.7492  15.7791  15.8306  15.8720  16.0369
    16.0648  16.0707  16.0984  16.1370  16.1841  16.1934  16.2053  16.2262
    16.2326  16.2496  16.2573  16.2661  16.2692  16.2819  16.3198  16.3235
    16.3472  16.3592  16.5019  16.5767  16.6009  16.6344  16.7436  16.7961
    16.8641  16.9013  17.2669  17.2916  17.2959  17.3287  17.4527  17.4702
    17.5560  17.6046  17.7177  17.7255  17.7696  17.7706  17.8702  17.8760
    17.9165  17.9209  18.1885  18.2008  18.2328  18.2622  18.2936  18.3286

          k = 0.0000-0.5000 0.0000 ( 31722 PWs)   bands (ev):

   -66.7845 -66.7631 -66.7435 -66.7392 -66.7309 -66.7265 -66.6115 -66.5822
   -66.5562 -62.4028 -62.3831 -62.3727 -62.3695 -62.3684 -62.3584 -62.3563
   -62.3442 -62.3238 -35.5364 -35.5319 -35.5258 -35.5150 -35.5094 -35.5064
   -35.5047 -35.4952 -35.4890 -35.4873 -35.4826 -35.4802 -35.4794 -35.4757
   -35.4613 -35.4555 -35.4506 -35.4433 -35.3659 -35.3560 -35.3541 -35.3481
   -35.3309 -35.3186 -35.3073 -35.2890 -35.2838 -31.2407 -31.2309 -31.2222
   -31.2152 -31.2137 -31.2134 -31.2088 -31.2057 -31.2044 -31.2030 -31.2002
   -31.1938 -31.1916 -31.1866 -31.1866 -31.1845 -31.1828 -31.1808 -31.1801
   -31.1785 -31.1729 -31.1619 -31.1600 -31.1561 -31.1495 -31.1477 -31.1435
     6.0326   6.0472   7.4041   7.4095   7.4705   7.4886   7.6696   7.6767
     8.1081   8.1130   8.1424   8.1729   8.1928   8.2042   8.2612   8.2750
     8.3842   8.3940   8.4760   8.4945   8.6176   8.6239   8.6336   8.6524
     8.6560   8.6719   8.6909   8.7102   8.7876   8.8081   8.8143   8.8218
     8.8325   8.8505   8.8753   8.8860   8.8931   8.8994   8.9096   8.9117
     8.9361   8.9422   8.9471   8.9566   9.0459   9.0506   9.1548   9.1571
     9.1905   9.2057   9.2174   9.2202   9.2280   9.2344   9.3100   9.3151
     9.3509   9.3679   9.3960   9.4173   9.4710   9.4745   9.4794   9.4813
     9.5304   9.5468   9.5624   9.5749   9.5842   9.5940   9.6053   9.6131
     9.6184   9.6282   9.6311   9.6331   9.6378   9.6395   9.6420   9.6461
     9.6468   9.6538   9.6627   9.6646   9.7052   9.7106   9.7113   9.7125
     9.7379   9.7475   9.7626   9.7644   9.8956   9.9004   9.9325   9.9563
    10.0180  10.0330  10.1628  10.1909  10.2086  10.2120  10.2502  10.2537
    10.2700  10.2706  10.2718  10.2759  10.2826  10.2848  10.3461  10.3525
    10.3774  10.3799  10.3814  10.3852  10.4241  10.4306  10.4716  10.4808
    10.4859  10.5067  10.5189  10.5202  10.5257  10.5360  10.5848  10.5899
    10.6594  10.6671  10.6876  10.6978  10.7192  10.7195  10.7399  10.7636
    10.8120  10.8248  10.8345  10.8474  10.8585  10.8624  10.8846  10.8987
    10.9471  10.9569  11.0096  11.0188  11.0708  11.0843  11.1783  11.1848
    11.2787  11.3037  11.3452  11.3469  11.3626  11.3646  11.3997  11.4147
    11.4575  11.4598  11.4696  11.4794  11.4927  11.5122  11.5223  11.5608
    11.5805  11.5895  11.5968  11.6070  11.6608  11.6702  11.6814  11.7362
    11.7509  11.7793  11.7920  11.8017  11.8337  11.8556  11.8623  11.8686
    11.8686  11.8732  11.8811  11.9069  11.9205  11.9225  11.9432  11.9505
    11.9637  11.9824  12.0143  12.0165  12.0841  12.1182  12.1529  12.1556
    12.1602  12.1959  12.2078  12.2173  12.2432  12.2486  12.2505  12.2672
    12.2709  12.2920  12.2987  12.3614  12.3746  12.3819  12.3963  12.4132
    12.4434  12.4455  12.4540  12.4599  12.4753  12.5063  12.5268  12.5505
    12.5820  12.5882  12.6128  12.6739  12.7173  12.7261  12.7466  12.7667
    12.7820  12.8500  12.9030  12.9102  12.9768  13.0292  13.1303  13.1479
    13.1621  13.1698  13.2121  13.2325  13.2574  13.3017  13.3150  13.4150
    13.4348  13.4608  13.5196  13.5678  13.6331  14.3278  14.4990  14.5538
    14.5740  14.7462  14.7716  14.8034  14.8486  14.8668  15.0236  15.0739
    15.0994  15.1007  15.1479  15.2634  15.3225  15.4056  15.4990  15.6701
    15.6839  15.7371  15.7668  15.7855  15.8489  15.8733  15.9404  15.9844
    15.9876  16.0214  16.0416  16.0457  16.0580  16.0719  16.1204  16.1449
    16.1887  16.2007  16.2212  16.2356  16.2502  16.2853  16.3326  16.3667
    16.4284  16.4545  16.7009  16.7119  16.7308  16.8283  16.9209  16.9973
    17.1438  17.2240  17.2773  17.2938  17.5518  17.5667  17.6027  17.6042
    17.7248  17.7485  17.7681  17.7847  17.8029  17.8628  17.9050  17.9269
    17.9925  18.1001  18.1152  18.1792  19.2800  19.3139  19.3466  19.3686

          k = 0.0000-0.5000-0.5734 ( 31696 PWs)   bands (ev):

   -66.7845 -66.7631 -66.7435 -66.7392 -66.7309 -66.7265 -66.6115 -66.5822
   -66.5562 -62.4028 -62.3831 -62.3727 -62.3695 -62.3684 -62.3584 -62.3563
   -62.3442 -62.3238 -35.5364 -35.5319 -35.5258 -35.5150 -35.5094 -35.5064
   -35.5047 -35.4952 -35.4890 -35.4873 -35.4826 -35.4802 -35.4794 -35.4757
   -35.4613 -35.4555 -35.4506 -35.4433 -35.3659 -35.3560 -35.3541 -35.3481
   -35.3309 -35.3186 -35.3073 -35.2890 -35.2838 -31.2407 -31.2309 -31.2222
   -31.2152 -31.2137 -31.2134 -31.2088 -31.2057 -31.2044 -31.2029 -31.2002
   -31.1938 -31.1916 -31.1866 -31.1866 -31.1845 -31.1828 -31.1808 -31.1801
   -31.1785 -31.1729 -31.1619 -31.1600 -31.1561 -31.1495 -31.1477 -31.1435
     6.5526   6.5737   6.5887   6.6019   7.8327   7.8490   7.8647   7.8742
     7.9053   7.9206   7.9218   7.9338   8.2690   8.2719   8.2973   8.2988
     8.5109   8.5153   8.5348   8.5358   8.6565   8.6668   8.6684   8.6810
     8.6919   8.6938   8.7061   8.7068   8.7171   8.7216   8.7500   8.7510
     8.7550   8.7597   8.7957   8.8156   8.9745   8.9959   9.0066   9.0186
     9.0341   9.0392   9.0517   9.0611   9.2006   9.2018   9.2110   9.2168
     9.2176   9.2185   9.2235   9.2289   9.2420   9.2501   9.2562   9.2624
     9.2691   9.2710   9.2817   9.2949   9.3004   9.3024   9.3839   9.3995
     9.4104   9.4210   9.4552   9.4580   9.4643   9.4646   9.4721   9.4850
     9.4981   9.5104   9.5107   9.5182   9.5228   9.5301   9.5391   9.5412
     9.5459   9.5619   9.7547   9.7566   9.7912   9.7929   9.8043   9.8054
     9.8300   9.8378   9.8411   9.8434   9.8637   9.8697   9.8731   9.8901
     9.9662   9.9741   9.9873   9.9984  10.0048  10.0166  10.0662  10.0707
    10.3768  10.3957  10.3992  10.4047  10.4057  10.4073  10.4239  10.4557
    10.4654  10.4657  10.4740  10.4753  10.4884  10.4884  10.4949  10.4985
    10.5089  10.5106  10.5573  10.5595  10.5778  10.6065  10.6280  10.6311
    10.6388  10.6443  10.6636  10.6697  10.6885  10.6914  10.7297  10.7337
    10.7502  10.7769  10.8549  10.8658  10.9528  10.9599  11.0801  11.0906
    11.1102  11.1226  11.1251  11.1321  11.1622  11.1816  11.1966  11.2002
    11.2106  11.2111  11.2917  11.3152  11.3527  11.3605  11.3616  11.3733
    11.3734  11.3762  11.4027  11.4091  11.4791  11.4821  11.4834  11.5055
    11.5120  11.5185  11.5802  11.5831  11.5925  11.5989  11.6164  11.6320
    11.6389  11.6466  11.7244  11.7280  11.7419  11.7950  11.7968  11.8038
    11.9140  11.9170  11.9273  11.9390  11.9453  11.9721  11.9789  12.0081
    12.0311  12.0356  12.0362  12.0383  12.0718  12.1000  12.1067  12.1071
    12.1601  12.1625  12.1741  12.1808  12.2413  12.2575  12.2835  12.2960
    12.3296  12.4024  12.4044  12.4262  12.4276  12.4434  12.4464  12.4542
    12.5035  12.5153  12.5325  12.5619  12.5821  12.6016  12.6016  12.6072
    12.6277  12.6343  12.6427  12.6445  12.6466  12.6671  12.6946  12.7232
    12.7407  12.8048  12.8167  12.8871  12.8976  12.9219  12.9286  12.9489
    13.0526  13.1942  13.4037  13.5390  13.5757  13.6084  13.7840  13.7930
    13.9031  14.0629  14.0911  14.2664  14.2691  14.3179  14.3292  14.4206
    14.4369  14.5247  14.5477  14.5566  14.5774  14.6148  14.6208  14.8973
    14.9004  15.2620  15.2894  15.3400  15.4041  15.4766  15.4815  15.5051
    15.6031  15.7176  15.7822  15.8281  15.8623  15.8746  15.9067  15.9668
    15.9762  16.0627  16.0882  16.1084  16.1228  16.1273  16.1433  16.1813
    16.1854  16.2643  16.2904  16.3137  16.3506  16.3550  16.3936  16.4039
    16.4298  16.5314  16.5530  16.5595  16.6133  16.6230  16.7329  16.7611
    16.8105  16.8228  16.9193  16.9255  16.9728  16.9832  16.9957  17.0328
    17.1066  17.1545  17.1719  17.1934  18.6029  18.6310  18.6590  18.6730
    18.7431  18.7736  18.8526  18.8728  18.8943  18.9156  18.9175  18.9425

          k =-0.5000-0.5000 0.0000 ( 31612 PWs)   bands (ev):

   -66.7845 -66.7631 -66.7435 -66.7392 -66.7309 -66.7265 -66.6115 -66.5822
   -66.5562 -62.4028 -62.3831 -62.3727 -62.3695 -62.3684 -62.3584 -62.3563
   -62.3442 -62.3238 -35.5364 -35.5319 -35.5258 -35.5150 -35.5094 -35.5064
   -35.5047 -35.4952 -35.4890 -35.4873 -35.4826 -35.4802 -35.4794 -35.4757
   -35.4613 -35.4555 -35.4506 -35.4433 -35.3659 -35.3560 -35.3541 -35.3481
   -35.3309 -35.3186 -35.3073 -35.2890 -35.2838 -31.2407 -31.2309 -31.2222
   -31.2152 -31.2137 -31.2134 -31.2088 -31.2057 -31.2044 -31.2029 -31.2002
   -31.1938 -31.1916 -31.1866 -31.1866 -31.1845 -31.1828 -31.1808 -31.1801
   -31.1785 -31.1729 -31.1619 -31.1600 -31.1561 -31.1495 -31.1477 -31.1435
     6.4070   6.4302   6.4544   6.4565   8.0031   8.0096   8.0158   8.0269
     8.0974   8.1091   8.2831   8.3174   8.3271   8.3354   8.3372   8.3431
     8.3457   8.3501   8.3537   8.3574   8.3680   8.3754   8.5865   8.6084
     8.6404   8.6614   8.6790   8.6975   8.7093   8.7157   8.7285   8.7406
     8.7727   8.7776   8.9156   8.9320   8.9538   8.9707   8.9755   8.9759
     8.9827   8.9892   9.0020   9.0045   9.0156   9.0184   9.0318   9.0476
     9.1171   9.1245   9.3019   9.3059   9.3181   9.3266   9.3965   9.4091
     9.4176   9.4232   9.4241   9.4276   9.4300   9.4420   9.4480   9.4508
     9.4617   9.4685   9.4708   9.4763   9.4804   9.4809   9.4864   9.4962
     9.4988   9.5043   9.5133   9.5309   9.5441   9.5581   9.5791   9.5897
     9.6068   9.6090   9.6981   9.6993   9.7567   9.7986   9.8179   9.8317
     9.8323   9.8340   9.8347   9.8420   9.8499   9.8575  10.0419  10.0609
    10.0796  10.0999  10.1098  10.1108  10.1385  10.1444  10.1519  10.1624
    10.1773  10.1907  10.2016  10.2123  10.2207  10.2215  10.2252  10.2275
    10.2284  10.2304  10.2382  10.2476  10.4409  10.4787  10.4920  10.4948
    10.4981  10.5061  10.5262  10.5461  10.6091  10.6244  10.6390  10.6468
    10.6590  10.6617  10.6778  10.6812  10.6832  10.6866  10.6896  10.6965
    10.7019  10.7054  10.8080  10.8115  10.8305  10.8497  10.8652  10.8804
    10.9342  10.9481  11.1975  11.2081  11.2153  11.2167  11.3076  11.3216
    11.3229  11.3369  11.3498  11.3623  11.3866  11.3948  11.5424  11.5595
    11.5712  11.5801  11.6385  11.6438  11.6445  11.6448  11.6463  11.6477
    11.6725  11.6884  11.6895  11.7153  11.7264  11.7287  11.7737  11.7748
    11.8748  11.8749  11.8772  11.8791  11.8854  11.8861  11.9714  11.9956
    12.0053  12.0068  12.0627  12.0657  12.0659  12.1049  12.1083  12.1090
    12.1129  12.1134  12.1143  12.1197  12.1449  12.1450  12.1500  12.1604
    12.1720  12.1780  12.1934  12.2045  12.2172  12.2564  12.2649  12.2660
    12.2750  12.2809  12.2866  12.2885  12.2896  12.2940  12.2950  12.3220
    12.3605  12.3693  12.4379  12.4442  12.4583  12.5031  12.5266  12.5342
    12.5385  12.5472  12.5631  12.5727  12.5799  12.6132  12.6447  12.6565
    12.6577  12.6975  12.7432  12.8071  12.8489  12.8611  12.8907  12.9246
    12.9718  12.9739  13.0135  13.0227  13.1307  13.5451  13.5960  13.6186
    13.6542  13.6813  13.7028  13.9124  13.9425  13.9501  14.1078  14.1456
    14.1611  14.2207  14.4634  14.4828  14.4996  14.5645  14.7378  15.1096
    15.1253  15.1914  15.2106  15.2686  15.3678  15.4020  15.6634  15.7612
    15.7730  15.7984  15.8090  15.8118  15.8782  15.9017  15.9201  15.9649
    15.9814  15.9897  16.0000  16.0131  16.0368  16.0466  16.0641  16.1623
    16.1842  16.2006  16.2903  16.3116  16.3187  16.3231  16.3464  16.4203
    16.4865  16.4899  16.5387  16.6595  16.6716  16.6888  16.6950  16.7271
    16.7807  16.8882  16.9577  16.9787  17.3846  17.3886  17.7984  17.9273
    18.1634  18.1910  18.2048  18.2093  18.2641  18.4158  18.5293  18.5510
    18.6121  18.6362  18.6429  18.6667  18.7350  18.7902  18.7987  18.8034

          k =-0.5000-0.5000-0.5734 ( 31672 PWs)   bands (ev):

   -66.7845 -66.7631 -66.7435 -66.7392 -66.7309 -66.7265 -66.6115 -66.5822
   -66.5562 -62.4028 -62.3831 -62.3727 -62.3695 -62.3684 -62.3584 -62.3563
   -62.3442 -62.3238 -35.5364 -35.5319 -35.5258 -35.5150 -35.5094 -35.5064
   -35.5047 -35.4952 -35.4890 -35.4873 -35.4826 -35.4802 -35.4794 -35.4757
   -35.4613 -35.4555 -35.4506 -35.4433 -35.3659 -35.3560 -35.3541 -35.3481
   -35.3309 -35.3186 -35.3073 -35.2890 -35.2838 -31.2407 -31.2309 -31.2222
   -31.2152 -31.2137 -31.2134 -31.2088 -31.2057 -31.2044 -31.2029 -31.2002
   -31.1938 -31.1916 -31.1866 -31.1866 -31.1845 -31.1828 -31.1808 -31.1801
   -31.1785 -31.1729 -31.1619 -31.1600 -31.1561 -31.1495 -31.1477 -31.1435
     6.8865   6.9153   6.9199   6.9297   6.9933   7.0044   7.0296   7.0469
     8.4503   8.4582   8.4688   8.4753   8.4825   8.4864   8.4889   8.4916
     8.5014   8.5039   8.5156   8.5218   8.5372   8.5401   8.5420   8.5610
     8.5702   8.5716   8.5947   8.6073   8.8772   8.8807   8.8849   8.8864
     8.9069   8.9121   8.9255   8.9310   9.0897   9.1088   9.1104   9.1180
     9.1237   9.1447   9.1466   9.1494   9.1510   9.1544   9.1546   9.1632
     9.1635   9.1679   9.1685   9.1696   9.1721   9.1747   9.1767   9.1817
     9.1831   9.1841   9.1902   9.1910   9.1968   9.2038   9.2062   9.2187
     9.2329   9.2340   9.2404   9.2418   9.2538   9.2587   9.2614   9.2698
     9.5433   9.5442   9.5604   9.5710   9.5772   9.5830   9.6100   9.6145
     9.6477   9.6602   9.6656   9.6780   9.7191   9.7386   9.7539   9.7779
     9.8167   9.8385   9.8449   9.8504   9.8758   9.8773   9.8847   9.8955
    10.1151  10.1261  10.1399  10.1499  10.1658  10.1714  10.1779  10.1787
    10.2911  10.3052  10.4430  10.4511  10.4670  10.4675  10.4733  10.4746
    10.4844  10.4867  10.4914  10.4958  10.4992  10.5025  10.5153  10.5177
    10.5212  10.5281  10.5375  10.5472  10.5607  10.5609  10.5791  10.5843
    10.5978  10.6185  10.6319  10.6411  10.6491  10.6703  10.6783  10.6836
    10.6904  10.6912  10.7007  10.7054  10.7169  10.7209  11.0431  11.0475
    11.0592  11.0666  11.0930  11.0945  11.1098  11.1099  11.3697  11.3699
    11.3967  11.3986  11.4016  11.4256  11.4412  11.4502  11.4661  11.4712
    11.4770  11.4911  11.5008  11.5069  11.5080  11.5160  11.6381  11.6400
    11.6447  11.6468  11.6697  11.6720  11.6861  11.6879  11.7023  11.7231
    11.7247  11.7275  11.7342  11.7438  11.7753  11.7768  11.7846  11.7877
    11.7985  11.8012  11.8125  11.8286  11.8320  11.8401  11.9901  12.0067
    12.0152  12.0502  12.0579  12.0646  12.1038  12.1231  12.1313  12.1392
    12.1648  12.1864  12.2046  12.2172  12.2432  12.2690  12.2860  12.2920
    12.2951  12.3495  12.4033  12.4220  12.4279  12.4368  12.4558  12.4585
    12.4821  12.4837  12.5397  12.5572  12.5655  12.5783  12.5876  12.5934
    12.6196  12.6509  12.6795  12.6849  12.6922  12.7047  12.7157  12.7620
    12.8102  12.8408  12.9556  12.9588  13.0732  13.0821  13.1134  13.1716
    13.2473  13.2876  13.2970  13.3144  13.4115  13.4718  13.5228  13.5420
    13.6238  13.6929  13.8431  13.8706  13.8778  13.9197  14.0749  14.1134
    14.1443  14.1673  14.2285  14.6475  14.7130  14.7491  14.8455  15.0621
    15.0634  15.1758  15.2154  15.4433  15.4446  15.5817  15.6648  15.7008
    15.7020  15.7824  15.8282  15.8330  15.8692  15.9048  15.9195  15.9385
    15.9486  15.9923  16.0688  16.0712  16.1377  16.1830  16.1866  16.2068
    16.2151  16.2194  16.2344  16.2410  16.3470  16.4203  16.4571  16.4958
    16.5169  16.5226  16.5888  16.5980  16.6432  16.6759  16.6815  16.6862
    16.7725  16.8554  16.8696  16.8902  16.8963  16.9327  16.9838  17.0186
    17.0791  17.1052  17.7318  17.8075  17.8531  17.8574  19.0119  19.0178
    19.0504  19.0511  19.0630  19.0950  19.1688  19.2349  19.3004  19.3038

          k =-0.5000 0.0000 0.0000 ( 31722 PWs)   bands (ev):

   -66.7845 -66.7631 -66.7435 -66.7392 -66.7309 -66.7265 -66.6115 -66.5822
   -66.5562 -62.4028 -62.3831 -62.3727 -62.3695 -62.3684 -62.3584 -62.3563
   -62.3442 -62.3238 -35.5364 -35.5315 -35.5263 -35.5150 -35.5093 -35.5064
   -35.5047 -35.4951 -35.4890 -35.4873 -35.4826 -35.4802 -35.4795 -35.4756
   -35.4615 -35.4555 -35.4505 -35.4433 -35.3659 -35.3560 -35.3541 -35.3481
   -35.3309 -35.3186 -35.3073 -35.2890 -35.2838 -31.2407 -31.2309 -31.2222
   -31.2152 -31.2137 -31.2134 -31.2086 -31.2057 -31.2044 -31.2012 -31.2002
   -31.1969 -31.1916 -31.1866 -31.1853 -31.1845 -31.1835 -31.1808 -31.1800
   -31.1785 -31.1724 -31.1619 -31.1600 -31.1561 -31.1495 -31.1477 -31.1435
     6.0221   6.0566   7.4105   7.4495   7.4573   7.4608   7.6608   7.6843
     8.1024   8.1059   8.1299   8.1919   8.2071   8.2306   8.2399   8.2463
     8.3924   8.4449   8.4509   8.4541   8.6258   8.6329   8.6463   8.6535
     8.6663   8.6710   8.6724   8.6973   8.7606   8.7836   8.8144   8.8353
     8.8618   8.8648   8.8775   8.8787   8.9141   8.9162   8.9168   8.9183
     8.9248   8.9275   8.9353   8.9356   9.0354   9.0603   9.1596   9.1843
     9.1910   9.1987   9.2172   9.2208   9.2260   9.2273   9.3161   9.3396
     9.3623   9.3725   9.3796   9.3833   9.4771   9.4809   9.4895   9.5229
     9.5308   9.5313   9.5341   9.5756   9.5868   9.5961   9.6020   9.6049
     9.6108   9.6210   9.6281   9.6311   9.6314   9.6342   9.6360   9.6456
     9.6521   9.6626   9.6724   9.6798   9.6968   9.7144   9.7152   9.7329
     9.7401   9.7427   9.7521   9.7572   9.8971   9.9016   9.9454   9.9693
     9.9964  10.0606  10.1447  10.1854  10.2164  10.2306  10.2474  10.2491
    10.2603  10.2648  10.2680  10.2744  10.2773  10.2798  10.3439  10.3502
    10.3550  10.3711  10.3769  10.3829  10.4292  10.4352  10.4454  10.4518
    10.5253  10.5302  10.5460  10.5555  10.5636  10.5688  10.5789  10.5897
    10.5951  10.6066  10.6635  10.6644  10.7136  10.7275  10.7552  10.7736
    10.7970  10.8093  10.8231  10.8514  10.8641  10.8772  10.8862  10.9075
    10.9841  11.0065  11.0128  11.0212  11.0422  11.0982  11.1683  11.1754
    11.3430  11.3472  11.3486  11.3569  11.3742  11.3830  11.3918  11.3953
    11.4021  11.4168  11.4490  11.4810  11.4931  11.5354  11.5412  11.5434
    11.5651  11.5901  11.6067  11.6173  11.6226  11.6298  11.6788  11.6986
    11.7487  11.7673  11.7847  11.7863  11.8015  11.8148  11.8505  11.8506
    11.9034  11.9078  11.9103  11.9238  11.9369  11.9372  11.9451  11.9600
    11.9748  11.9789  11.9845  12.0140  12.0976  12.1027  12.1608  12.1697
    12.1927  12.1977  12.2062  12.2114  12.2390  12.2478  12.2563  12.2661
    12.2804  12.3311  12.3369  12.3614  12.3631  12.3705  12.3866  12.3935
    12.3956  12.4242  12.4383  12.4483  12.4583  12.4787  12.5189  12.5440
    12.5543  12.5854  12.6137  12.6486  12.6562  12.7484  12.7669  12.9004
    12.9058  12.9437  12.9671  12.9907  13.0230  13.0646  13.0836  13.1442
    13.1512  13.1604  13.1921  13.2034  13.2280  13.2405  13.2735  13.3169
    13.4366  13.4579  13.4779  13.5811  13.6237  14.4954  14.5301  14.5639
    14.6300  14.6914  14.7224  14.7799  14.8010  14.8469  14.8676  15.0064
    15.0136  15.1361  15.2988  15.3088  15.4089  15.4106  15.4580  15.5010
    15.5776  15.7314  15.7721  15.8555  15.8798  15.8840  15.9278  15.9998
    16.0149  16.0158  16.0470  16.0966  16.1054  16.1247  16.1889  16.2014
    16.2279  16.2310  16.2317  16.2736  16.2963  16.3179  16.3353  16.3761
    16.4287  16.4427  16.5236  16.6545  16.7089  16.7851  17.0194  17.0658
    17.1436  17.1913  17.2238  17.2955  17.3529  17.4105  17.6185  17.6255
    17.6771  17.7471  17.8257  17.8296  17.8644  17.8769  17.9141  17.9202
    18.0191  18.0538  18.1227  18.2396  19.2536  19.3057  19.3208  19.3820

          k =-0.5000 0.0000 0.5734 ( 31696 PWs)   bands (ev):

   -66.7845 -66.7631 -66.7435 -66.7392 -66.7309 -66.7265 -66.6115 -66.5822
   -66.5562 -62.4028 -62.3831 -62.3727 -62.3695 -62.3684 -62.3584 -62.3563
   -62.3442 -62.3238 -35.5364 -35.5315 -35.5263 -35.5150 -35.5093 -35.5064
   -35.5047 -35.4951 -35.4890 -35.4873 -35.4826 -35.4802 -35.4795 -35.4756
   -35.4615 -35.4555 -35.4505 -35.4433 -35.3659 -35.3560 -35.3541 -35.3481
   -35.3309 -35.3186 -35.3073 -35.2890 -35.2838 -31.2407 -31.2309 -31.2222
   -31.2152 -31.2137 -31.2134 -31.2086 -31.2057 -31.2044 -31.2012 -31.2002
   -31.1969 -31.1916 -31.1866 -31.1853 -31.1845 -31.1835 -31.1808 -31.1800
   -31.1785 -31.1724 -31.1619 -31.1600 -31.1561 -31.1495 -31.1477 -31.1435
     6.5187   6.5380   6.6265   6.6415   7.8340   7.8461   7.8489   7.8624
     7.9043   7.9137   7.9306   7.9426   8.2688   8.2720   8.2992   8.3006
     8.5168   8.5222   8.5276   8.5292   8.6695   8.6724   8.6800   8.6877
     8.6890   8.6939   8.7079   8.7207   8.7304   8.7314   8.7383   8.7421
     8.7511   8.7750   8.7799   8.7816   8.9478   8.9642   9.0348   9.0417
     9.0434   9.0439   9.0520   9.0542   9.1690   9.1865   9.2105   9.2157
     9.2170   9.2233   9.2332   9.2336   9.2394   9.2409   9.2455   9.2550
     9.2569   9.2576   9.2697   9.2730   9.3222   9.3546   9.3858   9.4044
     9.4148   9.4264   9.4480   9.4542   9.4590   9.4628   9.4655   9.4755
     9.5056   9.5116   9.5147   9.5243   9.5329   9.5402   9.5484   9.5547
     9.5789   9.5942   9.7515   9.7533   9.7967   9.8079   9.8097   9.8136
     9.8213   9.8329   9.8334   9.8402   9.8563   9.8608   9.8610   9.8776
     9.9492   9.9542  10.0103  10.0115  10.0284  10.0363  10.0496  10.0548
    10.3577  10.3655  10.3681  10.3713  10.3896  10.3933  10.4343  10.4367
    10.4427  10.4554  10.4615  10.4641  10.4730  10.5031  10.5180  10.5285
    10.5478  10.5501  10.5593  10.5712  10.5889  10.6061  10.6327  10.6412
    10.6516  10.6549  10.6717  10.6754  10.6889  10.6936  10.7293  10.7329
    10.7521  10.7809  10.8306  10.8402  10.9855  10.9904  11.0062  11.0126
    11.1115  11.1276  11.1510  11.1787  11.1834  11.1855  11.1931  11.1932
    11.2110  11.2112  11.3261  11.3262  11.3336  11.3393  11.3696  11.3829
    11.3837  11.3877  11.4141  11.4452  11.4452  11.4489  11.4860  11.4979
    11.5490  11.5493  11.5628  11.5683  11.5724  11.5755  11.6032  11.6277
    11.6406  11.6432  11.7347  11.7424  11.7514  11.7705  11.7837  11.8782
    11.8851  11.9068  11.9146  11.9187  11.9688  11.9751  11.9977  12.0045
    12.0091  12.0295  12.0326  12.0347  12.0353  12.0386  12.0423  12.0606
    12.1972  12.2176  12.2517  12.2570  12.2721  12.2773  12.3089  12.3317
    12.3358  12.3477  12.3695  12.3753  12.3830  12.4105  12.4441  12.4497
    12.4654  12.4743  12.4912  12.4954  12.5274  12.5357  12.5525  12.5817
    12.5963  12.6452  12.6478  12.6555  12.6645  12.6714  12.6883  12.7425
    12.7746  12.8304  12.8532  12.9393  12.9523  12.9699  12.9764  13.1546
    13.2867  13.2990  13.3930  13.4348  13.5369  13.6751  13.7153  13.8927
    13.9630  14.0155  14.0234  14.0801  14.1155  14.1574  14.1646  14.2013
    14.3051  14.5465  14.5558  14.6531  14.6787  14.7340  14.7764  15.0353
    15.0371  15.2938  15.2964  15.4165  15.4405  15.4475  15.5112  15.5727
    15.5889  15.6150  15.6582  15.6986  15.7355  15.8658  15.8848  15.9484
    15.9765  16.0973  16.1222  16.1699  16.1801  16.2016  16.2143  16.2201
    16.2826  16.2833  16.3018  16.3427  16.3885  16.3973  16.4134  16.4301
    16.4641  16.5384  16.5453  16.5817  16.5935  16.6332  16.6671  16.7242
    16.7640  16.7735  16.8362  16.8380  16.8889  16.8904  16.9510  17.0027
    17.1392  17.1611  17.2018  17.2045  18.6736  18.6781  18.6945  18.7121
    18.7432  18.7654  18.8053  18.8066  18.8686  18.8805  18.9862  19.0046

     the Fermi energy is    14.8204 ev

!    total energy              =  -33062.59190789 Ry
     Harris-Foulkes estimate   =  -33062.59188593 Ry
     estimated scf accuracy    <       0.00000097 Ry

     total all-electron energy =  -1410574.682282 Ry

     The total energy is the sum of the following terms:

     one-electron contribution =   -1645.68006613 Ry
     hartree contribution      =    1489.89633977 Ry
     xc contribution           =   -1658.73916037 Ry
     ewald contribution        =   -4919.25534656 Ry
     one-center paw contrib.   =  -26328.81367459 Ry

     total magnetization       =    -0.48 Bohr mag/cell
     absolute magnetization    =    78.61 Bohr mag/cell

     convergence has been achieved in  20 iterations

     Writing output data file mnau2.save
 
     init_run     :     52.67s CPU     53.48s WALL (       1 calls)
     electrons    :   3064.19s CPU   3116.68s WALL (       1 calls)

     Called by init_run:
     wfcinit      :     46.67s CPU     47.23s WALL (       1 calls)
     potinit      :      2.50s CPU      2.56s WALL (       1 calls)

     Called by electrons:
     c_bands      :   2732.71s CPU   2775.45s WALL (      20 calls)
     sum_band     :    278.91s CPU    285.21s WALL (      20 calls)
     v_of_rho     :      5.39s CPU      5.56s WALL (      21 calls)
     newd         :     16.99s CPU     19.40s WALL (      21 calls)
     PAW_pot      :     31.03s CPU     31.50s WALL (      21 calls)
     mix_rho      :      1.06s CPU      1.13s WALL (      20 calls)

     Called by c_bands:
     init_us_2    :     10.02s CPU     10.08s WALL (     656 calls)
     cegterg      :   2670.00s CPU   2711.80s WALL (     320 calls)

     Called by sum_band:
     sum_band:bec :      1.54s CPU      1.54s WALL (     320 calls)
     addusdens    :     30.15s CPU     32.93s WALL (      20 calls)

     Called by *egterg:
     h_psi        :    940.81s CPU    951.84s WALL (    1280 calls)
     s_psi        :    227.04s CPU    227.18s WALL (    1280 calls)
     g_psi        :      3.50s CPU      3.52s WALL (     944 calls)
     cdiaghg      :    968.72s CPU    969.24s WALL (    1264 calls)

     Called by h_psi:
     h_psi:pot    :    933.11s CPU    944.09s WALL (    1280 calls)
     h_psi:calbec :    225.39s CPU    227.79s WALL (    1280 calls)
     vloc_psi     :    481.32s CPU    489.69s WALL (    1280 calls)
     add_vuspsi   :    226.39s CPU    226.59s WALL (    1280 calls)

     General routines
     calbec       :    320.82s CPU    324.26s WALL (    1600 calls)
     fft          :      4.65s CPU      4.99s WALL (     641 calls)
     ffts         :      0.13s CPU      0.14s WALL (      82 calls)
     fftw         :    450.29s CPU    458.25s WALL (  721048 calls)
     interpolate  :      0.81s CPU      0.86s WALL (      82 calls)
 
     Parallel routines
     fft_scatt_xy :     54.78s CPU     55.58s WALL (  721771 calls)
     fft_scatt_yz :    118.71s CPU    122.21s WALL (  721771 calls)
 
     PWSCF        : 52m 2.55s CPU    53m13.94s WALL

 
   This run was terminated on:  11:43: 2   4Mar2019            

=------------------------------------------------------------------------------=
   JOB DONE.
=------------------------------------------------------------------------------=
