
     Program PWSCF v.6.2 (svn rev. 14038) starts on  8Mar2019 at  7:26:27 

     This program is part of the open-source Quantum ESPRESSO suite
     for quantum simulation of materials; please cite
         "P. Giannozzi et al., J. Phys.:Condens. Matter 21 395502 (2009);
         "P. Giannozzi et al., J. Phys.:Condens. Matter 29 465901 (2017);
          URL http://www.quantum-espresso.org", 
     in publications or presentations arising from this work. More details at
     http://www.quantum-espresso.org/quote

     Parallel version (MPI), running on    16 processors

     MPI processes distributed on     1 nodes
     R & G space division:  proc/nbgrp/npool/nimage =      16
     Waiting for input...
     Reading input from standard input

     Current dimensions of program PWSCF are:
     Max number of different atomic species (ntypx) = 10
     Max number of k-points (npk) =  40000
     Max angular momentum in pseudopotentials (lmaxx) =  3
               file Mn.pbe-spn-kjpaw_psl.0.3.1.UPF: wavefunction(s)  3P 3D renormalized
               file Mn.pbe-spn-kjpaw_psl.0.3.1.UPF: wavefunction(s)  3P 3D renormalized
               file Au.pbe-dn-kjpaw_psl.0.1.UPF: wavefunction(s)  6S 6P 5D renormalized

     Subspace diagonalization in iterative solution of the eigenvalue problem:
     a serial algorithm will be used

 
     Parallelization info
     --------------------
     sticks:   dense  smooth     PW     G-vecs:    dense   smooth      PW
     Min         736     331     90                52486    15847    2256
     Max         737     332     91                52489    15850    2259
     Sum       11785    5297   1449               839803   253559   36125
 


     bravais-lattice index     =            0
     lattice parameter (alat)  =      19.2459  a.u.
     unit-cell volume          =    6216.1497 (a.u.)^3
     number of atoms/cell      =           54
     number of atomic types    =            3
     number of electrons       =       666.00
     number of Kohn-Sham states=          400
     kinetic-energy cutoff     =      45.0000  Ry
     charge density cutoff     =     400.0000  Ry
     convergence threshold     =      1.0E-06
     mixing beta               =       0.1000
     number of iterations used =            8  plain     mixing
     Exchange-correlation      = SLA PW PBX PBC ( 1  4  3  4 0 0)

     celldm(1)=  19.245946  celldm(2)=   0.000000  celldm(3)=   0.000000
     celldm(4)=   0.000000  celldm(5)=   0.000000  celldm(6)=   0.000000

     crystal axes: (cart. coord. in units of alat)
               a(1) = (   1.000000   0.000000   0.000000 )  
               a(2) = (   0.000000   1.000000   0.000000 )  
               a(3) = (   0.000000   0.000000   0.871974 )  

     reciprocal axes: (cart. coord. in units 2 pi/alat)
               b(1) = (  1.000000  0.000000  0.000000 )  
               b(2) = (  0.000000  1.000000  0.000000 )  
               b(3) = (  0.000000  0.000000  1.146823 )  


     PseudoPot. # 1 for Mn read from file:
     ./pseudo/Mn.pbe-spn-kjpaw_psl.0.3.1.UPF
     MD5 check sum: 7eef95dd2aae66803482eea66ebeebf1
     Pseudo is Projector augmented-wave + core cor, Zval = 15.0
     Generated using "atomic" code by A. Dal Corso v.5.0.99 svn rev. 10869
     Shape of augmentation charge: PSQ
     Using radial grid of 1187 points,  6 beta functions with: 
                l(1) =   0
                l(2) =   0
                l(3) =   1
                l(4) =   1
                l(5) =   2
                l(6) =   2
     Q(r) pseudized with 0 coefficients 


     PseudoPot. # 2 for Mn read from file:
     ./pseudo/Mn.pbe-spn-kjpaw_psl.0.3.1.UPF
     MD5 check sum: 7eef95dd2aae66803482eea66ebeebf1
     Pseudo is Projector augmented-wave + core cor, Zval = 15.0
     Generated using "atomic" code by A. Dal Corso v.5.0.99 svn rev. 10869
     Shape of augmentation charge: PSQ
     Using radial grid of 1187 points,  6 beta functions with: 
                l(1) =   0
                l(2) =   0
                l(3) =   1
                l(4) =   1
                l(5) =   2
                l(6) =   2
     Q(r) pseudized with 0 coefficients 


     PseudoPot. # 3 for Au read from file:
     ./pseudo/Au.pbe-dn-kjpaw_psl.0.1.UPF
     MD5 check sum: 5c9b92683623e7ae2ab3f8e525febab6
     Pseudo is Projector augmented-wave + core cor, Zval = 11.0
     Generated using "atomic" code by A. Dal Corso v.5.0.2 svn rev. 9415
     Shape of augmentation charge: PSQ
     Using radial grid of 1279 points,  6 beta functions with: 
                l(1) =   0
                l(2) =   0
                l(3) =   1
                l(4) =   1
                l(5) =   2
                l(6) =   2
     Q(r) pseudized with 0 coefficients 


     atomic species   valence    mass     pseudopotential
        Mn1           15.00    54.93800     Mn( 1.00)
        Mn2           15.00    54.93800     Mn( 1.00)
        Au            11.00   196.96600     Au( 1.00)

     Starting magnetic structure 
     atomic species   magnetization
        Mn1          0.800
        Mn2         -0.800
        Au           0.000

      4 Sym. Ops. (no inversion) found



   Cartesian axes

     site n.     atom                  positions (alat units)
         1           Mn1 tau(   1) = (   0.0000000   0.0000000   0.0000000  )
         2           Mn2 tau(   2) = (   0.0000000   0.3333300   0.0000000  )
         3           Mn1 tau(   3) = (   0.0000000   0.6666700   0.0000000  )
         4           Mn2 tau(   4) = (   0.3333300   0.0000000   0.0000000  )
         5           Mn1 tau(   5) = (   0.3333300   0.3333300   0.0000000  )
         6           Mn2 tau(   6) = (   0.3333300   0.6666700   0.0000000  )
         7           Mn1 tau(   7) = (   0.6666700   0.0000000   0.0000000  )
         8           Mn2 tau(   8) = (   0.6666700   0.3333300   0.0000000  )
         9           Mn2 tau(   9) = (   0.6666700   0.6666700   0.0000000  )
        10           Mn2 tau(  10) = (   0.1666700   0.1666700   0.4359871  )
        11           Mn1 tau(  11) = (   0.1666700   0.5000000   0.4359871  )
        12           Mn2 tau(  12) = (   0.1666700   0.8333300   0.4359871  )
        13           Mn1 tau(  13) = (   0.5000000   0.1666700   0.4359871  )
        14           Mn2 tau(  14) = (   0.5000000   0.5000000   0.4359871  )
        15           Mn1 tau(  15) = (   0.5000000   0.8333300   0.4359871  )
        16           Mn2 tau(  16) = (   0.8333300   0.1666700   0.4359871  )
        17           Mn1 tau(  17) = (   0.8333300   0.5000000   0.4359871  )
        18           Mn1 tau(  18) = (   0.8333300   0.8333300   0.4359871  )
        19           Au  tau(  19) = (   0.1666700   0.1666700   0.7327374  )
        20           Au  tau(  20) = (   0.1666700   0.5000000   0.7327374  )
        21           Au  tau(  21) = (   0.1666700   0.8333300   0.7327374  )
        22           Au  tau(  22) = (   0.5000000   0.1666700   0.7327374  )
        23           Au  tau(  23) = (   0.5000000   0.5000000   0.7327374  )
        24           Au  tau(  24) = (   0.5000000   0.8333300   0.7327374  )
        25           Au  tau(  25) = (   0.8333300   0.1666700   0.7327374  )
        26           Au  tau(  26) = (   0.8333300   0.5000000   0.7327374  )
        27           Au  tau(  27) = (   0.8333300   0.8333300   0.7327374  )
        28           Au  tau(  28) = (   0.1666700   0.1666700   0.1392369  )
        29           Au  tau(  29) = (   0.1666700   0.5000000   0.1392369  )
        30           Au  tau(  30) = (   0.1666700   0.8333300   0.1392369  )
        31           Au  tau(  31) = (   0.5000000   0.1666700   0.1392369  )
        32           Au  tau(  32) = (   0.5000000   0.5000000   0.1392369  )
        33           Au  tau(  33) = (   0.5000000   0.8333300   0.1392369  )
        34           Au  tau(  34) = (   0.8333300   0.1666700   0.1392369  )
        35           Au  tau(  35) = (   0.8333300   0.5000000   0.1392369  )
        36           Au  tau(  36) = (   0.8333300   0.8333300   0.1392369  )
        37           Au  tau(  37) = (   0.0000000   0.0000000   0.2967503  )
        38           Au  tau(  38) = (   0.0000000   0.3333300   0.2967503  )
        39           Au  tau(  39) = (   0.0000000   0.6666700   0.2967503  )
        40           Au  tau(  40) = (   0.3333300   0.0000000   0.2967503  )
        41           Au  tau(  41) = (   0.3333300   0.3333300   0.2967503  )
        42           Au  tau(  42) = (   0.3333300   0.6666700   0.2967503  )
        43           Au  tau(  43) = (   0.6666700   0.0000000   0.2967503  )
        44           Au  tau(  44) = (   0.6666700   0.3333300   0.2967503  )
        45           Au  tau(  45) = (   0.6666700   0.6666700   0.2967503  )
        46           Au  tau(  46) = (   0.0000000   0.0000000   0.5752240  )
        47           Au  tau(  47) = (   0.0000000   0.3333300   0.5752240  )
        48           Au  tau(  48) = (   0.0000000   0.6666700   0.5752240  )
        49           Au  tau(  49) = (   0.3333300   0.0000000   0.5752240  )
        50           Au  tau(  50) = (   0.3333300   0.3333300   0.5752240  )
        51           Au  tau(  51) = (   0.3333300   0.6666700   0.5752240  )
        52           Au  tau(  52) = (   0.6666700   0.0000000   0.5752240  )
        53           Au  tau(  53) = (   0.6666700   0.3333300   0.5752240  )
        54           Au  tau(  54) = (   0.6666700   0.6666700   0.5752240  )

     number of k points=     6 (tetrahedron method)
                       cart. coord. in units 2pi/alat
        k(    1) = (   0.0000000   0.0000000   0.0000000), wk =   0.1250000
        k(    2) = (   0.0000000   0.0000000  -0.5734114), wk =   0.1250000
        k(    3) = (   0.0000000  -0.5000000   0.0000000), wk =   0.2500000
        k(    4) = (   0.0000000  -0.5000000  -0.5734114), wk =   0.2500000
        k(    5) = (  -0.5000000  -0.5000000   0.0000000), wk =   0.1250000
        k(    6) = (  -0.5000000  -0.5000000  -0.5734114), wk =   0.1250000

     Dense  grid:   839803 G-vectors     FFT dimensions: ( 125, 125, 108)

     Smooth grid:   253559 G-vectors     FFT dimensions: (  90,  90,  72)

     Estimated max dynamical RAM per process >     521.79 MB

     Estimated total dynamical RAM >       8.15 GB
     Generating pointlists ...
     new r_m :   0.1129 (alat units)  2.1733 (a.u.) for type    1
     new r_m :   0.1129 (alat units)  2.1733 (a.u.) for type    2
     new r_m :   0.1129 (alat units)  2.1733 (a.u.) for type    3

     Check: negative/imaginary core charge=   -0.000006    0.000000

     Initial potential from superposition of free atoms

     starting charge  665.98709, renormalised to  666.00000
     Starting wfc are  504 randomized atomic wfcs
     Checking if some PAW data can be deallocated... 

     total cpu time spent up to now is       32.6 secs

     Self-consistent Calculation

     iteration #  1     ecut=    45.00 Ry     beta= 0.10
     Davidson diagonalization with overlap
     ethr =  1.00E-02,  avg # of iterations =  3.6

     total cpu time spent up to now is      123.5 secs

     total energy              =  -33047.22844062 Ry
     Harris-Foulkes estimate   =  -33044.09181408 Ry
     estimated scf accuracy    <      26.96047552 Ry

     total magnetization       =     0.04 Bohr mag/cell
     absolute magnetization    =    92.05 Bohr mag/cell

     iteration #  2     ecut=    45.00 Ry     beta= 0.10
     Davidson diagonalization with overlap
     ethr =  4.05E-03,  avg # of iterations =  1.0

     total cpu time spent up to now is      183.9 secs

     total energy              =  -33058.54544437 Ry
     Harris-Foulkes estimate   =  -33047.40585633 Ry
     estimated scf accuracy    <      21.31505482 Ry

     total magnetization       =     0.04 Bohr mag/cell
     absolute magnetization    =    91.68 Bohr mag/cell

     iteration #  3     ecut=    45.00 Ry     beta= 0.10
     Davidson diagonalization with overlap
     ethr =  3.20E-03,  avg # of iterations =  2.2

     total cpu time spent up to now is      257.1 secs

     total energy              =  -33066.22176776 Ry
     Harris-Foulkes estimate   =  -33061.31189325 Ry
     estimated scf accuracy    <       8.83286453 Ry

     total magnetization       =     0.00 Bohr mag/cell
     absolute magnetization    =    85.75 Bohr mag/cell

     iteration #  4     ecut=    45.00 Ry     beta= 0.10
     Davidson diagonalization with overlap
     ethr =  1.33E-03,  avg # of iterations =  4.5

     total cpu time spent up to now is      369.9 secs

     total energy              =  -33058.28920049 Ry
     Harris-Foulkes estimate   =  -33068.97649347 Ry
     estimated scf accuracy    <      52.89263074 Ry

     total magnetization       =     0.01 Bohr mag/cell
     absolute magnetization    =    71.81 Bohr mag/cell

     iteration #  5     ecut=    45.00 Ry     beta= 0.10
     Davidson diagonalization with overlap
     ethr =  1.33E-03,  avg # of iterations =  4.4

     total cpu time spent up to now is      497.6 secs

     total energy              =  -33062.03512538 Ry
     Harris-Foulkes estimate   =  -33062.44527854 Ry
     estimated scf accuracy    <       3.00753087 Ry

     total magnetization       =     0.09 Bohr mag/cell
     absolute magnetization    =    83.56 Bohr mag/cell

     iteration #  6     ecut=    45.00 Ry     beta= 0.10
     Davidson diagonalization with overlap
     ethr =  4.52E-04,  avg # of iterations =  3.5

     total cpu time spent up to now is      582.8 secs

     total energy              =  -33062.53403258 Ry
     Harris-Foulkes estimate   =  -33062.55939284 Ry
     estimated scf accuracy    <       0.30828793 Ry

     total magnetization       =     0.40 Bohr mag/cell
     absolute magnetization    =    78.89 Bohr mag/cell

     iteration #  7     ecut=    45.00 Ry     beta= 0.10
     Davidson diagonalization with overlap
     ethr =  4.63E-05,  avg # of iterations =  4.4

     total cpu time spent up to now is      673.6 secs

     total energy              =  -33062.57615852 Ry
     Harris-Foulkes estimate   =  -33062.56085173 Ry
     estimated scf accuracy    <       0.08789846 Ry

     total magnetization       =     0.47 Bohr mag/cell
     absolute magnetization    =    78.57 Bohr mag/cell

     iteration #  8     ecut=    45.00 Ry     beta= 0.10
     Davidson diagonalization with overlap
     ethr =  1.32E-05,  avg # of iterations =  4.8

     total cpu time spent up to now is      773.8 secs

     total energy              =  -33062.56088099 Ry
     Harris-Foulkes estimate   =  -33062.59773757 Ry
     estimated scf accuracy    <       0.36062738 Ry

     total magnetization       =     0.45 Bohr mag/cell
     absolute magnetization    =    78.07 Bohr mag/cell

     iteration #  9     ecut=    45.00 Ry     beta= 0.10
     Davidson diagonalization with overlap
     ethr =  1.32E-05,  avg # of iterations =  2.1

     total cpu time spent up to now is      842.8 secs

     total energy              =  -33062.56080345 Ry
     Harris-Foulkes estimate   =  -33062.57020380 Ry
     estimated scf accuracy    <       0.11045715 Ry

     total magnetization       =     0.48 Bohr mag/cell
     absolute magnetization    =    78.18 Bohr mag/cell

     iteration # 10     ecut=    45.00 Ry     beta= 0.10
     Davidson diagonalization with overlap
     ethr =  1.32E-05,  avg # of iterations =  1.8

     total cpu time spent up to now is      908.3 secs

     total energy              =  -33062.55751937 Ry
     Harris-Foulkes estimate   =  -33062.56530706 Ry
     estimated scf accuracy    <       0.03749699 Ry

     total magnetization       =     0.53 Bohr mag/cell
     absolute magnetization    =    78.47 Bohr mag/cell

     iteration # 11     ecut=    45.00 Ry     beta= 0.10
     Davidson diagonalization with overlap
     ethr =  5.63E-06,  avg # of iterations =  3.8

     total cpu time spent up to now is      994.1 secs

     total energy              =  -33062.56237217 Ry
     Harris-Foulkes estimate   =  -33062.56255862 Ry
     estimated scf accuracy    <       0.00342458 Ry

     total magnetization       =     0.56 Bohr mag/cell
     absolute magnetization    =    78.64 Bohr mag/cell

     iteration # 12     ecut=    45.00 Ry     beta= 0.10
     Davidson diagonalization with overlap
     ethr =  5.14E-07,  avg # of iterations =  3.3

     total cpu time spent up to now is     1080.4 secs

     total energy              =  -33062.56426424 Ry
     Harris-Foulkes estimate   =  -33062.56339045 Ry
     estimated scf accuracy    <       0.00698673 Ry

     total magnetization       =     0.57 Bohr mag/cell
     absolute magnetization    =    78.56 Bohr mag/cell

     iteration # 13     ecut=    45.00 Ry     beta= 0.10
     Davidson diagonalization with overlap
     ethr =  5.14E-07,  avg # of iterations =  2.0

     total cpu time spent up to now is     1154.5 secs

     total energy              =  -33062.56505067 Ry
     Harris-Foulkes estimate   =  -33062.56484483 Ry
     estimated scf accuracy    <       0.00039639 Ry

     total magnetization       =     0.59 Bohr mag/cell
     absolute magnetization    =    78.36 Bohr mag/cell

     iteration # 14     ecut=    45.00 Ry     beta= 0.10
     Davidson diagonalization with overlap
     ethr =  5.95E-08,  avg # of iterations =  3.7

     total cpu time spent up to now is     1236.6 secs

     total energy              =  -33062.56530275 Ry
     Harris-Foulkes estimate   =  -33062.56508883 Ry
     estimated scf accuracy    <       0.00018643 Ry

     total magnetization       =     0.59 Bohr mag/cell
     absolute magnetization    =    78.34 Bohr mag/cell

     iteration # 15     ecut=    45.00 Ry     beta= 0.10
     Davidson diagonalization with overlap
     ethr =  2.80E-08,  avg # of iterations =  2.1

     total cpu time spent up to now is     1305.1 secs

     total energy              =  -33062.56551310 Ry
     Harris-Foulkes estimate   =  -33062.56531528 Ry
     estimated scf accuracy    <       0.00011794 Ry

     total magnetization       =     0.60 Bohr mag/cell
     absolute magnetization    =    78.33 Bohr mag/cell

     iteration # 16     ecut=    45.00 Ry     beta= 0.10
     Davidson diagonalization with overlap
     ethr =  1.77E-08,  avg # of iterations =  2.3

     total cpu time spent up to now is     1381.0 secs

     total energy              =  -33062.56560541 Ry
     Harris-Foulkes estimate   =  -33062.56551610 Ry
     estimated scf accuracy    <       0.00004916 Ry

     total magnetization       =     0.61 Bohr mag/cell
     absolute magnetization    =    78.30 Bohr mag/cell

     iteration # 17     ecut=    45.00 Ry     beta= 0.10
     Davidson diagonalization with overlap
     ethr =  7.38E-09,  avg # of iterations =  3.1

     total cpu time spent up to now is     1470.9 secs

     total energy              =  -33062.56562026 Ry
     Harris-Foulkes estimate   =  -33062.56559341 Ry
     estimated scf accuracy    <       0.00001318 Ry

     total magnetization       =     0.61 Bohr mag/cell
     absolute magnetization    =    78.26 Bohr mag/cell

     iteration # 18     ecut=    45.00 Ry     beta= 0.10
     Davidson diagonalization with overlap
     ethr =  1.98E-09,  avg # of iterations =  2.8

     total cpu time spent up to now is     1553.8 secs

     total energy              =  -33062.56562471 Ry
     Harris-Foulkes estimate   =  -33062.56561348 Ry
     estimated scf accuracy    <       0.00000529 Ry

     total magnetization       =     0.62 Bohr mag/cell
     absolute magnetization    =    78.25 Bohr mag/cell

     iteration # 19     ecut=    45.00 Ry     beta= 0.10
     Davidson diagonalization with overlap
     ethr =  7.95E-10,  avg # of iterations =  2.3

     total cpu time spent up to now is     1626.1 secs

     total energy              =  -33062.56563043 Ry
     Harris-Foulkes estimate   =  -33062.56562283 Ry
     estimated scf accuracy    <       0.00000300 Ry

     total magnetization       =     0.62 Bohr mag/cell
     absolute magnetization    =    78.25 Bohr mag/cell

     iteration # 20     ecut=    45.00 Ry     beta= 0.10
     Davidson diagonalization with overlap
     ethr =  4.50E-10,  avg # of iterations =  2.8

     total cpu time spent up to now is     1716.0 secs

     total energy              =  -33062.56563643 Ry
     Harris-Foulkes estimate   =  -33062.56563177 Ry
     estimated scf accuracy    <       0.00000113 Ry

     total magnetization       =     0.62 Bohr mag/cell
     absolute magnetization    =    78.24 Bohr mag/cell

     iteration # 21     ecut=    45.00 Ry     beta= 0.10
     Davidson diagonalization with overlap
     ethr =  1.69E-10,  avg # of iterations =  2.2
 
     Magnetic moment per site:
     atom:    1    charge:   13.5802    magn:    3.9769    constr:    0.0000
     atom:    2    charge:   13.5830    magn:   -3.9472    constr:    0.0000
     atom:    3    charge:   13.5740    magn:    4.0431    constr:    0.0000
     atom:    4    charge:   13.5830    magn:   -3.9472    constr:    0.0000
     atom:    5    charge:   13.5721    magn:    4.0809    constr:    0.0000
     atom:    6    charge:   13.5778    magn:   -3.9827    constr:    0.0000
     atom:    7    charge:   13.5740    magn:    4.0431    constr:    0.0000
     atom:    8    charge:   13.5778    magn:   -3.9827    constr:    0.0000
     atom:    9    charge:   13.5694    magn:   -4.0240    constr:    0.0000
     atom:   10    charge:   13.5809    magn:   -3.9513    constr:    0.0000
     atom:   11    charge:   13.5727    magn:    4.0483    constr:    0.0000
     atom:   12    charge:   13.5742    magn:   -4.0352    constr:    0.0000
     atom:   13    charge:   13.5727    magn:    4.0483    constr:    0.0000
     atom:   14    charge:   13.5810    magn:   -3.9694    constr:    0.0000
     atom:   15    charge:   13.5799    magn:    3.9688    constr:    0.0000
     atom:   16    charge:   13.5742    magn:   -4.0352    constr:    0.0000
     atom:   17    charge:   13.5799    magn:    3.9688    constr:    0.0000
     atom:   18    charge:   13.5746    magn:    4.0158    constr:    0.0000
     atom:   19    charge:    9.1217    magn:   -0.0081    constr:    0.0000
     atom:   20    charge:    9.1208    magn:    0.0154    constr:    0.0000
     atom:   21    charge:    9.1209    magn:   -0.0062    constr:    0.0000
     atom:   22    charge:    9.1208    magn:    0.0154    constr:    0.0000
     atom:   23    charge:    9.1194    magn:   -0.0291    constr:    0.0000
     atom:   24    charge:    9.1200    magn:   -0.0150    constr:    0.0000
     atom:   25    charge:    9.1209    magn:   -0.0062    constr:    0.0000
     atom:   26    charge:    9.1200    magn:   -0.0150    constr:    0.0000
     atom:   27    charge:    9.1214    magn:    0.0473    constr:    0.0000
     atom:   28    charge:    9.1217    magn:   -0.0081    constr:    0.0000
     atom:   29    charge:    9.1208    magn:    0.0154    constr:    0.0000
     atom:   30    charge:    9.1209    magn:   -0.0062    constr:    0.0000
     atom:   31    charge:    9.1208    magn:    0.0154    constr:    0.0000
     atom:   32    charge:    9.1194    magn:   -0.0291    constr:    0.0000
     atom:   33    charge:    9.1200    magn:   -0.0150    constr:    0.0000
     atom:   34    charge:    9.1209    magn:   -0.0062    constr:    0.0000
     atom:   35    charge:    9.1200    magn:   -0.0150    constr:    0.0000
     atom:   36    charge:    9.1214    magn:    0.0473    constr:    0.0000
     atom:   37    charge:    9.1213    magn:   -0.0137    constr:    0.0000
     atom:   38    charge:    9.1196    magn:   -0.0000    constr:    0.0000
     atom:   39    charge:    9.1208    magn:    0.0447    constr:    0.0000
     atom:   40    charge:    9.1196    magn:   -0.0000    constr:    0.0000
     atom:   41    charge:    9.1213    magn:    0.0142    constr:    0.0000
     atom:   42    charge:    9.1210    magn:   -0.0112    constr:    0.0000
     atom:   43    charge:    9.1208    magn:    0.0447    constr:    0.0000
     atom:   44    charge:    9.1210    magn:   -0.0112    constr:    0.0000
     atom:   45    charge:    9.1206    magn:    0.0183    constr:    0.0000
     atom:   46    charge:    9.1213    magn:   -0.0137    constr:    0.0000
     atom:   47    charge:    9.1196    magn:   -0.0000    constr:    0.0000
     atom:   48    charge:    9.1208    magn:    0.0447    constr:    0.0000
     atom:   49    charge:    9.1196    magn:   -0.0000    constr:    0.0000
     atom:   50    charge:    9.1213    magn:    0.0142    constr:    0.0000
     atom:   51    charge:    9.1210    magn:   -0.0112    constr:    0.0000
     atom:   52    charge:    9.1208    magn:    0.0447    constr:    0.0000
     atom:   53    charge:    9.1210    magn:   -0.0112    constr:    0.0000
     atom:   54    charge:    9.1206    magn:    0.0183    constr:    0.0000

     total cpu time spent up to now is     1788.1 secs

     End of self-consistent calculation

 ------ SPIN UP ------------


          k = 0.0000 0.0000 0.0000 ( 31747 PWs)   bands (ev):

   -66.7233 -66.7233 -66.7054 -66.7039 -66.7039 -66.6992 -66.6364 -66.6364
   -66.6348 -62.4503 -62.3714 -62.3714 -62.3644 -62.3576 -62.3576 -62.3422
   -62.3422 -62.3230 -35.5156 -35.5156 -35.4918 -35.4918 -35.4890 -35.4754
   -35.4689 -35.4688 -35.4663 -35.4419 -35.4418 -35.4415 -35.4299 -35.4166
   -35.4165 -35.4114 -35.4113 -35.4019 -35.3928 -35.3927 -35.3920 -35.3919
   -35.3832 -35.3774 -35.3543 -35.3543 -35.3508 -31.2916 -31.2765 -31.2533
   -31.2343 -31.2343 -31.2246 -31.1957 -31.1948 -31.1867 -31.1867 -31.1839
   -31.1834 -31.1802 -31.1801 -31.1777 -31.1730 -31.1729 -31.1726 -31.1725
   -31.1696 -31.1681 -31.1679 -31.1641 -31.1473 -31.1460 -31.1460 -31.1281
     5.6113   7.1307   7.1382   7.2127   7.2200   7.3604   7.8486   7.8832
     7.8889   7.9612   8.0794   8.0800   8.1505   8.1731   8.1814   8.2572
     8.2599   8.2845   8.2874   8.5149   8.5425   8.5560   8.5722   8.5922
     8.6283   8.8583   8.8615   8.8681   8.8797   8.8816   8.8818   8.8825
     8.8865   8.8955   8.9114   8.9151   8.9309   8.9435   8.9681   8.9727
     8.9788   9.0810   9.1183   9.1246   9.1249   9.1345   9.1531   9.1637
     9.1801   9.1955   9.2168   9.2710   9.2869   9.2883   9.3077   9.3260
     9.3435   9.3544   9.3649   9.3696   9.3909   9.4008   9.4039   9.4376
     9.4468   9.4496   9.4502   9.4565   9.4661   9.4672   9.4705   9.5754
     9.5768   9.5876   9.5913   9.6197   9.6219   9.6533   9.6664   9.6682
     9.6690   9.6732   9.6746   9.7396   9.7502   9.7687   9.7824   9.8458
     9.8499   9.9127   9.9192   9.9284   9.9390   9.9439  10.0104  10.0376
    10.0522  10.1087  10.1147  10.2112  10.2699  10.2839  10.2916  10.2936
    10.3036  10.3069  10.3127  10.3205  10.3235  10.3265  10.3270  10.3352
    10.3423  10.3434  10.3637  10.3647  10.3670  10.3694  10.3781  10.3815
    10.3998  10.5045  10.5150  10.5170  10.6010  10.6156  10.6216  10.6341
    10.6947  10.7764  10.7874  10.8049  10.8097  10.8133  10.8431  10.8445
    10.8556  10.8637  10.8682  10.8741  10.8768  10.8828  10.8846  10.8974
    10.9087  10.9089  11.0268  11.0283  11.0346  11.0684  11.0731  11.1330
    11.2090  11.2157  11.2282  11.2334  11.2649  11.2746  11.3201  11.3248
    11.3918  11.3937  11.3960  11.3981  11.4078  11.4302  11.4387  11.4392
    11.4858  11.5603  11.5636  11.5873  11.5904  11.5921  11.5976  11.6009
    11.6391  11.6527  11.6856  11.7224  11.7232  11.7483  11.7507  11.7536
    11.8190  11.8534  11.8555  11.8684  11.8784  11.9337  11.9347  11.9427
    11.9453  11.9699  12.0974  12.0982  12.1031  12.1032  12.1352  12.1432
    12.1449  12.1476  12.1482  12.1548  12.1628  12.1718  12.1974  12.1979
    12.2180  12.2437  12.2560  12.2780  12.3094  12.3364  12.3768  12.4235
    12.4275  12.4334  12.4363  12.4484  12.4934  12.5184  12.5259  12.5343
    12.5382  12.5572  12.5626  12.5673  12.5726  12.6239  12.6637  12.6985
    12.7272  12.7283  12.7303  12.8390  12.8417  12.8649  12.9413  13.0052
    13.0415  13.0752  13.1401  13.1856  13.4814  13.5435  13.7532  13.7859
    14.0677  14.1761  14.1805  14.1915  14.2675  14.4109  14.4320  14.4438
    14.6739  14.8432  14.8869  15.0105  15.0123  15.0976  15.2413  15.2696
    15.2906  15.2940  15.3436  15.3447  15.3564  15.3805  15.4797  15.5445
    15.5540  15.5699  15.6638  15.7996  15.8431  15.9018  15.9849  15.9984
    16.0208  16.0359  16.1041  16.1145  16.1370  16.1797  16.1970  16.2238
    16.2313  16.2627  16.2750  16.2829  16.3357  16.3456  16.3668  16.3941
    16.4279  16.5083  16.5533  16.6634  16.6887  16.6891  16.7092  16.9250
    16.9542  17.0268  17.1505  17.1693  17.1940  17.2097  17.2782  17.3221
    17.4608  17.5012  17.7848  17.8827  17.9330  17.9449  17.9755  17.9948
    18.2879  18.2993  18.4935  18.9013  19.0318  19.0331  19.1583  19.1961

          k = 0.0000 0.0000-0.5734 ( 31692 PWs)   bands (ev):

   -66.7233 -66.7233 -66.7054 -66.7039 -66.7039 -66.6992 -66.6364 -66.6364
   -66.6348 -62.4503 -62.3714 -62.3714 -62.3644 -62.3576 -62.3576 -62.3422
   -62.3422 -62.3230 -35.5156 -35.5156 -35.4918 -35.4918 -35.4890 -35.4754
   -35.4689 -35.4688 -35.4663 -35.4419 -35.4418 -35.4415 -35.4299 -35.4166
   -35.4165 -35.4114 -35.4113 -35.4019 -35.3928 -35.3927 -35.3920 -35.3919
   -35.3832 -35.3774 -35.3543 -35.3543 -35.3508 -31.2916 -31.2765 -31.2533
   -31.2343 -31.2343 -31.2246 -31.1957 -31.1948 -31.1867 -31.1867 -31.1839
   -31.1834 -31.1802 -31.1801 -31.1777 -31.1730 -31.1729 -31.1726 -31.1725
   -31.1696 -31.1681 -31.1679 -31.1641 -31.1473 -31.1460 -31.1460 -31.1281
     6.1718   6.1904   7.5223   7.5422   7.5451   7.5522   7.6012   7.6072
     7.6217   7.6360   8.3014   8.3169   8.3249   8.3365   8.3409   8.3499
     8.3904   8.3978   8.4583   8.4655   8.4704   8.4704   8.4872   8.4941
     8.5214   8.5237   8.6911   8.6989   8.7611   8.7785   8.9404   8.9531
     8.9675   8.9695   8.9719   8.9902   8.9939   9.0121   9.0141   9.0184
     9.0228   9.0369   9.0380   9.0386   9.0690   9.0768   9.2157   9.2184
     9.2327   9.2382   9.2475   9.2498   9.2579   9.2659   9.2706   9.2770
     9.2791   9.2806   9.2864   9.2928   9.2941   9.2946   9.4121   9.4203
     9.4229   9.4244   9.4394   9.4399   9.4622   9.4631   9.4742   9.4773
     9.4784   9.4805   9.4985   9.5111   9.5156   9.5222   9.6331   9.6596
     9.7728   9.7797   9.7854   9.7903   9.8240   9.8256   9.8304   9.8406
     9.8719   9.8725   9.8815   9.8825   9.8832   9.8834   9.8888   9.8908
    10.0562  10.0583  10.0585  10.0612  10.1484  10.1572  10.1573  10.1631
    10.1658  10.1706  10.1740  10.1886  10.1905  10.1965  10.3550  10.3558
    10.3724  10.3780  10.3967  10.4050  10.4071  10.4198  10.4821  10.5069
    10.5806  10.5829  10.6000  10.6018  10.6181  10.6254  10.6276  10.6511
    10.6577  10.6666  10.7353  10.7545  10.7701  10.8066  10.8167  10.8604
    10.9165  10.9327  10.9375  10.9489  10.9516  10.9604  11.0431  11.0882
    11.0892  11.1089  11.1348  11.1423  11.1719  11.1849  11.1987  11.2272
    11.2430  11.2442  11.2453  11.2570  11.2658  11.2669  11.2701  11.2779
    11.2799  11.2818  11.2823  11.2890  11.2934  11.2965  11.2973  11.3033
    11.3035  11.3174  11.3183  11.3244  11.5191  11.5297  11.7104  11.7122
    11.7135  11.7142  11.7144  11.7186  11.7319  11.7337  11.7382  11.7466
    11.7482  11.7521  11.7624  11.7755  11.7862  11.8502  11.8879  11.9208
    11.9736  11.9852  12.0088  12.0145  12.0246  12.0351  12.0668  12.0826
    12.0836  12.1445  12.1542  12.2288  12.2570  12.2577  12.2683  12.4224
    12.4400  12.4426  12.4560  12.4658  12.4744  12.4760  12.4879  12.4982
    12.5128  12.5154  12.5312  12.5421  12.5522  12.6111  12.6116  12.6200
    12.6244  12.6505  12.6512  12.6993  12.7603  12.7684  12.7937  12.8174
    12.8337  12.8630  12.9679  13.0239  13.1213  13.1784  13.1926  13.2466
    13.2566  13.3185  13.4058  13.4535  13.4635  13.5055  13.7158  13.7317
    13.7609  13.8984  14.0132  14.0667  14.0786  14.2553  14.3820  14.5451
    14.7194  14.8354  14.8600  14.9760  15.0021  15.0116  15.0325  15.0681
    15.0941  15.1672  15.1809  15.2094  15.2331  15.3567  15.4399  15.5842
    15.7250  15.7373  15.7376  15.7498  15.8014  15.9231  15.9322  15.9766
    16.0468  16.0587  16.1276  16.1348  16.1365  16.1446  16.1718  16.1792
    16.1907  16.2079  16.2234  16.2308  16.2430  16.2539  16.2826  16.2885
    16.4203  16.4501  16.5547  16.5875  16.6082  16.6290  16.7425  16.7606
    16.7685  16.7969  17.3529  17.4010  17.4047  17.4412  17.5592  17.5614
    17.5831  17.6086  17.7278  17.7454  17.7637  17.7659  17.7734  17.8159
    17.8288  17.8464  18.0940  18.1325  18.1827  18.2366  18.2898  18.3404

          k = 0.0000-0.5000 0.0000 ( 31722 PWs)   bands (ev):

   -66.7233 -66.7233 -66.7054 -66.7039 -66.7039 -66.6992 -66.6364 -66.6364
   -66.6348 -62.4503 -62.3714 -62.3714 -62.3644 -62.3576 -62.3576 -62.3422
   -62.3422 -62.3230 -35.5156 -35.5156 -35.4918 -35.4918 -35.4890 -35.4754
   -35.4689 -35.4688 -35.4663 -35.4419 -35.4418 -35.4415 -35.4299 -35.4166
   -35.4165 -35.4114 -35.4113 -35.4019 -35.3928 -35.3927 -35.3920 -35.3919
   -35.3832 -35.3774 -35.3543 -35.3543 -35.3508 -31.2916 -31.2765 -31.2533
   -31.2343 -31.2343 -31.2246 -31.1957 -31.1948 -31.1867 -31.1867 -31.1839
   -31.1834 -31.1802 -31.1801 -31.1777 -31.1730 -31.1729 -31.1726 -31.1725
   -31.1696 -31.1681 -31.1679 -31.1641 -31.1473 -31.1460 -31.1460 -31.1281
     6.0261   6.0513   7.4038   7.4334   7.4673   7.4756   7.6701   7.6733
     8.1032   8.1096   8.1230   8.1319   8.2140   8.2255   8.2553   8.2807
     8.3992   8.4342   8.4524   8.4656   8.6255   8.6289   8.6496   8.6530
     8.6534   8.6739   8.6772   8.6856   8.7825   8.8047   8.8164   8.8230
     8.8458   8.8626   8.8745   8.8884   8.8918   8.9007   8.9025   8.9213
     8.9289   8.9341   8.9359   8.9508   9.0434   9.0467   9.1524   9.1631
     9.1742   9.2002   9.2148   9.2195   9.2326   9.2508   9.3072   9.3210
     9.3411   9.3622   9.3925   9.4276   9.4680   9.4773   9.4920   9.5178
     9.5327   9.5387   9.5441   9.5613   9.5893   9.5990   9.6100   9.6177
     9.6231   9.6235   9.6274   9.6318   9.6321   9.6344   9.6345   9.6373
     9.6635   9.6685   9.6734   9.6870   9.6990   9.7089   9.7121   9.7256
     9.7334   9.7359   9.7566   9.7757   9.8877   9.8988   9.9286   9.9499
    10.0154  10.0238  10.1562  10.1795  10.2002  10.2043  10.2358  10.2448
    10.2514  10.2665  10.2708  10.2774  10.2803  10.2875  10.3381  10.3575
    10.3739  10.3767  10.3824  10.3824  10.4235  10.4364  10.4562  10.4655
    10.5102  10.5138  10.5270  10.5536  10.5542  10.5600  10.5710  10.5720
    10.6117  10.6462  10.6686  10.6953  10.7019  10.7211  10.7217  10.7261
    10.8128  10.8313  10.8337  10.8419  10.8592  10.8691  10.9247  10.9367
    10.9854  10.9996  11.0088  11.0192  11.0398  11.0480  11.1701  11.1779
    11.2816  11.3424  11.3443  11.3532  11.3603  11.3669  11.3729  11.3919
    11.3930  11.4071  11.4267  11.4578  11.4830  11.5139  11.5489  11.5855
    11.5969  11.5986  11.6372  11.6533  11.6578  11.6679  11.6777  11.7408
    11.7625  11.7819  11.7873  11.8180  11.8318  11.8382  11.8465  11.8545
    11.8690  11.8786  11.8998  11.9010  11.9189  11.9201  11.9344  11.9466
    11.9553  11.9692  11.9784  11.9854  12.0619  12.0936  12.1209  12.1472
    12.1857  12.1954  12.2050  12.2079  12.2215  12.2281  12.2516  12.2714
    12.2813  12.3038  12.3086  12.3655  12.3750  12.3884  12.3945  12.4279
    12.4603  12.4682  12.4834  12.4888  12.5111  12.5231  12.5311  12.5620
    12.5727  12.5783  12.5983  12.6267  12.6750  12.6956  12.7298  12.8349
    12.8549  12.8747  12.9804  13.0280  13.0323  13.0807  13.0850  13.1139
    13.1704  13.1772  13.1897  13.2410  13.2643  13.2816  13.3235  13.3390
    13.4372  13.5344  13.5578  13.6074  13.6353  14.4441  14.4752  14.5828
    14.6563  14.6725  14.6844  14.7742  14.8271  14.8582  14.8757  14.9798
    15.0563  15.1087  15.1708  15.2401  15.2700  15.4097  15.4917  15.5602
    15.7046  15.7076  15.8043  15.8159  15.8869  15.9371  15.9574  16.0270
    16.0537  16.0810  16.0810  16.1056  16.1194  16.1368  16.1508  16.1859
    16.2301  16.2414  16.2546  16.2582  16.2685  16.2823  16.3024  16.3842
    16.4531  16.4921  16.5306  16.6113  16.6449  16.7281  16.9759  17.0469
    17.1586  17.2166  17.2440  17.3274  17.4021  17.4415  17.6170  17.6302
    17.7058  17.7450  17.8100  17.8197  17.8656  17.8893  17.9038  17.9296
    17.9398  18.1074  18.1505  18.2051  19.2523  19.2733  19.3401  19.3539

          k = 0.0000-0.5000-0.5734 ( 31696 PWs)   bands (ev):

   -66.7233 -66.7233 -66.7054 -66.7039 -66.7039 -66.6992 -66.6364 -66.6364
   -66.6348 -62.4503 -62.3714 -62.3714 -62.3644 -62.3576 -62.3576 -62.3422
   -62.3422 -62.3230 -35.5156 -35.5156 -35.4918 -35.4918 -35.4890 -35.4754
   -35.4689 -35.4688 -35.4663 -35.4419 -35.4418 -35.4415 -35.4299 -35.4166
   -35.4165 -35.4114 -35.4113 -35.4019 -35.3928 -35.3927 -35.3920 -35.3919
   -35.3832 -35.3774 -35.3543 -35.3543 -35.3508 -31.2916 -31.2765 -31.2533
   -31.2343 -31.2343 -31.2246 -31.1957 -31.1948 -31.1867 -31.1867 -31.1839
   -31.1834 -31.1802 -31.1801 -31.1777 -31.1730 -31.1729 -31.1726 -31.1725
   -31.1696 -31.1681 -31.1679 -31.1641 -31.1473 -31.1460 -31.1460 -31.1281
     6.5531   6.5689   6.5875   6.6071   7.8352   7.8424   7.8633   7.8802
     7.8934   7.9127   7.9235   7.9364   8.2678   8.2718   8.2991   8.3005
     8.5143   8.5168   8.5252   8.5280   8.6405   8.6446   8.6774   8.6807
     8.6919   8.6937   8.6964   8.7094   8.7315   8.7395   8.7478   8.7507
     8.7646   8.7733   8.7889   8.7992   8.9772   8.9927   9.0111   9.0303
     9.0323   9.0403   9.0443   9.0515   9.2074   9.2100   9.2105   9.2161
     9.2163   9.2221   9.2251   9.2369   9.2449   9.2525   9.2542   9.2585
     9.2609   9.2749   9.2807   9.2826   9.2877   9.3091   9.3871   9.3949
     9.4217   9.4222   9.4276   9.4526   9.4619   9.4669   9.4684   9.4784
     9.4878   9.5044   9.5137   9.5158   9.5240   9.5460   9.5486   9.5529
     9.5696   9.5849   9.7535   9.7557   9.7894   9.7956   9.8014   9.8168
     9.8187   9.8262   9.8453   9.8495   9.8531   9.8618   9.8639   9.8721
     9.9561   9.9589   9.9999  10.0081  10.0340  10.0346  10.0410  10.0469
    10.3766  10.3797  10.3844  10.3860  10.4018  10.4056  10.4098  10.4429
    10.4560  10.4639  10.4709  10.4750  10.4809  10.4816  10.5047  10.5091
    10.5194  10.5270  10.5388  10.5671  10.5776  10.5825  10.6067  10.6077
    10.6268  10.6294  10.6671  10.6673  10.6734  10.6758  10.7215  10.7478
    10.7930  10.7934  10.9185  10.9271  10.9895  10.9934  11.0192  11.0295
    11.1210  11.1304  11.1350  11.1443  11.1555  11.1819  11.2026  11.2057
    11.2113  11.2158  11.2684  11.3047  11.3306  11.3327  11.3576  11.3610
    11.3739  11.3785  11.4192  11.4244  11.4324  11.4354  11.5021  11.5140
    11.5315  11.5524  11.5642  11.5722  11.5793  11.6004  11.6209  11.6292
    11.6380  11.6410  11.7282  11.7423  11.7502  11.7598  11.8116  11.8672
    11.8718  11.9236  11.9317  11.9462  11.9510  11.9782  11.9975  11.9976
    12.0219  12.0232  12.0344  12.0371  12.0382  12.0594  12.0865  12.1354
    12.1412  12.1569  12.1888  12.2120  12.2506  12.2710  12.2901  12.2954
    12.3273  12.3405  12.3621  12.3938  12.4123  12.4610  12.4633  12.4717
    12.4838  12.4914  12.5138  12.5204  12.5253  12.5392  12.5635  12.5918
    12.5983  12.6110  12.6258  12.6390  12.6415  12.6487  12.6490  12.7618
    12.8706  12.9090  12.9108  12.9741  12.9745  13.0439  13.0523  13.0753
    13.0774  13.3641  13.3670  13.3709  13.5611  13.6341  13.7339  13.8666
    13.9261  13.9806  13.9963  14.0434  14.1234  14.2391  14.3172  14.4752
    14.4862  14.5433  14.5452  14.5553  14.5825  14.7249  14.7409  14.9384
    15.0603  15.1445  15.2331  15.3177  15.3543  15.4720  15.4923  15.5977
    15.6249  15.7459  15.8210  15.8551  15.8798  15.9104  15.9109  15.9617
    15.9636  16.0258  16.0738  16.1527  16.1581  16.1845  16.1975  16.2473
    16.2771  16.2867  16.3037  16.3473  16.3489  16.3875  16.4252  16.4322
    16.4622  16.4660  16.4845  16.5807  16.6051  16.6147  16.6631  16.6768
    16.7181  16.7505  16.7943  16.8030  16.8705  16.8746  16.9923  17.0631
    17.0919  17.1233  17.2256  17.2836  18.6389  18.6646  18.7438  18.7738
    18.8043  18.8144  18.8401  18.8467  18.8736  18.9073  18.9506  18.9628

          k =-0.5000-0.5000 0.0000 ( 31612 PWs)   bands (ev):

   -66.7233 -66.7233 -66.7054 -66.7039 -66.7039 -66.6992 -66.6364 -66.6364
   -66.6348 -62.4503 -62.3714 -62.3714 -62.3644 -62.3576 -62.3576 -62.3422
   -62.3422 -62.3230 -35.5156 -35.5156 -35.4918 -35.4918 -35.4890 -35.4754
   -35.4689 -35.4688 -35.4663 -35.4419 -35.4418 -35.4415 -35.4299 -35.4166
   -35.4165 -35.4114 -35.4113 -35.4019 -35.3928 -35.3927 -35.3920 -35.3919
   -35.3832 -35.3774 -35.3543 -35.3543 -35.3508 -31.2916 -31.2765 -31.2533
   -31.2343 -31.2343 -31.2246 -31.1957 -31.1948 -31.1867 -31.1867 -31.1839
   -31.1834 -31.1802 -31.1801 -31.1777 -31.1730 -31.1729 -31.1726 -31.1725
   -31.1696 -31.1681 -31.1679 -31.1641 -31.1473 -31.1460 -31.1459 -31.1281
     6.3759   6.4357   6.4457   6.4921   8.0042   8.0094   8.0121   8.0242
     8.0855   8.1106   8.2672   8.3074   8.3134   8.3185   8.3274   8.3316
     8.3454   8.3503   8.3512   8.3782   8.3827   8.4273   8.5828   8.6232
     8.6348   8.6420   8.6845   8.6929   8.6945   8.7089   8.7262   8.7534
     8.7656   8.8066   8.9355   8.9389   8.9491   8.9500   8.9605   8.9724
     8.9752   9.0014   9.0029   9.0061   9.0143   9.0166   9.0171   9.0396
     9.1159   9.1233   9.3040   9.3104   9.3115   9.3207   9.3895   9.4012
     9.4049   9.4125   9.4282   9.4307   9.4308   9.4326   9.4424   9.4478
     9.4496   9.4658   9.4699   9.4782   9.4789   9.4877   9.4951   9.5141
     9.5177   9.5236   9.5377   9.5485   9.5517   9.5750   9.5870   9.5967
     9.6044   9.6089   9.6913   9.6962   9.7347   9.7970   9.8021   9.8156
     9.8271   9.8308   9.8322   9.8404   9.8611   9.8877   9.9627  10.0443
    10.0936  10.1053  10.1108  10.1388  10.1445  10.1463  10.1567  10.1619
    10.1825  10.1892  10.1926  10.2081  10.2128  10.2133  10.2260  10.2287
    10.2296  10.2313  10.2396  10.2605  10.4218  10.4672  10.4677  10.4852
    10.4898  10.4933  10.5062  10.5133  10.5654  10.6120  10.6126  10.6440
    10.6588  10.6598  10.6733  10.7006  10.7053  10.7096  10.7128  10.7167
    10.7746  10.7917  10.7953  10.8121  10.8145  10.8347  10.8626  10.8661
    10.8692  10.9383  11.1913  11.2069  11.2139  11.2245  11.3127  11.3131
    11.3339  11.3381  11.3604  11.3644  11.3686  11.3742  11.5591  11.5837
    11.6183  11.6243  11.6289  11.6424  11.6437  11.6452  11.6465  11.6489
    11.6544  11.6639  11.7014  11.7246  11.7287  11.7362  11.7567  11.7903
    11.8430  11.8744  11.8774  11.8801  11.8826  11.8859  11.8998  11.9586
    11.9971  12.0269  12.0448  12.0586  12.0595  12.0753  12.0931  12.1014
    12.1033  12.1067  12.1091  12.1158  12.1364  12.1525  12.1538  12.1564
    12.1569  12.1594  12.1640  12.1712  12.1858  12.1996  12.2071  12.2393
    12.2609  12.2718  12.2785  12.2827  12.2847  12.2941  12.3045  12.3592
    12.4099  12.4263  12.4313  12.4598  12.4956  12.5171  12.5369  12.5499
    12.5502  12.5540  12.5748  12.5877  12.5957  12.6618  12.6657  12.7168
    12.7317  12.7420  12.7695  12.8084  12.8320  12.8433  12.8475  12.9414
    12.9588  12.9648  13.0223  13.0333  13.1840  13.6506  13.6602  13.6689
    13.6722  13.6848  13.7023  13.8411  13.8554  13.9533  14.1874  14.2847
    14.2913  14.4250  14.4256  14.4585  14.4981  14.5009  14.7141  14.8362
    14.8709  15.0292  15.0922  15.1939  15.3000  15.3486  15.7231  15.7502
    15.7740  15.7819  15.8024  15.8150  15.8966  15.9685  16.0190  16.0451
    16.0629  16.0802  16.0814  16.1018  16.1504  16.1517  16.1568  16.1818
    16.2057  16.2382  16.2538  16.2719  16.2812  16.2963  16.3610  16.3752
    16.3928  16.5563  16.6182  16.6229  16.6638  16.7051  16.7639  16.7702
    16.8326  16.8481  16.8745  16.8923  17.3836  17.3862  17.6942  17.8616
    18.1077  18.1079  18.1803  18.1897  18.2515  18.4321  18.5001  18.5718
    18.6012  18.6171  18.6202  18.6500  18.7561  18.7925  18.7966  18.7984

          k =-0.5000-0.5000-0.5734 ( 31672 PWs)   bands (ev):

   -66.7233 -66.7233 -66.7054 -66.7039 -66.7039 -66.6992 -66.6364 -66.6364
   -66.6348 -62.4503 -62.3714 -62.3714 -62.3644 -62.3576 -62.3576 -62.3422
   -62.3422 -62.3230 -35.5156 -35.5156 -35.4918 -35.4918 -35.4890 -35.4754
   -35.4689 -35.4688 -35.4663 -35.4419 -35.4418 -35.4415 -35.4299 -35.4166
   -35.4165 -35.4114 -35.4113 -35.4019 -35.3928 -35.3927 -35.3920 -35.3919
   -35.3832 -35.3774 -35.3543 -35.3543 -35.3508 -31.2916 -31.2765 -31.2533
   -31.2343 -31.2343 -31.2246 -31.1957 -31.1948 -31.1867 -31.1867 -31.1839
   -31.1834 -31.1802 -31.1801 -31.1777 -31.1730 -31.1729 -31.1726 -31.1725
   -31.1696 -31.1681 -31.1679 -31.1641 -31.1473 -31.1460 -31.1459 -31.1281
     6.8939   6.9071   6.9380   6.9632   6.9737   6.9882   7.0183   7.0351
     8.4522   8.4563   8.4689   8.4765   8.4769   8.4783   8.4864   8.4868
     8.4896   8.4960   8.5233   8.5273   8.5327   8.5387   8.5570   8.5596
     8.5625   8.5908   8.5913   8.5952   8.8657   8.8691   8.8799   8.9025
     8.9193   8.9238   8.9347   8.9385   9.0907   9.1014   9.1145   9.1206
     9.1297   9.1350   9.1373   9.1401   9.1409   9.1442   9.1458   9.1459
     9.1569   9.1649   9.1649   9.1678   9.1692   9.1711   9.1743   9.1754
     9.1791   9.1793   9.1873   9.1934   9.2027   9.2133   9.2142   9.2147
     9.2276   9.2466   9.2482   9.2501   9.2521   9.2573   9.2777   9.2834
     9.5336   9.5458   9.5493   9.5518   9.5998   9.6023   9.6195   9.6310
     9.6661   9.6726   9.6805   9.7058   9.7113   9.7270   9.7374   9.7565
     9.8191   9.8240   9.8469   9.8570   9.8589   9.8681   9.8773   9.8900
    10.1269  10.1336  10.1368  10.1472  10.1588  10.1602  10.1670  10.1693
    10.2852  10.2981  10.4417  10.4460  10.4545  10.4629  10.4672  10.4722
    10.4850  10.4892  10.4948  10.4991  10.5013  10.5015  10.5140  10.5152
    10.5311  10.5320  10.5322  10.5372  10.5445  10.5578  10.5618  10.5655
    10.5783  10.6067  10.6306  10.6400  10.6454  10.6515  10.6544  10.6847
    10.6867  10.6886  10.6988  10.7011  10.7574  10.7641  11.0293  11.0401
    11.0589  11.0598  11.1085  11.1093  11.1325  11.1382  11.3664  11.3718
    11.3862  11.3923  11.4314  11.4359  11.4420  11.4467  11.4602  11.4628
    11.4769  11.4775  11.5001  11.5158  11.5229  11.5369  11.5984  11.6020
    11.6297  11.6317  11.6428  11.6471  11.6555  11.6816  11.6935  11.6971
    11.7239  11.7278  11.7480  11.7549  11.7723  11.7813  11.7833  11.7863
    11.7957  11.8063  11.8236  11.8363  11.8679  11.9125  12.0084  12.0182
    12.0417  12.0465  12.0839  12.1012  12.1175  12.1241  12.1281  12.1565
    12.1611  12.1891  12.1895  12.2050  12.2239  12.2405  12.2561  12.2849
    12.3275  12.3499  12.4210  12.4283  12.4296  12.4397  12.4480  12.4632
    12.4654  12.4909  12.4919  12.4966  12.5006  12.5349  12.5645  12.5676
    12.5776  12.6412  12.6423  12.6885  12.6965  12.7224  12.7609  12.7909
    12.8025  12.8208  13.0167  13.0614  13.0720  13.1726  13.2026  13.2060
    13.2848  13.3675  13.3892  13.3940  13.4063  13.4668  13.4740  13.5345
    13.5481  13.5580  13.6137  13.8051  13.8902  14.0094  14.0368  14.1097
    14.2310  14.5533  14.5710  14.5785  14.6399  14.7178  14.8646  14.8830
    14.9539  15.0640  15.0644  15.2995  15.4313  15.4329  15.4823  15.7918
    15.8101  15.8130  15.8442  15.8520  15.8608  15.9481  15.9737  16.0271
    16.0533  16.0799  16.0989  16.1662  16.1877  16.2189  16.2205  16.2416
    16.2563  16.2839  16.2843  16.3738  16.3776  16.3976  16.3994  16.4417
    16.5430  16.5491  16.6055  16.6089  16.6410  16.6479  16.6702  16.7054
    16.7149  16.7251  16.7721  16.8706  16.8884  16.8905  16.9457  16.9658
    17.0426  17.0515  17.6804  17.7957  17.7994  17.8498  19.0136  19.0300
    19.0317  19.0912  19.0981  19.1788  19.1850  19.2162  19.2540  19.3378

 ------ SPIN DOWN ----------


          k = 0.0000 0.0000 0.0000 ( 31747 PWs)   bands (ev):

   -66.7853 -66.6985 -66.6985 -66.6588 -66.6588 -66.6192 -66.5914 -66.5909
   -66.5909 -62.3805 -62.3726 -62.3726 -62.3627 -62.3627 -62.3563 -62.3563
   -62.3515 -62.3160 -35.5474 -35.5230 -35.5103 -35.4670 -35.4670 -35.4582
   -35.4581 -35.4332 -35.4331 -35.4061 -35.4060 -35.4034 -35.4032 -35.3887
   -35.3775 -35.3742 -35.3666 -35.3665 -35.3486 -35.3486 -35.3464 -35.3464
   -35.3338 -35.3232 -35.3105 -35.3104 -35.2998 -31.2282 -31.2282 -31.2262
   -31.2053 -31.2046 -31.2015 -31.2011 -31.1988 -31.1946 -31.1930 -31.1916
   -31.1908 -31.1862 -31.1861 -31.1797 -31.1796 -31.1792 -31.1741 -31.1731
   -31.1730 -31.1725 -31.1634 -31.1634 -31.1611 -31.1544 -31.1391 -31.1370
     5.6185   7.1431   7.1457   7.2188   7.2215   7.3657   7.8407   7.8970
     7.9065   7.9677   8.0879   8.0880   8.1473   8.1855   8.1876   8.2606
     8.2641   8.2937   8.2961   8.5199   8.5562   8.5605   8.5729   8.5764
     8.6502   8.8619   8.8633   8.8646   8.8814   8.8881   8.8893   8.8951
     8.8975   8.9013   8.9138   8.9206   8.9483   8.9591   8.9617   8.9789
     8.9829   9.0843   9.1235   9.1277   9.1286   9.1371   9.1540   9.1584
     9.1970   9.1977   9.2232   9.2710   9.2925   9.3015   9.3065   9.3340
     9.3512   9.3548   9.3690   9.3719   9.3963   9.3964   9.4091   9.4433
     9.4508   9.4531   9.4630   9.4665   9.4695   9.4701   9.4775   9.5793
     9.5814   9.5913   9.5915   9.6178   9.6303   9.6682   9.6701   9.6716
     9.6738   9.6746   9.6774   9.7497   9.7587   9.7727   9.7879   9.8513
     9.8525   9.9097   9.9147   9.9431   9.9443   9.9494  10.0001  10.0387
    10.0770  10.1184  10.1445  10.2040  10.2833  10.2834  10.2950  10.2977
    10.3072  10.3102  10.3197  10.3252  10.3332  10.3365  10.3400  10.3414
    10.3449  10.3470  10.3633  10.3645  10.3653  10.3744  10.3843  10.3852
    10.3888  10.4959  10.5244  10.5424  10.6193  10.6226  10.6334  10.6353
    10.6773  10.7829  10.7901  10.8073  10.8129  10.8174  10.8477  10.8512
    10.8636  10.8677  10.8693  10.8721  10.8766  10.8915  10.8936  10.9023
    10.9096  10.9102  11.0327  11.0351  11.0769  11.0786  11.1508  11.1945
    11.2137  11.2141  11.2275  11.2370  11.2556  11.2905  11.3001  11.3299
    11.3338  11.3924  11.3997  11.4041  11.4071  11.4121  11.4378  11.4392
    11.4617  11.5885  11.5912  11.5934  11.5974  11.5985  11.6126  11.6364
    11.6415  11.6443  11.7262  11.7279  11.7509  11.7537  11.7693  11.8102
    11.8148  11.8401  11.8414  11.8707  11.9017  11.9188  11.9319  11.9530
    11.9574  12.0146  12.0663  12.1008  12.1023  12.1048  12.1065  12.1087
    12.1415  12.1464  12.1475  12.1475  12.1517  12.1531  12.1715  12.1867
    12.2509  12.2945  12.3501  12.3532  12.3554  12.3874  12.4361  12.4372
    12.4471  12.4770  12.4795  12.4941  12.4945  12.5133  12.5362  12.5425
    12.5629  12.5639  12.5698  12.6061  12.6150  12.6169  12.6543  12.6915
    12.7107  12.7530  12.7652  12.7870  12.8309  12.8665  13.0317  13.0554
    13.1247  13.1291  13.1727  13.1783  13.4651  13.6476  13.8326  13.8580
    13.8669  14.0894  14.1765  14.2006  14.2577  14.4366  14.4503  14.6008
    14.7712  14.8428  14.9206  14.9913  15.0614  15.0985  15.1083  15.1809
    15.2020  15.2607  15.3005  15.3083  15.3616  15.4460  15.5233  15.5339
    15.6952  15.7341  15.7647  15.8006  15.8666  15.9595  16.0108  16.0202
    16.0260  16.0755  16.1019  16.1178  16.1211  16.1678  16.1724  16.1883
    16.1902  16.1993  16.2469  16.2814  16.3204  16.3533  16.3575  16.3972
    16.4736  16.4804  16.5000  16.6146  16.6312  16.6404  16.8149  16.9000
    16.9534  17.0385  17.1758  17.1987  17.2201  17.2414  17.3420  17.3431
    17.4309  17.4782  17.7938  17.8838  17.9358  17.9424  17.9854  18.0122
    18.2961  18.3379  18.4860  18.8630  19.0376  19.0598  19.1574  19.2073

          k = 0.0000 0.0000-0.5734 ( 31692 PWs)   bands (ev):

   -66.7853 -66.6985 -66.6985 -66.6588 -66.6588 -66.6192 -66.5914 -66.5909
   -66.5909 -62.3805 -62.3726 -62.3726 -62.3627 -62.3627 -62.3563 -62.3563
   -62.3515 -62.3160 -35.5474 -35.5230 -35.5103 -35.4670 -35.4670 -35.4582
   -35.4581 -35.4332 -35.4331 -35.4061 -35.4061 -35.4034 -35.4032 -35.3887
   -35.3775 -35.3742 -35.3666 -35.3665 -35.3486 -35.3486 -35.3464 -35.3464
   -35.3338 -35.3232 -35.3105 -35.3104 -35.2998 -31.2282 -31.2282 -31.2262
   -31.2053 -31.2046 -31.2015 -31.2011 -31.1988 -31.1946 -31.1930 -31.1916
   -31.1908 -31.1862 -31.1861 -31.1797 -31.1796 -31.1792 -31.1741 -31.1731
   -31.1730 -31.1725 -31.1634 -31.1634 -31.1611 -31.1544 -31.1391 -31.1370
     6.1791   6.1968   7.5286   7.5442   7.5608   7.5669   7.6071   7.6150
     7.6230   7.6359   8.3053   8.3155   8.3297   8.3463   8.3607   8.3655
     8.3961   8.4020   8.4544   8.4588   8.4766   8.4832   8.5115   8.5127
     8.5127   8.5128   8.6977   8.7058   8.7658   8.7829   8.9459   8.9555
     8.9783   8.9803   8.9804   8.9958   9.0028   9.0054   9.0141   9.0285
     9.0295   9.0414   9.0423   9.0470   9.0719   9.0811   9.2149   9.2255
     9.2302   9.2404   9.2547   9.2560   9.2687   9.2701   9.2746   9.2839
     9.2845   9.2876   9.2918   9.2937   9.2968   9.2986   9.4053   9.4099
     9.4317   9.4341   9.4546   9.4556   9.4587   9.4746   9.4791   9.4813
     9.4916   9.4973   9.5023   9.5063   9.5129   9.5210   9.6422   9.6667
     9.7723   9.7781   9.7982   9.8025   9.8251   9.8292   9.8366   9.8468
     9.8772   9.8781   9.8782   9.8802   9.8884   9.8900   9.8954   9.8959
    10.0610  10.0620  10.0623  10.0640  10.1538  10.1615  10.1620  10.1656
    10.1658  10.1662  10.1792  10.1951  10.2024  10.2048  10.3715  10.3725
    10.3777  10.3817  10.4007  10.4011  10.4126  10.4287  10.4851  10.5082
    10.5733  10.5803  10.5896  10.6031  10.6290  10.6468  10.6674  10.6763
    10.6833  10.6889  10.7314  10.7418  10.7561  10.8012  10.8082  10.8712
    10.9291  10.9333  10.9410  10.9834  11.0291  11.0355  11.0367  11.0452
    11.0750  11.0789  11.0856  11.1585  11.2062  11.2151  11.2176  11.2237
    11.2475  11.2484  11.2526  11.2534  11.2642  11.2692  11.2768  11.2826
    11.2837  11.2841  11.2914  11.2946  11.2948  11.2959  11.3056  11.3092
    11.3123  11.3167  11.3185  11.3193  11.5354  11.5443  11.7134  11.7136
    11.7150  11.7167  11.7185  11.7243  11.7336  11.7351  11.7381  11.7540
    11.7665  11.7702  11.7741  11.7824  11.7867  11.8500  11.8951  11.9418
    11.9511  11.9705  12.0077  12.0105  12.0570  12.0613  12.0860  12.1164
    12.1405  12.1676  12.1707  12.2417  12.2463  12.2515  12.2675  12.4148
    12.4248  12.4422  12.4463  12.4643  12.4917  12.5045  12.5065  12.5331
    12.5374  12.5592  12.5592  12.6093  12.6104  12.6158  12.6375  12.6502
    12.6579  12.6951  12.7104  12.7152  12.7483  12.7645  12.7786  12.8095
    12.8631  12.9195  12.9831  13.0636  13.1360  13.2057  13.2160  13.2363
    13.2850  13.2871  13.3446  13.5073  13.5171  13.5220  13.7360  13.7677
    13.7759  13.9128  13.9508  14.0816  14.1341  14.3013  14.3650  14.4708
    14.7365  14.9010  14.9465  14.9509  14.9530  14.9828  14.9844  15.1207
    15.2151  15.2321  15.2592  15.3336  15.3339  15.3706  15.3999  15.4308
    15.4578  15.6211  15.7396  15.7746  15.8315  15.9397  16.0116  16.0548
    16.0670  16.1175  16.1178  16.1304  16.1403  16.1513  16.1947  16.1957
    16.2023  16.2246  16.2249  16.2343  16.2380  16.2449  16.2469  16.2487
    16.3911  16.4223  16.6122  16.6210  16.6502  16.6784  16.7005  16.7234
    16.7326  16.7645  17.4220  17.4491  17.4600  17.4917  17.5344  17.5507
    17.5669  17.5829  17.6596  17.6599  17.7228  17.7623  17.8248  17.8691
    17.8772  17.8793  18.1049  18.1395  18.1868  18.2498  18.3058  18.3454

          k = 0.0000-0.5000 0.0000 ( 31722 PWs)   bands (ev):

   -66.7853 -66.6985 -66.6985 -66.6588 -66.6588 -66.6192 -66.5914 -66.5909
   -66.5909 -62.3805 -62.3726 -62.3726 -62.3627 -62.3627 -62.3563 -62.3563
   -62.3515 -62.3160 -35.5474 -35.5230 -35.5103 -35.4670 -35.4670 -35.4582
   -35.4581 -35.4332 -35.4332 -35.4061 -35.4061 -35.4034 -35.4032 -35.3887
   -35.3775 -35.3742 -35.3666 -35.3665 -35.3486 -35.3486 -35.3464 -35.3464
   -35.3338 -35.3232 -35.3105 -35.3104 -35.2998 -31.2282 -31.2282 -31.2262
   -31.2053 -31.2046 -31.2015 -31.2011 -31.1988 -31.1946 -31.1930 -31.1916
   -31.1908 -31.1862 -31.1861 -31.1797 -31.1796 -31.1792 -31.1741 -31.1731
   -31.1730 -31.1725 -31.1634 -31.1634 -31.1611 -31.1544 -31.1391 -31.1370
     6.0419   6.0499   7.4220   7.4387   7.4612   7.4836   7.6715   7.6830
     8.1110   8.1140   8.1296   8.1639   8.2230   8.2355   8.2436   8.2753
     8.4114   8.4290   8.4566   8.4795   8.6311   8.6399   8.6498   8.6572
     8.6696   8.6733   8.6779   8.6954   8.7803   8.8062   8.8307   8.8411
     8.8572   8.8586   8.8781   8.8853   8.8964   8.9022   8.9093   8.9295
     8.9317   8.9367   8.9427   8.9545   9.0446   9.0538   9.1592   9.1679
     9.1765   9.2105   9.2155   9.2268   9.2394   9.2483   9.3036   9.3367
     9.3509   9.3767   9.4016   9.4176   9.4774   9.4816   9.4991   9.5071
     9.5412   9.5418   9.5587   9.5633   9.5898   9.6075   9.6091   9.6191
     9.6283   9.6297   9.6323   9.6344   9.6376   9.6377   9.6439   9.6574
     9.6663   9.6776   9.6815   9.6847   9.6928   9.7105   9.7207   9.7280
     9.7433   9.7470   9.7505   9.7733   9.8973   9.8993   9.9353   9.9565
    10.0135  10.0346  10.1627  10.1843  10.2059  10.2181  10.2541  10.2569
    10.2591  10.2657  10.2751  10.2796  10.2824  10.2856  10.3424  10.3594
    10.3728  10.3810  10.3844  10.3887  10.4299  10.4415  10.4631  10.4829
    10.5077  10.5292  10.5308  10.5490  10.5600  10.5672  10.5692  10.5984
    10.6096  10.6566  10.6655  10.7023  10.7108  10.7211  10.7329  10.7479
    10.8064  10.8174  10.8337  10.8504  10.8681  10.9038  10.9178  10.9307
    10.9940  11.0032  11.0201  11.0224  11.0384  11.0567  11.1743  11.1812
    11.2963  11.3398  11.3480  11.3496  11.3759  11.3807  11.3812  11.4023
    11.4080  11.4308  11.4358  11.4849  11.5081  11.5224  11.5482  11.5773
    11.6017  11.6043  11.6315  11.6317  11.6611  11.6746  11.7137  11.7456
    11.7680  11.7737  11.8125  11.8367  11.8375  11.8453  11.8523  11.8610
    11.8754  11.8905  11.9014  11.9122  11.9157  11.9428  11.9461  11.9643
    11.9794  11.9879  11.9908  11.9989  12.0334  12.1074  12.1330  12.1379
    12.1653  12.1906  12.1949  12.2051  12.2108  12.2357  12.2460  12.2810
    12.2965  12.3410  12.3612  12.3859  12.3886  12.4157  12.4282  12.4550
    12.4641  12.4960  12.5001  12.5291  12.5302  12.5522  12.5639  12.5721
    12.5751  12.6010  12.6054  12.6180  12.6776  12.6926  12.7367  12.8160
    12.8811  12.9304  13.0630  13.0741  13.0801  13.0872  13.1177  13.1505
    13.1806  13.2017  13.2223  13.2432  13.2533  13.2966  13.3148  13.3762
    13.4209  13.5531  13.5542  13.6214  13.7093  14.4307  14.4624  14.5359
    14.5905  14.6861  14.7529  14.7966  14.8044  14.8626  14.8738  14.9936
    15.0395  15.1431  15.1486  15.3227  15.3616  15.4367  15.5279  15.6004
    15.6961  15.7327  15.7521  15.8204  15.8662  15.8990  15.9448  16.0447
    16.0634  16.0948  16.1107  16.1340  16.1354  16.1676  16.1681  16.1737
    16.2035  16.2086  16.2270  16.2407  16.2840  16.3063  16.3334  16.3570
    16.4055  16.4309  16.5063  16.5977  16.6695  16.7458  16.9923  17.0746
    17.1519  17.2171  17.2738  17.3231  17.4042  17.4806  17.6360  17.6431
    17.7635  17.7978  17.8006  17.8187  17.8638  17.8740  17.8827  17.9281
    17.9336  18.0943  18.1791  18.1993  19.2563  19.2724  19.3567  19.3698

          k = 0.0000-0.5000-0.5734 ( 31696 PWs)   bands (ev):

   -66.7853 -66.6985 -66.6985 -66.6588 -66.6588 -66.6192 -66.5914 -66.5909
   -66.5909 -62.3805 -62.3726 -62.3726 -62.3627 -62.3627 -62.3563 -62.3563
   -62.3515 -62.3160 -35.5474 -35.5230 -35.5103 -35.4670 -35.4670 -35.4582
   -35.4581 -35.4332 -35.4332 -35.4061 -35.4060 -35.4034 -35.4032 -35.3887
   -35.3775 -35.3742 -35.3666 -35.3665 -35.3486 -35.3486 -35.3464 -35.3464
   -35.3338 -35.3232 -35.3105 -35.3104 -35.2998 -31.2282 -31.2282 -31.2262
   -31.2053 -31.2046 -31.2015 -31.2011 -31.1988 -31.1946 -31.1930 -31.1916
   -31.1908 -31.1862 -31.1861 -31.1797 -31.1796 -31.1792 -31.1741 -31.1731
   -31.1730 -31.1725 -31.1634 -31.1634 -31.1611 -31.1544 -31.1391 -31.1370
     6.5579   6.5744   6.5978   6.6146   7.8404   7.8516   7.8794   7.8902
     7.8976   7.9099   7.9268   7.9436   8.2735   8.2764   8.3060   8.3069
     8.5226   8.5247   8.5330   8.5330   8.6541   8.6569   8.6798   8.6873
     8.6917   8.6928   8.7072   8.7204   8.7321   8.7440   8.7567   8.7574
     8.7686   8.7699   8.7879   8.8026   8.9822   8.9980   9.0147   9.0346
     9.0384   9.0465   9.0485   9.0554   9.2131   9.2172   9.2208   9.2215
     9.2224   9.2315   9.2330   9.2460   9.2485   9.2523   9.2557   9.2566
     9.2615   9.2692   9.2844   9.2896   9.2911   9.3175   9.3951   9.4024
     9.4316   9.4355   9.4372   9.4556   9.4623   9.4664   9.4677   9.4816
     9.4834   9.5013   9.5174   9.5259   9.5275   9.5513   9.5608   9.5681
     9.5739   9.5896   9.7563   9.7584   9.7939   9.8016   9.8077   9.8288
     9.8291   9.8297   9.8503   9.8544   9.8565   9.8611   9.8616   9.8743
     9.9728   9.9802   9.9924   9.9962  10.0216  10.0260  10.0635  10.0662
    10.3714  10.3778  10.3982  10.4012  10.4029  10.4093  10.4145  10.4512
    10.4651  10.4671  10.4760  10.4771  10.4964  10.4968  10.5136  10.5142
    10.5353  10.5513  10.5631  10.5759  10.5923  10.6099  10.6182  10.6203
    10.6297  10.6329  10.6621  10.6726  10.6801  10.6812  10.6869  10.6966
    10.7728  10.7909  10.9531  10.9596  10.9842  10.9934  11.0409  11.0478
    11.1192  11.1234  11.1360  11.1563  11.1692  11.1855  11.2123  11.2130
    11.2184  11.2281  11.2900  11.3285  11.3352  11.3375  11.3648  11.3676
    11.3744  11.3771  11.4236  11.4248  11.4348  11.4408  11.5066  11.5132
    11.5303  11.5592  11.5683  11.5732  11.5870  11.6114  11.6242  11.6305
    11.6363  11.6367  11.7343  11.7507  11.7558  11.7656  11.8254  11.8849
    11.8898  11.9226  11.9272  11.9385  11.9485  11.9850  12.0181  12.0194
    12.0318  12.0370  12.0403  12.0443  12.0445  12.0739  12.0913  12.1330
    12.1465  12.1740  12.1926  12.2224  12.2610  12.2678  12.2732  12.3043
    12.3721  12.3821  12.4037  12.4082  12.4390  12.4542  12.4694  12.5053
    12.5058  12.5409  12.5460  12.5612  12.5669  12.5998  12.6027  12.6102
    12.6168  12.6457  12.6460  12.6516  12.6676  12.7038  12.7163  12.7690
    12.7736  12.8565  12.8692  12.9224  13.0115  13.0429  13.0472  13.0713
    13.0873  13.3770  13.5032  13.5163  13.6349  13.7218  13.7444  13.7877
    13.8055  13.9852  14.0257  14.0871  14.0982  14.2640  14.3447  14.3591
    14.4008  14.5194  14.5535  14.5570  14.6261  14.8604  14.8652  15.1086
    15.2068  15.2285  15.2493  15.2709  15.2951  15.3517  15.3943  15.5104
    15.5919  15.6388  15.6838  15.8753  15.8874  15.9734  15.9821  16.0213
    16.0502  16.0754  16.1094  16.1280  16.1548  16.1865  16.2166  16.2358
    16.2679  16.3055  16.3443  16.3536  16.3812  16.3911  16.4127  16.4418
    16.4764  16.4995  16.5347  16.5607  16.5965  16.6219  16.6616  16.6803
    16.6939  16.7056  16.7254  16.7690  16.8840  16.8845  16.9982  17.0498
    17.0835  17.1318  17.2698  17.3198  18.6749  18.7054  18.7298  18.7521
    18.7794  18.7840  18.8527  18.8726  18.9114  18.9198  18.9394  18.9616

          k =-0.5000-0.5000 0.0000 ( 31612 PWs)   bands (ev):

   -66.7853 -66.6985 -66.6985 -66.6588 -66.6588 -66.6192 -66.5914 -66.5909
   -66.5909 -62.3805 -62.3726 -62.3726 -62.3627 -62.3627 -62.3563 -62.3563
   -62.3515 -62.3160 -35.5474 -35.5230 -35.5103 -35.4670 -35.4670 -35.4582
   -35.4581 -35.4332 -35.4332 -35.4061 -35.4061 -35.4034 -35.4032 -35.3887
   -35.3775 -35.3742 -35.3666 -35.3665 -35.3486 -35.3486 -35.3464 -35.3464
   -35.3338 -35.3232 -35.3105 -35.3104 -35.2998 -31.2282 -31.2282 -31.2262
   -31.2053 -31.2046 -31.2015 -31.2011 -31.1988 -31.1946 -31.1930 -31.1916
   -31.1908 -31.1862 -31.1861 -31.1797 -31.1796 -31.1792 -31.1741 -31.1731
   -31.1730 -31.1725 -31.1634 -31.1634 -31.1611 -31.1544 -31.1391 -31.1370
     6.3975   6.4425   6.4433   6.4935   8.0029   8.0176   8.0221   8.0303
     8.1006   8.1174   8.2818   8.3147   8.3164   8.3299   8.3314   8.3358
     8.3420   8.3592   8.3607   8.3782   8.3804   8.4428   8.5951   8.6268
     8.6368   8.6446   8.6957   8.7002   8.7044   8.7118   8.7257   8.7543
     8.7575   8.8132   8.9413   8.9454   8.9541   8.9564   8.9738   8.9773
     8.9813   9.0097   9.0100   9.0104   9.0107   9.0204   9.0223   9.0418
     9.1199   9.1275   9.3030   9.3144   9.3194   9.3243   9.3996   9.4117
     9.4130   9.4206   9.4297   9.4335   9.4369   9.4370   9.4456   9.4507
     9.4660   9.4719   9.4746   9.4832   9.4857   9.4977   9.5009   9.5109
     9.5194   9.5276   9.5362   9.5384   9.5550   9.5767   9.5899   9.6023
     9.6033   9.6178   9.6976   9.6997   9.7564   9.8022   9.8027   9.8071
     9.8364   9.8390   9.8440   9.8459   9.8628   9.8822  10.0151  10.0419
    10.0772  10.1025  10.1144  10.1342  10.1570  10.1639  10.1718  10.1751
    10.1863  10.1908  10.1938  10.2028  10.2196  10.2225  10.2226  10.2263
    10.2322  10.2340  10.2370  10.3051  10.4265  10.4659  10.4764  10.4825
    10.4949  10.4986  10.5115  10.5703  10.5788  10.6190  10.6286  10.6326
    10.6496  10.6559  10.6640  10.6669  10.7104  10.7115  10.7199  10.7203
    10.7480  10.8013  10.8073  10.8188  10.8455  10.8532  10.8688  10.8716
    10.8895  10.9423  11.2012  11.2105  11.2121  11.2281  11.3195  11.3209
    11.3423  11.3540  11.3637  11.3648  11.3742  11.3827  11.4969  11.5751
    11.6269  11.6278  11.6356  11.6451  11.6483  11.6487  11.6495  11.6549
    11.6641  11.6740  11.7273  11.7308  11.7510  11.7716  11.8004  11.8278
    11.8677  11.8771  11.8787  11.8828  11.8864  11.8890  11.9658  11.9779
    12.0073  12.0276  12.0641  12.0678  12.0743  12.0785  12.0837  12.0839
    12.1086  12.1087  12.1145  12.1214  12.1460  12.1524  12.1533  12.1556
    12.1600  12.1612  12.1662  12.1764  12.1768  12.2035  12.2219  12.2649
    12.2798  12.2867  12.2882  12.2890  12.2912  12.2972  12.3145  12.4333
    12.4461  12.4501  12.4680  12.5075  12.5211  12.5236  12.5421  12.5696
    12.5699  12.5735  12.5773  12.5809  12.6141  12.6370  12.6417  12.6858
    12.7080  12.8033  12.8363  12.8643  12.8739  12.8892  12.9119  12.9300
    12.9681  13.0267  13.0409  13.0613  13.1522  13.6615  13.6632  13.6764
    13.6786  13.6816  13.6997  13.7750  13.8185  14.0167  14.2589  14.3493
    14.4146  14.4150  14.4318  14.4685  14.5137  14.5707  14.7716  14.8268
    14.8301  14.8889  15.1385  15.1386  15.3314  15.3641  15.6760  15.7356
    15.7357  15.8107  15.8240  15.8333  15.9153  15.9332  15.9947  16.0459
    16.0462  16.0535  16.0940  16.1459  16.1608  16.1687  16.1740  16.1967
    16.2162  16.2396  16.2961  16.3114  16.3410  16.3734  16.3742  16.3804
    16.4667  16.4685  16.5213  16.5955  16.6489  16.6645  16.7752  16.8024
    16.8243  16.8372  16.8865  16.8965  17.3869  17.3905  17.7056  17.8802
    18.0868  18.1949  18.2164  18.2178  18.2581  18.4276  18.4427  18.5761
    18.5846  18.6286  18.6310  18.6381  18.7393  18.7922  18.8052  18.8259

          k =-0.5000-0.5000-0.5734 ( 31672 PWs)   bands (ev):

   -66.7853 -66.6985 -66.6985 -66.6588 -66.6588 -66.6192 -66.5914 -66.5909
   -66.5909 -62.3805 -62.3726 -62.3726 -62.3627 -62.3627 -62.3563 -62.3563
   -62.3515 -62.3160 -35.5474 -35.5230 -35.5103 -35.4670 -35.4670 -35.4582
   -35.4581 -35.4332 -35.4332 -35.4061 -35.4061 -35.4034 -35.4032 -35.3887
   -35.3775 -35.3742 -35.3666 -35.3665 -35.3486 -35.3486 -35.3464 -35.3464
   -35.3338 -35.3232 -35.3105 -35.3104 -35.2998 -31.2282 -31.2282 -31.2262
   -31.2053 -31.2046 -31.2015 -31.2011 -31.1988 -31.1946 -31.1930 -31.1916
   -31.1908 -31.1862 -31.1861 -31.1797 -31.1796 -31.1792 -31.1741 -31.1731
   -31.1730 -31.1725 -31.1634 -31.1634 -31.1611 -31.1544 -31.1391 -31.1370
     6.9006   6.9121   6.9452   6.9766   6.9902   6.9956   7.0178   7.0345
     8.4615   8.4637   8.4699   8.4774   8.4866   8.4898   8.4949   8.4959
     8.4970   8.4991   8.5329   8.5377   8.5401   8.5476   8.5664   8.5672
     8.5679   8.5820   8.5839   8.5985   8.8818   8.8869   8.8969   8.9041
     8.9136   8.9142   8.9350   8.9385   9.0958   9.1063   9.1201   9.1251
     9.1376   9.1403   9.1454   9.1489   9.1519   9.1545   9.1619   9.1628
     9.1650   9.1680   9.1702   9.1715   9.1738   9.1741   9.1748   9.1788
     9.1802   9.1926   9.1929   9.1958   9.1996   9.2038   9.2182   9.2187
     9.2285   9.2424   9.2432   9.2492   9.2629   9.2747   9.2775   9.2809
     9.5370   9.5440   9.5588   9.5620   9.6086   9.6126   9.6220   9.6332
     9.6655   9.6775   9.6933   9.7125   9.7132   9.7249   9.7373   9.7633
     9.8224   9.8273   9.8418   9.8530   9.8711   9.8850   9.8894   9.8964
    10.1355  10.1418  10.1483  10.1520  10.1544  10.1643  10.1747  10.1784
    10.2946  10.3082  10.4431  10.4512  10.4535  10.4590  10.4856  10.4883
    10.4888  10.4894  10.5009  10.5057  10.5060  10.5106  10.5164  10.5184
    10.5213  10.5240  10.5296  10.5355  10.5380  10.5628  10.5929  10.6041
    10.6383  10.6409  10.6421  10.6514  10.6576  10.6595  10.6669  10.6709
    10.6769  10.6862  10.6960  10.7081  10.7315  10.7341  11.0339  11.0449
    11.0837  11.0891  11.1090  11.1221  11.1243  11.1360  11.3758  11.3833
    11.3946  11.3979  11.4331  11.4376  11.4415  11.4549  11.4603  11.4645
    11.4791  11.4875  11.5070  11.5218  11.5285  11.5435  11.5813  11.5867
    11.6456  11.6488  11.6533  11.6634  11.6689  11.6993  11.7136  11.7187
    11.7267  11.7299  11.7466  11.7600  11.7782  11.7850  11.7855  11.7958
    11.8083  11.8133  11.8223  11.8346  11.8602  11.9140  12.0178  12.0300
    12.0395  12.0660  12.0689  12.0849  12.1055  12.1352  12.1366  12.1513
    12.2030  12.2305  12.2437  12.2712  12.2769  12.2806  12.2943  12.3334
    12.3659  12.3669  12.3712  12.3955  12.4164  12.4494  12.4624  12.4703
    12.4728  12.4822  12.5112  12.5255  12.5316  12.5538  12.5566  12.5738
    12.5903  12.6001  12.6255  12.6882  12.7378  12.7648  12.7885  12.8355
    12.8636  12.8681  13.0980  13.1013  13.1687  13.2304  13.2437  13.2467
    13.2507  13.2853  13.2869  13.3346  13.3576  13.4269  13.5110  13.5655
    13.6134  13.6153  13.6184  13.8928  13.9362  13.9413  14.0972  14.1254
    14.1923  14.5517  14.5904  14.6392  14.7396  14.7584  14.8415  14.8743
    15.0104  15.0896  15.1419  15.2182  15.3046  15.4766  15.4892  15.6587
    15.7248  15.7582  15.7784  15.8270  15.8663  16.0103  16.0537  16.0887
    16.1430  16.1586  16.1735  16.1834  16.1937  16.2206  16.2407  16.2430
    16.2740  16.2919  16.3049  16.3464  16.3495  16.4166  16.4324  16.4693
    16.5034  16.5611  16.5717  16.5861  16.6428  16.6672  16.6791  16.6817
    16.6965  16.7040  16.7625  16.8308  16.9105  16.9197  16.9602  17.0174
    17.0225  17.0257  17.6990  17.8029  17.8096  17.8548  19.0518  19.0642
    19.0754  19.1242  19.1268  19.1395  19.1899  19.2152  19.2184  19.2867

     the Fermi energy is    14.8164 ev

!    total energy              =  -33062.56565315 Ry
     Harris-Foulkes estimate   =  -33062.56563571 Ry
     estimated scf accuracy    <       0.00000074 Ry

     total all-electron energy =  -1410574.656028 Ry

     The total energy is the sum of the following terms:

     one-electron contribution =   -1645.76545595 Ry
     hartree contribution      =    1490.00867066 Ry
     xc contribution           =   -1658.74132525 Ry
     ewald contribution        =   -4919.25534656 Ry
     one-center paw contrib.   =  -26328.81219604 Ry

     total magnetization       =     0.62 Bohr mag/cell
     absolute magnetization    =    78.24 Bohr mag/cell

     convergence has been achieved in  21 iterations

     Writing output data file mnau2.save
 
     init_run     :     29.15s CPU     30.02s WALL (       1 calls)
     electrons    :   1700.10s CPU   1755.61s WALL (       1 calls)

     Called by init_run:
     wfcinit      :     24.41s CPU     25.09s WALL (       1 calls)
     potinit      :      2.03s CPU      2.07s WALL (       1 calls)

     Called by electrons:
     c_bands      :   1477.30s CPU   1521.16s WALL (      21 calls)
     sum_band     :    177.28s CPU    185.78s WALL (      21 calls)
     v_of_rho     :      4.58s CPU      4.90s WALL (      22 calls)
     newd         :     15.48s CPU     17.80s WALL (      22 calls)
     PAW_pot      :     26.06s CPU     26.38s WALL (      22 calls)
     mix_rho      :      0.92s CPU      1.01s WALL (      21 calls)

     Called by c_bands:
     init_us_2    :      5.59s CPU      5.62s WALL (     516 calls)
     cegterg      :   1429.83s CPU   1471.87s WALL (     252 calls)

     Called by sum_band:
     sum_band:bec :      0.86s CPU      0.87s WALL (     252 calls)
     addusdens    :     32.11s CPU     34.68s WALL (      21 calls)

     Called by *egterg:
     h_psi        :    525.53s CPU    537.87s WALL (    1016 calls)
     s_psi        :     95.87s CPU     95.89s WALL (    1016 calls)
     g_psi        :      1.88s CPU      1.88s WALL (     752 calls)
     cdiaghg      :    495.62s CPU    495.71s WALL (    1004 calls)

     Called by h_psi:
     h_psi:pot    :    520.77s CPU    533.09s WALL (    1016 calls)
     h_psi:calbec :    111.92s CPU    115.22s WALL (    1016 calls)
     vloc_psi     :    311.59s CPU    320.54s WALL (    1016 calls)
     add_vuspsi   :     97.25s CPU     97.32s WALL (    1016 calls)

     General routines
     calbec       :    159.69s CPU    164.53s WALL (    1268 calls)
     fft          :     12.60s CPU     13.36s WALL (     672 calls)
     ffts         :      0.19s CPU      0.22s WALL (      86 calls)
     fftw         :    357.26s CPU    369.29s WALL (  566714 calls)
     interpolate  :      0.68s CPU      0.80s WALL (      86 calls)
 
     Parallel routines
     fft_scatt_xy :     43.01s CPU     44.42s WALL (  567472 calls)
     fft_scatt_yz :    154.15s CPU    160.90s WALL (  567472 calls)
 
     PWSCF        : 28m53.52s CPU    29m59.94s WALL

 
   This run was terminated on:   7:56:27   8Mar2019            

=------------------------------------------------------------------------------=
   JOB DONE.
=------------------------------------------------------------------------------=
