
     Program PWSCF v.6.2 (svn rev. 14038) starts on  7Mar2019 at 17:18:17 

     This program is part of the open-source Quantum ESPRESSO suite
     for quantum simulation of materials; please cite
         "P. Giannozzi et al., J. Phys.:Condens. Matter 21 395502 (2009);
         "P. Giannozzi et al., J. Phys.:Condens. Matter 29 465901 (2017);
          URL http://www.quantum-espresso.org", 
     in publications or presentations arising from this work. More details at
     http://www.quantum-espresso.org/quote

     Parallel version (MPI), running on    16 processors

     MPI processes distributed on     1 nodes
     R & G space division:  proc/nbgrp/npool/nimage =      16
     Waiting for input...
     Reading input from standard input

     Current dimensions of program PWSCF are:
     Max number of different atomic species (ntypx) = 10
     Max number of k-points (npk) =  40000
     Max angular momentum in pseudopotentials (lmaxx) =  3
               file Mn.pbe-spn-kjpaw_psl.0.3.1.UPF: wavefunction(s)  3P 3D renormalized
               file Mn.pbe-spn-kjpaw_psl.0.3.1.UPF: wavefunction(s)  3P 3D renormalized
               file Au.pbe-dn-kjpaw_psl.0.1.UPF: wavefunction(s)  6S 6P 5D renormalized

     Subspace diagonalization in iterative solution of the eigenvalue problem:
     a serial algorithm will be used

 
     Parallelization info
     --------------------
     sticks:   dense  smooth     PW     G-vecs:    dense   smooth      PW
     Min         736     331     90                52486    15847    2256
     Max         737     332     91                52489    15850    2259
     Sum       11785    5297   1449               839803   253559   36125
 


     bravais-lattice index     =            0
     lattice parameter (alat)  =      19.2459  a.u.
     unit-cell volume          =    6216.1497 (a.u.)^3
     number of atoms/cell      =           54
     number of atomic types    =            3
     number of electrons       =       666.00
     number of Kohn-Sham states=          400
     kinetic-energy cutoff     =      45.0000  Ry
     charge density cutoff     =     400.0000  Ry
     convergence threshold     =      1.0E-06
     mixing beta               =       0.1000
     number of iterations used =            8  plain     mixing
     Exchange-correlation      = SLA PW PBX PBC ( 1  4  3  4 0 0)

     celldm(1)=  19.245946  celldm(2)=   0.000000  celldm(3)=   0.000000
     celldm(4)=   0.000000  celldm(5)=   0.000000  celldm(6)=   0.000000

     crystal axes: (cart. coord. in units of alat)
               a(1) = (   1.000000   0.000000   0.000000 )  
               a(2) = (   0.000000   1.000000   0.000000 )  
               a(3) = (   0.000000   0.000000   0.871974 )  

     reciprocal axes: (cart. coord. in units 2 pi/alat)
               b(1) = (  1.000000  0.000000  0.000000 )  
               b(2) = (  0.000000  1.000000  0.000000 )  
               b(3) = (  0.000000  0.000000  1.146823 )  


     PseudoPot. # 1 for Mn read from file:
     ./pseudo/Mn.pbe-spn-kjpaw_psl.0.3.1.UPF
     MD5 check sum: 7eef95dd2aae66803482eea66ebeebf1
     Pseudo is Projector augmented-wave + core cor, Zval = 15.0
     Generated using "atomic" code by A. Dal Corso v.5.0.99 svn rev. 10869
     Shape of augmentation charge: PSQ
     Using radial grid of 1187 points,  6 beta functions with: 
                l(1) =   0
                l(2) =   0
                l(3) =   1
                l(4) =   1
                l(5) =   2
                l(6) =   2
     Q(r) pseudized with 0 coefficients 


     PseudoPot. # 2 for Mn read from file:
     ./pseudo/Mn.pbe-spn-kjpaw_psl.0.3.1.UPF
     MD5 check sum: 7eef95dd2aae66803482eea66ebeebf1
     Pseudo is Projector augmented-wave + core cor, Zval = 15.0
     Generated using "atomic" code by A. Dal Corso v.5.0.99 svn rev. 10869
     Shape of augmentation charge: PSQ
     Using radial grid of 1187 points,  6 beta functions with: 
                l(1) =   0
                l(2) =   0
                l(3) =   1
                l(4) =   1
                l(5) =   2
                l(6) =   2
     Q(r) pseudized with 0 coefficients 


     PseudoPot. # 3 for Au read from file:
     ./pseudo/Au.pbe-dn-kjpaw_psl.0.1.UPF
     MD5 check sum: 5c9b92683623e7ae2ab3f8e525febab6
     Pseudo is Projector augmented-wave + core cor, Zval = 11.0
     Generated using "atomic" code by A. Dal Corso v.5.0.2 svn rev. 9415
     Shape of augmentation charge: PSQ
     Using radial grid of 1279 points,  6 beta functions with: 
                l(1) =   0
                l(2) =   0
                l(3) =   1
                l(4) =   1
                l(5) =   2
                l(6) =   2
     Q(r) pseudized with 0 coefficients 


     atomic species   valence    mass     pseudopotential
        Mn1           15.00    54.93800     Mn( 1.00)
        Mn2           15.00    54.93800     Mn( 1.00)
        Au            11.00   196.96600     Au( 1.00)

     Starting magnetic structure 
     atomic species   magnetization
        Mn1          0.800
        Mn2         -0.800
        Au           0.000

      4 Sym. Ops. (no inversion) found



   Cartesian axes

     site n.     atom                  positions (alat units)
         1           Mn1 tau(   1) = (   0.0000000   0.0000000   0.0000000  )
         2           Mn2 tau(   2) = (   0.0000000   0.3333300   0.0000000  )
         3           Mn1 tau(   3) = (   0.0000000   0.6666700   0.0000000  )
         4           Mn2 tau(   4) = (   0.3333300   0.0000000   0.0000000  )
         5           Mn2 tau(   5) = (   0.3333300   0.3333300   0.0000000  )
         6           Mn1 tau(   6) = (   0.3333300   0.6666700   0.0000000  )
         7           Mn1 tau(   7) = (   0.6666700   0.0000000   0.0000000  )
         8           Mn1 tau(   8) = (   0.6666700   0.3333300   0.0000000  )
         9           Mn2 tau(   9) = (   0.6666700   0.6666700   0.0000000  )
        10           Mn2 tau(  10) = (   0.1666700   0.1666700   0.4359871  )
        11           Mn1 tau(  11) = (   0.1666700   0.5000000   0.4359871  )
        12           Mn2 tau(  12) = (   0.1666700   0.8333300   0.4359871  )
        13           Mn1 tau(  13) = (   0.5000000   0.1666700   0.4359871  )
        14           Mn1 tau(  14) = (   0.5000000   0.5000000   0.4359871  )
        15           Mn2 tau(  15) = (   0.5000000   0.8333300   0.4359871  )
        16           Mn2 tau(  16) = (   0.8333300   0.1666700   0.4359871  )
        17           Mn2 tau(  17) = (   0.8333300   0.5000000   0.4359871  )
        18           Mn1 tau(  18) = (   0.8333300   0.8333300   0.4359871  )
        19           Au  tau(  19) = (   0.1666700   0.1666700   0.7327374  )
        20           Au  tau(  20) = (   0.1666700   0.5000000   0.7327374  )
        21           Au  tau(  21) = (   0.1666700   0.8333300   0.7327374  )
        22           Au  tau(  22) = (   0.5000000   0.1666700   0.7327374  )
        23           Au  tau(  23) = (   0.5000000   0.5000000   0.7327374  )
        24           Au  tau(  24) = (   0.5000000   0.8333300   0.7327374  )
        25           Au  tau(  25) = (   0.8333300   0.1666700   0.7327374  )
        26           Au  tau(  26) = (   0.8333300   0.5000000   0.7327374  )
        27           Au  tau(  27) = (   0.8333300   0.8333300   0.7327374  )
        28           Au  tau(  28) = (   0.1666700   0.1666700   0.1392369  )
        29           Au  tau(  29) = (   0.1666700   0.5000000   0.1392369  )
        30           Au  tau(  30) = (   0.1666700   0.8333300   0.1392369  )
        31           Au  tau(  31) = (   0.5000000   0.1666700   0.1392369  )
        32           Au  tau(  32) = (   0.5000000   0.5000000   0.1392369  )
        33           Au  tau(  33) = (   0.5000000   0.8333300   0.1392369  )
        34           Au  tau(  34) = (   0.8333300   0.1666700   0.1392369  )
        35           Au  tau(  35) = (   0.8333300   0.5000000   0.1392369  )
        36           Au  tau(  36) = (   0.8333300   0.8333300   0.1392369  )
        37           Au  tau(  37) = (   0.0000000   0.0000000   0.2967503  )
        38           Au  tau(  38) = (   0.0000000   0.3333300   0.2967503  )
        39           Au  tau(  39) = (   0.0000000   0.6666700   0.2967503  )
        40           Au  tau(  40) = (   0.3333300   0.0000000   0.2967503  )
        41           Au  tau(  41) = (   0.3333300   0.3333300   0.2967503  )
        42           Au  tau(  42) = (   0.3333300   0.6666700   0.2967503  )
        43           Au  tau(  43) = (   0.6666700   0.0000000   0.2967503  )
        44           Au  tau(  44) = (   0.6666700   0.3333300   0.2967503  )
        45           Au  tau(  45) = (   0.6666700   0.6666700   0.2967503  )
        46           Au  tau(  46) = (   0.0000000   0.0000000   0.5752240  )
        47           Au  tau(  47) = (   0.0000000   0.3333300   0.5752240  )
        48           Au  tau(  48) = (   0.0000000   0.6666700   0.5752240  )
        49           Au  tau(  49) = (   0.3333300   0.0000000   0.5752240  )
        50           Au  tau(  50) = (   0.3333300   0.3333300   0.5752240  )
        51           Au  tau(  51) = (   0.3333300   0.6666700   0.5752240  )
        52           Au  tau(  52) = (   0.6666700   0.0000000   0.5752240  )
        53           Au  tau(  53) = (   0.6666700   0.3333300   0.5752240  )
        54           Au  tau(  54) = (   0.6666700   0.6666700   0.5752240  )

     number of k points=     6 (tetrahedron method)
                       cart. coord. in units 2pi/alat
        k(    1) = (   0.0000000   0.0000000   0.0000000), wk =   0.1250000
        k(    2) = (   0.0000000   0.0000000  -0.5734114), wk =   0.1250000
        k(    3) = (   0.0000000  -0.5000000   0.0000000), wk =   0.2500000
        k(    4) = (   0.0000000  -0.5000000  -0.5734114), wk =   0.2500000
        k(    5) = (  -0.5000000  -0.5000000   0.0000000), wk =   0.1250000
        k(    6) = (  -0.5000000  -0.5000000  -0.5734114), wk =   0.1250000

     Dense  grid:   839803 G-vectors     FFT dimensions: ( 125, 125, 108)

     Smooth grid:   253559 G-vectors     FFT dimensions: (  90,  90,  72)

     Estimated max dynamical RAM per process >     521.79 MB

     Estimated total dynamical RAM >       8.15 GB
     Generating pointlists ...
     new r_m :   0.1129 (alat units)  2.1733 (a.u.) for type    1
     new r_m :   0.1129 (alat units)  2.1733 (a.u.) for type    2
     new r_m :   0.1129 (alat units)  2.1733 (a.u.) for type    3

     Check: negative/imaginary core charge=   -0.000006    0.000000

     Initial potential from superposition of free atoms

     starting charge  665.98709, renormalised to  666.00000
     Starting wfc are  504 randomized atomic wfcs
     Checking if some PAW data can be deallocated... 

     total cpu time spent up to now is       31.4 secs

     Self-consistent Calculation

     iteration #  1     ecut=    45.00 Ry     beta= 0.10
     Davidson diagonalization with overlap
     ethr =  1.00E-02,  avg # of iterations =  3.5

     total cpu time spent up to now is      118.8 secs

     total energy              =  -33047.22398888 Ry
     Harris-Foulkes estimate   =  -33044.08453623 Ry
     estimated scf accuracy    <      26.95222394 Ry

     total magnetization       =    -0.05 Bohr mag/cell
     absolute magnetization    =    92.03 Bohr mag/cell

     iteration #  2     ecut=    45.00 Ry     beta= 0.10
     Davidson diagonalization with overlap
     ethr =  4.05E-03,  avg # of iterations =  1.0

     total cpu time spent up to now is      176.6 secs

     total energy              =  -33058.55938885 Ry
     Harris-Foulkes estimate   =  -33047.40172693 Ry
     estimated scf accuracy    <      21.31487685 Ry

     total magnetization       =    -0.04 Bohr mag/cell
     absolute magnetization    =    91.67 Bohr mag/cell

     iteration #  3     ecut=    45.00 Ry     beta= 0.10
     Davidson diagonalization with overlap
     ethr =  3.20E-03,  avg # of iterations =  2.2

     total cpu time spent up to now is      247.8 secs

     total energy              =  -33066.28846673 Ry
     Harris-Foulkes estimate   =  -33061.33867227 Ry
     estimated scf accuracy    <       8.85499169 Ry

     total magnetization       =     0.03 Bohr mag/cell
     absolute magnetization    =    85.72 Bohr mag/cell

     iteration #  4     ecut=    45.00 Ry     beta= 0.10
     Davidson diagonalization with overlap
     ethr =  1.33E-03,  avg # of iterations =  4.3

     total cpu time spent up to now is      355.8 secs

     total energy              =  -33058.44292951 Ry
     Harris-Foulkes estimate   =  -33069.06622973 Ry
     estimated scf accuracy    <      53.31435491 Ry

     total magnetization       =     0.44 Bohr mag/cell
     absolute magnetization    =    71.63 Bohr mag/cell

     iteration #  5     ecut=    45.00 Ry     beta= 0.10
     Davidson diagonalization with overlap
     ethr =  1.33E-03,  avg # of iterations =  4.7

     total cpu time spent up to now is      480.8 secs

     total energy              =  -33061.99084672 Ry
     Harris-Foulkes estimate   =  -33062.49423207 Ry
     estimated scf accuracy    <       3.30595328 Ry

     total magnetization       =    -0.03 Bohr mag/cell
     absolute magnetization    =    83.54 Bohr mag/cell

     iteration #  6     ecut=    45.00 Ry     beta= 0.10
     Davidson diagonalization with overlap
     ethr =  4.96E-04,  avg # of iterations =  3.5

     total cpu time spent up to now is      563.0 secs

     total energy              =  -33062.52308776 Ry
     Harris-Foulkes estimate   =  -33062.55082584 Ry
     estimated scf accuracy    <       0.30397346 Ry

     total magnetization       =    -0.52 Bohr mag/cell
     absolute magnetization    =    79.04 Bohr mag/cell

     iteration #  7     ecut=    45.00 Ry     beta= 0.10
     Davidson diagonalization with overlap
     ethr =  4.56E-05,  avg # of iterations =  4.7

     total cpu time spent up to now is      656.7 secs

     total energy              =  -33062.56775832 Ry
     Harris-Foulkes estimate   =  -33062.55887535 Ry
     estimated scf accuracy    <       0.06828444 Ry

     total magnetization       =    -0.49 Bohr mag/cell
     absolute magnetization    =    78.65 Bohr mag/cell

     iteration #  8     ecut=    45.00 Ry     beta= 0.10
     Davidson diagonalization with overlap
     ethr =  1.03E-05,  avg # of iterations =  4.8

     total cpu time spent up to now is      782.9 secs

     total energy              =  -33062.56917249 Ry
     Harris-Foulkes estimate   =  -33062.60100418 Ry
     estimated scf accuracy    <       0.39256766 Ry

     total magnetization       =    -0.51 Bohr mag/cell
     absolute magnetization    =    78.07 Bohr mag/cell

     iteration #  9     ecut=    45.00 Ry     beta= 0.10
     Davidson diagonalization with overlap
     ethr =  1.03E-05,  avg # of iterations =  2.1

     total cpu time spent up to now is      848.2 secs

     total energy              =  -33062.56226359 Ry
     Harris-Foulkes estimate   =  -33062.57566853 Ry
     estimated scf accuracy    <       0.16082215 Ry

     total magnetization       =    -0.52 Bohr mag/cell
     absolute magnetization    =    78.22 Bohr mag/cell

     iteration # 10     ecut=    45.00 Ry     beta= 0.10
     Davidson diagonalization with overlap
     ethr =  1.03E-05,  avg # of iterations =  2.0

     total cpu time spent up to now is      913.1 secs

     total energy              =  -33062.55463931 Ry
     Harris-Foulkes estimate   =  -33062.56767267 Ry
     estimated scf accuracy    <       0.05768365 Ry

     total magnetization       =    -0.56 Bohr mag/cell
     absolute magnetization    =    78.44 Bohr mag/cell

     iteration # 11     ecut=    45.00 Ry     beta= 0.10
     Davidson diagonalization with overlap
     ethr =  8.66E-06,  avg # of iterations =  3.6

     total cpu time spent up to now is      993.0 secs

     total energy              =  -33062.56211293 Ry
     Harris-Foulkes estimate   =  -33062.56255046 Ry
     estimated scf accuracy    <       0.00374011 Ry

     total magnetization       =    -0.56 Bohr mag/cell
     absolute magnetization    =    78.63 Bohr mag/cell

     iteration # 12     ecut=    45.00 Ry     beta= 0.10
     Davidson diagonalization with overlap
     ethr =  5.62E-07,  avg # of iterations =  3.8

     total cpu time spent up to now is     1082.6 secs

     total energy              =  -33062.56435742 Ry
     Harris-Foulkes estimate   =  -33062.56330562 Ry
     estimated scf accuracy    <       0.00692597 Ry

     total magnetization       =    -0.59 Bohr mag/cell
     absolute magnetization    =    78.57 Bohr mag/cell

     iteration # 13     ecut=    45.00 Ry     beta= 0.10
     Davidson diagonalization with overlap
     ethr =  5.62E-07,  avg # of iterations =  2.0

     total cpu time spent up to now is     1151.4 secs

     total energy              =  -33062.56509688 Ry
     Harris-Foulkes estimate   =  -33062.56485918 Ry
     estimated scf accuracy    <       0.00048729 Ry

     total magnetization       =    -0.59 Bohr mag/cell
     absolute magnetization    =    78.38 Bohr mag/cell

     iteration # 14     ecut=    45.00 Ry     beta= 0.10
     Davidson diagonalization with overlap
     ethr =  7.32E-08,  avg # of iterations =  3.0

     total cpu time spent up to now is     1232.2 secs

     total energy              =  -33062.56528323 Ry
     Harris-Foulkes estimate   =  -33062.56515316 Ry
     estimated scf accuracy    <       0.00020448 Ry

     total magnetization       =    -0.59 Bohr mag/cell
     absolute magnetization    =    78.35 Bohr mag/cell

     iteration # 15     ecut=    45.00 Ry     beta= 0.10
     Davidson diagonalization with overlap
     ethr =  3.07E-08,  avg # of iterations =  2.1

     total cpu time spent up to now is     1296.9 secs

     total energy              =  -33062.56549686 Ry
     Harris-Foulkes estimate   =  -33062.56529853 Ry
     estimated scf accuracy    <       0.00011722 Ry

     total magnetization       =    -0.60 Bohr mag/cell
     absolute magnetization    =    78.32 Bohr mag/cell

     iteration # 16     ecut=    45.00 Ry     beta= 0.10
     Davidson diagonalization with overlap
     ethr =  1.76E-08,  avg # of iterations =  2.1

     total cpu time spent up to now is     1363.8 secs

     total energy              =  -33062.56559645 Ry
     Harris-Foulkes estimate   =  -33062.56550355 Ry
     estimated scf accuracy    <       0.00006288 Ry

     total magnetization       =    -0.60 Bohr mag/cell
     absolute magnetization    =    78.30 Bohr mag/cell

     iteration # 17     ecut=    45.00 Ry     beta= 0.10
     Davidson diagonalization with overlap
     ethr =  9.44E-09,  avg # of iterations =  2.7

     total cpu time spent up to now is     1436.6 secs

     total energy              =  -33062.56563285 Ry
     Harris-Foulkes estimate   =  -33062.56558896 Ry
     estimated scf accuracy    <       0.00002783 Ry

     total magnetization       =    -0.61 Bohr mag/cell
     absolute magnetization    =    78.28 Bohr mag/cell

     iteration # 18     ecut=    45.00 Ry     beta= 0.10
     Davidson diagonalization with overlap
     ethr =  4.18E-09,  avg # of iterations =  3.1

     total cpu time spent up to now is     1527.8 secs

     total energy              =  -33062.56563151 Ry
     Harris-Foulkes estimate   =  -33062.56562093 Ry
     estimated scf accuracy    <       0.00000673 Ry

     total magnetization       =    -0.62 Bohr mag/cell
     absolute magnetization    =    78.25 Bohr mag/cell

     iteration # 19     ecut=    45.00 Ry     beta= 0.10
     Davidson diagonalization with overlap
     ethr =  1.01E-09,  avg # of iterations =  2.2

     total cpu time spent up to now is     1596.1 secs

     total energy              =  -33062.56563278 Ry
     Harris-Foulkes estimate   =  -33062.56562612 Ry
     estimated scf accuracy    <       0.00000269 Ry

     total magnetization       =    -0.62 Bohr mag/cell
     absolute magnetization    =    78.25 Bohr mag/cell

     iteration # 20     ecut=    45.00 Ry     beta= 0.10
     Davidson diagonalization with overlap
     ethr =  4.04E-10,  avg # of iterations =  2.5

     total cpu time spent up to now is     1664.9 secs

     total energy              =  -33062.56563758 Ry
     Harris-Foulkes estimate   =  -33062.56563193 Ry
     estimated scf accuracy    <       0.00000188 Ry

     total magnetization       =    -0.62 Bohr mag/cell
     absolute magnetization    =    78.24 Bohr mag/cell

     iteration # 21     ecut=    45.00 Ry     beta= 0.10
     Davidson diagonalization with overlap
     ethr =  2.83E-10,  avg # of iterations =  2.2
 
     Magnetic moment per site:
     atom:    1    charge:   13.5695    magn:    4.0240    constr:    0.0000
     atom:    2    charge:   13.5741    magn:   -4.0430    constr:    0.0000
     atom:    3    charge:   13.5777    magn:    3.9827    constr:    0.0000
     atom:    4    charge:   13.5741    magn:   -4.0430    constr:    0.0000
     atom:    5    charge:   13.5801    magn:   -3.9766    constr:    0.0000
     atom:    6    charge:   13.5828    magn:    3.9471    constr:    0.0000
     atom:    7    charge:   13.5777    magn:    3.9827    constr:    0.0000
     atom:    8    charge:   13.5828    magn:    3.9471    constr:    0.0000
     atom:    9    charge:   13.5721    magn:   -4.0808    constr:    0.0000
     atom:   10    charge:   13.5746    magn:   -4.0157    constr:    0.0000
     atom:   11    charge:   13.5741    magn:    4.0352    constr:    0.0000
     atom:   12    charge:   13.5800    magn:   -3.9687    constr:    0.0000
     atom:   13    charge:   13.5741    magn:    4.0352    constr:    0.0000
     atom:   14    charge:   13.5807    magn:    3.9513    constr:    0.0000
     atom:   15    charge:   13.5727    magn:   -4.0482    constr:    0.0000
     atom:   16    charge:   13.5800    magn:   -3.9687    constr:    0.0000
     atom:   17    charge:   13.5727    magn:   -4.0482    constr:    0.0000
     atom:   18    charge:   13.5812    magn:    3.9693    constr:    0.0000
     atom:   19    charge:    9.1213    magn:   -0.0473    constr:    0.0000
     atom:   20    charge:    9.1208    magn:    0.0062    constr:    0.0000
     atom:   21    charge:    9.1200    magn:    0.0150    constr:    0.0000
     atom:   22    charge:    9.1208    magn:    0.0062    constr:    0.0000
     atom:   23    charge:    9.1217    magn:    0.0081    constr:    0.0000
     atom:   24    charge:    9.1208    magn:   -0.0154    constr:    0.0000
     atom:   25    charge:    9.1200    magn:    0.0150    constr:    0.0000
     atom:   26    charge:    9.1208    magn:   -0.0154    constr:    0.0000
     atom:   27    charge:    9.1195    magn:    0.0291    constr:    0.0000
     atom:   28    charge:    9.1213    magn:   -0.0473    constr:    0.0000
     atom:   29    charge:    9.1208    magn:    0.0062    constr:    0.0000
     atom:   30    charge:    9.1200    magn:    0.0150    constr:    0.0000
     atom:   31    charge:    9.1208    magn:    0.0062    constr:    0.0000
     atom:   32    charge:    9.1217    magn:    0.0081    constr:    0.0000
     atom:   33    charge:    9.1208    magn:   -0.0154    constr:    0.0000
     atom:   34    charge:    9.1200    magn:    0.0150    constr:    0.0000
     atom:   35    charge:    9.1208    magn:   -0.0154    constr:    0.0000
     atom:   36    charge:    9.1195    magn:    0.0291    constr:    0.0000
     atom:   37    charge:    9.1208    magn:   -0.0182    constr:    0.0000
     atom:   38    charge:    9.1208    magn:   -0.0447    constr:    0.0000
     atom:   39    charge:    9.1212    magn:    0.0112    constr:    0.0000
     atom:   40    charge:    9.1208    magn:   -0.0447    constr:    0.0000
     atom:   41    charge:    9.1211    magn:    0.0137    constr:    0.0000
     atom:   42    charge:    9.1195    magn:    0.0000    constr:    0.0000
     atom:   43    charge:    9.1212    magn:    0.0112    constr:    0.0000
     atom:   44    charge:    9.1195    magn:    0.0000    constr:    0.0000
     atom:   45    charge:    9.1213    magn:   -0.0142    constr:    0.0000
     atom:   46    charge:    9.1208    magn:   -0.0182    constr:    0.0000
     atom:   47    charge:    9.1208    magn:   -0.0447    constr:    0.0000
     atom:   48    charge:    9.1212    magn:    0.0112    constr:    0.0000
     atom:   49    charge:    9.1208    magn:   -0.0447    constr:    0.0000
     atom:   50    charge:    9.1211    magn:    0.0137    constr:    0.0000
     atom:   51    charge:    9.1195    magn:    0.0000    constr:    0.0000
     atom:   52    charge:    9.1212    magn:    0.0112    constr:    0.0000
     atom:   53    charge:    9.1195    magn:    0.0000    constr:    0.0000
     atom:   54    charge:    9.1213    magn:   -0.0142    constr:    0.0000

     total cpu time spent up to now is     1741.8 secs

     End of self-consistent calculation

 ------ SPIN UP ------------


          k = 0.0000 0.0000 0.0000 ( 31747 PWs)   bands (ev):

   -66.7850 -66.6982 -66.6982 -66.6584 -66.6583 -66.6188 -66.5908 -66.5905
   -66.5904 -62.3809 -62.3729 -62.3729 -62.3631 -62.3631 -62.3567 -62.3567
   -62.3518 -62.3164 -35.5470 -35.5228 -35.5101 -35.4667 -35.4667 -35.4578
   -35.4578 -35.4327 -35.4327 -35.4057 -35.4057 -35.4031 -35.4029 -35.3883
   -35.3771 -35.3736 -35.3662 -35.3661 -35.3482 -35.3481 -35.3459 -35.3459
   -35.3333 -35.3229 -35.3101 -35.3100 -35.2993 -31.2285 -31.2285 -31.2265
   -31.2055 -31.2048 -31.2019 -31.2015 -31.1991 -31.1950 -31.1934 -31.1919
   -31.1910 -31.1865 -31.1863 -31.1801 -31.1800 -31.1795 -31.1744 -31.1735
   -31.1734 -31.1728 -31.1638 -31.1637 -31.1614 -31.1549 -31.1395 -31.1373
     5.6185   7.1431   7.1457   7.2188   7.2214   7.3657   7.8408   7.8970
     7.9064   7.9678   8.0879   8.0880   8.1473   8.1855   8.1877   8.2605
     8.2640   8.2939   8.2962   8.5200   8.5563   8.5605   8.5729   8.5764
     8.6502   8.8619   8.8633   8.8646   8.8814   8.8882   8.8894   8.8952
     8.8975   8.9014   8.9138   8.9207   8.9483   8.9592   8.9617   8.9789
     8.9830   9.0843   9.1235   9.1277   9.1286   9.1371   9.1541   9.1585
     9.1970   9.1978   9.2233   9.2711   9.2926   9.3015   9.3066   9.3340
     9.3513   9.3549   9.3690   9.3719   9.3965   9.3965   9.4091   9.4433
     9.4509   9.4531   9.4631   9.4666   9.4695   9.4701   9.4775   9.5793
     9.5814   9.5913   9.5916   9.6179   9.6304   9.6682   9.6701   9.6716
     9.6739   9.6747   9.6776   9.7498   9.7589   9.7727   9.7879   9.8514
     9.8526   9.9098   9.9148   9.9432   9.9444   9.9494  10.0001  10.0388
    10.0770  10.1185  10.1446  10.2041  10.2833  10.2835  10.2951  10.2977
    10.3073  10.3102  10.3198  10.3252  10.3333  10.3365  10.3400  10.3414
    10.3450  10.3472  10.3633  10.3645  10.3653  10.3744  10.3844  10.3850
    10.3889  10.4959  10.5245  10.5425  10.6194  10.6227  10.6334  10.6354
    10.6774  10.7829  10.7902  10.8073  10.8129  10.8174  10.8478  10.8513
    10.8636  10.8678  10.8694  10.8722  10.8767  10.8915  10.8936  10.9023
    10.9097  10.9101  11.0329  11.0352  11.0769  11.0786  11.1509  11.1946
    11.2137  11.2141  11.2276  11.2370  11.2558  11.2905  11.3002  11.3300
    11.3338  11.3925  11.3997  11.4042  11.4072  11.4122  11.4378  11.4393
    11.4617  11.5884  11.5913  11.5935  11.5975  11.5986  11.6127  11.6363
    11.6415  11.6444  11.7262  11.7280  11.7509  11.7537  11.7694  11.8104
    11.8149  11.8401  11.8415  11.8708  11.9018  11.9188  11.9320  11.9530
    11.9574  12.0147  12.0665  12.1009  12.1024  12.1048  12.1065  12.1088
    12.1416  12.1465  12.1476  12.1476  12.1517  12.1532  12.1716  12.1868
    12.2510  12.2947  12.3502  12.3533  12.3556  12.3876  12.4362  12.4374
    12.4473  12.4772  12.4796  12.4943  12.4946  12.5137  12.5364  12.5428
    12.5631  12.5641  12.5701  12.6064  12.6151  12.6171  12.6545  12.6917
    12.7110  12.7532  12.7654  12.7871  12.8312  12.8667  13.0319  13.0557
    13.1249  13.1293  13.1729  13.1785  13.4652  13.6477  13.8327  13.8581
    13.8670  14.0894  14.1764  14.2006  14.2577  14.4366  14.4504  14.6008
    14.7712  14.8427  14.9206  14.9912  15.0613  15.0984  15.1082  15.1809
    15.2019  15.2607  15.3005  15.3083  15.3615  15.4460  15.5232  15.5339
    15.6953  15.7339  15.7646  15.8005  15.8665  15.9593  16.0107  16.0201
    16.0259  16.0755  16.1018  16.1176  16.1210  16.1676  16.1723  16.1882
    16.1900  16.1991  16.2469  16.2814  16.3202  16.3532  16.3573  16.3971
    16.4734  16.4802  16.4999  16.6145  16.6311  16.6403  16.8147  16.8998
    16.9532  17.0386  17.1757  17.1987  17.2201  17.2414  17.3420  17.3430
    17.4308  17.4781  17.7938  17.8839  17.9358  17.9424  17.9854  18.0121
    18.2961  18.3378  18.4860  18.8630  19.0375  19.0597  19.1575  19.2073

          k = 0.0000 0.0000-0.5734 ( 31692 PWs)   bands (ev):

   -66.7850 -66.6982 -66.6982 -66.6584 -66.6583 -66.6188 -66.5908 -66.5905
   -66.5904 -62.3809 -62.3729 -62.3729 -62.3631 -62.3631 -62.3567 -62.3567
   -62.3518 -62.3164 -35.5470 -35.5228 -35.5101 -35.4667 -35.4667 -35.4578
   -35.4578 -35.4327 -35.4327 -35.4057 -35.4057 -35.4031 -35.4029 -35.3883
   -35.3771 -35.3736 -35.3662 -35.3661 -35.3482 -35.3481 -35.3459 -35.3459
   -35.3333 -35.3229 -35.3101 -35.3100 -35.2993 -31.2285 -31.2285 -31.2265
   -31.2055 -31.2048 -31.2019 -31.2015 -31.1991 -31.1950 -31.1934 -31.1919
   -31.1910 -31.1865 -31.1863 -31.1801 -31.1800 -31.1795 -31.1744 -31.1735
   -31.1734 -31.1728 -31.1638 -31.1637 -31.1614 -31.1549 -31.1395 -31.1373
     6.1791   6.1968   7.5285   7.5442   7.5609   7.5671   7.6071   7.6151
     7.6229   7.6358   8.3053   8.3157   8.3297   8.3462   8.3606   8.3655
     8.3961   8.4021   8.4544   8.4589   8.4766   8.4833   8.5115   8.5127
     8.5128   8.5129   8.6977   8.7058   8.7659   8.7829   8.9460   8.9555
     8.9783   8.9803   8.9805   8.9959   9.0028   9.0055   9.0141   9.0286
     9.0295   9.0414   9.0423   9.0470   9.0720   9.0811   9.2151   9.2257
     9.2303   9.2405   9.2546   9.2559   9.2687   9.2701   9.2747   9.2839
     9.2846   9.2877   9.2919   9.2937   9.2968   9.2985   9.4054   9.4100
     9.4318   9.4342   9.4547   9.4557   9.4588   9.4747   9.4792   9.4813
     9.4916   9.4974   9.5023   9.5063   9.5129   9.5210   9.6422   9.6667
     9.7723   9.7781   9.7982   9.8026   9.8252   9.8293   9.8366   9.8468
     9.8774   9.8782   9.8782   9.8802   9.8885   9.8900   9.8954   9.8959
    10.0610  10.0620  10.0623  10.0641  10.1540  10.1617  10.1620  10.1657
    10.1659  10.1662  10.1793  10.1952  10.2023  10.2048  10.3716  10.3726
    10.3778  10.3817  10.4007  10.4011  10.4126  10.4287  10.4852  10.5082
    10.5734  10.5804  10.5896  10.6032  10.6290  10.6469  10.6674  10.6764
    10.6834  10.6889  10.7315  10.7418  10.7562  10.8014  10.8083  10.8712
    10.9292  10.9334  10.9411  10.9835  11.0291  11.0355  11.0368  11.0453
    11.0750  11.0789  11.0856  11.1584  11.2063  11.2151  11.2176  11.2238
    11.2476  11.2485  11.2526  11.2534  11.2642  11.2693  11.2769  11.2827
    11.2839  11.2841  11.2915  11.2946  11.2948  11.2960  11.3057  11.3092
    11.3124  11.3167  11.3185  11.3193  11.5355  11.5444  11.7134  11.7137
    11.7150  11.7168  11.7186  11.7244  11.7337  11.7351  11.7381  11.7541
    11.7665  11.7702  11.7741  11.7824  11.7868  11.8502  11.8952  11.9418
    11.9512  11.9706  12.0078  12.0106  12.0571  12.0614  12.0861  12.1165
    12.1406  12.1678  12.1708  12.2419  12.2465  12.2516  12.2677  12.4149
    12.4250  12.4423  12.4464  12.4644  12.4919  12.5047  12.5067  12.5334
    12.5376  12.5595  12.5595  12.6094  12.6105  12.6159  12.6376  12.6505
    12.6581  12.6953  12.7106  12.7154  12.7485  12.7646  12.7788  12.8097
    12.8633  12.9197  12.9832  13.0638  13.1361  13.2058  13.2161  13.2365
    13.2851  13.2872  13.3448  13.5073  13.5172  13.5221  13.7361  13.7679
    13.7760  13.9129  13.9509  14.0817  14.1342  14.3014  14.3650  14.4708
    14.7365  14.9009  14.9466  14.9509  14.9530  14.9828  14.9844  15.1206
    15.2150  15.2322  15.2592  15.3336  15.3338  15.3705  15.3998  15.4307
    15.4577  15.6211  15.7395  15.7745  15.8314  15.9395  16.0115  16.0546
    16.0668  16.1173  16.1177  16.1303  16.1402  16.1511  16.1946  16.1956
    16.2022  16.2245  16.2248  16.2342  16.2379  16.2448  16.2468  16.2485
    16.3910  16.4222  16.6121  16.6208  16.6501  16.6783  16.7003  16.7232
    16.7325  16.7644  17.4219  17.4490  17.4599  17.4916  17.5343  17.5507
    17.5669  17.5829  17.6595  17.6599  17.7226  17.7622  17.8247  17.8690
    17.8771  17.8792  18.1049  18.1395  18.1869  18.2497  18.3058  18.3454

          k = 0.0000-0.5000 0.0000 ( 31722 PWs)   bands (ev):

   -66.7850 -66.6982 -66.6982 -66.6584 -66.6583 -66.6188 -66.5908 -66.5905
   -66.5904 -62.3809 -62.3729 -62.3729 -62.3631 -62.3631 -62.3567 -62.3567
   -62.3518 -62.3164 -35.5470 -35.5228 -35.5101 -35.4667 -35.4667 -35.4578
   -35.4578 -35.4327 -35.4327 -35.4057 -35.4057 -35.4032 -35.4029 -35.3883
   -35.3771 -35.3736 -35.3662 -35.3661 -35.3482 -35.3481 -35.3459 -35.3459
   -35.3333 -35.3229 -35.3101 -35.3100 -35.2993 -31.2285 -31.2285 -31.2265
   -31.2055 -31.2048 -31.2019 -31.2015 -31.1991 -31.1950 -31.1933 -31.1919
   -31.1910 -31.1864 -31.1863 -31.1801 -31.1800 -31.1795 -31.1744 -31.1735
   -31.1734 -31.1728 -31.1638 -31.1637 -31.1614 -31.1549 -31.1395 -31.1373
     6.0419   6.0499   7.4222   7.4387   7.4612   7.4835   7.6715   7.6830
     8.1111   8.1140   8.1296   8.1639   8.2231   8.2356   8.2436   8.2753
     8.4115   8.4291   8.4566   8.4795   8.6311   8.6399   8.6498   8.6572
     8.6697   8.6734   8.6779   8.6956   8.7803   8.8062   8.8307   8.8411
     8.8573   8.8587   8.8781   8.8853   8.8964   8.9023   8.9093   8.9296
     8.9317   8.9368   8.9428   8.9546   9.0447   9.0538   9.1592   9.1679
     9.1766   9.2106   9.2155   9.2268   9.2394   9.2483   9.3036   9.3367
     9.3509   9.3767   9.4017   9.4177   9.4774   9.4816   9.4992   9.5071
     9.5413   9.5419   9.5588   9.5634   9.5899   9.6075   9.6091   9.6192
     9.6283   9.6298   9.6323   9.6344   9.6377   9.6378   9.6440   9.6575
     9.6665   9.6776   9.6815   9.6848   9.6928   9.7105   9.7207   9.7281
     9.7434   9.7470   9.7505   9.7733   9.8974   9.8994   9.9354   9.9565
    10.0136  10.0347  10.1628  10.1844  10.2059  10.2181  10.2542  10.2569
    10.2592  10.2657  10.2750  10.2796  10.2825  10.2857  10.3425  10.3594
    10.3729  10.3811  10.3845  10.3887  10.4299  10.4416  10.4632  10.4830
    10.5078  10.5293  10.5309  10.5490  10.5601  10.5673  10.5692  10.5984
    10.6097  10.6566  10.6655  10.7023  10.7109  10.7212  10.7331  10.7480
    10.8064  10.8174  10.8338  10.8504  10.8682  10.9038  10.9179  10.9308
    10.9939  11.0032  11.0201  11.0225  11.0386  11.0568  11.1744  11.1812
    11.2964  11.3399  11.3481  11.3496  11.3760  11.3807  11.3813  11.4024
    11.4081  11.4308  11.4359  11.4850  11.5082  11.5225  11.5483  11.5774
    11.6017  11.6044  11.6315  11.6318  11.6611  11.6747  11.7138  11.7457
    11.7681  11.7738  11.8126  11.8369  11.8375  11.8453  11.8524  11.8611
    11.8754  11.8906  11.9015  11.9123  11.9158  11.9429  11.9462  11.9643
    11.9794  11.9880  11.9909  11.9991  12.0334  12.1076  12.1332  12.1381
    12.1654  12.1907  12.1950  12.2052  12.2108  12.2358  12.2461  12.2810
    12.2966  12.3412  12.3613  12.3860  12.3888  12.4159  12.4284  12.4551
    12.4643  12.4962  12.5003  12.5293  12.5303  12.5524  12.5641  12.5723
    12.5754  12.6012  12.6055  12.6182  12.6778  12.6927  12.7370  12.8161
    12.8813  12.9306  13.0631  13.0743  13.0802  13.0874  13.1178  13.1507
    13.1807  13.2019  13.2224  13.2434  13.2533  13.2966  13.3149  13.3763
    13.4211  13.5532  13.5542  13.6215  13.7094  14.4306  14.4625  14.5358
    14.5905  14.6861  14.7529  14.7966  14.8044  14.8627  14.8737  14.9936
    15.0395  15.1429  15.1485  15.3227  15.3616  15.4365  15.5278  15.6004
    15.6960  15.7325  15.7520  15.8204  15.8660  15.8989  15.9447  16.0446
    16.0633  16.0947  16.1105  16.1338  16.1354  16.1674  16.1680  16.1736
    16.2033  16.2085  16.2269  16.2407  16.2838  16.3061  16.3332  16.3568
    16.4053  16.4307  16.5061  16.5976  16.6694  16.7456  16.9923  17.0745
    17.1518  17.2169  17.2737  17.3230  17.4043  17.4807  17.6360  17.6431
    17.7635  17.7978  17.8006  17.8187  17.8637  17.8740  17.8826  17.9280
    17.9335  18.0943  18.1791  18.1992  19.2564  19.2723  19.3567  19.3693

          k = 0.0000-0.5000-0.5734 ( 31696 PWs)   bands (ev):

   -66.7850 -66.6982 -66.6982 -66.6584 -66.6583 -66.6188 -66.5908 -66.5905
   -66.5904 -62.3809 -62.3729 -62.3729 -62.3631 -62.3631 -62.3567 -62.3567
   -62.3518 -62.3164 -35.5470 -35.5228 -35.5101 -35.4667 -35.4667 -35.4578
   -35.4578 -35.4327 -35.4327 -35.4057 -35.4057 -35.4031 -35.4029 -35.3883
   -35.3771 -35.3736 -35.3662 -35.3661 -35.3482 -35.3481 -35.3459 -35.3459
   -35.3333 -35.3229 -35.3101 -35.3100 -35.2993 -31.2285 -31.2285 -31.2265
   -31.2055 -31.2048 -31.2019 -31.2015 -31.1991 -31.1950 -31.1933 -31.1919
   -31.1910 -31.1864 -31.1863 -31.1801 -31.1800 -31.1795 -31.1744 -31.1735
   -31.1734 -31.1728 -31.1638 -31.1637 -31.1614 -31.1549 -31.1395 -31.1373
     6.5579   6.5744   6.5978   6.6146   7.8405   7.8517   7.8794   7.8901
     7.8976   7.9098   7.9268   7.9436   8.2735   8.2764   8.3060   8.3069
     8.5226   8.5247   8.5331   8.5331   8.6541   8.6569   8.6799   8.6874
     8.6918   8.6928   8.7073   8.7204   8.7322   8.7441   8.7567   8.7575
     8.7686   8.7700   8.7879   8.8026   8.9823   8.9981   9.0148   9.0346
     9.0385   9.0466   9.0485   9.0554   9.2132   9.2173   9.2209   9.2215
     9.2224   9.2316   9.2330   9.2461   9.2485   9.2524   9.2558   9.2566
     9.2615   9.2693   9.2845   9.2897   9.2912   9.3175   9.3952   9.4025
     9.4316   9.4356   9.4372   9.4556   9.4623   9.4664   9.4677   9.4817
     9.4835   9.5014   9.5175   9.5260   9.5276   9.5514   9.5608   9.5681
     9.5739   9.5896   9.7563   9.7585   9.7940   9.8017   9.8078   9.8288
     9.8291   9.8297   9.8503   9.8546   9.8565   9.8611   9.8616   9.8743
     9.9728   9.9802   9.9925   9.9963  10.0216  10.0260  10.0636  10.0664
    10.3715  10.3779  10.3983  10.4013  10.4030  10.4094  10.4145  10.4513
    10.4652  10.4672  10.4761  10.4772  10.4964  10.4969  10.5137  10.5143
    10.5354  10.5514  10.5631  10.5760  10.5924  10.6100  10.6183  10.6203
    10.6298  10.6330  10.6621  10.6727  10.6801  10.6812  10.6869  10.6966
    10.7728  10.7909  10.9531  10.9597  10.9843  10.9935  11.0409  11.0478
    11.1194  11.1235  11.1360  11.1562  11.1692  11.1856  11.2124  11.2130
    11.2185  11.2282  11.2900  11.3286  11.3352  11.3376  11.3648  11.3677
    11.3745  11.3771  11.4237  11.4248  11.4349  11.4408  11.5067  11.5133
    11.5304  11.5593  11.5684  11.5733  11.5870  11.6115  11.6242  11.6306
    11.6364  11.6367  11.7344  11.7508  11.7558  11.7656  11.8254  11.8849
    11.8899  11.9227  11.9273  11.9386  11.9486  11.9851  12.0182  12.0195
    12.0319  12.0370  12.0404  12.0444  12.0446  12.0739  12.0914  12.1331
    12.1467  12.1741  12.1928  12.2225  12.2611  12.2680  12.2733  12.3044
    12.3722  12.3822  12.4039  12.4083  12.4392  12.4544  12.4696  12.5056
    12.5059  12.5410  12.5462  12.5614  12.5670  12.6000  12.6030  12.6103
    12.6170  12.6459  12.6461  12.6516  12.6677  12.7040  12.7165  12.7691
    12.7737  12.8567  12.8694  12.9226  13.0118  13.0431  13.0474  13.0715
    13.0875  13.3771  13.5033  13.5164  13.6351  13.7219  13.7445  13.7877
    13.8056  13.9852  14.0258  14.0872  14.0982  14.2641  14.3448  14.3592
    14.4008  14.5195  14.5536  14.5570  14.6261  14.8605  14.8652  15.1086
    15.2068  15.2284  15.2493  15.2709  15.2951  15.3516  15.3943  15.5103
    15.5918  15.6388  15.6838  15.8751  15.8872  15.9732  15.9819  16.0212
    16.0501  16.0753  16.1093  16.1279  16.1547  16.1865  16.2166  16.2357
    16.2678  16.3054  16.3442  16.3535  16.3810  16.3910  16.4126  16.4417
    16.4763  16.4994  16.5346  16.5607  16.5963  16.6217  16.6615  16.6802
    16.6938  16.7054  16.7252  16.7689  16.8839  16.8843  16.9981  17.0497
    17.0834  17.1316  17.2696  17.3197  18.6748  18.7053  18.7298  18.7521
    18.7793  18.7839  18.8527  18.8727  18.9114  18.9199  18.9394  18.9616

          k =-0.5000-0.5000 0.0000 ( 31612 PWs)   bands (ev):

   -66.7850 -66.6982 -66.6982 -66.6584 -66.6583 -66.6188 -66.5908 -66.5905
   -66.5904 -62.3809 -62.3729 -62.3729 -62.3631 -62.3631 -62.3567 -62.3567
   -62.3518 -62.3164 -35.5470 -35.5228 -35.5101 -35.4667 -35.4667 -35.4578
   -35.4578 -35.4327 -35.4327 -35.4057 -35.4057 -35.4031 -35.4029 -35.3883
   -35.3771 -35.3736 -35.3662 -35.3661 -35.3482 -35.3481 -35.3459 -35.3459
   -35.3333 -35.3229 -35.3101 -35.3100 -35.2993 -31.2285 -31.2285 -31.2265
   -31.2055 -31.2048 -31.2019 -31.2015 -31.1991 -31.1950 -31.1934 -31.1919
   -31.1910 -31.1865 -31.1863 -31.1801 -31.1800 -31.1795 -31.1744 -31.1735
   -31.1734 -31.1728 -31.1638 -31.1637 -31.1614 -31.1549 -31.1395 -31.1373
     6.3974   6.4425   6.4433   6.4935   8.0029   8.0176   8.0222   8.0303
     8.1007   8.1175   8.2818   8.3147   8.3165   8.3299   8.3314   8.3358
     8.3420   8.3593   8.3607   8.3783   8.3805   8.4428   8.5951   8.6269
     8.6368   8.6447   8.6958   8.7003   8.7043   8.7118   8.7258   8.7543
     8.7575   8.8132   8.9414   8.9455   8.9542   8.9565   8.9739   8.9773
     8.9814   9.0097   9.0101   9.0104   9.0107   9.0204   9.0223   9.0418
     9.1199   9.1275   9.3030   9.3144   9.3195   9.3244   9.3997   9.4117
     9.4130   9.4207   9.4298   9.4335   9.4369   9.4370   9.4457   9.4507
     9.4660   9.4720   9.4746   9.4833   9.4858   9.4978   9.5010   9.5110
     9.5194   9.5276   9.5363   9.5385   9.5551   9.5767   9.5900   9.6024
     9.6034   9.6179   9.6977   9.6997   9.7565   9.8022   9.8028   9.8072
     9.8365   9.8390   9.8441   9.8459   9.8628   9.8822  10.0152  10.0420
    10.0772  10.1025  10.1145  10.1342  10.1571  10.1640  10.1718  10.1752
    10.1864  10.1909  10.1939  10.2029  10.2197  10.2226  10.2227  10.2263
    10.2323  10.2340  10.2370  10.3052  10.4265  10.4660  10.4764  10.4826
    10.4950  10.4987  10.5115  10.5703  10.5789  10.6191  10.6287  10.6327
    10.6497  10.6560  10.6640  10.6670  10.7105  10.7116  10.7199  10.7204
    10.7482  10.8014  10.8074  10.8188  10.8456  10.8532  10.8688  10.8717
    10.8895  10.9424  11.2013  11.2106  11.2122  11.2282  11.3195  11.3210
    11.3423  11.3541  11.3637  11.3649  11.3743  11.3827  11.4970  11.5752
    11.6270  11.6279  11.6357  11.6452  11.6483  11.6487  11.6495  11.6549
    11.6641  11.6741  11.7274  11.7309  11.7510  11.7717  11.8004  11.8279
    11.8678  11.8771  11.8787  11.8829  11.8864  11.8890  11.9660  11.9781
    12.0074  12.0278  12.0642  12.0679  12.0744  12.0787  12.0837  12.0841
    12.1087  12.1087  12.1146  12.1215  12.1461  12.1525  12.1535  12.1557
    12.1602  12.1613  12.1663  12.1765  12.1770  12.2037  12.2220  12.2650
    12.2800  12.2868  12.2882  12.2891  12.2912  12.2972  12.3145  12.4335
    12.4463  12.4503  12.4682  12.5076  12.5212  12.5238  12.5423  12.5698
    12.5700  12.5736  12.5774  12.5812  12.6142  12.6372  12.6419  12.6860
    12.7082  12.8035  12.8364  12.8644  12.8741  12.8894  12.9121  12.9302
    12.9683  13.0268  13.0411  13.0615  13.1525  13.6615  13.6633  13.6764
    13.6786  13.6817  13.6997  13.7751  13.8185  14.0168  14.2590  14.3494
    14.4146  14.4151  14.4319  14.4686  14.5138  14.5708  14.7716  14.8268
    14.8301  14.8888  15.1384  15.1385  15.3314  15.3641  15.6759  15.7354
    15.7357  15.8105  15.8237  15.8330  15.9152  15.9331  15.9946  16.0458
    16.0461  16.0533  16.0938  16.1458  16.1607  16.1686  16.1739  16.1966
    16.2161  16.2394  16.2960  16.3112  16.3409  16.3733  16.3741  16.3802
    16.4667  16.4683  16.5211  16.5954  16.6487  16.6644  16.7750  16.8023
    16.8241  16.8370  16.8863  16.8963  17.3869  17.3906  17.7056  17.8802
    18.0868  18.1949  18.2164  18.2177  18.2580  18.4276  18.4427  18.5761
    18.5846  18.6286  18.6309  18.6381  18.7392  18.7923  18.8052  18.8259

          k =-0.5000-0.5000-0.5734 ( 31672 PWs)   bands (ev):

   -66.7850 -66.6982 -66.6982 -66.6584 -66.6583 -66.6188 -66.5908 -66.5905
   -66.5904 -62.3809 -62.3729 -62.3729 -62.3631 -62.3631 -62.3567 -62.3567
   -62.3518 -62.3164 -35.5470 -35.5228 -35.5101 -35.4667 -35.4667 -35.4578
   -35.4578 -35.4327 -35.4327 -35.4057 -35.4057 -35.4031 -35.4029 -35.3883
   -35.3771 -35.3736 -35.3662 -35.3661 -35.3482 -35.3481 -35.3459 -35.3459
   -35.3333 -35.3229 -35.3101 -35.3100 -35.2993 -31.2285 -31.2285 -31.2265
   -31.2055 -31.2048 -31.2019 -31.2015 -31.1991 -31.1950 -31.1934 -31.1919
   -31.1910 -31.1865 -31.1863 -31.1801 -31.1800 -31.1795 -31.1744 -31.1735
   -31.1734 -31.1728 -31.1638 -31.1637 -31.1614 -31.1548 -31.1395 -31.1373
     6.9006   6.9121   6.9452   6.9766   6.9902   6.9956   7.0179   7.0346
     8.4615   8.4637   8.4699   8.4775   8.4866   8.4899   8.4950   8.4960
     8.4971   8.4991   8.5329   8.5378   8.5402   8.5476   8.5665   8.5672
     8.5679   8.5821   8.5840   8.5985   8.8818   8.8870   8.8969   8.9042
     8.9136   8.9142   8.9351   8.9386   9.0959   9.1063   9.1202   9.1251
     9.1377   9.1403   9.1455   9.1490   9.1520   9.1545   9.1619   9.1629
     9.1651   9.1680   9.1701   9.1716   9.1739   9.1742   9.1748   9.1788
     9.1802   9.1928   9.1931   9.1959   9.1996   9.2039   9.2183   9.2188
     9.2285   9.2424   9.2433   9.2492   9.2629   9.2747   9.2776   9.2809
     9.5371   9.5440   9.5589   9.5621   9.6087   9.6127   9.6221   9.6332
     9.6657   9.6777   9.6933   9.7125   9.7131   9.7250   9.7373   9.7633
     9.8224   9.8272   9.8419   9.8531   9.8712   9.8850   9.8896   9.8964
    10.1355  10.1418  10.1484  10.1521  10.1545  10.1643  10.1748  10.1785
    10.2947  10.3082  10.4432  10.4513  10.4535  10.4591  10.4857  10.4883
    10.4888  10.4895  10.5009  10.5058  10.5061  10.5106  10.5164  10.5185
    10.5214  10.5241  10.5297  10.5356  10.5381  10.5629  10.5930  10.6041
    10.6384  10.6410  10.6421  10.6515  10.6577  10.6596  10.6670  10.6710
    10.6769  10.6862  10.6960  10.7081  10.7316  10.7342  11.0339  11.0449
    11.0838  11.0891  11.1091  11.1221  11.1244  11.1359  11.3759  11.3833
    11.3946  11.3980  11.4332  11.4376  11.4416  11.4550  11.4604  11.4645
    11.4792  11.4876  11.5071  11.5219  11.5286  11.5436  11.5813  11.5868
    11.6457  11.6489  11.6534  11.6634  11.6690  11.6994  11.7136  11.7187
    11.7268  11.7299  11.7467  11.7601  11.7783  11.7850  11.7855  11.7959
    11.8084  11.8133  11.8223  11.8347  11.8602  11.9141  12.0179  12.0301
    12.0397  12.0661  12.0690  12.0850  12.1056  12.1353  12.1367  12.1514
    12.2031  12.2306  12.2438  12.2713  12.2771  12.2808  12.2944  12.3336
    12.3660  12.3671  12.3714  12.3956  12.4165  12.4495  12.4626  12.4704
    12.4730  12.4824  12.5114  12.5257  12.5317  12.5540  12.5570  12.5741
    12.5907  12.6003  12.6256  12.6883  12.7379  12.7649  12.7886  12.8357
    12.8638  12.8681  13.0981  13.1015  13.1688  13.2305  13.2437  13.2468
    13.2508  13.2854  13.2870  13.3347  13.3577  13.4270  13.5111  13.5656
    13.6136  13.6155  13.6186  13.8929  13.9363  13.9414  14.0973  14.1255
    14.1924  14.5518  14.5904  14.6392  14.7396  14.7584  14.8414  14.8743
    15.0104  15.0896  15.1420  15.2181  15.3045  15.4766  15.4891  15.6585
    15.7247  15.7581  15.7783  15.8268  15.8661  16.0101  16.0535  16.0886
    16.1429  16.1584  16.1734  16.1833  16.1936  16.2205  16.2405  16.2428
    16.2739  16.2918  16.3048  16.3463  16.3494  16.4164  16.4323  16.4692
    16.5032  16.5610  16.5716  16.5861  16.6427  16.6671  16.6789  16.6816
    16.6963  16.7039  16.7623  16.8307  16.9104  16.9196  16.9602  17.0173
    17.0224  17.0256  17.6990  17.8029  17.8096  17.8548  19.0518  19.0642
    19.0754  19.1241  19.1268  19.1395  19.1898  19.2152  19.2180  19.2867

 ------ SPIN DOWN ----------


          k = 0.0000 0.0000 0.0000 ( 31747 PWs)   bands (ev):

   -66.7228 -66.7228 -66.7051 -66.7034 -66.7034 -66.6984 -66.6358 -66.6358
   -66.6341 -62.4506 -62.3716 -62.3716 -62.3646 -62.3580 -62.3580 -62.3423
   -62.3423 -62.3232 -35.5151 -35.5151 -35.4914 -35.4914 -35.4883 -35.4752
   -35.4683 -35.4683 -35.4656 -35.4414 -35.4413 -35.4412 -35.4296 -35.4160
   -35.4159 -35.4109 -35.4109 -35.4011 -35.3922 -35.3921 -35.3914 -35.3913
   -35.3825 -35.3767 -35.3538 -35.3537 -35.3502 -31.2918 -31.2768 -31.2536
   -31.2345 -31.2345 -31.2248 -31.1960 -31.1951 -31.1868 -31.1868 -31.1843
   -31.1838 -31.1803 -31.1802 -31.1779 -31.1734 -31.1733 -31.1728 -31.1727
   -31.1698 -31.1681 -31.1680 -31.1644 -31.1475 -31.1461 -31.1460 -31.1284
     5.6113   7.1306   7.1382   7.2127   7.2201   7.3604   7.8486   7.8832
     7.8889   7.9613   8.0794   8.0800   8.1506   8.1732   8.1815   8.2573
     8.2600   8.2844   8.2873   8.5149   8.5424   8.5560   8.5722   8.5923
     8.6284   8.8584   8.8616   8.8681   8.8797   8.8816   8.8817   8.8825
     8.8865   8.8956   8.9114   8.9151   8.9310   8.9436   8.9681   8.9728
     8.9790   9.0810   9.1183   9.1247   9.1250   9.1346   9.1531   9.1637
     9.1800   9.1955   9.2169   9.2710   9.2869   9.2883   9.3077   9.3261
     9.3436   9.3544   9.3650   9.3697   9.3909   9.4008   9.4040   9.4376
     9.4468   9.4496   9.4502   9.4566   9.4661   9.4673   9.4707   9.5754
     9.5769   9.5877   9.5913   9.6198   9.6220   9.6533   9.6665   9.6682
     9.6691   9.6731   9.6746   9.7396   9.7502   9.7687   9.7826   9.8459
     9.8499   9.9127   9.9192   9.9285   9.9391   9.9439  10.0105  10.0377
    10.0523  10.1087  10.1148  10.2112  10.2699  10.2840  10.2916  10.2936
    10.3037  10.3070  10.3127  10.3205  10.3236  10.3266  10.3271  10.3351
    10.3424  10.3435  10.3639  10.3648  10.3670  10.3692  10.3781  10.3816
    10.4001  10.5046  10.5150  10.5170  10.6011  10.6157  10.6217  10.6342
    10.6948  10.7764  10.7875  10.8051  10.8098  10.8133  10.8432  10.8445
    10.8557  10.8638  10.8683  10.8741  10.8769  10.8828  10.8846  10.8975
    10.9089  10.9090  11.0268  11.0285  11.0346  11.0685  11.0733  11.1332
    11.2090  11.2157  11.2282  11.2334  11.2650  11.2748  11.3201  11.3248
    11.3919  11.3938  11.3960  11.3982  11.4078  11.4303  11.4387  11.4393
    11.4858  11.5604  11.5638  11.5874  11.5904  11.5921  11.5978  11.6010
    11.6393  11.6529  11.6858  11.7224  11.7232  11.7484  11.7508  11.7537
    11.8190  11.8535  11.8555  11.8684  11.8785  11.9337  11.9348  11.9427
    11.9454  11.9702  12.0974  12.0983  12.1031  12.1033  12.1353  12.1432
    12.1449  12.1476  12.1483  12.1550  12.1629  12.1720  12.1975  12.1980
    12.2183  12.2440  12.2563  12.2783  12.3097  12.3367  12.3771  12.4238
    12.4277  12.4334  12.4366  12.4487  12.4938  12.5188  12.5262  12.5347
    12.5386  12.5576  12.5630  12.5677  12.5729  12.6242  12.6640  12.6988
    12.7275  12.7285  12.7306  12.8393  12.8420  12.8651  12.9417  13.0055
    13.0418  13.0756  13.1404  13.1859  13.4816  13.5438  13.7534  13.7861
    14.0679  14.1762  14.1805  14.1918  14.2677  14.4110  14.4321  14.4438
    14.6739  14.8432  14.8869  15.0106  15.0123  15.0977  15.2412  15.2697
    15.2906  15.2939  15.3435  15.3447  15.3564  15.3804  15.4798  15.5446
    15.5540  15.5699  15.6638  15.7995  15.8431  15.9017  15.9848  15.9983
    16.0208  16.0359  16.1040  16.1144  16.1369  16.1796  16.1969  16.2235
    16.2312  16.2626  16.2749  16.2830  16.3357  16.3456  16.3668  16.3939
    16.4278  16.5082  16.5532  16.6633  16.6887  16.6890  16.7091  16.9249
    16.9541  17.0268  17.1504  17.1692  17.1940  17.2097  17.2782  17.3221
    17.4608  17.5011  17.7848  17.8828  17.9330  17.9449  17.9755  17.9949
    18.2879  18.2994  18.4935  18.9013  19.0319  19.0334  19.1582  19.1609

          k = 0.0000 0.0000-0.5734 ( 31692 PWs)   bands (ev):

   -66.7228 -66.7228 -66.7051 -66.7034 -66.7034 -66.6984 -66.6358 -66.6358
   -66.6341 -62.4506 -62.3716 -62.3716 -62.3646 -62.3580 -62.3580 -62.3423
   -62.3423 -62.3232 -35.5151 -35.5151 -35.4914 -35.4914 -35.4883 -35.4752
   -35.4683 -35.4683 -35.4656 -35.4414 -35.4413 -35.4412 -35.4296 -35.4160
   -35.4159 -35.4109 -35.4109 -35.4011 -35.3922 -35.3921 -35.3914 -35.3913
   -35.3825 -35.3767 -35.3538 -35.3537 -35.3502 -31.2918 -31.2768 -31.2536
   -31.2345 -31.2345 -31.2248 -31.1960 -31.1951 -31.1868 -31.1868 -31.1843
   -31.1838 -31.1803 -31.1802 -31.1779 -31.1734 -31.1733 -31.1728 -31.1727
   -31.1698 -31.1681 -31.1680 -31.1644 -31.1475 -31.1461 -31.1460 -31.1284
     6.1718   6.1904   7.5222   7.5422   7.5452   7.5522   7.6014   7.6073
     7.6216   7.6360   8.3014   8.3169   8.3249   8.3365   8.3409   8.3499
     8.3905   8.3979   8.4583   8.4655   8.4704   8.4704   8.4872   8.4942
     8.5214   8.5237   8.6911   8.6989   8.7611   8.7786   8.9404   8.9531
     8.9676   8.9695   8.9720   8.9902   8.9940   9.0121   9.0142   9.0184
     9.0229   9.0369   9.0380   9.0387   9.0690   9.0769   9.2157   9.2183
     9.2326   9.2381   9.2477   9.2500   9.2581   9.2660   9.2706   9.2770
     9.2791   9.2807   9.2865   9.2928   9.2941   9.2947   9.4122   9.4204
     9.4230   9.4245   9.4394   9.4400   9.4622   9.4631   9.4742   9.4774
     9.4784   9.4806   9.4986   9.5112   9.5157   9.5223   9.6332   9.6596
     9.7729   9.7798   9.7855   9.7903   9.8240   9.8257   9.8304   9.8407
     9.8718   9.8724   9.8815   9.8825   9.8832   9.8834   9.8889   9.8910
    10.0562  10.0583  10.0586  10.0612  10.1483  10.1572  10.1572  10.1631
    10.1657  10.1706  10.1740  10.1886  10.1907  10.1967  10.3550  10.3559
    10.3725  10.3781  10.3967  10.4051  10.4071  10.4199  10.4822  10.5069
    10.5807  10.5830  10.6001  10.6019  10.6182  10.6254  10.6277  10.6512
    10.6578  10.6667  10.7352  10.7545  10.7701  10.8066  10.8167  10.8605
    10.9166  10.9328  10.9375  10.9490  10.9517  10.9605  11.0432  11.0883
    11.0893  11.1091  11.1349  11.1423  11.1719  11.1850  11.1988  11.2273
    11.2431  11.2442  11.2453  11.2570  11.2659  11.2669  11.2701  11.2779
    11.2800  11.2818  11.2823  11.2890  11.2935  11.2966  11.2974  11.3033
    11.3036  11.3174  11.3183  11.3245  11.5192  11.5298  11.7105  11.7123
    11.7136  11.7142  11.7145  11.7186  11.7320  11.7338  11.7383  11.7466
    11.7483  11.7522  11.7625  11.7756  11.7864  11.8502  11.8880  11.9210
    11.9737  11.9852  12.0088  12.0147  12.0247  12.0352  12.0670  12.0828
    12.0837  12.1447  12.1544  12.2290  12.2572  12.2579  12.2685  12.4226
    12.4402  12.4429  12.4563  12.4661  12.4748  12.4762  12.4882  12.4987
    12.5132  12.5157  12.5315  12.5423  12.5525  12.6113  12.6119  12.6202
    12.6248  12.6508  12.6516  12.6996  12.7606  12.7686  12.7939  12.8177
    12.8341  12.8633  12.9682  13.0241  13.1215  13.1787  13.1928  13.2470
    13.2568  13.3188  13.4061  13.4536  13.4636  13.5057  13.7159  13.7318
    13.7611  13.8985  14.0134  14.0668  14.0787  14.2553  14.3821  14.5452
    14.7195  14.8355  14.8600  14.9760  15.0022  15.0115  15.0324  15.0682
    15.0941  15.1672  15.1809  15.2094  15.2330  15.3568  15.4400  15.5842
    15.7250  15.7372  15.7377  15.7497  15.8013  15.9230  15.9321  15.9765
    16.0466  16.0585  16.1274  16.1349  16.1365  16.1446  16.1718  16.1792
    16.1907  16.2078  16.2233  16.2308  16.2428  16.2538  16.2825  16.2883
    16.4202  16.4500  16.5546  16.5874  16.6081  16.6289  16.7424  16.7605
    16.7684  16.7969  17.3529  17.4009  17.4046  17.4413  17.5591  17.5613
    17.5831  17.6086  17.7278  17.7454  17.7637  17.7659  17.7733  17.8159
    17.8288  17.8463  18.0940  18.1325  18.1828  18.2368  18.2899  18.3403

          k = 0.0000-0.5000 0.0000 ( 31722 PWs)   bands (ev):

   -66.7228 -66.7228 -66.7051 -66.7034 -66.7034 -66.6985 -66.6358 -66.6358
   -66.6341 -62.4506 -62.3716 -62.3716 -62.3646 -62.3580 -62.3580 -62.3423
   -62.3423 -62.3232 -35.5151 -35.5151 -35.4914 -35.4914 -35.4883 -35.4752
   -35.4683 -35.4683 -35.4656 -35.4414 -35.4413 -35.4412 -35.4296 -35.4160
   -35.4159 -35.4109 -35.4109 -35.4011 -35.3922 -35.3921 -35.3914 -35.3913
   -35.3825 -35.3767 -35.3538 -35.3537 -35.3502 -31.2918 -31.2768 -31.2536
   -31.2345 -31.2345 -31.2248 -31.1960 -31.1951 -31.1868 -31.1868 -31.1843
   -31.1838 -31.1803 -31.1802 -31.1779 -31.1734 -31.1733 -31.1728 -31.1727
   -31.1698 -31.1681 -31.1680 -31.1644 -31.1475 -31.1461 -31.1460 -31.1284
     6.0261   6.0513   7.4037   7.4334   7.4673   7.4757   7.6701   7.6733
     8.1032   8.1096   8.1230   8.1319   8.2140   8.2256   8.2554   8.2808
     8.3992   8.4343   8.4524   8.4657   8.6256   8.6289   8.6497   8.6530
     8.6534   8.6739   8.6771   8.6856   8.7826   8.8048   8.8164   8.8231
     8.8459   8.8627   8.8746   8.8885   8.8919   8.9008   8.9026   8.9214
     8.9289   8.9341   8.9360   8.9508   9.0435   9.0467   9.1525   9.1632
     9.1742   9.2002   9.2148   9.2196   9.2326   9.2509   9.3073   9.3211
     9.3412   9.3622   9.3925   9.4276   9.4680   9.4774   9.4921   9.5179
     9.5328   9.5387   9.5441   9.5613   9.5893   9.5990   9.6101   9.6177
     9.6231   9.6235   9.6274   9.6318   9.6321   9.6344   9.6346   9.6374
     9.6635   9.6685   9.6734   9.6870   9.6991   9.7090   9.7121   9.7257
     9.7335   9.7359   9.7567   9.7757   9.8877   9.8988   9.9286   9.9499
    10.0155  10.0238  10.1562  10.1796  10.2002  10.2044  10.2358  10.2448
    10.2515  10.2665  10.2709  10.2775  10.2802  10.2877  10.3382  10.3575
    10.3739  10.3768  10.3825  10.3825  10.4236  10.4364  10.4562  10.4655
    10.5102  10.5139  10.5271  10.5537  10.5543  10.5601  10.5711  10.5721
    10.6118  10.6463  10.6686  10.6954  10.7019  10.7211  10.7217  10.7262
    10.8129  10.8314  10.8337  10.8420  10.8592  10.8692  10.9248  10.9368
    10.9855  10.9998  11.0089  11.0192  11.0398  11.0480  11.1702  11.1779
    11.2818  11.3424  11.3443  11.3534  11.3603  11.3670  11.3729  11.3920
    11.3931  11.4072  11.4268  11.4578  11.4831  11.5140  11.5490  11.5856
    11.5970  11.5987  11.6373  11.6534  11.6579  11.6680  11.6778  11.7409
    11.7626  11.7820  11.7874  11.8181  11.8319  11.8383  11.8466  11.8546
    11.8691  11.8787  11.8999  11.9011  11.9190  11.9203  11.9345  11.9467
    11.9554  11.9693  11.9784  11.9854  12.0620  12.0936  12.1211  12.1474
    12.1858  12.1956  12.2051  12.2081  12.2217  12.2283  12.2517  12.2716
    12.2814  12.3038  12.3087  12.3658  12.3753  12.3888  12.3948  12.4281
    12.4606  12.4685  12.4836  12.4891  12.5114  12.5235  12.5314  12.5623
    12.5729  12.5785  12.5987  12.6270  12.6753  12.6959  12.7301  12.8352
    12.8551  12.8750  12.9808  13.0283  13.0326  13.0810  13.0853  13.1140
    13.1706  13.1774  13.1900  13.2411  13.2645  13.2819  13.3238  13.3392
    13.4376  13.5345  13.5580  13.6075  13.6354  14.4441  14.4752  14.5829
    14.6563  14.6726  14.6844  14.7742  14.8272  14.8582  14.8758  14.9799
    15.0563  15.1087  15.1708  15.2401  15.2700  15.4097  15.4917  15.5601
    15.7046  15.7076  15.8043  15.8159  15.8869  15.9370  15.9572  16.0269
    16.0536  16.0809  16.0809  16.1055  16.1193  16.1367  16.1506  16.1858
    16.2300  16.2413  16.2545  16.2582  16.2685  16.2821  16.3023  16.3841
    16.4529  16.4921  16.5304  16.6112  16.6448  16.7280  16.9759  17.0469
    17.1585  17.2165  17.2440  17.3274  17.4021  17.4416  17.6170  17.6302
    17.7058  17.7450  17.8100  17.8197  17.8656  17.8893  17.9038  17.9296
    17.9398  18.1074  18.1504  18.2051  19.2523  19.2733  19.3398  19.3539

          k = 0.0000-0.5000-0.5734 ( 31696 PWs)   bands (ev):

   -66.7228 -66.7228 -66.7051 -66.7034 -66.7034 -66.6984 -66.6358 -66.6358
   -66.6341 -62.4506 -62.3716 -62.3716 -62.3646 -62.3580 -62.3580 -62.3423
   -62.3423 -62.3232 -35.5151 -35.5151 -35.4914 -35.4914 -35.4883 -35.4752
   -35.4683 -35.4683 -35.4656 -35.4414 -35.4413 -35.4412 -35.4296 -35.4160
   -35.4159 -35.4109 -35.4109 -35.4011 -35.3922 -35.3921 -35.3914 -35.3913
   -35.3825 -35.3767 -35.3538 -35.3537 -35.3502 -31.2918 -31.2768 -31.2536
   -31.2345 -31.2345 -31.2248 -31.1960 -31.1951 -31.1868 -31.1868 -31.1843
   -31.1838 -31.1803 -31.1802 -31.1779 -31.1734 -31.1733 -31.1728 -31.1727
   -31.1698 -31.1681 -31.1680 -31.1644 -31.1475 -31.1461 -31.1460 -31.1284
     6.5531   6.5689   6.5874   6.6071   7.8351   7.8424   7.8633   7.8802
     7.8933   7.9127   7.9236   7.9364   8.2678   8.2718   8.2991   8.3005
     8.5143   8.5169   8.5253   8.5280   8.6406   8.6447   8.6774   8.6807
     8.6919   8.6937   8.6964   8.7095   8.7315   8.7395   8.7478   8.7507
     8.7647   8.7734   8.7889   8.7993   8.9773   8.9927   9.0111   9.0302
     9.0323   9.0403   9.0444   9.0516   9.2074   9.2100   9.2105   9.2162
     9.2164   9.2222   9.2251   9.2370   9.2450   9.2525   9.2543   9.2586
     9.2610   9.2749   9.2807   9.2827   9.2878   9.3092   9.3871   9.3949
     9.4217   9.4222   9.4276   9.4527   9.4620   9.4670   9.4685   9.4785
     9.4879   9.5045   9.5138   9.5158   9.5240   9.5461   9.5487   9.5530
     9.5696   9.5849   9.7535   9.7557   9.7894   9.7956   9.8014   9.8168
     9.8188   9.8263   9.8452   9.8495   9.8532   9.8620   9.8641   9.8722
     9.9562   9.9591   9.9998  10.0080  10.0340  10.0347  10.0410  10.0470
    10.3766  10.3798  10.3845  10.3861  10.4019  10.4056  10.4098  10.4430
    10.4560  10.4639  10.4709  10.4751  10.4810  10.4817  10.5048  10.5092
    10.5195  10.5271  10.5389  10.5671  10.5776  10.5826  10.6068  10.6078
    10.6268  10.6294  10.6672  10.6674  10.6734  10.6759  10.7216  10.7479
    10.7931  10.7935  10.9186  10.9271  10.9895  10.9934  11.0194  11.0297
    11.1210  11.1305  11.1350  11.1444  11.1555  11.1820  11.2027  11.2058
    11.2113  11.2159  11.2685  11.3048  11.3307  11.3329  11.3577  11.3611
    11.3739  11.3785  11.4192  11.4244  11.4324  11.4354  11.5022  11.5141
    11.5315  11.5525  11.5643  11.5723  11.5794  11.6005  11.6210  11.6293
    11.6381  11.6411  11.7282  11.7424  11.7503  11.7599  11.8117  11.8674
    11.8720  11.9237  11.9319  11.9464  11.9511  11.9783  11.9976  11.9978
    12.0219  12.0233  12.0345  12.0372  12.0382  12.0596  12.0866  12.1355
    12.1413  12.1571  12.1890  12.2122  12.2508  12.2712  12.2904  12.2957
    12.3275  12.3408  12.3623  12.3941  12.4125  12.4614  12.4636  12.4720
    12.4840  12.4917  12.5141  12.5207  12.5257  12.5395  12.5639  12.5921
    12.5986  12.6113  12.6261  12.6393  12.6415  12.6488  12.6493  12.7620
    12.8709  12.9094  12.9111  12.9744  12.9748  13.0442  13.0526  13.0756
    13.0777  13.3642  13.3672  13.3710  13.5612  13.6343  13.7340  13.8667
    13.9262  13.9808  13.9964  14.0436  14.1236  14.2391  14.3172  14.4753
    14.4863  14.5433  14.5452  14.5554  14.5826  14.7250  14.7410  14.9384
    15.0604  15.1445  15.2331  15.3178  15.3543  15.4720  15.4924  15.5978
    15.6249  15.7459  15.8210  15.8550  15.8797  15.9103  15.9108  15.9616
    15.9635  16.0257  16.0737  16.1527  16.1580  16.1845  16.1974  16.2473
    16.2771  16.2866  16.3037  16.3472  16.3488  16.3874  16.4251  16.4322
    16.4622  16.4659  16.4844  16.5806  16.6050  16.6146  16.6630  16.6767
    16.7180  16.7505  16.7943  16.8030  16.8704  16.8746  16.9922  17.0630
    17.0919  17.1232  17.2255  17.2835  18.6390  18.6647  18.7437  18.7737
    18.8044  18.8146  18.8400  18.8466  18.8736  18.9073  18.9505  18.9628

          k =-0.5000-0.5000 0.0000 ( 31612 PWs)   bands (ev):

   -66.7228 -66.7228 -66.7051 -66.7034 -66.7034 -66.6985 -66.6358 -66.6358
   -66.6341 -62.4506 -62.3716 -62.3716 -62.3646 -62.3580 -62.3580 -62.3423
   -62.3423 -62.3232 -35.5151 -35.5151 -35.4914 -35.4914 -35.4883 -35.4752
   -35.4683 -35.4683 -35.4656 -35.4414 -35.4413 -35.4412 -35.4296 -35.4160
   -35.4159 -35.4109 -35.4109 -35.4011 -35.3922 -35.3921 -35.3914 -35.3913
   -35.3825 -35.3767 -35.3538 -35.3537 -35.3502 -31.2918 -31.2768 -31.2536
   -31.2345 -31.2345 -31.2248 -31.1960 -31.1951 -31.1868 -31.1868 -31.1843
   -31.1838 -31.1803 -31.1802 -31.1779 -31.1734 -31.1733 -31.1728 -31.1727
   -31.1698 -31.1681 -31.1680 -31.1644 -31.1475 -31.1461 -31.1460 -31.1284
     6.3759   6.4357   6.4457   6.4921   8.0042   8.0094   8.0121   8.0242
     8.0855   8.1106   8.2672   8.3074   8.3134   8.3185   8.3274   8.3316
     8.3455   8.3504   8.3512   8.3782   8.3827   8.4273   8.5828   8.6233
     8.6349   8.6420   8.6845   8.6929   8.6946   8.7089   8.7262   8.7535
     8.7657   8.8066   8.9355   8.9389   8.9491   8.9500   8.9605   8.9724
     8.9753   9.0015   9.0030   9.0061   9.0144   9.0167   9.0172   9.0396
     9.1159   9.1234   9.3041   9.3104   9.3115   9.3208   9.3896   9.4013
     9.4049   9.4126   9.4282   9.4308   9.4309   9.4326   9.4424   9.4479
     9.4496   9.4659   9.4699   9.4783   9.4789   9.4877   9.4951   9.5141
     9.5177   9.5237   9.5378   9.5486   9.5517   9.5750   9.5870   9.5968
     9.6044   9.6089   9.6913   9.6963   9.7348   9.7970   9.8022   9.8157
     9.8271   9.8308   9.8323   9.8404   9.8611   9.8877   9.9628  10.0443
    10.0937  10.1053  10.1109  10.1389  10.1446  10.1464  10.1568  10.1620
    10.1825  10.1892  10.1926  10.2081  10.2129  10.2133  10.2261  10.2288
    10.2297  10.2313  10.2396  10.2605  10.4219  10.4673  10.4678  10.4853
    10.4898  10.4934  10.5063  10.5133  10.5654  10.6121  10.6127  10.6440
    10.6588  10.6599  10.6734  10.7006  10.7054  10.7096  10.7129  10.7167
    10.7747  10.7917  10.7954  10.8121  10.8145  10.8348  10.8626  10.8662
    10.8692  10.9384  11.1913  11.2069  11.2140  11.2245  11.3128  11.3132
    11.3340  11.3382  11.3605  11.3645  11.3686  11.3743  11.5592  11.5838
    11.6184  11.6244  11.6289  11.6424  11.6437  11.6453  11.6466  11.6490
    11.6545  11.6640  11.7016  11.7247  11.7288  11.7363  11.7569  11.7905
    11.8431  11.8745  11.8775  11.8802  11.8827  11.8860  11.9000  11.9588
    11.9974  12.0271  12.0450  12.0587  12.0596  12.0754  12.0932  12.1015
    12.1034  12.1067  12.1092  12.1159  12.1366  12.1527  12.1540  12.1565
    12.1570  12.1596  12.1642  12.1715  12.1860  12.1998  12.2073  12.2395
    12.2611  12.2718  12.2788  12.2828  12.2847  12.2941  12.3046  12.3594
    12.4102  12.4267  12.4316  12.4601  12.4959  12.5173  12.5373  12.5502
    12.5504  12.5543  12.5750  12.5880  12.5961  12.6621  12.6660  12.7171
    12.7320  12.7423  12.7697  12.8087  12.8323  12.8437  12.8478  12.9417
    12.9591  12.9651  13.0225  13.0337  13.1843  13.6507  13.6604  13.6688
    13.6722  13.6850  13.7025  13.8412  13.8554  13.9534  14.1876  14.2849
    14.2914  14.4251  14.4257  14.4586  14.4982  14.5010  14.7142  14.8363
    14.8710  15.0293  15.0922  15.1940  15.3001  15.3486  15.7231  15.7501
    15.7739  15.7818  15.8022  15.8149  15.8964  15.9684  16.0188  16.0450
    16.0629  16.0801  16.0813  16.1018  16.1502  16.1515  16.1568  16.1818
    16.2056  16.2381  16.2538  16.2718  16.2812  16.2962  16.3609  16.3752
    16.3927  16.5562  16.6182  16.6228  16.6636  16.7049  16.7638  16.7701
    16.8326  16.8480  16.8745  16.8922  17.3836  17.3863  17.6942  17.8616
    18.1077  18.1079  18.1803  18.1897  18.2515  18.4321  18.5001  18.5718
    18.6012  18.6171  18.6202  18.6500  18.7561  18.7925  18.7965  18.7985

          k =-0.5000-0.5000-0.5734 ( 31672 PWs)   bands (ev):

   -66.7228 -66.7228 -66.7051 -66.7034 -66.7034 -66.6984 -66.6358 -66.6358
   -66.6341 -62.4506 -62.3716 -62.3716 -62.3646 -62.3580 -62.3580 -62.3423
   -62.3423 -62.3232 -35.5151 -35.5151 -35.4914 -35.4914 -35.4883 -35.4752
   -35.4683 -35.4683 -35.4656 -35.4414 -35.4413 -35.4412 -35.4296 -35.4160
   -35.4159 -35.4109 -35.4109 -35.4011 -35.3922 -35.3921 -35.3914 -35.3913
   -35.3825 -35.3767 -35.3538 -35.3537 -35.3502 -31.2918 -31.2768 -31.2536
   -31.2345 -31.2345 -31.2248 -31.1960 -31.1951 -31.1868 -31.1868 -31.1843
   -31.1838 -31.1803 -31.1802 -31.1779 -31.1734 -31.1733 -31.1728 -31.1727
   -31.1698 -31.1681 -31.1680 -31.1644 -31.1475 -31.1461 -31.1460 -31.1284
     6.8938   6.9071   6.9380   6.9632   6.9737   6.9882   7.0183   7.0351
     8.4523   8.4563   8.4689   8.4765   8.4770   8.4783   8.4864   8.4868
     8.4896   8.4960   8.5233   8.5273   8.5328   8.5388   8.5570   8.5596
     8.5625   8.5908   8.5914   8.5952   8.8657   8.8691   8.8800   8.9026
     8.9194   8.9238   8.9347   8.9385   9.0907   9.1015   9.1145   9.1206
     9.1297   9.1351   9.1374   9.1401   9.1409   9.1443   9.1459   9.1460
     9.1569   9.1649   9.1649   9.1678   9.1692   9.1712   9.1744   9.1754
     9.1792   9.1794   9.1874   9.1933   9.2027   9.2133   9.2144   9.2148
     9.2277   9.2466   9.2482   9.2502   9.2521   9.2573   9.2777   9.2835
     9.5337   9.5458   9.5494   9.5518   9.5999   9.6024   9.6195   9.6310
     9.6661   9.6727   9.6805   9.7058   9.7113   9.7270   9.7375   9.7566
     9.8192   9.8241   9.8469   9.8571   9.8590   9.8681   9.8772   9.8900
    10.1270  10.1336  10.1368  10.1473  10.1589  10.1603  10.1671  10.1694
    10.2852  10.2982  10.4418  10.4462  10.4545  10.4629  10.4673  10.4723
    10.4850  10.4893  10.4948  10.4992  10.5014  10.5016  10.5141  10.5153
    10.5311  10.5320  10.5323  10.5373  10.5445  10.5579  10.5618  10.5655
    10.5783  10.6068  10.6307  10.6400  10.6455  10.6515  10.6545  10.6848
    10.6868  10.6886  10.6989  10.7011  10.7575  10.7642  11.0294  11.0402
    11.0590  11.0599  11.1086  11.1093  11.1326  11.1383  11.3665  11.3719
    11.3863  11.3923  11.4314  11.4360  11.4420  11.4467  11.4603  11.4629
    11.4770  11.4776  11.5001  11.5159  11.5230  11.5370  11.5986  11.6022
    11.6298  11.6318  11.6429  11.6472  11.6556  11.6817  11.6936  11.6972
    11.7239  11.7279  11.7481  11.7550  11.7724  11.7814  11.7834  11.7864
    11.7958  11.8065  11.8238  11.8364  11.8680  11.9127  12.0085  12.0184
    12.0419  12.0466  12.0840  12.1014  12.1176  12.1242  12.1282  12.1566
    12.1613  12.1893  12.1896  12.2052  12.2240  12.2406  12.2563  12.2852
    12.3277  12.3500  12.4213  12.4285  12.4298  12.4399  12.4482  12.4635
    12.4657  12.4912  12.4922  12.4968  12.5009  12.5353  12.5649  12.5679
    12.5778  12.6414  12.6425  12.6887  12.6969  12.7226  12.7613  12.7911
    12.8028  12.8210  13.0169  13.0615  13.0723  13.1728  13.2028  13.2062
    13.2851  13.3677  13.3894  13.3942  13.4065  13.4669  13.4741  13.5347
    13.5483  13.5583  13.6140  13.8052  13.8904  14.0095  14.0369  14.1098
    14.2312  14.5535  14.5711  14.5786  14.6398  14.7179  14.8647  14.8830
    14.9540  15.0641  15.0645  15.2995  15.4313  15.4330  15.4823  15.7917
    15.8101  15.8128  15.8440  15.8519  15.8607  15.9479  15.9736  16.0269
    16.0533  16.0798  16.0989  16.1662  16.1877  16.2188  16.2205  16.2415
    16.2563  16.2837  16.2842  16.3737  16.3775  16.3975  16.3992  16.4416
    16.5429  16.5490  16.6054  16.6088  16.6409  16.6478  16.6703  16.7053
    16.7148  16.7250  16.7720  16.8706  16.8884  16.8904  16.9457  16.9658
    17.0426  17.0515  17.6804  17.7958  17.7994  17.8499  19.0136  19.0300
    19.0317  19.0913  19.0981  19.1789  19.1850  19.2162  19.2540  19.3447

     the Fermi energy is    14.8164 ev

!    total energy              =  -33062.56565520 Ry
     Harris-Foulkes estimate   =  -33062.56563717 Ry
     estimated scf accuracy    <       0.00000075 Ry

     total all-electron energy =  -1410574.656030 Ry

     The total energy is the sum of the following terms:

     one-electron contribution =   -1645.75669883 Ry
     hartree contribution      =    1489.99644469 Ry
     xc contribution           =   -1658.73864951 Ry
     ewald contribution        =   -4919.25534656 Ry
     one-center paw contrib.   =  -26328.81140499 Ry

     total magnetization       =    -0.62 Bohr mag/cell
     absolute magnetization    =    78.24 Bohr mag/cell

     convergence has been achieved in  21 iterations

     Writing output data file mnau2.save
 
     init_run     :     28.37s CPU     28.76s WALL (       1 calls)
     electrons    :   1674.91s CPU   1710.85s WALL (       1 calls)

     Called by init_run:
     wfcinit      :     23.59s CPU     23.78s WALL (       1 calls)
     potinit      :      2.02s CPU      2.06s WALL (       1 calls)

     Called by electrons:
     c_bands      :   1466.13s CPU   1493.97s WALL (      21 calls)
     sum_band     :    163.61s CPU    168.53s WALL (      21 calls)
     v_of_rho     :      4.47s CPU      4.59s WALL (      22 calls)
     newd         :     15.23s CPU     17.68s WALL (      22 calls)
     PAW_pot      :     26.05s CPU     26.35s WALL (      22 calls)
     mix_rho      :      0.89s CPU      0.94s WALL (      21 calls)

     Called by c_bands:
     init_us_2    :      7.78s CPU      7.80s WALL (     516 calls)
     cegterg      :   1426.26s CPU   1453.83s WALL (     252 calls)

     Called by sum_band:
     sum_band:bec :      0.96s CPU      0.96s WALL (     252 calls)
     addusdens    :     31.67s CPU     35.64s WALL (      21 calls)

     Called by *egterg:
     h_psi        :    523.41s CPU    526.60s WALL (    1008 calls)
     s_psi        :    113.79s CPU    113.82s WALL (    1008 calls)
     g_psi        :      2.11s CPU      2.11s WALL (     744 calls)
     cdiaghg      :    510.56s CPU    510.74s WALL (     996 calls)

     Called by h_psi:
     h_psi:pot    :    515.19s CPU    518.34s WALL (    1008 calls)
     h_psi:calbec :    107.57s CPU    107.71s WALL (    1008 calls)
     vloc_psi     :    290.20s CPU    293.14s WALL (    1008 calls)
     add_vuspsi   :    117.41s CPU    117.49s WALL (    1008 calls)

     General routines
     calbec       :    153.23s CPU    153.44s WALL (    1260 calls)
     fft          :      3.64s CPU      3.87s WALL (     672 calls)
     ffts         :      0.09s CPU      0.10s WALL (      86 calls)
     fftw         :    289.73s CPU    292.64s WALL (  571040 calls)
     interpolate  :      0.69s CPU      0.73s WALL (      86 calls)
 
     Parallel routines
     fft_scatt_xy :     44.73s CPU     45.14s WALL (  571798 calls)
     fft_scatt_yz :     58.93s CPU     59.89s WALL (  571798 calls)
 
     PWSCF        : 28m27.70s CPU    29m17.44s WALL

 
   This run was terminated on:  17:47:34   7Mar2019            

=------------------------------------------------------------------------------=
   JOB DONE.
=------------------------------------------------------------------------------=
