
     Program PWSCF v.6.2 (svn rev. 14038) starts on  4Mar2019 at 12:24:32 

     This program is part of the open-source Quantum ESPRESSO suite
     for quantum simulation of materials; please cite
         "P. Giannozzi et al., J. Phys.:Condens. Matter 21 395502 (2009);
         "P. Giannozzi et al., J. Phys.:Condens. Matter 29 465901 (2017);
          URL http://www.quantum-espresso.org", 
     in publications or presentations arising from this work. More details at
     http://www.quantum-espresso.org/quote

     Parallel version (MPI), running on    16 processors

     MPI processes distributed on     1 nodes
     R & G space division:  proc/nbgrp/npool/nimage =      16
     Waiting for input...
     Reading input from standard input

     Current dimensions of program PWSCF are:
     Max number of different atomic species (ntypx) = 10
     Max number of k-points (npk) =  40000
     Max angular momentum in pseudopotentials (lmaxx) =  3
               file Mn.pbe-spn-kjpaw_psl.0.3.1.UPF: wavefunction(s)  3P 3D renormalized
               file Mn.pbe-spn-kjpaw_psl.0.3.1.UPF: wavefunction(s)  3P 3D renormalized
               file Au.pbe-dn-kjpaw_psl.0.1.UPF: wavefunction(s)  6S 6P 5D renormalized

     Subspace diagonalization in iterative solution of the eigenvalue problem:
     a serial algorithm will be used

 
     Parallelization info
     --------------------
     sticks:   dense  smooth     PW     G-vecs:    dense   smooth      PW
     Min         736     331     90                52486    15847    2256
     Max         737     332     91                52489    15850    2259
     Sum       11785    5297   1449               839803   253559   36125
 


     bravais-lattice index     =            0
     lattice parameter (alat)  =      19.2459  a.u.
     unit-cell volume          =    6216.1497 (a.u.)^3
     number of atoms/cell      =           54
     number of atomic types    =            3
     number of electrons       =       666.00
     number of Kohn-Sham states=          400
     kinetic-energy cutoff     =      45.0000  Ry
     charge density cutoff     =     400.0000  Ry
     convergence threshold     =      1.0E-06
     mixing beta               =       0.1000
     number of iterations used =            8  plain     mixing
     Exchange-correlation      = SLA PW PBX PBC ( 1  4  3  4 0 0)

     celldm(1)=  19.245946  celldm(2)=   0.000000  celldm(3)=   0.000000
     celldm(4)=   0.000000  celldm(5)=   0.000000  celldm(6)=   0.000000

     crystal axes: (cart. coord. in units of alat)
               a(1) = (   1.000000   0.000000   0.000000 )  
               a(2) = (   0.000000   1.000000   0.000000 )  
               a(3) = (   0.000000   0.000000   0.871974 )  

     reciprocal axes: (cart. coord. in units 2 pi/alat)
               b(1) = (  1.000000  0.000000  0.000000 )  
               b(2) = (  0.000000  1.000000  0.000000 )  
               b(3) = (  0.000000  0.000000  1.146823 )  


     PseudoPot. # 1 for Mn read from file:
     ./pseudo/Mn.pbe-spn-kjpaw_psl.0.3.1.UPF
     MD5 check sum: 7eef95dd2aae66803482eea66ebeebf1
     Pseudo is Projector augmented-wave + core cor, Zval = 15.0
     Generated using "atomic" code by A. Dal Corso v.5.0.99 svn rev. 10869
     Shape of augmentation charge: PSQ
     Using radial grid of 1187 points,  6 beta functions with: 
                l(1) =   0
                l(2) =   0
                l(3) =   1
                l(4) =   1
                l(5) =   2
                l(6) =   2
     Q(r) pseudized with 0 coefficients 


     PseudoPot. # 2 for Mn read from file:
     ./pseudo/Mn.pbe-spn-kjpaw_psl.0.3.1.UPF
     MD5 check sum: 7eef95dd2aae66803482eea66ebeebf1
     Pseudo is Projector augmented-wave + core cor, Zval = 15.0
     Generated using "atomic" code by A. Dal Corso v.5.0.99 svn rev. 10869
     Shape of augmentation charge: PSQ
     Using radial grid of 1187 points,  6 beta functions with: 
                l(1) =   0
                l(2) =   0
                l(3) =   1
                l(4) =   1
                l(5) =   2
                l(6) =   2
     Q(r) pseudized with 0 coefficients 


     PseudoPot. # 3 for Au read from file:
     ./pseudo/Au.pbe-dn-kjpaw_psl.0.1.UPF
     MD5 check sum: 5c9b92683623e7ae2ab3f8e525febab6
     Pseudo is Projector augmented-wave + core cor, Zval = 11.0
     Generated using "atomic" code by A. Dal Corso v.5.0.2 svn rev. 9415
     Shape of augmentation charge: PSQ
     Using radial grid of 1279 points,  6 beta functions with: 
                l(1) =   0
                l(2) =   0
                l(3) =   1
                l(4) =   1
                l(5) =   2
                l(6) =   2
     Q(r) pseudized with 0 coefficients 


     atomic species   valence    mass     pseudopotential
        Mn1           15.00    54.93800     Mn( 1.00)
        Mn2           15.00    54.93800     Mn( 1.00)
        Au            11.00   196.96600     Au( 1.00)

     Starting magnetic structure 
     atomic species   magnetization
        Mn1          0.800
        Mn2         -0.800
        Au           0.000

      4 Sym. Ops. (no inversion) found



   Cartesian axes

     site n.     atom                  positions (alat units)
         1           Mn1 tau(   1) = (   0.0000000   0.0000000   0.0000000  )
         2           Mn1 tau(   2) = (   0.0000000   0.3333300   0.0000000  )
         3           Mn1 tau(   3) = (   0.0000000   0.6666700   0.0000000  )
         4           Mn1 tau(   4) = (   0.3333300   0.0000000   0.0000000  )
         5           Mn2 tau(   5) = (   0.3333300   0.3333300   0.0000000  )
         6           Mn1 tau(   6) = (   0.3333300   0.6666700   0.0000000  )
         7           Mn1 tau(   7) = (   0.6666700   0.0000000   0.0000000  )
         8           Mn1 tau(   8) = (   0.6666700   0.3333300   0.0000000  )
         9           Mn2 tau(   9) = (   0.6666700   0.6666700   0.0000000  )
        10           Mn2 tau(  10) = (   0.1666700   0.1666700   0.4359871  )
        11           Mn2 tau(  11) = (   0.1666700   0.5000000   0.4359871  )
        12           Mn2 tau(  12) = (   0.1666700   0.8333300   0.4359871  )
        13           Mn2 tau(  13) = (   0.5000000   0.1666700   0.4359871  )
        14           Mn1 tau(  14) = (   0.5000000   0.5000000   0.4359871  )
        15           Mn2 tau(  15) = (   0.5000000   0.8333300   0.4359871  )
        16           Mn2 tau(  16) = (   0.8333300   0.1666700   0.4359871  )
        17           Mn2 tau(  17) = (   0.8333300   0.5000000   0.4359871  )
        18           Mn1 tau(  18) = (   0.8333300   0.8333300   0.4359871  )
        19           Au  tau(  19) = (   0.1666700   0.1666700   0.7327374  )
        20           Au  tau(  20) = (   0.1666700   0.5000000   0.7327374  )
        21           Au  tau(  21) = (   0.1666700   0.8333300   0.7327374  )
        22           Au  tau(  22) = (   0.5000000   0.1666700   0.7327374  )
        23           Au  tau(  23) = (   0.5000000   0.5000000   0.7327374  )
        24           Au  tau(  24) = (   0.5000000   0.8333300   0.7327374  )
        25           Au  tau(  25) = (   0.8333300   0.1666700   0.7327374  )
        26           Au  tau(  26) = (   0.8333300   0.5000000   0.7327374  )
        27           Au  tau(  27) = (   0.8333300   0.8333300   0.7327374  )
        28           Au  tau(  28) = (   0.1666700   0.1666700   0.1392369  )
        29           Au  tau(  29) = (   0.1666700   0.5000000   0.1392369  )
        30           Au  tau(  30) = (   0.1666700   0.8333300   0.1392369  )
        31           Au  tau(  31) = (   0.5000000   0.1666700   0.1392369  )
        32           Au  tau(  32) = (   0.5000000   0.5000000   0.1392369  )
        33           Au  tau(  33) = (   0.5000000   0.8333300   0.1392369  )
        34           Au  tau(  34) = (   0.8333300   0.1666700   0.1392369  )
        35           Au  tau(  35) = (   0.8333300   0.5000000   0.1392369  )
        36           Au  tau(  36) = (   0.8333300   0.8333300   0.1392369  )
        37           Au  tau(  37) = (   0.0000000   0.0000000   0.2967503  )
        38           Au  tau(  38) = (   0.0000000   0.3333300   0.2967503  )
        39           Au  tau(  39) = (   0.0000000   0.6666700   0.2967503  )
        40           Au  tau(  40) = (   0.3333300   0.0000000   0.2967503  )
        41           Au  tau(  41) = (   0.3333300   0.3333300   0.2967503  )
        42           Au  tau(  42) = (   0.3333300   0.6666700   0.2967503  )
        43           Au  tau(  43) = (   0.6666700   0.0000000   0.2967503  )
        44           Au  tau(  44) = (   0.6666700   0.3333300   0.2967503  )
        45           Au  tau(  45) = (   0.6666700   0.6666700   0.2967503  )
        46           Au  tau(  46) = (   0.0000000   0.0000000   0.5752240  )
        47           Au  tau(  47) = (   0.0000000   0.3333300   0.5752240  )
        48           Au  tau(  48) = (   0.0000000   0.6666700   0.5752240  )
        49           Au  tau(  49) = (   0.3333300   0.0000000   0.5752240  )
        50           Au  tau(  50) = (   0.3333300   0.3333300   0.5752240  )
        51           Au  tau(  51) = (   0.3333300   0.6666700   0.5752240  )
        52           Au  tau(  52) = (   0.6666700   0.0000000   0.5752240  )
        53           Au  tau(  53) = (   0.6666700   0.3333300   0.5752240  )
        54           Au  tau(  54) = (   0.6666700   0.6666700   0.5752240  )

     number of k points=     6 (tetrahedron method)
                       cart. coord. in units 2pi/alat
        k(    1) = (   0.0000000   0.0000000   0.0000000), wk =   0.1250000
        k(    2) = (   0.0000000   0.0000000  -0.5734114), wk =   0.1250000
        k(    3) = (   0.0000000  -0.5000000   0.0000000), wk =   0.2500000
        k(    4) = (   0.0000000  -0.5000000  -0.5734114), wk =   0.2500000
        k(    5) = (  -0.5000000  -0.5000000   0.0000000), wk =   0.1250000
        k(    6) = (  -0.5000000  -0.5000000  -0.5734114), wk =   0.1250000

     Dense  grid:   839803 G-vectors     FFT dimensions: ( 125, 125, 108)

     Smooth grid:   253559 G-vectors     FFT dimensions: (  90,  90,  72)

     Estimated max dynamical RAM per process >     521.79 MB

     Estimated total dynamical RAM >       8.15 GB
     Generating pointlists ...
     new r_m :   0.1129 (alat units)  2.1733 (a.u.) for type    1
     new r_m :   0.1129 (alat units)  2.1733 (a.u.) for type    2
     new r_m :   0.1129 (alat units)  2.1733 (a.u.) for type    3

     Check: negative/imaginary core charge=   -0.000006    0.000000

     Initial potential from superposition of free atoms

     starting charge  665.98709, renormalised to  666.00000
     Starting wfc are  504 randomized atomic wfcs
     Checking if some PAW data can be deallocated... 

     total cpu time spent up to now is       45.1 secs

     Self-consistent Calculation

     iteration #  1     ecut=    45.00 Ry     beta= 0.10
     Davidson diagonalization with overlap
     ethr =  1.00E-02,  avg # of iterations =  3.7

     total cpu time spent up to now is      173.3 secs

     total energy              =  -33047.19479884 Ry
     Harris-Foulkes estimate   =  -33044.03943633 Ry
     estimated scf accuracy    <      27.03531180 Ry

     total magnetization       =     0.00 Bohr mag/cell
     absolute magnetization    =    92.07 Bohr mag/cell

     iteration #  2     ecut=    45.00 Ry     beta= 0.10
     Davidson diagonalization with overlap
     ethr =  4.06E-03,  avg # of iterations =  1.0

     total cpu time spent up to now is      255.7 secs

     total energy              =  -33058.58237096 Ry
     Harris-Foulkes estimate   =  -33047.37379729 Ry
     estimated scf accuracy    <      21.37602564 Ry

     total magnetization       =     0.00 Bohr mag/cell
     absolute magnetization    =    91.65 Bohr mag/cell

     iteration #  3     ecut=    45.00 Ry     beta= 0.10
     Davidson diagonalization with overlap
     ethr =  3.21E-03,  avg # of iterations =  2.2

     total cpu time spent up to now is      358.1 secs

     total energy              =  -33066.34503799 Ry
     Harris-Foulkes estimate   =  -33061.37345752 Ry
     estimated scf accuracy    <       8.77005965 Ry

     total magnetization       =     0.01 Bohr mag/cell
     absolute magnetization    =    85.55 Bohr mag/cell

     iteration #  4     ecut=    45.00 Ry     beta= 0.10
     Davidson diagonalization with overlap
     ethr =  1.32E-03,  avg # of iterations =  3.8

     total cpu time spent up to now is      508.2 secs

     total energy              =  -33058.52654509 Ry
     Harris-Foulkes estimate   =  -33069.16185912 Ry
     estimated scf accuracy    <      54.22002855 Ry

     total magnetization       =     0.11 Bohr mag/cell
     absolute magnetization    =    71.15 Bohr mag/cell

     iteration #  5     ecut=    45.00 Ry     beta= 0.10
     Davidson diagonalization with overlap
     ethr =  1.32E-03,  avg # of iterations =  5.0

     total cpu time spent up to now is      698.8 secs

     total energy              =  -33061.91945857 Ry
     Harris-Foulkes estimate   =  -33062.59337336 Ry
     estimated scf accuracy    <       3.49028411 Ry

     total magnetization       =     0.03 Bohr mag/cell
     absolute magnetization    =    83.49 Bohr mag/cell

     iteration #  6     ecut=    45.00 Ry     beta= 0.10
     Davidson diagonalization with overlap
     ethr =  5.24E-04,  avg # of iterations =  3.8

     total cpu time spent up to now is      829.6 secs

     total energy              =  -33062.63301273 Ry
     Harris-Foulkes estimate   =  -33062.65447355 Ry
     estimated scf accuracy    <       0.57976671 Ry

     total magnetization       =    -0.06 Bohr mag/cell
     absolute magnetization    =    78.96 Bohr mag/cell

     iteration #  7     ecut=    45.00 Ry     beta= 0.10
     Davidson diagonalization with overlap
     ethr =  8.71E-05,  avg # of iterations =  2.1

     total cpu time spent up to now is      923.2 secs

     total energy              =  -33062.66446242 Ry
     Harris-Foulkes estimate   =  -33062.64482175 Ry
     estimated scf accuracy    <       0.36779218 Ry

     total magnetization       =    -0.05 Bohr mag/cell
     absolute magnetization    =    78.90 Bohr mag/cell

     iteration #  8     ecut=    45.00 Ry     beta= 0.10
     Davidson diagonalization with overlap
     ethr =  5.52E-05,  avg # of iterations =  1.0

     total cpu time spent up to now is     1005.2 secs

     total energy              =  -33062.59768719 Ry
     Harris-Foulkes estimate   =  -33062.66870136 Ry
     estimated scf accuracy    <       0.49870629 Ry

     total magnetization       =    -0.03 Bohr mag/cell
     absolute magnetization    =    78.62 Bohr mag/cell

     iteration #  9     ecut=    45.00 Ry     beta= 0.10
     Davidson diagonalization with overlap
     ethr =  5.52E-05,  avg # of iterations =  1.2

     total cpu time spent up to now is     1088.8 secs

     total energy              =  -33062.61258789 Ry
     Harris-Foulkes estimate   =  -33062.61970006 Ry
     estimated scf accuracy    <       0.09514192 Ry

     total magnetization       =    -0.02 Bohr mag/cell
     absolute magnetization    =    78.97 Bohr mag/cell

     iteration # 10     ecut=    45.00 Ry     beta= 0.10
     Davidson diagonalization with overlap
     ethr =  1.43E-05,  avg # of iterations =  4.5

     total cpu time spent up to now is     1208.7 secs

     total energy              =  -33062.61225470 Ry
     Harris-Foulkes estimate   =  -33062.61718375 Ry
     estimated scf accuracy    <       0.02833859 Ry

     total magnetization       =    -0.00 Bohr mag/cell
     absolute magnetization    =    78.95 Bohr mag/cell

     iteration # 11     ecut=    45.00 Ry     beta= 0.10
     Davidson diagonalization with overlap
     ethr =  4.26E-06,  avg # of iterations =  4.3

     total cpu time spent up to now is     1336.5 secs

     total energy              =  -33062.61728030 Ry
     Harris-Foulkes estimate   =  -33062.61540498 Ry
     estimated scf accuracy    <       0.00502517 Ry

     total magnetization       =    -0.00 Bohr mag/cell
     absolute magnetization    =    79.08 Bohr mag/cell

     iteration # 12     ecut=    45.00 Ry     beta= 0.10
     Davidson diagonalization with overlap
     ethr =  7.55E-07,  avg # of iterations =  3.9

     total cpu time spent up to now is     1455.0 secs

     total energy              =  -33062.61805967 Ry
     Harris-Foulkes estimate   =  -33062.61741624 Ry
     estimated scf accuracy    <       0.00112326 Ry

     total magnetization       =     0.00 Bohr mag/cell
     absolute magnetization    =    78.93 Bohr mag/cell

     iteration # 13     ecut=    45.00 Ry     beta= 0.10
     Davidson diagonalization with overlap
     ethr =  1.69E-07,  avg # of iterations =  3.4

     total cpu time spent up to now is     1578.3 secs

     total energy              =  -33062.61829925 Ry
     Harris-Foulkes estimate   =  -33062.61808448 Ry
     estimated scf accuracy    <       0.00039674 Ry

     total magnetization       =     0.00 Bohr mag/cell
     absolute magnetization    =    78.82 Bohr mag/cell

     iteration # 14     ecut=    45.00 Ry     beta= 0.10
     Davidson diagonalization with overlap
     ethr =  5.96E-08,  avg # of iterations =  2.0

     total cpu time spent up to now is     1670.4 secs

     total energy              =  -33062.61845247 Ry
     Harris-Foulkes estimate   =  -33062.61831978 Ry
     estimated scf accuracy    <       0.00020352 Ry

     total magnetization       =     0.00 Bohr mag/cell
     absolute magnetization    =    78.81 Bohr mag/cell

     iteration # 15     ecut=    45.00 Ry     beta= 0.10
     Davidson diagonalization with overlap
     ethr =  3.06E-08,  avg # of iterations =  2.0

     total cpu time spent up to now is     1763.2 secs

     total energy              =  -33062.61853808 Ry
     Harris-Foulkes estimate   =  -33062.61845063 Ry
     estimated scf accuracy    <       0.00009015 Ry

     total magnetization       =     0.00 Bohr mag/cell
     absolute magnetization    =    78.80 Bohr mag/cell

     iteration # 16     ecut=    45.00 Ry     beta= 0.10
     Davidson diagonalization with overlap
     ethr =  1.35E-08,  avg # of iterations =  2.2

     total cpu time spent up to now is     1859.2 secs

     total energy              =  -33062.61857663 Ry
     Harris-Foulkes estimate   =  -33062.61851470 Ry
     estimated scf accuracy    <       0.00004361 Ry

     total magnetization       =     0.00 Bohr mag/cell
     absolute magnetization    =    78.78 Bohr mag/cell

     iteration # 17     ecut=    45.00 Ry     beta= 0.10
     Davidson diagonalization with overlap
     ethr =  6.55E-09,  avg # of iterations =  3.2

     total cpu time spent up to now is     1994.6 secs

     total energy              =  -33062.61852689 Ry
     Harris-Foulkes estimate   =  -33062.61851421 Ry
     estimated scf accuracy    <       0.00000706 Ry

     total magnetization       =     0.00 Bohr mag/cell
     absolute magnetization    =    78.75 Bohr mag/cell

     iteration # 18     ecut=    45.00 Ry     beta= 0.10
     Davidson diagonalization with overlap
     ethr =  1.06E-09,  avg # of iterations =  3.1

     total cpu time spent up to now is     2106.9 secs

     total energy              =  -33062.61852011 Ry
     Harris-Foulkes estimate   =  -33062.61851238 Ry
     estimated scf accuracy    <       0.00000302 Ry

     total magnetization       =     0.00 Bohr mag/cell
     absolute magnetization    =    78.74 Bohr mag/cell

     iteration # 19     ecut=    45.00 Ry     beta= 0.10
     Davidson diagonalization with overlap
     ethr =  4.53E-10,  avg # of iterations =  2.0

     total cpu time spent up to now is     2202.3 secs

     total energy              =  -33062.61851718 Ry
     Harris-Foulkes estimate   =  -33062.61851098 Ry
     estimated scf accuracy    <       0.00000159 Ry

     total magnetization       =     0.00 Bohr mag/cell
     absolute magnetization    =    78.74 Bohr mag/cell

     iteration # 20     ecut=    45.00 Ry     beta= 0.10
     Davidson diagonalization with overlap
     ethr =  2.39E-10,  avg # of iterations =  2.3

     total cpu time spent up to now is     2306.5 secs

     total energy              =  -33062.61851423 Ry
     Harris-Foulkes estimate   =  -33062.61850989 Ry
     estimated scf accuracy    <       0.00002465 Ry

     total magnetization       =     0.00 Bohr mag/cell
     absolute magnetization    =    78.75 Bohr mag/cell

     iteration # 21     ecut=    45.00 Ry     beta= 0.10
     Davidson diagonalization with overlap
     ethr =  2.39E-10,  avg # of iterations =  2.0

     total cpu time spent up to now is     2399.2 secs

     total energy              =  -33062.61851802 Ry
     Harris-Foulkes estimate   =  -33062.61851420 Ry
     estimated scf accuracy    <       0.00002445 Ry

     total magnetization       =     0.00 Bohr mag/cell
     absolute magnetization    =    78.75 Bohr mag/cell

     iteration # 22     ecut=    45.00 Ry     beta= 0.10
     Davidson diagonalization with overlap
     ethr =  2.39E-10,  avg # of iterations =  2.0

     total cpu time spent up to now is     2492.1 secs

     total energy              =  -33062.61852085 Ry
     Harris-Foulkes estimate   =  -33062.61851851 Ry
     estimated scf accuracy    <       0.00002530 Ry

     total magnetization       =     0.00 Bohr mag/cell
     absolute magnetization    =    78.75 Bohr mag/cell

     iteration # 23     ecut=    45.00 Ry     beta= 0.10
     Davidson diagonalization with overlap
     ethr =  2.39E-10,  avg # of iterations =  2.0

     total cpu time spent up to now is     2584.4 secs

     total energy              =  -33062.61852024 Ry
     Harris-Foulkes estimate   =  -33062.61851759 Ry
     estimated scf accuracy    <       0.00002153 Ry

     total magnetization       =     0.00 Bohr mag/cell
     absolute magnetization    =    78.75 Bohr mag/cell

     iteration # 24     ecut=    45.00 Ry     beta= 0.10
     Davidson diagonalization with overlap
     ethr =  2.39E-10,  avg # of iterations =  2.0

     total cpu time spent up to now is     2676.8 secs

     total energy              =  -33062.61852226 Ry
     Harris-Foulkes estimate   =  -33062.61851996 Ry
     estimated scf accuracy    <       0.00002201 Ry

     total magnetization       =     0.00 Bohr mag/cell
     absolute magnetization    =    78.75 Bohr mag/cell

     iteration # 25     ecut=    45.00 Ry     beta= 0.10
     Davidson diagonalization with overlap
     ethr =  2.39E-10,  avg # of iterations =  2.0

     total cpu time spent up to now is     2769.1 secs

     total energy              =  -33062.61852420 Ry
     Harris-Foulkes estimate   =  -33062.61852221 Ry
     estimated scf accuracy    <       0.00002195 Ry

     total magnetization       =     0.00 Bohr mag/cell
     absolute magnetization    =    78.75 Bohr mag/cell

     iteration # 26     ecut=    45.00 Ry     beta= 0.10
     Davidson diagonalization with overlap
     ethr =  2.39E-10,  avg # of iterations =  2.0

     total cpu time spent up to now is     2861.8 secs

     total energy              =  -33062.61852360 Ry
     Harris-Foulkes estimate   =  -33062.61852229 Ry
     estimated scf accuracy    <       0.00002216 Ry

     total magnetization       =     0.00 Bohr mag/cell
     absolute magnetization    =    78.75 Bohr mag/cell

     iteration # 27     ecut=    45.00 Ry     beta= 0.10
     Davidson diagonalization with overlap
     ethr =  2.39E-10,  avg # of iterations =  2.0

     total cpu time spent up to now is     2954.2 secs

     total energy              =  -33062.61852705 Ry
     Harris-Foulkes estimate   =  -33062.61852622 Ry
     estimated scf accuracy    <       0.00002031 Ry

     total magnetization       =     0.00 Bohr mag/cell
     absolute magnetization    =    78.75 Bohr mag/cell

     iteration # 28     ecut=    45.00 Ry     beta= 0.10
     Davidson diagonalization with overlap
     ethr =  2.39E-10,  avg # of iterations =  2.0

     total cpu time spent up to now is     3047.8 secs

     total energy              =  -33062.61852964 Ry
     Harris-Foulkes estimate   =  -33062.61853371 Ry
     estimated scf accuracy    <       0.00002040 Ry

     total magnetization       =     0.00 Bohr mag/cell
     absolute magnetization    =    78.75 Bohr mag/cell

     iteration # 29     ecut=    45.00 Ry     beta= 0.10
     Davidson diagonalization with overlap
     ethr =  2.39E-10,  avg # of iterations =  3.5

     total cpu time spent up to now is     3207.4 secs

     total energy              =  -33062.61851957 Ry
     Harris-Foulkes estimate   =  -33062.61851793 Ry
     estimated scf accuracy    <       0.00000392 Ry

     total magnetization       =     0.00 Bohr mag/cell
     absolute magnetization    =    78.75 Bohr mag/cell

     iteration # 30     ecut=    45.00 Ry     beta= 0.10
     Davidson diagonalization with overlap
     ethr =  2.39E-10,  avg # of iterations =  2.0

     total cpu time spent up to now is     3299.6 secs

     total energy              =  -33062.61851825 Ry
     Harris-Foulkes estimate   =  -33062.61851725 Ry
     estimated scf accuracy    <       0.00000281 Ry

     total magnetization       =     0.00 Bohr mag/cell
     absolute magnetization    =    78.75 Bohr mag/cell

     iteration # 31     ecut=    45.00 Ry     beta= 0.10
     Davidson diagonalization with overlap
     ethr =  2.39E-10,  avg # of iterations =  2.0

     total cpu time spent up to now is     3395.0 secs

     total energy              =  -33062.61852216 Ry
     Harris-Foulkes estimate   =  -33062.61851874 Ry
     estimated scf accuracy    <       0.00002087 Ry

     total magnetization       =     0.00 Bohr mag/cell
     absolute magnetization    =    78.74 Bohr mag/cell

     iteration # 32     ecut=    45.00 Ry     beta= 0.10
     Davidson diagonalization with overlap
     ethr =  2.39E-10,  avg # of iterations =  3.0

     total cpu time spent up to now is     3533.9 secs

     total energy              =  -33062.61852699 Ry
     Harris-Foulkes estimate   =  -33062.61852619 Ry
     estimated scf accuracy    <       0.00000353 Ry

     total magnetization       =     0.00 Bohr mag/cell
     absolute magnetization    =    78.74 Bohr mag/cell

     iteration # 33     ecut=    45.00 Ry     beta= 0.10
     Davidson diagonalization with overlap
     ethr =  2.39E-10,  avg # of iterations =  1.6

     total cpu time spent up to now is     3621.7 secs

     total energy              =  -33062.61852593 Ry
     Harris-Foulkes estimate   =  -33062.61852518 Ry
     estimated scf accuracy    <       0.00000360 Ry

     total magnetization       =     0.00 Bohr mag/cell
     absolute magnetization    =    78.74 Bohr mag/cell

     iteration # 34     ecut=    45.00 Ry     beta= 0.10
     Davidson diagonalization with overlap
     ethr =  2.39E-10,  avg # of iterations =  2.0

     total cpu time spent up to now is     3713.7 secs

     total energy              =  -33062.61852764 Ry
     Harris-Foulkes estimate   =  -33062.61852702 Ry
     estimated scf accuracy    <       0.00000364 Ry

     total magnetization       =     0.00 Bohr mag/cell
     absolute magnetization    =    78.74 Bohr mag/cell

     iteration # 35     ecut=    45.00 Ry     beta= 0.10
     Davidson diagonalization with overlap
     ethr =  2.39E-10,  avg # of iterations =  1.6

     total cpu time spent up to now is     3801.4 secs

     total energy              =  -33062.61852728 Ry
     Harris-Foulkes estimate   =  -33062.61852676 Ry
     estimated scf accuracy    <       0.00000823 Ry

     total magnetization       =     0.00 Bohr mag/cell
     absolute magnetization    =    78.75 Bohr mag/cell

     iteration # 36     ecut=    45.00 Ry     beta= 0.10
     Davidson diagonalization with overlap
     ethr =  2.39E-10,  avg # of iterations =  1.6

     total cpu time spent up to now is     3889.1 secs

     total energy              =  -33062.61852698 Ry
     Harris-Foulkes estimate   =  -33062.61852688 Ry
     estimated scf accuracy    <       0.00000828 Ry

     total magnetization       =     0.00 Bohr mag/cell
     absolute magnetization    =    78.75 Bohr mag/cell

     iteration # 37     ecut=    45.00 Ry     beta= 0.10
     Davidson diagonalization with overlap
     ethr =  2.39E-10,  avg # of iterations =  1.6

     total cpu time spent up to now is     3977.1 secs

     total energy              =  -33062.61853012 Ry
     Harris-Foulkes estimate   =  -33062.61852953 Ry
     estimated scf accuracy    <       0.00000398 Ry

     total magnetization       =     0.00 Bohr mag/cell
     absolute magnetization    =    78.74 Bohr mag/cell

     iteration # 38     ecut=    45.00 Ry     beta= 0.10
     Davidson diagonalization with overlap
     ethr =  2.39E-10,  avg # of iterations =  1.6

     total cpu time spent up to now is     4064.6 secs

     total energy              =  -33062.61852913 Ry
     Harris-Foulkes estimate   =  -33062.61852872 Ry
     estimated scf accuracy    <       0.00000378 Ry

     total magnetization       =     0.00 Bohr mag/cell
     absolute magnetization    =    78.74 Bohr mag/cell

     iteration # 39     ecut=    45.00 Ry     beta= 0.10
     Davidson diagonalization with overlap
     ethr =  2.39E-10,  avg # of iterations =  2.0

     total cpu time spent up to now is     4157.6 secs

     total energy              =  -33062.61852945 Ry
     Harris-Foulkes estimate   =  -33062.61852884 Ry
     estimated scf accuracy    <       0.00001382 Ry

     total magnetization       =     0.00 Bohr mag/cell
     absolute magnetization    =    78.75 Bohr mag/cell

     iteration # 40     ecut=    45.00 Ry     beta= 0.10
     Davidson diagonalization with overlap
     ethr =  2.39E-10,  avg # of iterations =  1.0

     total cpu time spent up to now is     4239.9 secs

     total energy              =  -33062.61852850 Ry
     Harris-Foulkes estimate   =  -33062.61852838 Ry
     estimated scf accuracy    <       0.00000405 Ry

     total magnetization       =     0.00 Bohr mag/cell
     absolute magnetization    =    78.74 Bohr mag/cell

     iteration # 41     ecut=    45.00 Ry     beta= 0.10
     Davidson diagonalization with overlap
     ethr =  2.39E-10,  avg # of iterations =  1.6

     total cpu time spent up to now is     4327.4 secs

     total energy              =  -33062.61852900 Ry
     Harris-Foulkes estimate   =  -33062.61852859 Ry
     estimated scf accuracy    <       0.00000346 Ry

     total magnetization       =     0.00 Bohr mag/cell
     absolute magnetization    =    78.74 Bohr mag/cell

     iteration # 42     ecut=    45.00 Ry     beta= 0.10
     Davidson diagonalization with overlap
     ethr =  2.39E-10,  avg # of iterations =  1.1

     total cpu time spent up to now is     4410.5 secs

     total energy              =  -33062.61852663 Ry
     Harris-Foulkes estimate   =  -33062.61852652 Ry
     estimated scf accuracy    <       0.00000579 Ry

     total magnetization       =     0.00 Bohr mag/cell
     absolute magnetization    =    78.74 Bohr mag/cell

     iteration # 43     ecut=    45.00 Ry     beta= 0.10
     Davidson diagonalization with overlap
     ethr =  2.39E-10,  avg # of iterations =  1.0

     total cpu time spent up to now is     4492.9 secs

     total energy              =  -33062.61852603 Ry
     Harris-Foulkes estimate   =  -33062.61852630 Ry
     estimated scf accuracy    <       0.00000641 Ry

     total magnetization       =     0.00 Bohr mag/cell
     absolute magnetization    =    78.74 Bohr mag/cell

     iteration # 44     ecut=    45.00 Ry     beta= 0.10
     Davidson diagonalization with overlap
     ethr =  2.39E-10,  avg # of iterations =  1.0

     total cpu time spent up to now is     4575.2 secs

     total energy              =  -33062.61852733 Ry
     Harris-Foulkes estimate   =  -33062.61852730 Ry
     estimated scf accuracy    <       0.00000749 Ry

     total magnetization       =     0.00 Bohr mag/cell
     absolute magnetization    =    78.74 Bohr mag/cell

     iteration # 45     ecut=    45.00 Ry     beta= 0.10
     Davidson diagonalization with overlap
     ethr =  2.39E-10,  avg # of iterations =  1.0

     total cpu time spent up to now is     4657.3 secs

     total energy              =  -33062.61852634 Ry
     Harris-Foulkes estimate   =  -33062.61852716 Ry
     estimated scf accuracy    <       0.00000798 Ry

     total magnetization       =     0.00 Bohr mag/cell
     absolute magnetization    =    78.74 Bohr mag/cell

     iteration # 46     ecut=    45.00 Ry     beta= 0.10
     Davidson diagonalization with overlap
     ethr =  2.39E-10,  avg # of iterations =  1.0

     total cpu time spent up to now is     4739.6 secs

     total energy              =  -33062.61852576 Ry
     Harris-Foulkes estimate   =  -33062.61852526 Ry
     estimated scf accuracy    <       0.00000798 Ry

     total magnetization       =     0.00 Bohr mag/cell
     absolute magnetization    =    78.74 Bohr mag/cell

     iteration # 47     ecut=    45.00 Ry     beta= 0.10
     Davidson diagonalization with overlap
     ethr =  2.39E-10,  avg # of iterations =  1.2

     total cpu time spent up to now is     4823.5 secs

     total energy              =  -33062.61852542 Ry
     Harris-Foulkes estimate   =  -33062.61852516 Ry
     estimated scf accuracy    <       0.00000554 Ry

     total magnetization       =     0.00 Bohr mag/cell
     absolute magnetization    =    78.74 Bohr mag/cell

     iteration # 48     ecut=    45.00 Ry     beta= 0.10
     Davidson diagonalization with overlap
     ethr =  2.39E-10,  avg # of iterations =  1.0

     total cpu time spent up to now is     4906.0 secs

     total energy              =  -33062.61852443 Ry
     Harris-Foulkes estimate   =  -33062.61852473 Ry
     estimated scf accuracy    <       0.00000465 Ry

     total magnetization       =     0.00 Bohr mag/cell
     absolute magnetization    =    78.74 Bohr mag/cell

     iteration # 49     ecut=    45.00 Ry     beta= 0.10
     Davidson diagonalization with overlap
     ethr =  2.39E-10,  avg # of iterations =  3.0
 
     Magnetic moment per site:
     atom:    1    charge:   13.5700    magn:    4.0439    constr:    0.0000
     atom:    2    charge:   13.5762    magn:    3.9993    constr:    0.0000
     atom:    3    charge:   13.5804    magn:    3.9694    constr:    0.0000
     atom:    4    charge:   13.5762    magn:    3.9993    constr:    0.0000
     atom:    5    charge:   13.5824    magn:   -4.0042    constr:    0.0000
     atom:    6    charge:   13.5785    magn:    3.9956    constr:    0.0000
     atom:    7    charge:   13.5804    magn:    3.9694    constr:    0.0000
     atom:    8    charge:   13.5785    magn:    3.9956    constr:    0.0000
     atom:    9    charge:   13.5710    magn:   -4.0923    constr:    0.0000
     atom:   10    charge:   13.5700    magn:   -4.0438    constr:    0.0000
     atom:   11    charge:   13.5804    magn:   -3.9694    constr:    0.0000
     atom:   12    charge:   13.5762    magn:   -3.9993    constr:    0.0000
     atom:   13    charge:   13.5804    magn:   -3.9694    constr:    0.0000
     atom:   14    charge:   13.5709    magn:    4.0924    constr:    0.0000
     atom:   15    charge:   13.5785    magn:   -3.9956    constr:    0.0000
     atom:   16    charge:   13.5762    magn:   -3.9993    constr:    0.0000
     atom:   17    charge:   13.5785    magn:   -3.9956    constr:    0.0000
     atom:   18    charge:   13.5825    magn:    4.0042    constr:    0.0000
     atom:   19    charge:    9.1219    magn:    0.0134    constr:    0.0000
     atom:   20    charge:    9.1212    magn:    0.0155    constr:    0.0000
     atom:   21    charge:    9.1210    magn:    0.0519    constr:    0.0000
     atom:   22    charge:    9.1212    magn:    0.0155    constr:    0.0000
     atom:   23    charge:    9.1224    magn:    0.0080    constr:    0.0000
     atom:   24    charge:    9.1213    magn:    0.0189    constr:    0.0000
     atom:   25    charge:    9.1210    magn:    0.0519    constr:    0.0000
     atom:   26    charge:    9.1213    magn:    0.0189    constr:    0.0000
     atom:   27    charge:    9.1206    magn:    0.0374    constr:    0.0000
     atom:   28    charge:    9.1219    magn:    0.0134    constr:    0.0000
     atom:   29    charge:    9.1212    magn:    0.0155    constr:    0.0000
     atom:   30    charge:    9.1210    magn:    0.0519    constr:    0.0000
     atom:   31    charge:    9.1212    magn:    0.0155    constr:    0.0000
     atom:   32    charge:    9.1224    magn:    0.0080    constr:    0.0000
     atom:   33    charge:    9.1213    magn:    0.0189    constr:    0.0000
     atom:   34    charge:    9.1210    magn:    0.0519    constr:    0.0000
     atom:   35    charge:    9.1213    magn:    0.0189    constr:    0.0000
     atom:   36    charge:    9.1206    magn:    0.0374    constr:    0.0000
     atom:   37    charge:    9.1221    magn:   -0.0134    constr:    0.0000
     atom:   38    charge:    9.1211    magn:   -0.0519    constr:    0.0000
     atom:   39    charge:    9.1213    magn:   -0.0155    constr:    0.0000
     atom:   40    charge:    9.1211    magn:   -0.0519    constr:    0.0000
     atom:   41    charge:    9.1206    magn:   -0.0374    constr:    0.0000
     atom:   42    charge:    9.1213    magn:   -0.0190    constr:    0.0000
     atom:   43    charge:    9.1213    magn:   -0.0155    constr:    0.0000
     atom:   44    charge:    9.1213    magn:   -0.0190    constr:    0.0000
     atom:   45    charge:    9.1223    magn:   -0.0080    constr:    0.0000
     atom:   46    charge:    9.1221    magn:   -0.0134    constr:    0.0000
     atom:   47    charge:    9.1211    magn:   -0.0519    constr:    0.0000
     atom:   48    charge:    9.1213    magn:   -0.0155    constr:    0.0000
     atom:   49    charge:    9.1211    magn:   -0.0519    constr:    0.0000
     atom:   50    charge:    9.1206    magn:   -0.0374    constr:    0.0000
     atom:   51    charge:    9.1213    magn:   -0.0190    constr:    0.0000
     atom:   52    charge:    9.1213    magn:   -0.0155    constr:    0.0000
     atom:   53    charge:    9.1213    magn:   -0.0190    constr:    0.0000
     atom:   54    charge:    9.1223    magn:   -0.0080    constr:    0.0000

     total cpu time spent up to now is     5023.6 secs

     End of self-consistent calculation

 ------ SPIN UP ------------


          k = 0.0000 0.0000 0.0000 ( 31747 PWs)   bands (ev):

   -66.7857 -66.7236 -66.6872 -66.6872 -66.6496 -66.6496 -66.6236 -66.6236
   -66.5799 -62.4243 -62.3765 -62.3765 -62.3472 -62.3472 -62.3455 -62.3455
   -62.3277 -62.2751 -35.5508 -35.5222 -35.5092 -35.5072 -35.4493 -35.4489
   -35.4457 -35.4456 -35.4364 -35.4364 -35.4117 -35.4116 -35.4039 -35.4038
   -35.4019 -35.4019 -35.3794 -35.3793 -35.3771 -35.3770 -35.3752 -35.3751
   -35.3494 -35.3474 -35.3474 -35.3241 -35.3034 -31.2671 -31.2522 -31.2267
   -31.2188 -31.2187 -31.2062 -31.2061 -31.1924 -31.1923 -31.1853 -31.1852
   -31.1820 -31.1817 -31.1814 -31.1813 -31.1745 -31.1744 -31.1691 -31.1528
   -31.1508 -31.1507 -31.1448 -31.1447 -31.1439 -31.1258 -31.0980 -31.0831
     5.6149   7.1496   7.1689   7.1886   7.2025   7.3652   7.8642   7.9011
     7.9032   7.9363   8.0854   8.1244   8.1301   8.1601   8.1786   8.2585
     8.2595   8.2924   8.2974   8.5303   8.5571   8.5627   8.5727   8.5814
     8.6084   8.8552   8.8675   8.8690   8.8904   8.8945   8.8988   8.8990
     8.9038   8.9084   8.9128   8.9209   8.9367   8.9393   8.9434   8.9565
     8.9879   9.0852   9.1189   9.1259   9.1287   9.1360   9.1578   9.1691
     9.1834   9.1958   9.2073   9.2641   9.2865   9.2944   9.3006   9.3570
     9.3616   9.3635   9.3793   9.3860   9.3897   9.3947   9.3998   9.4318
     9.4449   9.4482   9.4512   9.4657   9.4683   9.4734   9.4824   9.5821
     9.5826   9.5889   9.5954   9.6097   9.6101   9.6557   9.6668   9.6675
     9.6723   9.6737   9.6786   9.7527   9.7599   9.7614   9.7861   9.8499
     9.8516   9.9262   9.9291   9.9490   9.9510   9.9528   9.9964  10.0216
    10.0997  10.1362  10.1535  10.1711  10.2882  10.2958  10.2982  10.2998
    10.3061  10.3078  10.3104  10.3136  10.3226  10.3338  10.3341  10.3456
    10.3476  10.3527  10.3585  10.3595  10.3613  10.3662  10.3745  10.3857
    10.3957  10.5123  10.5149  10.5343  10.5533  10.6380  10.6401  10.6583
    10.7657  10.7758  10.7863  10.7881  10.8102  10.8149  10.8380  10.8433
    10.8493  10.8534  10.8719  10.8754  10.8772  10.8895  10.8899  10.9125
    10.9181  10.9551  11.0326  11.0396  11.0779  11.0793  11.2058  11.2210
    11.2233  11.2310  11.2406  11.2565  11.2916  11.3462  11.3654  11.3678
    11.3727  11.3806  11.3840  11.3931  11.4019  11.4130  11.4131  11.4289
    11.4427  11.4821  11.5700  11.5731  11.5770  11.5908  11.5947  11.5952
    11.6010  11.6451  11.6507  11.6653  11.7288  11.7373  11.7385  11.7494
    11.8246  11.8286  11.8393  11.8423  11.8725  11.8848  11.9224  11.9262
    11.9508  11.9631  12.0995  12.1024  12.1034  12.1081  12.1192  12.1393
    12.1458  12.1470  12.1473  12.1498  12.1581  12.1739  12.2118  12.2366
    12.3109  12.3183  12.3191  12.3338  12.3437  12.3555  12.3713  12.3842
    12.4236  12.4353  12.4356  12.4712  12.4827  12.4980  12.5070  12.5111
    12.5182  12.5262  12.5628  12.5655  12.6040  12.6381  12.6745  12.7170
    12.7191  12.7426  12.8960  12.9335  12.9954  13.0242  13.0768  13.1010
    13.1163  13.1270  13.1498  13.1745  13.4026  13.4863  13.7463  13.7593
    13.8632  13.9254  14.0068  14.2333  14.2555  14.2930  14.3409  14.3566
    14.8773  14.9066  15.0020  15.0141  15.1343  15.2019  15.2023  15.2386
    15.3275  15.3281  15.3363  15.3881  15.4197  15.4517  15.4908  15.5233
    15.5743  15.6059  15.7288  15.7985  15.8489  15.9281  15.9728  16.0288
    16.0495  16.0663  16.0875  16.1265  16.1448  16.1557  16.1559  16.1671
    16.2179  16.2896  16.3051  16.3245  16.3298  16.3432  16.3832  16.3927
    16.4388  16.4995  16.5317  16.5821  16.6567  16.7599  16.8171  16.8219
    16.9159  17.0340  17.1810  17.2160  17.2305  17.2330  17.2541  17.3985
    17.4800  17.4942  17.8608  17.9142  17.9316  17.9408  17.9502  17.9668
    18.0384  18.3192  18.3465  19.0045  19.0595  19.0947  19.1467  19.1696

          k = 0.0000 0.0000-0.5734 ( 31692 PWs)   bands (ev):

   -66.7857 -66.7236 -66.6872 -66.6872 -66.6496 -66.6496 -66.6236 -66.6236
   -66.5799 -62.4243 -62.3765 -62.3765 -62.3472 -62.3472 -62.3455 -62.3455
   -62.3277 -62.2751 -35.5508 -35.5222 -35.5092 -35.5072 -35.4493 -35.4489
   -35.4457 -35.4456 -35.4364 -35.4364 -35.4117 -35.4116 -35.4039 -35.4038
   -35.4019 -35.4019 -35.3794 -35.3793 -35.3771 -35.3770 -35.3752 -35.3751
   -35.3494 -35.3474 -35.3474 -35.3241 -35.3034 -31.2671 -31.2522 -31.2267
   -31.2188 -31.2187 -31.2062 -31.2061 -31.1924 -31.1923 -31.1853 -31.1852
   -31.1820 -31.1817 -31.1814 -31.1813 -31.1745 -31.1744 -31.1691 -31.1528
   -31.1508 -31.1507 -31.1448 -31.1447 -31.1439 -31.1258 -31.0980 -31.0831
     6.1378   6.2343   7.5195   7.5405   7.5499   7.5631   7.5984   7.6106
     7.6295   7.6477   8.2982   8.3006   8.3439   8.3462   8.3463   8.3723
     8.4036   8.4073   8.4634   8.4639   8.4734   8.4761   8.4868   8.4877
     8.5141   8.5183   8.6857   8.7256   8.7295   8.8192   8.9324   8.9353
     8.9676   8.9691   8.9775   8.9823   9.0029   9.0045   9.0154   9.0181
     9.0367   9.0471   9.0493   9.0569   9.0912   9.1016   9.1910   9.1964
     9.2173   9.2235   9.2606   9.2653   9.2655   9.2705   9.2748   9.2800
     9.2889   9.2945   9.2968   9.3066   9.3113   9.3137   9.4123   9.4152
     9.4237   9.4256   9.4326   9.4328   9.4341   9.4478   9.4506   9.4683
     9.4689   9.5019   9.5129   9.5209   9.5502   9.5575   9.5885   9.7226
     9.7705   9.7919   9.7952   9.7953   9.8212   9.8287   9.8456   9.8507
     9.8740   9.8747   9.8804   9.8840   9.8851   9.8881   9.8903   9.8908
    10.0550  10.0562  10.0666  10.0667  10.1303  10.1326  10.1386  10.1559
    10.1660  10.1712  10.1997  10.2125  10.2216  10.2226  10.3473  10.3740
    10.3785  10.3967  10.4010  10.4035  10.4161  10.4344  10.4390  10.5495
    10.5897  10.5901  10.6024  10.6093  10.6177  10.6301  10.6399  10.6399
    10.6729  10.6935  10.7189  10.7536  10.7661  10.8183  10.8596  10.8999
    10.9478  10.9506  10.9867  11.0034  11.0257  11.0264  11.0392  11.0657
    11.0843  11.0920  11.1009  11.1101  11.1696  11.1838  11.1839  11.2063
    11.2331  11.2341  11.2470  11.2547  11.2582  11.2602  11.2655  11.2675
    11.2692  11.2740  11.2814  11.2822  11.2863  11.2937  11.3115  11.3161
    11.3185  11.3313  11.3323  11.3346  11.5010  11.5996  11.7070  11.7116
    11.7156  11.7174  11.7200  11.7229  11.7278  11.7326  11.7387  11.7402
    11.7482  11.7779  11.7917  11.8048  11.8174  11.8231  11.8372  11.8439
    11.9594  11.9661  12.0076  12.0288  12.0407  12.0436  12.0765  12.1190
    12.1663  12.1972  12.2060  12.2344  12.2395  12.2520  12.2802  12.3718
    12.4062  12.4147  12.4304  12.4575  12.4789  12.4865  12.4880  12.5025
    12.5084  12.5216  12.5271  12.5343  12.5587  12.5804  12.5856  12.6045
    12.6184  12.6562  12.7645  12.7924  12.7941  12.8260  12.8926  12.8999
    12.9100  13.0106  13.0432  13.0584  13.1518  13.1698  13.1833  13.1968
    13.2027  13.2133  13.3744  13.4969  13.5059  13.5151  13.6903  13.7767
    13.7921  13.9340  14.0004  14.0353  14.0851  14.1107  14.2504  14.6154
    14.6534  14.9075  14.9183  14.9215  14.9538  14.9699  15.0767  15.0914
    15.1169  15.1451  15.1714  15.2245  15.3210  15.3463  15.4337  15.4970
    15.5567  15.6213  15.6356  15.8204  15.8591  15.9612  16.0271  16.0738
    16.1061  16.1231  16.1247  16.1446  16.1576  16.1607  16.1644  16.2207
    16.2308  16.2445  16.2753  16.2810  16.3015  16.3023  16.3066  16.3211
    16.3644  16.4584  16.4907  16.5574  16.6331  16.6652  16.7639  16.8145
    16.8918  16.9158  17.1850  17.3713  17.4157  17.4364  17.5229  17.5381
    17.5708  17.5874  17.6079  17.7209  17.7304  17.7419  17.7509  17.8894
    17.9019  17.9057  18.0477  18.1110  18.2166  18.2614  18.2919  18.3493

          k = 0.0000-0.5000 0.0000 ( 31722 PWs)   bands (ev):

   -66.7857 -66.7236 -66.6872 -66.6872 -66.6496 -66.6496 -66.6236 -66.6236
   -66.5799 -62.4243 -62.3765 -62.3765 -62.3472 -62.3472 -62.3455 -62.3455
   -62.3277 -62.2751 -35.5508 -35.5222 -35.5092 -35.5072 -35.4493 -35.4489
   -35.4457 -35.4456 -35.4364 -35.4364 -35.4116 -35.4116 -35.4039 -35.4038
   -35.4019 -35.4019 -35.3794 -35.3794 -35.3771 -35.3770 -35.3752 -35.3751
   -35.3494 -35.3474 -35.3474 -35.3241 -35.3034 -31.2671 -31.2522 -31.2267
   -31.2188 -31.2187 -31.2061 -31.2060 -31.1924 -31.1924 -31.1853 -31.1853
   -31.1819 -31.1818 -31.1814 -31.1813 -31.1745 -31.1744 -31.1691 -31.1528
   -31.1508 -31.1507 -31.1448 -31.1447 -31.1439 -31.1258 -31.0980 -31.0831
     6.0318   6.0534   7.4092   7.4350   7.4540   7.4911   7.6718   7.6817
     8.1011   8.1219   8.1436   8.1655   8.1865   8.2397   8.2654   8.2789
     8.3996   8.4192   8.4473   8.4787   8.5936   8.6320   8.6454   8.6582
     8.6711   8.6832   8.7013   8.7030   8.7367   8.8139   8.8218   8.8376
     8.8468   8.8640   8.8692   8.8996   8.9060   8.9102   8.9107   8.9229
     8.9246   8.9283   8.9351   8.9552   9.0448   9.0551   9.1595   9.1720
     9.1917   9.1941   9.2088   9.2266   9.2507   9.2538   9.3163   9.3229
     9.3454   9.3673   9.4033   9.4135   9.4727   9.4794   9.4956   9.5000
     9.5283   9.5465   9.5514   9.5693   9.5761   9.5977   9.6047   9.6092
     9.6196   9.6256   9.6261   9.6307   9.6335   9.6407   9.6517   9.6611
     9.6671   9.6709   9.6756   9.6825   9.6874   9.7218   9.7240   9.7393
     9.7604   9.7638   9.7678   9.7852   9.8907   9.8968   9.9029  10.0038
    10.0146  10.0307  10.1561  10.1838  10.2110  10.2283  10.2518  10.2549
    10.2613  10.2729  10.2752  10.2758  10.2851  10.2890  10.3355  10.3564
    10.3722  10.3795  10.3859  10.3927  10.4200  10.4390  10.4617  10.4733
    10.5000  10.5048  10.5165  10.5313  10.5423  10.5788  10.5794  10.5986
    10.6180  10.6388  10.6695  10.7021  10.7135  10.7303  10.7377  10.7631
    10.8049  10.8306  10.8344  10.8473  10.8611  10.8744  10.9109  10.9439
    10.9519  11.0145  11.0191  11.0234  11.0345  11.1087  11.1614  11.1916
    11.2916  11.3200  11.3451  11.3528  11.3714  11.3830  11.4092  11.4140
    11.4236  11.4508  11.4643  11.4779  11.5119  11.5458  11.5556  11.5678
    11.5793  11.6145  11.6170  11.6389  11.6434  11.6448  11.6610  11.7325
    11.7625  11.7699  11.7960  11.8107  11.8198  11.8281  11.8403  11.8415
    11.8818  11.8932  11.9008  11.9281  11.9458  11.9463  11.9540  11.9649
    11.9680  11.9860  12.0136  12.0190  12.0912  12.1262  12.1521  12.1699
    12.1904  12.2126  12.2286  12.2540  12.2690  12.2717  12.2787  12.2874
    12.2946  12.3052  12.3146  12.3243  12.3587  12.3644  12.3973  12.4156
    12.4171  12.4506  12.4825  12.4971  12.5026  12.5140  12.5287  12.5675
    12.5712  12.6050  12.6122  12.6404  12.6424  12.6601  12.7118  12.7560
    12.8337  12.8835  13.0247  13.0618  13.0824  13.0892  13.1218  13.1294
    13.1672  13.2063  13.2119  13.2197  13.2477  13.2710  13.3402  13.3493
    13.4300  13.4602  13.4845  13.7219  13.7867  14.2614  14.5321  14.5431
    14.6594  14.7027  14.7535  14.7833  14.8366  14.8639  14.9194  14.9605
    15.0541  15.1392  15.1673  15.3325  15.3625  15.4594  15.5103  15.6438
    15.6617  15.7238  15.7894  15.8307  15.8539  15.8722  15.9266  15.9953
    16.0298  16.0401  16.0767  16.0875  16.1081  16.1603  16.1717  16.1826
    16.2079  16.2171  16.2193  16.2316  16.2840  16.2909  16.3294  16.3971
    16.4358  16.4411  16.5630  16.6504  16.7273  16.7699  17.0205  17.1038
    17.1426  17.1842  17.2115  17.3711  17.4387  17.5016  17.6329  17.6419
    17.6891  17.7559  17.7794  17.8020  17.8320  17.8517  17.9614  17.9653
    18.0463  18.0928  18.1587  18.2474  19.2435  19.2891  19.3099  19.3361

          k = 0.0000-0.5000-0.5734 ( 31696 PWs)   bands (ev):

   -66.7857 -66.7236 -66.6872 -66.6872 -66.6496 -66.6496 -66.6236 -66.6236
   -66.5799 -62.4243 -62.3765 -62.3765 -62.3472 -62.3472 -62.3455 -62.3455
   -62.3277 -62.2751 -35.5508 -35.5222 -35.5092 -35.5072 -35.4493 -35.4489
   -35.4457 -35.4456 -35.4364 -35.4364 -35.4116 -35.4116 -35.4039 -35.4038
   -35.4019 -35.4019 -35.3794 -35.3794 -35.3771 -35.3770 -35.3752 -35.3751
   -35.3494 -35.3474 -35.3474 -35.3241 -35.3034 -31.2671 -31.2522 -31.2267
   -31.2188 -31.2187 -31.2061 -31.2060 -31.1924 -31.1924 -31.1853 -31.1853
   -31.1819 -31.1818 -31.1814 -31.1813 -31.1745 -31.1744 -31.1691 -31.1528
   -31.1508 -31.1507 -31.1448 -31.1447 -31.1439 -31.1258 -31.0980 -31.0831
     6.5144   6.5636   6.6145   6.6451   7.8254   7.8299   7.8706   7.8884
     7.8916   7.9110   7.9479   7.9538   8.2635   8.2829   8.2982   8.3043
     8.5133   8.5286   8.5331   8.5335   8.6512   8.6660   8.6726   8.6859
     8.6909   8.7020   8.7079   8.7110   8.7132   8.7220   8.7427   8.7454
     8.7619   8.7860   8.8000   8.8215   8.9378   8.9860   9.0244   9.0331
     9.0405   9.0587   9.0605   9.0772   9.1761   9.2013   9.2070   9.2203
     9.2243   9.2251   9.2298   9.2322   9.2428   9.2509   9.2534   9.2603
     9.2661   9.2770   9.2800   9.2847   9.3129   9.3585   9.3801   9.3866
     9.4192   9.4274   9.4339   9.4506   9.4591   9.4703   9.4764   9.4818
     9.4839   9.4859   9.4902   9.5134   9.5351   9.5451   9.5527   9.5806
     9.5893   9.6273   9.7517   9.7635   9.7801   9.7847   9.8029   9.8180
     9.8376   9.8438   9.8443   9.8493   9.8552   9.8610   9.8886   9.8923
     9.9456   9.9721   9.9865  10.0073  10.0305  10.0469  10.0582  10.0684
    10.3639  10.3813  10.4003  10.4094  10.4119  10.4164  10.4171  10.4275
    10.4458  10.4657  10.4839  10.4862  10.4881  10.4953  10.5096  10.5390
    10.5586  10.5636  10.5713  10.5756  10.5851  10.6028  10.6036  10.6242
    10.6381  10.6439  10.6711  10.6777  10.6826  10.6966  10.6983  10.7054
    10.7379  10.8706  10.8724  10.9128  10.9827  11.0124  11.0270  11.0894
    11.1152  11.1233  11.1503  11.1598  11.1694  11.1864  11.1978  11.2110
    11.2131  11.2146  11.2861  11.3045  11.3378  11.3420  11.3511  11.3667
    11.3722  11.3780  11.3828  11.4301  11.4437  11.4737  11.4968  11.5152
    11.5421  11.5547  11.5701  11.5744  11.5800  11.5898  11.5924  11.5995
    11.6134  11.6368  11.6934  11.7215  11.7389  11.7651  11.8009  11.8093
    11.8892  11.9030  11.9077  11.9354  11.9645  11.9657  11.9852  11.9928
    12.0095  12.0193  12.0284  12.0386  12.0395  12.0432  12.1137  12.1156
    12.1176  12.1298  12.1417  12.2429  12.2636  12.2848  12.2905  12.2983
    12.3848  12.4022  12.4159  12.4390  12.4423  12.4684  12.4801  12.4863
    12.4952  12.5048  12.5199  12.5493  12.5515  12.5584  12.5980  12.6325
    12.6407  12.6620  12.6722  12.7311  12.7728  12.7992  12.8217  12.8440
    12.8783  12.9023  12.9687  12.9879  13.0084  13.0482  13.0622  13.0683
    13.1695  13.2356  13.2970  13.3955  13.5845  13.6468  13.7239  13.8265
    13.8417  13.8732  13.8737  13.9870  14.0391  14.2517  14.2801  14.3058
    14.3198  14.4611  14.5276  14.5722  14.5959  14.6907  14.7350  15.1708
    15.1746  15.1982  15.2515  15.3386  15.3762  15.4756  15.5853  15.6285
    15.6383  15.6517  15.7173  15.7689  15.8343  16.0135  16.0397  16.0784
    16.1070  16.1108  16.1215  16.1504  16.1909  16.2178  16.2446  16.2644
    16.2773  16.2807  16.2943  16.3169  16.3681  16.3683  16.3823  16.4427
    16.5242  16.5457  16.5629  16.5954  16.5987  16.6071  16.6327  16.6613
    16.7107  16.7505  16.7927  16.8164  16.8754  16.9181  16.9951  17.0148
    17.0596  17.1136  17.1897  17.2354  18.5923  18.6837  18.7423  18.7870
    18.7916  18.8109  18.8208  18.8499  18.8658  18.9181  18.9619  19.0182

          k =-0.5000-0.5000 0.0000 ( 31612 PWs)   bands (ev):

   -66.7857 -66.7236 -66.6872 -66.6872 -66.6496 -66.6496 -66.6236 -66.6236
   -66.5799 -62.4243 -62.3765 -62.3765 -62.3472 -62.3472 -62.3455 -62.3455
   -62.3277 -62.2751 -35.5508 -35.5222 -35.5092 -35.5072 -35.4493 -35.4489
   -35.4457 -35.4456 -35.4364 -35.4364 -35.4116 -35.4116 -35.4039 -35.4038
   -35.4019 -35.4019 -35.3794 -35.3793 -35.3771 -35.3770 -35.3752 -35.3752
   -35.3494 -35.3474 -35.3474 -35.3241 -35.3034 -31.2671 -31.2522 -31.2267
   -31.2187 -31.2187 -31.2060 -31.2060 -31.1924 -31.1924 -31.1853 -31.1852
   -31.1819 -31.1819 -31.1814 -31.1813 -31.1745 -31.1744 -31.1691 -31.1528
   -31.1508 -31.1507 -31.1448 -31.1447 -31.1439 -31.1258 -31.0980 -31.0831
     6.4075   6.4405   6.4453   6.4669   8.0042   8.0196   8.0207   8.0265
     8.0781   8.1400   8.2982   8.3233   8.3272   8.3328   8.3401   8.3482
     8.3502   8.3535   8.3643   8.3646   8.3741   8.3804   8.5640   8.5858
     8.6041   8.6650   8.6911   8.7146   8.7228   8.7244   8.7363   8.7482
     8.7601   8.7857   8.9137   8.9154   8.9590   8.9603   8.9762   8.9765
     8.9785   9.0023   9.0094   9.0133   9.0171   9.0256   9.0494   9.0504
     9.1025   9.1463   9.3044   9.3170   9.3184   9.3231   9.4039   9.4044
     9.4115   9.4141   9.4170   9.4229   9.4253   9.4304   9.4382   9.4418
     9.4538   9.4629   9.4769   9.4798   9.4883   9.5023   9.5242   9.5258
     9.5297   9.5340   9.5467   9.5473   9.5633   9.5672   9.5805   9.5821
     9.5979   9.6082   9.6979   9.6979   9.7868   9.8123   9.8191   9.8308
     9.8324   9.8334   9.8345   9.8496   9.8531   9.8689  10.0333  10.0563
    10.0765  10.0819  10.1124  10.1275  10.1426  10.1477  10.1562  10.1624
    10.1771  10.1886  10.2021  10.2191  10.2200  10.2299  10.2309  10.2328
    10.2392  10.2439  10.2573  10.2579  10.4575  10.4651  10.4693  10.4803
    10.4876  10.4972  10.5070  10.5347  10.6147  10.6265  10.6646  10.6654
    10.6698  10.6741  10.6758  10.6808  10.6833  10.6862  10.6958  10.7102
    10.7392  10.7416  10.8027  10.8190  10.8292  10.8474  10.8614  10.8659
    10.8997  10.9154  11.1991  11.2133  11.2167  11.2175  11.2907  11.3172
    11.3203  11.3269  11.3700  11.3842  11.3984  11.4056  11.5491  11.5703
    11.6009  11.6243  11.6387  11.6388  11.6412  11.6454  11.6469  11.6553
    11.6574  11.6607  11.6768  11.7051  11.7156  11.7241  11.7406  11.8758
    11.8785  11.8807  11.8841  11.8870  11.8908  11.9459  12.0074  12.0492
    12.0514  12.0641  12.0855  12.0964  12.1042  12.1052  12.1059  12.1070
    12.1131  12.1133  12.1244  12.1300  12.1301  12.1420  12.1463  12.1533
    12.1839  12.1997  12.2350  12.2402  12.2455  12.2515  12.2676  12.2705
    12.2720  12.2752  12.2766  12.2882  12.2886  12.2971  12.3104  12.3289
    12.3332  12.3357  12.3621  12.3971  12.4187  12.4334  12.4755  12.4822
    12.5058  12.5603  12.5870  12.6336  12.6468  12.6706  12.6848  12.6868
    12.7208  12.7215  12.7477  12.8693  12.8837  12.9125  12.9224  12.9497
    12.9777  13.0049  13.0268  13.0504  13.0717  13.5728  13.6746  13.6753
    13.6930  13.7975  13.8144  13.9357  14.0651  14.0708  14.0726  14.0908
    14.0950  14.2405  14.2772  14.3644  14.4077  14.5300  14.8262  14.8836
    15.0209  15.1550  15.2460  15.2783  15.2820  15.5618  15.6135  15.7446
    15.7852  15.7949  15.8075  15.8218  15.8620  15.8952  15.9178  15.9187
    15.9301  15.9910  16.0368  16.0803  16.1140  16.1676  16.1802  16.1896
    16.2230  16.2532  16.3123  16.3209  16.3910  16.4494  16.5199  16.5299
    16.5548  16.5698  16.5776  16.5881  16.6271  16.6421  16.6508  16.7821
    16.7867  16.8655  16.9523  16.9641  17.3796  17.3980  17.4251  18.0825
    18.1321  18.1735  18.1985  18.2429  18.3201  18.4221  18.4757  18.5423
    18.5766  18.6099  18.6288  18.6543  18.7364  18.7644  18.7918  18.8203

          k =-0.5000-0.5000-0.5734 ( 31672 PWs)   bands (ev):

   -66.7857 -66.7236 -66.6872 -66.6872 -66.6496 -66.6496 -66.6236 -66.6236
   -66.5799 -62.4243 -62.3765 -62.3765 -62.3472 -62.3472 -62.3455 -62.3455
   -62.3277 -62.2751 -35.5508 -35.5222 -35.5092 -35.5072 -35.4493 -35.4489
   -35.4457 -35.4456 -35.4364 -35.4364 -35.4116 -35.4116 -35.4039 -35.4038
   -35.4019 -35.4019 -35.3794 -35.3793 -35.3771 -35.3770 -35.3752 -35.3752
   -35.3494 -35.3474 -35.3474 -35.3241 -35.3034 -31.2671 -31.2522 -31.2267
   -31.2187 -31.2187 -31.2060 -31.2060 -31.1924 -31.1924 -31.1853 -31.1852
   -31.1819 -31.1819 -31.1814 -31.1813 -31.1745 -31.1744 -31.1691 -31.1528
   -31.1508 -31.1507 -31.1448 -31.1447 -31.1439 -31.1258 -31.0980 -31.0831
     6.8745   6.8920   6.9481   6.9624   6.9853   6.9965   7.0436   7.0533
     8.4467   8.4651   8.4741   8.4821   8.4859   8.4898   8.4910   8.4959
     8.4974   8.5032   8.5060   8.5155   8.5325   8.5422   8.5488   8.5663
     8.5668   8.5769   8.5900   8.6467   8.8747   8.8839   8.8849   8.8971
     8.9033   8.9273   8.9331   8.9490   9.0760   9.0901   9.1181   9.1228
     9.1274   9.1354   9.1399   9.1455   9.1560   9.1581   9.1587   9.1590
     9.1609   9.1731   9.1738   9.1796   9.1802   9.1802   9.1809   9.1824
     9.1829   9.1857   9.1868   9.1911   9.1919   9.2046   9.2049   9.2157
     9.2195   9.2382   9.2522   9.2574   9.2596   9.2603   9.2785   9.2891
     9.5416   9.5509   9.5546   9.5573   9.5997   9.6017   9.6102   9.6275
     9.6420   9.6490   9.6685   9.7053   9.7148   9.7391   9.7849   9.7892
     9.8089   9.8089   9.8555   9.8606   9.8716   9.8849   9.8964   9.9105
    10.1183  10.1206  10.1478  10.1491  10.1720  10.1735  10.2004  10.2013
    10.2705  10.3355  10.4327  10.4334  10.4590  10.4617  10.4806  10.4821
    10.4885  10.4902  10.4982  10.4993  10.5054  10.5119  10.5214  10.5217
    10.5284  10.5300  10.5418  10.5466  10.5845  10.5964  10.5968  10.6151
    10.6207  10.6250  10.6406  10.6418  10.6471  10.6510  10.6646  10.6726
    10.6735  10.6832  10.6836  10.6955  10.7345  10.7479  11.0032  11.0473
    11.0513  11.0821  11.0892  11.1055  11.1418  11.1481  11.3798  11.3853
    11.3872  11.3953  11.4328  11.4349  11.4378  11.4460  11.4522  11.4595
    11.4877  11.4930  11.4986  11.5166  11.5348  11.5669  11.5729  11.6116
    11.6136  11.6393  11.6449  11.6580  11.6657  11.6721  11.6955  11.7092
    11.7193  11.7301  11.7394  11.7687  11.7735  11.7781  11.7859  11.7904
    11.7961  11.8023  11.8229  11.8349  11.8397  11.9377  11.9822  11.9968
    12.0242  12.0625  12.0922  12.1098  12.1163  12.1322  12.1441  12.1598
    12.1900  12.1939  12.1987  12.2224  12.2337  12.2594  12.2608  12.3439
    12.3447  12.3471  12.3785  12.3939  12.4305  12.4318  12.4545  12.4674
    12.4676  12.4888  12.4940  12.5188  12.5439  12.5985  12.6129  12.6449
    12.6553  12.6787  12.6843  12.7017  12.7682  12.8034  12.9007  12.9250
    12.9661  12.9751  12.9787  13.0117  13.0740  13.1410  13.1495  13.1968
    13.2024  13.2232  13.2287  13.2526  13.3518  13.4968  13.5012  13.5172
    13.5436  13.5579  13.6542  13.8664  13.8809  13.9413  14.1009  14.1594
    14.1961  14.2052  14.3314  14.4985  14.8127  14.8910  14.9062  14.9938
    15.0326  15.2314  15.3860  15.3926  15.4221  15.5150  15.6408  15.6411
    15.6976  15.7999  15.8121  15.8366  15.8513  15.8529  15.8971  15.9207
    15.9315  16.0194  16.0452  16.0526  16.1153  16.1190  16.1491  16.2109
    16.2383  16.3161  16.3243  16.4195  16.4533  16.4601  16.4648  16.4843
    16.5248  16.5324  16.5522  16.6484  16.6997  16.7212  16.7622  16.7825
    16.7872  16.8128  16.8366  16.9007  16.9153  16.9234  16.9676  16.9837
    17.1160  17.1275  17.4113  17.6913  17.9581  18.0454  18.9961  19.0004
    19.0357  19.0961  19.1058  19.1127  19.2101  19.2194  19.2905  19.3119

 ------ SPIN DOWN ----------


          k = 0.0000 0.0000 0.0000 ( 31747 PWs)   bands (ev):

   -66.7856 -66.7236 -66.6871 -66.6871 -66.6496 -66.6496 -66.6236 -66.6236
   -66.5800 -62.4243 -62.3766 -62.3766 -62.3472 -62.3472 -62.3455 -62.3455
   -62.3277 -62.2750 -35.5507 -35.5221 -35.5091 -35.5071 -35.4492 -35.4489
   -35.4455 -35.4454 -35.4363 -35.4363 -35.4115 -35.4115 -35.4039 -35.4038
   -35.4019 -35.4018 -35.3793 -35.3793 -35.3770 -35.3770 -35.3752 -35.3751
   -35.3495 -35.3474 -35.3473 -35.3241 -35.3036 -31.2671 -31.2522 -31.2268
   -31.2188 -31.2188 -31.2062 -31.2062 -31.1924 -31.1924 -31.1854 -31.1852
   -31.1820 -31.1818 -31.1815 -31.1814 -31.1745 -31.1744 -31.1691 -31.1528
   -31.1508 -31.1507 -31.1448 -31.1447 -31.1439 -31.1258 -31.0979 -31.0829
     5.6149   7.1494   7.1690   7.1886   7.2027   7.3652   7.8641   7.9012
     7.9032   7.9363   8.0854   8.1243   8.1301   8.1601   8.1786   8.2586
     8.2596   8.2922   8.2973   8.5302   8.5571   8.5627   8.5727   8.5815
     8.6084   8.8551   8.8676   8.8691   8.8903   8.8945   8.8988   8.8991
     8.9038   8.9084   8.9128   8.9209   8.9367   8.9393   8.9434   8.9565
     8.9879   9.0852   9.1189   9.1259   9.1287   9.1360   9.1578   9.1690
     9.1834   9.1958   9.2074   9.2641   9.2865   9.2944   9.3006   9.3570
     9.3616   9.3636   9.3793   9.3860   9.3898   9.3947   9.3997   9.4317
     9.4448   9.4482   9.4512   9.4658   9.4683   9.4735   9.4824   9.5821
     9.5826   9.5889   9.5954   9.6097   9.6100   9.6557   9.6668   9.6675
     9.6723   9.6737   9.6785   9.7526   9.7599   9.7614   9.7862   9.8499
     9.8516   9.9261   9.9290   9.9491   9.9510   9.9528   9.9963  10.0216
    10.0997  10.1362  10.1534  10.1711  10.2881  10.2957  10.2982  10.2998
    10.3061  10.3078  10.3104  10.3136  10.3226  10.3338  10.3341  10.3456
    10.3476  10.3526  10.3584  10.3593  10.3614  10.3662  10.3745  10.3857
    10.3959  10.5123  10.5149  10.5343  10.5533  10.6380  10.6401  10.6584
    10.7657  10.7758  10.7863  10.7881  10.8102  10.8149  10.8380  10.8433
    10.8493  10.8534  10.8719  10.8752  10.8772  10.8895  10.8899  10.9126
    10.9181  10.9551  11.0326  11.0395  11.0780  11.0793  11.2057  11.2210
    11.2233  11.2310  11.2406  11.2565  11.2916  11.3461  11.3655  11.3678
    11.3727  11.3805  11.3840  11.3931  11.4020  11.4129  11.4131  11.4290
    11.4428  11.4822  11.5699  11.5731  11.5770  11.5909  11.5946  11.5952
    11.6010  11.6452  11.6508  11.6653  11.7287  11.7372  11.7386  11.7494
    11.8247  11.8285  11.8393  11.8423  11.8725  11.8847  11.9224  11.9262
    11.9508  11.9630  12.0995  12.1025  12.1034  12.1081  12.1192  12.1393
    12.1457  12.1470  12.1473  12.1499  12.1581  12.1739  12.2118  12.2367
    12.3110  12.3184  12.3192  12.3339  12.3437  12.3556  12.3713  12.3842
    12.4237  12.4353  12.4356  12.4712  12.4827  12.4980  12.5071  12.5112
    12.5183  12.5262  12.5628  12.5655  12.6040  12.6381  12.6745  12.7171
    12.7192  12.7426  12.8960  12.9336  12.9954  13.0243  13.0768  13.1010
    13.1162  13.1270  13.1499  13.1746  13.4025  13.4863  13.7464  13.7593
    13.8632  13.9254  14.0069  14.2334  14.2554  14.2931  14.3410  14.3565
    14.8774  14.9066  15.0020  15.0141  15.1343  15.2019  15.2023  15.2386
    15.3275  15.3281  15.3363  15.3880  15.4197  15.4517  15.4908  15.5233
    15.5743  15.6060  15.7288  15.7983  15.8489  15.9281  15.9728  16.0288
    16.0494  16.0662  16.0875  16.1265  16.1448  16.1557  16.1559  16.1671
    16.2178  16.2896  16.3051  16.3245  16.3297  16.3431  16.3832  16.3926
    16.4387  16.4995  16.5317  16.5821  16.6567  16.7599  16.8171  16.8219
    16.9159  17.0341  17.1810  17.2160  17.2304  17.2330  17.2541  17.3984
    17.4801  17.4943  17.8608  17.9142  17.9316  17.9408  17.9503  17.9667
    18.0384  18.3192  18.3465  19.0045  19.0596  19.0946  19.1467  19.1695

          k = 0.0000 0.0000-0.5734 ( 31692 PWs)   bands (ev):

   -66.7856 -66.7236 -66.6871 -66.6871 -66.6496 -66.6496 -66.6236 -66.6236
   -66.5800 -62.4243 -62.3766 -62.3766 -62.3472 -62.3472 -62.3455 -62.3455
   -62.3277 -62.2750 -35.5507 -35.5221 -35.5091 -35.5071 -35.4492 -35.4489
   -35.4455 -35.4454 -35.4363 -35.4363 -35.4115 -35.4115 -35.4039 -35.4038
   -35.4019 -35.4018 -35.3794 -35.3793 -35.3770 -35.3770 -35.3752 -35.3751
   -35.3495 -35.3474 -35.3473 -35.3241 -35.3036 -31.2671 -31.2522 -31.2268
   -31.2188 -31.2188 -31.2062 -31.2062 -31.1924 -31.1924 -31.1854 -31.1852
   -31.1820 -31.1818 -31.1815 -31.1814 -31.1745 -31.1744 -31.1691 -31.1528
   -31.1508 -31.1507 -31.1448 -31.1447 -31.1439 -31.1258 -31.0979 -31.0829
     6.1378   6.2343   7.5196   7.5405   7.5498   7.5629   7.5985   7.6107
     7.6296   7.6476   8.2982   8.3006   8.3439   8.3461   8.3464   8.3723
     8.4036   8.4073   8.4634   8.4639   8.4734   8.4761   8.4869   8.4877
     8.5141   8.5183   8.6857   8.7256   8.7295   8.8192   8.9324   8.9353
     8.9677   8.9692   8.9775   8.9824   9.0029   9.0045   9.0154   9.0180
     9.0367   9.0472   9.0493   9.0569   9.0913   9.1015   9.1909   9.1963
     9.2175   9.2236   9.2605   9.2653   9.2653   9.2704   9.2748   9.2801
     9.2889   9.2946   9.2968   9.3066   9.3114   9.3137   9.4123   9.4152
     9.4237   9.4256   9.4326   9.4328   9.4341   9.4477   9.4507   9.4684
     9.4689   9.5019   9.5128   9.5208   9.5503   9.5576   9.5885   9.7225
     9.7705   9.7919   9.7952   9.7953   9.8212   9.8286   9.8456   9.8506
     9.8740   9.8747   9.8804   9.8840   9.8850   9.8882   9.8903   9.8908
    10.0550  10.0562  10.0666  10.0667  10.1303  10.1326  10.1385  10.1559
    10.1661  10.1711  10.1996  10.2125  10.2215  10.2227  10.3473  10.3740
    10.3785  10.3967  10.4011  10.4035  10.4161  10.4344  10.4390  10.5495
    10.5896  10.5901  10.6024  10.6094  10.6177  10.6301  10.6399  10.6399
    10.6729  10.6935  10.7189  10.7535  10.7661  10.8182  10.8596  10.8999
    10.9478  10.9507  10.9868  11.0034  11.0257  11.0263  11.0392  11.0657
    11.0844  11.0919  11.1009  11.1100  11.1697  11.1838  11.1838  11.2064
    11.2331  11.2342  11.2470  11.2547  11.2582  11.2601  11.2654  11.2676
    11.2692  11.2740  11.2814  11.2821  11.2863  11.2937  11.3116  11.3161
    11.3186  11.3313  11.3322  11.3346  11.5010  11.5996  11.7071  11.7117
    11.7156  11.7174  11.7199  11.7229  11.7278  11.7326  11.7387  11.7403
    11.7481  11.7779  11.7916  11.8049  11.8175  11.8232  11.8372  11.8439
    11.9595  11.9661  12.0076  12.0288  12.0407  12.0436  12.0765  12.1189
    12.1664  12.1971  12.2060  12.2345  12.2396  12.2520  12.2802  12.3718
    12.4063  12.4148  12.4305  12.4575  12.4790  12.4865  12.4880  12.5025
    12.5083  12.5217  12.5271  12.5343  12.5587  12.5804  12.5857  12.6046
    12.6185  12.6562  12.7646  12.7924  12.7941  12.8259  12.8926  12.8999
    12.9100  13.0106  13.0432  13.0585  13.1518  13.1699  13.1834  13.1968
    13.2027  13.2133  13.3745  13.4970  13.5060  13.5151  13.6903  13.7767
    13.7921  13.9340  14.0003  14.0354  14.0851  14.1107  14.2504  14.6154
    14.6534  14.9075  14.9183  14.9215  14.9538  14.9699  15.0767  15.0914
    15.1169  15.1451  15.1715  15.2246  15.3210  15.3462  15.4338  15.4970
    15.5566  15.6213  15.6356  15.8203  15.8591  15.9612  16.0271  16.0737
    16.1060  16.1231  16.1246  16.1446  16.1576  16.1607  16.1644  16.2206
    16.2307  16.2444  16.2752  16.2810  16.3015  16.3023  16.3066  16.3211
    16.3644  16.4583  16.4907  16.5573  16.6331  16.6652  16.7638  16.8145
    16.8918  16.9158  17.1850  17.3713  17.4156  17.4364  17.5229  17.5380
    17.5708  17.5874  17.6079  17.7208  17.7304  17.7419  17.7509  17.8894
    17.9019  17.9056  18.0477  18.1111  18.2166  18.2615  18.2919  18.3493

          k = 0.0000-0.5000 0.0000 ( 31722 PWs)   bands (ev):

   -66.7856 -66.7236 -66.6871 -66.6871 -66.6496 -66.6496 -66.6236 -66.6236
   -66.5800 -62.4243 -62.3766 -62.3766 -62.3472 -62.3472 -62.3455 -62.3455
   -62.3277 -62.2750 -35.5507 -35.5221 -35.5092 -35.5071 -35.4492 -35.4489
   -35.4455 -35.4454 -35.4363 -35.4363 -35.4115 -35.4115 -35.4039 -35.4038
   -35.4019 -35.4019 -35.3793 -35.3793 -35.3770 -35.3770 -35.3752 -35.3751
   -35.3495 -35.3474 -35.3473 -35.3241 -35.3036 -31.2671 -31.2522 -31.2268
   -31.2188 -31.2188 -31.2062 -31.2061 -31.1924 -31.1924 -31.1853 -31.1853
   -31.1819 -31.1818 -31.1815 -31.1814 -31.1745 -31.1744 -31.1691 -31.1528
   -31.1508 -31.1507 -31.1448 -31.1447 -31.1439 -31.1258 -31.0979 -31.0829
     6.0317   6.0534   7.4092   7.4350   7.4541   7.4912   7.6718   7.6817
     8.1011   8.1219   8.1436   8.1655   8.1865   8.2397   8.2654   8.2789
     8.3995   8.4192   8.4473   8.4788   8.5936   8.6320   8.6455   8.6582
     8.6710   8.6832   8.7012   8.7029   8.7368   8.8138   8.8218   8.8377
     8.8468   8.8640   8.8692   8.8996   8.9061   8.9102   8.9107   8.9229
     8.9246   8.9283   8.9351   8.9552   9.0448   9.0550   9.1595   9.1720
     9.1917   9.1941   9.2088   9.2266   9.2506   9.2538   9.3164   9.3229
     9.3455   9.3673   9.4033   9.4135   9.4727   9.4794   9.4956   9.5001
     9.5283   9.5465   9.5514   9.5693   9.5761   9.5977   9.6048   9.6092
     9.6196   9.6256   9.6260   9.6307   9.6335   9.6406   9.6516   9.6611
     9.6670   9.6709   9.6756   9.6825   9.6873   9.7218   9.7240   9.7393
     9.7605   9.7638   9.7678   9.7852   9.8907   9.8967   9.9029  10.0039
    10.0146  10.0306  10.1561  10.1838  10.2110  10.2283  10.2518  10.2549
    10.2613  10.2729  10.2751  10.2758  10.2851  10.2890  10.3355  10.3564
    10.3722  10.3795  10.3859  10.3927  10.4200  10.4390  10.4617  10.4733
    10.5000  10.5048  10.5165  10.5314  10.5423  10.5788  10.5794  10.5986
    10.6180  10.6388  10.6694  10.7021  10.7135  10.7303  10.7377  10.7631
    10.8049  10.8307  10.8344  10.8473  10.8611  10.8743  10.9109  10.9440
    10.9519  11.0144  11.0191  11.0234  11.0345  11.1086  11.1614  11.1916
    11.2916  11.3200  11.3451  11.3528  11.3714  11.3830  11.4092  11.4140
    11.4236  11.4508  11.4643  11.4779  11.5119  11.5458  11.5556  11.5678
    11.5794  11.6145  11.6171  11.6390  11.6434  11.6449  11.6610  11.7324
    11.7625  11.7699  11.7960  11.8107  11.8198  11.8281  11.8403  11.8415
    11.8818  11.8932  11.9008  11.9281  11.9458  11.9462  11.9540  11.9649
    11.9681  11.9861  12.0136  12.0190  12.0912  12.1262  12.1521  12.1699
    12.1904  12.2126  12.2286  12.2540  12.2690  12.2718  12.2787  12.2874
    12.2946  12.3053  12.3146  12.3243  12.3587  12.3645  12.3974  12.4157
    12.4171  12.4507  12.4826  12.4972  12.5026  12.5141  12.5287  12.5675
    12.5713  12.6050  12.6123  12.6404  12.6425  12.6602  12.7117  12.7561
    12.8338  12.8836  13.0247  13.0619  13.0825  13.0893  13.1219  13.1295
    13.1672  13.2063  13.2119  13.2197  13.2477  13.2710  13.3402  13.3493
    13.4300  13.4603  13.4845  13.7220  13.7867  14.2614  14.5321  14.5431
    14.6595  14.7027  14.7534  14.7833  14.8366  14.8639  14.9195  14.9605
    15.0541  15.1392  15.1672  15.3325  15.3624  15.4594  15.5103  15.6437
    15.6618  15.7237  15.7894  15.8307  15.8539  15.8721  15.9265  15.9953
    16.0298  16.0401  16.0767  16.0875  16.1081  16.1602  16.1717  16.1826
    16.2079  16.2171  16.2193  16.2316  16.2839  16.2909  16.3294  16.3971
    16.4358  16.4411  16.5630  16.6504  16.7273  16.7699  17.0205  17.1038
    17.1426  17.1842  17.2114  17.3711  17.4387  17.5015  17.6329  17.6419
    17.6891  17.7559  17.7794  17.8020  17.8320  17.8517  17.9614  17.9653
    18.0463  18.0928  18.1587  18.2474  19.2435  19.2891  19.3100  19.3362

          k = 0.0000-0.5000-0.5734 ( 31696 PWs)   bands (ev):

   -66.7856 -66.7236 -66.6871 -66.6871 -66.6496 -66.6496 -66.6236 -66.6236
   -66.5800 -62.4243 -62.3766 -62.3766 -62.3472 -62.3472 -62.3455 -62.3455
   -62.3277 -62.2750 -35.5507 -35.5221 -35.5092 -35.5071 -35.4492 -35.4489
   -35.4455 -35.4454 -35.4363 -35.4363 -35.4115 -35.4115 -35.4039 -35.4038
   -35.4019 -35.4019 -35.3793 -35.3793 -35.3770 -35.3770 -35.3752 -35.3751
   -35.3495 -35.3474 -35.3473 -35.3241 -35.3036 -31.2671 -31.2522 -31.2268
   -31.2188 -31.2188 -31.2062 -31.2061 -31.1924 -31.1924 -31.1853 -31.1853
   -31.1819 -31.1818 -31.1815 -31.1814 -31.1745 -31.1744 -31.1691 -31.1528
   -31.1508 -31.1507 -31.1448 -31.1447 -31.1439 -31.1258 -31.0979 -31.0829
     6.5145   6.5636   6.6145   6.6451   7.8255   7.8298   7.8706   7.8883
     7.8918   7.9110   7.9480   7.9538   8.2635   8.2829   8.2982   8.3043
     8.5134   8.5286   8.5331   8.5335   8.6512   8.6660   8.6726   8.6859
     8.6909   8.7020   8.7078   8.7110   8.7132   8.7219   8.7427   8.7454
     8.7619   8.7860   8.8000   8.8215   8.9378   8.9860   9.0245   9.0330
     9.0405   9.0586   9.0604   9.0773   9.1761   9.2013   9.2070   9.2204
     9.2242   9.2251   9.2298   9.2322   9.2428   9.2508   9.2535   9.2604
     9.2662   9.2770   9.2799   9.2847   9.3128   9.3585   9.3800   9.3866
     9.4192   9.4275   9.4338   9.4506   9.4591   9.4703   9.4764   9.4818
     9.4839   9.4860   9.4902   9.5134   9.5350   9.5451   9.5527   9.5806
     9.5893   9.6273   9.7517   9.7635   9.7800   9.7847   9.8029   9.8180
     9.8375   9.8437   9.8443   9.8495   9.8551   9.8611   9.8887   9.8923
     9.9456   9.9722   9.9865  10.0072  10.0305  10.0470  10.0581  10.0683
    10.3639  10.3812  10.4003  10.4094  10.4119  10.4164  10.4171  10.4275
    10.4458  10.4657  10.4839  10.4862  10.4880  10.4952  10.5096  10.5390
    10.5586  10.5636  10.5713  10.5756  10.5851  10.6029  10.6035  10.6242
    10.6381  10.6438  10.6711  10.6777  10.6827  10.6966  10.6983  10.7054
    10.7379  10.8706  10.8723  10.9127  10.9826  11.0125  11.0269  11.0894
    11.1152  11.1233  11.1504  11.1599  11.1693  11.1864  11.1978  11.2110
    11.2131  11.2146  11.2862  11.3045  11.3378  11.3421  11.3511  11.3667
    11.3723  11.3780  11.3828  11.4301  11.4437  11.4737  11.4967  11.5152
    11.5422  11.5547  11.5701  11.5744  11.5801  11.5898  11.5924  11.5995
    11.6134  11.6367  11.6935  11.7215  11.7390  11.7651  11.8010  11.8093
    11.8892  11.9030  11.9077  11.9354  11.9645  11.9657  11.9853  11.9928
    12.0095  12.0193  12.0284  12.0386  12.0395  12.0432  12.1137  12.1156
    12.1176  12.1298  12.1417  12.2429  12.2637  12.2848  12.2905  12.2983
    12.3849  12.4022  12.4160  12.4390  12.4423  12.4685  12.4801  12.4863
    12.4953  12.5048  12.5199  12.5493  12.5515  12.5584  12.5981  12.6325
    12.6408  12.6620  12.6723  12.7311  12.7729  12.7992  12.8217  12.8441
    12.8783  12.9024  12.9688  12.9879  13.0084  13.0482  13.0623  13.0683
    13.1696  13.2356  13.2970  13.3954  13.5845  13.6468  13.7239  13.8265
    13.8417  13.8733  13.8737  13.9869  14.0391  14.2517  14.2800  14.3058
    14.3198  14.4611  14.5276  14.5722  14.5958  14.6907  14.7350  15.1708
    15.1746  15.1982  15.2516  15.3386  15.3762  15.4756  15.5853  15.6285
    15.6383  15.6517  15.7173  15.7688  15.8343  16.0135  16.0396  16.0784
    16.1070  16.1108  16.1215  16.1504  16.1909  16.2178  16.2446  16.2644
    16.2773  16.2807  16.2943  16.3169  16.3681  16.3683  16.3823  16.4427
    16.5242  16.5456  16.5629  16.5954  16.5987  16.6071  16.6326  16.6613
    16.7106  16.7505  16.7927  16.8164  16.8754  16.9181  16.9951  17.0148
    17.0596  17.1135  17.1897  17.2354  18.5924  18.6837  18.7424  18.7871
    18.7917  18.8109  18.8208  18.8498  18.8658  18.9181  18.9617  19.0182

          k =-0.5000-0.5000 0.0000 ( 31612 PWs)   bands (ev):

   -66.7856 -66.7236 -66.6871 -66.6871 -66.6496 -66.6496 -66.6236 -66.6236
   -66.5800 -62.4243 -62.3766 -62.3766 -62.3472 -62.3472 -62.3455 -62.3455
   -62.3277 -62.2750 -35.5507 -35.5221 -35.5092 -35.5071 -35.4492 -35.4489
   -35.4455 -35.4454 -35.4363 -35.4363 -35.4115 -35.4115 -35.4039 -35.4038
   -35.4019 -35.4019 -35.3794 -35.3793 -35.3770 -35.3770 -35.3752 -35.3752
   -35.3495 -35.3474 -35.3473 -35.3241 -35.3036 -31.2671 -31.2523 -31.2268
   -31.2188 -31.2188 -31.2061 -31.2060 -31.1924 -31.1924 -31.1854 -31.1852
   -31.1819 -31.1819 -31.1815 -31.1814 -31.1745 -31.1744 -31.1691 -31.1528
   -31.1508 -31.1507 -31.1448 -31.1447 -31.1439 -31.1258 -31.0979 -31.0829
     6.4075   6.4405   6.4453   6.4669   8.0042   8.0196   8.0207   8.0265
     8.0781   8.1400   8.2981   8.3233   8.3272   8.3328   8.3401   8.3482
     8.3502   8.3535   8.3643   8.3646   8.3741   8.3804   8.5641   8.5858
     8.6042   8.6650   8.6911   8.7146   8.7228   8.7244   8.7363   8.7482
     8.7601   8.7857   8.9137   8.9153   8.9590   8.9604   8.9762   8.9765
     8.9785   9.0023   9.0093   9.0132   9.0171   9.0256   9.0495   9.0504
     9.1025   9.1463   9.3044   9.3170   9.3184   9.3231   9.4039   9.4044
     9.4115   9.4142   9.4170   9.4229   9.4253   9.4304   9.4382   9.4418
     9.4538   9.4629   9.4769   9.4798   9.4883   9.5023   9.5241   9.5258
     9.5296   9.5340   9.5467   9.5472   9.5632   9.5673   9.5804   9.5821
     9.5978   9.6082   9.6979   9.6979   9.7868   9.8123   9.8191   9.8308
     9.8325   9.8334   9.8345   9.8496   9.8531   9.8689  10.0334  10.0564
    10.0765  10.0819  10.1124  10.1275  10.1426  10.1477  10.1562  10.1623
    10.1770  10.1886  10.2021  10.2192  10.2200  10.2299  10.2309  10.2328
    10.2392  10.2439  10.2574  10.2579  10.4575  10.4652  10.4693  10.4803
    10.4876  10.4972  10.5070  10.5347  10.6147  10.6265  10.6646  10.6654
    10.6698  10.6741  10.6758  10.6807  10.6833  10.6862  10.6958  10.7102
    10.7392  10.7415  10.8028  10.8190  10.8292  10.8474  10.8613  10.8658
    10.8997  10.9154  11.1991  11.2133  11.2167  11.2175  11.2906  11.3172
    11.3204  11.3269  11.3699  11.3842  11.3984  11.4056  11.5490  11.5703
    11.6010  11.6243  11.6388  11.6388  11.6412  11.6454  11.6469  11.6553
    11.6574  11.6607  11.6769  11.7052  11.7156  11.7241  11.7405  11.8758
    11.8785  11.8807  11.8841  11.8870  11.8908  11.9459  12.0075  12.0492
    12.0514  12.0640  12.0856  12.0964  12.1042  12.1052  12.1059  12.1070
    12.1131  12.1133  12.1244  12.1301  12.1301  12.1420  12.1463  12.1533
    12.1840  12.1997  12.2350  12.2402  12.2456  12.2516  12.2677  12.2705
    12.2720  12.2752  12.2766  12.2883  12.2886  12.2971  12.3104  12.3290
    12.3332  12.3356  12.3622  12.3972  12.4188  12.4335  12.4756  12.4822
    12.5058  12.5603  12.5870  12.6336  12.6468  12.6707  12.6848  12.6869
    12.7208  12.7216  12.7478  12.8693  12.8837  12.9125  12.9224  12.9497
    12.9777  13.0049  13.0268  13.0505  13.0717  13.5728  13.6746  13.6753
    13.6930  13.7975  13.8144  13.9358  14.0652  14.0708  14.0726  14.0908
    14.0950  14.2405  14.2772  14.3645  14.4077  14.5301  14.8262  14.8836
    15.0209  15.1550  15.2460  15.2783  15.2820  15.5618  15.6134  15.7446
    15.7852  15.7948  15.8075  15.8218  15.8620  15.8952  15.9177  15.9186
    15.9300  15.9909  16.0368  16.0803  16.1140  16.1675  16.1802  16.1896
    16.2230  16.2531  16.3123  16.3209  16.3910  16.4494  16.5199  16.5298
    16.5548  16.5698  16.5776  16.5881  16.6270  16.6421  16.6508  16.7821
    16.7867  16.8655  16.9523  16.9641  17.3795  17.3980  17.4251  18.0825
    18.1321  18.1735  18.1985  18.2429  18.3201  18.4222  18.4757  18.5423
    18.5766  18.6099  18.6289  18.6543  18.7364  18.7645  18.7918  18.8203

          k =-0.5000-0.5000-0.5734 ( 31672 PWs)   bands (ev):

   -66.7856 -66.7236 -66.6871 -66.6871 -66.6496 -66.6496 -66.6236 -66.6236
   -66.5800 -62.4243 -62.3766 -62.3766 -62.3472 -62.3472 -62.3455 -62.3455
   -62.3277 -62.2750 -35.5507 -35.5221 -35.5092 -35.5071 -35.4492 -35.4489
   -35.4455 -35.4454 -35.4363 -35.4363 -35.4115 -35.4115 -35.4039 -35.4038
   -35.4019 -35.4018 -35.3794 -35.3793 -35.3770 -35.3770 -35.3752 -35.3752
   -35.3495 -35.3474 -35.3473 -35.3241 -35.3036 -31.2671 -31.2523 -31.2268
   -31.2188 -31.2188 -31.2061 -31.2060 -31.1924 -31.1924 -31.1854 -31.1852
   -31.1819 -31.1819 -31.1815 -31.1814 -31.1745 -31.1744 -31.1691 -31.1528
   -31.1508 -31.1507 -31.1448 -31.1447 -31.1439 -31.1258 -31.0979 -31.0829
     6.8746   6.8920   6.9481   6.9624   6.9853   6.9965   7.0436   7.0533
     8.4468   8.4651   8.4740   8.4821   8.4860   8.4898   8.4910   8.4958
     8.4974   8.5032   8.5060   8.5156   8.5325   8.5422   8.5488   8.5662
     8.5668   8.5768   8.5901   8.6467   8.8747   8.8839   8.8849   8.8971
     8.9033   8.9273   8.9331   8.9490   9.0760   9.0901   9.1181   9.1229
     9.1274   9.1355   9.1399   9.1455   9.1560   9.1581   9.1588   9.1590
     9.1608   9.1730   9.1738   9.1796   9.1801   9.1802   9.1809   9.1824
     9.1830   9.1856   9.1869   9.1911   9.1920   9.2046   9.2049   9.2156
     9.2195   9.2382   9.2522   9.2575   9.2596   9.2603   9.2784   9.2891
     9.5416   9.5508   9.5546   9.5573   9.5997   9.6017   9.6102   9.6275
     9.6419   9.6490   9.6686   9.7054   9.7147   9.7391   9.7849   9.7892
     9.8089   9.8091   9.8555   9.8606   9.8715   9.8849   9.8963   9.9105
    10.1183  10.1206  10.1478  10.1491  10.1719  10.1735  10.2004  10.2013
    10.2705  10.3354  10.4327  10.4335  10.4590  10.4617  10.4806  10.4820
    10.4884  10.4903  10.4982  10.4992  10.5054  10.5118  10.5214  10.5217
    10.5283  10.5300  10.5417  10.5467  10.5845  10.5964  10.5968  10.6152
    10.6207  10.6251  10.6406  10.6417  10.6471  10.6510  10.6646  10.6726
    10.6735  10.6832  10.6836  10.6955  10.7345  10.7479  11.0032  11.0473
    11.0513  11.0820  11.0893  11.1055  11.1418  11.1481  11.3798  11.3853
    11.3873  11.3953  11.4328  11.4348  11.4378  11.4461  11.4521  11.4595
    11.4877  11.4930  11.4986  11.5166  11.5348  11.5669  11.5729  11.6117
    11.6136  11.6393  11.6449  11.6580  11.6657  11.6722  11.6956  11.7092
    11.7193  11.7301  11.7394  11.7687  11.7735  11.7781  11.7859  11.7904
    11.7962  11.8023  11.8229  11.8350  11.8397  11.9377  11.9822  11.9969
    12.0242  12.0625  12.0923  12.1098  12.1164  12.1322  12.1441  12.1598
    12.1901  12.1939  12.1987  12.2223  12.2337  12.2594  12.2609  12.3439
    12.3447  12.3472  12.3785  12.3939  12.4306  12.4319  12.4545  12.4675
    12.4677  12.4888  12.4940  12.5188  12.5439  12.5985  12.6129  12.6449
    12.6553  12.6787  12.6844  12.7018  12.7682  12.8034  12.9007  12.9250
    12.9662  12.9751  12.9787  13.0117  13.0740  13.1410  13.1495  13.1969
    13.2024  13.2232  13.2288  13.2526  13.3518  13.4968  13.5012  13.5172
    13.5437  13.5579  13.6542  13.8664  13.8809  13.9413  14.1008  14.1594
    14.1962  14.2052  14.3314  14.4985  14.8127  14.8910  14.9061  14.9938
    15.0327  15.2314  15.3861  15.3926  15.4221  15.5150  15.6407  15.6411
    15.6975  15.7999  15.8120  15.8365  15.8512  15.8529  15.8971  15.9207
    15.9314  16.0194  16.0452  16.0526  16.1153  16.1189  16.1491  16.2109
    16.2383  16.3161  16.3243  16.4195  16.4533  16.4601  16.4648  16.4843
    16.5248  16.5325  16.5521  16.6484  16.6997  16.7212  16.7622  16.7825
    16.7871  16.8128  16.8366  16.9007  16.9153  16.9234  16.9676  16.9837
    17.1160  17.1275  17.4113  17.6914  17.9581  18.0454  18.9961  19.0004
    19.0357  19.0961  19.1058  19.1126  19.2101  19.2194  19.2905  19.3118

     the Fermi energy is    14.8239 ev

!    total energy              =  -33062.61852384 Ry
     Harris-Foulkes estimate   =  -33062.61852247 Ry
     estimated scf accuracy    <       0.00000028 Ry

     total all-electron energy =  -1410574.708898 Ry

     The total energy is the sum of the following terms:

     one-electron contribution =   -1645.90091681 Ry
     hartree contribution      =    1490.11686338 Ry
     xc contribution           =   -1658.77633520 Ry
     ewald contribution        =   -4919.25534656 Ry
     one-center paw contrib.   =  -26328.80278865 Ry

     total magnetization       =     0.00 Bohr mag/cell
     absolute magnetization    =    78.74 Bohr mag/cell

     convergence has been achieved in  49 iterations

     Writing output data file mnau2.save
 
     init_run     :     40.51s CPU     41.19s WALL (       1 calls)
     electrons    :   4885.44s CPU   4982.23s WALL (       1 calls)

     Called by init_run:
     wfcinit      :     34.70s CPU     35.12s WALL (       1 calls)
     potinit      :      2.47s CPU      2.52s WALL (       1 calls)

     Called by electrons:
     c_bands      :   4234.08s CPU   4307.58s WALL (      49 calls)
     sum_band     :    522.43s CPU    534.55s WALL (      49 calls)
     v_of_rho     :     12.80s CPU     13.18s WALL (      50 calls)
     newd         :     40.22s CPU     46.09s WALL (      50 calls)
     PAW_pot      :     74.04s CPU     75.08s WALL (      50 calls)
     mix_rho      :      2.89s CPU      3.01s WALL (      49 calls)

     Called by c_bands:
     init_us_2    :     17.81s CPU     17.89s WALL (    1188 calls)
     cegterg      :   4118.93s CPU   4191.28s WALL (     588 calls)

     Called by sum_band:
     sum_band:bec :      2.98s CPU      2.99s WALL (     588 calls)
     addusdens    :     73.66s CPU     80.41s WALL (      49 calls)

     Called by *egterg:
     h_psi        :   1577.68s CPU   1594.40s WALL (    1894 calls)
     s_psi        :    383.28s CPU    383.49s WALL (    1894 calls)
     g_psi        :      5.85s CPU      5.87s WALL (    1294 calls)
     cdiaghg      :   1251.08s CPU   1251.86s WALL (    1882 calls)

     Called by h_psi:
     h_psi:pot    :   1562.94s CPU   1579.58s WALL (    1894 calls)
     h_psi:calbec :    384.22s CPU    388.08s WALL (    1894 calls)
     vloc_psi     :    792.19s CPU    804.68s WALL (    1894 calls)
     add_vuspsi   :    386.50s CPU    386.79s WALL (    1894 calls)

     General routines
     calbec       :    559.78s CPU    565.37s WALL (    2482 calls)
     fft          :     11.14s CPU     11.93s WALL (    1540 calls)
     ffts         :      0.25s CPU      0.26s WALL (     198 calls)
     fftw         :    762.70s CPU    774.37s WALL ( 1248844 calls)
     interpolate  :      1.96s CPU      2.05s WALL (     198 calls)
 
     Parallel routines
     fft_scatt_xy :     96.23s CPU     97.52s WALL ( 1250582 calls)
     fft_scatt_yz :    200.13s CPU    205.51s WALL ( 1250582 calls)
 
     PWSCF        :     1h22m CPU        1h24m WALL

 
   This run was terminated on:  13:48:34   4Mar2019            

=------------------------------------------------------------------------------=
   JOB DONE.
=------------------------------------------------------------------------------=
