
     Program PWSCF v.6.2 (svn rev. 14038) starts on  7Mar2019 at 21:40:51 

     This program is part of the open-source Quantum ESPRESSO suite
     for quantum simulation of materials; please cite
         "P. Giannozzi et al., J. Phys.:Condens. Matter 21 395502 (2009);
         "P. Giannozzi et al., J. Phys.:Condens. Matter 29 465901 (2017);
          URL http://www.quantum-espresso.org", 
     in publications or presentations arising from this work. More details at
     http://www.quantum-espresso.org/quote

     Parallel version (MPI), running on    16 processors

     MPI processes distributed on     1 nodes
     R & G space division:  proc/nbgrp/npool/nimage =      16
     Waiting for input...
     Reading input from standard input

     Current dimensions of program PWSCF are:
     Max number of different atomic species (ntypx) = 10
     Max number of k-points (npk) =  40000
     Max angular momentum in pseudopotentials (lmaxx) =  3
               file Mn.pbe-spn-kjpaw_psl.0.3.1.UPF: wavefunction(s)  3P 3D renormalized
               file Mn.pbe-spn-kjpaw_psl.0.3.1.UPF: wavefunction(s)  3P 3D renormalized
               file Au.pbe-dn-kjpaw_psl.0.1.UPF: wavefunction(s)  6S 6P 5D renormalized

     Subspace diagonalization in iterative solution of the eigenvalue problem:
     a serial algorithm will be used

 
     Parallelization info
     --------------------
     sticks:   dense  smooth     PW     G-vecs:    dense   smooth      PW
     Min         736     331     90                52486    15847    2256
     Max         737     332     91                52489    15850    2259
     Sum       11785    5297   1449               839803   253559   36125
 


     bravais-lattice index     =            0
     lattice parameter (alat)  =      19.2459  a.u.
     unit-cell volume          =    6216.1497 (a.u.)^3
     number of atoms/cell      =           54
     number of atomic types    =            3
     number of electrons       =       666.00
     number of Kohn-Sham states=          400
     kinetic-energy cutoff     =      45.0000  Ry
     charge density cutoff     =     400.0000  Ry
     convergence threshold     =      1.0E-06
     mixing beta               =       0.1000
     number of iterations used =            8  plain     mixing
     Exchange-correlation      = SLA PW PBX PBC ( 1  4  3  4 0 0)

     celldm(1)=  19.245946  celldm(2)=   0.000000  celldm(3)=   0.000000
     celldm(4)=   0.000000  celldm(5)=   0.000000  celldm(6)=   0.000000

     crystal axes: (cart. coord. in units of alat)
               a(1) = (   1.000000   0.000000   0.000000 )  
               a(2) = (   0.000000   1.000000   0.000000 )  
               a(3) = (   0.000000   0.000000   0.871974 )  

     reciprocal axes: (cart. coord. in units 2 pi/alat)
               b(1) = (  1.000000  0.000000  0.000000 )  
               b(2) = (  0.000000  1.000000  0.000000 )  
               b(3) = (  0.000000  0.000000  1.146823 )  


     PseudoPot. # 1 for Mn read from file:
     ./pseudo/Mn.pbe-spn-kjpaw_psl.0.3.1.UPF
     MD5 check sum: 7eef95dd2aae66803482eea66ebeebf1
     Pseudo is Projector augmented-wave + core cor, Zval = 15.0
     Generated using "atomic" code by A. Dal Corso v.5.0.99 svn rev. 10869
     Shape of augmentation charge: PSQ
     Using radial grid of 1187 points,  6 beta functions with: 
                l(1) =   0
                l(2) =   0
                l(3) =   1
                l(4) =   1
                l(5) =   2
                l(6) =   2
     Q(r) pseudized with 0 coefficients 


     PseudoPot. # 2 for Mn read from file:
     ./pseudo/Mn.pbe-spn-kjpaw_psl.0.3.1.UPF
     MD5 check sum: 7eef95dd2aae66803482eea66ebeebf1
     Pseudo is Projector augmented-wave + core cor, Zval = 15.0
     Generated using "atomic" code by A. Dal Corso v.5.0.99 svn rev. 10869
     Shape of augmentation charge: PSQ
     Using radial grid of 1187 points,  6 beta functions with: 
                l(1) =   0
                l(2) =   0
                l(3) =   1
                l(4) =   1
                l(5) =   2
                l(6) =   2
     Q(r) pseudized with 0 coefficients 


     PseudoPot. # 3 for Au read from file:
     ./pseudo/Au.pbe-dn-kjpaw_psl.0.1.UPF
     MD5 check sum: 5c9b92683623e7ae2ab3f8e525febab6
     Pseudo is Projector augmented-wave + core cor, Zval = 11.0
     Generated using "atomic" code by A. Dal Corso v.5.0.2 svn rev. 9415
     Shape of augmentation charge: PSQ
     Using radial grid of 1279 points,  6 beta functions with: 
                l(1) =   0
                l(2) =   0
                l(3) =   1
                l(4) =   1
                l(5) =   2
                l(6) =   2
     Q(r) pseudized with 0 coefficients 


     atomic species   valence    mass     pseudopotential
        Mn1           15.00    54.93800     Mn( 1.00)
        Mn2           15.00    54.93800     Mn( 1.00)
        Au            11.00   196.96600     Au( 1.00)

     Starting magnetic structure 
     atomic species   magnetization
        Mn1          0.800
        Mn2         -0.800
        Au           0.000

      2 Sym. Ops. (no inversion) found



   Cartesian axes

     site n.     atom                  positions (alat units)
         1           Mn1 tau(   1) = (   0.0000000   0.0000000   0.0000000  )
         2           Mn2 tau(   2) = (   0.0000000   0.3333300   0.0000000  )
         3           Mn1 tau(   3) = (   0.0000000   0.6666700   0.0000000  )
         4           Mn2 tau(   4) = (   0.3333300   0.0000000   0.0000000  )
         5           Mn2 tau(   5) = (   0.3333300   0.3333300   0.0000000  )
         6           Mn2 tau(   6) = (   0.3333300   0.6666700   0.0000000  )
         7           Mn1 tau(   7) = (   0.6666700   0.0000000   0.0000000  )
         8           Mn1 tau(   8) = (   0.6666700   0.3333300   0.0000000  )
         9           Mn1 tau(   9) = (   0.6666700   0.6666700   0.0000000  )
        10           Mn2 tau(  10) = (   0.1666700   0.1666700   0.4359871  )
        11           Mn1 tau(  11) = (   0.1666700   0.5000000   0.4359871  )
        12           Mn2 tau(  12) = (   0.1666700   0.8333300   0.4359871  )
        13           Mn1 tau(  13) = (   0.5000000   0.1666700   0.4359871  )
        14           Mn1 tau(  14) = (   0.5000000   0.5000000   0.4359871  )
        15           Mn1 tau(  15) = (   0.5000000   0.8333300   0.4359871  )
        16           Mn2 tau(  16) = (   0.8333300   0.1666700   0.4359871  )
        17           Mn2 tau(  17) = (   0.8333300   0.5000000   0.4359871  )
        18           Mn2 tau(  18) = (   0.8333300   0.8333300   0.4359871  )
        19           Au  tau(  19) = (   0.1666700   0.1666700   0.7327374  )
        20           Au  tau(  20) = (   0.1666700   0.5000000   0.7327374  )
        21           Au  tau(  21) = (   0.1666700   0.8333300   0.7327374  )
        22           Au  tau(  22) = (   0.5000000   0.1666700   0.7327374  )
        23           Au  tau(  23) = (   0.5000000   0.5000000   0.7327374  )
        24           Au  tau(  24) = (   0.5000000   0.8333300   0.7327374  )
        25           Au  tau(  25) = (   0.8333300   0.1666700   0.7327374  )
        26           Au  tau(  26) = (   0.8333300   0.5000000   0.7327374  )
        27           Au  tau(  27) = (   0.8333300   0.8333300   0.7327374  )
        28           Au  tau(  28) = (   0.1666700   0.1666700   0.1392369  )
        29           Au  tau(  29) = (   0.1666700   0.5000000   0.1392369  )
        30           Au  tau(  30) = (   0.1666700   0.8333300   0.1392369  )
        31           Au  tau(  31) = (   0.5000000   0.1666700   0.1392369  )
        32           Au  tau(  32) = (   0.5000000   0.5000000   0.1392369  )
        33           Au  tau(  33) = (   0.5000000   0.8333300   0.1392369  )
        34           Au  tau(  34) = (   0.8333300   0.1666700   0.1392369  )
        35           Au  tau(  35) = (   0.8333300   0.5000000   0.1392369  )
        36           Au  tau(  36) = (   0.8333300   0.8333300   0.1392369  )
        37           Au  tau(  37) = (   0.0000000   0.0000000   0.2967503  )
        38           Au  tau(  38) = (   0.0000000   0.3333300   0.2967503  )
        39           Au  tau(  39) = (   0.0000000   0.6666700   0.2967503  )
        40           Au  tau(  40) = (   0.3333300   0.0000000   0.2967503  )
        41           Au  tau(  41) = (   0.3333300   0.3333300   0.2967503  )
        42           Au  tau(  42) = (   0.3333300   0.6666700   0.2967503  )
        43           Au  tau(  43) = (   0.6666700   0.0000000   0.2967503  )
        44           Au  tau(  44) = (   0.6666700   0.3333300   0.2967503  )
        45           Au  tau(  45) = (   0.6666700   0.6666700   0.2967503  )
        46           Au  tau(  46) = (   0.0000000   0.0000000   0.5752240  )
        47           Au  tau(  47) = (   0.0000000   0.3333300   0.5752240  )
        48           Au  tau(  48) = (   0.0000000   0.6666700   0.5752240  )
        49           Au  tau(  49) = (   0.3333300   0.0000000   0.5752240  )
        50           Au  tau(  50) = (   0.3333300   0.3333300   0.5752240  )
        51           Au  tau(  51) = (   0.3333300   0.6666700   0.5752240  )
        52           Au  tau(  52) = (   0.6666700   0.0000000   0.5752240  )
        53           Au  tau(  53) = (   0.6666700   0.3333300   0.5752240  )
        54           Au  tau(  54) = (   0.6666700   0.6666700   0.5752240  )

     number of k points=     8 (tetrahedron method)
                       cart. coord. in units 2pi/alat
        k(    1) = (   0.0000000   0.0000000   0.0000000), wk =   0.1250000
        k(    2) = (   0.0000000   0.0000000  -0.5734114), wk =   0.1250000
        k(    3) = (   0.0000000  -0.5000000   0.0000000), wk =   0.1250000
        k(    4) = (   0.0000000  -0.5000000  -0.5734114), wk =   0.1250000
        k(    5) = (  -0.5000000  -0.5000000   0.0000000), wk =   0.1250000
        k(    6) = (  -0.5000000  -0.5000000  -0.5734114), wk =   0.1250000
        k(    7) = (  -0.5000000   0.0000000   0.0000000), wk =   0.1250000
        k(    8) = (  -0.5000000   0.0000000   0.5734114), wk =   0.1250000

     Dense  grid:   839803 G-vectors     FFT dimensions: ( 125, 125, 108)

     Smooth grid:   253559 G-vectors     FFT dimensions: (  90,  90,  72)

     Estimated max dynamical RAM per process >     570.13 MB

     Estimated total dynamical RAM >       8.91 GB
     Generating pointlists ...
     new r_m :   0.1129 (alat units)  2.1733 (a.u.) for type    1
     new r_m :   0.1129 (alat units)  2.1733 (a.u.) for type    2
     new r_m :   0.1129 (alat units)  2.1733 (a.u.) for type    3

     Check: negative/imaginary core charge=   -0.000006    0.000000

     Initial potential from superposition of free atoms

     starting charge  665.98709, renormalised to  666.00000
     Starting wfc are  504 randomized atomic wfcs
     Checking if some PAW data can be deallocated... 

     total cpu time spent up to now is       38.9 secs

     Self-consistent Calculation

     iteration #  1     ecut=    45.00 Ry     beta= 0.10
     Davidson diagonalization with overlap
     ethr =  1.00E-02,  avg # of iterations =  3.2

     total cpu time spent up to now is      149.0 secs

     total energy              =  -33047.18320503 Ry
     Harris-Foulkes estimate   =  -33044.03354903 Ry
     estimated scf accuracy    <      27.02600201 Ry

     total magnetization       =     0.02 Bohr mag/cell
     absolute magnetization    =    92.11 Bohr mag/cell

     iteration #  2     ecut=    45.00 Ry     beta= 0.10
     Davidson diagonalization with overlap
     ethr =  4.06E-03,  avg # of iterations =  1.0

     total cpu time spent up to now is      224.7 secs

     total energy              =  -33058.57009706 Ry
     Harris-Foulkes estimate   =  -33047.36237964 Ry
     estimated scf accuracy    <      21.37211258 Ry

     total magnetization       =     0.02 Bohr mag/cell
     absolute magnetization    =    91.70 Bohr mag/cell

     iteration #  3     ecut=    45.00 Ry     beta= 0.10
     Davidson diagonalization with overlap
     ethr =  3.21E-03,  avg # of iterations =  2.1

     total cpu time spent up to now is      316.8 secs

     total energy              =  -33066.51499394 Ry
     Harris-Foulkes estimate   =  -33061.37583620 Ry
     estimated scf accuracy    <       8.81448711 Ry

     total magnetization       =    -0.17 Bohr mag/cell
     absolute magnetization    =    85.57 Bohr mag/cell

     iteration #  4     ecut=    45.00 Ry     beta= 0.10
     Davidson diagonalization with overlap
     ethr =  1.32E-03,  avg # of iterations =  4.2

     total cpu time spent up to now is      463.8 secs

     total energy              =  -33059.14506682 Ry
     Harris-Foulkes estimate   =  -33069.51731452 Ry
     estimated scf accuracy    <      56.98504515 Ry

     total magnetization       =    -0.87 Bohr mag/cell
     absolute magnetization    =    70.33 Bohr mag/cell

     iteration #  5     ecut=    45.00 Ry     beta= 0.10
     Davidson diagonalization with overlap
     ethr =  1.32E-03,  avg # of iterations =  4.9

     total cpu time spent up to now is      621.7 secs

     total energy              =  -33061.75938214 Ry
     Harris-Foulkes estimate   =  -33062.80391190 Ry
     estimated scf accuracy    <       5.04196659 Ry

     total magnetization       =    -0.26 Bohr mag/cell
     absolute magnetization    =    83.22 Bohr mag/cell

     iteration #  6     ecut=    45.00 Ry     beta= 0.10
     Davidson diagonalization with overlap
     ethr =  7.57E-04,  avg # of iterations =  3.7

     total cpu time spent up to now is      730.9 secs

     total energy              =  -33062.50808954 Ry
     Harris-Foulkes estimate   =  -33062.52557968 Ry
     estimated scf accuracy    <       0.32280953 Ry

     total magnetization       =    -0.09 Bohr mag/cell
     absolute magnetization    =    80.03 Bohr mag/cell

     iteration #  7     ecut=    45.00 Ry     beta= 0.10
     Davidson diagonalization with overlap
     ethr =  4.85E-05,  avg # of iterations =  4.6

     total cpu time spent up to now is      876.4 secs

     total energy              =  -33062.55670458 Ry
     Harris-Foulkes estimate   =  -33062.59288464 Ry
     estimated scf accuracy    <       0.11080649 Ry

     total magnetization       =    -0.43 Bohr mag/cell
     absolute magnetization    =    79.01 Bohr mag/cell

     iteration #  8     ecut=    45.00 Ry     beta= 0.10
     Davidson diagonalization with overlap
     ethr =  1.66E-05,  avg # of iterations =  4.4

     total cpu time spent up to now is     1030.6 secs

     total energy              =  -33062.57662672 Ry
     Harris-Foulkes estimate   =  -33062.60572921 Ry
     estimated scf accuracy    <       0.20253741 Ry

     total magnetization       =    -0.30 Bohr mag/cell
     absolute magnetization    =    78.52 Bohr mag/cell

     iteration #  9     ecut=    45.00 Ry     beta= 0.10
     Davidson diagonalization with overlap
     ethr =  1.66E-05,  avg # of iterations =  2.0

     total cpu time spent up to now is     1116.5 secs

     total energy              =  -33062.58571298 Ry
     Harris-Foulkes estimate   =  -33062.58467589 Ry
     estimated scf accuracy    <       0.05511057 Ry

     total magnetization       =    -0.40 Bohr mag/cell
     absolute magnetization    =    78.37 Bohr mag/cell

     iteration # 10     ecut=    45.00 Ry     beta= 0.10
     Davidson diagonalization with overlap
     ethr =  8.27E-06,  avg # of iterations =  2.1

     total cpu time spent up to now is     1203.2 secs

     total energy              =  -33062.58605780 Ry
     Harris-Foulkes estimate   =  -33062.58905965 Ry
     estimated scf accuracy    <       0.01751096 Ry

     total magnetization       =    -0.43 Bohr mag/cell
     absolute magnetization    =    78.54 Bohr mag/cell

     iteration # 11     ecut=    45.00 Ry     beta= 0.10
     Davidson diagonalization with overlap
     ethr =  2.63E-06,  avg # of iterations =  4.0

     total cpu time spent up to now is     1314.5 secs

     total energy              =  -33062.59029125 Ry
     Harris-Foulkes estimate   =  -33062.58906239 Ry
     estimated scf accuracy    <       0.00569258 Ry

     total magnetization       =    -0.42 Bohr mag/cell
     absolute magnetization    =    78.99 Bohr mag/cell

     iteration # 12     ecut=    45.00 Ry     beta= 0.10
     Davidson diagonalization with overlap
     ethr =  8.55E-07,  avg # of iterations =  1.2

     total cpu time spent up to now is     1392.6 secs

     total energy              =  -33062.59108453 Ry
     Harris-Foulkes estimate   =  -33062.59031279 Ry
     estimated scf accuracy    <       0.00372796 Ry

     total magnetization       =    -0.42 Bohr mag/cell
     absolute magnetization    =    78.90 Bohr mag/cell

     iteration # 13     ecut=    45.00 Ry     beta= 0.10
     Davidson diagonalization with overlap
     ethr =  5.60E-07,  avg # of iterations =  1.9

     total cpu time spent up to now is     1477.8 secs

     total energy              =  -33062.59161302 Ry
     Harris-Foulkes estimate   =  -33062.59110843 Ry
     estimated scf accuracy    <       0.00083152 Ry

     total magnetization       =    -0.45 Bohr mag/cell
     absolute magnetization    =    78.80 Bohr mag/cell

     iteration # 14     ecut=    45.00 Ry     beta= 0.10
     Davidson diagonalization with overlap
     ethr =  1.25E-07,  avg # of iterations =  3.0

     total cpu time spent up to now is     1581.3 secs

     total energy              =  -33062.59171773 Ry
     Harris-Foulkes estimate   =  -33062.59157511 Ry
     estimated scf accuracy    <       0.00027723 Ry

     total magnetization       =    -0.46 Bohr mag/cell
     absolute magnetization    =    78.70 Bohr mag/cell

     iteration # 15     ecut=    45.00 Ry     beta= 0.10
     Davidson diagonalization with overlap
     ethr =  4.16E-08,  avg # of iterations =  2.5

     total cpu time spent up to now is     1671.6 secs

     total energy              =  -33062.59183524 Ry
     Harris-Foulkes estimate   =  -33062.59169265 Ry
     estimated scf accuracy    <       0.00010466 Ry

     total magnetization       =    -0.47 Bohr mag/cell
     absolute magnetization    =    78.68 Bohr mag/cell

     iteration # 16     ecut=    45.00 Ry     beta= 0.10
     Davidson diagonalization with overlap
     ethr =  1.57E-08,  avg # of iterations =  2.3

     total cpu time spent up to now is     1764.7 secs

     total energy              =  -33062.59189735 Ry
     Harris-Foulkes estimate   =  -33062.59180972 Ry
     estimated scf accuracy    <       0.00004684 Ry

     total magnetization       =    -0.47 Bohr mag/cell
     absolute magnetization    =    78.65 Bohr mag/cell

     iteration # 17     ecut=    45.00 Ry     beta= 0.10
     Davidson diagonalization with overlap
     ethr =  7.03E-09,  avg # of iterations =  3.0

     total cpu time spent up to now is     1878.1 secs

     total energy              =  -33062.59190662 Ry
     Harris-Foulkes estimate   =  -33062.59188059 Ry
     estimated scf accuracy    <       0.00001335 Ry

     total magnetization       =    -0.48 Bohr mag/cell
     absolute magnetization    =    78.63 Bohr mag/cell

     iteration # 18     ecut=    45.00 Ry     beta= 0.10
     Davidson diagonalization with overlap
     ethr =  2.00E-09,  avg # of iterations =  2.4

     total cpu time spent up to now is     1972.0 secs

     total energy              =  -33062.59190280 Ry
     Harris-Foulkes estimate   =  -33062.59188940 Ry
     estimated scf accuracy    <       0.00000620 Ry

     total magnetization       =    -0.48 Bohr mag/cell
     absolute magnetization    =    78.62 Bohr mag/cell

     iteration # 19     ecut=    45.00 Ry     beta= 0.10
     Davidson diagonalization with overlap
     ethr =  9.31E-10,  avg # of iterations =  3.1

     total cpu time spent up to now is     2086.4 secs

     total energy              =  -33062.59189693 Ry
     Harris-Foulkes estimate   =  -33062.59189041 Ry
     estimated scf accuracy    <       0.00000256 Ry

     total magnetization       =    -0.48 Bohr mag/cell
     absolute magnetization    =    78.61 Bohr mag/cell

     iteration # 20     ecut=    45.00 Ry     beta= 0.10
     Davidson diagonalization with overlap
     ethr =  3.84E-10,  avg # of iterations =  2.2

     total cpu time spent up to now is     2185.9 secs

     total energy              =  -33062.59189637 Ry
     Harris-Foulkes estimate   =  -33062.59189139 Ry
     estimated scf accuracy    <       0.00000109 Ry

     total magnetization       =    -0.48 Bohr mag/cell
     absolute magnetization    =    78.61 Bohr mag/cell

     iteration # 21     ecut=    45.00 Ry     beta= 0.10
     Davidson diagonalization with overlap
     ethr =  1.63E-10,  avg # of iterations =  2.6
 
     Magnetic moment per site:
     atom:    1    charge:   13.5692    magn:    4.0571    constr:    0.0000
     atom:    2    charge:   13.5826    magn:   -3.9788    constr:    0.0000
     atom:    3    charge:   13.5727    magn:    4.0464    constr:    0.0000
     atom:    4    charge:   13.5732    magn:   -4.0316    constr:    0.0000
     atom:    5    charge:   13.5714    magn:   -4.0342    constr:    0.0000
     atom:    6    charge:   13.5725    magn:   -4.0431    constr:    0.0000
     atom:    7    charge:   13.5754    magn:    3.9983    constr:    0.0000
     atom:    8    charge:   13.5835    magn:    3.9334    constr:    0.0000
     atom:    9    charge:   13.5827    magn:    3.9382    constr:    0.0000
     atom:   10    charge:   13.5838    magn:   -3.9541    constr:    0.0000
     atom:   11    charge:   13.5727    magn:    4.0719    constr:    0.0000
     atom:   12    charge:   13.5806    magn:   -3.9869    constr:    0.0000
     atom:   13    charge:   13.5767    magn:    3.9927    constr:    0.0000
     atom:   14    charge:   13.5789    magn:    3.9558    constr:    0.0000
     atom:   15    charge:   13.5817    magn:    3.9517    constr:    0.0000
     atom:   16    charge:   13.5706    magn:   -4.0501    constr:    0.0000
     atom:   17    charge:   13.5725    magn:   -4.0417    constr:    0.0000
     atom:   18    charge:   13.5687    magn:   -4.0633    constr:    0.0000
     atom:   19    charge:    9.1202    magn:   -0.0404    constr:    0.0000
     atom:   20    charge:    9.1216    magn:   -0.0200    constr:    0.0000
     atom:   21    charge:    9.1209    magn:   -0.0104    constr:    0.0000
     atom:   22    charge:    9.1203    magn:    0.0089    constr:    0.0000
     atom:   23    charge:    9.1206    magn:    0.0083    constr:    0.0000
     atom:   24    charge:    9.1203    magn:    0.0046    constr:    0.0000
     atom:   25    charge:    9.1203    magn:    0.0118    constr:    0.0000
     atom:   26    charge:    9.1204    magn:    0.0107    constr:    0.0000
     atom:   27    charge:    9.1217    magn:    0.0461    constr:    0.0000
     atom:   28    charge:    9.1202    magn:   -0.0404    constr:    0.0000
     atom:   29    charge:    9.1216    magn:   -0.0200    constr:    0.0000
     atom:   30    charge:    9.1209    magn:   -0.0104    constr:    0.0000
     atom:   31    charge:    9.1203    magn:    0.0089    constr:    0.0000
     atom:   32    charge:    9.1206    magn:    0.0083    constr:    0.0000
     atom:   33    charge:    9.1203    magn:    0.0046    constr:    0.0000
     atom:   34    charge:    9.1203    magn:    0.0118    constr:    0.0000
     atom:   35    charge:    9.1204    magn:    0.0107    constr:    0.0000
     atom:   36    charge:    9.1217    magn:    0.0461    constr:    0.0000
     atom:   37    charge:    9.1213    magn:   -0.0516    constr:    0.0000
     atom:   38    charge:    9.1202    magn:   -0.0373    constr:    0.0000
     atom:   39    charge:    9.1219    magn:   -0.0202    constr:    0.0000
     atom:   40    charge:    9.1196    magn:   -0.0146    constr:    0.0000
     atom:   41    charge:    9.1211    magn:    0.0125    constr:    0.0000
     atom:   42    charge:    9.1212    magn:    0.0123    constr:    0.0000
     atom:   43    charge:    9.1211    magn:    0.0092    constr:    0.0000
     atom:   44    charge:    9.1201    magn:    0.0014    constr:    0.0000
     atom:   45    charge:    9.1204    magn:    0.0047    constr:    0.0000
     atom:   46    charge:    9.1213    magn:   -0.0516    constr:    0.0000
     atom:   47    charge:    9.1202    magn:   -0.0373    constr:    0.0000
     atom:   48    charge:    9.1219    magn:   -0.0202    constr:    0.0000
     atom:   49    charge:    9.1196    magn:   -0.0146    constr:    0.0000
     atom:   50    charge:    9.1211    magn:    0.0125    constr:    0.0000
     atom:   51    charge:    9.1212    magn:    0.0123    constr:    0.0000
     atom:   52    charge:    9.1211    magn:    0.0092    constr:    0.0000
     atom:   53    charge:    9.1201    magn:    0.0014    constr:    0.0000
     atom:   54    charge:    9.1204    magn:    0.0047    constr:    0.0000

     total cpu time spent up to now is     2286.0 secs

     End of self-consistent calculation

 ------ SPIN UP ------------


          k = 0.0000 0.0000 0.0000 ( 31747 PWs)   bands (ev):

   -66.7687 -66.7224 -66.7006 -66.6934 -66.6718 -66.6353 -66.6176 -66.5963
   -66.5927 -62.4085 -62.4011 -62.3967 -62.3930 -62.3893 -62.3814 -62.3169
   -62.3000 -62.2947 -35.5291 -35.5122 -35.4933 -35.4883 -35.4715 -35.4715
   -35.4635 -35.4431 -35.4375 -35.4374 -35.4352 -35.4285 -35.4146 -35.4046
   -35.4020 -35.3967 -35.3743 -35.3737 -35.3626 -35.3576 -35.3480 -35.3471
   -35.3413 -35.3412 -35.3401 -35.3317 -35.3290 -31.2451 -31.2423 -31.2370
   -31.2333 -31.2325 -31.2269 -31.2260 -31.2257 -31.2246 -31.2205 -31.2165
   -31.2135 -31.2131 -31.2073 -31.2023 -31.1991 -31.1950 -31.1942 -31.1533
   -31.1524 -31.1479 -31.1438 -31.1280 -31.1254 -31.1160 -31.1015 -31.1008
     5.6174   7.1411   7.1650   7.1967   7.2200   7.3666   7.8488   7.8920
     7.9292   7.9404   8.0612   8.1210   8.1375   8.1764   8.1918   8.2403
     8.2625   8.2967   8.3199   8.5111   8.5455   8.5691   8.5806   8.5971
     8.6107   8.8505   8.8556   8.8657   8.8847   8.8875   8.8901   8.8911
     8.9061   8.9084   8.9139   8.9258   8.9324   8.9623   8.9704   8.9862
     9.0085   9.0851   9.1204   9.1246   9.1311   9.1401   9.1522   9.1597
     9.1847   9.2080   9.2104   9.2676   9.2895   9.3028   9.3055   9.3498
     9.3579   9.3648   9.3704   9.3723   9.3911   9.3964   9.4010   9.4295
     9.4410   9.4487   9.4542   9.4558   9.4580   9.4610   9.4931   9.5796
     9.5813   9.5823   9.5897   9.5949   9.6260   9.6675   9.6707   9.6719
     9.6773   9.6788   9.6958   9.7389   9.7535   9.7884   9.8077   9.8505
     9.8524   9.9039   9.9144   9.9397   9.9550   9.9607  10.0257  10.0430
    10.0938  10.1207  10.1340  10.1611  10.2873  10.2886  10.2929  10.2955
    10.3056  10.3069  10.3077  10.3084  10.3187  10.3298  10.3394  10.3420
    10.3436  10.3548  10.3612  10.3649  10.3660  10.3697  10.3851  10.3964
    10.4014  10.5193  10.5206  10.5721  10.6166  10.6225  10.6397  10.6724
    10.6996  10.7860  10.7888  10.7910  10.8122  10.8152  10.8268  10.8311
    10.8448  10.8541  10.8573  10.8756  10.8768  10.8786  10.8799  10.8893
    10.9093  10.9230  11.0035  11.0329  11.0770  11.1093  11.2130  11.2208
    11.2256  11.2272  11.2342  11.2647  11.3238  11.3247  11.3353  11.3503
    11.3614  11.3817  11.3897  11.3910  11.3938  11.4024  11.4114  11.4177
    11.4456  11.4486  11.5152  11.5912  11.5927  11.5952  11.5992  11.5997
    11.6445  11.6688  11.7265  11.7324  11.7440  11.7539  11.7742  11.8333
    11.8447  11.8681  11.8725  11.8771  11.9223  11.9287  11.9426  11.9553
    11.9768  11.9902  12.0610  12.1015  12.1024  12.1050  12.1062  12.1306
    12.1416  12.1441  12.1487  12.1495  12.1563  12.1798  12.2209  12.2343
    12.2509  12.2583  12.2641  12.2642  12.3337  12.3523  12.3943  12.4080
    12.4363  12.4365  12.4502  12.4918  12.5102  12.5120  12.5216  12.5277
    12.5494  12.5653  12.5824  12.5905  12.5927  12.6004  12.6623  12.7085
    12.7170  12.7233  12.7310  12.7510  12.7667  12.8607  13.0923  13.0986
    13.1171  13.1350  13.2000  13.2202  13.3910  13.6439  13.8128  13.8346
    13.8739  14.0329  14.1390  14.1926  14.2790  14.3553  14.3894  14.6829
    14.7608  14.8151  14.8228  14.9799  15.0248  15.0404  15.1559  15.1645
    15.2103  15.3631  15.3673  15.3977  15.4291  15.4566  15.5654  15.6236
    15.6270  15.7254  15.7307  15.7663  15.7674  15.8734  15.8841  16.0146
    16.0240  16.0482  16.1111  16.1115  16.1197  16.1677  16.1828  16.2086
    16.2605  16.2785  16.3093  16.3176  16.3386  16.3512  16.3727  16.3933
    16.4277  16.4681  16.4756  16.6073  16.6214  16.6979  16.7751  16.7974
    16.9675  17.0324  17.0791  17.1651  17.2152  17.2371  17.2910  17.3168
    17.4500  17.5896  17.8500  17.9087  17.9243  17.9325  17.9714  18.1764
    18.2841  18.3300  18.4246  18.9237  18.9494  19.0541  19.1278  19.1761

          k = 0.0000 0.0000-0.5734 ( 31692 PWs)   bands (ev):

   -66.7687 -66.7224 -66.7006 -66.6934 -66.6718 -66.6353 -66.6176 -66.5963
   -66.5927 -62.4085 -62.4011 -62.3967 -62.3930 -62.3893 -62.3814 -62.3169
   -62.3000 -62.2947 -35.5291 -35.5122 -35.4933 -35.4883 -35.4715 -35.4715
   -35.4635 -35.4431 -35.4375 -35.4374 -35.4352 -35.4285 -35.4146 -35.4046
   -35.4020 -35.3967 -35.3743 -35.3737 -35.3626 -35.3576 -35.3480 -35.3471
   -35.3413 -35.3412 -35.3401 -35.3317 -35.3290 -31.2451 -31.2423 -31.2370
   -31.2333 -31.2325 -31.2269 -31.2260 -31.2257 -31.2246 -31.2205 -31.2165
   -31.2135 -31.2131 -31.2073 -31.2023 -31.1991 -31.1950 -31.1942 -31.1533
   -31.1524 -31.1479 -31.1438 -31.1280 -31.1254 -31.1160 -31.1015 -31.1008
     6.1757   6.1972   7.5395   7.5532   7.5665   7.5840   7.5868   7.6021
     7.6192   7.6301   8.3085   8.3252   8.3391   8.3490   8.3616   8.3694
     8.3783   8.3867   8.4525   8.4558   8.4782   8.4784   8.4900   8.5001
     8.5249   8.5254   8.7010   8.7099   8.7618   8.7806   8.9448   8.9647
     8.9660   8.9807   8.9812   8.9871   8.9873   8.9945   9.0087   9.0179
     9.0283   9.0420   9.0440   9.0571   9.0817   9.1066   9.1947   9.2117
     9.2175   9.2327   9.2465   9.2595   9.2730   9.2746   9.2808   9.2853
     9.2898   9.2904   9.2950   9.3046   9.3078   9.3098   9.4104   9.4105
     9.4300   9.4306   9.4374   9.4483   9.4517   9.4552   9.4629   9.4755
     9.4886   9.4955   9.5021   9.5166   9.5277   9.5470   9.6509   9.6795
     9.7885   9.7934   9.7991   9.8052   9.8060   9.8192   9.8275   9.8354
     9.8791   9.8812   9.8815   9.8834   9.8884   9.8908   9.8922   9.8935
    10.0592  10.0611  10.0636  10.0655  10.1394  10.1569  10.1589  10.1696
    10.1720  10.1864  10.1880  10.1933  10.2047  10.2159  10.3594  10.3611
    10.3761  10.3794  10.3931  10.4044  10.4180  10.4209  10.4789  10.5035
    10.5961  10.5971  10.6134  10.6169  10.6229  10.6358  10.6677  10.6722
    10.6724  10.6889  10.7097  10.7445  10.7527  10.8000  10.8015  10.8161
    10.9808  10.9991  10.9992  11.0074  11.0145  11.0199  11.0387  11.0829
    11.0872  11.0996  11.1073  11.1290  11.1503  11.1655  11.2045  11.2166
    11.2379  11.2436  11.2513  11.2513  11.2621  11.2624  11.2719  11.2729
    11.2742  11.2804  11.2814  11.2835  11.2905  11.2906  11.2970  11.2999
    11.3069  11.3089  11.3251  11.3260  11.5592  11.5743  11.7143  11.7149
    11.7160  11.7205  11.7237  11.7245  11.7265  11.7275  11.7348  11.7660
    11.7767  11.7813  11.7884  11.7965  11.8069  11.8227  11.8291  11.9292
    11.9815  11.9887  11.9946  12.0156  12.0277  12.0328  12.0499  12.0719
    12.1314  12.1710  12.1963  12.2344  12.2582  12.3342  12.3481  12.3687
    12.3759  12.4297  12.4360  12.4769  12.4800  12.4821  12.4851  12.4897
    12.4983  12.5048  12.5351  12.5394  12.5456  12.5542  12.5784  12.6452
    12.6570  12.6792  12.6851  12.7712  12.7831  12.8133  12.9221  12.9693
    12.9826  13.0339  13.0519  13.0748  13.1359  13.1608  13.2274  13.2276
    13.2442  13.2742  13.2870  13.3097  13.3229  13.5418  13.6245  13.7276
    13.9082  13.9619  13.9876  14.1181  14.1542  14.1629  14.2980  14.4737
    14.5214  14.8611  14.9011  14.9136  14.9830  14.9985  15.0060  15.1176
    15.1633  15.1670  15.1732  15.3286  15.3649  15.4144  15.4669  15.5493
    15.6577  15.6634  15.6814  15.7686  15.8003  15.8765  15.9510  15.9790
    16.0825  16.0861  16.1157  16.1490  16.1725  16.1848  16.2063  16.2164
    16.2302  16.2456  16.2538  16.2620  16.2727  16.2881  16.2967  16.2998
    16.3239  16.3523  16.5124  16.5876  16.5932  16.6736  16.7102  16.7411
    16.8473  16.8929  17.3220  17.3278  17.3530  17.4031  17.4817  17.5443
    17.5537  17.5650  17.6638  17.6937  17.7117  17.7437  17.8861  17.9058
    17.9178  17.9204  18.1662  18.2336  18.2337  18.2731  18.2984  18.3285

          k = 0.0000-0.5000 0.0000 ( 31722 PWs)   bands (ev):

   -66.7687 -66.7224 -66.7006 -66.6934 -66.6718 -66.6353 -66.6176 -66.5963
   -66.5927 -62.4085 -62.4011 -62.3967 -62.3930 -62.3893 -62.3814 -62.3169
   -62.3000 -62.2947 -35.5291 -35.5122 -35.4933 -35.4883 -35.4715 -35.4715
   -35.4635 -35.4431 -35.4375 -35.4374 -35.4352 -35.4285 -35.4146 -35.4046
   -35.4020 -35.3968 -35.3740 -35.3737 -35.3626 -35.3578 -35.3480 -35.3471
   -35.3412 -35.3412 -35.3401 -35.3318 -35.3290 -31.2467 -31.2400 -31.2374
   -31.2334 -31.2330 -31.2265 -31.2259 -31.2257 -31.2247 -31.2205 -31.2168
   -31.2131 -31.2129 -31.2073 -31.2023 -31.1995 -31.1950 -31.1942 -31.1533
   -31.1524 -31.1479 -31.1438 -31.1280 -31.1254 -31.1160 -31.1015 -31.1008
     6.0353   6.0551   7.4025   7.4290   7.4801   7.4878   7.6766   7.6800
     8.1108   8.1165   8.1550   8.1731   8.1908   8.1973   8.2695   8.2817
     8.3842   8.4195   8.4797   8.4872   8.6196   8.6364   8.6374   8.6548
     8.6576   8.6745   8.6981   8.7065   8.7827   8.8012   8.8157   8.8313
     8.8569   8.8599   8.8731   8.8932   8.9021   8.9099   8.9215   8.9248
     8.9312   8.9370   8.9493   8.9526   9.0506   9.0532   9.1533   9.1686
     9.2026   9.2083   9.2194   9.2260   9.2281   9.2339   9.3147   9.3274
     9.3570   9.3778   9.3986   9.4055   9.4699   9.4777   9.4857   9.4981
     9.5382   9.5586   9.5621   9.5669   9.5873   9.5981   9.6030   9.6171
     9.6261   9.6261   9.6355   9.6378   9.6408   9.6423   9.6445   9.6459
     9.6499   9.6721   9.6792   9.6895   9.6991   9.7050   9.7085   9.7315
     9.7385   9.7617   9.7629   9.7720   9.8977   9.9016   9.9342   9.9575
    10.0200  10.0351  10.1714  10.1926  10.2075  10.2173  10.2453  10.2470
    10.2758  10.2773  10.2781  10.2853  10.2855  10.2880  10.3366  10.3502
    10.3822  10.3852  10.3883  10.3928  10.4355  10.4424  10.4689  10.4743
    10.4910  10.5023  10.5105  10.5362  10.5555  10.5634  10.5849  10.5901
    10.6605  10.6621  10.6762  10.7088  10.7097  10.7457  10.7468  10.7673
    10.8027  10.8070  10.8365  10.8499  10.8593  10.8654  10.9031  10.9302
    10.9576  10.9666  11.0232  11.0421  11.0648  11.0784  11.1751  11.1813
    11.3021  11.3267  11.3461  11.3511  11.3624  11.3674  11.4149  11.4208
    11.4382  11.4632  11.4879  11.4888  11.4905  11.5342  11.5361  11.5635
    11.5703  11.5996  11.6098  11.6109  11.6305  11.6646  11.7333  11.7468
    11.7512  11.7910  11.8173  11.8291  11.8295  11.8524  11.8640  11.8682
    11.8729  11.8778  11.8868  11.9015  11.9139  11.9213  11.9468  11.9535
    11.9680  11.9812  12.0119  12.0141  12.1000  12.1165  12.1545  12.1645
    12.1723  12.1787  12.2046  12.2218  12.2436  12.2505  12.2515  12.2666
    12.2904  12.3030  12.3343  12.3948  12.4001  12.4005  12.4228  12.4460
    12.4616  12.4687  12.4808  12.5096  12.5145  12.5397  12.5435  12.5755
    12.5897  12.5975  12.6081  12.6252  12.6580  12.6626  12.7486  12.7853
    12.8534  12.8817  12.9536  13.0191  13.0303  13.0408  13.0943  13.1336
    13.1647  13.2206  13.2269  13.2490  13.2781  13.2846  13.3152  13.3971
    13.4783  13.4946  13.5643  13.5844  13.6452  14.3357  14.3893  14.4941
    14.4942  14.7519  14.7683  14.8294  14.9147  14.9759  15.0643  15.1172
    15.1228  15.1303  15.1620  15.2832  15.3250  15.4203  15.5389  15.6042
    15.6316  15.7076  15.7494  15.7836  15.8350  15.8430  15.9036  15.9768
    15.9941  16.0127  16.0167  16.0758  16.0974  16.1071  16.1200  16.1331
    16.1678  16.2044  16.2455  16.2506  16.2792  16.2816  16.3189  16.4005
    16.4120  16.5595  16.6281  16.6661  16.7296  16.7534  17.0031  17.0322
    17.1997  17.2181  17.2842  17.2881  17.5042  17.5239  17.6030  17.6224
    17.6881  17.7565  17.7903  17.7909  17.8735  17.9060  17.9067  17.9104
    17.9831  18.0520  18.1166  18.2254  19.3003  19.3201  19.3367  19.3837

          k = 0.0000-0.5000-0.5734 ( 31696 PWs)   bands (ev):

   -66.7687 -66.7224 -66.7006 -66.6934 -66.6718 -66.6353 -66.6176 -66.5963
   -66.5927 -62.4085 -62.4011 -62.3967 -62.3930 -62.3893 -62.3814 -62.3169
   -62.3000 -62.2947 -35.5291 -35.5122 -35.4933 -35.4883 -35.4715 -35.4715
   -35.4635 -35.4431 -35.4375 -35.4374 -35.4352 -35.4285 -35.4146 -35.4046
   -35.4020 -35.3968 -35.3740 -35.3737 -35.3626 -35.3578 -35.3480 -35.3471
   -35.3412 -35.3412 -35.3401 -35.3318 -35.3290 -31.2467 -31.2400 -31.2374
   -31.2334 -31.2330 -31.2265 -31.2259 -31.2257 -31.2247 -31.2205 -31.2168
   -31.2131 -31.2129 -31.2073 -31.2023 -31.1995 -31.1950 -31.1942 -31.1533
   -31.1524 -31.1479 -31.1438 -31.1280 -31.1254 -31.1160 -31.1015 -31.1008
     6.5518   6.5761   6.5984   6.6147   7.8346   7.8591   7.8766   7.8852
     7.9039   7.9174   7.9230   7.9450   8.2726   8.2777   8.3008   8.3044
     8.5074   8.5143   8.5445   8.5481   8.6620   8.6666   8.6722   8.6775
     8.6800   8.6841   8.7078   8.7139   8.7396   8.7404   8.7476   8.7531
     8.7579   8.7764   8.8009   8.8202   8.9726   8.9974   9.0107   9.0230
     9.0353   9.0444   9.0542   9.0669   9.2038   9.2055   9.2108   9.2129
     9.2157   9.2221   9.2247   9.2263   9.2467   9.2496   9.2563   9.2690
     9.2734   9.2736   9.2999   9.3004   9.3083   9.3210   9.3825   9.4017
     9.4162   9.4253   9.4609   9.4647   9.4652   9.4657   9.4673   9.4898
     9.4949   9.5081   9.5152   9.5237   9.5401   9.5451   9.5451   9.5532
     9.5554   9.5792   9.7570   9.7597   9.7914   9.7955   9.8083   9.8102
     9.8443   9.8477   9.8510   9.8527   9.8593   9.8626   9.8670   9.8876
     9.9713   9.9748   9.9960  10.0075  10.0251  10.0293  10.0585  10.0624
    10.3619  10.3800  10.4008  10.4029  10.4123  10.4201  10.4317  10.4613
    10.4674  10.4695  10.4797  10.4820  10.4916  10.4923  10.5052  10.5088
    10.5090  10.5197  10.5664  10.5772  10.6053  10.6084  10.6126  10.6172
    10.6514  10.6552  10.6746  10.6751  10.6854  10.7008  10.7057  10.7274
    10.7667  10.7864  10.8696  10.8829  10.9637  10.9750  11.0789  11.0839
    11.1120  11.1282  11.1330  11.1414  11.1671  11.1925  11.1970  11.2019
    11.2112  11.2132  11.3016  11.3208  11.3533  11.3638  11.3690  11.3720
    11.3748  11.3858  11.3995  11.4155  11.4848  11.4864  11.4872  11.5177
    11.5195  11.5276  11.5717  11.5720  11.5862  11.6018  11.6374  11.6394
    11.6430  11.6449  11.7184  11.7266  11.7359  11.8005  11.8044  11.8157
    11.9178  11.9272  11.9342  11.9523  11.9604  11.9636  11.9821  12.0180
    12.0355  12.0363  12.0406  12.0447  12.0801  12.0937  12.1137  12.1416
    12.1867  12.1921  12.2213  12.2313  12.2423  12.2890  12.2967  12.3205
    12.3648  12.3820  12.4021  12.4403  12.4490  12.4680  12.4847  12.4907
    12.5105  12.5270  12.5438  12.5510  12.5567  12.5601  12.5814  12.5816
    12.5936  12.6011  12.6434  12.6519  12.6641  12.7269  12.7282  12.7800
    12.7960  12.8258  12.8489  12.8848  12.9108  12.9447  12.9885  13.0307
    13.0627  13.2146  13.5428  13.6086  13.6152  13.6319  13.6887  13.7593
    13.8562  13.9954  14.0089  14.1486  14.2460  14.2520  14.2887  14.4880
    14.4887  14.5478  14.5526  14.6146  14.6260  14.7475  14.7649  14.9008
    14.9097  15.2598  15.2898  15.3403  15.3753  15.3816  15.3952  15.5357
    15.6333  15.7980  15.8078  15.8199  15.8451  15.8796  15.9430  15.9572
    16.0068  16.0243  16.0348  16.0378  16.0445  16.1493  16.1807  16.1933
    16.2086  16.2572  16.2888  16.3207  16.3535  16.3594  16.3800  16.4134
    16.4307  16.5838  16.6010  16.6388  16.6579  16.6978  16.7331  16.7428
    16.7555  16.8300  16.8949  16.8981  16.9423  16.9814  16.9918  16.9976
    17.0598  17.1003  17.1982  17.2729  18.5797  18.6084  18.6675  18.6854
    18.8041  18.8270  18.8337  18.8615  18.8943  18.9015  18.9453  18.9481

          k =-0.5000-0.5000 0.0000 ( 31612 PWs)   bands (ev):

   -66.7687 -66.7224 -66.7006 -66.6934 -66.6718 -66.6353 -66.6176 -66.5963
   -66.5927 -62.4085 -62.4011 -62.3967 -62.3930 -62.3893 -62.3814 -62.3169
   -62.3000 -62.2947 -35.5291 -35.5122 -35.4933 -35.4883 -35.4715 -35.4715
   -35.4635 -35.4431 -35.4375 -35.4374 -35.4352 -35.4285 -35.4146 -35.4046
   -35.4020 -35.3968 -35.3740 -35.3737 -35.3626 -35.3578 -35.3480 -35.3471
   -35.3412 -35.3412 -35.3401 -35.3318 -35.3290 -31.2467 -31.2400 -31.2374
   -31.2334 -31.2330 -31.2265 -31.2258 -31.2257 -31.2247 -31.2205 -31.2168
   -31.2131 -31.2129 -31.2073 -31.2023 -31.1995 -31.1950 -31.1942 -31.1533
   -31.1524 -31.1479 -31.1438 -31.1280 -31.1254 -31.1160 -31.1015 -31.1008
     6.4068   6.4211   6.4501   6.4943   8.0125   8.0148   8.0226   8.0261
     8.1001   8.1115   8.2964   8.3082   8.3214   8.3294   8.3369   8.3399
     8.3481   8.3521   8.3582   8.3719   8.3757   8.4151   8.5905   8.6167
     8.6404   8.6606   8.6782   8.7008   8.7139   8.7178   8.7274   8.7377
     8.7669   8.8162   8.9226   8.9384   8.9537   8.9722   8.9779   8.9787
     8.9798   8.9883   8.9975   9.0130   9.0180   9.0337   9.0469   9.0490
     9.1194   9.1278   9.3100   9.3109   9.3209   9.3228   9.4051   9.4088
     9.4136   9.4232   9.4276   9.4310   9.4372   9.4422   9.4479   9.4533
     9.4595   9.4715   9.4766   9.4776   9.4830   9.4918   9.4958   9.5044
     9.5119   9.5158   9.5352   9.5415   9.5469   9.5664   9.5811   9.5939
     9.6043   9.6135   9.7003   9.7011   9.7754   9.7793   9.8211   9.8271
     9.8285   9.8362   9.8442   9.8491   9.8519   9.8874  10.0397  10.0600
    10.0802  10.1072  10.1244  10.1284  10.1420  10.1501  10.1528  10.1639
    10.1748  10.1802  10.2064  10.2150  10.2245  10.2272  10.2292  10.2354
    10.2378  10.2384  10.2418  10.2562  10.4609  10.4753  10.4901  10.4947
    10.4990  10.5034  10.5084  10.5558  10.5940  10.6216  10.6451  10.6499
    10.6585  10.6649  10.6798  10.6869  10.6951  10.7014  10.7082  10.7104
    10.7143  10.7496  10.7857  10.8225  10.8331  10.8410  10.8685  10.8804
    10.9368  10.9509  11.1962  11.2010  11.2196  11.2321  11.3073  11.3234
    11.3325  11.3423  11.3610  11.3683  11.3857  11.3924  11.5309  11.5473
    11.6045  11.6332  11.6374  11.6433  11.6446  11.6500  11.6526  11.6545
    11.7003  11.7023  11.7265  11.7326  11.7339  11.7475  11.7547  11.7595
    11.8701  11.8772  11.8791  11.8817  11.8856  11.8886  11.9426  11.9457
    12.0022  12.0418  12.0665  12.0843  12.0972  12.1048  12.1072  12.1107
    12.1118  12.1154  12.1202  12.1216  12.1453  12.1465  12.1658  12.1731
    12.1978  12.2007  12.2111  12.2270  12.2274  12.2384  12.2576  12.2737
    12.2748  12.2797  12.2905  12.2968  12.2980  12.3072  12.3129  12.3424
    12.3662  12.3819  12.4163  12.4396  12.4820  12.4929  12.5174  12.5299
    12.5398  12.5701  12.5824  12.6064  12.6089  12.6362  12.6631  12.6635
    12.7059  12.8076  12.8445  12.8737  12.8922  12.9290  12.9440  12.9538
    12.9746  12.9991  13.0002  13.0058  13.0291  13.5633  13.5747  13.6763
    13.6781  13.6790  13.7013  13.8623  13.8796  14.0037  14.0568  14.1794
    14.1992  14.2075  14.3456  14.4527  14.5413  14.6869  14.8084  15.0705
    15.1976  15.2165  15.2312  15.2353  15.3767  15.4868  15.5469  15.7183
    15.7421  15.7980  15.7986  15.8798  15.8852  15.9018  15.9186  15.9495
    15.9775  15.9938  16.0139  16.0178  16.0194  16.0795  16.1061  16.1404
    16.1707  16.1795  16.2550  16.2953  16.3305  16.3467  16.4166  16.4462
    16.4716  16.4927  16.5071  16.6649  16.6676  16.6976  16.7094  16.7219
    16.8569  16.8939  16.9112  16.9229  17.3889  17.3913  17.8092  17.9381
    18.1705  18.1954  18.2217  18.2426  18.2953  18.3148  18.4947  18.5717
    18.5758  18.6443  18.6753  18.7140  18.7476  18.7961  18.7976  18.8084

          k =-0.5000-0.5000-0.5734 ( 31672 PWs)   bands (ev):

   -66.7687 -66.7224 -66.7006 -66.6934 -66.6718 -66.6353 -66.6176 -66.5963
   -66.5927 -62.4085 -62.4011 -62.3967 -62.3930 -62.3893 -62.3814 -62.3169
   -62.3000 -62.2947 -35.5291 -35.5122 -35.4933 -35.4883 -35.4715 -35.4715
   -35.4635 -35.4431 -35.4375 -35.4374 -35.4352 -35.4285 -35.4146 -35.4046
   -35.4020 -35.3968 -35.3740 -35.3737 -35.3626 -35.3578 -35.3480 -35.3471
   -35.3412 -35.3412 -35.3401 -35.3318 -35.3290 -31.2467 -31.2400 -31.2374
   -31.2334 -31.2330 -31.2265 -31.2258 -31.2257 -31.2247 -31.2205 -31.2168
   -31.2131 -31.2129 -31.2073 -31.2023 -31.1995 -31.1950 -31.1942 -31.1533
   -31.1524 -31.1479 -31.1438 -31.1280 -31.1254 -31.1160 -31.1015 -31.1008
     6.8833   6.9171   6.9373   6.9457   6.9959   7.0079   7.0296   7.0557
     8.4480   8.4593   8.4792   8.4842   8.4866   8.4898   8.4923   8.4993
     8.5041   8.5086   8.5142   8.5206   8.5393   8.5458   8.5463   8.5666
     8.5760   8.5921   8.5927   8.6015   8.8767   8.8793   8.8864   8.8966
     8.9087   8.9098   8.9372   8.9510   9.0870   9.1073   9.1142   9.1203
     9.1257   9.1467   9.1517   9.1532   9.1607   9.1614   9.1625   9.1651
     9.1662   9.1674   9.1689   9.1728   9.1747   9.1768   9.1790   9.1821
     9.1851   9.1873   9.1906   9.1984   9.2012   9.2122   9.2184   9.2220
     9.2288   9.2343   9.2366   9.2449   9.2535   9.2669   9.2763   9.2901
     9.5444   9.5527   9.5620   9.5737   9.5834   9.5956   9.6157   9.6250
     9.6497   9.6726   9.6779   9.6895   9.7176   9.7372   9.7511   9.7849
     9.8182   9.8375   9.8432   9.8523   9.8769   9.8840   9.8897   9.8981
    10.1061  10.1201  10.1443  10.1546  10.1694  10.1817  10.1939  10.2022
    10.2944  10.3107  10.4494  10.4630  10.4647  10.4665  10.4795  10.4841
    10.4843  10.4910  10.5019  10.5033  10.5107  10.5133  10.5135  10.5141
    10.5204  10.5338  10.5389  10.5635  10.5725  10.5731  10.5815  10.6006
    10.6063  10.6088  10.6176  10.6406  10.6423  10.6638  10.6652  10.6847
    10.6897  10.6932  10.7040  10.7067  10.7326  10.7358  11.0463  11.0520
    11.0658  11.0702  11.0907  11.0999  11.1300  11.1355  11.3836  11.3858
    11.3959  11.3963  11.4060  11.4273  11.4399  11.4447  11.4754  11.4814
    11.4856  11.4922  11.5024  11.5069  11.5199  11.5306  11.6357  11.6412
    11.6450  11.6464  11.6507  11.6520  11.6951  11.7005  11.7054  11.7248
    11.7277  11.7333  11.7390  11.7419  11.7724  11.7788  11.7816  11.8043
    11.8052  11.8187  11.8235  11.8371  11.8453  11.8681  11.9927  12.0172
    12.0335  12.0556  12.0722  12.0800  12.0882  12.1273  12.1512  12.1617
    12.1787  12.2062  12.2279  12.2312  12.2494  12.2873  12.3246  12.3343
    12.3505  12.3989  12.4029  12.4159  12.4193  12.4296  12.4370  12.4670
    12.4783  12.4950  12.5021  12.5318  12.5356  12.5604  12.5753  12.6014
    12.6146  12.6739  12.7004  12.7238  12.7260  12.7590  12.7742  12.8192
    12.9019  12.9274  12.9533  12.9787  13.1042  13.1369  13.1497  13.2436
    13.2640  13.2825  13.2922  13.3320  13.3512  13.3966  13.4844  13.4982
    13.5282  13.7094  13.7909  13.8141  13.8514  13.9739  14.1350  14.1585
    14.2137  14.3015  14.3425  14.6924  14.8091  14.8320  14.8640  14.8925
    14.9602  15.0676  15.1803  15.3139  15.3355  15.6640  15.6769  15.6853
    15.7018  15.7540  15.8006  15.8913  15.9323  15.9627  15.9679  16.0006
    16.0105  16.0212  16.0888  16.1156  16.1437  16.1646  16.1702  16.2210
    16.2212  16.2341  16.2496  16.3175  16.3319  16.3911  16.3936  16.4938
    16.5318  16.5353  16.5598  16.6006  16.6088  16.6379  16.7027  16.7204
    16.7771  16.7848  16.8100  16.8827  16.8901  16.9635  16.9905  17.0005
    17.1257  17.1285  17.7284  17.8082  17.8575  17.8607  19.0056  19.0123
    19.0405  19.0447  19.0798  19.1090  19.1884  19.2238  19.2330  19.3412

          k =-0.5000 0.0000 0.0000 ( 31722 PWs)   bands (ev):

   -66.7687 -66.7224 -66.7006 -66.6934 -66.6718 -66.6353 -66.6176 -66.5963
   -66.5927 -62.4085 -62.4011 -62.3967 -62.3930 -62.3893 -62.3814 -62.3169
   -62.3000 -62.2947 -35.5291 -35.5122 -35.4933 -35.4883 -35.4715 -35.4715
   -35.4635 -35.4431 -35.4375 -35.4374 -35.4352 -35.4285 -35.4146 -35.4046
   -35.4020 -35.3967 -35.3743 -35.3737 -35.3626 -35.3576 -35.3480 -35.3471
   -35.3413 -35.3412 -35.3401 -35.3317 -35.3290 -31.2451 -31.2423 -31.2370
   -31.2333 -31.2325 -31.2269 -31.2260 -31.2257 -31.2246 -31.2205 -31.2165
   -31.2135 -31.2131 -31.2073 -31.2023 -31.1991 -31.1950 -31.1942 -31.1533
   -31.1524 -31.1479 -31.1438 -31.1280 -31.1254 -31.1160 -31.1015 -31.1008
     6.0186   6.0720   7.4250   7.4310   7.4443   7.5002   7.6760   7.6793
     8.0921   8.1137   8.1459   8.1821   8.2092   8.2353   8.2512   8.2641
     8.4058   8.4214   8.4375   8.4940   8.6336   8.6396   8.6414   8.6469
     8.6580   8.6635   8.7055   8.7126   8.7544   8.8073   8.8322   8.8412
     8.8473   8.8693   8.8841   8.8902   8.8971   8.9102   8.9165   8.9213
     8.9248   8.9305   8.9415   8.9629   9.0461   9.0558   9.1661   9.1687
     9.1831   9.2083   9.2220   9.2269   9.2306   9.2496   9.3382   9.3415
     9.3458   9.3545   9.3836   9.4161   9.4717   9.4868   9.4968   9.5048
     9.5220   9.5338   9.5780   9.5807   9.5867   9.6031   9.6104   9.6129
     9.6212   9.6281   9.6300   9.6316   9.6371   9.6390   9.6441   9.6472
     9.6565   9.6624   9.6781   9.6893   9.6971   9.7051   9.7196   9.7231
     9.7303   9.7456   9.7775   9.7857   9.8878   9.9137   9.9448   9.9669
    10.0219  10.0413  10.1380  10.2002  10.2184  10.2300  10.2518  10.2567
    10.2594  10.2612  10.2615  10.2642  10.2928  10.2982  10.3376  10.3516
    10.3614  10.3760  10.3893  10.3941  10.4315  10.4446  10.4511  10.4723
    10.5261  10.5314  10.5372  10.5544  10.5635  10.5703  10.5735  10.5876
    10.6058  10.6527  10.6567  10.6943  10.7042  10.7403  10.7503  10.7757
    10.7860  10.8192  10.8202  10.8575  10.8604  10.8707  10.9016  10.9428
    10.9993  11.0091  11.0156  11.0251  11.0399  11.0824  11.1721  11.1816
    11.3483  11.3505  11.3527  11.3786  11.3791  11.4010  11.4013  11.4136
    11.4216  11.4346  11.4574  11.4791  11.4794  11.5352  11.5414  11.5424
    11.5610  11.5729  11.5833  11.6178  11.6233  11.6479  11.6703  11.7380
    11.7655  11.7846  11.7915  11.8191  11.8527  11.8680  11.8686  11.8728
    11.8939  11.9001  11.9210  11.9251  11.9410  11.9425  11.9552  11.9600
    11.9696  11.9725  11.9878  11.9956  12.0535  12.0922  12.1690  12.1697
    12.1958  12.2075  12.2099  12.2147  12.2289  12.2527  12.2727  12.2830
    12.2880  12.2944  12.3190  12.3220  12.3444  12.4043  12.4107  12.4455
    12.4488  12.4845  12.4869  12.4928  12.5132  12.5401  12.5482  12.5609
    12.5729  12.6095  12.6185  12.6439  12.6554  12.6639  12.7289  12.7987
    12.8666  13.0076  13.0337  13.0680  13.0988  13.1026  13.1149  13.1443
    13.1650  13.1786  13.2023  13.2331  13.2528  13.2832  13.3416  13.3431
    13.3479  13.4664  13.4992  13.5814  13.6340  14.4528  14.4785  14.5742
    14.6432  14.7361  14.7641  14.7689  14.7981  14.9030  14.9487  14.9913
    15.0503  15.0682  15.1129  15.2526  15.4266  15.4642  15.5377  15.6294
    15.7024  15.7676  15.7886  15.7928  15.8009  15.8106  15.8479  16.0175
    16.0196  16.0595  16.0737  16.0840  16.1202  16.1350  16.1577  16.1761
    16.1902  16.2048  16.2438  16.2527  16.2962  16.3193  16.3702  16.4213
    16.4303  16.4976  16.5578  16.6007  16.6563  16.7787  17.0450  17.0723
    17.1382  17.1888  17.2184  17.3241  17.4050  17.4347  17.6160  17.6354
    17.7214  17.7673  17.7709  17.8255  17.8507  17.8710  17.8748  17.9747
    17.9881  18.0021  18.1761  18.2750  19.2294  19.2938  19.3410  19.3843

          k =-0.5000 0.0000 0.5734 ( 31696 PWs)   bands (ev):

   -66.7687 -66.7224 -66.7006 -66.6934 -66.6718 -66.6353 -66.6176 -66.5963
   -66.5927 -62.4085 -62.4011 -62.3967 -62.3930 -62.3893 -62.3814 -62.3169
   -62.3000 -62.2947 -35.5291 -35.5122 -35.4933 -35.4883 -35.4715 -35.4715
   -35.4635 -35.4431 -35.4375 -35.4374 -35.4352 -35.4285 -35.4146 -35.4046
   -35.4020 -35.3967 -35.3743 -35.3737 -35.3626 -35.3576 -35.3480 -35.3471
   -35.3413 -35.3412 -35.3401 -35.3317 -35.3290 -31.2451 -31.2423 -31.2370
   -31.2333 -31.2325 -31.2269 -31.2260 -31.2257 -31.2246 -31.2205 -31.2165
   -31.2135 -31.2131 -31.2073 -31.2023 -31.1991 -31.1950 -31.1942 -31.1533
   -31.1524 -31.1479 -31.1438 -31.1280 -31.1254 -31.1160 -31.1015 -31.1008
     6.5271   6.5491   6.6260   6.6447   7.8342   7.8604   7.8628   7.8690
     7.9093   7.9159   7.9282   7.9511   8.2714   8.2781   8.3020   8.3049
     8.5173   8.5255   8.5328   8.5359   8.6663   8.6725   8.6746   8.6757
     8.6860   8.7014   8.7121   8.7263   8.7311   8.7368   8.7502   8.7536
     8.7564   8.7848   8.7875   8.7900   8.9534   8.9693   9.0371   9.0427
     9.0433   9.0481   9.0569   9.0595   9.1911   9.2063   9.2139   9.2169
     9.2225   9.2293   9.2358   9.2390   9.2438   9.2472   9.2500   9.2576
     9.2605   9.2653   9.2762   9.2795   9.3035   9.3447   9.3830   9.4064
     9.4170   9.4279   9.4520   9.4566   9.4653   9.4671   9.4692   9.4891
     9.5054   9.5192   9.5210   9.5314   9.5317   9.5460   9.5548   9.5603
     9.5819   9.5977   9.7551   9.7572   9.7954   9.8135   9.8177   9.8213
     9.8230   9.8408   9.8462   9.8505   9.8568   9.8618   9.8673   9.8807
     9.9389   9.9452  10.0169  10.0272  10.0334  10.0471  10.0526  10.0534
    10.3602  10.3765  10.3895  10.3918  10.4070  10.4140  10.4318  10.4403
    10.4516  10.4522  10.4723  10.4759  10.4779  10.4814  10.4912  10.5150
    10.5310  10.5638  10.5691  10.5783  10.5798  10.5910  10.6424  10.6498
    10.6562  10.6589  10.6804  10.6828  10.6923  10.7011  10.7138  10.7270
    10.7700  10.7904  10.8618  10.8796  10.9767  10.9876  11.0303  11.0328
    11.1134  11.1207  11.1476  11.1858  11.1923  11.1939  11.1956  11.2072
    11.2124  11.2137  11.2966  11.2988  11.3427  11.3479  11.3689  11.3811
    11.3848  11.3979  11.4219  11.4480  11.4495  11.4528  11.4874  11.4986
    11.5671  11.5707  11.5823  11.5836  11.5921  11.6126  11.6184  11.6215
    11.6240  11.6275  11.7326  11.7462  11.7463  11.7713  11.7832  11.8814
    11.8893  11.9092  11.9268  11.9378  11.9669  11.9951  12.0046  12.0137
    12.0216  12.0270  12.0300  12.0401  12.0420  12.0432  12.0572  12.0903
    12.2249  12.2355  12.2620  12.2748  12.2793  12.2933  12.3067  12.3298
    12.3432  12.3477  12.3664  12.3724  12.4096  12.4405  12.4426  12.4750
    12.4848  12.4967  12.5005  12.5174  12.5528  12.5617  12.5724  12.6108
    12.6159  12.6399  12.6450  12.6538  12.6541  12.7015  12.7390  12.7667
    12.7791  12.8444  12.9323  12.9835  12.9997  13.0426  13.0856  13.1309
    13.2213  13.2590  13.3593  13.4552  13.4719  13.5561  13.6084  13.9165
    13.9579  13.9769  14.0492  14.0788  14.1539  14.2794  14.3091  14.4159
    14.4226  14.5511  14.5605  14.5757  14.6305  14.7531  14.7699  15.0730
    15.0855  15.1356  15.2009  15.3824  15.3940  15.4214  15.4326  15.4734
    15.4819  15.6646  15.7159  15.7298  15.8366  15.9380  15.9688  16.0251
    16.0476  16.0640  16.1044  16.1499  16.1559  16.2205  16.2262  16.2451
    16.2871  16.3088  16.3508  16.3910  16.3932  16.4064  16.4102  16.4240
    16.4279  16.4450  16.4843  16.5698  16.5705  16.6167  16.6943  16.7417
    16.7865  16.8038  16.8396  16.8596  16.9099  16.9662  16.9773  17.0035
    17.0484  17.0711  17.1620  17.2666  18.6655  18.6958  18.7176  18.7534
    18.7810  18.7876  18.8002  18.8457  18.8773  18.8996  18.9162  18.9170

 ------ SPIN DOWN ----------


          k = 0.0000 0.0000 0.0000 ( 31747 PWs)   bands (ev):

   -66.7849 -66.7637 -66.7437 -66.7396 -66.7310 -66.7267 -66.6116 -66.5823
   -66.5562 -62.4025 -62.3829 -62.3727 -62.3695 -62.3681 -62.3584 -62.3562
   -62.3441 -62.3234 -35.5369 -35.5319 -35.5267 -35.5154 -35.5095 -35.5070
   -35.5051 -35.4955 -35.4895 -35.4875 -35.4831 -35.4807 -35.4795 -35.4758
   -35.4618 -35.4555 -35.4507 -35.4435 -35.3659 -35.3560 -35.3541 -35.3482
   -35.3309 -35.3186 -35.3075 -35.2891 -35.2839 -31.2405 -31.2306 -31.2221
   -31.2154 -31.2133 -31.2131 -31.2085 -31.2057 -31.2044 -31.2013 -31.2002
   -31.1969 -31.1914 -31.1865 -31.1853 -31.1841 -31.1835 -31.1808 -31.1799
   -31.1784 -31.1723 -31.1616 -31.1599 -31.1560 -31.1494 -31.1473 -31.1432
     5.6118   7.1370   7.1669   7.1864   7.2103   7.3614   7.8596   7.8617
     7.9137   7.9496   8.0719   8.1040   8.1353   8.1638   8.1961   8.2315
     8.2607   8.2883   8.3190   8.5213   8.5319   8.5593   8.5722   8.5931
     8.6079   8.8405   8.8643   8.8645   8.8798   8.8836   8.8880   8.9033
     8.9067   8.9074   8.9141   8.9177   8.9264   8.9493   8.9541   8.9789
     8.9950   9.0823   9.1172   9.1197   9.1226   9.1309   9.1578   9.1620
     9.1784   9.2010   9.2148   9.2675   9.2739   9.3014   9.3139   9.3338
     9.3461   9.3524   9.3647   9.3673   9.3828   9.3864   9.4020   9.4254
     9.4401   9.4414   9.4458   9.4487   9.4532   9.4651   9.5088   9.5660
     9.5746   9.5812   9.5847   9.5880   9.6211   9.6633   9.6677   9.6716
     9.6726   9.6747   9.7059   9.7369   9.7572   9.7800   9.7984   9.8494
     9.8500   9.8929   9.9098   9.9287   9.9522   9.9578  10.0189  10.0393
    10.0933  10.1201  10.1301  10.1568  10.2908  10.2918  10.2930  10.2951
    10.2974  10.2988  10.3019  10.3085  10.3100  10.3234  10.3280  10.3423
    10.3480  10.3496  10.3527  10.3549  10.3551  10.3725  10.3823  10.3824
    10.3998  10.5187  10.5196  10.5731  10.6085  10.6095  10.6309  10.6357
    10.6915  10.7610  10.7839  10.7854  10.7897  10.8213  10.8292  10.8379
    10.8427  10.8526  10.8629  10.8685  10.8721  10.8758  10.8797  10.8952
    10.9003  10.9202  10.9971  11.0374  11.0728  11.1082  11.2016  11.2179
    11.2224  11.2273  11.2553  11.2574  11.2791  11.2940  11.3357  11.3384
    11.3643  11.3650  11.3834  11.3901  11.3993  11.4034  11.4080  11.4115
    11.4184  11.4529  11.5869  11.5875  11.5891  11.5952  11.5979  11.6071
    11.6280  11.6709  11.7205  11.7270  11.7319  11.7400  11.7553  11.7861
    11.8320  11.8479  11.8598  11.8688  11.8770  11.8989  11.9326  11.9376
    11.9630  12.0576  12.0983  12.1007  12.1016  12.1030  12.1043  12.1389
    12.1415  12.1440  12.1441  12.1486  12.1525  12.1718  12.1916  12.2177
    12.2456  12.2594  12.3194  12.3207  12.3445  12.3482  12.3657  12.4033
    12.4056  12.4228  12.4341  12.4342  12.4585  12.4804  12.4873  12.4890
    12.5026  12.5198  12.5283  12.5483  12.5733  12.5822  12.5974  12.6249
    12.6814  12.7031  12.7789  12.7840  12.7881  12.8936  12.9942  13.0599
    13.1104  13.1372  13.2150  13.3168  13.3543  13.6612  13.7110  13.7310
    13.8824  14.0078  14.2354  14.2474  14.3106  14.3405  14.4337  14.4364
    14.7314  14.7740  14.7821  15.0185  15.1176  15.1620  15.2069  15.2569
    15.2653  15.2863  15.3106  15.3369  15.3797  15.4455  15.4874  15.5644
    15.6561  15.6853  15.7068  15.8170  15.8691  15.8849  15.9153  15.9376
    16.0034  16.0619  16.0790  16.1301  16.1358  16.1545  16.1598  16.1672
    16.2570  16.2711  16.2794  16.2961  16.3260  16.3386  16.3779  16.3902
    16.4432  16.4871  16.5188  16.5727  16.6142  16.6734  16.7797  16.8927
    17.0254  17.0465  17.0920  17.1660  17.1902  17.2432  17.2689  17.2846
    17.4352  17.5291  17.8851  17.8983  17.9191  17.9498  17.9514  18.1914
    18.2445  18.3191  18.4477  18.9461  18.9999  19.0035  19.0686  19.1780

          k = 0.0000 0.0000-0.5734 ( 31692 PWs)   bands (ev):

   -66.7849 -66.7637 -66.7437 -66.7396 -66.7310 -66.7267 -66.6116 -66.5823
   -66.5562 -62.4025 -62.3829 -62.3727 -62.3695 -62.3681 -62.3584 -62.3562
   -62.3441 -62.3234 -35.5369 -35.5319 -35.5267 -35.5154 -35.5095 -35.5070
   -35.5051 -35.4955 -35.4895 -35.4875 -35.4831 -35.4807 -35.4795 -35.4758
   -35.4618 -35.4555 -35.4507 -35.4435 -35.3659 -35.3560 -35.3541 -35.3482
   -35.3309 -35.3186 -35.3075 -35.2891 -35.2839 -31.2405 -31.2306 -31.2221
   -31.2154 -31.2133 -31.2131 -31.2085 -31.2057 -31.2044 -31.2013 -31.2002
   -31.1969 -31.1914 -31.1865 -31.1853 -31.1841 -31.1835 -31.1808 -31.1799
   -31.1784 -31.1723 -31.1616 -31.1599 -31.1560 -31.1494 -31.1473 -31.1432
     6.1713   6.1896   7.5360   7.5444   7.5627   7.5819   7.5841   7.5946
     7.6131   7.6198   8.3120   8.3247   8.3256   8.3305   8.3612   8.3663
     8.3673   8.3891   8.4578   8.4590   8.4788   8.4834   8.4943   8.4949
     8.5020   8.5035   8.6995   8.7075   8.7605   8.7775   8.9460   8.9650
     8.9653   8.9747   8.9749   8.9801   8.9813   8.9856   9.0086   9.0175
     9.0224   9.0347   9.0424   9.0540   9.0770   9.0984   9.1866   9.1990
     9.2152   9.2277   9.2413   9.2518   9.2739   9.2777   9.2795   9.2836
     9.2868   9.2876   9.2902   9.3024   9.3025   9.3088   9.4111   9.4128
     9.4259   9.4358   9.4406   9.4411   9.4544   9.4549   9.4575   9.4588
     9.4618   9.4775   9.4922   9.5085   9.5242   9.5423   9.6504   9.6746
     9.7821   9.7841   9.7978   9.8050   9.8064   9.8167   9.8289   9.8347
     9.8718   9.8723   9.8770   9.8787   9.8880   9.8892   9.8911   9.8922
    10.0585  10.0599  10.0600  10.0612  10.1313  10.1441  10.1538  10.1631
    10.1664  10.1833  10.1884  10.1945  10.1975  10.2099  10.3483  10.3502
    10.3682  10.3757  10.4016  10.4080  10.4138  10.4149  10.4753  10.4989
    10.5818  10.5829  10.6113  10.6190  10.6341  10.6513  10.6736  10.6756
    10.6780  10.7032  10.7085  10.7318  10.7409  10.7632  10.7758  10.7936
    10.9582  10.9643  10.9997  11.0200  11.0248  11.0304  11.0493  11.0658
    11.0945  11.1172  11.1281  11.1398  11.1453  11.1491  11.1519  11.1541
    11.2217  11.2310  11.2477  11.2496  11.2592  11.2603  11.2634  11.2668
    11.2722  11.2725  11.2802  11.2825  11.2881  11.2887  11.2962  11.2977
    11.3063  11.3067  11.3191  11.3202  11.5668  11.5869  11.7060  11.7079
    11.7080  11.7155  11.7191  11.7230  11.7291  11.7302  11.7331  11.7500
    11.7595  11.7601  11.7731  11.7735  11.7942  11.8509  11.8549  11.9120
    11.9648  11.9720  11.9796  11.9986  12.0078  12.0248  12.0466  12.0614
    12.1398  12.1661  12.1800  12.2171  12.2648  12.3476  12.3490  12.3642
    12.3931  12.4047  12.4068  12.4273  12.4322  12.4331  12.4375  12.4720
    12.4765  12.4995  12.5161  12.5363  12.5430  12.5719  12.5816  12.6094
    12.6511  12.7126  12.7344  12.7475  12.7603  12.7718  12.8885  12.9321
    12.9346  12.9657  13.0630  13.1014  13.1338  13.1571  13.1661  13.2131
    13.2154  13.2409  13.2447  13.2860  13.3143  13.5734  13.6670  13.7462
    13.9150  13.9955  14.0428  14.0710  14.0751  14.1396  14.2932  14.3891
    14.4693  14.8756  14.9002  14.9412  14.9789  15.0092  15.0647  15.0758
    15.1147  15.2160  15.2738  15.3193  15.3374  15.4178  15.4793  15.5249
    15.5744  15.7004  15.7098  15.7492  15.7791  15.8306  15.8720  16.0369
    16.0647  16.0708  16.0983  16.1369  16.1841  16.1934  16.2054  16.2263
    16.2324  16.2497  16.2574  16.2662  16.2693  16.2819  16.3198  16.3235
    16.3472  16.3593  16.5021  16.5769  16.6010  16.6346  16.7438  16.7962
    16.8642  16.9014  17.2670  17.2916  17.2958  17.3288  17.4526  17.4702
    17.5560  17.6046  17.7177  17.7256  17.7697  17.7706  17.8702  17.8760
    17.9166  17.9208  18.1884  18.2007  18.2327  18.2621  18.2935  18.3375

          k = 0.0000-0.5000 0.0000 ( 31722 PWs)   bands (ev):

   -66.7849 -66.7637 -66.7437 -66.7396 -66.7310 -66.7267 -66.6116 -66.5823
   -66.5562 -62.4025 -62.3829 -62.3727 -62.3695 -62.3681 -62.3584 -62.3562
   -62.3441 -62.3234 -35.5369 -35.5323 -35.5262 -35.5153 -35.5096 -35.5070
   -35.5051 -35.4956 -35.4895 -35.4875 -35.4831 -35.4807 -35.4795 -35.4758
   -35.4616 -35.4555 -35.4508 -35.4435 -35.3659 -35.3560 -35.3541 -35.3482
   -35.3309 -35.3186 -35.3075 -35.2891 -35.2839 -31.2405 -31.2306 -31.2221
   -31.2154 -31.2133 -31.2131 -31.2087 -31.2058 -31.2044 -31.2030 -31.2002
   -31.1938 -31.1914 -31.1866 -31.1864 -31.1841 -31.1827 -31.1808 -31.1800
   -31.1784 -31.1728 -31.1616 -31.1599 -31.1560 -31.1494 -31.1473 -31.1432
     6.0326   6.0472   7.4041   7.4095   7.4705   7.4886   7.6696   7.6766
     8.1081   8.1129   8.1424   8.1729   8.1927   8.2042   8.2612   8.2750
     8.3842   8.3939   8.4760   8.4944   8.6175   8.6238   8.6335   8.6523
     8.6560   8.6719   8.6908   8.7101   8.7876   8.8080   8.8142   8.8217
     8.8324   8.8504   8.8752   8.8860   8.8931   8.8993   8.9096   8.9116
     8.9360   8.9421   8.9470   8.9565   9.0458   9.0505   9.1548   9.1571
     9.1905   9.2057   9.2173   9.2201   9.2279   9.2343   9.3100   9.3150
     9.3508   9.3679   9.3959   9.4172   9.4710   9.4744   9.4793   9.4812
     9.5303   9.5468   9.5623   9.5748   9.5841   9.5939   9.6052   9.6131
     9.6183   9.6281   9.6310   9.6331   9.6376   9.6394   9.6420   9.6461
     9.6468   9.6538   9.6627   9.6645   9.7051   9.7105   9.7112   9.7124
     9.7378   9.7474   9.7625   9.7644   9.8955   9.9004   9.9325   9.9562
    10.0179  10.0329  10.1627  10.1909  10.2086  10.2119  10.2502  10.2536
    10.2699  10.2707  10.2718  10.2758  10.2825  10.2848  10.3461  10.3525
    10.3773  10.3798  10.3813  10.3851  10.4241  10.4306  10.4716  10.4807
    10.4858  10.5067  10.5188  10.5202  10.5256  10.5359  10.5847  10.5899
    10.6593  10.6670  10.6876  10.6977  10.7191  10.7193  10.7399  10.7635
    10.8119  10.8248  10.8345  10.8474  10.8584  10.8624  10.8846  10.8986
    10.9471  10.9569  11.0096  11.0187  11.0706  11.0844  11.1782  11.1847
    11.2787  11.3036  11.3452  11.3468  11.3625  11.3646  11.3997  11.4147
    11.4575  11.4596  11.4696  11.4793  11.4926  11.5122  11.5222  11.5608
    11.5804  11.5894  11.5967  11.6069  11.6608  11.6701  11.6813  11.7361
    11.7509  11.7793  11.7918  11.8017  11.8336  11.8554  11.8623  11.8685
    11.8685  11.8730  11.8810  11.9068  11.9205  11.9224  11.9432  11.9504
    11.9637  11.9823  12.0142  12.0165  12.0840  12.1181  12.1528  12.1554
    12.1601  12.1957  12.2077  12.2172  12.2431  12.2484  12.2505  12.2671
    12.2706  12.2919  12.2986  12.3613  12.3744  12.3817  12.3961  12.4131
    12.4433  12.4453  12.4538  12.4597  12.4751  12.5061  12.5267  12.5504
    12.5819  12.5881  12.6127  12.6737  12.7172  12.7260  12.7465  12.7665
    12.7819  12.8498  12.9028  12.9101  12.9767  13.0291  13.1301  13.1478
    13.1620  13.1698  13.2121  13.2324  13.2573  13.3017  13.3148  13.4150
    13.4347  13.4607  13.5196  13.5678  13.6330  14.3278  14.4988  14.5537
    14.5739  14.7462  14.7715  14.8034  14.8486  14.8667  15.0236  15.0739
    15.0993  15.1006  15.1478  15.2633  15.3224  15.4056  15.4990  15.6701
    15.6838  15.7371  15.7667  15.7855  15.8488  15.8734  15.9405  15.9844
    15.9876  16.0214  16.0417  16.0457  16.0580  16.0719  16.1204  16.1449
    16.1887  16.2006  16.2213  16.2356  16.2503  16.2852  16.3326  16.3667
    16.4285  16.4546  16.7010  16.7121  16.7309  16.8285  16.9209  16.9973
    17.1439  17.2240  17.2772  17.2938  17.5517  17.5668  17.6027  17.6042
    17.7247  17.7485  17.7681  17.7847  17.8028  17.8627  17.9049  17.9269
    17.9925  18.1002  18.1152  18.1792  19.2801  19.3141  19.3465  19.3894

          k = 0.0000-0.5000-0.5734 ( 31696 PWs)   bands (ev):

   -66.7849 -66.7637 -66.7437 -66.7396 -66.7310 -66.7267 -66.6116 -66.5823
   -66.5562 -62.4025 -62.3829 -62.3727 -62.3695 -62.3681 -62.3584 -62.3562
   -62.3441 -62.3234 -35.5369 -35.5323 -35.5262 -35.5153 -35.5096 -35.5070
   -35.5051 -35.4956 -35.4895 -35.4875 -35.4831 -35.4807 -35.4795 -35.4758
   -35.4616 -35.4555 -35.4508 -35.4435 -35.3659 -35.3560 -35.3541 -35.3482
   -35.3309 -35.3186 -35.3075 -35.2891 -35.2839 -31.2405 -31.2306 -31.2221
   -31.2154 -31.2133 -31.2131 -31.2087 -31.2058 -31.2044 -31.2030 -31.2002
   -31.1938 -31.1914 -31.1866 -31.1864 -31.1841 -31.1827 -31.1808 -31.1800
   -31.1784 -31.1728 -31.1616 -31.1599 -31.1560 -31.1494 -31.1473 -31.1432
     6.5525   6.5737   6.5886   6.6019   7.8326   7.8491   7.8646   7.8742
     7.9053   7.9205   7.9218   7.9337   8.2690   8.2719   8.2972   8.2987
     8.5109   8.5153   8.5347   8.5357   8.6564   8.6667   8.6683   8.6810
     8.6918   8.6938   8.7060   8.7067   8.7171   8.7215   8.7499   8.7509
     8.7550   8.7596   8.7956   8.8155   8.9745   8.9958   9.0065   9.0186
     9.0339   9.0392   9.0516   9.0610   9.2005   9.2018   9.2109   9.2167
     9.2175   9.2184   9.2234   9.2289   9.2420   9.2501   9.2561   9.2623
     9.2690   9.2710   9.2816   9.2949   9.3004   9.3023   9.3838   9.3995
     9.4104   9.4209   9.4551   9.4579   9.4643   9.4646   9.4720   9.4849
     9.4980   9.5104   9.5107   9.5181   9.5228   9.5301   9.5391   9.5413
     9.5459   9.5619   9.7546   9.7565   9.7911   9.7928   9.8043   9.8054
     9.8300   9.8377   9.8410   9.8433   9.8637   9.8696   9.8731   9.8901
     9.9662   9.9740   9.9872   9.9984  10.0046  10.0165  10.0661  10.0706
    10.3766  10.3956  10.3991  10.4046  10.4056  10.4073  10.4238  10.4557
    10.4654  10.4656  10.4740  10.4753  10.4883  10.4884  10.4947  10.4985
    10.5088  10.5106  10.5572  10.5594  10.5778  10.6065  10.6279  10.6310
    10.6387  10.6443  10.6635  10.6697  10.6884  10.6913  10.7297  10.7336
    10.7501  10.7768  10.8548  10.8657  10.9527  10.9599  11.0800  11.0906
    11.1100  11.1226  11.1251  11.1320  11.1621  11.1816  11.1965  11.2002
    11.2105  11.2111  11.2917  11.3151  11.3526  11.3605  11.3615  11.3733
    11.3733  11.3762  11.4027  11.4089  11.4791  11.4820  11.4833  11.5054
    11.5119  11.5185  11.5802  11.5830  11.5925  11.5989  11.6163  11.6319
    11.6389  11.6465  11.7243  11.7279  11.7418  11.7951  11.7967  11.8037
    11.9139  11.9169  11.9272  11.9389  11.9453  11.9720  11.9789  12.0080
    12.0310  12.0355  12.0361  12.0383  12.0718  12.0999  12.1066  12.1071
    12.1600  12.1624  12.1739  12.1807  12.2411  12.2573  12.2835  12.2959
    12.3294  12.4022  12.4043  12.4260  12.4273  12.4434  12.4461  12.4541
    12.5034  12.5152  12.5324  12.5617  12.5820  12.6014  12.6015  12.6070
    12.6276  12.6342  12.6425  12.6444  12.6465  12.6669  12.6945  12.7231
    12.7405  12.8048  12.8166  12.8871  12.8974  12.9217  12.9285  12.9488
    13.0526  13.1942  13.4036  13.5389  13.5756  13.6083  13.7839  13.7929
    13.9031  14.0627  14.0909  14.2662  14.2689  14.3178  14.3290  14.4206
    14.4368  14.5247  14.5476  14.5566  14.5773  14.6147  14.6207  14.8971
    14.9004  15.2620  15.2893  15.3400  15.4041  15.4765  15.4815  15.5051
    15.6030  15.7175  15.7822  15.8282  15.8624  15.8747  15.9066  15.9668
    15.9761  16.0627  16.0882  16.1084  16.1229  16.1273  16.1434  16.1813
    16.1855  16.2644  16.2904  16.3136  16.3507  16.3550  16.3936  16.4039
    16.4298  16.5315  16.5531  16.5596  16.6132  16.6232  16.7329  16.7610
    16.8106  16.8227  16.9193  16.9255  16.9728  16.9833  16.9957  17.0329
    17.1067  17.1546  17.1720  17.1935  18.6029  18.6309  18.6590  18.6731
    18.7431  18.7736  18.8525  18.8728  18.8942  18.9156  18.9174  18.9425

          k =-0.5000-0.5000 0.0000 ( 31612 PWs)   bands (ev):

   -66.7849 -66.7637 -66.7437 -66.7396 -66.7310 -66.7267 -66.6116 -66.5823
   -66.5562 -62.4025 -62.3829 -62.3727 -62.3695 -62.3681 -62.3584 -62.3562
   -62.3441 -62.3234 -35.5369 -35.5323 -35.5262 -35.5153 -35.5096 -35.5070
   -35.5051 -35.4956 -35.4895 -35.4875 -35.4831 -35.4807 -35.4795 -35.4758
   -35.4616 -35.4555 -35.4508 -35.4435 -35.3659 -35.3560 -35.3541 -35.3482
   -35.3309 -35.3186 -35.3075 -35.2891 -35.2839 -31.2405 -31.2306 -31.2221
   -31.2154 -31.2133 -31.2131 -31.2087 -31.2058 -31.2044 -31.2030 -31.2002
   -31.1938 -31.1914 -31.1866 -31.1864 -31.1841 -31.1827 -31.1808 -31.1800
   -31.1784 -31.1728 -31.1616 -31.1599 -31.1560 -31.1494 -31.1473 -31.1432
     6.4070   6.4302   6.4543   6.4565   8.0030   8.0095   8.0157   8.0269
     8.0974   8.1091   8.2831   8.3174   8.3271   8.3353   8.3372   8.3431
     8.3457   8.3500   8.3536   8.3574   8.3680   8.3754   8.5865   8.6084
     8.6404   8.6613   8.6789   8.6975   8.7092   8.7156   8.7285   8.7406
     8.7727   8.7776   8.9154   8.9319   8.9536   8.9706   8.9754   8.9758
     8.9826   8.9892   9.0020   9.0044   9.0155   9.0183   9.0318   9.0475
     9.1170   9.1244   9.3018   9.3059   9.3180   9.3265   9.3965   9.4090
     9.4176   9.4231   9.4240   9.4275   9.4300   9.4420   9.4479   9.4508
     9.4616   9.4685   9.4707   9.4763   9.4803   9.4809   9.4863   9.4961
     9.4988   9.5042   9.5132   9.5309   9.5441   9.5581   9.5790   9.5896
     9.6067   9.6089   9.6980   9.6992   9.7566   9.7986   9.8179   9.8317
     9.8323   9.8339   9.8346   9.8419   9.8498   9.8575  10.0419  10.0609
    10.0796  10.0999  10.1097  10.1108  10.1385  10.1444  10.1519  10.1624
    10.1773  10.1907  10.2015  10.2122  10.2207  10.2214  10.2251  10.2274
    10.2283  10.2303  10.2382  10.2476  10.4409  10.4786  10.4919  10.4948
    10.4980  10.5060  10.5261  10.5460  10.6091  10.6244  10.6389  10.6467
    10.6590  10.6617  10.6777  10.6811  10.6831  10.6865  10.6896  10.6965
    10.7018  10.7054  10.8079  10.8114  10.8304  10.8496  10.8651  10.8804
    10.9341  10.9480  11.1975  11.2080  11.2152  11.2166  11.3075  11.3215
    11.3228  11.3368  11.3497  11.3622  11.3865  11.3947  11.5423  11.5594
    11.5711  11.5800  11.6385  11.6437  11.6445  11.6448  11.6463  11.6476
    11.6724  11.6883  11.6894  11.7153  11.7263  11.7287  11.7736  11.7747
    11.8747  11.8748  11.8771  11.8790  11.8854  11.8860  11.9714  11.9955
    12.0052  12.0067  12.0626  12.0657  12.0658  12.1048  12.1082  12.1089
    12.1128  12.1133  12.1142  12.1196  12.1448  12.1449  12.1499  12.1604
    12.1719  12.1779  12.1932  12.2044  12.2171  12.2563  12.2647  12.2660
    12.2749  12.2807  12.2865  12.2884  12.2895  12.2939  12.2948  12.3219
    12.3603  12.3692  12.4378  12.4441  12.4582  12.5030  12.5264  12.5340
    12.5384  12.5470  12.5630  12.5725  12.5797  12.6131  12.6446  12.6564
    12.6575  12.6974  12.7431  12.8071  12.8488  12.8610  12.8906  12.9246
    12.9717  12.9739  13.0133  13.0227  13.1306  13.5450  13.5960  13.6185
    13.6542  13.6812  13.7027  13.9123  13.9423  13.9500  14.1077  14.1454
    14.1610  14.2206  14.4633  14.4827  14.4994  14.5645  14.7378  15.1095
    15.1252  15.1914  15.2106  15.2685  15.3678  15.4020  15.6634  15.7612
    15.7729  15.7985  15.8089  15.8118  15.8783  15.9018  15.9202  15.9648
    15.9815  15.9896  16.0000  16.0131  16.0368  16.0467  16.0643  16.1623
    16.1843  16.2006  16.2903  16.3117  16.3186  16.3231  16.3465  16.4204
    16.4865  16.4899  16.5387  16.6597  16.6716  16.6888  16.6951  16.7272
    16.7807  16.8883  16.9579  16.9789  17.3845  17.3885  17.7983  17.9272
    18.1634  18.1911  18.2047  18.2094  18.2641  18.4159  18.5293  18.5510
    18.6121  18.6362  18.6429  18.6667  18.7348  18.7901  18.7987  18.8033

          k =-0.5000-0.5000-0.5734 ( 31672 PWs)   bands (ev):

   -66.7849 -66.7637 -66.7437 -66.7396 -66.7310 -66.7267 -66.6116 -66.5823
   -66.5562 -62.4025 -62.3829 -62.3727 -62.3695 -62.3681 -62.3584 -62.3562
   -62.3441 -62.3234 -35.5369 -35.5323 -35.5262 -35.5153 -35.5096 -35.5070
   -35.5051 -35.4956 -35.4895 -35.4875 -35.4831 -35.4807 -35.4795 -35.4758
   -35.4616 -35.4555 -35.4508 -35.4435 -35.3659 -35.3560 -35.3541 -35.3482
   -35.3309 -35.3186 -35.3075 -35.2891 -35.2839 -31.2405 -31.2306 -31.2221
   -31.2154 -31.2133 -31.2131 -31.2087 -31.2058 -31.2044 -31.2030 -31.2002
   -31.1938 -31.1914 -31.1866 -31.1864 -31.1841 -31.1827 -31.1808 -31.1800
   -31.1784 -31.1728 -31.1616 -31.1599 -31.1560 -31.1494 -31.1473 -31.1432
     6.8865   6.9153   6.9199   6.9297   6.9933   7.0043   7.0295   7.0468
     8.4503   8.4581   8.4687   8.4753   8.4825   8.4863   8.4888   8.4916
     8.5014   8.5039   8.5155   8.5218   8.5372   8.5401   8.5419   8.5609
     8.5700   8.5716   8.5945   8.6072   8.8771   8.8807   8.8849   8.8863
     8.9069   8.9120   8.9254   8.9309   9.0897   9.1087   9.1103   9.1179
     9.1237   9.1447   9.1466   9.1494   9.1509   9.1544   9.1545   9.1632
     9.1634   9.1678   9.1685   9.1695   9.1720   9.1746   9.1766   9.1816
     9.1831   9.1840   9.1901   9.1910   9.1966   9.2037   9.2061   9.2187
     9.2329   9.2340   9.2404   9.2417   9.2537   9.2586   9.2612   9.2698
     9.5433   9.5442   9.5603   9.5710   9.5771   9.5830   9.6100   9.6145
     9.6475   9.6602   9.6655   9.6780   9.7190   9.7386   9.7539   9.7778
     9.8168   9.8384   9.8447   9.8504   9.8758   9.8773   9.8846   9.8955
    10.1151  10.1261  10.1399  10.1499  10.1658  10.1713  10.1779  10.1786
    10.2911  10.3052  10.4429  10.4511  10.4669  10.4676  10.4733  10.4745
    10.4843  10.4867  10.4913  10.4958  10.4991  10.5024  10.5152  10.5176
    10.5211  10.5280  10.5375  10.5471  10.5607  10.5608  10.5790  10.5843
    10.5977  10.6185  10.6317  10.6410  10.6490  10.6702  10.6782  10.6836
    10.6904  10.6912  10.7007  10.7054  10.7169  10.7208  11.0430  11.0474
    11.0591  11.0666  11.0930  11.0945  11.1097  11.1098  11.3697  11.3699
    11.3966  11.3986  11.4016  11.4255  11.4411  11.4501  11.4660  11.4711
    11.4769  11.4911  11.5007  11.5069  11.5080  11.5160  11.6380  11.6400
    11.6446  11.6468  11.6696  11.6720  11.6861  11.6878  11.7023  11.7231
    11.7246  11.7275  11.7341  11.7437  11.7753  11.7768  11.7845  11.7876
    11.7984  11.8011  11.8124  11.8285  11.8320  11.8401  11.9900  12.0065
    12.0151  12.0501  12.0577  12.0645  12.1037  12.1230  12.1312  12.1391
    12.1647  12.1863  12.2045  12.2172  12.2430  12.2689  12.2859  12.2919
    12.2950  12.3495  12.4031  12.4218  12.4277  12.4368  12.4556  12.4584
    12.4821  12.4836  12.5396  12.5571  12.5654  12.5782  12.5875  12.5933
    12.6194  12.6507  12.6794  12.6848  12.6921  12.7045  12.7156  12.7619
    12.8101  12.8408  12.9554  12.9588  13.0730  13.0820  13.1132  13.1715
    13.2471  13.2875  13.2969  13.3143  13.4114  13.4717  13.5227  13.5419
    13.6237  13.6928  13.8430  13.8705  13.8778  13.9196  14.0747  14.1133
    14.1443  14.1672  14.2284  14.6474  14.7129  14.7490  14.8454  15.0620
    15.0633  15.1757  15.2153  15.4432  15.4446  15.5817  15.6648  15.7008
    15.7020  15.7824  15.8281  15.8330  15.8693  15.9049  15.9195  15.9385
    15.9487  15.9923  16.0688  16.0711  16.1377  16.1828  16.1865  16.2067
    16.2151  16.2194  16.2343  16.2411  16.3471  16.4203  16.4572  16.4959
    16.5169  16.5227  16.5888  16.5980  16.6433  16.6760  16.6817  16.6864
    16.7726  16.8555  16.8697  16.8903  16.8963  16.9328  16.9838  17.0186
    17.0791  17.1051  17.7316  17.8075  17.8531  17.8574  19.0119  19.0178
    19.0504  19.0511  19.0630  19.0950  19.1688  19.2353  19.3000  19.3038

          k =-0.5000 0.0000 0.0000 ( 31722 PWs)   bands (ev):

   -66.7849 -66.7637 -66.7437 -66.7396 -66.7310 -66.7267 -66.6116 -66.5823
   -66.5562 -62.4025 -62.3829 -62.3727 -62.3695 -62.3681 -62.3584 -62.3562
   -62.3441 -62.3234 -35.5369 -35.5319 -35.5267 -35.5154 -35.5095 -35.5070
   -35.5051 -35.4955 -35.4895 -35.4875 -35.4831 -35.4807 -35.4795 -35.4758
   -35.4618 -35.4555 -35.4507 -35.4435 -35.3659 -35.3560 -35.3541 -35.3482
   -35.3309 -35.3186 -35.3075 -35.2891 -35.2839 -31.2405 -31.2306 -31.2221
   -31.2154 -31.2133 -31.2131 -31.2085 -31.2057 -31.2044 -31.2013 -31.2002
   -31.1969 -31.1914 -31.1865 -31.1853 -31.1841 -31.1835 -31.1808 -31.1799
   -31.1784 -31.1723 -31.1616 -31.1599 -31.1560 -31.1494 -31.1473 -31.1432
     6.0221   6.0566   7.4105   7.4495   7.4573   7.4608   7.6607   7.6842
     8.1023   8.1059   8.1299   8.1919   8.2070   8.2305   8.2398   8.2462
     8.3924   8.4449   8.4509   8.4541   8.6258   8.6328   8.6462   8.6535
     8.6663   8.6708   8.6723   8.6973   8.7606   8.7836   8.8143   8.8352
     8.8617   8.8647   8.8775   8.8786   8.9141   8.9162   8.9167   8.9182
     8.9248   8.9274   8.9352   8.9355   9.0353   9.0602   9.1596   9.1842
     9.1909   9.1986   9.2171   9.2207   9.2260   9.2272   9.3161   9.3396
     9.3623   9.3724   9.3796   9.3831   9.4770   9.4808   9.4894   9.5228
     9.5308   9.5312   9.5340   9.5755   9.5868   9.5961   9.6020   9.6048
     9.6107   9.6209   9.6280   9.6311   9.6314   9.6342   9.6359   9.6455
     9.6521   9.6626   9.6724   9.6797   9.6967   9.7143   9.7151   9.7329
     9.7400   9.7426   9.7520   9.7571   9.8970   9.9016   9.9454   9.9692
     9.9964  10.0605  10.1447  10.1854  10.2164  10.2305  10.2474  10.2491
    10.2603  10.2647  10.2681  10.2742  10.2771  10.2798  10.3439  10.3502
    10.3549  10.3711  10.3768  10.3828  10.4292  10.4352  10.4454  10.4518
    10.5252  10.5302  10.5460  10.5554  10.5635  10.5687  10.5789  10.5896
    10.5950  10.6065  10.6635  10.6644  10.7136  10.7274  10.7552  10.7735
    10.7969  10.8092  10.8230  10.8513  10.8640  10.8771  10.8861  10.9074
    10.9841  11.0064  11.0128  11.0212  11.0421  11.0981  11.1682  11.1754
    11.3429  11.3471  11.3486  11.3569  11.3741  11.3829  11.3917  11.3953
    11.4020  11.4168  11.4490  11.4809  11.4930  11.5355  11.5411  11.5433
    11.5650  11.5900  11.6066  11.6172  11.6225  11.6298  11.6787  11.6986
    11.7486  11.7673  11.7846  11.7863  11.8014  11.8147  11.8505  11.8505
    11.9034  11.9077  11.9103  11.9238  11.9368  11.9371  11.9450  11.9599
    11.9747  11.9788  11.9844  12.0139  12.0975  12.1026  12.1607  12.1695
    12.1926  12.1976  12.2061  12.2113  12.2389  12.2477  12.2562  12.2659
    12.2803  12.3310  12.3367  12.3613  12.3628  12.3703  12.3865  12.3933
    12.3955  12.4239  12.4381  12.4481  12.4582  12.4786  12.5187  12.5439
    12.5543  12.5853  12.6137  12.6485  12.6561  12.7483  12.7668  12.9003
    12.9056  12.9436  12.9669  12.9905  13.0228  13.0645  13.0836  13.1442
    13.1512  13.1603  13.1920  13.2034  13.2279  13.2404  13.2733  13.3169
    13.4365  13.4578  13.4778  13.5810  13.6236  14.4954  14.5301  14.5638
    14.6298  14.6912  14.7223  14.7797  14.8009  14.8469  14.8675  15.0063
    15.0136  15.1360  15.2988  15.3088  15.4089  15.4106  15.4581  15.5009
    15.5775  15.7314  15.7721  15.8556  15.8799  15.8840  15.9278  15.9998
    16.0149  16.0159  16.0471  16.0966  16.1052  16.1245  16.1889  16.2014
    16.2279  16.2310  16.2317  16.2734  16.2963  16.3179  16.3354  16.3762
    16.4287  16.4429  16.5237  16.6547  16.7090  16.7852  17.0194  17.0657
    17.1436  17.1913  17.2238  17.2954  17.3529  17.4105  17.6185  17.6255
    17.6771  17.7470  17.8257  17.8296  17.8644  17.8769  17.9141  17.9201
    18.0191  18.0539  18.1228  18.2397  19.2536  19.3057  19.3207  19.3821

          k =-0.5000 0.0000 0.5734 ( 31696 PWs)   bands (ev):

   -66.7849 -66.7637 -66.7437 -66.7396 -66.7310 -66.7267 -66.6116 -66.5823
   -66.5562 -62.4025 -62.3829 -62.3727 -62.3695 -62.3681 -62.3584 -62.3562
   -62.3441 -62.3234 -35.5369 -35.5319 -35.5267 -35.5153 -35.5095 -35.5070
   -35.5051 -35.4955 -35.4895 -35.4875 -35.4831 -35.4807 -35.4795 -35.4758
   -35.4618 -35.4555 -35.4507 -35.4435 -35.3659 -35.3560 -35.3541 -35.3482
   -35.3309 -35.3186 -35.3075 -35.2891 -35.2839 -31.2405 -31.2306 -31.2221
   -31.2154 -31.2133 -31.2131 -31.2085 -31.2057 -31.2044 -31.2013 -31.2002
   -31.1969 -31.1914 -31.1865 -31.1853 -31.1841 -31.1835 -31.1808 -31.1799
   -31.1784 -31.1723 -31.1616 -31.1599 -31.1560 -31.1494 -31.1473 -31.1432
     6.5187   6.5380   6.6264   6.6414   7.8338   7.8463   7.8490   7.8624
     7.9041   7.9137   7.9307   7.9425   8.2688   8.2719   8.2992   8.3006
     8.5168   8.5221   8.5276   8.5291   8.6694   8.6723   8.6799   8.6876
     8.6890   8.6938   8.7079   8.7206   8.7303   8.7313   8.7381   8.7421
     8.7510   8.7749   8.7798   8.7815   8.9477   8.9641   9.0348   9.0415
     9.0434   9.0438   9.0519   9.0542   9.1689   9.1865   9.2105   9.2156
     9.2170   9.2232   9.2331   9.2335   9.2394   9.2408   9.2454   9.2550
     9.2569   9.2575   9.2697   9.2729   9.3221   9.3546   9.3856   9.4044
     9.4147   9.4264   9.4480   9.4541   9.4590   9.4628   9.4654   9.4754
     9.5056   9.5115   9.5146   9.5243   9.5328   9.5402   9.5483   9.5546
     9.5789   9.5941   9.7514   9.7532   9.7965   9.8079   9.8097   9.8135
     9.8212   9.8329   9.8333   9.8402   9.8563   9.8607   9.8610   9.8775
     9.9491   9.9541  10.0102  10.0114  10.0284  10.0363  10.0494  10.0547
    10.3576  10.3654  10.3681  10.3712  10.3895  10.3933  10.4343  10.4366
    10.4426  10.4554  10.4615  10.4641  10.4730  10.5030  10.5179  10.5285
    10.5477  10.5501  10.5592  10.5712  10.5888  10.6060  10.6327  10.6411
    10.6516  10.6549  10.6717  10.6753  10.6889  10.6935  10.7292  10.7328
    10.7521  10.7808  10.8305  10.8402  10.9853  10.9904  11.0061  11.0126
    11.1113  11.1276  11.1510  11.1785  11.1833  11.1855  11.1930  11.1931
    11.2109  11.2111  11.3261  11.3261  11.3335  11.3392  11.3696  11.3829
    11.3837  11.3877  11.4139  11.4451  11.4452  11.4489  11.4859  11.4979
    11.5489  11.5492  11.5628  11.5683  11.5723  11.5753  11.6032  11.6277
    11.6405  11.6431  11.7345  11.7423  11.7513  11.7704  11.7837  11.8781
    11.8851  11.9067  11.9145  11.9186  11.9688  11.9751  11.9976  12.0044
    12.0090  12.0293  12.0325  12.0347  12.0352  12.0386  12.0422  12.0605
    12.1971  12.2175  12.2516  12.2569  12.2720  12.2772  12.3087  12.3315
    12.3356  12.3476  12.3694  12.3752  12.3828  12.4104  12.4439  12.4495
    12.4652  12.4741  12.4911  12.4953  12.5273  12.5356  12.5525  12.5815
    12.5962  12.6451  12.6478  12.6554  12.6644  12.6712  12.6881  12.7423
    12.7745  12.8303  12.8531  12.9392  12.9522  12.9698  12.9763  13.1546
    13.2865  13.2988  13.3929  13.4347  13.5368  13.6751  13.7153  13.8926
    13.9629  14.0154  14.0233  14.0801  14.1154  14.1574  14.1644  14.2012
    14.3049  14.5465  14.5558  14.6530  14.6786  14.7339  14.7763  15.0352
    15.0370  15.2938  15.2964  15.4165  15.4405  15.4475  15.5111  15.5726
    15.5888  15.6149  15.6582  15.6986  15.7356  15.8658  15.8849  15.9483
    15.9765  16.0973  16.1223  16.1699  16.1802  16.2017  16.2142  16.2199
    16.2826  16.2834  16.3017  16.3427  16.3886  16.3973  16.4135  16.4302
    16.4641  16.5384  16.5454  16.5818  16.5936  16.6333  16.6672  16.7243
    16.7639  16.7736  16.8363  16.8380  16.8890  16.8904  16.9511  17.0028
    17.1393  17.1611  17.2018  17.2046  18.6735  18.6781  18.6944  18.7120
    18.7432  18.7653  18.8053  18.8067  18.8685  18.8803  18.9862  19.0046

     the Fermi energy is    14.8204 ev

!    total energy              =  -33062.59191490 Ry
     Harris-Foulkes estimate   =  -33062.59189529 Ry
     estimated scf accuracy    <       0.00000060 Ry

     total all-electron energy =  -1410574.682289 Ry

     The total energy is the sum of the following terms:

     one-electron contribution =   -1645.68677295 Ry
     hartree contribution      =    1489.90548353 Ry
     xc contribution           =   -1658.74110282 Ry
     ewald contribution        =   -4919.25534656 Ry
     one-center paw contrib.   =  -26328.81417611 Ry

     total magnetization       =    -0.48 Bohr mag/cell
     absolute magnetization    =    78.61 Bohr mag/cell

     convergence has been achieved in  21 iterations

     Writing output data file mnau2.save
 
     init_run     :     36.10s CPU     36.52s WALL (       1 calls)
     electrons    :   2203.18s CPU   2247.61s WALL (       1 calls)

     Called by init_run:
     wfcinit      :     31.42s CPU     31.66s WALL (       1 calls)
     potinit      :      2.02s CPU      2.06s WALL (       1 calls)

     Called by electrons:
     c_bands      :   1942.00s CPU   1977.71s WALL (      21 calls)
     sum_band     :    215.53s CPU    220.71s WALL (      21 calls)
     v_of_rho     :      4.58s CPU      4.72s WALL (      22 calls)
     newd         :     15.57s CPU     18.02s WALL (      22 calls)
     PAW_pot      :     26.02s CPU     26.33s WALL (      22 calls)
     mix_rho      :      0.95s CPU      1.02s WALL (      21 calls)

     Called by c_bands:
     init_us_2    :     11.31s CPU     11.34s WALL (     688 calls)
     cegterg      :   1886.86s CPU   1921.94s WALL (     336 calls)

     Called by sum_band:
     sum_band:bec :      1.43s CPU      1.43s WALL (     336 calls)
     addusdens    :     32.98s CPU     36.68s WALL (      21 calls)

     Called by *egterg:
     h_psi        :    701.77s CPU    705.87s WALL (    1321 calls)
     s_psi        :    151.34s CPU    151.36s WALL (    1321 calls)
     g_psi        :      2.73s CPU      2.74s WALL (     969 calls)
     cdiaghg      :    666.30s CPU    666.44s WALL (    1305 calls)

     Called by h_psi:
     h_psi:pot    :    691.34s CPU    695.42s WALL (    1321 calls)
     h_psi:calbec :    143.86s CPU    144.07s WALL (    1321 calls)
     vloc_psi     :    391.56s CPU    395.34s WALL (    1321 calls)
     add_vuspsi   :    155.91s CPU    156.00s WALL (    1321 calls)

     General routines
     calbec       :    204.62s CPU    204.91s WALL (    1657 calls)
     fft          :      4.09s CPU      4.37s WALL (     672 calls)
     ffts         :      0.10s CPU      0.10s WALL (      86 calls)
     fftw         :    393.34s CPU    397.27s WALL (  760316 calls)
     interpolate  :      0.72s CPU      0.77s WALL (      86 calls)
 
     Parallel routines
     fft_scatt_xy :     58.90s CPU     59.38s WALL (  761074 calls)
     fft_scatt_yz :     82.23s CPU     83.62s WALL (  761074 calls)
 
     PWSCF        : 37m24.00s CPU    38m22.47s WALL

 
   This run was terminated on:  22:19:14   7Mar2019            

=------------------------------------------------------------------------------=
   JOB DONE.
=------------------------------------------------------------------------------=
