
     Program PWSCF v.6.2 (svn rev. 14038) starts on  4Mar2019 at 17:23:15 

     This program is part of the open-source Quantum ESPRESSO suite
     for quantum simulation of materials; please cite
         "P. Giannozzi et al., J. Phys.:Condens. Matter 21 395502 (2009);
         "P. Giannozzi et al., J. Phys.:Condens. Matter 29 465901 (2017);
          URL http://www.quantum-espresso.org", 
     in publications or presentations arising from this work. More details at
     http://www.quantum-espresso.org/quote

     Parallel version (MPI), running on    16 processors

     MPI processes distributed on     1 nodes
     R & G space division:  proc/nbgrp/npool/nimage =      16
     Waiting for input...
     Reading input from standard input

     Current dimensions of program PWSCF are:
     Max number of different atomic species (ntypx) = 10
     Max number of k-points (npk) =  40000
     Max angular momentum in pseudopotentials (lmaxx) =  3
               file Mn.pbe-spn-kjpaw_psl.0.3.1.UPF: wavefunction(s)  3P 3D renormalized
               file Mn.pbe-spn-kjpaw_psl.0.3.1.UPF: wavefunction(s)  3P 3D renormalized
               file Au.pbe-dn-kjpaw_psl.0.1.UPF: wavefunction(s)  6S 6P 5D renormalized

     Subspace diagonalization in iterative solution of the eigenvalue problem:
     a serial algorithm will be used

 
     Parallelization info
     --------------------
     sticks:   dense  smooth     PW     G-vecs:    dense   smooth      PW
     Min         736     331     90                52486    15847    2256
     Max         737     332     91                52489    15850    2259
     Sum       11785    5297   1449               839803   253559   36125
 


     bravais-lattice index     =            0
     lattice parameter (alat)  =      19.2459  a.u.
     unit-cell volume          =    6216.1497 (a.u.)^3
     number of atoms/cell      =           54
     number of atomic types    =            3
     number of electrons       =       666.00
     number of Kohn-Sham states=          400
     kinetic-energy cutoff     =      45.0000  Ry
     charge density cutoff     =     400.0000  Ry
     convergence threshold     =      1.0E-06
     mixing beta               =       0.1000
     number of iterations used =            8  plain     mixing
     Exchange-correlation      = SLA PW PBX PBC ( 1  4  3  4 0 0)

     celldm(1)=  19.245946  celldm(2)=   0.000000  celldm(3)=   0.000000
     celldm(4)=   0.000000  celldm(5)=   0.000000  celldm(6)=   0.000000

     crystal axes: (cart. coord. in units of alat)
               a(1) = (   1.000000   0.000000   0.000000 )  
               a(2) = (   0.000000   1.000000   0.000000 )  
               a(3) = (   0.000000   0.000000   0.871974 )  

     reciprocal axes: (cart. coord. in units 2 pi/alat)
               b(1) = (  1.000000  0.000000  0.000000 )  
               b(2) = (  0.000000  1.000000  0.000000 )  
               b(3) = (  0.000000  0.000000  1.146823 )  


     PseudoPot. # 1 for Mn read from file:
     ./pseudo/Mn.pbe-spn-kjpaw_psl.0.3.1.UPF
     MD5 check sum: 7eef95dd2aae66803482eea66ebeebf1
     Pseudo is Projector augmented-wave + core cor, Zval = 15.0
     Generated using "atomic" code by A. Dal Corso v.5.0.99 svn rev. 10869
     Shape of augmentation charge: PSQ
     Using radial grid of 1187 points,  6 beta functions with: 
                l(1) =   0
                l(2) =   0
                l(3) =   1
                l(4) =   1
                l(5) =   2
                l(6) =   2
     Q(r) pseudized with 0 coefficients 


     PseudoPot. # 2 for Mn read from file:
     ./pseudo/Mn.pbe-spn-kjpaw_psl.0.3.1.UPF
     MD5 check sum: 7eef95dd2aae66803482eea66ebeebf1
     Pseudo is Projector augmented-wave + core cor, Zval = 15.0
     Generated using "atomic" code by A. Dal Corso v.5.0.99 svn rev. 10869
     Shape of augmentation charge: PSQ
     Using radial grid of 1187 points,  6 beta functions with: 
                l(1) =   0
                l(2) =   0
                l(3) =   1
                l(4) =   1
                l(5) =   2
                l(6) =   2
     Q(r) pseudized with 0 coefficients 


     PseudoPot. # 3 for Au read from file:
     ./pseudo/Au.pbe-dn-kjpaw_psl.0.1.UPF
     MD5 check sum: 5c9b92683623e7ae2ab3f8e525febab6
     Pseudo is Projector augmented-wave + core cor, Zval = 11.0
     Generated using "atomic" code by A. Dal Corso v.5.0.2 svn rev. 9415
     Shape of augmentation charge: PSQ
     Using radial grid of 1279 points,  6 beta functions with: 
                l(1) =   0
                l(2) =   0
                l(3) =   1
                l(4) =   1
                l(5) =   2
                l(6) =   2
     Q(r) pseudized with 0 coefficients 


     atomic species   valence    mass     pseudopotential
        Mn1           15.00    54.93800     Mn( 1.00)
        Mn2           15.00    54.93800     Mn( 1.00)
        Au            11.00   196.96600     Au( 1.00)

     Starting magnetic structure 
     atomic species   magnetization
        Mn1          0.800
        Mn2         -0.800
        Au           0.000

      2 Sym. Ops. (no inversion) found



   Cartesian axes

     site n.     atom                  positions (alat units)
         1           Mn1 tau(   1) = (   0.0000000   0.0000000   0.0000000  )
         2           Mn1 tau(   2) = (   0.0000000   0.3333300   0.0000000  )
         3           Mn1 tau(   3) = (   0.0000000   0.6666700   0.0000000  )
         4           Mn1 tau(   4) = (   0.3333300   0.0000000   0.0000000  )
         5           Mn2 tau(   5) = (   0.3333300   0.3333300   0.0000000  )
         6           Mn1 tau(   6) = (   0.3333300   0.6666700   0.0000000  )
         7           Mn2 tau(   7) = (   0.6666700   0.0000000   0.0000000  )
         8           Mn1 tau(   8) = (   0.6666700   0.3333300   0.0000000  )
         9           Mn2 tau(   9) = (   0.6666700   0.6666700   0.0000000  )
        10           Mn2 tau(  10) = (   0.1666700   0.1666700   0.4359871  )
        11           Mn2 tau(  11) = (   0.1666700   0.5000000   0.4359871  )
        12           Mn2 tau(  12) = (   0.1666700   0.8333300   0.4359871  )
        13           Mn2 tau(  13) = (   0.5000000   0.1666700   0.4359871  )
        14           Mn1 tau(  14) = (   0.5000000   0.5000000   0.4359871  )
        15           Mn2 tau(  15) = (   0.5000000   0.8333300   0.4359871  )
        16           Mn1 tau(  16) = (   0.8333300   0.1666700   0.4359871  )
        17           Mn2 tau(  17) = (   0.8333300   0.5000000   0.4359871  )
        18           Mn1 tau(  18) = (   0.8333300   0.8333300   0.4359871  )
        19           Au  tau(  19) = (   0.1666700   0.1666700   0.7327374  )
        20           Au  tau(  20) = (   0.1666700   0.5000000   0.7327374  )
        21           Au  tau(  21) = (   0.1666700   0.8333300   0.7327374  )
        22           Au  tau(  22) = (   0.5000000   0.1666700   0.7327374  )
        23           Au  tau(  23) = (   0.5000000   0.5000000   0.7327374  )
        24           Au  tau(  24) = (   0.5000000   0.8333300   0.7327374  )
        25           Au  tau(  25) = (   0.8333300   0.1666700   0.7327374  )
        26           Au  tau(  26) = (   0.8333300   0.5000000   0.7327374  )
        27           Au  tau(  27) = (   0.8333300   0.8333300   0.7327374  )
        28           Au  tau(  28) = (   0.1666700   0.1666700   0.1392369  )
        29           Au  tau(  29) = (   0.1666700   0.5000000   0.1392369  )
        30           Au  tau(  30) = (   0.1666700   0.8333300   0.1392369  )
        31           Au  tau(  31) = (   0.5000000   0.1666700   0.1392369  )
        32           Au  tau(  32) = (   0.5000000   0.5000000   0.1392369  )
        33           Au  tau(  33) = (   0.5000000   0.8333300   0.1392369  )
        34           Au  tau(  34) = (   0.8333300   0.1666700   0.1392369  )
        35           Au  tau(  35) = (   0.8333300   0.5000000   0.1392369  )
        36           Au  tau(  36) = (   0.8333300   0.8333300   0.1392369  )
        37           Au  tau(  37) = (   0.0000000   0.0000000   0.2967503  )
        38           Au  tau(  38) = (   0.0000000   0.3333300   0.2967503  )
        39           Au  tau(  39) = (   0.0000000   0.6666700   0.2967503  )
        40           Au  tau(  40) = (   0.3333300   0.0000000   0.2967503  )
        41           Au  tau(  41) = (   0.3333300   0.3333300   0.2967503  )
        42           Au  tau(  42) = (   0.3333300   0.6666700   0.2967503  )
        43           Au  tau(  43) = (   0.6666700   0.0000000   0.2967503  )
        44           Au  tau(  44) = (   0.6666700   0.3333300   0.2967503  )
        45           Au  tau(  45) = (   0.6666700   0.6666700   0.2967503  )
        46           Au  tau(  46) = (   0.0000000   0.0000000   0.5752240  )
        47           Au  tau(  47) = (   0.0000000   0.3333300   0.5752240  )
        48           Au  tau(  48) = (   0.0000000   0.6666700   0.5752240  )
        49           Au  tau(  49) = (   0.3333300   0.0000000   0.5752240  )
        50           Au  tau(  50) = (   0.3333300   0.3333300   0.5752240  )
        51           Au  tau(  51) = (   0.3333300   0.6666700   0.5752240  )
        52           Au  tau(  52) = (   0.6666700   0.0000000   0.5752240  )
        53           Au  tau(  53) = (   0.6666700   0.3333300   0.5752240  )
        54           Au  tau(  54) = (   0.6666700   0.6666700   0.5752240  )

     number of k points=     8 (tetrahedron method)
                       cart. coord. in units 2pi/alat
        k(    1) = (   0.0000000   0.0000000   0.0000000), wk =   0.1250000
        k(    2) = (   0.0000000   0.0000000  -0.5734114), wk =   0.1250000
        k(    3) = (   0.0000000  -0.5000000   0.0000000), wk =   0.1250000
        k(    4) = (   0.0000000  -0.5000000  -0.5734114), wk =   0.1250000
        k(    5) = (  -0.5000000  -0.5000000   0.0000000), wk =   0.1250000
        k(    6) = (  -0.5000000  -0.5000000  -0.5734114), wk =   0.1250000
        k(    7) = (  -0.5000000   0.0000000   0.0000000), wk =   0.1250000
        k(    8) = (  -0.5000000   0.0000000   0.5734114), wk =   0.1250000

     Dense  grid:   839803 G-vectors     FFT dimensions: ( 125, 125, 108)

     Smooth grid:   253559 G-vectors     FFT dimensions: (  90,  90,  72)

     Estimated max dynamical RAM per process >     570.13 MB

     Estimated total dynamical RAM >       8.91 GB
     Generating pointlists ...
     new r_m :   0.1129 (alat units)  2.1733 (a.u.) for type    1
     new r_m :   0.1129 (alat units)  2.1733 (a.u.) for type    2
     new r_m :   0.1129 (alat units)  2.1733 (a.u.) for type    3

     Check: negative/imaginary core charge=   -0.000006    0.000000

     Initial potential from superposition of free atoms

     starting charge  665.98709, renormalised to  666.00000
     Starting wfc are  504 randomized atomic wfcs
     Checking if some PAW data can be deallocated... 

     total cpu time spent up to now is       59.6 secs

     Self-consistent Calculation

     iteration #  1     ecut=    45.00 Ry     beta= 0.10
     Davidson diagonalization with overlap
     ethr =  1.00E-02,  avg # of iterations =  3.4

     total cpu time spent up to now is      223.8 secs

     total energy              =  -33047.21091708 Ry
     Harris-Foulkes estimate   =  -33044.06402972 Ry
     estimated scf accuracy    <      26.99058573 Ry

     total magnetization       =     0.02 Bohr mag/cell
     absolute magnetization    =    92.05 Bohr mag/cell

     iteration #  2     ecut=    45.00 Ry     beta= 0.10
     Davidson diagonalization with overlap
     ethr =  4.05E-03,  avg # of iterations =  1.0

     total cpu time spent up to now is      333.2 secs

     total energy              =  -33058.58859170 Ry
     Harris-Foulkes estimate   =  -33047.39131005 Ry
     estimated scf accuracy    <      21.35420395 Ry

     total magnetization       =     0.02 Bohr mag/cell
     absolute magnetization    =    91.66 Bohr mag/cell

     iteration #  3     ecut=    45.00 Ry     beta= 0.10
     Davidson diagonalization with overlap
     ethr =  3.21E-03,  avg # of iterations =  2.1

     total cpu time spent up to now is      467.7 secs

     total energy              =  -33066.07501571 Ry
     Harris-Foulkes estimate   =  -33061.40692913 Ry
     estimated scf accuracy    <       8.90364461 Ry

     total magnetization       =    -0.05 Bohr mag/cell
     absolute magnetization    =    85.51 Bohr mag/cell

     iteration #  4     ecut=    45.00 Ry     beta= 0.10
     Davidson diagonalization with overlap
     ethr =  1.34E-03,  avg # of iterations =  3.9

     total cpu time spent up to now is      662.1 secs

     total energy              =  -33059.05955462 Ry
     Harris-Foulkes estimate   =  -33068.50491236 Ry
     estimated scf accuracy    <      49.05020712 Ry

     total magnetization       =     0.25 Bohr mag/cell
     absolute magnetization    =    72.66 Bohr mag/cell

     iteration #  5     ecut=    45.00 Ry     beta= 0.10
     Davidson diagonalization with overlap
     ethr =  1.34E-03,  avg # of iterations =  4.8

     total cpu time spent up to now is      894.0 secs

     total energy              =  -33061.99611757 Ry
     Harris-Foulkes estimate   =  -33062.58408655 Ry
     estimated scf accuracy    <       3.58221053 Ry

     total magnetization       =    -0.01 Bohr mag/cell
     absolute magnetization    =    83.37 Bohr mag/cell

     iteration #  6     ecut=    45.00 Ry     beta= 0.10
     Davidson diagonalization with overlap
     ethr =  5.38E-04,  avg # of iterations =  3.4

     total cpu time spent up to now is     1050.0 secs

     total energy              =  -33062.55200358 Ry
     Harris-Foulkes estimate   =  -33062.56776524 Ry
     estimated scf accuracy    <       0.25362499 Ry

     total magnetization       =     0.09 Bohr mag/cell
     absolute magnetization    =    79.30 Bohr mag/cell

     iteration #  7     ecut=    45.00 Ry     beta= 0.10
     Davidson diagonalization with overlap
     ethr =  3.81E-05,  avg # of iterations =  4.7

     total cpu time spent up to now is     1240.6 secs

     total energy              =  -33062.59422674 Ry
     Harris-Foulkes estimate   =  -33062.58951018 Ry
     estimated scf accuracy    <       0.06526372 Ry

     total magnetization       =     0.15 Bohr mag/cell
     absolute magnetization    =    78.80 Bohr mag/cell

     iteration #  8     ecut=    45.00 Ry     beta= 0.10
     Davidson diagonalization with overlap
     ethr =  9.80E-06,  avg # of iterations =  4.9

     total cpu time spent up to now is     1520.1 secs

     total energy              =  -33062.59467442 Ry
     Harris-Foulkes estimate   =  -33062.63516168 Ry
     estimated scf accuracy    <       0.42720877 Ry

     total magnetization       =     0.13 Bohr mag/cell
     absolute magnetization    =    78.16 Bohr mag/cell

     iteration #  9     ecut=    45.00 Ry     beta= 0.10
     Davidson diagonalization with overlap
     ethr =  9.80E-06,  avg # of iterations =  2.1

     total cpu time spent up to now is     1650.1 secs

     total energy              =  -33062.58416288 Ry
     Harris-Foulkes estimate   =  -33062.60360111 Ry
     estimated scf accuracy    <       0.15102236 Ry

     total magnetization       =     0.16 Bohr mag/cell
     absolute magnetization    =    78.24 Bohr mag/cell

     iteration # 10     ecut=    45.00 Ry     beta= 0.10
     Davidson diagonalization with overlap
     ethr =  9.80E-06,  avg # of iterations =  3.0

     total cpu time spent up to now is     1792.4 secs

     total energy              =  -33062.58916121 Ry
     Harris-Foulkes estimate   =  -33062.59390650 Ry
     estimated scf accuracy    <       0.02519993 Ry

     total magnetization       =     0.16 Bohr mag/cell
     absolute magnetization    =    78.61 Bohr mag/cell

     iteration # 11     ecut=    45.00 Ry     beta= 0.10
     Davidson diagonalization with overlap
     ethr =  3.78E-06,  avg # of iterations =  4.2

     total cpu time spent up to now is     1957.6 secs

     total energy              =  -33062.59251810 Ry
     Harris-Foulkes estimate   =  -33062.59316272 Ry
     estimated scf accuracy    <       0.00412535 Ry

     total magnetization       =     0.18 Bohr mag/cell
     absolute magnetization    =    78.73 Bohr mag/cell

     iteration # 12     ecut=    45.00 Ry     beta= 0.10
     Davidson diagonalization with overlap
     ethr =  6.19E-07,  avg # of iterations =  2.9

     total cpu time spent up to now is     2106.7 secs

     total energy              =  -33062.59413295 Ry
     Harris-Foulkes estimate   =  -33062.59347354 Ry
     estimated scf accuracy    <       0.00554453 Ry

     total magnetization       =     0.19 Bohr mag/cell
     absolute magnetization    =    78.68 Bohr mag/cell

     iteration # 13     ecut=    45.00 Ry     beta= 0.10
     Davidson diagonalization with overlap
     ethr =  6.19E-07,  avg # of iterations =  2.0

     total cpu time spent up to now is     2237.5 secs

     total energy              =  -33062.59489044 Ry
     Harris-Foulkes estimate   =  -33062.59456043 Ry
     estimated scf accuracy    <       0.00034316 Ry

     total magnetization       =     0.20 Bohr mag/cell
     absolute magnetization    =    78.53 Bohr mag/cell

     iteration # 14     ecut=    45.00 Ry     beta= 0.10
     Davidson diagonalization with overlap
     ethr =  5.15E-08,  avg # of iterations =  3.2

     total cpu time spent up to now is     2398.2 secs

     total energy              =  -33062.59497222 Ry
     Harris-Foulkes estimate   =  -33062.59486342 Ry
     estimated scf accuracy    <       0.00015745 Ry

     total magnetization       =     0.20 Bohr mag/cell
     absolute magnetization    =    78.47 Bohr mag/cell

     iteration # 15     ecut=    45.00 Ry     beta= 0.10
     Davidson diagonalization with overlap
     ethr =  2.36E-08,  avg # of iterations =  1.1

     total cpu time spent up to now is     2507.8 secs

     total energy              =  -33062.59512879 Ry
     Harris-Foulkes estimate   =  -33062.59496105 Ry
     estimated scf accuracy    <       0.00011414 Ry

     total magnetization       =     0.21 Bohr mag/cell
     absolute magnetization    =    78.46 Bohr mag/cell

     iteration # 16     ecut=    45.00 Ry     beta= 0.10
     Davidson diagonalization with overlap
     ethr =  1.71E-08,  avg # of iterations =  2.0

     total cpu time spent up to now is     2631.9 secs

     total energy              =  -33062.59523321 Ry
     Harris-Foulkes estimate   =  -33062.59511851 Ry
     estimated scf accuracy    <       0.00005568 Ry

     total magnetization       =     0.21 Bohr mag/cell
     absolute magnetization    =    78.44 Bohr mag/cell

     iteration # 17     ecut=    45.00 Ry     beta= 0.10
     Davidson diagonalization with overlap
     ethr =  8.36E-09,  avg # of iterations =  3.0

     total cpu time spent up to now is     2793.5 secs

     total energy              =  -33062.59524989 Ry
     Harris-Foulkes estimate   =  -33062.59520934 Ry
     estimated scf accuracy    <       0.00001777 Ry

     total magnetization       =     0.21 Bohr mag/cell
     absolute magnetization    =    78.42 Bohr mag/cell

     iteration # 18     ecut=    45.00 Ry     beta= 0.10
     Davidson diagonalization with overlap
     ethr =  2.67E-09,  avg # of iterations =  3.0

     total cpu time spent up to now is     2962.8 secs

     total energy              =  -33062.59522831 Ry
     Harris-Foulkes estimate   =  -33062.59521534 Ry
     estimated scf accuracy    <       0.00000540 Ry

     total magnetization       =     0.22 Bohr mag/cell
     absolute magnetization    =    78.40 Bohr mag/cell

     iteration # 19     ecut=    45.00 Ry     beta= 0.10
     Davidson diagonalization with overlap
     ethr =  8.11E-10,  avg # of iterations =  2.5

     total cpu time spent up to now is     3100.7 secs

     total energy              =  -33062.59521858 Ry
     Harris-Foulkes estimate   =  -33062.59521152 Ry
     estimated scf accuracy    <       0.00000256 Ry

     total magnetization       =     0.22 Bohr mag/cell
     absolute magnetization    =    78.39 Bohr mag/cell

     iteration # 20     ecut=    45.00 Ry     beta= 0.10
     Davidson diagonalization with overlap
     ethr =  3.84E-10,  avg # of iterations =  2.4

     total cpu time spent up to now is     3234.5 secs

     total energy              =  -33062.59521474 Ry
     Harris-Foulkes estimate   =  -33062.59520934 Ry
     estimated scf accuracy    <       0.00000149 Ry

     total magnetization       =     0.22 Bohr mag/cell
     absolute magnetization    =    78.39 Bohr mag/cell

     iteration # 21     ecut=    45.00 Ry     beta= 0.10
     Davidson diagonalization with overlap
     ethr =  2.23E-10,  avg # of iterations =  2.2
 
     Magnetic moment per site:
     atom:    1    charge:   13.5739    magn:    4.0197    constr:    0.0000
     atom:    2    charge:   13.5793    magn:    3.9632    constr:    0.0000
     atom:    3    charge:   13.5810    magn:    3.9664    constr:    0.0000
     atom:    4    charge:   13.5756    magn:    4.0087    constr:    0.0000
     atom:    5    charge:   13.5823    magn:   -3.9894    constr:    0.0000
     atom:    6    charge:   13.5715    magn:    4.0464    constr:    0.0000
     atom:    7    charge:   13.5764    magn:   -4.0137    constr:    0.0000
     atom:    8    charge:   13.5804    magn:    3.9771    constr:    0.0000
     atom:    9    charge:   13.5756    magn:   -4.0205    constr:    0.0000
     atom:   10    charge:   13.5709    magn:   -4.0357    constr:    0.0000
     atom:   11    charge:   13.5742    magn:   -4.0019    constr:    0.0000
     atom:   12    charge:   13.5783    magn:   -3.9913    constr:    0.0000
     atom:   13    charge:   13.5820    magn:   -3.9614    constr:    0.0000
     atom:   14    charge:   13.5727    magn:    4.0842    constr:    0.0000
     atom:   15    charge:   13.5813    magn:   -3.9668    constr:    0.0000
     atom:   16    charge:   13.5772    magn:    4.0167    constr:    0.0000
     atom:   17    charge:   13.5798    magn:   -3.9847    constr:    0.0000
     atom:   18    charge:   13.5815    magn:    3.9833    constr:    0.0000
     atom:   19    charge:    9.1212    magn:    0.0147    constr:    0.0000
     atom:   20    charge:    9.1211    magn:    0.0150    constr:    0.0000
     atom:   21    charge:    9.1221    magn:    0.0532    constr:    0.0000
     atom:   22    charge:    9.1205    magn:   -0.0096    constr:    0.0000
     atom:   23    charge:    9.1209    magn:    0.0094    constr:    0.0000
     atom:   24    charge:    9.1210    magn:   -0.0058    constr:    0.0000
     atom:   25    charge:    9.1203    magn:    0.0433    constr:    0.0000
     atom:   26    charge:    9.1201    magn:    0.0211    constr:    0.0000
     atom:   27    charge:    9.1205    magn:    0.0123    constr:    0.0000
     atom:   28    charge:    9.1212    magn:    0.0147    constr:    0.0000
     atom:   29    charge:    9.1211    magn:    0.0150    constr:    0.0000
     atom:   30    charge:    9.1221    magn:    0.0532    constr:    0.0000
     atom:   31    charge:    9.1205    magn:   -0.0096    constr:    0.0000
     atom:   32    charge:    9.1209    magn:    0.0094    constr:    0.0000
     atom:   33    charge:    9.1210    magn:   -0.0058    constr:    0.0000
     atom:   34    charge:    9.1203    magn:    0.0433    constr:    0.0000
     atom:   35    charge:    9.1201    magn:    0.0211    constr:    0.0000
     atom:   36    charge:    9.1205    magn:    0.0123    constr:    0.0000
     atom:   37    charge:    9.1216    magn:    0.0142    constr:    0.0000
     atom:   38    charge:    9.1208    magn:   -0.0174    constr:    0.0000
     atom:   39    charge:    9.1216    magn:   -0.0147    constr:    0.0000
     atom:   40    charge:    9.1206    magn:   -0.0519    constr:    0.0000
     atom:   41    charge:    9.1196    magn:   -0.0322    constr:    0.0000
     atom:   42    charge:    9.1212    magn:   -0.0155    constr:    0.0000
     atom:   43    charge:    9.1209    magn:   -0.0088    constr:    0.0000
     atom:   44    charge:    9.1198    magn:    0.0093    constr:    0.0000
     atom:   45    charge:    9.1217    magn:   -0.0096    constr:    0.0000
     atom:   46    charge:    9.1216    magn:    0.0142    constr:    0.0000
     atom:   47    charge:    9.1208    magn:   -0.0174    constr:    0.0000
     atom:   48    charge:    9.1216    magn:   -0.0147    constr:    0.0000
     atom:   49    charge:    9.1206    magn:   -0.0519    constr:    0.0000
     atom:   50    charge:    9.1196    magn:   -0.0322    constr:    0.0000
     atom:   51    charge:    9.1212    magn:   -0.0155    constr:    0.0000
     atom:   52    charge:    9.1209    magn:   -0.0088    constr:    0.0000
     atom:   53    charge:    9.1198    magn:    0.0093    constr:    0.0000
     atom:   54    charge:    9.1217    magn:   -0.0096    constr:    0.0000

     total cpu time spent up to now is     3376.4 secs

     End of self-consistent calculation

 ------ SPIN UP ------------


          k = 0.0000 0.0000 0.0000 ( 31747 PWs)   bands (ev):

   -66.7441 -66.7330 -66.6987 -66.6880 -66.6510 -66.6453 -66.6268 -66.6141
   -66.6110 -62.4228 -62.3981 -62.3659 -62.3603 -62.3525 -62.3415 -62.3304
   -62.3250 -62.2923 -35.5173 -35.4858 -35.4846 -35.4794 -35.4767 -35.4669
   -35.4588 -35.4545 -35.4447 -35.4323 -35.4277 -35.4274 -35.4061 -35.4023
   -35.3990 -35.3954 -35.3888 -35.3791 -35.3750 -35.3660 -35.3652 -35.3604
   -35.3592 -35.3588 -35.3562 -35.3410 -35.3206 -31.2615 -31.2499 -31.2461
   -31.2318 -31.2236 -31.2154 -31.2008 -31.1958 -31.1923 -31.1913 -31.1893
   -31.1842 -31.1822 -31.1783 -31.1770 -31.1682 -31.1681 -31.1647 -31.1598
   -31.1589 -31.1437 -31.1425 -31.1419 -31.1386 -31.1325 -31.1148 -31.1001
     5.6132   7.1407   7.1555   7.1944   7.2144   7.3626   7.8569   7.8857
     7.9035   7.9476   8.0737   8.1087   8.1428   8.1693   8.1776   8.2480
     8.2709   8.2796   8.3020   8.5215   8.5443   8.5658   8.5717   8.5891
     8.6112   8.8558   8.8599   8.8723   8.8771   8.8793   8.8919   8.8940
     8.8940   8.8992   8.9128   8.9258   8.9317   8.9479   8.9591   8.9700
     8.9860   9.0825   9.1184   9.1250   9.1271   9.1333   9.1552   9.1617
     9.1798   9.1958   9.2104   9.2666   9.2855   9.2946   9.3028   9.3477
     9.3495   9.3614   9.3708   9.3777   9.3873   9.4003   9.4182   9.4295
     9.4372   9.4398   9.4463   9.4541   9.4599   9.4707   9.4811   9.5774
     9.5809   9.5874   9.5920   9.5974   9.6393   9.6453   9.6673   9.6688
     9.6707   9.6748   9.6770   9.7452   9.7508   9.7749   9.7850   9.8481
     9.8492   9.9138   9.9276   9.9303   9.9490   9.9495  10.0026  10.0278
    10.0788  10.1154  10.1441  10.1887  10.2825  10.2869  10.2925  10.2952
    10.3000  10.3103  10.3108  10.3151  10.3218  10.3248  10.3376  10.3393
    10.3426  10.3552  10.3557  10.3616  10.3622  10.3641  10.3808  10.3830
    10.3971  10.5097  10.5142  10.5405  10.5796  10.6137  10.6417  10.6953
    10.7053  10.7811  10.7866  10.7888  10.8054  10.8109  10.8305  10.8377
    10.8557  10.8610  10.8689  10.8733  10.8748  10.8767  10.8948  10.9022
    10.9092  10.9097  11.0190  11.0513  11.0549  11.0905  11.1512  11.2145
    11.2172  11.2184  11.2290  11.2316  11.2681  11.3318  11.3453  11.3495
    11.3855  11.3872  11.3939  11.3998  11.4053  11.4186  11.4266  11.4287
    11.4500  11.4796  11.5301  11.5893  11.5902  11.5932  11.5954  11.5981
    11.6000  11.6489  11.6977  11.7230  11.7330  11.7411  11.7496  11.7537
    11.8249  11.8329  11.8379  11.8696  11.8735  11.9264  11.9355  11.9476
    11.9536  12.0030  12.0577  12.0975  12.1001  12.1022  12.1050  12.1428
    12.1436  12.1441  12.1454  12.1475  12.1618  12.1714  12.1837  12.2310
    12.2529  12.2699  12.3159  12.3256  12.3416  12.3480  12.3527  12.3977
    12.4247  12.4336  12.4483  12.4668  12.4898  12.5146  12.5241  12.5292
    12.5410  12.5628  12.5790  12.5930  12.5970  12.6439  12.6814  12.7031
    12.7220  12.7332  12.7408  12.8415  12.9183  12.9813  13.0404  13.0854
    13.1138  13.1261  13.1530  13.1554  13.4373  13.5992  13.6910  13.7779
    13.8402  14.1236  14.1816  14.1972  14.2326  14.3709  14.3974  14.4285
    14.7569  14.8763  14.9253  14.9974  15.0176  15.1030  15.1897  15.2569
    15.2589  15.2945  15.3856  15.4242  15.4549  15.4727  15.4741  15.5699
    15.5734  15.6335  15.6555  15.8522  15.8574  15.8624  15.9230  16.0294
    16.0447  16.0517  16.1201  16.1435  16.1453  16.1739  16.1779  16.1791
    16.2272  16.2424  16.2801  16.3123  16.3356  16.3567  16.3722  16.4011
    16.4601  16.4974  16.5739  16.6024  16.6635  16.6811  16.8427  16.8572
    16.9222  17.0305  17.1255  17.1897  17.1968  17.2561  17.2854  17.3543
    17.4291  17.5324  17.8266  17.8964  17.9354  17.9513  17.9642  18.0347
    18.1249  18.3251  18.4457  18.9827  18.9970  19.0663  19.1108  19.1668

          k = 0.0000 0.0000-0.5734 ( 31692 PWs)   bands (ev):

   -66.7441 -66.7330 -66.6987 -66.6880 -66.6510 -66.6453 -66.6268 -66.6141
   -66.6110 -62.4228 -62.3981 -62.3659 -62.3603 -62.3525 -62.3415 -62.3304
   -62.3250 -62.2923 -35.5173 -35.4858 -35.4846 -35.4794 -35.4767 -35.4669
   -35.4588 -35.4545 -35.4447 -35.4323 -35.4277 -35.4274 -35.4061 -35.4023
   -35.3990 -35.3954 -35.3888 -35.3791 -35.3750 -35.3660 -35.3652 -35.3604
   -35.3592 -35.3588 -35.3562 -35.3410 -35.3206 -31.2615 -31.2499 -31.2461
   -31.2318 -31.2236 -31.2154 -31.2008 -31.1958 -31.1923 -31.1913 -31.1893
   -31.1842 -31.1822 -31.1783 -31.1770 -31.1682 -31.1681 -31.1647 -31.1598
   -31.1589 -31.1437 -31.1425 -31.1419 -31.1386 -31.1325 -31.1148 -31.1001
     6.1529   6.2137   7.5190   7.5464   7.5472   7.5655   7.5994   7.6128
     7.6136   7.6404   8.2990   8.3106   8.3396   8.3418   8.3427   8.3636
     8.3916   8.4017   8.4576   8.4631   8.4651   8.4812   8.4832   8.4883
     8.5208   8.5231   8.6883   8.7136   8.7429   8.7989   8.9336   8.9444
     8.9695   8.9732   8.9758   8.9834   8.9962   8.9998   9.0118   9.0250
     9.0320   9.0405   9.0426   9.0505   9.0697   9.0962   9.1945   9.2152
     9.2189   9.2370   9.2432   9.2628   9.2660   9.2664   9.2746   9.2772
     9.2829   9.2887   9.2900   9.2974   9.3005   9.3104   9.4107   9.4161
     9.4222   9.4289   9.4294   9.4400   9.4444   9.4552   9.4594   9.4735
     9.4831   9.4880   9.5095   9.5123   9.5199   9.5476   9.6111   9.6955
     9.7690   9.7825   9.7930   9.8005   9.8200   9.8274   9.8305   9.8422
     9.8721   9.8767   9.8786   9.8810   9.8822   9.8870   9.8895   9.8914
    10.0536  10.0555  10.0629  10.0644  10.1376  10.1444  10.1469  10.1608
    10.1677  10.1782  10.1824  10.1953  10.2025  10.2193  10.3533  10.3680
    10.3714  10.3808  10.3921  10.4103  10.4191  10.4260  10.4568  10.5300
    10.5844  10.5987  10.6061  10.6064  10.6161  10.6174  10.6271  10.6541
    10.6771  10.6882  10.7240  10.7443  10.7835  10.7849  10.8486  10.8660
    10.9153  10.9444  10.9614  10.9926  11.0039  11.0278  11.0471  11.0555
    11.0889  11.0900  11.1041  11.1429  11.1640  11.1871  11.1927  11.2212
    11.2272  11.2426  11.2492  11.2576  11.2606  11.2629  11.2685  11.2690
    11.2726  11.2735  11.2828  11.2841  11.2862  11.2878  11.3015  11.3110
    11.3172  11.3222  11.3239  11.3278  11.5102  11.5743  11.7080  11.7091
    11.7149  11.7154  11.7164  11.7197  11.7217  11.7333  11.7392  11.7433
    11.7570  11.7655  11.7763  11.7906  11.8105  11.8168  11.8449  11.9264
    11.9761  11.9772  11.9978  12.0215  12.0277  12.0401  12.0652  12.0974
    12.1405  12.1674  12.2112  12.2376  12.2495  12.2511  12.2808  12.3970
    12.4241  12.4313  12.4485  12.4543  12.4592  12.4825  12.4837  12.4877
    12.5058  12.5112  12.5226  12.5482  12.5499  12.5844  12.5888  12.6483
    12.6575  12.6625  12.7052  12.7551  12.7908  12.8107  12.8374  12.8712
    12.9293  12.9611  13.0035  13.0413  13.1619  13.1781  13.1880  13.1946
    13.2592  13.2831  13.3143  13.4662  13.4929  13.5330  13.7001  13.7409
    13.7757  13.9126  14.0252  14.0677  14.1283  14.1637  14.3598  14.4941
    14.7108  14.7860  14.8920  14.9351  14.9880  14.9994  15.0803  15.1315
    15.1315  15.1547  15.1886  15.2088  15.2708  15.4021  15.4345  15.4729
    15.5562  15.7003  15.7628  15.8076  15.8790  15.9713  15.9816  15.9990
    16.0110  16.0752  16.1303  16.1421  16.1441  16.1693  16.1885  16.2045
    16.2128  16.2274  16.2319  16.2412  16.2704  16.2897  16.3134  16.3302
    16.3495  16.4928  16.5104  16.5833  16.6418  16.6738  16.7537  16.7562
    16.7975  16.9020  17.3076  17.3807  17.3843  17.4368  17.4868  17.5493
    17.5570  17.5735  17.6694  17.6994  17.7375  17.7920  17.8352  17.8592
    17.8768  17.9052  18.0747  18.1345  18.2462  18.2643  18.2712  18.3126

          k = 0.0000-0.5000 0.0000 ( 31722 PWs)   bands (ev):

   -66.7441 -66.7330 -66.6987 -66.6880 -66.6510 -66.6453 -66.6268 -66.6141
   -66.6110 -62.4228 -62.3981 -62.3659 -62.3603 -62.3525 -62.3415 -62.3304
   -62.3250 -62.2923 -35.5173 -35.4858 -35.4847 -35.4794 -35.4767 -35.4669
   -35.4588 -35.4545 -35.4447 -35.4323 -35.4277 -35.4274 -35.4061 -35.4023
   -35.3990 -35.3954 -35.3888 -35.3791 -35.3750 -35.3660 -35.3652 -35.3604
   -35.3592 -35.3588 -35.3562 -35.3410 -35.3206 -31.2617 -31.2501 -31.2458
   -31.2318 -31.2235 -31.2154 -31.2009 -31.1958 -31.1923 -31.1913 -31.1893
   -31.1842 -31.1822 -31.1783 -31.1770 -31.1682 -31.1681 -31.1647 -31.1598
   -31.1589 -31.1437 -31.1425 -31.1419 -31.1386 -31.1325 -31.1148 -31.1001
     6.0354   6.0463   7.4013   7.4287   7.4670   7.4872   7.6698   7.6787
     8.1045   8.1165   8.1324   8.1613   8.1821   8.2317   8.2646   8.2801
     8.3902   8.4206   8.4597   8.4791   8.6089   8.6231   8.6446   8.6581
     8.6740   8.6747   8.6819   8.6976   8.7654   8.8062   8.8261   8.8323
     8.8338   8.8591   8.8739   8.8881   8.8999   8.9065   8.9122   8.9245
     8.9247   8.9291   8.9388   8.9538   9.0439   9.0509   9.1532   9.1650
     9.1857   9.2000   9.2136   9.2197   9.2380   9.2490   9.3142   9.3198
     9.3298   9.3875   9.3946   9.4118   9.4689   9.4713   9.4903   9.5055
     9.5459   9.5490   9.5533   9.5578   9.5746   9.5953   9.6043   9.6141
     9.6143   9.6247   9.6319   9.6348   9.6352   9.6390   9.6452   9.6499
     9.6596   9.6738   9.6776   9.6843   9.6928   9.7000   9.7137   9.7313
     9.7394   9.7605   9.7617   9.7776   9.8933   9.8984   9.9075   9.9754
    10.0173  10.0246  10.1689  10.1761  10.2055  10.2135  10.2422  10.2472
    10.2612  10.2721  10.2785  10.2802  10.2806  10.2849  10.3360  10.3549
    10.3731  10.3776  10.3836  10.3921  10.4241  10.4401  10.4659  10.4819
    10.4821  10.4925  10.5120  10.5479  10.5584  10.5692  10.5764  10.5899
    10.6172  10.6474  10.6755  10.6985  10.7131  10.7170  10.7369  10.7633
    10.8066  10.8234  10.8371  10.8416  10.8553  10.8663  10.9098  10.9453
    10.9485  10.9942  11.0195  11.0290  11.0394  11.0826  11.1666  11.1846
    11.2971  11.3221  11.3422  11.3478  11.3594  11.3672  11.3782  11.4040
    11.4123  11.4458  11.4695  11.4896  11.4926  11.5287  11.5653  11.5815
    11.5877  11.6034  11.6150  11.6155  11.6441  11.6742  11.6761  11.7481
    11.7723  11.7888  11.8025  11.8186  11.8319  11.8397  11.8580  11.8590
    11.8622  11.8694  11.8719  11.9029  11.9284  11.9487  11.9610  11.9635
    11.9749  11.9799  11.9827  12.0128  12.0228  12.1229  12.1462  12.1591
    12.1769  12.2126  12.2248  12.2297  12.2385  12.2457  12.2725  12.2863
    12.2866  12.2975  12.2986  12.3227  12.3890  12.4015  12.4056  12.4194
    12.4551  12.4668  12.4845  12.5116  12.5138  12.5386  12.5456  12.5535
    12.5840  12.5859  12.6018  12.6325  12.6402  12.6978  12.7162  12.7962
    12.8481  12.8791  13.0047  13.0253  13.0536  13.0557  13.0938  13.1107
    13.1543  13.1957  13.2257  13.2376  13.2893  13.2976  13.3376  13.3867
    13.4469  13.5013  13.5046  13.6808  13.7122  14.2900  14.4186  14.5978
    14.6760  14.7499  14.7798  14.7852  14.8368  14.8964  14.9516  14.9690
    15.0095  15.1010  15.1402  15.3117  15.3437  15.3811  15.5431  15.6122
    15.6643  15.7092  15.7920  15.8487  15.8678  15.9256  15.9433  15.9786
    16.0439  16.0453  16.0683  16.1005  16.1212  16.1213  16.1489  16.1694
    16.1976  16.2035  16.2275  16.2525  16.2680  16.2807  16.3631  16.3844
    16.4597  16.4758  16.5731  16.6518  16.6890  16.7725  16.9918  17.0785
    17.1471  17.1944  17.2535  17.3768  17.4383  17.4912  17.6210  17.6324
    17.7018  17.7469  17.7924  17.8161  17.8318  17.8927  17.9196  17.9428
    18.0370  18.0455  18.1257  18.2456  19.2552  19.2924  19.3080  19.3711

          k = 0.0000-0.5000-0.5734 ( 31696 PWs)   bands (ev):

   -66.7441 -66.7330 -66.6987 -66.6880 -66.6510 -66.6453 -66.6268 -66.6141
   -66.6110 -62.4228 -62.3981 -62.3659 -62.3603 -62.3525 -62.3415 -62.3304
   -62.3250 -62.2923 -35.5173 -35.4858 -35.4847 -35.4794 -35.4767 -35.4669
   -35.4588 -35.4545 -35.4447 -35.4323 -35.4277 -35.4274 -35.4061 -35.4023
   -35.3990 -35.3954 -35.3888 -35.3791 -35.3750 -35.3660 -35.3652 -35.3604
   -35.3592 -35.3588 -35.3562 -35.3410 -35.3206 -31.2617 -31.2501 -31.2458
   -31.2318 -31.2235 -31.2154 -31.2009 -31.1958 -31.1923 -31.1913 -31.1893
   -31.1842 -31.1822 -31.1783 -31.1770 -31.1682 -31.1681 -31.1647 -31.1598
   -31.1589 -31.1437 -31.1425 -31.1419 -31.1386 -31.1325 -31.1148 -31.1001
     6.5429   6.5623   6.6073   6.6130   7.8247   7.8501   7.8754   7.8858
     7.8910   7.8962   7.9374   7.9469   8.2644   8.2777   8.2966   8.3043
     8.5039   8.5207   8.5356   8.5378   8.6514   8.6546   8.6601   8.6857
     8.6909   8.6991   8.7034   8.7137   8.7175   8.7294   8.7337   8.7541
     8.7645   8.7820   8.7921   8.8150   8.9646   8.9858   9.0218   9.0260
     9.0378   9.0379   9.0470   9.0731   9.1984   9.2075   9.2100   9.2138
     9.2176   9.2188   9.2195   9.2262   9.2362   9.2468   9.2645   9.2660
     9.2723   9.2750   9.2857   9.2871   9.3127   9.3162   9.3787   9.3995
     9.4211   9.4227   9.4274   9.4564   9.4575   9.4649   9.4767   9.4776
     9.4841   9.4886   9.5094   9.5194   9.5326   9.5338   9.5461   9.5622
     9.5720   9.6047   9.7519   9.7594   9.7786   9.7865   9.8133   9.8193
     9.8307   9.8340   9.8449   9.8529   9.8574   9.8581   9.8659   9.8869
     9.9622   9.9749   9.9781   9.9998  10.0260  10.0411  10.0559  10.0587
    10.3622  10.3867  10.4003  10.4006  10.4064  10.4108  10.4256  10.4555
    10.4585  10.4667  10.4770  10.4792  10.4884  10.4900  10.5012  10.5140
    10.5308  10.5341  10.5677  10.5720  10.5878  10.5931  10.6072  10.6172
    10.6211  10.6237  10.6698  10.6698  10.6736  10.6977  10.7107  10.7288
    10.7601  10.8302  10.8836  10.9119  10.9728  10.9963  11.0391  11.0771
    11.1160  11.1308  11.1359  11.1534  11.1682  11.1684  11.1959  11.2085
    11.2097  11.2142  11.2875  11.3194  11.3291  11.3584  11.3626  11.3627
    11.3695  11.3702  11.3769  11.4166  11.4346  11.4834  11.4961  11.5154
    11.5241  11.5457  11.5644  11.5752  11.5860  11.5907  11.6000  11.6235
    11.6371  11.6408  11.7042  11.7168  11.7465  11.7619  11.7943  11.8536
    11.9084  11.9149  11.9310  11.9421  11.9535  11.9663  11.9981  12.0059
    12.0117  12.0317  12.0366  12.0384  12.0431  12.0787  12.1140  12.1148
    12.1354  12.1539  12.1756  12.2223  12.2344  12.2548  12.2923  12.3225
    12.3282  12.4049  12.4241  12.4273  12.4411  12.4621  12.4748  12.4918
    12.4990  12.5244  12.5337  12.5496  12.5543  12.5679  12.5773  12.5835
    12.5980  12.5999  12.6352  12.6544  12.7106  12.7416  12.7644  12.8246
    12.8248  12.8701  12.9229  12.9233  13.0180  13.0261  13.0534  13.0669
    13.0927  13.2464  13.3983  13.5324  13.6211  13.6534  13.7234  13.8037
    13.8567  13.8847  14.0001  14.0731  14.1732  14.2070  14.2264  14.3865
    14.4863  14.5207  14.5241  14.5666  14.5669  14.6739  14.7327  15.0375
    15.0763  15.1810  15.3218  15.3300  15.3461  15.3897  15.4619  15.5696
    15.6978  15.7620  15.8314  15.8599  15.8601  15.9309  15.9309  16.0276
    16.0397  16.1057  16.1264  16.1267  16.1550  16.1911  16.2219  16.2489
    16.2586  16.2800  16.2938  16.3073  16.3097  16.3527  16.3982  16.4001
    16.5080  16.5425  16.5475  16.5830  16.6071  16.6319  16.6871  16.7247
    16.7541  16.7633  16.8042  16.8669  16.8807  16.9162  16.9448  17.0679
    17.1010  17.1134  17.1453  17.2811  18.5772  18.6715  18.7401  18.7436
    18.7746  18.8058  18.8465  18.8502  18.8737  18.9499  18.9500  18.9804

          k =-0.5000-0.5000 0.0000 ( 31612 PWs)   bands (ev):

   -66.7441 -66.7330 -66.6987 -66.6880 -66.6510 -66.6453 -66.6268 -66.6141
   -66.6110 -62.4228 -62.3981 -62.3659 -62.3603 -62.3525 -62.3415 -62.3304
   -62.3250 -62.2923 -35.5173 -35.4858 -35.4847 -35.4794 -35.4767 -35.4669
   -35.4588 -35.4545 -35.4447 -35.4323 -35.4277 -35.4274 -35.4061 -35.4023
   -35.3990 -35.3954 -35.3888 -35.3791 -35.3750 -35.3660 -35.3652 -35.3604
   -35.3592 -35.3588 -35.3562 -35.3410 -35.3206 -31.2617 -31.2501 -31.2458
   -31.2318 -31.2235 -31.2154 -31.2009 -31.1958 -31.1923 -31.1913 -31.1893
   -31.1842 -31.1822 -31.1783 -31.1770 -31.1682 -31.1681 -31.1647 -31.1598
   -31.1589 -31.1437 -31.1425 -31.1419 -31.1386 -31.1325 -31.1148 -31.1001
     6.3917   6.4326   6.4494   6.4814   8.0033   8.0097   8.0183   8.0290
     8.0859   8.1210   8.2773   8.3171   8.3239   8.3301   8.3350   8.3399
     8.3440   8.3477   8.3552   8.3725   8.3773   8.4006   8.5745   8.6109
     8.6352   8.6375   8.6956   8.6991   8.7080   8.7106   8.7312   8.7424
     8.7681   8.7980   8.9140   8.9412   8.9509   8.9697   8.9740   8.9754
     8.9805   8.9829   8.9981   9.0101   9.0180   9.0200   9.0339   9.0440
     9.1086   9.1343   9.3056   9.3087   9.3145   9.3231   9.3984   9.4054
     9.4102   9.4109   9.4140   9.4274   9.4341   9.4366   9.4383   9.4525
     9.4549   9.4612   9.4703   9.4767   9.4840   9.4966   9.5034   9.5098
     9.5258   9.5325   9.5396   9.5443   9.5445   9.5773   9.5784   9.5866
     9.6054   9.6069   9.6948   9.6969   9.7603   9.8059   9.8097   9.8254
     9.8293   9.8320   9.8367   9.8368   9.8558   9.8782  10.0058  10.0642
    10.0709  10.0980  10.1104  10.1309  10.1478  10.1517  10.1579  10.1692
    10.1734  10.1876  10.1981  10.2095  10.2199  10.2209  10.2301  10.2338
    10.2338  10.2355  10.2404  10.2511  10.4382  10.4698  10.4725  10.4798
    10.4940  10.4969  10.5044  10.5466  10.5654  10.6148  10.6527  10.6554
    10.6584  10.6662  10.6721  10.6940  10.6944  10.6967  10.7038  10.7106
    10.7404  10.7824  10.7939  10.8104  10.8246  10.8466  10.8576  10.8706
    10.9048  10.9166  11.1943  11.2054  11.2162  11.2228  11.2958  11.3258
    11.3297  11.3474  11.3558  11.3678  11.3747  11.3935  11.5508  11.5618
    11.6083  11.6274  11.6353  11.6385  11.6421  11.6443  11.6497  11.6520
    11.6632  11.6776  11.6819  11.7148  11.7229  11.7344  11.7438  11.8643
    11.8681  11.8744  11.8773  11.8809  11.8811  11.8882  11.9738  12.0044
    12.0129  12.0232  12.0552  12.0827  12.0958  12.0998  12.1056  12.1074
    12.1090  12.1130  12.1226  12.1330  12.1368  12.1529  12.1546  12.1571
    12.1693  12.1759  12.2042  12.2092  12.2177  12.2312  12.2365  12.2367
    12.2688  12.2714  12.2803  12.2850  12.2961  12.3066  12.3091  12.3320
    12.3371  12.3809  12.3858  12.4307  12.4651  12.4706  12.5004  12.5140
    12.5325  12.5622  12.5854  12.6123  12.6473  12.6626  12.6744  12.7167
    12.7284  12.7335  12.8125  12.8428  12.8764  12.9223  12.9528  12.9606
    12.9717  12.9736  12.9845  13.0465  13.1264  13.6032  13.6647  13.6706
    13.6754  13.6961  13.8543  13.8782  13.9116  13.9280  14.1689  14.1712
    14.2368  14.3200  14.3399  14.3849  14.4525  14.4891  14.7632  14.8693
    15.0617  15.1608  15.1660  15.2286  15.3559  15.3935  15.6734  15.7252
    15.7754  15.7818  15.8025  15.8470  15.8786  15.9373  15.9414  15.9715
    15.9892  16.0228  16.0764  16.1138  16.1460  16.1673  16.1701  16.1789
    16.1981  16.2433  16.2708  16.3188  16.3374  16.3661  16.4265  16.4887
    16.5282  16.5289  16.5729  16.6080  16.6768  16.6770  16.7319  16.7390
    16.7936  16.8548  16.8908  16.9325  17.3821  17.3910  17.5866  17.9876
    18.1401  18.1549  18.2016  18.2116  18.2432  18.4412  18.5021  18.5475
    18.5849  18.6253  18.6516  18.6679  18.7101  18.7803  18.8010  18.8061

          k =-0.5000-0.5000-0.5734 ( 31672 PWs)   bands (ev):

   -66.7441 -66.7330 -66.6987 -66.6880 -66.6510 -66.6453 -66.6268 -66.6141
   -66.6110 -62.4228 -62.3981 -62.3659 -62.3603 -62.3525 -62.3415 -62.3304
   -62.3250 -62.2923 -35.5173 -35.4858 -35.4847 -35.4794 -35.4767 -35.4669
   -35.4588 -35.4545 -35.4447 -35.4323 -35.4277 -35.4274 -35.4061 -35.4023
   -35.3990 -35.3954 -35.3888 -35.3791 -35.3750 -35.3660 -35.3652 -35.3604
   -35.3592 -35.3588 -35.3562 -35.3410 -35.3206 -31.2617 -31.2501 -31.2458
   -31.2318 -31.2235 -31.2154 -31.2009 -31.1958 -31.1923 -31.1913 -31.1893
   -31.1842 -31.1822 -31.1783 -31.1770 -31.1682 -31.1681 -31.1647 -31.1598
   -31.1589 -31.1437 -31.1425 -31.1419 -31.1386 -31.1325 -31.1148 -31.1001
     6.8690   6.9142   6.9409   6.9692   6.9797   6.9934   7.0242   7.0469
     8.4411   8.4647   8.4661   8.4792   8.4851   8.4875   8.4906   8.4947
     8.4957   8.4984   8.5087   8.5307   8.5350   8.5350   8.5512   8.5571
     8.5633   8.5852   8.5946   8.6183   8.8690   8.8712   8.8771   8.8995
     8.9146   8.9264   8.9301   8.9461   9.0751   9.0996   9.1127   9.1199
     9.1329   9.1434   9.1436   9.1456   9.1475   9.1508   9.1555   9.1586
     9.1613   9.1624   9.1636   9.1711   9.1712   9.1750   9.1766   9.1831
     9.1833   9.1846   9.1860   9.1910   9.1958   9.2062   9.2101   9.2215
     9.2266   9.2341   9.2399   9.2469   9.2529   9.2706   9.2766   9.2859
     9.5358   9.5455   9.5517   9.5669   9.5862   9.6041   9.6109   9.6296
     9.6445   9.6602   9.6951   9.7021   9.7109   9.7170   9.7571   9.7815
     9.8036   9.8294   9.8479   9.8632   9.8640   9.8767   9.8866   9.8981
    10.1095  10.1387  10.1443  10.1453  10.1650  10.1713  10.1745  10.1994
    10.2777  10.3191  10.4340  10.4440  10.4575  10.4622  10.4780  10.4816
    10.4830  10.4967  10.4997  10.5014  10.5082  10.5104  10.5112  10.5186
    10.5230  10.5275  10.5296  10.5314  10.5614  10.5667  10.5919  10.5988
    10.6102  10.6314  10.6394  10.6447  10.6480  10.6488  10.6532  10.6621
    10.6686  10.6836  10.6936  10.7022  10.7520  10.7529  11.0221  11.0450
    11.0457  11.0632  11.0965  11.1075  11.1436  11.1479  11.3722  11.3760
    11.3840  11.4077  11.4247  11.4358  11.4369  11.4416  11.4537  11.4633
    11.4799  11.4916  11.5052  11.5079  11.5297  11.5453  11.5842  11.6231
    11.6256  11.6393  11.6418  11.6442  11.6526  11.6783  11.7046  11.7184
    11.7197  11.7311  11.7378  11.7637  11.7707  11.7825  11.7883  11.7885
    11.7984  11.8005  11.8209  11.8251  11.8376  11.9667  11.9948  12.0200
    12.0217  12.0608  12.0804  12.0937  12.1130  12.1210  12.1401  12.1665
    12.1825  12.1920  12.2162  12.2290  12.2376  12.2631  12.2640  12.3406
    12.3443  12.3617  12.3823  12.3973  12.4239  12.4305  12.4417  12.4474
    12.4645  12.4933  12.4959  12.5184  12.5253  12.5453  12.5849  12.5863
    12.6339  12.6558  12.7023  12.7077  12.7400  12.7676  12.8041  12.8090
    12.9113  12.9633  12.9907  13.0202  13.0967  13.1451  13.1797  13.1868
    13.2020  13.2779  13.2788  13.3302  13.4390  13.4754  13.4768  13.5455
    13.5528  13.6123  13.6584  13.8130  13.9393  13.9827  14.0237  14.1963
    14.2495  14.3226  14.4893  14.5186  14.7516  14.7601  14.9544  14.9768
    15.0188  15.0660  15.1518  15.1923  15.4183  15.5852  15.6251  15.6791
    15.7246  15.7926  15.8069  15.8294  15.8793  15.8975  15.9109  15.9523
    16.0525  16.0803  16.0958  16.1647  16.1929  16.2293  16.2404  16.2425
    16.2588  16.2639  16.2736  16.3235  16.3729  16.4706  16.4724  16.4867
    16.5451  16.5504  16.5569  16.5932  16.6358  16.6633  16.7139  16.7361
    16.7656  16.7870  16.8482  16.8653  16.8797  16.9130  16.9781  17.0012
    17.0312  17.1287  17.5519  17.7462  17.9052  17.9423  19.0024  19.0162
    19.0425  19.0699  19.0980  19.1027  19.1827  19.1921  19.2299  19.3244

          k =-0.5000 0.0000 0.0000 ( 31722 PWs)   bands (ev):

   -66.7441 -66.7330 -66.6987 -66.6880 -66.6510 -66.6453 -66.6268 -66.6141
   -66.6110 -62.4228 -62.3981 -62.3659 -62.3603 -62.3525 -62.3415 -62.3304
   -62.3250 -62.2923 -35.5173 -35.4858 -35.4847 -35.4794 -35.4767 -35.4669
   -35.4588 -35.4545 -35.4447 -35.4323 -35.4277 -35.4274 -35.4061 -35.4023
   -35.3990 -35.3954 -35.3888 -35.3791 -35.3750 -35.3660 -35.3652 -35.3604
   -35.3592 -35.3588 -35.3562 -35.3410 -35.3206 -31.2615 -31.2499 -31.2461
   -31.2318 -31.2236 -31.2154 -31.2008 -31.1958 -31.1923 -31.1913 -31.1893
   -31.1842 -31.1822 -31.1783 -31.1770 -31.1682 -31.1681 -31.1647 -31.1598
   -31.1589 -31.1437 -31.1425 -31.1419 -31.1386 -31.1325 -31.1148 -31.1001
     6.0203   6.0616   7.4079   7.4295   7.4604   7.4864   7.6675   7.6804
     8.0940   8.1136   8.1341   8.1610   8.2084   8.2391   8.2429   8.2797
     8.4034   8.4160   8.4508   8.4737   8.6096   8.6327   8.6433   8.6473
     8.6718   8.6772   8.6947   8.6955   8.7508   8.8113   8.8213   8.8417
     8.8482   8.8528   8.8719   8.8933   8.8989   8.9050   8.9097   8.9139
     8.9223   8.9327   8.9366   8.9572   9.0415   9.0520   9.1559   9.1722
     9.1814   9.1909   9.2167   9.2256   9.2364   9.2528   9.3146   9.3333
     9.3404   9.3516   9.4037   9.4128   9.4671   9.4868   9.4897   9.5043
     9.5358   9.5383   9.5586   9.5662   9.5755   9.5940   9.6029   9.6236
     9.6244   9.6272   9.6275   9.6323   9.6340   9.6362   9.6382   9.6473
     9.6571   9.6690   9.6751   9.6911   9.6919   9.7038   9.7112   9.7316
     9.7379   9.7571   9.7632   9.7814   9.8887   9.9043   9.9128   9.9800
    10.0173  10.0287  10.1466  10.1897  10.2037  10.2248  10.2458  10.2493
    10.2541  10.2622  10.2669  10.2724  10.2864  10.2919  10.3313  10.3519
    10.3709  10.3745  10.3858  10.3883  10.4203  10.4376  10.4582  10.4806
    10.5066  10.5200  10.5229  10.5301  10.5569  10.5710  10.5719  10.5918
    10.6144  10.6430  10.6773  10.6837  10.6900  10.7320  10.7390  10.7522
    10.8038  10.8261  10.8326  10.8496  10.8522  10.8633  10.9156  10.9509
    10.9829  11.0105  11.0162  11.0173  11.0301  11.0774  11.1629  11.1846
    11.2994  11.3442  11.3488  11.3552  11.3769  11.3831  11.3846  11.4006
    11.4184  11.4327  11.4515  11.4625  11.4874  11.5340  11.5506  11.5524
    11.5610  11.5920  11.6250  11.6301  11.6416  11.6740  11.6859  11.7481
    11.7619  11.7800  11.7879  11.7907  11.8154  11.8296  11.8539  11.8676
    11.8715  11.9014  11.9095  11.9175  11.9409  11.9532  11.9610  11.9683
    11.9694  11.9808  11.9878  11.9902  12.0402  12.1044  12.1368  12.1656
    12.1841  12.2016  12.2182  12.2365  12.2418  12.2471  12.2603  12.2831
    12.2999  12.3052  12.3203  12.3366  12.3546  12.3893  12.4134  12.4215
    12.4348  12.4619  12.4954  12.4958  12.4990  12.5247  12.5427  12.5636
    12.5662  12.5809  12.6076  12.6235  12.6539  12.7129  12.7196  12.7988
    12.8760  12.8882  13.0529  13.0732  13.0827  13.1025  13.1054  13.1139
    13.1492  13.1699  13.1793  13.2261  13.2820  13.3141  13.3200  13.3794
    13.4109  13.4654  13.4865  13.6584  13.7216  14.4671  14.5139  14.5802
    14.5834  14.7241  14.7332  14.7495  14.8072  14.8112  14.8910  15.0001
    15.0114  15.1142  15.2155  15.3003  15.3733  15.4392  15.5181  15.5384
    15.6563  15.7469  15.7702  15.8062  15.8181  15.8689  15.9684  16.0199
    16.0332  16.0939  16.1051  16.1463  16.1468  16.1582  16.1694  16.1725
    16.1945  16.2336  16.2413  16.2501  16.2908  16.3193  16.3512  16.3672
    16.4592  16.4893  16.5335  16.6125  16.6972  16.7470  17.0345  17.0701
    17.1604  17.1715  17.2478  17.3390  17.3919  17.4467  17.6317  17.6373
    17.6881  17.7397  17.7819  17.8134  17.8392  17.8850  17.9200  17.9721
    17.9728  18.0885  18.1866  18.2401  19.2263  19.2855  19.3432  19.3501

          k =-0.5000 0.0000 0.5734 ( 31696 PWs)   bands (ev):

   -66.7441 -66.7330 -66.6987 -66.6880 -66.6510 -66.6453 -66.6268 -66.6141
   -66.6110 -62.4228 -62.3981 -62.3659 -62.3603 -62.3525 -62.3415 -62.3304
   -62.3250 -62.2923 -35.5173 -35.4858 -35.4847 -35.4794 -35.4767 -35.4669
   -35.4588 -35.4545 -35.4447 -35.4323 -35.4277 -35.4274 -35.4061 -35.4023
   -35.3990 -35.3954 -35.3888 -35.3791 -35.3750 -35.3660 -35.3652 -35.3604
   -35.3592 -35.3588 -35.3562 -35.3410 -35.3206 -31.2615 -31.2499 -31.2461
   -31.2318 -31.2236 -31.2154 -31.2008 -31.1958 -31.1923 -31.1913 -31.1893
   -31.1842 -31.1822 -31.1783 -31.1770 -31.1682 -31.1681 -31.1647 -31.1598
   -31.1589 -31.1437 -31.1425 -31.1419 -31.1386 -31.1325 -31.1148 -31.1001
     6.5147   6.5832   6.5927   6.6384   7.8241   7.8374   7.8695   7.8867
     7.8917   7.9096   7.9269   7.9534   8.2630   8.2789   8.2984   8.3031
     8.5149   8.5241   8.5270   8.5306   8.6521   8.6610   8.6764   8.6828
     8.6898   8.6924   8.7027   8.7086   8.7243   8.7339   8.7461   8.7484
     8.7632   8.7801   8.7878   8.8014   8.9411   9.0094   9.0126   9.0246
     9.0394   9.0522   9.0561   9.0611   9.1792   9.2079   9.2093   9.2204
     9.2205   9.2277   9.2287   9.2404   9.2464   9.2474   9.2558   9.2559
     9.2599   9.2687   9.2738   9.2817   9.2854   9.3457   9.3784   9.4008
     9.4222   9.4254   9.4311   9.4527   9.4550   9.4642   9.4740   9.4803
     9.4860   9.4875   9.5129   9.5308   9.5327   9.5359   9.5552   9.5660
     9.5764   9.6127   9.7514   9.7581   9.7812   9.7982   9.8157   9.8176
     9.8247   9.8307   9.8457   9.8472   9.8516   9.8609   9.8720   9.8809
     9.9363   9.9545  10.0011  10.0172  10.0322  10.0414  10.0492  10.0589
    10.3625  10.3757  10.3921  10.4011  10.4061  10.4163  10.4214  10.4262
    10.4440  10.4702  10.4719  10.4756  10.4855  10.4881  10.5137  10.5141
    10.5295  10.5616  10.5723  10.5779  10.5813  10.5892  10.5906  10.6087
    10.6355  10.6445  10.6699  10.6753  10.6812  10.6979  10.7119  10.7309
    10.7610  10.8328  10.8837  10.9064  10.9870  11.0036  11.0286  11.0338
    11.1189  11.1325  11.1440  11.1451  11.1835  11.1924  11.1950  11.2044
    11.2092  11.2131  11.2768  11.2996  11.3363  11.3428  11.3635  11.3700
    11.3742  11.3773  11.3975  11.4298  11.4478  11.4500  11.4743  11.5340
    11.5524  11.5583  11.5692  11.5695  11.5762  11.5838  11.5916  11.6201
    11.6280  11.6318  11.7278  11.7343  11.7596  11.7633  11.7678  11.8532
    11.8997  11.9079  11.9371  11.9455  11.9544  11.9570  11.9907  12.0049
    12.0093  12.0189  12.0255  12.0352  12.0371  12.0524  12.0601  12.1231
    12.1598  12.1630  12.2200  12.2483  12.2551  12.2740  12.2796  12.3313
    12.3457  12.3640  12.4045  12.4079  12.4357  12.4357  12.4672  12.4712
    12.4716  12.4893  12.5080  12.5247  12.5350  12.5655  12.5721  12.5798
    12.6159  12.6366  12.6563  12.6605  12.6636  12.7558  12.7853  12.8096
    12.9048  12.9386  12.9466  12.9560  13.0417  13.0480  13.0709  13.1038
    13.1894  13.2186  13.3955  13.4244  13.4888  13.6825  13.7096  13.8007
    13.9331  13.9558  13.9904  14.0673  14.0676  14.1267  14.2583  14.3966
    14.4150  14.5331  14.5445  14.5694  14.5706  14.6280  14.8189  15.0431
    15.1475  15.1975  15.2654  15.3251  15.3702  15.4219  15.5331  15.5493
    15.6388  15.6619  15.7073  15.7779  15.9206  15.9727  15.9840  16.0449
    16.0715  16.1083  16.1307  16.1674  16.1698  16.2210  16.2316  16.2464
    16.2595  16.3046  16.3172  16.3276  16.3762  16.4198  16.4342  16.4422
    16.4643  16.5009  16.5532  16.5782  16.5975  16.6021  16.6744  16.7110
    16.7256  16.7388  16.7743  16.8134  16.8706  16.9131  16.9463  17.0668
    17.0749  17.0926  17.1051  17.2898  18.6410  18.6891  18.7270  18.7711
    18.8106  18.8170  18.8418  18.8648  18.8929  18.9012  18.9022  18.9660

 ------ SPIN DOWN ----------


          k = 0.0000 0.0000 0.0000 ( 31747 PWs)   bands (ev):

   -66.7714 -66.7109 -66.6825 -66.6686 -66.6675 -66.6283 -66.6030 -66.5926
   -66.5810 -62.4020 -62.3902 -62.3851 -62.3736 -62.3518 -62.3357 -62.3323
   -62.3251 -62.3033 -35.5311 -35.5192 -35.4910 -35.4763 -35.4642 -35.4601
   -35.4316 -35.4283 -35.4214 -35.4210 -35.4200 -35.4161 -35.4076 -35.3978
   -35.3901 -35.3888 -35.3832 -35.3631 -35.3577 -35.3542 -35.3456 -35.3421
   -35.3359 -35.3284 -35.3183 -35.3112 -35.3055 -31.2418 -31.2389 -31.2342
   -31.2263 -31.2206 -31.2193 -31.2151 -31.2063 -31.1983 -31.1932 -31.1885
   -31.1878 -31.1871 -31.1790 -31.1772 -31.1764 -31.1626 -31.1594 -31.1578
   -31.1573 -31.1506 -31.1500 -31.1465 -31.1371 -31.1312 -31.1271 -31.1198
     5.6165   7.1423   7.1635   7.1944   7.2171   7.3652   7.8552   7.8850
     7.9105   7.9547   8.0798   8.1093   8.1457   8.1592   8.1913   8.2493
     8.2754   8.2799   8.3075   8.5258   8.5444   8.5684   8.5725   8.5783
     8.6245   8.8555   8.8604   8.8741   8.8797   8.8871   8.8978   8.8982
     8.9040   8.9094   8.9161   8.9196   8.9309   8.9478   8.9541   8.9696
     8.9880   9.0840   9.1201   9.1244   9.1276   9.1336   9.1575   9.1628
     9.1859   9.1958   9.2139   9.2693   9.2816   9.3018   9.3073   9.3468
     9.3503   9.3623   9.3731   9.3800   9.3821   9.3962   9.4200   9.4276
     9.4411   9.4447   9.4489   9.4631   9.4642   9.4674   9.4903   9.5783
     9.5822   9.5875   9.5932   9.5960   9.6426   9.6457   9.6676   9.6704
     9.6729   9.6770   9.6858   9.7481   9.7593   9.7748   9.7835   9.8500
     9.8505   9.9111   9.9246   9.9339   9.9502   9.9532  10.0002  10.0295
    10.0853  10.1278  10.1532  10.1815  10.2854  10.2920  10.2950  10.2966
    10.3052  10.3102  10.3106  10.3143  10.3246  10.3263  10.3389  10.3423
    10.3489  10.3507  10.3592  10.3605  10.3618  10.3634  10.3831  10.3841
    10.3929  10.5114  10.5119  10.5580  10.5882  10.6084  10.6386  10.6890
    10.7057  10.7839  10.7868  10.7902  10.8066  10.8125  10.8257  10.8486
    10.8523  10.8677  10.8734  10.8756  10.8761  10.8806  10.8976  10.9054
    10.9083  10.9092  11.0207  11.0552  11.0578  11.0928  11.2037  11.2156
    11.2213  11.2263  11.2306  11.2598  11.2727  11.2921  11.3351  11.3417
    11.3545  11.3813  11.3905  11.3918  11.4033  11.4078  11.4259  11.4280
    11.4966  11.5065  11.5693  11.5874  11.5905  11.5937  11.5960  11.5981
    11.6218  11.6282  11.6676  11.7241  11.7327  11.7430  11.7515  11.7956
    11.8214  11.8348  11.8416  11.8672  11.8705  11.9181  11.9340  11.9481
    11.9637  11.9888  12.0974  12.0980  12.1012  12.1033  12.1060  12.1063
    12.1409  12.1441  12.1462  12.1476  12.1503  12.1690  12.2000  12.2349
    12.2572  12.2964  12.3335  12.3592  12.3717  12.3731  12.3948  12.3978
    12.4340  12.4357  12.4631  12.4932  12.5025  12.5042  12.5114  12.5415
    12.5518  12.5620  12.5753  12.5895  12.6145  12.6258  12.6578  12.6991
    12.7158  12.7311  12.7650  12.8009  12.9651  13.0168  13.0406  13.1169
    13.1326  13.1459  13.1593  13.1648  13.4090  13.6350  13.7318  13.7944
    13.8391  14.0661  14.1237  14.2152  14.2251  14.3783  14.3825  14.4945
    14.7740  14.8894  14.9084  15.0384  15.1002  15.1411  15.1754  15.2150
    15.2632  15.2704  15.3225  15.3508  15.3819  15.4932  15.5017  15.5533
    15.5805  15.6947  15.7536  15.8306  15.8475  15.8790  15.9830  16.0176
    16.0569  16.0889  16.1220  16.1378  16.1465  16.1624  16.1653  16.1903
    16.1909  16.2218  16.2372  16.2771  16.3276  16.3541  16.3953  16.4253
    16.4493  16.4745  16.5389  16.5881  16.6598  16.6606  16.8546  16.8700
    16.9540  17.0328  17.1653  17.1763  17.2028  17.2534  17.3169  17.3720
    17.3984  17.4925  17.8424  17.8973  17.9384  17.9467  17.9685  18.0433
    18.1282  18.3429  18.4514  18.9579  18.9964  19.0614  19.1201  19.2017

          k = 0.0000 0.0000-0.5734 ( 31692 PWs)   bands (ev):

   -66.7714 -66.7109 -66.6825 -66.6686 -66.6675 -66.6283 -66.6030 -66.5926
   -66.5810 -62.4020 -62.3902 -62.3851 -62.3736 -62.3518 -62.3357 -62.3323
   -62.3251 -62.3033 -35.5311 -35.5192 -35.4910 -35.4763 -35.4642 -35.4601
   -35.4316 -35.4283 -35.4214 -35.4210 -35.4200 -35.4161 -35.4076 -35.3978
   -35.3901 -35.3888 -35.3832 -35.3631 -35.3577 -35.3542 -35.3456 -35.3421
   -35.3359 -35.3284 -35.3183 -35.3112 -35.3055 -31.2418 -31.2389 -31.2342
   -31.2263 -31.2206 -31.2193 -31.2151 -31.2063 -31.1983 -31.1932 -31.1885
   -31.1878 -31.1871 -31.1790 -31.1772 -31.1764 -31.1626 -31.1594 -31.1578
   -31.1573 -31.1506 -31.1500 -31.1465 -31.1371 -31.1312 -31.1271 -31.1198
     6.1584   6.2143   7.5252   7.5462   7.5545   7.5686   7.6015   7.6167
     7.6217   7.6332   8.3056   8.3112   8.3307   8.3523   8.3528   8.3675
     8.3842   8.4099   8.4578   8.4596   8.4776   8.4841   8.4866   8.4960
     8.5123   8.5216   8.6913   8.7154   8.7470   8.7999   8.9421   8.9481
     8.9722   8.9758   8.9780   8.9835   8.9964   9.0009   9.0167   9.0243
     9.0384   9.0392   9.0465   9.0502   9.0730   9.0934   9.1962   9.2185
     9.2223   9.2326   9.2511   9.2627   9.2646   9.2710   9.2782   9.2816
     9.2837   9.2862   9.2897   9.2986   9.3037   9.3082   9.4087   9.4109
     9.4293   9.4359   9.4424   9.4428   9.4484   9.4585   9.4639   9.4688
     9.4834   9.4902   9.5066   9.5112   9.5193   9.5470   9.6170   9.6960
     9.7703   9.7817   9.7981   9.8020   9.8229   9.8305   9.8307   9.8451
     9.8744   9.8756   9.8788   9.8792   9.8876   9.8881   9.8910   9.8950
    10.0570  10.0587  10.0622  10.0637  10.1382  10.1481  10.1519  10.1630
    10.1660  10.1742  10.1872  10.1964  10.2110  10.2159  10.3557  10.3681
    10.3704  10.3878  10.4040  10.4072  10.4150  10.4313  10.4588  10.5293
    10.5800  10.5810  10.6127  10.6140  10.6189  10.6355  10.6374  10.6793
    10.6846  10.6887  10.7354  10.7511  10.7670  10.7678  10.8313  10.8702
    10.9186  10.9462  10.9857  11.0100  11.0236  11.0264  11.0428  11.0587
    11.0820  11.0912  11.1352  11.1358  11.1418  11.1602  11.2090  11.2215
    11.2262  11.2436  11.2503  11.2541  11.2609  11.2667  11.2685  11.2712
    11.2754  11.2803  11.2816  11.2827  11.2906  11.2935  11.3061  11.3142
    11.3197  11.3199  11.3213  11.3253  11.5187  11.5864  11.7093  11.7127
    11.7148  11.7155  11.7218  11.7232  11.7279  11.7325  11.7370  11.7445
    11.7564  11.7644  11.7777  11.7955  11.8108  11.8300  11.8438  11.9266
    11.9690  11.9765  12.0010  12.0029  12.0146  12.0738  12.0741  12.1187
    12.1656  12.1678  12.2253  12.2281  12.2470  12.2473  12.3026  12.3791
    12.4158  12.4431  12.4454  12.4592  12.4755  12.4802  12.4950  12.5096
    12.5184  12.5302  12.5478  12.5501  12.5676  12.5885  12.6234  12.6378
    12.6594  12.6853  12.7250  12.7579  12.7799  12.8265  12.8650  12.8748
    12.9210  12.9478  12.9983  13.0405  13.1669  13.1762  13.2163  13.2188
    13.2509  13.2598  13.3563  13.4175  13.5124  13.5416  13.7475  13.7779
    13.7803  13.9144  14.0466  14.0659  14.1280  14.1370  14.2932  14.4730
    14.7273  14.8867  14.9112  14.9339  14.9671  15.0143  15.0573  15.0861
    15.1326  15.1559  15.2150  15.2988  15.3433  15.3635  15.4525  15.4773
    15.5025  15.6751  15.7000  15.7686  15.8034  15.9265  16.0527  16.0659
    16.0741  16.0780  16.1095  16.1252  16.1518  16.1651  16.1952  16.2108
    16.2223  16.2356  16.2492  16.2551  16.2695  16.2805  16.2949  16.2985
    16.3533  16.4949  16.5089  16.6172  16.6290  16.6606  16.7253  16.7484
    16.8333  16.8875  17.2850  17.3851  17.3969  17.4070  17.4825  17.5286
    17.5691  17.6146  17.6477  17.7160  17.7603  17.7778  17.8062  17.8851
    17.8979  17.8986  18.1084  18.1151  18.2393  18.2726  18.2913  18.3044

          k = 0.0000-0.5000 0.0000 ( 31722 PWs)   bands (ev):

   -66.7714 -66.7109 -66.6825 -66.6686 -66.6675 -66.6283 -66.6030 -66.5926
   -66.5810 -62.4020 -62.3902 -62.3851 -62.3736 -62.3518 -62.3357 -62.3323
   -62.3251 -62.3033 -35.5311 -35.5192 -35.4910 -35.4762 -35.4642 -35.4601
   -35.4316 -35.4283 -35.4214 -35.4210 -35.4199 -35.4162 -35.4076 -35.3978
   -35.3901 -35.3888 -35.3832 -35.3631 -35.3577 -35.3542 -35.3456 -35.3421
   -35.3359 -35.3284 -35.3183 -35.3112 -35.3055 -31.2418 -31.2389 -31.2343
   -31.2263 -31.2206 -31.2192 -31.2151 -31.2063 -31.1980 -31.1935 -31.1885
   -31.1878 -31.1871 -31.1791 -31.1772 -31.1764 -31.1626 -31.1594 -31.1578
   -31.1573 -31.1506 -31.1500 -31.1465 -31.1371 -31.1312 -31.1271 -31.1198
     6.0395   6.0489   7.4041   7.4329   7.4698   7.4870   7.6728   7.6811
     8.1067   8.1188   8.1412   8.1660   8.1857   8.2426   8.2624   8.2734
     8.3906   8.4196   8.4666   8.4823   8.6108   8.6265   8.6443   8.6625
     8.6756   8.6774   8.6869   8.7015   8.7661   8.8140   8.8235   8.8328
     8.8401   8.8589   8.8748   8.8884   8.9023   8.9029   8.9067   8.9228
     8.9333   8.9383   8.9415   8.9548   9.0457   9.0522   9.1544   9.1668
     9.1875   9.2058   9.2140   9.2223   9.2404   9.2470   9.3148   9.3183
     9.3374   9.3896   9.4004   9.4124   9.4721   9.4775   9.4828   9.5021
     9.5470   9.5539   9.5555   9.5677   9.5726   9.5961   9.6131   9.6168
     9.6232   9.6262   9.6309   9.6361   9.6384   9.6388   9.6479   9.6510
     9.6522   9.6748   9.6804   9.6866   9.6896   9.7037   9.7135   9.7361
     9.7445   9.7584   9.7590   9.7755   9.8961   9.8998   9.9100   9.9781
    10.0192  10.0275  10.1720  10.1772  10.2091  10.2142  10.2508  10.2543
    10.2648  10.2736  10.2742  10.2809  10.2826  10.2848  10.3426  10.3498
    10.3788  10.3800  10.3843  10.3885  10.4240  10.4396  10.4735  10.4843
    10.4875  10.4989  10.5181  10.5386  10.5604  10.5684  10.5750  10.5935
    10.6214  10.6541  10.6824  10.7013  10.7212  10.7216  10.7371  10.7523
    10.8146  10.8241  10.8388  10.8437  10.8620  10.8682  10.9054  10.9431
    10.9477  11.0025  11.0153  11.0198  11.0475  11.0894  11.1688  11.1876
    11.2843  11.3275  11.3448  11.3498  11.3658  11.3797  11.3907  11.4004
    11.4089  11.4565  11.4827  11.4863  11.5025  11.5216  11.5480  11.5767
    11.6074  11.6120  11.6134  11.6379  11.6422  11.6577  11.6806  11.7479
    11.7664  11.7944  11.8086  11.8183  11.8205  11.8392  11.8544  11.8672
    11.8738  11.8817  11.9013  11.9064  11.9260  11.9454  11.9605  11.9664
    11.9838  11.9875  12.0029  12.0145  12.0215  12.1006  12.1439  12.1759
    12.1887  12.1927  12.2196  12.2254  12.2420  12.2526  12.2651  12.2827
    12.3015  12.3049  12.3422  12.3504  12.3592  12.3944  12.4125  12.4308
    12.4506  12.4808  12.4857  12.5095  12.5521  12.5559  12.5560  12.5670
    12.5820  12.5908  12.6147  12.6409  12.6570  12.7274  12.7469  12.7749
    12.7982  12.9263  12.9504  13.0198  13.0406  13.0779  13.1143  13.1664
    13.1947  13.2087  13.2212  13.2437  13.2456  13.3006  13.3833  13.3991
    13.4506  13.4837  13.5150  13.6853  13.7110  14.2916  14.4863  14.6418
    14.6901  14.7063  14.7124  14.7889  14.8435  14.9046  14.9242  14.9399
    15.0882  15.0911  15.2056  15.2537  15.3343  15.3503  15.5290  15.6415
    15.6785  15.6982  15.8392  15.8522  15.8773  15.8952  15.9549  15.9883
    16.0314  16.0329  16.0450  16.1069  16.1075  16.1409  16.1450  16.1702
    16.1983  16.2165  16.2440  16.2475  16.2756  16.3075  16.3142  16.3303
    16.4275  16.5005  16.5893  16.6509  16.7402  16.7568  16.9574  17.0845
    17.1569  17.1860  17.2484  17.3567  17.4726  17.5175  17.6187  17.6380
    17.7062  17.7744  17.7875  17.7910  17.8149  17.8863  17.9119  17.9400
    18.0434  18.0891  18.1305  18.2247  19.2524  19.2947  19.3205  19.3735

          k = 0.0000-0.5000-0.5734 ( 31696 PWs)   bands (ev):

   -66.7714 -66.7109 -66.6825 -66.6686 -66.6675 -66.6283 -66.6030 -66.5926
   -66.5810 -62.4020 -62.3902 -62.3851 -62.3736 -62.3518 -62.3357 -62.3323
   -62.3251 -62.3033 -35.5311 -35.5192 -35.4910 -35.4762 -35.4642 -35.4601
   -35.4316 -35.4283 -35.4214 -35.4210 -35.4199 -35.4162 -35.4076 -35.3978
   -35.3901 -35.3888 -35.3832 -35.3631 -35.3577 -35.3542 -35.3456 -35.3421
   -35.3359 -35.3284 -35.3183 -35.3112 -35.3055 -31.2418 -31.2389 -31.2343
   -31.2263 -31.2206 -31.2192 -31.2151 -31.2063 -31.1980 -31.1935 -31.1885
   -31.1878 -31.1871 -31.1791 -31.1772 -31.1764 -31.1626 -31.1594 -31.1578
   -31.1573 -31.1506 -31.1500 -31.1465 -31.1371 -31.1312 -31.1271 -31.1198
     6.5543   6.5618   6.6031   6.6186   7.8321   7.8563   7.8706   7.8892
     7.8913   7.9069   7.9405   7.9430   8.2684   8.2783   8.3006   8.3052
     8.5106   8.5280   8.5314   8.5382   8.6578   8.6602   8.6655   8.6901
     8.6906   8.7017   8.7019   8.7142   8.7221   8.7296   8.7391   8.7548
     8.7608   8.7862   8.7908   8.8137   8.9722   8.9863   9.0218   9.0338
     9.0387   9.0392   9.0471   9.0711   9.2022   9.2114   9.2129   9.2187
     9.2215   9.2235   9.2282   9.2350   9.2408   9.2498   9.2517   9.2609
     9.2731   9.2734   9.2895   9.2925   9.3000   9.3212   9.3867   9.3952
     9.4243   9.4317   9.4325   9.4569   9.4579   9.4682   9.4726   9.4798
     9.4881   9.4913   9.5146   9.5216   9.5262   9.5314   9.5508   9.5614
     9.5777   9.5985   9.7539   9.7597   9.7845   9.7888   9.8157   9.8225
     9.8314   9.8315   9.8521   9.8541   9.8544   9.8593   9.8736   9.8862
     9.9666   9.9797   9.9805   9.9976  10.0161  10.0294  10.0668  10.0713
    10.3733  10.3956  10.3976  10.3998  10.4105  10.4133  10.4273  10.4557
    10.4591  10.4706  10.4796  10.4824  10.4928  10.4934  10.5007  10.5229
    10.5308  10.5389  10.5615  10.5716  10.5965  10.5995  10.6174  10.6206
    10.6302  10.6398  10.6625  10.6692  10.6810  10.6888  10.6964  10.7197
    10.7387  10.8330  10.9022  10.9237  10.9749  10.9917  11.0440  11.0929
    11.1177  11.1302  11.1312  11.1536  11.1685  11.1781  11.1905  11.2108
    11.2116  11.2176  11.2914  11.3240  11.3370  11.3597  11.3648  11.3661
    11.3720  11.3730  11.3753  11.4185  11.4349  11.4866  11.4963  11.5116
    11.5148  11.5516  11.5717  11.5779  11.5934  11.5948  11.6022  11.6299
    11.6311  11.6377  11.7097  11.7223  11.7531  11.7575  11.7996  11.8823
    11.9030  11.9147  11.9188  11.9509  11.9661  11.9728  11.9989  11.9994
    12.0203  12.0365  12.0366  12.0397  12.0427  12.0846  12.1026  12.1150
    12.1266  12.1503  12.1859  12.2077  12.2413  12.2532  12.2594  12.3446
    12.3667  12.3825  12.4272  12.4510  12.4666  12.4690  12.4890  12.4921
    12.5022  12.5315  12.5514  12.5764  12.5986  12.6089  12.6222  12.6229
    12.6387  12.6414  12.6548  12.6581  12.7027  12.7028  12.7182  12.7598
    12.8552  12.8750  12.8753  12.9424  13.0152  13.0218  13.0444  13.0779
    13.0875  13.2347  13.4464  13.5494  13.5930  13.6495  13.7728  13.7862
    13.8370  13.9189  14.0316  14.0846  14.1777  14.2074  14.3389  14.3743
    14.3902  14.5172  14.5459  14.5696  14.6429  14.6538  14.6581  15.0350
    15.1815  15.2044  15.2619  15.3222  15.3648  15.3932  15.4703  15.5755
    15.6343  15.7063  15.7242  15.8810  15.9238  15.9803  15.9925  16.0389
    16.0540  16.1108  16.1175  16.1198  16.1523  16.1717  16.1968  16.2015
    16.2522  16.2642  16.2989  16.3122  16.3354  16.3815  16.4151  16.4393
    16.4933  16.5288  16.5604  16.5656  16.6277  16.6317  16.6484  16.7222
    16.7238  16.7635  16.8034  16.8610  16.8697  16.9454  16.9595  17.0549
    17.0666  17.1320  17.1714  17.2808  18.5996  18.7029  18.7219  18.7406
    18.7613  18.7855  18.8605  18.8615  18.8807  18.9421  18.9499  18.9791

          k =-0.5000-0.5000 0.0000 ( 31612 PWs)   bands (ev):

   -66.7714 -66.7109 -66.6825 -66.6686 -66.6675 -66.6283 -66.6030 -66.5926
   -66.5810 -62.4020 -62.3902 -62.3851 -62.3736 -62.3518 -62.3357 -62.3323
   -62.3251 -62.3033 -35.5311 -35.5192 -35.4910 -35.4762 -35.4642 -35.4601
   -35.4316 -35.4283 -35.4214 -35.4210 -35.4199 -35.4162 -35.4076 -35.3978
   -35.3901 -35.3888 -35.3832 -35.3631 -35.3577 -35.3542 -35.3456 -35.3421
   -35.3359 -35.3284 -35.3183 -35.3112 -35.3055 -31.2418 -31.2389 -31.2343
   -31.2263 -31.2206 -31.2192 -31.2151 -31.2063 -31.1980 -31.1935 -31.1885
   -31.1878 -31.1871 -31.1791 -31.1772 -31.1764 -31.1626 -31.1594 -31.1578
   -31.1573 -31.1506 -31.1500 -31.1465 -31.1371 -31.1312 -31.1271 -31.1198
     6.4039   6.4378   6.4455   6.4800   8.0028   8.0184   8.0240   8.0260
     8.0898   8.1255   8.2870   8.3194   8.3250   8.3261   8.3378   8.3414
     8.3460   8.3570   8.3619   8.3737   8.3746   8.3994   8.5848   8.6063
     8.6320   8.6466   8.6962   8.7059   8.7079   8.7184   8.7284   8.7476
     8.7594   8.7961   8.9156   8.9464   8.9530   8.9756   8.9762   8.9803
     8.9833   8.9850   9.0035   9.0127   9.0129   9.0194   9.0346   9.0472
     9.1115   9.1349   9.3014   9.3135   9.3217   9.3223   9.4015   9.4071
     9.4123   9.4179   9.4214   9.4256   9.4355   9.4378   9.4415   9.4524
     9.4611   9.4655   9.4721   9.4836   9.4849   9.5015   9.5026   9.5061
     9.5191   9.5282   9.5380   9.5460   9.5485   9.5693   9.5839   9.5868
     9.6068   9.6128   9.6972   9.6985   9.7667   9.7993   9.8117   9.8324
     9.8329   9.8369   9.8414   9.8466   9.8537   9.8637  10.0363  10.0607
    10.0784  10.0883  10.1027  10.1227  10.1514  10.1561  10.1585  10.1715
    10.1861  10.1925  10.1952  10.2026  10.2246  10.2256  10.2309  10.2335
    10.2343  10.2366  10.2480  10.2573  10.4373  10.4709  10.4745  10.4767
    10.4973  10.5072  10.5085  10.5508  10.6039  10.6257  10.6367  10.6529
    10.6565  10.6602  10.6648  10.6719  10.6923  10.6968  10.7076  10.7161
    10.7277  10.7852  10.8094  10.8131  10.8244  10.8586  10.8624  10.8733
    10.9068  10.9205  11.2004  11.2083  11.2131  11.2230  11.3011  11.3252
    11.3332  11.3500  11.3537  11.3678  11.3813  11.3971  11.5469  11.5649
    11.5868  11.6141  11.6370  11.6420  11.6452  11.6473  11.6506  11.6513
    11.6660  11.6715  11.6828  11.7241  11.7331  11.7485  11.7680  11.8701
    11.8777  11.8787  11.8823  11.8823  11.8843  11.8873  11.9597  12.0159
    12.0405  12.0634  12.0669  12.0727  12.0785  12.1010  12.1053  12.1092
    12.1098  12.1191  12.1270  12.1305  12.1465  12.1504  12.1509  12.1560
    12.1717  12.1801  12.1829  12.2320  12.2381  12.2430  12.2506  12.2554
    12.2642  12.2784  12.2892  12.2900  12.2905  12.3023  12.3112  12.3393
    12.3553  12.3616  12.3720  12.4503  12.4790  12.5010  12.5281  12.5455
    12.5629  12.5896  12.6016  12.6093  12.6292  12.6375  12.6575  12.6914
    12.7270  12.7614  12.7761  12.8723  12.8731  12.9268  12.9310  12.9538
    12.9694  13.0201  13.0329  13.0343  13.1328  13.6224  13.6633  13.6766
    13.6825  13.6959  13.8176  13.8946  13.9136  13.9439  14.1460  14.2160
    14.2376  14.3112  14.4162  14.4457  14.4716  14.4753  14.7959  14.8285
    14.9756  15.1334  15.1580  15.2024  15.3984  15.4371  15.6586  15.7169
    15.7698  15.7879  15.8231  15.8473  15.8530  15.9046  15.9521  15.9725
    15.9961  16.0022  16.0528  16.1306  16.1491  16.1620  16.1638  16.2265
    16.2490  16.2603  16.3135  16.3143  16.3505  16.3532  16.4157  16.4438
    16.5162  16.5294  16.5397  16.5633  16.6895  16.7064  16.7393  16.7542
    16.7734  16.7977  16.8924  16.9711  17.3825  17.3936  17.5913  17.9892
    18.1292  18.1585  18.2085  18.2525  18.2553  18.4283  18.5080  18.5506
    18.5882  18.6163  18.6527  18.6755  18.6770  18.7782  18.8017  18.8162

          k =-0.5000-0.5000-0.5734 ( 31672 PWs)   bands (ev):

   -66.7714 -66.7109 -66.6825 -66.6686 -66.6675 -66.6283 -66.6030 -66.5926
   -66.5810 -62.4020 -62.3902 -62.3851 -62.3736 -62.3518 -62.3357 -62.3323
   -62.3251 -62.3033 -35.5311 -35.5192 -35.4910 -35.4762 -35.4642 -35.4601
   -35.4316 -35.4283 -35.4214 -35.4210 -35.4199 -35.4162 -35.4076 -35.3978
   -35.3901 -35.3888 -35.3832 -35.3631 -35.3577 -35.3542 -35.3456 -35.3421
   -35.3359 -35.3284 -35.3183 -35.3112 -35.3055 -31.2418 -31.2389 -31.2343
   -31.2263 -31.2206 -31.2192 -31.2151 -31.2063 -31.1980 -31.1935 -31.1885
   -31.1878 -31.1871 -31.1791 -31.1772 -31.1764 -31.1626 -31.1594 -31.1578
   -31.1573 -31.1506 -31.1500 -31.1465 -31.1371 -31.1312 -31.1271 -31.1198
     6.8847   6.9070   6.9366   6.9770   6.9878   6.9988   7.0266   7.0431
     8.4492   8.4675   8.4693   8.4788   8.4861   8.4889   8.4895   8.4961
     8.5012   8.5021   8.5134   8.5332   8.5399   8.5405   8.5573   8.5587
     8.5683   8.5799   8.5863   8.6230   8.8709   8.8796   8.8904   8.8940
     8.9187   8.9240   8.9280   8.9411   9.0838   9.0988   9.1221   9.1240
     9.1273   9.1424   9.1443   9.1478   9.1512   9.1537   9.1622   9.1625
     9.1647   9.1651   9.1687   9.1729   9.1766   9.1777   9.1807   9.1814
     9.1859   9.1886   9.1943   9.1970   9.1981   9.2001   9.2041   9.2117
     9.2272   9.2392   9.2428   9.2507   9.2591   9.2633   9.2729   9.2867
     9.5409   9.5419   9.5574   9.5706   9.5849   9.6109   9.6136   9.6223
     9.6515   9.6588   9.6909   9.7093   9.7148   9.7152   9.7607   9.7762
     9.8086   9.8272   9.8500   9.8599   9.8708   9.8807   9.8937   9.8987
    10.1187  10.1441  10.1459  10.1521  10.1619  10.1723  10.1773  10.1920
    10.2826  10.3216  10.4380  10.4502  10.4545  10.4701  10.4735  10.4802
    10.4826  10.4956  10.4972  10.5014  10.5076  10.5094  10.5122  10.5212
    10.5261  10.5289  10.5350  10.5358  10.5631  10.5823  10.5909  10.6014
    10.6158  10.6368  10.6424  10.6510  10.6584  10.6610  10.6611  10.6691
    10.6721  10.6779  10.6971  10.6995  10.7358  10.7433  11.0308  11.0442
    11.0507  11.0689  11.1032  11.1066  11.1422  11.1426  11.3761  11.3819
    11.3830  11.4112  11.4250  11.4368  11.4392  11.4482  11.4529  11.4572
    11.4794  11.4968  11.5028  11.5117  11.5331  11.5408  11.5867  11.6209
    11.6268  11.6426  11.6446  11.6511  11.6752  11.7001  11.7071  11.7152
    11.7227  11.7311  11.7341  11.7715  11.7765  11.7813  11.7851  11.7921
    11.7935  11.8028  11.8185  11.8283  11.8353  11.9765  11.9874  12.0163
    12.0204  12.0642  12.0732  12.0984  12.1073  12.1263  12.1540  12.1745
    12.1784  12.2186  12.2327  12.2393  12.2435  12.2682  12.3026  12.3299
    12.3325  12.3554  12.3795  12.4110  12.4266  12.4521  12.4629  12.4693
    12.4789  12.4808  12.5173  12.5276  12.5620  12.5791  12.5871  12.6014
    12.6045  12.6338  12.6715  12.7219  12.7290  12.7741  12.7999  12.8267
    12.9233  12.9427  12.9928  13.0653  13.1237  13.1449  13.1736  13.1833
    13.2148  13.2560  13.3027  13.3274  13.4118  13.4498  13.4873  13.5782
    13.6018  13.6040  13.7232  13.8845  13.9590  13.9779  14.0221  14.1351
    14.2278  14.2517  14.4489  14.5250  14.8006  14.8326  14.9148  15.0227
    15.0236  15.0687  15.1580  15.3608  15.4498  15.4620  15.5545  15.6492
    15.7348  15.7626  15.7897  15.8421  15.8614  15.9228  15.9313  15.9542
    16.0179  16.0683  16.1094  16.1693  16.1998  16.2046  16.2181  16.2352
    16.2684  16.2686  16.3160  16.3201  16.3682  16.4674  16.4700  16.5006
    16.5409  16.5656  16.5817  16.6191  16.6483  16.6661  16.6700  16.6904
    16.7653  16.7824  16.8536  16.8682  16.9027  16.9518  16.9620  16.9976
    17.0357  17.0912  17.5728  17.7479  17.9073  17.9411  19.0146  19.0351
    19.0537  19.0633  19.0976  19.1367  19.1762  19.1856  19.2742  19.2905

          k =-0.5000 0.0000 0.0000 ( 31722 PWs)   bands (ev):

   -66.7714 -66.7109 -66.6825 -66.6686 -66.6675 -66.6283 -66.6030 -66.5926
   -66.5810 -62.4020 -62.3902 -62.3851 -62.3736 -62.3518 -62.3357 -62.3323
   -62.3251 -62.3033 -35.5311 -35.5192 -35.4910 -35.4763 -35.4642 -35.4601
   -35.4316 -35.4283 -35.4214 -35.4210 -35.4200 -35.4161 -35.4076 -35.3978
   -35.3901 -35.3888 -35.3832 -35.3631 -35.3577 -35.3542 -35.3456 -35.3421
   -35.3359 -35.3284 -35.3183 -35.3112 -35.3055 -31.2418 -31.2389 -31.2342
   -31.2263 -31.2206 -31.2193 -31.2151 -31.2063 -31.1983 -31.1932 -31.1885
   -31.1878 -31.1871 -31.1790 -31.1772 -31.1764 -31.1626 -31.1594 -31.1578
   -31.1573 -31.1506 -31.1500 -31.1465 -31.1371 -31.1312 -31.1271 -31.1198
     6.0296   6.0584   7.4156   7.4372   7.4568   7.4865   7.6684   7.6849
     8.1022   8.1177   8.1263   8.1782   8.2127   8.2377   8.2436   8.2721
     8.4056   8.4305   8.4436   8.4757   8.6132   8.6368   8.6536   8.6550
     8.6676   8.6789   8.6907   8.6947   8.7528   8.8114   8.8224   8.8363
     8.8559   8.8663   8.8701   8.8930   8.9024   8.9047   8.9142   8.9233
     8.9246   8.9304   8.9374   8.9530   9.0404   9.0570   9.1599   9.1731
     9.1916   9.1943   9.2107   9.2302   9.2395   9.2471   9.3147   9.3244
     9.3624   9.3748   9.3798   9.4145   9.4726   9.4839   9.4946   9.5155
     9.5303   9.5400   9.5548   9.5672   9.5790   9.5955   9.6033   9.6206
     9.6268   9.6298   9.6315   9.6325   9.6359   9.6374   9.6414   9.6534
     9.6666   9.6707   9.6793   9.6839   9.6903   9.7031   9.7206   9.7375
     9.7413   9.7563   9.7609   9.7736   9.8956   9.9021   9.9155   9.9845
    10.0056  10.0445  10.1504  10.1907  10.2054  10.2274  10.2483  10.2528
    10.2616  10.2698  10.2717  10.2729  10.2810  10.2887  10.3379  10.3501
    10.3715  10.3771  10.3834  10.3853  10.4244  10.4387  10.4569  10.4797
    10.5186  10.5265  10.5273  10.5319  10.5520  10.5769  10.5771  10.5943
    10.6138  10.6395  10.6683  10.6913  10.6938  10.7308  10.7354  10.7729
    10.8069  10.8169  10.8287  10.8503  10.8644  10.8776  10.9090  10.9391
    10.9892  11.0155  11.0179  11.0202  11.0304  11.0830  11.1648  11.1845
    11.2980  11.3444  11.3504  11.3585  11.3755  11.3877  11.3956  11.4030
    11.4205  11.4349  11.4450  11.4609  11.5058  11.5329  11.5456  11.5697
    11.5979  11.6031  11.6218  11.6364  11.6435  11.6737  11.6808  11.7331
    11.7495  11.7705  11.7804  11.8062  11.8161  11.8360  11.8548  11.8608
    11.8735  11.8919  11.9083  11.9282  11.9372  11.9589  11.9641  11.9682
    11.9775  11.9846  11.9916  12.0133  12.0391  12.1267  12.1419  12.1800
    12.1927  12.2029  12.2035  12.2334  12.2437  12.2602  12.2678  12.2777
    12.3001  12.3053  12.3219  12.3608  12.3752  12.3872  12.4002  12.4278
    12.4558  12.4794  12.4842  12.4924  12.5248  12.5271  12.5533  12.5575
    12.5701  12.6007  12.6172  12.6262  12.6484  12.7281  12.7457  12.7695
    12.9036  12.9917  13.0015  13.0463  13.0769  13.0868  13.1443  13.1535
    13.1696  13.1873  13.2089  13.2299  13.2512  13.2785  13.3203  13.3602
    13.4425  13.4863  13.5034  13.6600  13.7412  14.4851  14.5078  14.5541
    14.5934  14.7076  14.7328  14.7463  14.7854  14.8004  14.8807  14.9761
    15.0981  15.1295  15.2287  15.3388  15.3558  15.4543  15.5345  15.5881
    15.6101  15.6758  15.7712  15.7983  15.8328  15.9250  15.9530  16.0328
    16.0493  16.0657  16.1005  16.1308  16.1364  16.1551  16.1589  16.1984
    16.2307  16.2418  16.2530  16.2752  16.2857  16.2976  16.3497  16.3731
    16.4028  16.4387  16.4714  16.6185  16.6746  16.8248  17.0372  17.0577
    17.1553  17.1830  17.2607  17.3231  17.3716  17.4558  17.6372  17.6429
    17.7107  17.7759  17.8177  17.8246  17.8409  17.8589  17.9282  17.9558
    17.9561  18.0989  18.1751  18.2349  19.2351  19.2923  19.3454  19.3518

          k =-0.5000 0.0000 0.5734 ( 31696 PWs)   bands (ev):

   -66.7714 -66.7109 -66.6825 -66.6686 -66.6675 -66.6283 -66.6030 -66.5926
   -66.5810 -62.4020 -62.3902 -62.3851 -62.3736 -62.3518 -62.3357 -62.3323
   -62.3251 -62.3033 -35.5311 -35.5192 -35.4910 -35.4763 -35.4642 -35.4601
   -35.4316 -35.4283 -35.4214 -35.4210 -35.4200 -35.4161 -35.4076 -35.3978
   -35.3901 -35.3888 -35.3832 -35.3631 -35.3577 -35.3542 -35.3456 -35.3421
   -35.3359 -35.3284 -35.3183 -35.3112 -35.3055 -31.2418 -31.2389 -31.2342
   -31.2263 -31.2206 -31.2193 -31.2151 -31.2063 -31.1983 -31.1932 -31.1885
   -31.1878 -31.1871 -31.1790 -31.1772 -31.1764 -31.1626 -31.1594 -31.1578
   -31.1573 -31.1506 -31.1500 -31.1465 -31.1371 -31.1312 -31.1271 -31.1198
     6.5194   6.5829   6.5992   6.6399   7.8320   7.8391   7.8736   7.8891
     7.8969   7.9105   7.9304   7.9493   8.2681   8.2783   8.3020   8.3052
     8.5204   8.5254   8.5282   8.5334   8.6610   8.6655   8.6789   8.6877
     8.6940   8.6945   8.7051   8.7123   8.7235   8.7357   8.7428   8.7513
     8.7637   8.7793   8.7876   8.8024   8.9435   9.0120   9.0169   9.0313
     9.0410   9.0512   9.0516   9.0641   9.1750   9.2107   9.2141   9.2247
     9.2252   9.2297   9.2307   9.2371   9.2464   9.2537   9.2554   9.2572
     9.2599   9.2651   9.2769   9.2784   9.2907   9.3520   9.3871   9.4025
     9.4244   9.4295   9.4352   9.4536   9.4539   9.4683   9.4731   9.4813
     9.4817   9.4914   9.5196   9.5254   9.5339   9.5408   9.5584   9.5663
     9.5791   9.6146   9.7529   9.7586   9.7882   9.7979   9.8159   9.8223
     9.8305   9.8381   9.8412   9.8425   9.8558   9.8611   9.8668   9.8821
     9.9468   9.9671   9.9974  10.0085  10.0269  10.0424  10.0562  10.0640
    10.3656  10.3797  10.3871  10.3876  10.4027  10.4178  10.4226  10.4281
    10.4551  10.4694  10.4771  10.4808  10.4934  10.4942  10.5030  10.5472
    10.5499  10.5527  10.5629  10.5796  10.5889  10.5927  10.6233  10.6245
    10.6388  10.6423  10.6641  10.6722  10.6845  10.6925  10.6960  10.7184
    10.7383  10.8357  10.8963  10.9128  10.9917  11.0028  11.0211  11.0455
    11.1179  11.1330  11.1533  11.1573  11.1727  11.1871  11.1995  11.2093
    11.2107  11.2134  11.3041  11.3228  11.3341  11.3402  11.3623  11.3746
    11.3786  11.3836  11.3868  11.4357  11.4449  11.4501  11.4774  11.5325
    11.5357  11.5535  11.5682  11.5734  11.5785  11.5838  11.6016  11.6191
    11.6265  11.6369  11.7314  11.7338  11.7641  11.7706  11.7805  11.8613
    11.9004  11.9092  11.9296  11.9352  11.9546  11.9735  11.9912  11.9964
    12.0261  12.0289  12.0356  12.0390  12.0406  12.0489  12.0554  12.1140
    12.1562  12.1643  12.2109  12.2493  12.2546  12.3023  12.3043  12.3206
    12.3691  12.3941  12.4204  12.4259  12.4511  12.4534  12.4624  12.4780
    12.4867  12.4989  12.5249  12.5336  12.5490  12.5856  12.5904  12.5924
    12.6277  12.6285  12.6403  12.6562  12.6678  12.7083  12.8277  12.8364
    12.8490  12.9285  12.9367  12.9524  13.0294  13.0518  13.0707  13.0826
    13.2154  13.2196  13.3985  13.5497  13.6432  13.6896  13.7366  13.7470
    13.8999  13.9367  14.0093  14.0518  14.1237  14.1640  14.2068  14.3085
    14.3320  14.3448  14.5413  14.5677  14.6055  14.8315  14.8598  15.1904
    15.1933  15.1971  15.2192  15.2432  15.4349  15.4702  15.5431  15.5812
    15.6172  15.6436  15.6555  15.7066  15.7810  16.0150  16.0443  16.0609
    16.1020  16.1058  16.1325  16.1482  16.1680  16.1844  16.2179  16.2659
    16.2912  16.2919  16.3345  16.3372  16.3938  16.3939  16.4094  16.4607
    16.4682  16.5269  16.5705  16.5777  16.6115  16.6382  16.6466  16.6489
    16.6765  16.7374  16.7783  16.8207  16.8212  16.8956  16.9317  17.0426
    17.0633  17.1768  17.1800  17.2706  18.6501  18.6857  18.7353  18.7650
    18.7759  18.7999  18.8460  18.8661  18.8721  18.9005  18.9418  19.0223

     the Fermi energy is    14.8129 ev

!    total energy              =  -33062.59522886 Ry
     Harris-Foulkes estimate   =  -33062.59521025 Ry
     estimated scf accuracy    <       0.00000079 Ry

     total all-electron energy =  -1410574.685603 Ry

     The total energy is the sum of the following terms:

     one-electron contribution =   -1645.88847974 Ry
     hartree contribution      =    1490.09161534 Ry
     xc contribution           =   -1658.74334706 Ry
     ewald contribution        =   -4919.25534656 Ry
     one-center paw contrib.   =  -26328.79967084 Ry

     total magnetization       =     0.22 Bohr mag/cell
     absolute magnetization    =    78.39 Bohr mag/cell

     convergence has been achieved in  21 iterations

     Writing output data file mnau2.save
 
     init_run     :     53.38s CPU     54.17s WALL (       1 calls)
     electrons    :   3264.86s CPU   3318.93s WALL (       1 calls)

     Called by init_run:
     wfcinit      :     47.47s CPU     47.99s WALL (       1 calls)
     potinit      :      2.47s CPU      2.53s WALL (       1 calls)

     Called by electrons:
     c_bands      :   2918.56s CPU   2961.45s WALL (      21 calls)
     sum_band     :    291.06s CPU    296.84s WALL (      21 calls)
     v_of_rho     :      5.62s CPU      5.80s WALL (      22 calls)
     newd         :     17.85s CPU     20.34s WALL (      22 calls)
     PAW_pot      :     32.53s CPU     33.03s WALL (      22 calls)
     mix_rho      :      1.13s CPU      1.19s WALL (      21 calls)

     Called by c_bands:
     init_us_2    :     10.47s CPU     10.54s WALL (     688 calls)
     cegterg      :   2852.73s CPU   2894.78s WALL (     336 calls)

     Called by sum_band:
     sum_band:bec :      1.63s CPU      1.64s WALL (     336 calls)
     addusdens    :     31.73s CPU     34.51s WALL (      21 calls)

     Called by *egterg:
     h_psi        :    991.55s CPU   1001.06s WALL (    1343 calls)
     s_psi        :    239.40s CPU    239.65s WALL (    1343 calls)
     g_psi        :      3.77s CPU      3.78s WALL (     991 calls)
     cdiaghg      :   1047.89s CPU   1048.52s WALL (    1327 calls)

     Called by h_psi:
     h_psi:pot    :    982.38s CPU    991.81s WALL (    1343 calls)
     h_psi:calbec :    240.30s CPU    242.55s WALL (    1343 calls)
     vloc_psi     :    501.33s CPU    508.29s WALL (    1343 calls)
     add_vuspsi   :    240.72s CPU    240.96s WALL (    1343 calls)

     General routines
     calbec       :    340.91s CPU    344.15s WALL (    1679 calls)
     fft          :      4.97s CPU      5.31s WALL (     672 calls)
     ffts         :      0.10s CPU      0.11s WALL (      86 calls)
     fftw         :    462.28s CPU    468.64s WALL (  764870 calls)
     interpolate  :      0.83s CPU      0.87s WALL (      86 calls)
 
     Parallel routines
     fft_scatt_xy :     57.98s CPU     58.56s WALL (  765628 calls)
     fft_scatt_yz :    106.72s CPU    109.45s WALL (  765628 calls)
 
     PWSCF        : 55m23.71s CPU    56m43.77s WALL

 
   This run was terminated on:  18:19:59   4Mar2019            

=------------------------------------------------------------------------------=
   JOB DONE.
=------------------------------------------------------------------------------=
