
     Program PWSCF v.6.2 (svn rev. 14038) starts on  4Mar2019 at 19:15:30 

     This program is part of the open-source Quantum ESPRESSO suite
     for quantum simulation of materials; please cite
         "P. Giannozzi et al., J. Phys.:Condens. Matter 21 395502 (2009);
         "P. Giannozzi et al., J. Phys.:Condens. Matter 29 465901 (2017);
          URL http://www.quantum-espresso.org", 
     in publications or presentations arising from this work. More details at
     http://www.quantum-espresso.org/quote

     Parallel version (MPI), running on    16 processors

     MPI processes distributed on     1 nodes
     R & G space division:  proc/nbgrp/npool/nimage =      16
     Waiting for input...
     Reading input from standard input

     Current dimensions of program PWSCF are:
     Max number of different atomic species (ntypx) = 10
     Max number of k-points (npk) =  40000
     Max angular momentum in pseudopotentials (lmaxx) =  3
               file Mn.pbe-spn-kjpaw_psl.0.3.1.UPF: wavefunction(s)  3P 3D renormalized
               file Mn.pbe-spn-kjpaw_psl.0.3.1.UPF: wavefunction(s)  3P 3D renormalized
               file Au.pbe-dn-kjpaw_psl.0.1.UPF: wavefunction(s)  6S 6P 5D renormalized

     Subspace diagonalization in iterative solution of the eigenvalue problem:
     a serial algorithm will be used

 
     Parallelization info
     --------------------
     sticks:   dense  smooth     PW     G-vecs:    dense   smooth      PW
     Min         736     331     90                52486    15847    2256
     Max         737     332     91                52489    15850    2259
     Sum       11785    5297   1449               839803   253559   36125
 


     bravais-lattice index     =            0
     lattice parameter (alat)  =      19.2459  a.u.
     unit-cell volume          =    6216.1497 (a.u.)^3
     number of atoms/cell      =           54
     number of atomic types    =            3
     number of electrons       =       666.00
     number of Kohn-Sham states=          400
     kinetic-energy cutoff     =      45.0000  Ry
     charge density cutoff     =     400.0000  Ry
     convergence threshold     =      1.0E-06
     mixing beta               =       0.1000
     number of iterations used =            8  plain     mixing
     Exchange-correlation      = SLA PW PBX PBC ( 1  4  3  4 0 0)

     celldm(1)=  19.245946  celldm(2)=   0.000000  celldm(3)=   0.000000
     celldm(4)=   0.000000  celldm(5)=   0.000000  celldm(6)=   0.000000

     crystal axes: (cart. coord. in units of alat)
               a(1) = (   1.000000   0.000000   0.000000 )  
               a(2) = (   0.000000   1.000000   0.000000 )  
               a(3) = (   0.000000   0.000000   0.871974 )  

     reciprocal axes: (cart. coord. in units 2 pi/alat)
               b(1) = (  1.000000  0.000000  0.000000 )  
               b(2) = (  0.000000  1.000000  0.000000 )  
               b(3) = (  0.000000  0.000000  1.146823 )  


     PseudoPot. # 1 for Mn read from file:
     ./pseudo/Mn.pbe-spn-kjpaw_psl.0.3.1.UPF
     MD5 check sum: 7eef95dd2aae66803482eea66ebeebf1
     Pseudo is Projector augmented-wave + core cor, Zval = 15.0
     Generated using "atomic" code by A. Dal Corso v.5.0.99 svn rev. 10869
     Shape of augmentation charge: PSQ
     Using radial grid of 1187 points,  6 beta functions with: 
                l(1) =   0
                l(2) =   0
                l(3) =   1
                l(4) =   1
                l(5) =   2
                l(6) =   2
     Q(r) pseudized with 0 coefficients 


     PseudoPot. # 2 for Mn read from file:
     ./pseudo/Mn.pbe-spn-kjpaw_psl.0.3.1.UPF
     MD5 check sum: 7eef95dd2aae66803482eea66ebeebf1
     Pseudo is Projector augmented-wave + core cor, Zval = 15.0
     Generated using "atomic" code by A. Dal Corso v.5.0.99 svn rev. 10869
     Shape of augmentation charge: PSQ
     Using radial grid of 1187 points,  6 beta functions with: 
                l(1) =   0
                l(2) =   0
                l(3) =   1
                l(4) =   1
                l(5) =   2
                l(6) =   2
     Q(r) pseudized with 0 coefficients 


     PseudoPot. # 3 for Au read from file:
     ./pseudo/Au.pbe-dn-kjpaw_psl.0.1.UPF
     MD5 check sum: 5c9b92683623e7ae2ab3f8e525febab6
     Pseudo is Projector augmented-wave + core cor, Zval = 11.0
     Generated using "atomic" code by A. Dal Corso v.5.0.2 svn rev. 9415
     Shape of augmentation charge: PSQ
     Using radial grid of 1279 points,  6 beta functions with: 
                l(1) =   0
                l(2) =   0
                l(3) =   1
                l(4) =   1
                l(5) =   2
                l(6) =   2
     Q(r) pseudized with 0 coefficients 


     atomic species   valence    mass     pseudopotential
        Mn1           15.00    54.93800     Mn( 1.00)
        Mn2           15.00    54.93800     Mn( 1.00)
        Au            11.00   196.96600     Au( 1.00)

     Starting magnetic structure 
     atomic species   magnetization
        Mn1          0.800
        Mn2         -0.800
        Au           0.000

      2 Sym. Ops. (no inversion) found



   Cartesian axes

     site n.     atom                  positions (alat units)
         1           Mn1 tau(   1) = (   0.0000000   0.0000000   0.0000000  )
         2           Mn1 tau(   2) = (   0.0000000   0.3333300   0.0000000  )
         3           Mn1 tau(   3) = (   0.0000000   0.6666700   0.0000000  )
         4           Mn1 tau(   4) = (   0.3333300   0.0000000   0.0000000  )
         5           Mn2 tau(   5) = (   0.3333300   0.3333300   0.0000000  )
         6           Mn1 tau(   6) = (   0.3333300   0.6666700   0.0000000  )
         7           Mn2 tau(   7) = (   0.6666700   0.0000000   0.0000000  )
         8           Mn2 tau(   8) = (   0.6666700   0.3333300   0.0000000  )
         9           Mn2 tau(   9) = (   0.6666700   0.6666700   0.0000000  )
        10           Mn2 tau(  10) = (   0.1666700   0.1666700   0.4359871  )
        11           Mn2 tau(  11) = (   0.1666700   0.5000000   0.4359871  )
        12           Mn2 tau(  12) = (   0.1666700   0.8333300   0.4359871  )
        13           Mn2 tau(  13) = (   0.5000000   0.1666700   0.4359871  )
        14           Mn1 tau(  14) = (   0.5000000   0.5000000   0.4359871  )
        15           Mn2 tau(  15) = (   0.5000000   0.8333300   0.4359871  )
        16           Mn1 tau(  16) = (   0.8333300   0.1666700   0.4359871  )
        17           Mn1 tau(  17) = (   0.8333300   0.5000000   0.4359871  )
        18           Mn1 tau(  18) = (   0.8333300   0.8333300   0.4359871  )
        19           Au  tau(  19) = (   0.1666700   0.1666700   0.7327374  )
        20           Au  tau(  20) = (   0.1666700   0.5000000   0.7327374  )
        21           Au  tau(  21) = (   0.1666700   0.8333300   0.7327374  )
        22           Au  tau(  22) = (   0.5000000   0.1666700   0.7327374  )
        23           Au  tau(  23) = (   0.5000000   0.5000000   0.7327374  )
        24           Au  tau(  24) = (   0.5000000   0.8333300   0.7327374  )
        25           Au  tau(  25) = (   0.8333300   0.1666700   0.7327374  )
        26           Au  tau(  26) = (   0.8333300   0.5000000   0.7327374  )
        27           Au  tau(  27) = (   0.8333300   0.8333300   0.7327374  )
        28           Au  tau(  28) = (   0.1666700   0.1666700   0.1392369  )
        29           Au  tau(  29) = (   0.1666700   0.5000000   0.1392369  )
        30           Au  tau(  30) = (   0.1666700   0.8333300   0.1392369  )
        31           Au  tau(  31) = (   0.5000000   0.1666700   0.1392369  )
        32           Au  tau(  32) = (   0.5000000   0.5000000   0.1392369  )
        33           Au  tau(  33) = (   0.5000000   0.8333300   0.1392369  )
        34           Au  tau(  34) = (   0.8333300   0.1666700   0.1392369  )
        35           Au  tau(  35) = (   0.8333300   0.5000000   0.1392369  )
        36           Au  tau(  36) = (   0.8333300   0.8333300   0.1392369  )
        37           Au  tau(  37) = (   0.0000000   0.0000000   0.2967503  )
        38           Au  tau(  38) = (   0.0000000   0.3333300   0.2967503  )
        39           Au  tau(  39) = (   0.0000000   0.6666700   0.2967503  )
        40           Au  tau(  40) = (   0.3333300   0.0000000   0.2967503  )
        41           Au  tau(  41) = (   0.3333300   0.3333300   0.2967503  )
        42           Au  tau(  42) = (   0.3333300   0.6666700   0.2967503  )
        43           Au  tau(  43) = (   0.6666700   0.0000000   0.2967503  )
        44           Au  tau(  44) = (   0.6666700   0.3333300   0.2967503  )
        45           Au  tau(  45) = (   0.6666700   0.6666700   0.2967503  )
        46           Au  tau(  46) = (   0.0000000   0.0000000   0.5752240  )
        47           Au  tau(  47) = (   0.0000000   0.3333300   0.5752240  )
        48           Au  tau(  48) = (   0.0000000   0.6666700   0.5752240  )
        49           Au  tau(  49) = (   0.3333300   0.0000000   0.5752240  )
        50           Au  tau(  50) = (   0.3333300   0.3333300   0.5752240  )
        51           Au  tau(  51) = (   0.3333300   0.6666700   0.5752240  )
        52           Au  tau(  52) = (   0.6666700   0.0000000   0.5752240  )
        53           Au  tau(  53) = (   0.6666700   0.3333300   0.5752240  )
        54           Au  tau(  54) = (   0.6666700   0.6666700   0.5752240  )

     number of k points=     8 (tetrahedron method)
                       cart. coord. in units 2pi/alat
        k(    1) = (   0.0000000   0.0000000   0.0000000), wk =   0.1250000
        k(    2) = (   0.0000000   0.0000000  -0.5734114), wk =   0.1250000
        k(    3) = (   0.0000000  -0.5000000   0.0000000), wk =   0.1250000
        k(    4) = (   0.0000000  -0.5000000  -0.5734114), wk =   0.1250000
        k(    5) = (  -0.5000000  -0.5000000   0.0000000), wk =   0.1250000
        k(    6) = (  -0.5000000  -0.5000000  -0.5734114), wk =   0.1250000
        k(    7) = (  -0.5000000   0.0000000   0.0000000), wk =   0.1250000
        k(    8) = (  -0.5000000   0.0000000   0.5734114), wk =   0.1250000

     Dense  grid:   839803 G-vectors     FFT dimensions: ( 125, 125, 108)

     Smooth grid:   253559 G-vectors     FFT dimensions: (  90,  90,  72)

     Estimated max dynamical RAM per process >     570.13 MB

     Estimated total dynamical RAM >       8.91 GB
     Generating pointlists ...
     new r_m :   0.1129 (alat units)  2.1733 (a.u.) for type    1
     new r_m :   0.1129 (alat units)  2.1733 (a.u.) for type    2
     new r_m :   0.1129 (alat units)  2.1733 (a.u.) for type    3

     Check: negative/imaginary core charge=   -0.000006    0.000000

     Initial potential from superposition of free atoms

     starting charge  665.98709, renormalised to  666.00000
     Starting wfc are  504 randomized atomic wfcs
     Checking if some PAW data can be deallocated... 

     total cpu time spent up to now is       58.7 secs

     Self-consistent Calculation

     iteration #  1     ecut=    45.00 Ry     beta= 0.10
     Davidson diagonalization with overlap
     ethr =  1.00E-02,  avg # of iterations =  3.5

     total cpu time spent up to now is      224.4 secs

     total energy              =  -33047.18810969 Ry
     Harris-Foulkes estimate   =  -33044.03858343 Ry
     estimated scf accuracy    <      27.03066958 Ry

     total magnetization       =     0.01 Bohr mag/cell
     absolute magnetization    =    92.14 Bohr mag/cell

     iteration #  2     ecut=    45.00 Ry     beta= 0.10
     Davidson diagonalization with overlap
     ethr =  4.06E-03,  avg # of iterations =  1.0

     total cpu time spent up to now is      333.1 secs

     total energy              =  -33058.56267003 Ry
     Harris-Foulkes estimate   =  -33047.36657319 Ry
     estimated scf accuracy    <      21.37115112 Ry

     total magnetization       =     0.01 Bohr mag/cell
     absolute magnetization    =    91.72 Bohr mag/cell

     iteration #  3     ecut=    45.00 Ry     beta= 0.10
     Davidson diagonalization with overlap
     ethr =  3.21E-03,  avg # of iterations =  2.1

     total cpu time spent up to now is      466.1 secs

     total energy              =  -33066.52638878 Ry
     Harris-Foulkes estimate   =  -33061.36148147 Ry
     estimated scf accuracy    <       8.79889351 Ry

     total magnetization       =    -0.14 Bohr mag/cell
     absolute magnetization    =    85.60 Bohr mag/cell

     iteration #  4     ecut=    45.00 Ry     beta= 0.10
     Davidson diagonalization with overlap
     ethr =  1.32E-03,  avg # of iterations =  4.2

     total cpu time spent up to now is      685.6 secs

     total energy              =  -33058.65049022 Ry
     Harris-Foulkes estimate   =  -33069.56526937 Ry
     estimated scf accuracy    <      57.21877702 Ry

     total magnetization       =    -0.41 Bohr mag/cell
     absolute magnetization    =    70.27 Bohr mag/cell

     iteration #  5     ecut=    45.00 Ry     beta= 0.10
     Davidson diagonalization with overlap
     ethr =  1.32E-03,  avg # of iterations =  4.9

     total cpu time spent up to now is      930.6 secs

     total energy              =  -33061.89128337 Ry
     Harris-Foulkes estimate   =  -33062.67530852 Ry
     estimated scf accuracy    <       4.19834557 Ry

     total magnetization       =    -0.24 Bohr mag/cell
     absolute magnetization    =    83.37 Bohr mag/cell

     iteration #  6     ecut=    45.00 Ry     beta= 0.10
     Davidson diagonalization with overlap
     ethr =  6.30E-04,  avg # of iterations =  3.8

     total cpu time spent up to now is     1092.3 secs

     total energy              =  -33062.54577723 Ry
     Harris-Foulkes estimate   =  -33062.54855888 Ry
     estimated scf accuracy    <       0.24617731 Ry

     total magnetization       =    -0.29 Bohr mag/cell
     absolute magnetization    =    79.77 Bohr mag/cell

     iteration #  7     ecut=    45.00 Ry     beta= 0.10
     Davidson diagonalization with overlap
     ethr =  3.70E-05,  avg # of iterations =  4.5

     total cpu time spent up to now is     1281.7 secs

     total energy              =  -33062.58779237 Ry
     Harris-Foulkes estimate   =  -33062.58358337 Ry
     estimated scf accuracy    <       0.06578605 Ry

     total magnetization       =    -0.36 Bohr mag/cell
     absolute magnetization    =    78.71 Bohr mag/cell

     iteration #  8     ecut=    45.00 Ry     beta= 0.10
     Davidson diagonalization with overlap
     ethr =  9.88E-06,  avg # of iterations =  2.2

     total cpu time spent up to now is     1408.3 secs

     total energy              =  -33062.57828780 Ry
     Harris-Foulkes estimate   =  -33062.59404655 Ry
     estimated scf accuracy    <       0.11272258 Ry

     total magnetization       =    -0.37 Bohr mag/cell
     absolute magnetization    =    78.48 Bohr mag/cell

     iteration #  9     ecut=    45.00 Ry     beta= 0.10
     Davidson diagonalization with overlap
     ethr =  9.88E-06,  avg # of iterations =  1.9

     total cpu time spent up to now is     1529.2 secs

     total energy              =  -33062.58717598 Ry
     Harris-Foulkes estimate   =  -33062.58307138 Ry
     estimated scf accuracy    <       0.02920507 Ry

     total magnetization       =    -0.44 Bohr mag/cell
     absolute magnetization    =    78.44 Bohr mag/cell

     iteration # 10     ecut=    45.00 Ry     beta= 0.10
     Davidson diagonalization with overlap
     ethr =  4.39E-06,  avg # of iterations =  2.1

     total cpu time spent up to now is     1652.0 secs

     total energy              =  -33062.58805263 Ry
     Harris-Foulkes estimate   =  -33062.58956448 Ry
     estimated scf accuracy    <       0.00972489 Ry

     total magnetization       =    -0.44 Bohr mag/cell
     absolute magnetization    =    78.69 Bohr mag/cell

     iteration # 11     ecut=    45.00 Ry     beta= 0.10
     Davidson diagonalization with overlap
     ethr =  1.46E-06,  avg # of iterations =  5.0

     total cpu time spent up to now is     1829.6 secs

     total energy              =  -33062.59052697 Ry
     Harris-Foulkes estimate   =  -33062.58996051 Ry
     estimated scf accuracy    <       0.00230265 Ry

     total magnetization       =    -0.45 Bohr mag/cell
     absolute magnetization    =    78.90 Bohr mag/cell

     iteration # 12     ecut=    45.00 Ry     beta= 0.10
     Davidson diagonalization with overlap
     ethr =  3.46E-07,  avg # of iterations =  3.8

     total cpu time spent up to now is     1982.2 secs

     total energy              =  -33062.59135940 Ry
     Harris-Foulkes estimate   =  -33062.59075023 Ry
     estimated scf accuracy    <       0.00130953 Ry

     total magnetization       =    -0.45 Bohr mag/cell
     absolute magnetization    =    78.82 Bohr mag/cell

     iteration # 13     ecut=    45.00 Ry     beta= 0.10
     Davidson diagonalization with overlap
     ethr =  1.97E-07,  avg # of iterations =  2.8

     total cpu time spent up to now is     2126.1 secs

     total energy              =  -33062.59158501 Ry
     Harris-Foulkes estimate   =  -33062.59132056 Ry
     estimated scf accuracy    <       0.00025213 Ry

     total magnetization       =    -0.46 Bohr mag/cell
     absolute magnetization    =    78.70 Bohr mag/cell

     iteration # 14     ecut=    45.00 Ry     beta= 0.10
     Davidson diagonalization with overlap
     ethr =  3.79E-08,  avg # of iterations =  3.5

     total cpu time spent up to now is     2274.0 secs

     total energy              =  -33062.59176430 Ry
     Harris-Foulkes estimate   =  -33062.59163367 Ry
     estimated scf accuracy    <       0.00012557 Ry

     total magnetization       =    -0.47 Bohr mag/cell
     absolute magnetization    =    78.68 Bohr mag/cell

     iteration # 15     ecut=    45.00 Ry     beta= 0.10
     Davidson diagonalization with overlap
     ethr =  1.89E-08,  avg # of iterations =  2.0

     total cpu time spent up to now is     2396.4 secs

     total energy              =  -33062.59186044 Ry
     Harris-Foulkes estimate   =  -33062.59175433 Ry
     estimated scf accuracy    <       0.00006806 Ry

     total magnetization       =    -0.47 Bohr mag/cell
     absolute magnetization    =    78.67 Bohr mag/cell

     iteration # 16     ecut=    45.00 Ry     beta= 0.10
     Davidson diagonalization with overlap
     ethr =  1.02E-08,  avg # of iterations =  2.4

     total cpu time spent up to now is     2528.4 secs

     total energy              =  -33062.59190695 Ry
     Harris-Foulkes estimate   =  -33062.59184859 Ry
     estimated scf accuracy    <       0.00003534 Ry

     total magnetization       =    -0.48 Bohr mag/cell
     absolute magnetization    =    78.65 Bohr mag/cell

     iteration # 17     ecut=    45.00 Ry     beta= 0.10
     Davidson diagonalization with overlap
     ethr =  5.31E-09,  avg # of iterations =  3.0

     total cpu time spent up to now is     2679.4 secs

     total energy              =  -33062.59190726 Ry
     Harris-Foulkes estimate   =  -33062.59187778 Ry
     estimated scf accuracy    <       0.00001218 Ry

     total magnetization       =    -0.48 Bohr mag/cell
     absolute magnetization    =    78.63 Bohr mag/cell

     iteration # 18     ecut=    45.00 Ry     beta= 0.10
     Davidson diagonalization with overlap
     ethr =  1.83E-09,  avg # of iterations =  3.1

     total cpu time spent up to now is     2855.1 secs

     total energy              =  -33062.59189237 Ry
     Harris-Foulkes estimate   =  -33062.59188353 Ry
     estimated scf accuracy    <       0.00000406 Ry

     total magnetization       =    -0.48 Bohr mag/cell
     absolute magnetization    =    78.62 Bohr mag/cell

     iteration # 19     ecut=    45.00 Ry     beta= 0.10
     Davidson diagonalization with overlap
     ethr =  6.10E-10,  avg # of iterations =  2.0

     total cpu time spent up to now is     2981.1 secs

     total energy              =  -33062.59189060 Ry
     Harris-Foulkes estimate   =  -33062.59188407 Ry
     estimated scf accuracy    <       0.00000215 Ry

     total magnetization       =    -0.48 Bohr mag/cell
     absolute magnetization    =    78.61 Bohr mag/cell

     iteration # 20     ecut=    45.00 Ry     beta= 0.10
     Davidson diagonalization with overlap
     ethr =  3.23E-10,  avg # of iterations =  2.7

     total cpu time spent up to now is     3143.2 secs

     total energy              =  -33062.59189321 Ry
     Harris-Foulkes estimate   =  -33062.59188873 Ry
     estimated scf accuracy    <       0.00000103 Ry

     total magnetization       =    -0.48 Bohr mag/cell
     absolute magnetization    =    78.61 Bohr mag/cell

     iteration # 21     ecut=    45.00 Ry     beta= 0.10
     Davidson diagonalization with overlap
     ethr =  1.54E-10,  avg # of iterations =  2.0
 
     Magnetic moment per site:
     atom:    1    charge:   13.5755    magn:    3.9984    constr:    0.0000
     atom:    2    charge:   13.5835    magn:    3.9334    constr:    0.0000
     atom:    3    charge:   13.5828    magn:    3.9383    constr:    0.0000
     atom:    4    charge:   13.5692    magn:    4.0570    constr:    0.0000
     atom:    5    charge:   13.5825    magn:   -3.9788    constr:    0.0000
     atom:    6    charge:   13.5727    magn:    4.0463    constr:    0.0000
     atom:    7    charge:   13.5732    magn:   -4.0316    constr:    0.0000
     atom:    8    charge:   13.5713    magn:   -4.0342    constr:    0.0000
     atom:    9    charge:   13.5726    magn:   -4.0431    constr:    0.0000
     atom:   10    charge:   13.5705    magn:   -4.0501    constr:    0.0000
     atom:   11    charge:   13.5725    magn:   -4.0417    constr:    0.0000
     atom:   12    charge:   13.5686    magn:   -4.0633    constr:    0.0000
     atom:   13    charge:   13.5836    magn:   -3.9541    constr:    0.0000
     atom:   14    charge:   13.5726    magn:    4.0719    constr:    0.0000
     atom:   15    charge:   13.5806    magn:   -3.9869    constr:    0.0000
     atom:   16    charge:   13.5767    magn:    3.9928    constr:    0.0000
     atom:   17    charge:   13.5790    magn:    3.9557    constr:    0.0000
     atom:   18    charge:   13.5818    magn:    3.9517    constr:    0.0000
     atom:   19    charge:    9.1203    magn:    0.0117    constr:    0.0000
     atom:   20    charge:    9.1204    magn:    0.0107    constr:    0.0000
     atom:   21    charge:    9.1217    magn:    0.0461    constr:    0.0000
     atom:   22    charge:    9.1201    magn:   -0.0404    constr:    0.0000
     atom:   23    charge:    9.1217    magn:   -0.0200    constr:    0.0000
     atom:   24    charge:    9.1209    magn:   -0.0104    constr:    0.0000
     atom:   25    charge:    9.1204    magn:    0.0088    constr:    0.0000
     atom:   26    charge:    9.1206    magn:    0.0083    constr:    0.0000
     atom:   27    charge:    9.1204    magn:    0.0046    constr:    0.0000
     atom:   28    charge:    9.1203    magn:    0.0117    constr:    0.0000
     atom:   29    charge:    9.1204    magn:    0.0107    constr:    0.0000
     atom:   30    charge:    9.1217    magn:    0.0461    constr:    0.0000
     atom:   31    charge:    9.1201    magn:   -0.0404    constr:    0.0000
     atom:   32    charge:    9.1217    magn:   -0.0200    constr:    0.0000
     atom:   33    charge:    9.1209    magn:   -0.0104    constr:    0.0000
     atom:   34    charge:    9.1204    magn:    0.0088    constr:    0.0000
     atom:   35    charge:    9.1206    magn:    0.0083    constr:    0.0000
     atom:   36    charge:    9.1204    magn:    0.0046    constr:    0.0000
     atom:   37    charge:    9.1212    magn:    0.0092    constr:    0.0000
     atom:   38    charge:    9.1202    magn:    0.0015    constr:    0.0000
     atom:   39    charge:    9.1206    magn:    0.0047    constr:    0.0000
     atom:   40    charge:    9.1212    magn:   -0.0516    constr:    0.0000
     atom:   41    charge:    9.1200    magn:   -0.0373    constr:    0.0000
     atom:   42    charge:    9.1218    magn:   -0.0202    constr:    0.0000
     atom:   43    charge:    9.1196    magn:   -0.0146    constr:    0.0000
     atom:   44    charge:    9.1211    magn:    0.0125    constr:    0.0000
     atom:   45    charge:    9.1212    magn:    0.0123    constr:    0.0000
     atom:   46    charge:    9.1212    magn:    0.0092    constr:    0.0000
     atom:   47    charge:    9.1202    magn:    0.0015    constr:    0.0000
     atom:   48    charge:    9.1206    magn:    0.0047    constr:    0.0000
     atom:   49    charge:    9.1212    magn:   -0.0516    constr:    0.0000
     atom:   50    charge:    9.1200    magn:   -0.0373    constr:    0.0000
     atom:   51    charge:    9.1218    magn:   -0.0202    constr:    0.0000
     atom:   52    charge:    9.1196    magn:   -0.0146    constr:    0.0000
     atom:   53    charge:    9.1211    magn:    0.0125    constr:    0.0000
     atom:   54    charge:    9.1212    magn:    0.0123    constr:    0.0000

     total cpu time spent up to now is     3268.2 secs

     End of self-consistent calculation

 ------ SPIN UP ------------


          k = 0.0000 0.0000 0.0000 ( 31747 PWs)   bands (ev):

   -66.7686 -66.7224 -66.7005 -66.6934 -66.6714 -66.6351 -66.6176 -66.5962
   -66.5930 -62.4084 -62.4008 -62.3965 -62.3929 -62.3893 -62.3815 -62.3168
   -62.2998 -62.2943 -35.5290 -35.5121 -35.4933 -35.4884 -35.4715 -35.4714
   -35.4634 -35.4431 -35.4375 -35.4374 -35.4349 -35.4285 -35.4143 -35.4044
   -35.4019 -35.3964 -35.3741 -35.3737 -35.3625 -35.3574 -35.3479 -35.3470
   -35.3415 -35.3414 -35.3400 -35.3316 -35.3292 -31.2450 -31.2421 -31.2369
   -31.2331 -31.2324 -31.2269 -31.2257 -31.2257 -31.2246 -31.2204 -31.2163
   -31.2134 -31.2128 -31.2072 -31.2021 -31.1992 -31.1949 -31.1943 -31.1532
   -31.1522 -31.1478 -31.1435 -31.1279 -31.1253 -31.1157 -31.1012 -31.1006
     5.6173   7.1411   7.1649   7.1967   7.2200   7.3666   7.8488   7.8920
     7.9291   7.9404   8.0612   8.1210   8.1375   8.1764   8.1919   8.2403
     8.2625   8.2967   8.3199   8.5111   8.5455   8.5691   8.5806   8.5971
     8.6107   8.8505   8.8556   8.8657   8.8847   8.8875   8.8901   8.8911
     8.9061   8.9084   8.9139   8.9258   8.9324   8.9624   8.9704   8.9862
     9.0086   9.0851   9.1204   9.1246   9.1311   9.1401   9.1521   9.1597
     9.1846   9.2080   9.2105   9.2676   9.2895   9.3028   9.3055   9.3499
     9.3579   9.3648   9.3704   9.3723   9.3912   9.3964   9.4010   9.4295
     9.4410   9.4487   9.4541   9.4558   9.4580   9.4610   9.4931   9.5796
     9.5813   9.5823   9.5897   9.5949   9.6260   9.6675   9.6707   9.6719
     9.6773   9.6787   9.6958   9.7390   9.7535   9.7884   9.8078   9.8505
     9.8524   9.9039   9.9145   9.9397   9.9550   9.9607  10.0257  10.0430
    10.0939  10.1207  10.1341  10.1611  10.2873  10.2886  10.2929  10.2955
    10.3056  10.3069  10.3078  10.3084  10.3187  10.3298  10.3394  10.3420
    10.3436  10.3548  10.3612  10.3649  10.3660  10.3698  10.3851  10.3964
    10.4014  10.5193  10.5206  10.5721  10.6167  10.6225  10.6397  10.6724
    10.6997  10.7861  10.7888  10.7910  10.8123  10.8152  10.8268  10.8311
    10.8449  10.8541  10.8573  10.8756  10.8768  10.8787  10.8799  10.8893
    10.9093  10.9231  11.0035  11.0329  11.0770  11.1093  11.2131  11.2209
    11.2256  11.2272  11.2342  11.2648  11.3238  11.3247  11.3353  11.3504
    11.3614  11.3817  11.3898  11.3911  11.3939  11.4024  11.4114  11.4177
    11.4456  11.4486  11.5153  11.5913  11.5927  11.5952  11.5992  11.5997
    11.6446  11.6688  11.7265  11.7324  11.7441  11.7540  11.7743  11.8333
    11.8447  11.8682  11.8725  11.8771  11.9223  11.9287  11.9426  11.9553
    11.9768  11.9902  12.0611  12.1015  12.1024  12.1050  12.1063  12.1307
    12.1416  12.1441  12.1487  12.1495  12.1563  12.1798  12.2210  12.2343
    12.2509  12.2584  12.2641  12.2643  12.3338  12.3523  12.3944  12.4081
    12.4363  12.4365  12.4503  12.4919  12.5102  12.5121  12.5217  12.5278
    12.5496  12.5654  12.5826  12.5906  12.5927  12.6005  12.6623  12.7086
    12.7171  12.7235  12.7311  12.7511  12.7668  12.8608  13.0924  13.0987
    13.1172  13.1352  13.2000  13.2202  13.3911  13.6440  13.8128  13.8346
    13.8740  14.0330  14.1391  14.1926  14.2790  14.3553  14.3894  14.6830
    14.7609  14.8152  14.8229  14.9799  15.0249  15.0404  15.1560  15.1646
    15.2104  15.3631  15.3673  15.3978  15.4291  15.4567  15.5654  15.6237
    15.6271  15.7255  15.7308  15.7663  15.7674  15.8734  15.8842  16.0147
    16.0241  16.0483  16.1112  16.1115  16.1198  16.1678  16.1829  16.2086
    16.2605  16.2785  16.3093  16.3176  16.3387  16.3512  16.3727  16.3934
    16.4278  16.4682  16.4757  16.6074  16.6215  16.6980  16.7752  16.7975
    16.9677  17.0325  17.0791  17.1651  17.2152  17.2371  17.2910  17.3169
    17.4501  17.5897  17.8501  17.9087  17.9243  17.9324  17.9714  18.1764
    18.2841  18.3300  18.4246  18.9237  18.9494  19.0541  19.1279  19.2758

          k = 0.0000 0.0000-0.5734 ( 31692 PWs)   bands (ev):

   -66.7686 -66.7224 -66.7005 -66.6934 -66.6714 -66.6351 -66.6176 -66.5962
   -66.5930 -62.4084 -62.4008 -62.3965 -62.3929 -62.3893 -62.3815 -62.3168
   -62.2998 -62.2943 -35.5290 -35.5121 -35.4933 -35.4884 -35.4715 -35.4714
   -35.4634 -35.4431 -35.4375 -35.4374 -35.4349 -35.4285 -35.4143 -35.4044
   -35.4019 -35.3964 -35.3741 -35.3737 -35.3625 -35.3574 -35.3479 -35.3470
   -35.3415 -35.3414 -35.3400 -35.3316 -35.3292 -31.2450 -31.2421 -31.2369
   -31.2331 -31.2324 -31.2269 -31.2257 -31.2257 -31.2246 -31.2204 -31.2163
   -31.2134 -31.2128 -31.2072 -31.2021 -31.1992 -31.1949 -31.1943 -31.1532
   -31.1522 -31.1478 -31.1435 -31.1279 -31.1253 -31.1157 -31.1012 -31.1006
     6.1757   6.1972   7.5395   7.5532   7.5665   7.5840   7.5869   7.6021
     7.6191   7.6302   8.3085   8.3252   8.3392   8.3490   8.3615   8.3694
     8.3783   8.3868   8.4525   8.4558   8.4781   8.4783   8.4900   8.5002
     8.5248   8.5254   8.7010   8.7099   8.7618   8.7806   8.9447   8.9647
     8.9660   8.9807   8.9811   8.9871   8.9874   8.9945   9.0087   9.0179
     9.0284   9.0420   9.0440   9.0571   9.0817   9.1067   9.1947   9.2117
     9.2175   9.2327   9.2465   9.2595   9.2730   9.2746   9.2808   9.2853
     9.2898   9.2904   9.2951   9.3046   9.3078   9.3099   9.4105   9.4105
     9.4300   9.4306   9.4374   9.4483   9.4517   9.4552   9.4629   9.4755
     9.4886   9.4955   9.5021   9.5167   9.5276   9.5470   9.6509   9.6795
     9.7885   9.7934   9.7991   9.8052   9.8060   9.8192   9.8275   9.8354
     9.8791   9.8812   9.8815   9.8833   9.8884   9.8908   9.8922   9.8936
    10.0591  10.0611  10.0636  10.0655  10.1394  10.1569  10.1589  10.1696
    10.1719  10.1864  10.1880  10.1933  10.2046  10.2160  10.3594  10.3611
    10.3762  10.3794  10.3931  10.4044  10.4181  10.4210  10.4789  10.5035
    10.5961  10.5971  10.6134  10.6170  10.6229  10.6358  10.6678  10.6722
    10.6724  10.6890  10.7097  10.7445  10.7527  10.8000  10.8015  10.8162
    10.9808  10.9992  10.9992  11.0074  11.0146  11.0199  11.0388  11.0829
    11.0873  11.0997  11.1073  11.1291  11.1503  11.1655  11.2046  11.2167
    11.2379  11.2437  11.2513  11.2513  11.2621  11.2624  11.2719  11.2729
    11.2742  11.2804  11.2814  11.2835  11.2905  11.2907  11.2970  11.2999
    11.3069  11.3089  11.3251  11.3261  11.5593  11.5743  11.7143  11.7149
    11.7160  11.7205  11.7237  11.7245  11.7265  11.7275  11.7348  11.7661
    11.7767  11.7813  11.7885  11.7965  11.8069  11.8227  11.8292  11.9293
    11.9815  11.9888  11.9947  12.0157  12.0277  12.0329  12.0499  12.0720
    12.1314  12.1711  12.1964  12.2344  12.2582  12.3343  12.3481  12.3688
    12.3759  12.4298  12.4361  12.4769  12.4800  12.4821  12.4853  12.4898
    12.4984  12.5050  12.5352  12.5396  12.5455  12.5542  12.5785  12.6453
    12.6570  12.6793  12.6852  12.7713  12.7832  12.8134  12.9222  12.9693
    12.9828  13.0340  13.0519  13.0748  13.1361  13.1609  13.2274  13.2279
    13.2442  13.2744  13.2871  13.3098  13.3229  13.5419  13.6246  13.7277
    13.9082  13.9619  13.9876  14.1181  14.1543  14.1629  14.2981  14.4738
    14.5214  14.8612  14.9011  14.9136  14.9831  14.9985  15.0061  15.1177
    15.1633  15.1671  15.1733  15.3287  15.3650  15.4144  15.4669  15.5493
    15.6578  15.6634  15.6815  15.7687  15.8004  15.8766  15.9511  15.9791
    16.0826  16.0862  16.1158  16.1490  16.1726  16.1848  16.2065  16.2165
    16.2303  16.2456  16.2538  16.2621  16.2728  16.2881  16.2968  16.2999
    16.3240  16.3524  16.5125  16.5876  16.5932  16.6737  16.7103  16.7412
    16.8473  16.8931  17.3220  17.3278  17.3531  17.4032  17.4817  17.5444
    17.5538  17.5651  17.6638  17.6938  17.7117  17.7437  17.8862  17.9058
    17.9179  17.9204  18.1662  18.2337  18.2338  18.2731  18.2984  18.3285

          k = 0.0000-0.5000 0.0000 ( 31722 PWs)   bands (ev):

   -66.7686 -66.7224 -66.7005 -66.6934 -66.6714 -66.6351 -66.6176 -66.5962
   -66.5930 -62.4084 -62.4008 -62.3965 -62.3929 -62.3893 -62.3815 -62.3168
   -62.2998 -62.2943 -35.5290 -35.5121 -35.4933 -35.4884 -35.4715 -35.4714
   -35.4634 -35.4431 -35.4375 -35.4374 -35.4349 -35.4285 -35.4143 -35.4044
   -35.4019 -35.3965 -35.3738 -35.3737 -35.3625 -35.3575 -35.3479 -35.3470
   -35.3414 -35.3414 -35.3400 -35.3317 -35.3292 -31.2466 -31.2399 -31.2372
   -31.2333 -31.2329 -31.2264 -31.2257 -31.2256 -31.2247 -31.2205 -31.2166
   -31.2128 -31.2128 -31.2072 -31.2021 -31.1996 -31.1950 -31.1943 -31.1532
   -31.1522 -31.1478 -31.1435 -31.1279 -31.1253 -31.1157 -31.1012 -31.1006
     6.0353   6.0552   7.4024   7.4290   7.4800   7.4879   7.6766   7.6799
     8.1108   8.1165   8.1551   8.1731   8.1908   8.1973   8.2694   8.2818
     8.3841   8.4195   8.4797   8.4872   8.6196   8.6364   8.6374   8.6548
     8.6576   8.6746   8.6980   8.7065   8.7827   8.8012   8.8157   8.8313
     8.8569   8.8600   8.8731   8.8932   8.9021   8.9099   8.9215   8.9248
     8.9312   8.9370   8.9493   8.9526   9.0507   9.0532   9.1533   9.1686
     9.2026   9.2083   9.2194   9.2260   9.2281   9.2340   9.3147   9.3274
     9.3570   9.3778   9.3985   9.4055   9.4699   9.4777   9.4856   9.4981
     9.5382   9.5587   9.5621   9.5670   9.5873   9.5981   9.6030   9.6172
     9.6261   9.6262   9.6356   9.6379   9.6408   9.6422   9.6445   9.6459
     9.6499   9.6721   9.6791   9.6895   9.6991   9.7051   9.7085   9.7315
     9.7385   9.7617   9.7630   9.7720   9.8977   9.9016   9.9342   9.9575
    10.0200  10.0351  10.1714  10.1926  10.2075  10.2173  10.2453  10.2471
    10.2757  10.2774  10.2781  10.2853  10.2854  10.2882  10.3366  10.3503
    10.3822  10.3853  10.3884  10.3928  10.4355  10.4424  10.4689  10.4743
    10.4910  10.5023  10.5105  10.5362  10.5555  10.5634  10.5849  10.5901
    10.6605  10.6621  10.6762  10.7089  10.7098  10.7457  10.7468  10.7673
    10.8027  10.8071  10.8365  10.8499  10.8593  10.8654  10.9031  10.9302
    10.9576  10.9667  11.0232  11.0420  11.0648  11.0784  11.1751  11.1814
    11.3021  11.3268  11.3462  11.3511  11.3624  11.3675  11.4149  11.4208
    11.4383  11.4633  11.4879  11.4888  11.4905  11.5342  11.5361  11.5635
    11.5704  11.5996  11.6098  11.6110  11.6305  11.6646  11.7334  11.7468
    11.7513  11.7910  11.8173  11.8291  11.8296  11.8524  11.8640  11.8682
    11.8729  11.8779  11.8868  11.9016  11.9140  11.9213  11.9468  11.9536
    11.9680  11.9812  12.0119  12.0141  12.1001  12.1166  12.1546  12.1645
    12.1724  12.1788  12.2047  12.2219  12.2436  12.2506  12.2515  12.2667
    12.2904  12.3030  12.3343  12.3948  12.4002  12.4006  12.4229  12.4461
    12.4616  12.4689  12.4808  12.5097  12.5146  12.5397  12.5437  12.5756
    12.5897  12.5976  12.6081  12.6252  12.6581  12.6626  12.7487  12.7854
    12.8535  12.8818  12.9537  13.0192  13.0304  13.0409  13.0944  13.1336
    13.1647  13.2207  13.2270  13.2491  13.2782  13.2847  13.3152  13.3972
    13.4785  13.4946  13.5643  13.5844  13.6452  14.3357  14.3893  14.4941
    14.4942  14.7519  14.7683  14.8295  14.9147  14.9759  15.0643  15.1172
    15.1228  15.1303  15.1621  15.2833  15.3250  15.4203  15.5389  15.6043
    15.6317  15.7077  15.7495  15.7837  15.8351  15.8430  15.9036  15.9769
    15.9942  16.0127  16.0168  16.0758  16.0975  16.1072  16.1200  16.1332
    16.1678  16.2045  16.2456  16.2507  16.2793  16.2816  16.3189  16.4005
    16.4120  16.5596  16.6282  16.6662  16.7296  16.7535  17.0031  17.0322
    17.1997  17.2182  17.2842  17.2882  17.5043  17.5239  17.6030  17.6225
    17.6880  17.7565  17.7903  17.7909  17.8735  17.9060  17.9067  17.9104
    17.9832  18.0520  18.1167  18.2255  19.3004  19.3203  19.3368  19.3821

          k = 0.0000-0.5000-0.5734 ( 31696 PWs)   bands (ev):

   -66.7686 -66.7224 -66.7005 -66.6934 -66.6714 -66.6351 -66.6176 -66.5962
   -66.5930 -62.4084 -62.4008 -62.3965 -62.3929 -62.3893 -62.3815 -62.3168
   -62.2998 -62.2943 -35.5290 -35.5121 -35.4933 -35.4884 -35.4715 -35.4714
   -35.4634 -35.4431 -35.4375 -35.4374 -35.4349 -35.4285 -35.4143 -35.4044
   -35.4019 -35.3965 -35.3738 -35.3737 -35.3625 -35.3575 -35.3479 -35.3470
   -35.3414 -35.3414 -35.3400 -35.3317 -35.3292 -31.2466 -31.2399 -31.2372
   -31.2333 -31.2329 -31.2264 -31.2257 -31.2256 -31.2247 -31.2205 -31.2166
   -31.2128 -31.2128 -31.2072 -31.2021 -31.1996 -31.1950 -31.1942 -31.1532
   -31.1522 -31.1478 -31.1435 -31.1279 -31.1252 -31.1157 -31.1012 -31.1006
     6.5518   6.5762   6.5984   6.6147   7.8345   7.8592   7.8767   7.8851
     7.9039   7.9174   7.9229   7.9451   8.2726   8.2778   8.3008   8.3044
     8.5074   8.5144   8.5445   8.5481   8.6621   8.6666   8.6723   8.6775
     8.6800   8.6842   8.7077   8.7139   8.7396   8.7405   8.7477   8.7531
     8.7579   8.7764   8.8009   8.8202   8.9726   8.9974   9.0107   9.0230
     9.0352   9.0444   9.0542   9.0669   9.2038   9.2056   9.2107   9.2130
     9.2157   9.2221   9.2247   9.2263   9.2467   9.2496   9.2563   9.2690
     9.2734   9.2736   9.2999   9.3004   9.3084   9.3210   9.3825   9.4017
     9.4162   9.4254   9.4609   9.4647   9.4653   9.4657   9.4673   9.4898
     9.4949   9.5082   9.5153   9.5236   9.5401   9.5451   9.5451   9.5531
     9.5554   9.5792   9.7570   9.7597   9.7914   9.7956   9.8083   9.8102
     9.8443   9.8478   9.8510   9.8527   9.8593   9.8626   9.8670   9.8877
     9.9713   9.9749   9.9960  10.0075  10.0251  10.0294  10.0585  10.0624
    10.3619  10.3801  10.4008  10.4029  10.4123  10.4201  10.4317  10.4613
    10.4674  10.4696  10.4797  10.4821  10.4917  10.4923  10.5053  10.5089
    10.5090  10.5198  10.5664  10.5772  10.6053  10.6084  10.6126  10.6172
    10.6515  10.6552  10.6747  10.6751  10.6854  10.7008  10.7057  10.7274
    10.7667  10.7864  10.8697  10.8829  10.9637  10.9750  11.0789  11.0839
    11.1121  11.1282  11.1330  11.1414  11.1671  11.1926  11.1970  11.2020
    11.2112  11.2132  11.3017  11.3208  11.3534  11.3638  11.3691  11.3721
    11.3748  11.3858  11.3995  11.4155  11.4848  11.4864  11.4872  11.5177
    11.5195  11.5276  11.5718  11.5720  11.5863  11.6018  11.6374  11.6394
    11.6431  11.6449  11.7184  11.7267  11.7359  11.8005  11.8044  11.8158
    11.9178  11.9272  11.9342  11.9524  11.9605  11.9636  11.9821  12.0180
    12.0355  12.0363  12.0406  12.0447  12.0801  12.0938  12.1138  12.1416
    12.1868  12.1921  12.2214  12.2313  12.2424  12.2891  12.2968  12.3206
    12.3648  12.3821  12.4021  12.4404  12.4491  12.4681  12.4847  12.4909
    12.5107  12.5270  12.5438  12.5511  12.5568  12.5602  12.5815  12.5817
    12.5937  12.6011  12.6434  12.6519  12.6643  12.7270  12.7283  12.7801
    12.7961  12.8260  12.8491  12.8848  12.9109  12.9448  12.9885  13.0308
    13.0627  13.2146  13.5428  13.6087  13.6153  13.6319  13.6887  13.7594
    13.8562  13.9954  14.0090  14.1487  14.2460  14.2521  14.2887  14.4880
    14.4888  14.5478  14.5526  14.6146  14.6261  14.7475  14.7649  14.9009
    14.9097  15.2598  15.2899  15.3404  15.3753  15.3816  15.3952  15.5358
    15.6334  15.7981  15.8079  15.8199  15.8452  15.8797  15.9431  15.9573
    16.0069  16.0244  16.0349  16.0378  16.0445  16.1494  16.1808  16.1934
    16.2087  16.2573  16.2889  16.3208  16.3536  16.3594  16.3801  16.4135
    16.4308  16.5839  16.6010  16.6389  16.6579  16.6979  16.7331  16.7429
    16.7556  16.8301  16.8949  16.8982  16.9423  16.9815  16.9918  16.9977
    17.0598  17.1004  17.1983  17.2731  18.5797  18.6085  18.6675  18.6854
    18.8041  18.8270  18.8337  18.8615  18.8944  18.9015  18.9453  18.9482

          k =-0.5000-0.5000 0.0000 ( 31612 PWs)   bands (ev):

   -66.7686 -66.7224 -66.7005 -66.6934 -66.6714 -66.6351 -66.6176 -66.5962
   -66.5930 -62.4084 -62.4008 -62.3965 -62.3929 -62.3893 -62.3815 -62.3168
   -62.2998 -62.2943 -35.5290 -35.5121 -35.4933 -35.4884 -35.4715 -35.4714
   -35.4634 -35.4431 -35.4375 -35.4374 -35.4349 -35.4285 -35.4143 -35.4044
   -35.4019 -35.3965 -35.3738 -35.3737 -35.3625 -35.3575 -35.3479 -35.3470
   -35.3414 -35.3414 -35.3400 -35.3317 -35.3292 -31.2466 -31.2399 -31.2372
   -31.2333 -31.2329 -31.2264 -31.2257 -31.2256 -31.2247 -31.2205 -31.2166
   -31.2128 -31.2128 -31.2072 -31.2021 -31.1996 -31.1950 -31.1942 -31.1532
   -31.1522 -31.1478 -31.1435 -31.1279 -31.1252 -31.1157 -31.1012 -31.1006
     6.4068   6.4212   6.4501   6.4943   8.0124   8.0149   8.0225   8.0260
     8.1001   8.1115   8.2965   8.3083   8.3214   8.3293   8.3369   8.3399
     8.3481   8.3521   8.3582   8.3719   8.3757   8.4151   8.5906   8.6167
     8.6404   8.6606   8.6782   8.7008   8.7139   8.7178   8.7274   8.7377
     8.7668   8.8162   8.9227   8.9384   8.9537   8.9722   8.9779   8.9787
     8.9798   8.9883   8.9975   9.0130   9.0180   9.0336   9.0470   9.0491
     9.1194   9.1278   9.3100   9.3109   9.3208   9.3227   9.4051   9.4088
     9.4136   9.4232   9.4276   9.4310   9.4373   9.4422   9.4479   9.4533
     9.4595   9.4715   9.4766   9.4776   9.4830   9.4918   9.4959   9.5044
     9.5118   9.5159   9.5352   9.5415   9.5470   9.5664   9.5811   9.5939
     9.6043   9.6135   9.7003   9.7011   9.7754   9.7794   9.8211   9.8271
     9.8286   9.8362   9.8442   9.8492   9.8519   9.8875  10.0397  10.0600
    10.0802  10.1072  10.1245  10.1284  10.1420  10.1501  10.1528  10.1639
    10.1748  10.1803  10.2064  10.2150  10.2245  10.2272  10.2292  10.2354
    10.2378  10.2384  10.2418  10.2562  10.4610  10.4754  10.4901  10.4947
    10.4990  10.5034  10.5084  10.5558  10.5940  10.6216  10.6451  10.6499
    10.6586  10.6649  10.6799  10.6869  10.6951  10.7014  10.7082  10.7104
    10.7144  10.7496  10.7857  10.8225  10.8331  10.8410  10.8686  10.8805
    10.9368  10.9510  11.1962  11.2010  11.2196  11.2321  11.3074  11.3235
    11.3325  11.3423  11.3610  11.3683  11.3857  11.3924  11.5310  11.5473
    11.6046  11.6332  11.6374  11.6434  11.6445  11.6500  11.6526  11.6545
    11.7003  11.7024  11.7265  11.7326  11.7339  11.7475  11.7547  11.7597
    11.8701  11.8772  11.8791  11.8818  11.8856  11.8886  11.9427  11.9458
    12.0023  12.0419  12.0666  12.0844  12.0972  12.1048  12.1072  12.1107
    12.1118  12.1154  12.1203  12.1216  12.1454  12.1465  12.1659  12.1731
    12.1978  12.2007  12.2111  12.2271  12.2274  12.2385  12.2577  12.2737
    12.2748  12.2797  12.2905  12.2969  12.2980  12.3072  12.3130  12.3425
    12.3663  12.3820  12.4164  12.4396  12.4820  12.4930  12.5175  12.5299
    12.5399  12.5701  12.5825  12.6064  12.6090  12.6363  12.6631  12.6636
    12.7060  12.8078  12.8447  12.8738  12.8923  12.9291  12.9441  12.9539
    12.9747  12.9992  13.0002  13.0058  13.0291  13.5633  13.5747  13.6763
    13.6782  13.6789  13.7014  13.8624  13.8797  14.0037  14.0569  14.1795
    14.1993  14.2075  14.3456  14.4527  14.5413  14.6870  14.8085  15.0706
    15.1976  15.2166  15.2312  15.2354  15.3768  15.4869  15.5469  15.7184
    15.7422  15.7980  15.7987  15.8799  15.8854  15.9019  15.9186  15.9495
    15.9775  15.9938  16.0140  16.0179  16.0194  16.0796  16.1061  16.1405
    16.1708  16.1796  16.2550  16.2954  16.3306  16.3468  16.4167  16.4463
    16.4716  16.4928  16.5072  16.6650  16.6677  16.6978  16.7095  16.7220
    16.8570  16.8939  16.9114  16.9230  17.3889  17.3913  17.8093  17.9381
    18.1705  18.1955  18.2217  18.2427  18.2954  18.3148  18.4947  18.5717
    18.5758  18.6443  18.6753  18.7140  18.7477  18.7961  18.7976  18.8084

          k =-0.5000-0.5000-0.5734 ( 31672 PWs)   bands (ev):

   -66.7686 -66.7224 -66.7005 -66.6934 -66.6714 -66.6351 -66.6176 -66.5962
   -66.5930 -62.4084 -62.4008 -62.3965 -62.3929 -62.3893 -62.3815 -62.3168
   -62.2998 -62.2943 -35.5290 -35.5121 -35.4933 -35.4884 -35.4715 -35.4714
   -35.4634 -35.4431 -35.4375 -35.4374 -35.4349 -35.4285 -35.4143 -35.4044
   -35.4019 -35.3965 -35.3738 -35.3737 -35.3625 -35.3575 -35.3479 -35.3470
   -35.3414 -35.3414 -35.3400 -35.3317 -35.3292 -31.2466 -31.2399 -31.2372
   -31.2333 -31.2329 -31.2264 -31.2257 -31.2256 -31.2247 -31.2205 -31.2166
   -31.2128 -31.2128 -31.2072 -31.2021 -31.1996 -31.1950 -31.1943 -31.1532
   -31.1522 -31.1478 -31.1435 -31.1279 -31.1252 -31.1157 -31.1012 -31.1006
     6.8832   6.9171   6.9373   6.9458   6.9958   7.0080   7.0296   7.0557
     8.4480   8.4594   8.4792   8.4842   8.4866   8.4898   8.4923   8.4993
     8.5042   8.5085   8.5141   8.5207   8.5392   8.5458   8.5462   8.5667
     8.5761   8.5920   8.5927   8.6015   8.8767   8.8793   8.8864   8.8966
     8.9087   8.9098   8.9372   8.9510   9.0870   9.1073   9.1142   9.1203
     9.1257   9.1467   9.1517   9.1531   9.1607   9.1614   9.1625   9.1651
     9.1662   9.1674   9.1689   9.1728   9.1747   9.1767   9.1790   9.1821
     9.1851   9.1873   9.1906   9.1984   9.2012   9.2122   9.2184   9.2220
     9.2288   9.2343   9.2365   9.2449   9.2535   9.2669   9.2763   9.2901
     9.5444   9.5527   9.5620   9.5738   9.5834   9.5956   9.6156   9.6250
     9.6497   9.6726   9.6779   9.6895   9.7176   9.7373   9.7511   9.7849
     9.8182   9.8376   9.8431   9.8524   9.8769   9.8839   9.8897   9.8981
    10.1061  10.1201  10.1443  10.1547  10.1694  10.1817  10.1939  10.2023
    10.2944  10.3107  10.4494  10.4631  10.4647  10.4665  10.4795  10.4842
    10.4843  10.4910  10.5019  10.5033  10.5108  10.5133  10.5135  10.5141
    10.5204  10.5339  10.5389  10.5635  10.5725  10.5732  10.5815  10.6006
    10.6064  10.6088  10.6176  10.6406  10.6423  10.6638  10.6652  10.6848
    10.6897  10.6932  10.7040  10.7067  10.7325  10.7359  11.0463  11.0520
    11.0658  11.0703  11.0907  11.1000  11.1300  11.1356  11.3837  11.3858
    11.3959  11.3963  11.4060  11.4273  11.4399  11.4447  11.4754  11.4814
    11.4856  11.4922  11.5024  11.5069  11.5199  11.5306  11.6358  11.6412
    11.6450  11.6465  11.6508  11.6520  11.6951  11.7006  11.7054  11.7247
    11.7278  11.7333  11.7390  11.7419  11.7724  11.7788  11.7816  11.8043
    11.8052  11.8187  11.8236  11.8372  11.8453  11.8683  11.9927  12.0172
    12.0336  12.0556  12.0723  12.0801  12.0882  12.1274  12.1512  12.1618
    12.1788  12.2063  12.2280  12.2313  12.2495  12.2874  12.3247  12.3344
    12.3506  12.3990  12.4029  12.4160  12.4193  12.4297  12.4371  12.4670
    12.4783  12.4950  12.5023  12.5320  12.5357  12.5605  12.5753  12.6015
    12.6145  12.6740  12.7005  12.7238  12.7261  12.7592  12.7742  12.8193
    12.9020  12.9274  12.9533  12.9787  13.1042  13.1369  13.1498  13.2437
    13.2641  13.2825  13.2923  13.3321  13.3513  13.3967  13.4845  13.4982
    13.5282  13.7095  13.7910  13.8142  13.8514  13.9740  14.1351  14.1586
    14.2137  14.3016  14.3424  14.6924  14.8091  14.8321  14.8640  14.8925
    14.9602  15.0676  15.1804  15.3139  15.3355  15.6640  15.6769  15.6854
    15.7019  15.7541  15.8007  15.8914  15.9324  15.9627  15.9680  16.0006
    16.0106  16.0212  16.0889  16.1157  16.1438  16.1646  16.1702  16.2210
    16.2212  16.2341  16.2496  16.3176  16.3320  16.3912  16.3936  16.4939
    16.5319  16.5353  16.5599  16.6007  16.6089  16.6380  16.7028  16.7205
    16.7772  16.7849  16.8100  16.8827  16.8902  16.9636  16.9905  17.0006
    17.1257  17.1285  17.7284  17.8082  17.8575  17.8608  19.0057  19.0123
    19.0406  19.0446  19.0798  19.1091  19.1883  19.2237  19.2330  19.3399

          k =-0.5000 0.0000 0.0000 ( 31722 PWs)   bands (ev):

   -66.7686 -66.7224 -66.7005 -66.6934 -66.6714 -66.6351 -66.6176 -66.5962
   -66.5930 -62.4084 -62.4008 -62.3965 -62.3929 -62.3893 -62.3815 -62.3168
   -62.2998 -62.2943 -35.5290 -35.5121 -35.4933 -35.4884 -35.4715 -35.4714
   -35.4634 -35.4431 -35.4375 -35.4374 -35.4349 -35.4285 -35.4143 -35.4044
   -35.4019 -35.3964 -35.3741 -35.3737 -35.3625 -35.3574 -35.3479 -35.3470
   -35.3415 -35.3414 -35.3400 -35.3316 -35.3292 -31.2450 -31.2421 -31.2369
   -31.2331 -31.2324 -31.2269 -31.2257 -31.2257 -31.2246 -31.2204 -31.2163
   -31.2134 -31.2128 -31.2072 -31.2021 -31.1992 -31.1949 -31.1943 -31.1532
   -31.1522 -31.1478 -31.1435 -31.1279 -31.1253 -31.1157 -31.1012 -31.1006
     6.0186   6.0720   7.4250   7.4311   7.4443   7.5002   7.6760   7.6793
     8.0921   8.1137   8.1459   8.1821   8.2092   8.2353   8.2513   8.2641
     8.4058   8.4214   8.4375   8.4940   8.6336   8.6396   8.6414   8.6469
     8.6579   8.6634   8.7055   8.7126   8.7544   8.8073   8.8322   8.8413
     8.8474   8.8693   8.8841   8.8902   8.8971   8.9101   8.9165   8.9213
     8.9248   8.9305   8.9415   8.9629   9.0461   9.0558   9.1661   9.1687
     9.1831   9.2083   9.2220   9.2269   9.2306   9.2496   9.3382   9.3415
     9.3458   9.3546   9.3836   9.4161   9.4717   9.4869   9.4968   9.5048
     9.5220   9.5338   9.5780   9.5807   9.5867   9.6032   9.6104   9.6129
     9.6212   9.6281   9.6301   9.6316   9.6371   9.6390   9.6442   9.6472
     9.6565   9.6624   9.6781   9.6893   9.6971   9.7052   9.7196   9.7231
     9.7303   9.7456   9.7775   9.7857   9.8878   9.9137   9.9448   9.9669
    10.0219  10.0413  10.1380  10.2002  10.2185  10.2301  10.2517  10.2567
    10.2594  10.2612  10.2615  10.2642  10.2928  10.2982  10.3376  10.3516
    10.3614  10.3761  10.3893  10.3941  10.4315  10.4446  10.4512  10.4724
    10.5261  10.5314  10.5373  10.5544  10.5635  10.5704  10.5735  10.5876
    10.6058  10.6528  10.6567  10.6943  10.7042  10.7403  10.7503  10.7757
    10.7860  10.8192  10.8202  10.8576  10.8604  10.8707  10.9016  10.9428
    10.9993  11.0092  11.0156  11.0252  11.0400  11.0824  11.1721  11.1816
    11.3483  11.3505  11.3527  11.3787  11.3791  11.4010  11.4013  11.4136
    11.4216  11.4347  11.4574  11.4792  11.4794  11.5352  11.5414  11.5424
    11.5611  11.5730  11.5834  11.6178  11.6233  11.6479  11.6703  11.7380
    11.7655  11.7847  11.7915  11.8191  11.8527  11.8681  11.8687  11.8729
    11.8939  11.9001  11.9211  11.9251  11.9411  11.9425  11.9552  11.9600
    11.9696  11.9725  11.9878  11.9956  12.0536  12.0923  12.1690  12.1697
    12.1958  12.2075  12.2099  12.2148  12.2290  12.2528  12.2728  12.2831
    12.2881  12.2944  12.3190  12.3221  12.3445  12.4043  12.4108  12.4456
    12.4488  12.4846  12.4870  12.4929  12.5133  12.5402  12.5482  12.5609
    12.5730  12.6095  12.6185  12.6440  12.6555  12.6640  12.7290  12.7987
    12.8667  13.0077  13.0339  13.0681  13.0988  13.1027  13.1150  13.1443
    13.1651  13.1787  13.2024  13.2333  13.2529  13.2833  13.3416  13.3432
    13.3480  13.4664  13.4992  13.5814  13.6341  14.4528  14.4786  14.5743
    14.6433  14.7361  14.7641  14.7689  14.7981  14.9031  14.9487  14.9913
    15.0504  15.0683  15.1129  15.2527  15.4267  15.4643  15.5378  15.6295
    15.7025  15.7677  15.7887  15.7930  15.8009  15.8107  15.8480  16.0176
    16.0197  16.0595  16.0738  16.0840  16.1202  16.1351  16.1579  16.1762
    16.1903  16.2049  16.2439  16.2528  16.2963  16.3194  16.3703  16.4215
    16.4304  16.4977  16.5579  16.6008  16.6564  16.7788  17.0450  17.0723
    17.1382  17.1888  17.2185  17.3242  17.4051  17.4347  17.6160  17.6355
    17.7214  17.7673  17.7710  17.8256  17.8507  17.8710  17.8749  17.9747
    17.9881  18.0021  18.1762  18.2751  19.2294  19.2938  19.3410  19.3844

          k =-0.5000 0.0000 0.5734 ( 31696 PWs)   bands (ev):

   -66.7686 -66.7224 -66.7005 -66.6934 -66.6714 -66.6351 -66.6176 -66.5962
   -66.5930 -62.4084 -62.4008 -62.3965 -62.3929 -62.3893 -62.3815 -62.3168
   -62.2998 -62.2943 -35.5290 -35.5121 -35.4933 -35.4884 -35.4715 -35.4714
   -35.4634 -35.4431 -35.4375 -35.4374 -35.4349 -35.4285 -35.4143 -35.4044
   -35.4019 -35.3964 -35.3741 -35.3737 -35.3625 -35.3574 -35.3479 -35.3470
   -35.3415 -35.3414 -35.3400 -35.3316 -35.3292 -31.2450 -31.2421 -31.2369
   -31.2331 -31.2324 -31.2269 -31.2257 -31.2257 -31.2246 -31.2204 -31.2163
   -31.2134 -31.2128 -31.2072 -31.2021 -31.1992 -31.1949 -31.1943 -31.1532
   -31.1522 -31.1478 -31.1435 -31.1279 -31.1253 -31.1157 -31.1012 -31.1006
     6.5271   6.5492   6.6259   6.6447   7.8342   7.8604   7.8629   7.8690
     7.9093   7.9159   7.9282   7.9510   8.2714   8.2781   8.3020   8.3049
     8.5173   8.5255   8.5328   8.5360   8.6663   8.6727   8.6746   8.6757
     8.6860   8.7014   8.7122   8.7263   8.7311   8.7368   8.7503   8.7536
     8.7564   8.7848   8.7876   8.7900   8.9534   8.9693   9.0371   9.0426
     9.0433   9.0482   9.0570   9.0595   9.1911   9.2063   9.2140   9.2169
     9.2225   9.2293   9.2358   9.2390   9.2437   9.2472   9.2500   9.2576
     9.2605   9.2653   9.2762   9.2795   9.3035   9.3448   9.3830   9.4064
     9.4170   9.4279   9.4520   9.4566   9.4653   9.4671   9.4691   9.4892
     9.5054   9.5192   9.5210   9.5314   9.5317   9.5460   9.5548   9.5603
     9.5819   9.5978   9.7551   9.7572   9.7954   9.8135   9.8177   9.8214
     9.8229   9.8408   9.8462   9.8505   9.8568   9.8618   9.8673   9.8807
     9.9389   9.9452  10.0169  10.0272  10.0334  10.0471  10.0526  10.0534
    10.3602  10.3765  10.3895  10.3919  10.4070  10.4140  10.4318  10.4403
    10.4516  10.4522  10.4723  10.4760  10.4779  10.4815  10.4912  10.5150
    10.5310  10.5638  10.5691  10.5783  10.5798  10.5910  10.6424  10.6498
    10.6562  10.6590  10.6804  10.6829  10.6923  10.7012  10.7138  10.7271
    10.7701  10.7904  10.8618  10.8796  10.9767  10.9877  11.0303  11.0328
    11.1134  11.1207  11.1476  11.1858  11.1923  11.1939  11.1956  11.2071
    11.2124  11.2138  11.2966  11.2988  11.3427  11.3480  11.3690  11.3811
    11.3848  11.3979  11.4220  11.4480  11.4495  11.4528  11.4874  11.4986
    11.5671  11.5707  11.5823  11.5836  11.5920  11.6127  11.6185  11.6215
    11.6240  11.6275  11.7326  11.7462  11.7463  11.7713  11.7833  11.8815
    11.8894  11.9093  11.9268  11.9379  11.9669  11.9952  12.0046  12.0138
    12.0216  12.0270  12.0300  12.0401  12.0420  12.0433  12.0572  12.0904
    12.2249  12.2355  12.2620  12.2749  12.2794  12.2934  12.3067  12.3299
    12.3432  12.3477  12.3664  12.3725  12.4097  12.4405  12.4427  12.4750
    12.4849  12.4969  12.5005  12.5175  12.5529  12.5619  12.5724  12.6109
    12.6160  12.6400  12.6450  12.6538  12.6542  12.7016  12.7391  12.7667
    12.7792  12.8445  12.9323  12.9836  12.9997  13.0426  13.0858  13.1310
    13.2213  13.2592  13.3593  13.4553  13.4719  13.5562  13.6085  13.9166
    13.9579  13.9769  14.0492  14.0789  14.1540  14.2795  14.3091  14.4160
    14.4225  14.5511  14.5606  14.5758  14.6305  14.7531  14.7700  15.0731
    15.0856  15.1357  15.2010  15.3825  15.3941  15.4214  15.4326  15.4735
    15.4819  15.6647  15.7160  15.7299  15.8367  15.9381  15.9689  16.0252
    16.0477  16.0640  16.1045  16.1501  16.1560  16.2206  16.2263  16.2452
    16.2872  16.3088  16.3509  16.3911  16.3933  16.4065  16.4103  16.4241
    16.4280  16.4451  16.4844  16.5699  16.5706  16.6168  16.6944  16.7418
    16.7866  16.8039  16.8396  16.8597  16.9099  16.9662  16.9774  17.0036
    17.0484  17.0712  17.1621  17.2667  18.6655  18.6958  18.7175  18.7535
    18.7810  18.7876  18.8003  18.8458  18.8773  18.8997  18.9163  18.9171

 ------ SPIN DOWN ----------


          k = 0.0000 0.0000 0.0000 ( 31747 PWs)   bands (ev):

   -66.7849 -66.7634 -66.7436 -66.7395 -66.7312 -66.7268 -66.6117 -66.5822
   -66.5561 -62.4024 -62.3829 -62.3725 -62.3693 -62.3681 -62.3584 -62.3561
   -62.3441 -62.3232 -35.5368 -35.5318 -35.5265 -35.5153 -35.5094 -35.5067
   -35.5049 -35.4954 -35.4894 -35.4876 -35.4828 -35.4807 -35.4797 -35.4758
   -35.4617 -35.4556 -35.4507 -35.4433 -35.3661 -35.3559 -35.3542 -35.3483
   -35.3308 -35.3185 -35.3074 -35.2890 -35.2837 -31.2404 -31.2305 -31.2221
   -31.2151 -31.2132 -31.2132 -31.2084 -31.2056 -31.2043 -31.2011 -31.2002
   -31.1967 -31.1914 -31.1865 -31.1852 -31.1842 -31.1834 -31.1805 -31.1799
   -31.1782 -31.1724 -31.1614 -31.1599 -31.1559 -31.1494 -31.1471 -31.1431
     5.6118   7.1370   7.1669   7.1864   7.2102   7.3613   7.8596   7.8617
     7.9137   7.9496   8.0719   8.1040   8.1353   8.1638   8.1961   8.2315
     8.2607   8.2882   8.3190   8.5213   8.5319   8.5593   8.5722   8.5931
     8.6079   8.8405   8.8642   8.8645   8.8798   8.8836   8.8881   8.9033
     8.9067   8.9074   8.9141   8.9178   8.9264   8.9493   8.9541   8.9789
     8.9950   9.0822   9.1172   9.1197   9.1227   9.1309   9.1578   9.1620
     9.1785   9.2010   9.2148   9.2675   9.2739   9.3014   9.3139   9.3338
     9.3461   9.3524   9.3647   9.3673   9.3828   9.3864   9.4020   9.4254
     9.4401   9.4415   9.4458   9.4486   9.4532   9.4651   9.5088   9.5660
     9.5746   9.5812   9.5847   9.5880   9.6211   9.6633   9.6677   9.6716
     9.6726   9.6747   9.7060   9.7370   9.7572   9.7801   9.7984   9.8494
     9.8500   9.8929   9.9098   9.9287   9.9522   9.9578  10.0189  10.0393
    10.0934  10.1201  10.1301  10.1568  10.2908  10.2919  10.2931  10.2951
    10.2974  10.2988  10.3019  10.3085  10.3100  10.3234  10.3280  10.3423
    10.3480  10.3497  10.3527  10.3548  10.3551  10.3725  10.3823  10.3824
    10.3998  10.5187  10.5196  10.5731  10.6085  10.6096  10.6309  10.6358
    10.6916  10.7611  10.7839  10.7854  10.7898  10.8213  10.8292  10.8379
    10.8426  10.8526  10.8629  10.8685  10.8721  10.8758  10.8798  10.8952
    10.9003  10.9202  10.9972  11.0374  11.0728  11.1082  11.2016  11.2179
    11.2224  11.2273  11.2553  11.2575  11.2791  11.2940  11.3358  11.3385
    11.3643  11.3650  11.3834  11.3901  11.3994  11.4034  11.4080  11.4115
    11.4184  11.4530  11.5870  11.5875  11.5891  11.5952  11.5979  11.6071
    11.6281  11.6709  11.7205  11.7270  11.7319  11.7400  11.7553  11.7861
    11.8320  11.8479  11.8598  11.8688  11.8770  11.8989  11.9326  11.9376
    11.9630  12.0577  12.0983  12.1008  12.1016  12.1030  12.1043  12.1389
    12.1415  12.1440  12.1442  12.1486  12.1525  12.1718  12.1917  12.2177
    12.2457  12.2594  12.3194  12.3208  12.3446  12.3482  12.3658  12.4034
    12.4057  12.4228  12.4341  12.4342  12.4586  12.4805  12.4874  12.4890
    12.5026  12.5198  12.5284  12.5483  12.5733  12.5822  12.5975  12.6250
    12.6815  12.7031  12.7789  12.7841  12.7883  12.8937  12.9942  13.0600
    13.1105  13.1373  13.2151  13.3169  13.3544  13.6612  13.7110  13.7311
    13.8824  14.0079  14.2353  14.2476  14.3106  14.3405  14.4337  14.4364
    14.7315  14.7740  14.7822  15.0185  15.1177  15.1620  15.2069  15.2569
    15.2653  15.2863  15.3107  15.3369  15.3798  15.4456  15.4874  15.5644
    15.6561  15.6853  15.7068  15.8170  15.8690  15.8850  15.9154  15.9377
    16.0034  16.0620  16.0791  16.1302  16.1358  16.1545  16.1598  16.1673
    16.2570  16.2712  16.2794  16.2961  16.3261  16.3387  16.3779  16.3903
    16.4432  16.4871  16.5189  16.5728  16.6142  16.6734  16.7798  16.8928
    17.0254  17.0465  17.0921  17.1660  17.1902  17.2432  17.2690  17.2846
    17.4353  17.5291  17.8851  17.8983  17.9191  17.9498  17.9513  18.1914
    18.2445  18.3192  18.4477  18.9461  19.0000  19.0035  19.0686  19.1780

          k = 0.0000 0.0000-0.5734 ( 31692 PWs)   bands (ev):

   -66.7849 -66.7634 -66.7436 -66.7395 -66.7312 -66.7268 -66.6117 -66.5822
   -66.5561 -62.4024 -62.3829 -62.3725 -62.3693 -62.3681 -62.3584 -62.3561
   -62.3441 -62.3232 -35.5368 -35.5318 -35.5265 -35.5153 -35.5094 -35.5067
   -35.5049 -35.4954 -35.4894 -35.4876 -35.4828 -35.4807 -35.4797 -35.4758
   -35.4617 -35.4556 -35.4507 -35.4433 -35.3661 -35.3559 -35.3542 -35.3483
   -35.3308 -35.3185 -35.3074 -35.2890 -35.2837 -31.2404 -31.2305 -31.2221
   -31.2151 -31.2132 -31.2132 -31.2084 -31.2056 -31.2043 -31.2011 -31.2002
   -31.1967 -31.1914 -31.1865 -31.1852 -31.1842 -31.1834 -31.1805 -31.1799
   -31.1782 -31.1724 -31.1614 -31.1599 -31.1559 -31.1494 -31.1471 -31.1431
     6.1713   6.1896   7.5361   7.5443   7.5627   7.5819   7.5841   7.5945
     7.6130   7.6198   8.3121   8.3247   8.3256   8.3305   8.3612   8.3663
     8.3673   8.3891   8.4578   8.4590   8.4788   8.4834   8.4943   8.4949
     8.5021   8.5034   8.6995   8.7075   8.7605   8.7775   8.9461   8.9650
     8.9653   8.9747   8.9749   8.9801   8.9812   8.9856   9.0086   9.0174
     9.0224   9.0347   9.0424   9.0541   9.0770   9.0984   9.1867   9.1989
     9.2152   9.2277   9.2413   9.2518   9.2739   9.2777   9.2794   9.2836
     9.2868   9.2876   9.2902   9.3024   9.3025   9.3088   9.4112   9.4128
     9.4259   9.4358   9.4407   9.4411   9.4543   9.4549   9.4575   9.4588
     9.4618   9.4775   9.4923   9.5085   9.5242   9.5423   9.6504   9.6746
     9.7821   9.7841   9.7978   9.8050   9.8064   9.8167   9.8289   9.8346
     9.8718   9.8722   9.8771   9.8787   9.8880   9.8893   9.8910   9.8922
    10.0585  10.0599  10.0600  10.0612  10.1314  10.1440  10.1538  10.1631
    10.1664  10.1833  10.1884  10.1945  10.1975  10.2099  10.3483  10.3502
    10.3682  10.3757  10.4016  10.4080  10.4139  10.4149  10.4753  10.4989
    10.5818  10.5829  10.6113  10.6190  10.6341  10.6513  10.6736  10.6757
    10.6781  10.7031  10.7085  10.7318  10.7410  10.7632  10.7758  10.7936
    10.9582  10.9644  10.9997  11.0200  11.0248  11.0304  11.0492  11.0658
    11.0945  11.1173  11.1281  11.1398  11.1453  11.1492  11.1519  11.1541
    11.2217  11.2310  11.2477  11.2495  11.2592  11.2603  11.2634  11.2668
    11.2722  11.2725  11.2802  11.2825  11.2881  11.2887  11.2962  11.2977
    11.3063  11.3067  11.3191  11.3203  11.5668  11.5869  11.7060  11.7079
    11.7080  11.7155  11.7190  11.7230  11.7291  11.7302  11.7332  11.7501
    11.7596  11.7601  11.7732  11.7734  11.7943  11.8509  11.8550  11.9121
    11.9648  11.9721  11.9796  11.9987  12.0078  12.0248  12.0467  12.0615
    12.1398  12.1662  12.1800  12.2171  12.2649  12.3476  12.3491  12.3642
    12.3932  12.4048  12.4069  12.4274  12.4322  12.4331  12.4376  12.4720
    12.4766  12.4995  12.5161  12.5364  12.5430  12.5720  12.5817  12.6095
    12.6512  12.7127  12.7345  12.7475  12.7604  12.7719  12.8886  12.9321
    12.9346  12.9658  13.0631  13.1015  13.1339  13.1571  13.1661  13.2132
    13.2155  13.2410  13.2447  13.2861  13.3144  13.5734  13.6670  13.7462
    13.9151  13.9955  14.0428  14.0710  14.0752  14.1396  14.2932  14.3891
    14.4693  14.8756  14.9003  14.9412  14.9789  15.0092  15.0647  15.0758
    15.1147  15.2161  15.2738  15.3193  15.3374  15.4179  15.4794  15.5249
    15.5744  15.7004  15.7098  15.7493  15.7791  15.8307  15.8720  16.0369
    16.0648  16.0708  16.0984  16.1369  16.1841  16.1935  16.2054  16.2263
    16.2324  16.2497  16.2574  16.2662  16.2693  16.2820  16.3199  16.3235
    16.3473  16.3593  16.5022  16.5769  16.6011  16.6347  16.7439  16.7962
    16.8643  16.9015  17.2670  17.2916  17.2959  17.3288  17.4526  17.4702
    17.5561  17.6046  17.7178  17.7256  17.7697  17.7707  17.8702  17.8761
    17.9166  17.9209  18.1884  18.2007  18.2327  18.2622  18.2935  18.3285

          k = 0.0000-0.5000 0.0000 ( 31722 PWs)   bands (ev):

   -66.7849 -66.7634 -66.7436 -66.7395 -66.7312 -66.7268 -66.6117 -66.5822
   -66.5561 -62.4024 -62.3829 -62.3725 -62.3693 -62.3681 -62.3584 -62.3561
   -62.3441 -62.3232 -35.5368 -35.5322 -35.5260 -35.5153 -35.5095 -35.5067
   -35.5049 -35.4955 -35.4894 -35.4876 -35.4828 -35.4807 -35.4796 -35.4758
   -35.4616 -35.4556 -35.4509 -35.4433 -35.3661 -35.3559 -35.3542 -35.3483
   -35.3308 -35.3185 -35.3074 -35.2890 -35.2837 -31.2404 -31.2305 -31.2221
   -31.2151 -31.2132 -31.2132 -31.2087 -31.2056 -31.2043 -31.2028 -31.2002
   -31.1936 -31.1914 -31.1865 -31.1865 -31.1842 -31.1827 -31.1805 -31.1800
   -31.1782 -31.1728 -31.1614 -31.1599 -31.1559 -31.1494 -31.1471 -31.1431
     6.0326   6.0472   7.4041   7.4095   7.4705   7.4885   7.6695   7.6766
     8.1081   8.1129   8.1424   8.1729   8.1927   8.2042   8.2612   8.2750
     8.3842   8.3939   8.4760   8.4944   8.6175   8.6238   8.6335   8.6523
     8.6560   8.6718   8.6908   8.7101   8.7876   8.8080   8.8142   8.8217
     8.8325   8.8504   8.8753   8.8860   8.8931   8.8993   8.9096   8.9116
     8.9360   8.9421   8.9470   8.9565   9.0458   9.0505   9.1547   9.1571
     9.1905   9.2057   9.2173   9.2201   9.2279   9.2343   9.3100   9.3150
     9.3508   9.3679   9.3960   9.4172   9.4710   9.4744   9.4793   9.4812
     9.5303   9.5468   9.5623   9.5748   9.5841   9.5939   9.6053   9.6131
     9.6183   9.6281   9.6311   9.6330   9.6377   9.6394   9.6420   9.6461
     9.6468   9.6538   9.6627   9.6645   9.7051   9.7105   9.7112   9.7124
     9.7379   9.7474   9.7625   9.7643   9.8955   9.9004   9.9325   9.9563
    10.0179  10.0329  10.1628  10.1909  10.2086  10.2120  10.2502  10.2536
    10.2700  10.2707  10.2717  10.2759  10.2825  10.2847  10.3461  10.3525
    10.3774  10.3798  10.3813  10.3851  10.4241  10.4306  10.4716  10.4808
    10.4859  10.5067  10.5189  10.5201  10.5256  10.5359  10.5847  10.5899
    10.6594  10.6670  10.6876  10.6977  10.7191  10.7194  10.7399  10.7635
    10.8119  10.8248  10.8345  10.8474  10.8584  10.8624  10.8846  10.8986
    10.9471  10.9569  11.0096  11.0188  11.0708  11.0843  11.1782  11.1847
    11.2787  11.3036  11.3452  11.3468  11.3626  11.3646  11.3997  11.4147
    11.4575  11.4597  11.4696  11.4794  11.4927  11.5122  11.5223  11.5608
    11.5805  11.5894  11.5967  11.6069  11.6608  11.6702  11.6814  11.7362
    11.7509  11.7793  11.7919  11.8017  11.8337  11.8555  11.8623  11.8685
    11.8685  11.8731  11.8810  11.9069  11.9205  11.9225  11.9432  11.9504
    11.9636  11.9823  12.0142  12.0164  12.0841  12.1181  12.1528  12.1554
    12.1602  12.1958  12.2078  12.2173  12.2432  12.2484  12.2505  12.2671
    12.2707  12.2919  12.2986  12.3613  12.3745  12.3818  12.3962  12.4131
    12.4433  12.4454  12.4539  12.4598  12.4752  12.5062  12.5267  12.5504
    12.5819  12.5881  12.6128  12.6738  12.7172  12.7261  12.7465  12.7666
    12.7819  12.8499  12.9029  12.9102  12.9767  13.0291  13.1301  13.1479
    13.1621  13.1698  13.2121  13.2324  13.2574  13.3017  13.3149  13.4150
    13.4348  13.4607  13.5196  13.5678  13.6331  14.3277  14.4989  14.5537
    14.5739  14.7462  14.7716  14.8034  14.8486  14.8668  15.0236  15.0739
    15.0993  15.1007  15.1478  15.2633  15.3225  15.4056  15.4991  15.6702
    15.6838  15.7371  15.7668  15.7855  15.8488  15.8735  15.9406  15.9845
    15.9878  16.0215  16.0418  16.0457  16.0581  16.0719  16.1204  16.1450
    16.1887  16.2007  16.2213  16.2357  16.2503  16.2853  16.3327  16.3668
    16.4285  16.4547  16.7011  16.7121  16.7310  16.8285  16.9209  16.9974
    17.1439  17.2240  17.2772  17.2938  17.5518  17.5667  17.6027  17.6042
    17.7248  17.7485  17.7681  17.7848  17.8029  17.8627  17.9049  17.9269
    17.9925  18.1002  18.1153  18.1792  19.2800  19.3139  19.3466  19.3686

          k = 0.0000-0.5000-0.5734 ( 31696 PWs)   bands (ev):

   -66.7849 -66.7634 -66.7436 -66.7395 -66.7312 -66.7268 -66.6117 -66.5822
   -66.5561 -62.4024 -62.3829 -62.3725 -62.3693 -62.3681 -62.3584 -62.3561
   -62.3441 -62.3232 -35.5368 -35.5322 -35.5260 -35.5153 -35.5095 -35.5067
   -35.5049 -35.4955 -35.4894 -35.4876 -35.4828 -35.4807 -35.4796 -35.4758
   -35.4616 -35.4556 -35.4509 -35.4433 -35.3661 -35.3559 -35.3542 -35.3483
   -35.3308 -35.3185 -35.3074 -35.2889 -35.2837 -31.2404 -31.2305 -31.2221
   -31.2151 -31.2132 -31.2132 -31.2087 -31.2056 -31.2043 -31.2028 -31.2002
   -31.1936 -31.1914 -31.1865 -31.1865 -31.1842 -31.1827 -31.1805 -31.1800
   -31.1782 -31.1728 -31.1614 -31.1599 -31.1559 -31.1494 -31.1471 -31.1431
     6.5525   6.5737   6.5886   6.6018   7.8328   7.8490   7.8647   7.8741
     7.9052   7.9205   7.9217   7.9337   8.2690   8.2718   8.2972   8.2987
     8.5109   8.5153   8.5347   8.5358   8.6565   8.6667   8.6684   8.6809
     8.6918   8.6938   8.7060   8.7068   8.7171   8.7215   8.7499   8.7509
     8.7550   8.7596   8.7957   8.8155   8.9745   8.9959   9.0065   9.0185
     9.0340   9.0392   9.0516   9.0610   9.2005   9.2018   9.2108   9.2167
     9.2175   9.2184   9.2235   9.2288   9.2420   9.2501   9.2561   9.2623
     9.2690   9.2709   9.2817   9.2949   9.3004   9.3024   9.3838   9.3995
     9.4104   9.4209   9.4551   9.4579   9.4643   9.4646   9.4720   9.4849
     9.4981   9.5104   9.5107   9.5182   9.5228   9.5301   9.5391   9.5412
     9.5459   9.5619   9.7546   9.7565   9.7911   9.7928   9.8043   9.8054
     9.8300   9.8377   9.8410   9.8433   9.8637   9.8697   9.8731   9.8900
     9.9662   9.9740   9.9872   9.9984  10.0047  10.0165  10.0661  10.0706
    10.3767  10.3956  10.3991  10.4046  10.4056  10.4073  10.4238  10.4557
    10.4654  10.4656  10.4740  10.4753  10.4883  10.4884  10.4948  10.4985
    10.5088  10.5107  10.5572  10.5594  10.5779  10.6064  10.6280  10.6310
    10.6388  10.6443  10.6635  10.6697  10.6884  10.6913  10.7297  10.7337
    10.7501  10.7768  10.8549  10.8658  10.9527  10.9599  11.0800  11.0906
    11.1101  11.1226  11.1252  11.1320  11.1621  11.1815  11.1965  11.2002
    11.2105  11.2111  11.2917  11.3151  11.3527  11.3605  11.3616  11.3733
    11.3733  11.3762  11.4027  11.4090  11.4791  11.4820  11.4833  11.5054
    11.5119  11.5185  11.5802  11.5830  11.5925  11.5989  11.6164  11.6319
    11.6389  11.6465  11.7243  11.7280  11.7418  11.7950  11.7968  11.8037
    11.9139  11.9169  11.9272  11.9389  11.9453  11.9720  11.9789  12.0081
    12.0310  12.0355  12.0361  12.0383  12.0718  12.0999  12.1066  12.1071
    12.1601  12.1624  12.1740  12.1807  12.2412  12.2574  12.2835  12.2960
    12.3295  12.4022  12.4043  12.4261  12.4275  12.4433  12.4462  12.4541
    12.5034  12.5153  12.5325  12.5619  12.5820  12.6015  12.6015  12.6071
    12.6277  12.6343  12.6426  12.6444  12.6465  12.6669  12.6945  12.7231
    12.7406  12.8048  12.8166  12.8871  12.8975  12.9218  12.9285  12.9489
    13.0526  13.1942  13.4037  13.5389  13.5756  13.6083  13.7839  13.7930
    13.9031  14.0628  14.0910  14.2662  14.2689  14.3178  14.3291  14.4206
    14.4368  14.5247  14.5476  14.5566  14.5773  14.6148  14.6207  14.8972
    14.9004  15.2620  15.2893  15.3400  15.4041  15.4765  15.4815  15.5050
    15.6030  15.7175  15.7822  15.8282  15.8625  15.8747  15.9067  15.9669
    15.9762  16.0627  16.0882  16.1084  16.1229  16.1274  16.1434  16.1813
    16.1856  16.2644  16.2904  16.3136  16.3507  16.3551  16.3936  16.4040
    16.4299  16.5315  16.5531  16.5596  16.6133  16.6232  16.7330  16.7611
    16.8106  16.8228  16.9193  16.9256  16.9729  16.9834  16.9958  17.0329
    17.1067  17.1547  17.1720  17.1935  18.6028  18.6309  18.6590  18.6730
    18.7431  18.7736  18.8525  18.8728  18.8943  18.9157  18.9175  18.9425

          k =-0.5000-0.5000 0.0000 ( 31612 PWs)   bands (ev):

   -66.7849 -66.7634 -66.7436 -66.7395 -66.7312 -66.7268 -66.6117 -66.5822
   -66.5561 -62.4024 -62.3829 -62.3725 -62.3693 -62.3681 -62.3584 -62.3561
   -62.3441 -62.3232 -35.5368 -35.5322 -35.5260 -35.5153 -35.5095 -35.5067
   -35.5049 -35.4955 -35.4894 -35.4876 -35.4828 -35.4807 -35.4796 -35.4758
   -35.4616 -35.4556 -35.4509 -35.4433 -35.3661 -35.3559 -35.3542 -35.3483
   -35.3308 -35.3185 -35.3074 -35.2890 -35.2837 -31.2404 -31.2305 -31.2221
   -31.2151 -31.2132 -31.2132 -31.2087 -31.2056 -31.2043 -31.2028 -31.2002
   -31.1936 -31.1914 -31.1865 -31.1865 -31.1842 -31.1827 -31.1805 -31.1800
   -31.1782 -31.1728 -31.1614 -31.1599 -31.1559 -31.1494 -31.1471 -31.1431
     6.4070   6.4301   6.4543   6.4565   8.0030   8.0095   8.0156   8.0268
     8.0974   8.1091   8.2832   8.3174   8.3271   8.3353   8.3372   8.3431
     8.3457   8.3500   8.3536   8.3574   8.3680   8.3754   8.5865   8.6084
     8.6404   8.6613   8.6789   8.6975   8.7092   8.7157   8.7285   8.7406
     8.7727   8.7776   8.9155   8.9319   8.9536   8.9706   8.9754   8.9758
     8.9826   8.9892   9.0019   9.0044   9.0155   9.0183   9.0318   9.0475
     9.1170   9.1244   9.3019   9.3059   9.3179   9.3265   9.3965   9.4090
     9.4176   9.4231   9.4240   9.4275   9.4300   9.4420   9.4479   9.4508
     9.4616   9.4685   9.4707   9.4763   9.4803   9.4809   9.4863   9.4961
     9.4988   9.5042   9.5132   9.5309   9.5441   9.5581   9.5790   9.5896
     9.6067   9.6089   9.6980   9.6992   9.7567   9.7986   9.8179   9.8317
     9.8323   9.8339   9.8346   9.8420   9.8498   9.8575  10.0419  10.0609
    10.0796  10.0999  10.1097  10.1108  10.1385  10.1444  10.1519  10.1624
    10.1773  10.1907  10.2015  10.2122  10.2207  10.2214  10.2251  10.2274
    10.2283  10.2303  10.2382  10.2476  10.4409  10.4786  10.4919  10.4948
    10.4980  10.5060  10.5262  10.5460  10.6091  10.6244  10.6389  10.6467
    10.6590  10.6617  10.6777  10.6811  10.6832  10.6865  10.6896  10.6965
    10.7018  10.7054  10.8079  10.8115  10.8304  10.8496  10.8651  10.8804
    10.9342  10.9480  11.1975  11.2080  11.2153  11.2166  11.3075  11.3215
    11.3228  11.3368  11.3497  11.3622  11.3865  11.3947  11.5423  11.5595
    11.5711  11.5800  11.6385  11.6438  11.6445  11.6447  11.6463  11.6476
    11.6725  11.6884  11.6895  11.7154  11.7263  11.7286  11.7737  11.7748
    11.8747  11.8749  11.8771  11.8790  11.8854  11.8860  11.9714  11.9955
    12.0053  12.0067  12.0626  12.0657  12.0659  12.1048  12.1082  12.1089
    12.1128  12.1134  12.1143  12.1197  12.1448  12.1449  12.1499  12.1604
    12.1719  12.1779  12.1933  12.2044  12.2171  12.2563  12.2647  12.2660
    12.2749  12.2807  12.2866  12.2884  12.2895  12.2939  12.2949  12.3219
    12.3604  12.3693  12.4379  12.4441  12.4582  12.5030  12.5265  12.5341
    12.5384  12.5471  12.5630  12.5726  12.5798  12.6131  12.6446  12.6565
    12.6575  12.6975  12.7431  12.8071  12.8488  12.8610  12.8907  12.9246
    12.9717  12.9739  13.0134  13.0228  13.1308  13.5450  13.5960  13.6185
    13.6542  13.6812  13.7027  13.9123  13.9424  13.9500  14.1078  14.1455
    14.1610  14.2206  14.4633  14.4827  14.4994  14.5645  14.7378  15.1095
    15.1253  15.1914  15.2106  15.2685  15.3678  15.4020  15.6635  15.7612
    15.7729  15.7985  15.8090  15.8118  15.8783  15.9019  15.9202  15.9648
    15.9814  15.9897  16.0001  16.0131  16.0370  16.0467  16.0643  16.1624
    16.1843  16.2007  16.2903  16.3117  16.3186  16.3231  16.3465  16.4204
    16.4865  16.4900  16.5387  16.6597  16.6716  16.6889  16.6952  16.7272
    16.7808  16.8883  16.9580  16.9789  17.3845  17.3885  17.7983  17.9272
    18.1634  18.1911  18.2048  18.2094  18.2641  18.4159  18.5293  18.5510
    18.6122  18.6362  18.6429  18.6667  18.7349  18.7901  18.7987  18.8028

          k =-0.5000-0.5000-0.5734 ( 31672 PWs)   bands (ev):

   -66.7849 -66.7634 -66.7436 -66.7395 -66.7312 -66.7268 -66.6117 -66.5822
   -66.5561 -62.4024 -62.3829 -62.3725 -62.3693 -62.3681 -62.3584 -62.3561
   -62.3441 -62.3232 -35.5368 -35.5322 -35.5260 -35.5153 -35.5095 -35.5067
   -35.5049 -35.4955 -35.4894 -35.4876 -35.4828 -35.4807 -35.4796 -35.4758
   -35.4616 -35.4556 -35.4509 -35.4433 -35.3661 -35.3559 -35.3542 -35.3483
   -35.3308 -35.3185 -35.3074 -35.2890 -35.2837 -31.2404 -31.2305 -31.2221
   -31.2151 -31.2132 -31.2132 -31.2087 -31.2056 -31.2043 -31.2028 -31.2002
   -31.1936 -31.1914 -31.1865 -31.1865 -31.1842 -31.1827 -31.1805 -31.1800
   -31.1782 -31.1728 -31.1614 -31.1599 -31.1559 -31.1494 -31.1471 -31.1431
     6.8865   6.9153   6.9199   6.9297   6.9933   7.0044   7.0295   7.0467
     8.4502   8.4581   8.4688   8.4753   8.4824   8.4863   8.4888   8.4916
     8.5014   8.5039   8.5155   8.5218   8.5372   8.5401   8.5419   8.5609
     8.5700   8.5716   8.5946   8.6072   8.8771   8.8807   8.8849   8.8863
     8.9069   8.9120   8.9254   8.9309   9.0896   9.1087   9.1103   9.1179
     9.1237   9.1447   9.1466   9.1494   9.1509   9.1544   9.1545   9.1632
     9.1634   9.1678   9.1685   9.1695   9.1720   9.1746   9.1766   9.1816
     9.1831   9.1840   9.1901   9.1909   9.1967   9.2037   9.2061   9.2186
     9.2329   9.2340   9.2404   9.2417   9.2537   9.2586   9.2613   9.2697
     9.5433   9.5442   9.5603   9.5710   9.5772   9.5830   9.6100   9.6145
     9.6476   9.6601   9.6656   9.6780   9.7190   9.7386   9.7540   9.7778
     9.8167   9.8385   9.8447   9.8503   9.8759   9.8772   9.8846   9.8955
    10.1151  10.1261  10.1399  10.1499  10.1658  10.1713  10.1779  10.1787
    10.2911  10.3052  10.4430  10.4511  10.4669  10.4675  10.4733  10.4746
    10.4843  10.4866  10.4913  10.4958  10.4991  10.5024  10.5152  10.5176
    10.5211  10.5280  10.5375  10.5471  10.5607  10.5609  10.5791  10.5843
    10.5977  10.6185  10.6318  10.6410  10.6490  10.6703  10.6782  10.6836
    10.6904  10.6912  10.7007  10.7054  10.7169  10.7208  11.0430  11.0474
    11.0592  11.0666  11.0930  11.0945  11.1097  11.1098  11.3697  11.3699
    11.3966  11.3985  11.4016  11.4256  11.4411  11.4501  11.4660  11.4711
    11.4769  11.4911  11.5007  11.5069  11.5080  11.5160  11.6381  11.6400
    11.6446  11.6467  11.6696  11.6720  11.6861  11.6879  11.7022  11.7231
    11.7246  11.7275  11.7341  11.7437  11.7753  11.7768  11.7845  11.7877
    11.7984  11.8011  11.8124  11.8286  11.8320  11.8401  11.9900  12.0066
    12.0152  12.0501  12.0578  12.0646  12.1037  12.1230  12.1312  12.1392
    12.1647  12.1863  12.2046  12.2172  12.2431  12.2690  12.2860  12.2920
    12.2951  12.3495  12.4031  12.4219  12.4278  12.4367  12.4557  12.4584
    12.4821  12.4837  12.5396  12.5572  12.5655  12.5782  12.5876  12.5933
    12.6195  12.6508  12.6794  12.6848  12.6921  12.7046  12.7156  12.7619
    12.8102  12.8408  12.9555  12.9588  13.0731  13.0820  13.1133  13.1716
    13.2472  13.2876  13.2969  13.3144  13.4114  13.4718  13.5228  13.5420
    13.6237  13.6928  13.8431  13.8705  13.8778  13.9196  14.0748  14.1133
    14.1443  14.1672  14.2284  14.6474  14.7129  14.7490  14.8454  15.0620
    15.0633  15.1757  15.2153  15.4432  15.4446  15.5817  15.6648  15.7008
    15.7021  15.7824  15.8282  15.8330  15.8693  15.9050  15.9196  15.9385
    15.9488  15.9923  16.0689  16.0713  16.1376  16.1829  16.1866  16.2067
    16.2152  16.2195  16.2343  16.2412  16.3472  16.4204  16.4573  16.4959
    16.5170  16.5227  16.5889  16.5981  16.6434  16.6760  16.6817  16.6865
    16.7726  16.8556  16.8697  16.8903  16.8963  16.9328  16.9839  17.0186
    17.0791  17.1052  17.7317  17.8075  17.8531  17.8574  19.0119  19.0178
    19.0504  19.0511  19.0630  19.0950  19.1688  19.2349  19.3005  19.3036

          k =-0.5000 0.0000 0.0000 ( 31722 PWs)   bands (ev):

   -66.7849 -66.7634 -66.7436 -66.7395 -66.7312 -66.7268 -66.6117 -66.5822
   -66.5561 -62.4024 -62.3829 -62.3725 -62.3693 -62.3681 -62.3584 -62.3561
   -62.3441 -62.3232 -35.5368 -35.5318 -35.5265 -35.5153 -35.5094 -35.5067
   -35.5049 -35.4954 -35.4894 -35.4876 -35.4828 -35.4807 -35.4797 -35.4758
   -35.4617 -35.4556 -35.4507 -35.4433 -35.3661 -35.3559 -35.3542 -35.3483
   -35.3308 -35.3185 -35.3074 -35.2890 -35.2837 -31.2404 -31.2305 -31.2221
   -31.2151 -31.2132 -31.2132 -31.2084 -31.2056 -31.2043 -31.2011 -31.2002
   -31.1967 -31.1914 -31.1865 -31.1852 -31.1842 -31.1834 -31.1805 -31.1799
   -31.1782 -31.1724 -31.1614 -31.1599 -31.1559 -31.1494 -31.1471 -31.1431
     6.0221   6.0566   7.4104   7.4495   7.4573   7.4608   7.6607   7.6841
     8.1023   8.1059   8.1299   8.1919   8.2070   8.2305   8.2398   8.2462
     8.3924   8.4449   8.4509   8.4541   8.6257   8.6328   8.6462   8.6535
     8.6663   8.6708   8.6723   8.6973   8.7606   8.7836   8.8143   8.8352
     8.8617   8.8647   8.8775   8.8786   8.9141   8.9161   8.9168   8.9182
     8.9248   8.9274   8.9352   8.9355   9.0353   9.0602   9.1595   9.1842
     9.1909   9.1986   9.2171   9.2207   9.2259   9.2272   9.3161   9.3396
     9.3623   9.3724   9.3796   9.3831   9.4770   9.4808   9.4894   9.5228
     9.5308   9.5313   9.5340   9.5755   9.5868   9.5960   9.6019   9.6049
     9.6107   9.6210   9.6280   9.6311   9.6314   9.6342   9.6358   9.6455
     9.6520   9.6626   9.6724   9.6797   9.6967   9.7143   9.7151   9.7329
     9.7400   9.7426   9.7520   9.7571   9.8970   9.9016   9.9454   9.9692
     9.9964  10.0605  10.1446  10.1854  10.2164  10.2305  10.2474  10.2492
    10.2603  10.2647  10.2681  10.2742  10.2771  10.2799  10.3439  10.3502
    10.3550  10.3711  10.3768  10.3828  10.4292  10.4352  10.4454  10.4518
    10.5252  10.5302  10.5460  10.5555  10.5635  10.5688  10.5789  10.5896
    10.5950  10.6065  10.6635  10.6644  10.7136  10.7275  10.7552  10.7735
    10.7969  10.8092  10.8230  10.8514  10.8640  10.8771  10.8861  10.9074
    10.9842  11.0064  11.0129  11.0212  11.0421  11.0982  11.1682  11.1754
    11.3429  11.3471  11.3486  11.3570  11.3741  11.3829  11.3917  11.3953
    11.4020  11.4168  11.4490  11.4810  11.4930  11.5355  11.5412  11.5433
    11.5651  11.5901  11.6066  11.6172  11.6225  11.6298  11.6787  11.6986
    11.7487  11.7673  11.7846  11.7863  11.8014  11.8147  11.8505  11.8506
    11.9034  11.9077  11.9103  11.9239  11.9368  11.9371  11.9450  11.9599
    11.9747  11.9789  11.9844  12.0140  12.0976  12.1026  12.1607  12.1696
    12.1926  12.1976  12.2061  12.2113  12.2389  12.2477  12.2562  12.2659
    12.2804  12.3311  12.3367  12.3613  12.3629  12.3704  12.3865  12.3934
    12.3956  12.4240  12.4382  12.4481  12.4582  12.4786  12.5188  12.5439
    12.5542  12.5853  12.6137  12.6485  12.6561  12.7484  12.7669  12.9003
    12.9056  12.9436  12.9670  12.9905  13.0229  13.0646  13.0836  13.1442
    13.1512  13.1603  13.1921  13.2034  13.2279  13.2405  13.2734  13.3170
    13.4365  13.4579  13.4779  13.5810  13.6236  14.4953  14.5301  14.5638
    14.6298  14.6912  14.7223  14.7798  14.8010  14.8469  14.8675  15.0063
    15.0136  15.1361  15.2988  15.3088  15.4089  15.4106  15.4581  15.5010
    15.5776  15.7315  15.7722  15.8557  15.8801  15.8840  15.9278  15.9998
    16.0149  16.0160  16.0472  16.0966  16.1053  16.1246  16.1890  16.2015
    16.2280  16.2310  16.2319  16.2734  16.2963  16.3180  16.3354  16.3763
    16.4287  16.4429  16.5237  16.6548  16.7091  16.7853  17.0194  17.0657
    17.1436  17.1913  17.2238  17.2955  17.3529  17.4106  17.6185  17.6255
    17.6771  17.7470  17.8257  17.8296  17.8644  17.8769  17.9141  17.9201
    18.0192  18.0539  18.1228  18.2397  19.2535  19.3057  19.3207  19.3821

          k =-0.5000 0.0000 0.5734 ( 31696 PWs)   bands (ev):

   -66.7849 -66.7634 -66.7436 -66.7395 -66.7312 -66.7268 -66.6117 -66.5822
   -66.5561 -62.4024 -62.3829 -62.3725 -62.3693 -62.3681 -62.3584 -62.3561
   -62.3441 -62.3232 -35.5368 -35.5318 -35.5265 -35.5153 -35.5094 -35.5067
   -35.5049 -35.4954 -35.4894 -35.4876 -35.4828 -35.4807 -35.4797 -35.4758
   -35.4617 -35.4556 -35.4507 -35.4433 -35.3661 -35.3559 -35.3542 -35.3483
   -35.3308 -35.3185 -35.3074 -35.2889 -35.2837 -31.2404 -31.2305 -31.2221
   -31.2151 -31.2132 -31.2132 -31.2084 -31.2056 -31.2043 -31.2011 -31.2002
   -31.1967 -31.1914 -31.1865 -31.1852 -31.1842 -31.1834 -31.1805 -31.1799
   -31.1782 -31.1724 -31.1614 -31.1599 -31.1559 -31.1494 -31.1471 -31.1431
     6.5187   6.5380   6.6264   6.6414   7.8338   7.8463   7.8490   7.8624
     7.9041   7.9137   7.9307   7.9425   8.2688   8.2719   8.2992   8.3006
     8.5168   8.5222   8.5276   8.5291   8.6694   8.6724   8.6800   8.6876
     8.6890   8.6938   8.7079   8.7206   8.7303   8.7313   8.7382   8.7421
     8.7510   8.7749   8.7798   8.7815   8.9478   8.9641   9.0348   9.0416
     9.0434   9.0438   9.0519   9.0542   9.1689   9.1865   9.2105   9.2157
     9.2170   9.2232   9.2331   9.2335   9.2394   9.2408   9.2454   9.2550
     9.2569   9.2575   9.2696   9.2729   9.3222   9.3546   9.3857   9.4043
     9.4148   9.4263   9.4479   9.4541   9.4590   9.4628   9.4654   9.4754
     9.5056   9.5115   9.5146   9.5243   9.5329   9.5402   9.5483   9.5546
     9.5789   9.5941   9.7514   9.7532   9.7966   9.8079   9.8097   9.8135
     9.8213   9.8329   9.8333   9.8402   9.8563   9.8608   9.8609   9.8775
     9.9491   9.9541  10.0103  10.0115  10.0284  10.0363  10.0495  10.0547
    10.3576  10.3655  10.3680  10.3713  10.3895  10.3933  10.4343  10.4366
    10.4427  10.4554  10.4615  10.4641  10.4730  10.5031  10.5180  10.5285
    10.5477  10.5501  10.5593  10.5712  10.5888  10.6061  10.6327  10.6412
    10.6516  10.6549  10.6717  10.6754  10.6889  10.6935  10.7292  10.7329
    10.7521  10.7808  10.8306  10.8402  10.9853  10.9904  11.0062  11.0126
    11.1114  11.1276  11.1511  11.1785  11.1833  11.1855  11.1930  11.1931
    11.2110  11.2111  11.3261  11.3262  11.3335  11.3392  11.3697  11.3829
    11.3837  11.3877  11.4140  11.4451  11.4452  11.4489  11.4860  11.4979
    11.5490  11.5492  11.5627  11.5684  11.5723  11.5754  11.6032  11.6277
    11.6405  11.6431  11.7345  11.7424  11.7513  11.7704  11.7837  11.8781
    11.8851  11.9067  11.9146  11.9186  11.9688  11.9751  11.9977  12.0044
    12.0090  12.0294  12.0325  12.0347  12.0352  12.0386  12.0422  12.0605
    12.1972  12.2176  12.2516  12.2569  12.2720  12.2772  12.3088  12.3316
    12.3357  12.3476  12.3694  12.3752  12.3829  12.4104  12.4440  12.4495
    12.4653  12.4742  12.4911  12.4954  12.5274  12.5356  12.5525  12.5816
    12.5963  12.6451  12.6478  12.6555  12.6644  12.6713  12.6882  12.7424
    12.7746  12.8304  12.8531  12.9392  12.9523  12.9699  12.9764  13.1546
    13.2866  13.2989  13.3929  13.4347  13.5368  13.6751  13.7153  13.8926
    13.9629  14.0154  14.0233  14.0800  14.1155  14.1574  14.1645  14.2013
    14.3049  14.5465  14.5558  14.6531  14.6787  14.7339  14.7763  15.0353
    15.0370  15.2938  15.2965  15.4165  15.4405  15.4475  15.5111  15.5726
    15.5889  15.6150  15.6582  15.6986  15.7356  15.8659  15.8849  15.9483
    15.9765  16.0974  16.1224  16.1699  16.1802  16.2018  16.2142  16.2199
    16.2826  16.2835  16.3017  16.3428  16.3887  16.3974  16.4135  16.4302
    16.4642  16.5384  16.5455  16.5818  16.5937  16.6334  16.6672  16.7243
    16.7640  16.7736  16.8363  16.8381  16.8890  16.8904  16.9511  17.0028
    17.1394  17.1612  17.2019  17.2046  18.6736  18.6781  18.6944  18.7120
    18.7432  18.7653  18.8053  18.8067  18.8685  18.8803  18.9862  19.0046

     the Fermi energy is    14.8204 ev

!    total energy              =  -33062.59191032 Ry
     Harris-Foulkes estimate   =  -33062.59189230 Ry
     estimated scf accuracy    <       0.00000063 Ry

     total all-electron energy =  -1410574.682285 Ry

     The total energy is the sum of the following terms:

     one-electron contribution =   -1645.68387397 Ry
     hartree contribution      =    1489.90200321 Ry
     xc contribution           =   -1658.74059467 Ry
     ewald contribution        =   -4919.25534656 Ry
     one-center paw contrib.   =  -26328.81409833 Ry

     total magnetization       =    -0.49 Bohr mag/cell
     absolute magnetization    =    78.61 Bohr mag/cell

     convergence has been achieved in  21 iterations

     Writing output data file mnau2.save
 
     init_run     :     52.37s CPU     53.11s WALL (       1 calls)
     electrons    :   3157.37s CPU   3216.53s WALL (       1 calls)

     Called by init_run:
     wfcinit      :     46.44s CPU     46.94s WALL (       1 calls)
     potinit      :      2.48s CPU      2.53s WALL (       1 calls)

     Called by electrons:
     c_bands      :   2815.31s CPU   2858.27s WALL (      21 calls)
     sum_band     :    286.83s CPU    292.77s WALL (      21 calls)
     v_of_rho     :      5.67s CPU      5.82s WALL (      22 calls)
     newd         :     17.71s CPU     20.19s WALL (      22 calls)
     PAW_pot      :     32.62s CPU     33.13s WALL (      22 calls)
     mix_rho      :      1.12s CPU      1.19s WALL (      21 calls)

     Called by c_bands:
     init_us_2    :     10.39s CPU     10.46s WALL (     688 calls)
     cegterg      :   2749.46s CPU   2791.44s WALL (     336 calls)

     Called by sum_band:
     sum_band:bec :      1.63s CPU      1.63s WALL (     336 calls)
     addusdens    :     31.63s CPU     34.45s WALL (      21 calls)

     Called by *egterg:
     h_psi        :    966.85s CPU    976.98s WALL (    1352 calls)
     s_psi        :    234.36s CPU    234.48s WALL (    1352 calls)
     g_psi        :      3.62s CPU      3.62s WALL (    1000 calls)
     cdiaghg      :    995.04s CPU    995.47s WALL (    1336 calls)

     Called by h_psi:
     h_psi:pot    :    957.84s CPU    967.91s WALL (    1352 calls)
     h_psi:calbec :    234.86s CPU    237.04s WALL (    1352 calls)
     vloc_psi     :    486.99s CPU    494.76s WALL (    1352 calls)
     add_vuspsi   :    235.97s CPU    236.10s WALL (    1352 calls)

     General routines
     calbec       :    335.40s CPU    338.59s WALL (    1688 calls)
     fft          :      4.78s CPU      5.08s WALL (     672 calls)
     ffts         :      0.10s CPU      0.10s WALL (      86 calls)
     fftw         :    451.77s CPU    458.86s WALL (  750928 calls)
     interpolate  :      0.83s CPU      0.87s WALL (      86 calls)
 
     Parallel routines
     fft_scatt_xy :     57.34s CPU     58.08s WALL (  751686 calls)
     fft_scatt_yz :    118.92s CPU    121.93s WALL (  751686 calls)
 
     PWSCF        : 53m35.33s CPU    55m44.47s WALL

 
   This run was terminated on:  20:11:15   4Mar2019            

=------------------------------------------------------------------------------=
   JOB DONE.
=------------------------------------------------------------------------------=
