
     Program PWSCF v.6.2 (svn rev. 14038) starts on  4Mar2019 at 20:11:16 

     This program is part of the open-source Quantum ESPRESSO suite
     for quantum simulation of materials; please cite
         "P. Giannozzi et al., J. Phys.:Condens. Matter 21 395502 (2009);
         "P. Giannozzi et al., J. Phys.:Condens. Matter 29 465901 (2017);
          URL http://www.quantum-espresso.org", 
     in publications or presentations arising from this work. More details at
     http://www.quantum-espresso.org/quote

     Parallel version (MPI), running on    16 processors

     MPI processes distributed on     1 nodes
     R & G space division:  proc/nbgrp/npool/nimage =      16
     Waiting for input...
     Reading input from standard input

     Current dimensions of program PWSCF are:
     Max number of different atomic species (ntypx) = 10
     Max number of k-points (npk) =  40000
     Max angular momentum in pseudopotentials (lmaxx) =  3
               file Mn.pbe-spn-kjpaw_psl.0.3.1.UPF: wavefunction(s)  3P 3D renormalized
               file Mn.pbe-spn-kjpaw_psl.0.3.1.UPF: wavefunction(s)  3P 3D renormalized
               file Au.pbe-dn-kjpaw_psl.0.1.UPF: wavefunction(s)  6S 6P 5D renormalized

     Subspace diagonalization in iterative solution of the eigenvalue problem:
     a serial algorithm will be used

 
     Parallelization info
     --------------------
     sticks:   dense  smooth     PW     G-vecs:    dense   smooth      PW
     Min         736     331     90                52486    15847    2256
     Max         737     332     91                52489    15850    2259
     Sum       11785    5297   1449               839803   253559   36125
 


     bravais-lattice index     =            0
     lattice parameter (alat)  =      19.2459  a.u.
     unit-cell volume          =    6216.1497 (a.u.)^3
     number of atoms/cell      =           54
     number of atomic types    =            3
     number of electrons       =       666.00
     number of Kohn-Sham states=          400
     kinetic-energy cutoff     =      45.0000  Ry
     charge density cutoff     =     400.0000  Ry
     convergence threshold     =      1.0E-06
     mixing beta               =       0.1000
     number of iterations used =            8  plain     mixing
     Exchange-correlation      = SLA PW PBX PBC ( 1  4  3  4 0 0)

     celldm(1)=  19.245946  celldm(2)=   0.000000  celldm(3)=   0.000000
     celldm(4)=   0.000000  celldm(5)=   0.000000  celldm(6)=   0.000000

     crystal axes: (cart. coord. in units of alat)
               a(1) = (   1.000000   0.000000   0.000000 )  
               a(2) = (   0.000000   1.000000   0.000000 )  
               a(3) = (   0.000000   0.000000   0.871974 )  

     reciprocal axes: (cart. coord. in units 2 pi/alat)
               b(1) = (  1.000000  0.000000  0.000000 )  
               b(2) = (  0.000000  1.000000  0.000000 )  
               b(3) = (  0.000000  0.000000  1.146823 )  


     PseudoPot. # 1 for Mn read from file:
     ./pseudo/Mn.pbe-spn-kjpaw_psl.0.3.1.UPF
     MD5 check sum: 7eef95dd2aae66803482eea66ebeebf1
     Pseudo is Projector augmented-wave + core cor, Zval = 15.0
     Generated using "atomic" code by A. Dal Corso v.5.0.99 svn rev. 10869
     Shape of augmentation charge: PSQ
     Using radial grid of 1187 points,  6 beta functions with: 
                l(1) =   0
                l(2) =   0
                l(3) =   1
                l(4) =   1
                l(5) =   2
                l(6) =   2
     Q(r) pseudized with 0 coefficients 


     PseudoPot. # 2 for Mn read from file:
     ./pseudo/Mn.pbe-spn-kjpaw_psl.0.3.1.UPF
     MD5 check sum: 7eef95dd2aae66803482eea66ebeebf1
     Pseudo is Projector augmented-wave + core cor, Zval = 15.0
     Generated using "atomic" code by A. Dal Corso v.5.0.99 svn rev. 10869
     Shape of augmentation charge: PSQ
     Using radial grid of 1187 points,  6 beta functions with: 
                l(1) =   0
                l(2) =   0
                l(3) =   1
                l(4) =   1
                l(5) =   2
                l(6) =   2
     Q(r) pseudized with 0 coefficients 


     PseudoPot. # 3 for Au read from file:
     ./pseudo/Au.pbe-dn-kjpaw_psl.0.1.UPF
     MD5 check sum: 5c9b92683623e7ae2ab3f8e525febab6
     Pseudo is Projector augmented-wave + core cor, Zval = 11.0
     Generated using "atomic" code by A. Dal Corso v.5.0.2 svn rev. 9415
     Shape of augmentation charge: PSQ
     Using radial grid of 1279 points,  6 beta functions with: 
                l(1) =   0
                l(2) =   0
                l(3) =   1
                l(4) =   1
                l(5) =   2
                l(6) =   2
     Q(r) pseudized with 0 coefficients 


     atomic species   valence    mass     pseudopotential
        Mn1           15.00    54.93800     Mn( 1.00)
        Mn2           15.00    54.93800     Mn( 1.00)
        Au            11.00   196.96600     Au( 1.00)

     Starting magnetic structure 
     atomic species   magnetization
        Mn1          0.800
        Mn2         -0.800
        Au           0.000

      2 Sym. Ops. (no inversion) found



   Cartesian axes

     site n.     atom                  positions (alat units)
         1           Mn1 tau(   1) = (   0.0000000   0.0000000   0.0000000  )
         2           Mn1 tau(   2) = (   0.0000000   0.3333300   0.0000000  )
         3           Mn1 tau(   3) = (   0.0000000   0.6666700   0.0000000  )
         4           Mn1 tau(   4) = (   0.3333300   0.0000000   0.0000000  )
         5           Mn2 tau(   5) = (   0.3333300   0.3333300   0.0000000  )
         6           Mn2 tau(   6) = (   0.3333300   0.6666700   0.0000000  )
         7           Mn1 tau(   7) = (   0.6666700   0.0000000   0.0000000  )
         8           Mn1 tau(   8) = (   0.6666700   0.3333300   0.0000000  )
         9           Mn1 tau(   9) = (   0.6666700   0.6666700   0.0000000  )
        10           Mn2 tau(  10) = (   0.1666700   0.1666700   0.4359871  )
        11           Mn2 tau(  11) = (   0.1666700   0.5000000   0.4359871  )
        12           Mn2 tau(  12) = (   0.1666700   0.8333300   0.4359871  )
        13           Mn2 tau(  13) = (   0.5000000   0.1666700   0.4359871  )
        14           Mn1 tau(  14) = (   0.5000000   0.5000000   0.4359871  )
        15           Mn1 tau(  15) = (   0.5000000   0.8333300   0.4359871  )
        16           Mn2 tau(  16) = (   0.8333300   0.1666700   0.4359871  )
        17           Mn2 tau(  17) = (   0.8333300   0.5000000   0.4359871  )
        18           Mn2 tau(  18) = (   0.8333300   0.8333300   0.4359871  )
        19           Au  tau(  19) = (   0.1666700   0.1666700   0.7327374  )
        20           Au  tau(  20) = (   0.1666700   0.5000000   0.7327374  )
        21           Au  tau(  21) = (   0.1666700   0.8333300   0.7327374  )
        22           Au  tau(  22) = (   0.5000000   0.1666700   0.7327374  )
        23           Au  tau(  23) = (   0.5000000   0.5000000   0.7327374  )
        24           Au  tau(  24) = (   0.5000000   0.8333300   0.7327374  )
        25           Au  tau(  25) = (   0.8333300   0.1666700   0.7327374  )
        26           Au  tau(  26) = (   0.8333300   0.5000000   0.7327374  )
        27           Au  tau(  27) = (   0.8333300   0.8333300   0.7327374  )
        28           Au  tau(  28) = (   0.1666700   0.1666700   0.1392369  )
        29           Au  tau(  29) = (   0.1666700   0.5000000   0.1392369  )
        30           Au  tau(  30) = (   0.1666700   0.8333300   0.1392369  )
        31           Au  tau(  31) = (   0.5000000   0.1666700   0.1392369  )
        32           Au  tau(  32) = (   0.5000000   0.5000000   0.1392369  )
        33           Au  tau(  33) = (   0.5000000   0.8333300   0.1392369  )
        34           Au  tau(  34) = (   0.8333300   0.1666700   0.1392369  )
        35           Au  tau(  35) = (   0.8333300   0.5000000   0.1392369  )
        36           Au  tau(  36) = (   0.8333300   0.8333300   0.1392369  )
        37           Au  tau(  37) = (   0.0000000   0.0000000   0.2967503  )
        38           Au  tau(  38) = (   0.0000000   0.3333300   0.2967503  )
        39           Au  tau(  39) = (   0.0000000   0.6666700   0.2967503  )
        40           Au  tau(  40) = (   0.3333300   0.0000000   0.2967503  )
        41           Au  tau(  41) = (   0.3333300   0.3333300   0.2967503  )
        42           Au  tau(  42) = (   0.3333300   0.6666700   0.2967503  )
        43           Au  tau(  43) = (   0.6666700   0.0000000   0.2967503  )
        44           Au  tau(  44) = (   0.6666700   0.3333300   0.2967503  )
        45           Au  tau(  45) = (   0.6666700   0.6666700   0.2967503  )
        46           Au  tau(  46) = (   0.0000000   0.0000000   0.5752240  )
        47           Au  tau(  47) = (   0.0000000   0.3333300   0.5752240  )
        48           Au  tau(  48) = (   0.0000000   0.6666700   0.5752240  )
        49           Au  tau(  49) = (   0.3333300   0.0000000   0.5752240  )
        50           Au  tau(  50) = (   0.3333300   0.3333300   0.5752240  )
        51           Au  tau(  51) = (   0.3333300   0.6666700   0.5752240  )
        52           Au  tau(  52) = (   0.6666700   0.0000000   0.5752240  )
        53           Au  tau(  53) = (   0.6666700   0.3333300   0.5752240  )
        54           Au  tau(  54) = (   0.6666700   0.6666700   0.5752240  )

     number of k points=     8 (tetrahedron method)
                       cart. coord. in units 2pi/alat
        k(    1) = (   0.0000000   0.0000000   0.0000000), wk =   0.1250000
        k(    2) = (   0.0000000   0.0000000  -0.5734114), wk =   0.1250000
        k(    3) = (   0.0000000  -0.5000000   0.0000000), wk =   0.1250000
        k(    4) = (   0.0000000  -0.5000000  -0.5734114), wk =   0.1250000
        k(    5) = (  -0.5000000  -0.5000000   0.0000000), wk =   0.1250000
        k(    6) = (  -0.5000000  -0.5000000  -0.5734114), wk =   0.1250000
        k(    7) = (  -0.5000000   0.0000000   0.0000000), wk =   0.1250000
        k(    8) = (  -0.5000000   0.0000000   0.5734114), wk =   0.1250000

     Dense  grid:   839803 G-vectors     FFT dimensions: ( 125, 125, 108)

     Smooth grid:   253559 G-vectors     FFT dimensions: (  90,  90,  72)

     Estimated max dynamical RAM per process >     570.13 MB

     Estimated total dynamical RAM >       8.91 GB
     Generating pointlists ...
     new r_m :   0.1129 (alat units)  2.1733 (a.u.) for type    1
     new r_m :   0.1129 (alat units)  2.1733 (a.u.) for type    2
     new r_m :   0.1129 (alat units)  2.1733 (a.u.) for type    3

     Check: negative/imaginary core charge=   -0.000006    0.000000

     Initial potential from superposition of free atoms

     starting charge  665.98709, renormalised to  666.00000
     Starting wfc are  504 randomized atomic wfcs
     Checking if some PAW data can be deallocated... 

     total cpu time spent up to now is       59.4 secs

     Self-consistent Calculation

     iteration #  1     ecut=    45.00 Ry     beta= 0.10
     Davidson diagonalization with overlap
     ethr =  1.00E-02,  avg # of iterations =  3.2

     total cpu time spent up to now is      220.5 secs

     total energy              =  -33047.16914792 Ry
     Harris-Foulkes estimate   =  -33044.00895123 Ry
     estimated scf accuracy    <      27.03385091 Ry

     total magnetization       =     0.01 Bohr mag/cell
     absolute magnetization    =    92.13 Bohr mag/cell

     iteration #  2     ecut=    45.00 Ry     beta= 0.10
     Davidson diagonalization with overlap
     ethr =  4.06E-03,  avg # of iterations =  1.0

     total cpu time spent up to now is      329.4 secs

     total energy              =  -33058.59461519 Ry
     Harris-Foulkes estimate   =  -33047.34919632 Ry
     estimated scf accuracy    <      21.38720569 Ry

     total magnetization       =     0.01 Bohr mag/cell
     absolute magnetization    =    91.69 Bohr mag/cell

     iteration #  3     ecut=    45.00 Ry     beta= 0.10
     Davidson diagonalization with overlap
     ethr =  3.21E-03,  avg # of iterations =  2.1

     total cpu time spent up to now is      462.1 secs

     total energy              =  -33066.05087769 Ry
     Harris-Foulkes estimate   =  -33061.40228182 Ry
     estimated scf accuracy    <       8.79402076 Ry

     total magnetization       =    -0.02 Bohr mag/cell
     absolute magnetization    =    85.51 Bohr mag/cell

     iteration #  4     ecut=    45.00 Ry     beta= 0.10
     Davidson diagonalization with overlap
     ethr =  1.32E-03,  avg # of iterations =  4.0

     total cpu time spent up to now is      657.6 secs

     total energy              =  -33060.02691123 Ry
     Harris-Foulkes estimate   =  -33068.50142235 Ry
     estimated scf accuracy    <      49.42004271 Ry

     total magnetization       =    -0.38 Bohr mag/cell
     absolute magnetization    =    72.55 Bohr mag/cell

     iteration #  5     ecut=    45.00 Ry     beta= 0.10
     Davidson diagonalization with overlap
     ethr =  1.32E-03,  avg # of iterations =  5.6

     total cpu time spent up to now is      890.0 secs

     total energy              =  -33061.51467841 Ry
     Harris-Foulkes estimate   =  -33062.91109278 Ry
     estimated scf accuracy    <       5.40477789 Ry

     total magnetization       =    -0.05 Bohr mag/cell
     absolute magnetization    =    83.09 Bohr mag/cell

     iteration #  6     ecut=    45.00 Ry     beta= 0.10
     Davidson diagonalization with overlap
     ethr =  8.12E-04,  avg # of iterations =  4.1

     total cpu time spent up to now is     1071.9 secs

     total energy              =  -33062.52556417 Ry
     Harris-Foulkes estimate   =  -33062.61129055 Ry
     estimated scf accuracy    <       0.81413760 Ry

     total magnetization       =     0.17 Bohr mag/cell
     absolute magnetization    =    79.79 Bohr mag/cell

     iteration #  7     ecut=    45.00 Ry     beta= 0.10
     Davidson diagonalization with overlap
     ethr =  1.22E-04,  avg # of iterations =  2.0

     total cpu time spent up to now is     1196.3 secs

     total energy              =  -33062.61288450 Ry
     Harris-Foulkes estimate   =  -33062.60030271 Ry
     estimated scf accuracy    <       0.08853944 Ry

     total magnetization       =    -0.01 Bohr mag/cell
     absolute magnetization    =    79.62 Bohr mag/cell

     iteration #  8     ecut=    45.00 Ry     beta= 0.10
     Davidson diagonalization with overlap
     ethr =  1.33E-05,  avg # of iterations =  4.2

     total cpu time spent up to now is     1371.7 secs

     total energy              =  -33062.59568624 Ry
     Harris-Foulkes estimate   =  -33062.62984323 Ry
     estimated scf accuracy    <       0.23681286 Ry

     total magnetization       =     0.05 Bohr mag/cell
     absolute magnetization    =    78.73 Bohr mag/cell

     iteration #  9     ecut=    45.00 Ry     beta= 0.10
     Davidson diagonalization with overlap
     ethr =  1.33E-05,  avg # of iterations =  2.0

     total cpu time spent up to now is     1498.2 secs

     total energy              =  -33062.60036542 Ry
     Harris-Foulkes estimate   =  -33062.60445048 Ry
     estimated scf accuracy    <       0.06216910 Ry

     total magnetization       =    -0.00 Bohr mag/cell
     absolute magnetization    =    78.60 Bohr mag/cell

     iteration # 10     ecut=    45.00 Ry     beta= 0.10
     Davidson diagonalization with overlap
     ethr =  9.33E-06,  avg # of iterations =  2.4

     total cpu time spent up to now is     1625.2 secs

     total energy              =  -33062.60421320 Ry
     Harris-Foulkes estimate   =  -33062.60386589 Ry
     estimated scf accuracy    <       0.01435263 Ry

     total magnetization       =     0.01 Bohr mag/cell
     absolute magnetization    =    78.77 Bohr mag/cell

     iteration # 11     ecut=    45.00 Ry     beta= 0.10
     Davidson diagonalization with overlap
     ethr =  2.16E-06,  avg # of iterations =  5.2

     total cpu time spent up to now is     1816.7 secs

     total energy              =  -33062.60864997 Ry
     Harris-Foulkes estimate   =  -33062.60811538 Ry
     estimated scf accuracy    <       0.00435810 Ry

     total magnetization       =     0.01 Bohr mag/cell
     absolute magnetization    =    79.28 Bohr mag/cell

     iteration # 12     ecut=    45.00 Ry     beta= 0.10
     Davidson diagonalization with overlap
     ethr =  6.54E-07,  avg # of iterations =  2.0

     total cpu time spent up to now is     1938.1 secs

     total energy              =  -33062.60970730 Ry
     Harris-Foulkes estimate   =  -33062.60890942 Ry
     estimated scf accuracy    <       0.00286826 Ry

     total magnetization       =     0.01 Bohr mag/cell
     absolute magnetization    =    79.22 Bohr mag/cell

     iteration # 13     ecut=    45.00 Ry     beta= 0.10
     Davidson diagonalization with overlap
     ethr =  4.31E-07,  avg # of iterations =  1.2

     total cpu time spent up to now is     2049.2 secs

     total energy              =  -33062.61028862 Ry
     Harris-Foulkes estimate   =  -33062.60973230 Ry
     estimated scf accuracy    <       0.00129159 Ry

     total magnetization       =     0.01 Bohr mag/cell
     absolute magnetization    =    79.17 Bohr mag/cell

     iteration # 14     ecut=    45.00 Ry     beta= 0.10
     Davidson diagonalization with overlap
     ethr =  1.94E-07,  avg # of iterations =  2.8

     total cpu time spent up to now is     2191.8 secs

     total energy              =  -33062.61041269 Ry
     Harris-Foulkes estimate   =  -33062.61027459 Ry
     estimated scf accuracy    <       0.00015736 Ry

     total magnetization       =     0.00 Bohr mag/cell
     absolute magnetization    =    79.04 Bohr mag/cell

     iteration # 15     ecut=    45.00 Ry     beta= 0.10
     Davidson diagonalization with overlap
     ethr =  2.36E-08,  avg # of iterations =  3.9

     total cpu time spent up to now is     2344.9 secs

     total energy              =  -33062.61038130 Ry
     Harris-Foulkes estimate   =  -33062.61039016 Ry
     estimated scf accuracy    <       0.00016937 Ry

     total magnetization       =     0.00 Bohr mag/cell
     absolute magnetization    =    79.01 Bohr mag/cell

     iteration # 16     ecut=    45.00 Ry     beta= 0.10
     Davidson diagonalization with overlap
     ethr =  2.36E-08,  avg # of iterations =  1.0

     total cpu time spent up to now is     2452.7 secs

     total energy              =  -33062.61056174 Ry
     Harris-Foulkes estimate   =  -33062.61038855 Ry
     estimated scf accuracy    <       0.00010422 Ry

     total magnetization       =     0.00 Bohr mag/cell
     absolute magnetization    =    79.02 Bohr mag/cell

     iteration # 17     ecut=    45.00 Ry     beta= 0.10
     Davidson diagonalization with overlap
     ethr =  1.56E-08,  avg # of iterations =  2.0

     total cpu time spent up to now is     2579.3 secs

     total energy              =  -33062.61063192 Ry
     Harris-Foulkes estimate   =  -33062.61053945 Ry
     estimated scf accuracy    <       0.00007410 Ry

     total magnetization       =     0.00 Bohr mag/cell
     absolute magnetization    =    78.99 Bohr mag/cell

     iteration # 18     ecut=    45.00 Ry     beta= 0.10
     Davidson diagonalization with overlap
     ethr =  1.11E-08,  avg # of iterations =  2.3

     total cpu time spent up to now is     2710.8 secs

     total energy              =  -33062.61064107 Ry
     Harris-Foulkes estimate   =  -33062.61060324 Ry
     estimated scf accuracy    <       0.00002631 Ry

     total magnetization       =     0.00 Bohr mag/cell
     absolute magnetization    =    78.98 Bohr mag/cell

     iteration # 19     ecut=    45.00 Ry     beta= 0.10
     Davidson diagonalization with overlap
     ethr =  3.95E-09,  avg # of iterations =  2.9

     total cpu time spent up to now is     2857.3 secs

     total energy              =  -33062.61062638 Ry
     Harris-Foulkes estimate   =  -33062.61061044 Ry
     estimated scf accuracy    <       0.00001160 Ry

     total magnetization       =     0.00 Bohr mag/cell
     absolute magnetization    =    78.97 Bohr mag/cell

     iteration # 20     ecut=    45.00 Ry     beta= 0.10
     Davidson diagonalization with overlap
     ethr =  1.74E-09,  avg # of iterations =  2.2

     total cpu time spent up to now is     2986.4 secs

     total energy              =  -33062.61060781 Ry
     Harris-Foulkes estimate   =  -33062.61060042 Ry
     estimated scf accuracy    <       0.00000690 Ry

     total magnetization       =     0.00 Bohr mag/cell
     absolute magnetization    =    78.96 Bohr mag/cell

     iteration # 21     ecut=    45.00 Ry     beta= 0.10
     Davidson diagonalization with overlap
     ethr =  1.04E-09,  avg # of iterations =  2.0

     total cpu time spent up to now is     3107.8 secs

     total energy              =  -33062.61059877 Ry
     Harris-Foulkes estimate   =  -33062.61059355 Ry
     estimated scf accuracy    <       0.00000494 Ry

     total magnetization       =     0.00 Bohr mag/cell
     absolute magnetization    =    78.95 Bohr mag/cell

     iteration # 22     ecut=    45.00 Ry     beta= 0.10
     Davidson diagonalization with overlap
     ethr =  7.41E-10,  avg # of iterations =  1.9

     total cpu time spent up to now is     3227.3 secs

     total energy              =  -33062.61059691 Ry
     Harris-Foulkes estimate   =  -33062.61059232 Ry
     estimated scf accuracy    <       0.00000386 Ry

     total magnetization       =     0.00 Bohr mag/cell
     absolute magnetization    =    78.95 Bohr mag/cell

     iteration # 23     ecut=    45.00 Ry     beta= 0.10
     Davidson diagonalization with overlap
     ethr =  5.80E-10,  avg # of iterations =  2.0

     total cpu time spent up to now is     3349.0 secs

     total energy              =  -33062.61059630 Ry
     Harris-Foulkes estimate   =  -33062.61059272 Ry
     estimated scf accuracy    <       0.00000225 Ry

     total magnetization       =     0.00 Bohr mag/cell
     absolute magnetization    =    78.95 Bohr mag/cell

     iteration # 24     ecut=    45.00 Ry     beta= 0.10
     Davidson diagonalization with overlap
     ethr =  3.38E-10,  avg # of iterations =  2.2

     total cpu time spent up to now is     3474.9 secs

     total energy              =  -33062.61059744 Ry
     Harris-Foulkes estimate   =  -33062.61059499 Ry
     estimated scf accuracy    <       0.00000126 Ry

     total magnetization       =     0.00 Bohr mag/cell
     absolute magnetization    =    78.95 Bohr mag/cell

     iteration # 25     ecut=    45.00 Ry     beta= 0.10
     Davidson diagonalization with overlap
     ethr =  1.89E-10,  avg # of iterations =  2.5
 
     Magnetic moment per site:
     atom:    1    charge:   13.5708    magn:    4.0459    constr:    0.0000
     atom:    2    charge:   13.5691    magn:    4.0605    constr:    0.0000
     atom:    3    charge:   13.5749    magn:    4.0126    constr:    0.0000
     atom:    4    charge:   13.5802    magn:    3.9786    constr:    0.0000
     atom:    5    charge:   13.5763    magn:   -4.0267    constr:    0.0000
     atom:    6    charge:   13.5728    magn:   -4.0534    constr:    0.0000
     atom:    7    charge:   13.5785    magn:    3.9714    constr:    0.0000
     atom:    8    charge:   13.5798    magn:    3.9770    constr:    0.0000
     atom:    9    charge:   13.5810    magn:    3.9645    constr:    0.0000
     atom:   10    charge:   13.5785    magn:   -3.9714    constr:    0.0000
     atom:   11    charge:   13.5810    magn:   -3.9646    constr:    0.0000
     atom:   12    charge:   13.5798    magn:   -3.9771    constr:    0.0000
     atom:   13    charge:   13.5802    magn:   -3.9786    constr:    0.0000
     atom:   14    charge:   13.5727    magn:    4.0534    constr:    0.0000
     atom:   15    charge:   13.5763    magn:    4.0268    constr:    0.0000
     atom:   16    charge:   13.5709    magn:   -4.0458    constr:    0.0000
     atom:   17    charge:   13.5749    magn:   -4.0126    constr:    0.0000
     atom:   18    charge:   13.5692    magn:   -4.0605    constr:    0.0000
     atom:   19    charge:    9.1214    magn:    0.0184    constr:    0.0000
     atom:   20    charge:    9.1218    magn:   -0.0080    constr:    0.0000
     atom:   21    charge:    9.1217    magn:    0.0180    constr:    0.0000
     atom:   22    charge:    9.1197    magn:    0.0166    constr:    0.0000
     atom:   23    charge:    9.1213    magn:    0.0090    constr:    0.0000
     atom:   24    charge:    9.1200    magn:    0.0409    constr:    0.0000
     atom:   25    charge:    9.1207    magn:    0.0461    constr:    0.0000
     atom:   26    charge:    9.1208    magn:    0.0526    constr:    0.0000
     atom:   27    charge:    9.1204    magn:    0.0472    constr:    0.0000
     atom:   28    charge:    9.1214    magn:    0.0184    constr:    0.0000
     atom:   29    charge:    9.1218    magn:   -0.0080    constr:    0.0000
     atom:   30    charge:    9.1217    magn:    0.0180    constr:    0.0000
     atom:   31    charge:    9.1197    magn:    0.0166    constr:    0.0000
     atom:   32    charge:    9.1213    magn:    0.0090    constr:    0.0000
     atom:   33    charge:    9.1200    magn:    0.0409    constr:    0.0000
     atom:   34    charge:    9.1207    magn:    0.0461    constr:    0.0000
     atom:   35    charge:    9.1208    magn:    0.0526    constr:    0.0000
     atom:   36    charge:    9.1204    magn:    0.0472    constr:    0.0000
     atom:   37    charge:    9.1208    magn:   -0.0460    constr:    0.0000
     atom:   38    charge:    9.1204    magn:   -0.0472    constr:    0.0000
     atom:   39    charge:    9.1209    magn:   -0.0526    constr:    0.0000
     atom:   40    charge:    9.1198    magn:   -0.0166    constr:    0.0000
     atom:   41    charge:    9.1200    magn:   -0.0409    constr:    0.0000
     atom:   42    charge:    9.1213    magn:   -0.0090    constr:    0.0000
     atom:   43    charge:    9.1215    magn:   -0.0185    constr:    0.0000
     atom:   44    charge:    9.1216    magn:   -0.0180    constr:    0.0000
     atom:   45    charge:    9.1218    magn:    0.0080    constr:    0.0000
     atom:   46    charge:    9.1208    magn:   -0.0460    constr:    0.0000
     atom:   47    charge:    9.1204    magn:   -0.0472    constr:    0.0000
     atom:   48    charge:    9.1209    magn:   -0.0526    constr:    0.0000
     atom:   49    charge:    9.1198    magn:   -0.0166    constr:    0.0000
     atom:   50    charge:    9.1200    magn:   -0.0409    constr:    0.0000
     atom:   51    charge:    9.1213    magn:   -0.0090    constr:    0.0000
     atom:   52    charge:    9.1215    magn:   -0.0185    constr:    0.0000
     atom:   53    charge:    9.1216    magn:   -0.0180    constr:    0.0000
     atom:   54    charge:    9.1218    magn:    0.0080    constr:    0.0000

     total cpu time spent up to now is     3623.6 secs

     End of self-consistent calculation

 ------ SPIN UP ------------


          k = 0.0000 0.0000 0.0000 ( 31747 PWs)   bands (ev):

   -66.7880 -66.7545 -66.7090 -66.7071 -66.6639 -66.6465 -66.6390 -66.6341
   -66.6171 -62.4135 -62.3917 -62.3849 -62.3589 -62.3503 -62.3492 -62.3473
   -62.3410 -62.3333 -35.5422 -35.5305 -35.5181 -35.5144 -35.4962 -35.4794
   -35.4636 -35.4610 -35.4585 -35.4566 -35.4395 -35.4360 -35.4332 -35.4100
   -35.4048 -35.4013 -35.3961 -35.3916 -35.3886 -35.3831 -35.3799 -35.3770
   -35.3760 -35.3710 -35.3551 -35.3536 -35.3337 -31.2500 -31.2473 -31.2308
   -31.2200 -31.2183 -31.2178 -31.2131 -31.2077 -31.2011 -31.1995 -31.1957
   -31.1957 -31.1852 -31.1814 -31.1795 -31.1751 -31.1741 -31.1725 -31.1694
   -31.1682 -31.1674 -31.1648 -31.1571 -31.1529 -31.1504 -31.1495 -31.1457
     5.6143   7.1508   7.1597   7.1943   7.2058   7.3659   7.8593   7.8884
     7.9118   7.9427   8.0844   8.1088   8.1348   8.1530   8.1909   8.2440
     8.2619   8.2923   8.3105   8.5238   8.5495   8.5641   8.5693   8.5945
     8.6035   8.8571   8.8677   8.8687   8.8789   8.8853   8.8933   8.9017
     8.9032   8.9060   8.9140   8.9169   8.9310   8.9409   8.9623   8.9637
     8.9867   9.0853   9.1195   9.1267   9.1286   9.1313   9.1595   9.1604
     9.1885   9.2011   9.2120   9.2691   9.2781   9.2937   9.3061   9.3526
     9.3556   9.3620   9.3720   9.3764   9.3823   9.3852   9.4126   9.4260
     9.4462   9.4481   9.4557   9.4664   9.4673   9.4727   9.4955   9.5814
     9.5839   9.5840   9.5887   9.5914   9.6139   9.6584   9.6685   9.6726
     9.6738   9.6767   9.6810   9.7404   9.7585   9.7731   9.7931   9.8494
     9.8507   9.9122   9.9208   9.9506   9.9551   9.9637  10.0165  10.0375
    10.0967  10.1286  10.1364  10.1583  10.2924  10.2932  10.2955  10.2998
    10.3009  10.3063  10.3064  10.3117  10.3118  10.3249  10.3343  10.3456
    10.3498  10.3512  10.3547  10.3565  10.3616  10.3659  10.3810  10.3855
    10.4009  10.5135  10.5167  10.5533  10.5706  10.6181  10.6220  10.6426
    10.6916  10.7846  10.7870  10.8140  10.8199  10.8267  10.8322  10.8493
    10.8540  10.8597  10.8630  10.8748  10.8781  10.8825  10.8989  10.9140
    10.9172  10.9180  11.0144  11.0352  11.0758  11.0979  11.2208  11.2227
    11.2266  11.2290  11.2571  11.2752  11.3070  11.3283  11.3339  11.3461
    11.3548  11.3670  11.3881  11.3916  11.4015  11.4091  11.4153  11.4218
    11.4399  11.4651  11.5322  11.5551  11.5912  11.5941  11.5968  11.5981
    11.5987  11.6680  11.7049  11.7272  11.7315  11.7319  11.7443  11.7494
    11.8303  11.8332  11.8365  11.8721  11.8732  11.9097  11.9273  11.9455
    11.9495  12.0144  12.0808  12.1014  12.1022  12.1036  12.1062  12.1444
    12.1460  12.1480  12.1494  12.1618  12.1739  12.1813  12.1915  12.2317
    12.2448  12.2464  12.3227  12.3358  12.3421  12.3617  12.3682  12.4258
    12.4292  12.4347  12.4428  12.4733  12.4881  12.5001  12.5032  12.5143
    12.5167  12.5415  12.5417  12.5551  12.5625  12.5765  12.5870  12.6514
    12.7001  12.7081  12.7436  12.7540  12.9974  13.0300  13.0913  13.1060
    13.1300  13.1310  13.1781  13.1885  13.3759  13.4664  13.6749  13.8220
    13.8390  13.9611  14.0069  14.2395  14.2437  14.3452  14.3520  14.5017
    14.7793  14.8899  14.9450  15.0460  15.0524  15.1535  15.1836  15.2346
    15.2953  15.3344  15.3730  15.3933  15.4474  15.4663  15.5183  15.5774
    15.6579  15.6585  15.7347  15.7560  15.7847  15.7982  15.9152  15.9226
    16.0066  16.0823  16.1082  16.1100  16.1149  16.1457  16.1793  16.2121
    16.2216  16.2447  16.2788  16.3406  16.3624  16.3669  16.3781  16.4388
    16.4472  16.4673  16.4739  16.5808  16.6418  16.6510  16.7561  16.8497
    16.9772  17.0302  17.1653  17.1909  17.2030  17.2473  17.2638  17.3296
    17.5023  17.5524  17.8675  17.9114  17.9336  17.9475  17.9715  18.0367
    18.1154  18.2167  18.3699  18.9817  19.0338  19.0341  19.1562  19.2291

          k = 0.0000 0.0000-0.5734 ( 31692 PWs)   bands (ev):

   -66.7880 -66.7545 -66.7090 -66.7071 -66.6639 -66.6465 -66.6390 -66.6341
   -66.6171 -62.4135 -62.3917 -62.3849 -62.3589 -62.3503 -62.3492 -62.3473
   -62.3410 -62.3333 -35.5422 -35.5305 -35.5181 -35.5144 -35.4962 -35.4794
   -35.4636 -35.4610 -35.4585 -35.4566 -35.4395 -35.4360 -35.4332 -35.4100
   -35.4048 -35.4013 -35.3961 -35.3916 -35.3886 -35.3831 -35.3799 -35.3770
   -35.3760 -35.3710 -35.3551 -35.3536 -35.3337 -31.2500 -31.2473 -31.2308
   -31.2200 -31.2183 -31.2178 -31.2131 -31.2077 -31.2011 -31.1995 -31.1957
   -31.1957 -31.1852 -31.1814 -31.1795 -31.1751 -31.1741 -31.1725 -31.1694
   -31.1682 -31.1674 -31.1648 -31.1571 -31.1529 -31.1504 -31.1495 -31.1457
     6.1372   6.2332   7.5249   7.5344   7.5620   7.5807   7.5857   7.6016
     7.6316   7.6384   8.3042   8.3076   8.3204   8.3435   8.3491   8.3833
     8.3905   8.4083   8.4559   8.4672   8.4690   8.4868   8.4896   8.4951
     8.5091   8.5113   8.6862   8.7254   8.7293   8.8163   8.9398   8.9463
     8.9505   8.9706   8.9813   8.9833   8.9902   8.9946   9.0096   9.0266
     9.0330   9.0468   9.0496   9.0609   9.0946   9.1013   9.1762   9.1880
     9.2191   9.2323   9.2457   9.2596   9.2616   9.2704   9.2793   9.2822
     9.2856   9.2985   9.2994   9.3049   9.3151   9.3272   9.4074   9.4119
     9.4120   9.4260   9.4296   9.4315   9.4422   9.4533   9.4611   9.4661
     9.4745   9.4879   9.4960   9.5149   9.5541   9.5752   9.5899   9.7289
     9.7784   9.7942   9.7991   9.8008   9.8092   9.8222   9.8454   9.8465
     9.8747   9.8782   9.8804   9.8830   9.8837   9.8858   9.8890   9.8906
    10.0538  10.0558  10.0663  10.0676  10.1294  10.1323  10.1352  10.1468
    10.1741  10.1816  10.1980  10.2151  10.2178  10.2225  10.3478  10.3781
    10.3788  10.3893  10.3954  10.4001  10.4006  10.4291  10.4323  10.5530
    10.5918  10.5980  10.6030  10.6095  10.6140  10.6329  10.6403  10.6696
    10.6724  10.6815  10.6940  10.7197  10.7623  10.8113  10.8719  10.8983
    10.9208  10.9431  10.9928  11.0088  11.0373  11.0606  11.0666  11.0819
    11.0850  11.0873  11.1142  11.1327  11.1420  11.1692  11.1721  11.1861
    11.1955  11.2316  11.2507  11.2511  11.2528  11.2548  11.2650  11.2659
    11.2687  11.2698  11.2780  11.2793  11.2874  11.3009  11.3037  11.3055
    11.3218  11.3284  11.3294  11.3316  11.5136  11.6244  11.7076  11.7114
    11.7114  11.7150  11.7180  11.7235  11.7263  11.7336  11.7359  11.7397
    11.7549  11.7743  11.7950  11.7971  11.8136  11.8324  11.8354  11.8408
    11.9496  11.9681  11.9873  11.9987  12.0349  12.0389  12.0815  12.0882
    12.1339  12.1743  12.2152  12.2421  12.2480  12.2694  12.3072  12.3729
    12.3828  12.4079  12.4211  12.4381  12.4526  12.4798  12.4893  12.4898
    12.4928  12.5296  12.5354  12.5457  12.5479  12.5699  12.5782  12.5906
    12.6202  12.6333  12.7348  12.7913  12.8195  12.8702  12.8790  12.9144
    12.9791  13.0338  13.0369  13.0739  13.1237  13.1250  13.1448  13.1453
    13.1960  13.2164  13.2507  13.4279  13.5025  13.5316  13.5358  13.7480
    13.8791  13.9535  14.0170  14.0720  14.1239  14.1689  14.2659  14.4351
    14.4911  14.8858  14.9223  14.9552  14.9759  15.0336  15.0578  15.0715
    15.1488  15.1879  15.2030  15.2092  15.2520  15.2745  15.3641  15.6303
    15.6559  15.7190  15.7436  15.7692  15.8492  15.8857  15.9579  16.0231
    16.1026  16.1246  16.1254  16.1320  16.1355  16.1725  16.1814  16.2127
    16.2347  16.2389  16.2441  16.2603  16.2642  16.2700  16.2870  16.3458
    16.3834  16.4396  16.4481  16.5159  16.6025  16.6904  16.7248  16.7598
    16.8895  16.9579  17.2468  17.3444  17.4172  17.4705  17.5393  17.5484
    17.5706  17.5725  17.6120  17.6435  17.6511  17.7257  17.7891  17.8375
    17.9059  17.9305  18.0795  18.1224  18.1774  18.2584  18.3471  18.3614

          k = 0.0000-0.5000 0.0000 ( 31722 PWs)   bands (ev):

   -66.7880 -66.7545 -66.7090 -66.7071 -66.6639 -66.6465 -66.6390 -66.6341
   -66.6171 -62.4135 -62.3917 -62.3849 -62.3589 -62.3503 -62.3492 -62.3473
   -62.3410 -62.3333 -35.5422 -35.5306 -35.5182 -35.5144 -35.4961 -35.4794
   -35.4637 -35.4610 -35.4585 -35.4566 -35.4395 -35.4360 -35.4332 -35.4100
   -35.4048 -35.4014 -35.3961 -35.3916 -35.3886 -35.3831 -35.3804 -35.3770
   -35.3744 -35.3719 -35.3551 -35.3536 -35.3337 -31.2503 -31.2473 -31.2300
   -31.2200 -31.2183 -31.2183 -31.2131 -31.2077 -31.2015 -31.1995 -31.1957
   -31.1954 -31.1855 -31.1814 -31.1784 -31.1752 -31.1741 -31.1725 -31.1693
   -31.1689 -31.1674 -31.1648 -31.1571 -31.1529 -31.1504 -31.1495 -31.1457
     6.0330   6.0514   7.4070   7.4395   7.4547   7.4860   7.6753   7.6795
     8.1014   8.1222   8.1506   8.1734   8.1777   8.2333   8.2453   8.2890
     8.3901   8.4163   8.4546   8.4857   8.5960   8.6228   8.6437   8.6543
     8.6778   8.6789   8.6989   8.7065   8.7381   8.8127   8.8212   8.8371
     8.8428   8.8735   8.8757   8.8818   8.9065   8.9092   8.9124   8.9204
     8.9264   8.9310   8.9390   8.9505   9.0502   9.0533   9.1580   9.1769
     9.1876   9.1989   9.2121   9.2247   9.2430   9.2504   9.3159   9.3235
     9.3377   9.3840   9.4017   9.4028   9.4740   9.4775   9.4839   9.4971
     9.5370   9.5407   9.5419   9.5729   9.5758   9.6026   9.6042   9.6158
     9.6180   9.6197   9.6284   9.6287   9.6333   9.6408   9.6467   9.6566
     9.6657   9.6674   9.6674   9.6801   9.6913   9.7152   9.7250   9.7494
     9.7565   9.7622   9.7703   9.7746   9.8896   9.8972   9.9035  10.0054
    10.0162  10.0321  10.1563  10.1856  10.2137  10.2251  10.2470  10.2523
    10.2695  10.2722  10.2778  10.2795  10.2814  10.2876  10.3462  10.3607
    10.3650  10.3815  10.3839  10.3902  10.4303  10.4411  10.4433  10.4497
    10.4890  10.5149  10.5183  10.5320  10.5633  10.5655  10.5854  10.5936
    10.6076  10.6573  10.6910  10.6990  10.7044  10.7063  10.7396  10.7806
    10.8057  10.8130  10.8343  10.8480  10.8698  10.8860  10.9063  10.9241
    10.9306  10.9961  11.0049  11.0275  11.0515  11.1238  11.1629  11.1936
    11.2744  11.3445  11.3511  11.3613  11.3661  11.3969  11.4002  11.4045
    11.4188  11.4453  11.4824  11.4920  11.4937  11.5469  11.5515  11.5760
    11.5840  11.5944  11.6003  11.6099  11.6152  11.6576  11.6578  11.7223
    11.7459  11.7831  11.8020  11.8116  11.8138  11.8388  11.8429  11.8612
    11.8648  11.8842  11.8978  11.9181  11.9259  11.9471  11.9679  11.9720
    11.9831  12.0054  12.0174  12.0184  12.0390  12.1302  12.1453  12.1880
    12.1950  12.2097  12.2295  12.2411  12.2428  12.2607  12.2630  12.2785
    12.2854  12.2957  12.2987  12.3009  12.3794  12.3960  12.4055  12.4066
    12.4493  12.4583  12.4640  12.4756  12.4813  12.5151  12.5192  12.5514
    12.5724  12.5779  12.6077  12.6632  12.6657  12.7042  12.7247  12.7720
    12.7972  12.8592  12.9270  12.9765  13.0584  13.0761  13.1359  13.1425
    13.1505  13.2022  13.2203  13.2280  13.2667  13.2693  13.3129  13.3252
    13.3675  13.4339  13.4580  13.7216  13.7453  14.1264  14.5108  14.5736
    14.6266  14.7449  14.7880  14.8569  14.8652  14.8836  14.9322  14.9546
    15.0783  15.1066  15.2299  15.3329  15.3782  15.3961  15.5118  15.5674
    15.6856  15.7470  15.7490  15.7887  15.8372  15.8624  15.9309  16.0252
    16.0253  16.0545  16.0555  16.0703  16.1019  16.1308  16.1428  16.1565
    16.1782  16.1976  16.2382  16.2479  16.2609  16.2960  16.3482  16.3645
    16.4214  16.4244  16.5503  16.5880  16.7164  16.8012  16.9980  17.0327
    17.1184  17.2074  17.2531  17.3929  17.4389  17.5603  17.6107  17.6247
    17.7091  17.7461  17.7705  17.8228  17.8323  17.8591  17.9189  18.0033
    18.0453  18.0621  18.1306  18.2139  19.2645  19.2911  19.3109  19.3634

          k = 0.0000-0.5000-0.5734 ( 31696 PWs)   bands (ev):

   -66.7880 -66.7545 -66.7090 -66.7071 -66.6639 -66.6465 -66.6390 -66.6341
   -66.6171 -62.4135 -62.3917 -62.3849 -62.3589 -62.3503 -62.3492 -62.3473
   -62.3410 -62.3333 -35.5422 -35.5306 -35.5182 -35.5144 -35.4961 -35.4794
   -35.4637 -35.4610 -35.4585 -35.4566 -35.4395 -35.4360 -35.4332 -35.4100
   -35.4048 -35.4014 -35.3961 -35.3916 -35.3886 -35.3831 -35.3804 -35.3770
   -35.3744 -35.3719 -35.3551 -35.3536 -35.3337 -31.2503 -31.2473 -31.2300
   -31.2200 -31.2183 -31.2183 -31.2131 -31.2077 -31.2015 -31.1995 -31.1957
   -31.1954 -31.1855 -31.1814 -31.1784 -31.1752 -31.1741 -31.1725 -31.1693
   -31.1689 -31.1674 -31.1648 -31.1571 -31.1529 -31.1504 -31.1495 -31.1457
     6.5232   6.5536   6.6067   6.6519   7.8323   7.8399   7.8456   7.8792
     7.8989   7.9315   7.9450   7.9495   8.2642   8.2822   8.2929   8.3049
     8.5040   8.5251   8.5356   8.5412   8.6377   8.6659   8.6736   8.6867
     8.6918   8.6961   8.7128   8.7167   8.7210   8.7239   8.7444   8.7583
     8.7588   8.7638   8.7838   8.8431   8.9457   8.9716   9.0247   9.0264
     9.0306   9.0608   9.0651   9.0808   9.1816   9.1990   9.2016   9.2117
     9.2178   9.2215   9.2235   9.2299   9.2358   9.2465   9.2552   9.2654
     9.2720   9.2811   9.2886   9.2915   9.3053   9.3623   9.3808   9.3830
     9.4067   9.4261   9.4529   9.4567   9.4638   9.4651   9.4716   9.4855
     9.4877   9.4928   9.5000   9.5019   9.5150   9.5453   9.5506   9.5740
     9.5827   9.6198   9.7521   9.7631   9.7742   9.7776   9.8047   9.8243
     9.8250   9.8389   9.8489   9.8543   9.8578   9.8610   9.8934   9.8948
     9.9595   9.9856   9.9890   9.9986  10.0302  10.0309  10.0548  10.0696
    10.3572  10.3862  10.3925  10.4061  10.4119  10.4177  10.4237  10.4304
    10.4491  10.4610  10.4729  10.4790  10.4884  10.4943  10.4986  10.5179
    10.5275  10.5635  10.5759  10.5794  10.5982  10.6104  10.6150  10.6172
    10.6409  10.6495  10.6676  10.6702  10.6782  10.6928  10.7164  10.7172
    10.7300  10.8554  10.8614  10.9049  10.9633  10.9952  11.0353  11.1087
    11.1149  11.1311  11.1346  11.1499  11.1607  11.1893  11.1978  11.2100
    11.2114  11.2145  11.2557  11.3169  11.3436  11.3523  11.3653  11.3706
    11.3785  11.3817  11.4106  11.4261  11.4399  11.4852  11.4887  11.5111
    11.5198  11.5573  11.5741  11.5789  11.5811  11.5961  11.6028  11.6204
    11.6228  11.6419  11.6430  11.7110  11.7563  11.7651  11.8162  11.8243
    11.8925  11.8977  11.9037  11.9532  11.9615  11.9621  11.9821  12.0093
    12.0219  12.0274  12.0275  12.0333  12.0367  12.0391  12.0784  12.1336
    12.1435  12.1597  12.1822  12.2214  12.2323  12.2578  12.2917  12.3371
    12.3703  12.4112  12.4165  12.4232  12.4445  12.4467  12.4741  12.4885
    12.4992  12.5124  12.5152  12.5306  12.5450  12.5620  12.6268  12.6279
    12.6310  12.6403  12.6586  12.6611  12.7309  12.7571  12.7668  12.7788
    12.8676  12.8810  12.9117  12.9767  13.0105  13.0254  13.0437  13.0628
    13.0809  13.1952  13.2596  13.3549  13.4468  13.5346  13.5654  13.7996
    13.8733  13.9810  14.0568  14.1162  14.1499  14.2425  14.2699  14.3975
    14.4215  14.4620  14.5295  14.5801  14.6945  14.7050  14.7918  15.0324
    15.0920  15.2020  15.2684  15.3118  15.3448  15.3834  15.5591  15.5875
    15.6073  15.6837  15.7821  15.7983  15.8610  15.9215  15.9394  15.9685
    16.0360  16.0727  16.0876  16.1244  16.1498  16.1743  16.2147  16.2295
    16.2428  16.2695  16.2784  16.2789  16.2914  16.3349  16.3669  16.4839
    16.4864  16.5335  16.5465  16.5951  16.6137  16.6490  16.6878  16.7446
    16.7470  16.8060  16.8322  16.8996  16.9138  16.9527  16.9591  16.9951
    17.0807  17.1208  17.2061  17.2829  18.5592  18.6772  18.7113  18.7182
    18.7459  18.7992  18.8346  18.8553  18.8646  18.9201  18.9660  18.9890

          k =-0.5000-0.5000 0.0000 ( 31612 PWs)   bands (ev):

   -66.7880 -66.7545 -66.7090 -66.7071 -66.6639 -66.6465 -66.6390 -66.6341
   -66.6171 -62.4135 -62.3917 -62.3849 -62.3589 -62.3503 -62.3492 -62.3473
   -62.3410 -62.3333 -35.5422 -35.5306 -35.5182 -35.5144 -35.4961 -35.4794
   -35.4637 -35.4610 -35.4585 -35.4566 -35.4395 -35.4360 -35.4332 -35.4100
   -35.4048 -35.4013 -35.3962 -35.3916 -35.3886 -35.3831 -35.3804 -35.3770
   -35.3744 -35.3719 -35.3551 -35.3536 -35.3337 -31.2503 -31.2473 -31.2300
   -31.2202 -31.2183 -31.2183 -31.2131 -31.2074 -31.2016 -31.1995 -31.1957
   -31.1954 -31.1854 -31.1814 -31.1784 -31.1752 -31.1741 -31.1725 -31.1695
   -31.1689 -31.1674 -31.1648 -31.1571 -31.1529 -31.1504 -31.1495 -31.1457
     6.4080   6.4307   6.4450   6.4753   8.0110   8.0169   8.0208   8.0238
     8.0807   8.1341   8.2893   8.3223   8.3252   8.3395   8.3403   8.3449
     8.3467   8.3579   8.3616   8.3639   8.3697   8.3885   8.5533   8.5725
     8.6417   8.6663   8.6779   8.6983   8.7122   8.7335   8.7395   8.7500
     8.7566   8.7943   8.9006   8.9197   8.9544   8.9756   8.9774   8.9781
     8.9827   8.9888   8.9955   9.0092   9.0113   9.0330   9.0529   9.0728
     9.1045   9.1440   9.3110   9.3154   9.3169   9.3212   9.4013   9.4072
     9.4094   9.4163   9.4176   9.4223   9.4272   9.4281   9.4404   9.4538
     9.4589   9.4669   9.4766   9.4809   9.4851   9.4913   9.4993   9.5027
     9.5121   9.5218   9.5423   9.5574   9.5665   9.5687   9.5738   9.5811
     9.5996   9.6102   9.6977   9.7001   9.7665   9.8213   9.8221   9.8329
     9.8333   9.8353   9.8362   9.8450   9.8596   9.8724  10.0324  10.0597
    10.0675  10.0886  10.1007  10.1210  10.1358  10.1408  10.1542  10.1600
    10.1806  10.1933  10.2019  10.2097  10.2218  10.2283  10.2308  10.2359
    10.2372  10.2380  10.2585  10.2731  10.4473  10.4706  10.4735  10.4885
    10.4950  10.5006  10.5249  10.5335  10.6226  10.6366  10.6505  10.6569
    10.6626  10.6640  10.6700  10.6726  10.6920  10.6970  10.7022  10.7040
    10.7163  10.7422  10.7638  10.7931  10.8162  10.8673  10.8781  10.8931
    10.9126  10.9286  11.1994  11.2070  11.2141  11.2235  11.2866  11.3015
    11.3202  11.3452  11.3584  11.3663  11.4037  11.4193  11.5524  11.5678
    11.5812  11.5952  11.6139  11.6386  11.6409  11.6454  11.6493  11.6502
    11.6574  11.6773  11.6847  11.7200  11.7401  11.7445  11.7558  11.8736
    11.8747  11.8780  11.8794  11.8803  11.8829  11.8909  11.9957  12.0152
    12.0187  12.0204  12.0933  12.0988  12.1032  12.1091  12.1097  12.1116
    12.1188  12.1191  12.1252  12.1297  12.1367  12.1430  12.1682  12.1753
    12.1944  12.2020  12.2108  12.2120  12.2183  12.2269  12.2272  12.2532
    12.2715  12.2784  12.2808  12.2845  12.2922  12.3008  12.3227  12.3337
    12.3492  12.3987  12.4328  12.4403  12.4542  12.4649  12.4847  12.5236
    12.5295  12.5521  12.5827  12.5969  12.6033  12.6259  12.6440  12.6816
    12.6977  12.7125  12.7533  12.7802  12.8158  12.8736  12.9378  12.9506
    12.9522  12.9766  12.9834  13.0072  13.0325  13.4382  13.6681  13.6720
    13.6773  13.7549  13.8351  13.8492  13.9253  13.9259  13.9838  14.2035
    14.2742  14.2814  14.3232  14.3888  14.4586  14.7784  14.8025  14.8619
    15.1068  15.1425  15.1743  15.3057  15.4094  15.5086  15.6148  15.7409
    15.7801  15.8017  15.8142  15.8403  15.8617  15.8900  15.8975  15.9307
    15.9426  15.9792  15.9867  16.0064  16.0320  16.0663  16.0913  16.1656
    16.1907  16.2394  16.2778  16.2997  16.3144  16.3662  16.3725  16.4164
    16.4866  16.5186  16.5777  16.6654  16.6656  16.7190  16.7408  16.7973
    16.8086  16.8771  16.9809  17.0156  17.3816  17.3974  17.4794  18.1376
    18.1637  18.2022  18.2082  18.2391  18.2448  18.4164  18.4987  18.5533
    18.5674  18.6167  18.6423  18.6533  18.7312  18.7929  18.7978  18.8048

          k =-0.5000-0.5000-0.5734 ( 31672 PWs)   bands (ev):

   -66.7880 -66.7545 -66.7090 -66.7071 -66.6639 -66.6465 -66.6390 -66.6341
   -66.6171 -62.4135 -62.3917 -62.3849 -62.3589 -62.3503 -62.3492 -62.3473
   -62.3410 -62.3333 -35.5422 -35.5306 -35.5182 -35.5144 -35.4961 -35.4794
   -35.4637 -35.4610 -35.4585 -35.4566 -35.4395 -35.4360 -35.4332 -35.4100
   -35.4048 -35.4013 -35.3962 -35.3916 -35.3886 -35.3831 -35.3804 -35.3770
   -35.3744 -35.3719 -35.3551 -35.3536 -35.3337 -31.2503 -31.2473 -31.2300
   -31.2202 -31.2183 -31.2183 -31.2131 -31.2074 -31.2016 -31.1995 -31.1957
   -31.1954 -31.1854 -31.1814 -31.1784 -31.1752 -31.1741 -31.1725 -31.1695
   -31.1689 -31.1674 -31.1648 -31.1571 -31.1529 -31.1504 -31.1495 -31.1457
     6.8810   6.8876   6.9314   6.9398   6.9989   7.0169   7.0475   7.0521
     8.4394   8.4705   8.4731   8.4788   8.4847   8.4901   8.4934   8.4952
     8.5012   8.5037   8.5062   8.5135   8.5235   8.5439   8.5444   8.5573
     8.5768   8.5771   8.5879   8.6453   8.8775   8.8789   8.8903   8.8985
     8.9166   8.9223   8.9291   8.9359   9.0837   9.0874   9.1153   9.1212
     9.1268   9.1272   9.1400   9.1475   9.1548   9.1572   9.1588   9.1628
     9.1629   9.1656   9.1692   9.1757   9.1775   9.1791   9.1793   9.1822
     9.1838   9.1850   9.1924   9.1951   9.1981   9.2048   9.2139   9.2155
     9.2347   9.2377   9.2404   9.2494   9.2611   9.2642   9.2711   9.2836
     9.5430   9.5474   9.5627   9.5662   9.5808   9.5883   9.6192   9.6267
     9.6350   9.6426   9.6683   9.6930   9.7097   9.7502   9.7865   9.7967
     9.8110   9.8193   9.8392   9.8587   9.8802   9.8924   9.8954   9.9011
    10.0978  10.1186  10.1501  10.1591  10.1602  10.1744  10.1997  10.2098
    10.2678  10.3356  10.4309  10.4413  10.4572  10.4658  10.4785  10.4830
    10.4884  10.4937  10.4978  10.5010  10.5038  10.5122  10.5194  10.5232
    10.5256  10.5359  10.5438  10.5500  10.5513  10.5591  10.6081  10.6156
    10.6263  10.6346  10.6360  10.6372  10.6469  10.6607  10.6637  10.6705
    10.6854  10.6893  10.6944  10.6963  10.7128  10.7190  11.0306  11.0579
    11.0675  11.0775  11.0849  11.0981  11.1082  11.1325  11.3776  11.3811
    11.3910  11.4013  11.4097  11.4205  11.4412  11.4554  11.4563  11.4657
    11.4867  11.4918  11.4979  11.5078  11.5383  11.5467  11.5898  11.6356
    11.6372  11.6390  11.6579  11.6652  11.6734  11.6992  11.7046  11.7148
    11.7161  11.7196  11.7232  11.7396  11.7634  11.7660  11.7703  11.7870
    11.8025  11.8152  11.8267  11.8335  11.8433  11.9566  11.9720  11.9795
    11.9935  12.0199  12.0539  12.0893  12.1050  12.1106  12.1199  12.1389
    12.1731  12.1852  12.2150  12.2250  12.2770  12.2826  12.2906  12.3020
    12.3086  12.3477  12.3744  12.3910  12.4386  12.4460  12.4644  12.4788
    12.4889  12.5058  12.5292  12.5355  12.5458  12.5654  12.5906  12.6004
    12.6581  12.6902  12.7099  12.7361  12.7416  12.7813  12.8071  12.8932
    12.9603  12.9773  12.9919  13.0033  13.1164  13.1200  13.1393  13.1694
    13.1873  13.2067  13.2499  13.2991  13.3387  13.3545  13.3741  13.5091
    13.5485  13.5768  13.6907  13.7554  13.9650  13.9687  14.0247  14.0979
    14.1743  14.2473  14.3577  14.3974  14.7718  14.7814  14.9782  15.0519
    15.1339  15.2833  15.3555  15.4223  15.4384  15.6362  15.7049  15.7254
    15.7266  15.7646  15.8117  15.8259  15.8326  15.8766  15.9100  15.9250
    15.9360  15.9630  15.9918  16.0434  16.0550  16.1075  16.1304  16.1942
    16.2149  16.2412  16.2499  16.2511  16.2941  16.3710  16.4445  16.5231
    16.5411  16.5820  16.6159  16.6195  16.6402  16.6748  16.7344  16.7599
    16.7828  16.8508  16.8545  16.9072  16.9209  16.9689  17.0003  17.0285
    17.1060  17.1332  17.4407  17.6901  17.9609  18.0632  19.0017  19.0363
    19.0385  19.0646  19.1104  19.1300  19.1740  19.2309  19.2327  19.3083

          k =-0.5000 0.0000 0.0000 ( 31722 PWs)   bands (ev):

   -66.7880 -66.7545 -66.7090 -66.7071 -66.6639 -66.6465 -66.6390 -66.6341
   -66.6171 -62.4135 -62.3917 -62.3849 -62.3589 -62.3503 -62.3492 -62.3473
   -62.3410 -62.3333 -35.5422 -35.5305 -35.5181 -35.5144 -35.4962 -35.4794
   -35.4636 -35.4610 -35.4585 -35.4566 -35.4395 -35.4360 -35.4332 -35.4100
   -35.4048 -35.4013 -35.3962 -35.3916 -35.3886 -35.3831 -35.3799 -35.3770
   -35.3760 -35.3710 -35.3551 -35.3536 -35.3337 -31.2500 -31.2473 -31.2308
   -31.2202 -31.2183 -31.2178 -31.2131 -31.2074 -31.2012 -31.1995 -31.1957
   -31.1957 -31.1851 -31.1814 -31.1795 -31.1751 -31.1741 -31.1725 -31.1695
   -31.1683 -31.1674 -31.1648 -31.1571 -31.1529 -31.1504 -31.1495 -31.1457
     6.0234   6.0608   7.4183   7.4371   7.4495   7.4839   7.6720   7.6819
     8.0995   8.1177   8.1374   8.1800   8.2118   8.2172   8.2422   8.2818
     8.4027   8.4270   8.4357   8.4771   8.5947   8.6361   8.6473   8.6548
     8.6602   8.6929   8.6974   8.7023   8.7353   8.7998   8.8265   8.8444
     8.8500   8.8605   8.8808   8.8915   8.9045   8.9090   8.9146   8.9201
     8.9262   8.9296   8.9357   8.9466   9.0477   9.0547   9.1616   9.1827
     9.1924   9.1958   9.2023   9.2318   9.2386   9.2532   9.3155   9.3389
     9.3538   9.3647   9.3779   9.4127   9.4752   9.4850   9.4941   9.5108
     9.5157   9.5375   9.5381   9.5558   9.5936   9.5949   9.6046   9.6181
     9.6214   9.6257   9.6311   9.6327   9.6349   9.6379   9.6420   9.6520
     9.6562   9.6637   9.6740   9.6788   9.6920   9.7172   9.7351   9.7519
     9.7595   9.7634   9.7659   9.7686   9.8956   9.8970   9.9062  10.0090
    10.0091  10.0427  10.1417  10.1915  10.2103  10.2377  10.2469  10.2555
    10.2640  10.2689  10.2703  10.2706  10.2844  10.2887  10.3437  10.3557
    10.3633  10.3794  10.3820  10.3852  10.4221  10.4452  10.4459  10.4729
    10.4808  10.5203  10.5240  10.5331  10.5455  10.5770  10.5796  10.5934
    10.6110  10.6593  10.6780  10.6810  10.7027  10.7244  10.7457  10.7621
    10.7970  10.8172  10.8268  10.8522  10.8659  10.8957  10.9144  10.9289
    10.9533  11.0122  11.0181  11.0220  11.0313  11.1260  11.1579  11.1913
    11.2857  11.3462  11.3524  11.3669  11.3843  11.3907  11.4067  11.4168
    11.4397  11.4429  11.4503  11.4634  11.5006  11.5293  11.5344  11.5573
    11.5719  11.5784  11.6023  11.6236  11.6454  11.6572  11.6860  11.7229
    11.7352  11.7769  11.7841  11.7901  11.7952  11.8330  11.8442  11.8449
    11.8525  11.8756  11.9096  11.9193  11.9383  11.9558  11.9580  11.9818
    11.9836  11.9916  12.0104  12.0119  12.1064  12.1517  12.1559  12.1877
    12.1972  12.2129  12.2132  12.2216  12.2429  12.2587  12.2778  12.2842
    12.2880  12.2947  12.3232  12.3356  12.3545  12.3739  12.4010  12.4156
    12.4306  12.4465  12.4641  12.4743  12.4823  12.5229  12.5321  12.5605
    12.5660  12.5741  12.6089  12.6174  12.6528  12.6529  12.6697  12.7486
    12.8820  12.9166  13.0205  13.0602  13.0672  13.1204  13.1375  13.1475
    13.1480  13.1869  13.1890  13.1965  13.2326  13.2865  13.2937  13.3192
    13.3474  13.3901  13.4221  13.7177  13.7468  14.2840  14.4767  14.4990
    14.6295  14.7493  14.7621  14.7935  14.8210  14.8647  14.8979  14.9709
    15.0460  15.2283  15.2406  15.3483  15.4233  15.4592  15.5153  15.6036
    15.6049  15.6981  15.7318  15.7727  15.8163  15.8191  15.8659  16.0448
    16.0503  16.0946  16.1012  16.1274  16.1461  16.1499  16.1666  16.1730
    16.2074  16.2086  16.2295  16.2543  16.2626  16.2764  16.2923  16.3430
    16.4216  16.4707  16.5128  16.5811  16.7145  16.7901  17.0012  17.0956
    17.1546  17.1912  17.1945  17.3113  17.4019  17.5335  17.6235  17.6292
    17.7149  17.7167  17.7835  17.8131  17.8765  17.8801  17.9221  17.9248
    18.0382  18.1044  18.1524  18.2310  19.2681  19.2828  19.2927  19.3323

          k =-0.5000 0.0000 0.5734 ( 31696 PWs)   bands (ev):

   -66.7880 -66.7545 -66.7090 -66.7071 -66.6639 -66.6465 -66.6390 -66.6341
   -66.6171 -62.4135 -62.3917 -62.3849 -62.3589 -62.3503 -62.3492 -62.3473
   -62.3410 -62.3333 -35.5422 -35.5305 -35.5181 -35.5144 -35.4962 -35.4794
   -35.4636 -35.4610 -35.4585 -35.4566 -35.4395 -35.4360 -35.4332 -35.4100
   -35.4048 -35.4013 -35.3962 -35.3916 -35.3886 -35.3831 -35.3799 -35.3770
   -35.3760 -35.3710 -35.3551 -35.3536 -35.3337 -31.2500 -31.2473 -31.2308
   -31.2202 -31.2183 -31.2178 -31.2131 -31.2074 -31.2012 -31.1995 -31.1957
   -31.1957 -31.1851 -31.1814 -31.1795 -31.1751 -31.1741 -31.1725 -31.1695
   -31.1683 -31.1674 -31.1648 -31.1571 -31.1529 -31.1504 -31.1495 -31.1457
     6.4979   6.5809   6.5921   6.6682   7.8213   7.8261   7.8607   7.8743
     7.9055   7.9273   7.9428   7.9549   8.2618   8.2845   8.2961   8.3030
     8.5151   8.5235   8.5275   8.5391   8.6562   8.6675   8.6734   8.6826
     8.6891   8.6966   8.7009   8.7150   8.7284   8.7302   8.7491   8.7498
     8.7682   8.7688   8.7806   8.8258   8.9264   8.9951   9.0173   9.0237
     9.0334   9.0651   9.0700   9.0779   9.1555   9.1981   9.2061   9.2205
     9.2302   9.2305   9.2330   9.2380   9.2405   9.2453   9.2560   9.2593
     9.2609   9.2656   9.2733   9.2761   9.2867   9.3808   9.3859   9.3927
     9.4055   9.4265   9.4535   9.4551   9.4704   9.4714   9.4759   9.4782
     9.4822   9.4844   9.5072   9.5101   9.5276   9.5446   9.5633   9.5709
     9.5870   9.6310   9.7521   9.7616   9.7832   9.7885   9.7921   9.8199
     9.8282   9.8300   9.8445   9.8500   9.8623   9.8721   9.8847   9.8894
     9.9443   9.9710  10.0054  10.0104  10.0323  10.0378  10.0557  10.0616
    10.3540  10.3754  10.3758  10.3862  10.4080  10.4191  10.4253  10.4284
    10.4333  10.4588  10.4714  10.4844  10.4862  10.4920  10.4963  10.5372
    10.5463  10.5607  10.5778  10.5839  10.5915  10.6037  10.6161  10.6258
    10.6546  10.6582  10.6726  10.6732  10.6814  10.6953  10.7139  10.7185
    10.7285  10.8560  10.8578  10.8948  10.9738  11.0032  11.0122  11.0854
    11.1147  11.1202  11.1269  11.1797  11.1867  11.1949  11.1954  11.2033
    11.2112  11.2145  11.2726  11.3309  11.3338  11.3356  11.3641  11.3699
    11.3707  11.3828  11.4055  11.4423  11.4504  11.4634  11.4754  11.5355
    11.5368  11.5658  11.5681  11.5713  11.5783  11.5826  11.5921  11.6025
    11.6322  11.6357  11.7217  11.7239  11.7371  11.7513  11.7724  11.8021
    11.8869  11.8980  11.9100  11.9568  11.9600  11.9656  11.9794  12.0051
    12.0123  12.0213  12.0217  12.0319  12.0355  12.0400  12.0956  12.1269
    12.1576  12.1799  12.1923  12.2033  12.2239  12.2442  12.3210  12.3383
    12.3827  12.3890  12.4049  12.4256  12.4462  12.4476  12.4553  12.4690
    12.4794  12.4906  12.5093  12.5137  12.5567  12.5613  12.5859  12.5867
    12.6328  12.6463  12.6479  12.6630  12.7053  12.7538  12.8497  12.8542
    12.8651  12.8864  12.9462  12.9984  13.0180  13.0318  13.0345  13.0733
    13.1573  13.1877  13.2639  13.3492  13.5220  13.5361  13.6820  13.7722
    13.7778  13.9307  14.0268  14.0456  14.1396  14.1409  14.1756  14.3732
    14.4168  14.5329  14.5757  14.6091  14.6283  14.7431  14.8177  15.0487
    15.1412  15.1902  15.2853  15.3881  15.4628  15.4725  15.5213  15.5566
    15.6335  15.6475  15.6955  15.7215  15.7279  15.7957  15.8943  16.0909
    16.1018  16.1092  16.1357  16.1535  16.1566  16.1813  16.2098  16.2098
    16.2550  16.2795  16.2894  16.2937  16.3283  16.3955  16.4682  16.4724
    16.5056  16.5365  16.5556  16.6112  16.6135  16.6354  16.6910  16.6946
    16.7004  16.7562  16.7761  16.8491  16.8755  16.9195  16.9700  16.9843
    17.0829  17.1011  17.2077  17.2923  18.6124  18.6675  18.7586  18.7621
    18.7839  18.7888  18.7944  18.8456  18.8795  18.8929  18.9457  18.9907

 ------ SPIN DOWN ----------


          k = 0.0000 0.0000 0.0000 ( 31747 PWs)   bands (ev):

   -66.7880 -66.7544 -66.7090 -66.7070 -66.6638 -66.6463 -66.6389 -66.6341
   -66.6171 -62.4135 -62.3916 -62.3849 -62.3590 -62.3504 -62.3492 -62.3473
   -62.3410 -62.3333 -35.5421 -35.5305 -35.5181 -35.5144 -35.4961 -35.4793
   -35.4636 -35.4609 -35.4585 -35.4565 -35.4394 -35.4359 -35.4332 -35.4100
   -35.4048 -35.4012 -35.3961 -35.3915 -35.3885 -35.3831 -35.3797 -35.3769
   -35.3760 -35.3710 -35.3551 -35.3536 -35.3336 -31.2500 -31.2473 -31.2308
   -31.2200 -31.2184 -31.2178 -31.2131 -31.2077 -31.2012 -31.1995 -31.1957
   -31.1957 -31.1853 -31.1814 -31.1795 -31.1751 -31.1741 -31.1725 -31.1694
   -31.1683 -31.1674 -31.1649 -31.1572 -31.1529 -31.1504 -31.1495 -31.1457
     5.6143   7.1506   7.1596   7.1944   7.2059   7.3659   7.8592   7.8884
     7.9118   7.9428   8.0843   8.1088   8.1348   8.1530   8.1909   8.2441
     8.2620   8.2922   8.3104   8.5237   8.5495   8.5641   8.5693   8.5946
     8.6035   8.8571   8.8676   8.8688   8.8789   8.8853   8.8932   8.9016
     8.9031   8.9059   8.9139   8.9169   8.9310   8.9410   8.9624   8.9638
     8.9867   9.0853   9.1195   9.1268   9.1286   9.1313   9.1595   9.1602
     9.1885   9.2011   9.2121   9.2691   9.2782   9.2937   9.3061   9.3526
     9.3557   9.3620   9.3720   9.3765   9.3822   9.3853   9.4125   9.4259
     9.4461   9.4481   9.4557   9.4665   9.4672   9.4728   9.4956   9.5814
     9.5839   9.5840   9.5887   9.5914   9.6139   9.6583   9.6686   9.6726
     9.6737   9.6766   9.6810   9.7403   9.7585   9.7731   9.7932   9.8494
     9.8507   9.9122   9.9208   9.9506   9.9551   9.9638  10.0165  10.0375
    10.0967  10.1286  10.1364  10.1583  10.2923  10.2931  10.2955  10.2997
    10.3009  10.3063  10.3065  10.3117  10.3118  10.3251  10.3343  10.3455
    10.3497  10.3512  10.3546  10.3566  10.3616  10.3659  10.3810  10.3855
    10.4011  10.5135  10.5167  10.5533  10.5706  10.6181  10.6219  10.6426
    10.6916  10.7846  10.7870  10.8140  10.8199  10.8267  10.8321  10.8493
    10.8540  10.8597  10.8629  10.8747  10.8781  10.8825  10.8989  10.9139
    10.9173  10.9181  11.0144  11.0351  11.0758  11.0980  11.2209  11.2227
    11.2266  11.2290  11.2570  11.2752  11.3070  11.3283  11.3339  11.3460
    11.3548  11.3670  11.3882  11.3917  11.4015  11.4091  11.4153  11.4218
    11.4399  11.4652  11.5322  11.5550  11.5913  11.5941  11.5969  11.5980
    11.5987  11.6681  11.7050  11.7272  11.7315  11.7318  11.7443  11.7494
    11.8303  11.8332  11.8365  11.8720  11.8732  11.9097  11.9274  11.9455
    11.9495  12.0143  12.0809  12.1013  12.1022  12.1036  12.1062  12.1443
    12.1460  12.1480  12.1495  12.1618  12.1740  12.1814  12.1915  12.2317
    12.2449  12.2464  12.3228  12.3358  12.3421  12.3617  12.3682  12.4258
    12.4292  12.4347  12.4428  12.4733  12.4882  12.5001  12.5032  12.5143
    12.5168  12.5416  12.5418  12.5551  12.5626  12.5766  12.5870  12.6514
    12.7002  12.7082  12.7437  12.7541  12.9974  13.0300  13.0914  13.1061
    13.1300  13.1311  13.1782  13.1886  13.3759  13.4664  13.6750  13.8221
    13.8390  13.9612  14.0070  14.2396  14.2437  14.3452  14.3520  14.5018
    14.7792  14.8898  14.9450  15.0460  15.0524  15.1535  15.1837  15.2346
    15.2953  15.3345  15.3730  15.3933  15.4474  15.4663  15.5182  15.5773
    15.6580  15.6585  15.7347  15.7560  15.7846  15.7982  15.9152  15.9226
    16.0065  16.0822  16.1081  16.1099  16.1148  16.1457  16.1793  16.2121
    16.2216  16.2446  16.2788  16.3405  16.3623  16.3669  16.3781  16.4388
    16.4472  16.4673  16.4739  16.5808  16.6418  16.6510  16.7561  16.8497
    16.9773  17.0302  17.1653  17.1909  17.2029  17.2473  17.2638  17.3295
    17.5024  17.5525  17.8675  17.9114  17.9336  17.9475  17.9714  18.0367
    18.1154  18.2168  18.3699  18.9818  19.0338  19.0342  19.1562  19.2290

          k = 0.0000 0.0000-0.5734 ( 31692 PWs)   bands (ev):

   -66.7880 -66.7544 -66.7090 -66.7070 -66.6638 -66.6463 -66.6389 -66.6341
   -66.6171 -62.4135 -62.3916 -62.3849 -62.3590 -62.3504 -62.3492 -62.3473
   -62.3410 -62.3333 -35.5421 -35.5305 -35.5181 -35.5144 -35.4961 -35.4793
   -35.4636 -35.4609 -35.4585 -35.4565 -35.4394 -35.4359 -35.4332 -35.4100
   -35.4048 -35.4012 -35.3961 -35.3915 -35.3885 -35.3831 -35.3797 -35.3769
   -35.3760 -35.3710 -35.3551 -35.3536 -35.3336 -31.2500 -31.2473 -31.2308
   -31.2200 -31.2184 -31.2178 -31.2131 -31.2077 -31.2012 -31.1995 -31.1957
   -31.1957 -31.1853 -31.1814 -31.1795 -31.1751 -31.1741 -31.1725 -31.1694
   -31.1683 -31.1674 -31.1649 -31.1572 -31.1529 -31.1504 -31.1495 -31.1457
     6.1373   6.2332   7.5249   7.5342   7.5621   7.5807   7.5858   7.6014
     7.6317   7.6384   8.3041   8.3075   8.3203   8.3433   8.3493   8.3832
     8.3906   8.4083   8.4559   8.4672   8.4690   8.4867   8.4897   8.4951
     8.5091   8.5113   8.6862   8.7254   8.7293   8.8163   8.9398   8.9463
     8.9505   8.9707   8.9813   8.9834   8.9901   8.9946   9.0095   9.0266
     9.0329   9.0468   9.0497   9.0609   9.0946   9.1013   9.1761   9.1879
     9.2193   9.2324   9.2456   9.2596   9.2616   9.2704   9.2793   9.2823
     9.2856   9.2985   9.2993   9.3048   9.3151   9.3272   9.4074   9.4119
     9.4120   9.4260   9.4296   9.4315   9.4422   9.4533   9.4612   9.4661
     9.4745   9.4879   9.4959   9.5149   9.5541   9.5753   9.5900   9.7289
     9.7784   9.7942   9.7991   9.8008   9.8092   9.8222   9.8454   9.8465
     9.8745   9.8781   9.8804   9.8829   9.8837   9.8859   9.8891   9.8907
    10.0538  10.0558  10.0662  10.0676  10.1293  10.1322  10.1352  10.1468
    10.1740  10.1818  10.1980  10.2151  10.2177  10.2226  10.3477  10.3781
    10.3788  10.3893  10.3955  10.4001  10.4007  10.4291  10.4324  10.5530
    10.5918  10.5980  10.6030  10.6096  10.6140  10.6329  10.6403  10.6696
    10.6724  10.6815  10.6940  10.7197  10.7622  10.8113  10.8717  10.8984
    10.9209  10.9431  10.9928  11.0088  11.0372  11.0606  11.0666  11.0818
    11.0849  11.0873  11.1142  11.1327  11.1420  11.1693  11.1721  11.1861
    11.1954  11.2317  11.2506  11.2511  11.2528  11.2548  11.2649  11.2660
    11.2686  11.2698  11.2780  11.2793  11.2874  11.3009  11.3037  11.3054
    11.3218  11.3284  11.3294  11.3316  11.5136  11.6244  11.7076  11.7115
    11.7115  11.7149  11.7179  11.7235  11.7264  11.7335  11.7360  11.7396
    11.7550  11.7743  11.7949  11.7972  11.8137  11.8324  11.8355  11.8408
    11.9496  11.9681  11.9873  11.9987  12.0350  12.0389  12.0815  12.0882
    12.1340  12.1744  12.2151  12.2421  12.2481  12.2695  12.3072  12.3729
    12.3828  12.4079  12.4211  12.4381  12.4527  12.4799  12.4893  12.4899
    12.4929  12.5297  12.5354  12.5457  12.5480  12.5700  12.5783  12.5906
    12.6202  12.6333  12.7348  12.7913  12.8195  12.8703  12.8790  12.9145
    12.9791  13.0338  13.0369  13.0740  13.1237  13.1250  13.1449  13.1453
    13.1960  13.2165  13.2508  13.4281  13.5026  13.5317  13.5359  13.7479
    13.8792  13.9535  14.0170  14.0720  14.1239  14.1689  14.2659  14.4351
    14.4911  14.8857  14.9222  14.9552  14.9760  15.0336  15.0578  15.0716
    15.1488  15.1879  15.2030  15.2092  15.2520  15.2745  15.3642  15.6303
    15.6559  15.7190  15.7435  15.7691  15.8492  15.8857  15.9578  16.0230
    16.1026  16.1246  16.1253  16.1320  16.1355  16.1725  16.1813  16.2127
    16.2347  16.2388  16.2440  16.2603  16.2642  16.2699  16.2870  16.3457
    16.3834  16.4396  16.4481  16.5159  16.6025  16.6904  16.7247  16.7597
    16.8895  16.9579  17.2468  17.3443  17.4171  17.4705  17.5392  17.5483
    17.5706  17.5725  17.6120  17.6435  17.6512  17.7258  17.7892  17.8374
    17.9059  17.9305  18.0795  18.1224  18.1774  18.2585  18.3471  18.3614

          k = 0.0000-0.5000 0.0000 ( 31722 PWs)   bands (ev):

   -66.7880 -66.7544 -66.7090 -66.7070 -66.6638 -66.6463 -66.6389 -66.6341
   -66.6171 -62.4135 -62.3916 -62.3849 -62.3590 -62.3504 -62.3492 -62.3473
   -62.3410 -62.3333 -35.5421 -35.5305 -35.5181 -35.5144 -35.4960 -35.4793
   -35.4637 -35.4609 -35.4585 -35.4565 -35.4394 -35.4359 -35.4332 -35.4100
   -35.4048 -35.4012 -35.3961 -35.3915 -35.3885 -35.3831 -35.3803 -35.3769
   -35.3744 -35.3719 -35.3551 -35.3537 -35.3336 -31.2503 -31.2473 -31.2300
   -31.2199 -31.2184 -31.2183 -31.2131 -31.2077 -31.2016 -31.1995 -31.1957
   -31.1955 -31.1856 -31.1814 -31.1784 -31.1751 -31.1741 -31.1726 -31.1693
   -31.1689 -31.1674 -31.1649 -31.1572 -31.1529 -31.1504 -31.1495 -31.1457
     6.0330   6.0514   7.4068   7.4393   7.4548   7.4861   7.6753   7.6795
     8.1014   8.1222   8.1506   8.1733   8.1778   8.2334   8.2453   8.2890
     8.3900   8.4162   8.4546   8.4857   8.5960   8.6229   8.6439   8.6543
     8.6778   8.6788   8.6988   8.7064   8.7382   8.8126   8.8212   8.8371
     8.8428   8.8736   8.8757   8.8818   8.9065   8.9093   8.9123   8.9204
     8.9264   8.9310   8.9389   8.9505   9.0502   9.0533   9.1581   9.1769
     9.1876   9.1989   9.2121   9.2246   9.2430   9.2504   9.3160   9.3235
     9.3377   9.3839   9.4016   9.4028   9.4741   9.4775   9.4839   9.4971
     9.5370   9.5407   9.5419   9.5729   9.5757   9.6025   9.6041   9.6159
     9.6180   9.6197   9.6284   9.6288   9.6333   9.6408   9.6467   9.6566
     9.6657   9.6673   9.6674   9.6801   9.6913   9.7151   9.7249   9.7494
     9.7565   9.7623   9.7703   9.7746   9.8896   9.8972   9.9035  10.0054
    10.0161  10.0320  10.1563  10.1856  10.2136  10.2251  10.2470  10.2523
    10.2695  10.2722  10.2778  10.2795  10.2813  10.2876  10.3462  10.3607
    10.3650  10.3815  10.3839  10.3902  10.4303  10.4411  10.4433  10.4497
    10.4890  10.5149  10.5183  10.5320  10.5634  10.5655  10.5854  10.5937
    10.6077  10.6572  10.6910  10.6989  10.7044  10.7063  10.7396  10.7806
    10.8057  10.8130  10.8343  10.8480  10.8698  10.8860  10.9063  10.9242
    10.9305  10.9962  11.0050  11.0274  11.0514  11.1237  11.1629  11.1936
    11.2745  11.3445  11.3511  11.3612  11.3661  11.3969  11.4002  11.4045
    11.4188  11.4454  11.4823  11.4920  11.4937  11.5469  11.5515  11.5759
    11.5839  11.5945  11.6004  11.6100  11.6152  11.6576  11.6579  11.7223
    11.7459  11.7831  11.8020  11.8116  11.8139  11.8388  11.8429  11.8611
    11.8648  11.8842  11.8977  11.9181  11.9259  11.9471  11.9680  11.9719
    11.9830  12.0054  12.0174  12.0184  12.0389  12.1302  12.1453  12.1880
    12.1950  12.2096  12.2295  12.2411  12.2428  12.2607  12.2630  12.2785
    12.2855  12.2958  12.2987  12.3010  12.3794  12.3961  12.4055  12.4067
    12.4493  12.4584  12.4641  12.4757  12.4814  12.5152  12.5193  12.5515
    12.5725  12.5779  12.6077  12.6633  12.6657  12.7042  12.7247  12.7721
    12.7973  12.8593  12.9271  12.9766  13.0585  13.0762  13.1359  13.1426
    13.1506  13.2022  13.2203  13.2280  13.2667  13.2694  13.3130  13.3252
    13.3675  13.4340  13.4581  13.7216  13.7453  14.1264  14.5109  14.5736
    14.6267  14.7449  14.7879  14.8569  14.8653  14.8836  14.9322  14.9547
    15.0783  15.1067  15.2299  15.3328  15.3782  15.3961  15.5118  15.5674
    15.6856  15.7470  15.7490  15.7886  15.8371  15.8623  15.9308  16.0251
    16.0253  16.0544  16.0555  16.0703  16.1019  16.1307  16.1428  16.1565
    16.1782  16.1976  16.2382  16.2479  16.2609  16.2960  16.3482  16.3645
    16.4214  16.4244  16.5502  16.5881  16.7164  16.8011  16.9980  17.0327
    17.1184  17.2073  17.2531  17.3930  17.4389  17.5602  17.6107  17.6248
    17.7091  17.7462  17.7705  17.8228  17.8322  17.8591  17.9189  18.0034
    18.0453  18.0621  18.1306  18.2139  19.2646  19.2911  19.3109  19.3634

          k = 0.0000-0.5000-0.5734 ( 31696 PWs)   bands (ev):

   -66.7880 -66.7544 -66.7090 -66.7070 -66.6638 -66.6463 -66.6389 -66.6341
   -66.6171 -62.4135 -62.3916 -62.3849 -62.3590 -62.3504 -62.3492 -62.3473
   -62.3410 -62.3333 -35.5421 -35.5305 -35.5181 -35.5144 -35.4960 -35.4793
   -35.4637 -35.4609 -35.4585 -35.4565 -35.4394 -35.4359 -35.4332 -35.4100
   -35.4048 -35.4012 -35.3961 -35.3915 -35.3885 -35.3831 -35.3803 -35.3769
   -35.3744 -35.3719 -35.3551 -35.3537 -35.3336 -31.2503 -31.2473 -31.2300
   -31.2199 -31.2184 -31.2183 -31.2131 -31.2077 -31.2016 -31.1995 -31.1957
   -31.1955 -31.1856 -31.1814 -31.1784 -31.1751 -31.1741 -31.1726 -31.1693
   -31.1689 -31.1674 -31.1649 -31.1572 -31.1529 -31.1504 -31.1495 -31.1457
     6.5232   6.5535   6.6067   6.6519   7.8322   7.8398   7.8457   7.8790
     7.8990   7.9314   7.9451   7.9496   8.2642   8.2822   8.2929   8.3049
     8.5041   8.5252   8.5356   8.5412   8.6377   8.6659   8.6736   8.6867
     8.6919   8.6961   8.7128   8.7166   8.7210   8.7239   8.7444   8.7583
     8.7588   8.7638   8.7838   8.8431   8.9458   8.9716   9.0247   9.0264
     9.0306   9.0607   9.0651   9.0809   9.1816   9.1991   9.2016   9.2118
     9.2177   9.2215   9.2234   9.2299   9.2358   9.2465   9.2553   9.2655
     9.2720   9.2811   9.2886   9.2914   9.3052   9.3623   9.3807   9.3830
     9.4067   9.4260   9.4529   9.4568   9.4638   9.4651   9.4716   9.4854
     9.4878   9.4928   9.5000   9.5020   9.5150   9.5452   9.5507   9.5740
     9.5827   9.6198   9.7521   9.7631   9.7742   9.7776   9.8047   9.8243
     9.8249   9.8389   9.8488   9.8545   9.8578   9.8610   9.8934   9.8949
     9.9595   9.9856   9.9889   9.9987  10.0302  10.0308  10.0547  10.0695
    10.3572  10.3862  10.3925  10.4061  10.4119  10.4177  10.4237  10.4304
    10.4490  10.4610  10.4730  10.4790  10.4884  10.4943  10.4986  10.5178
    10.5275  10.5635  10.5759  10.5793  10.5982  10.6104  10.6150  10.6171
    10.6409  10.6496  10.6676  10.6702  10.6782  10.6928  10.7165  10.7171
    10.7300  10.8555  10.8614  10.9049  10.9632  10.9951  11.0354  11.1086
    11.1149  11.1310  11.1347  11.1499  11.1608  11.1892  11.1978  11.2100
    11.2114  11.2145  11.2558  11.3169  11.3437  11.3523  11.3653  11.3706
    11.3785  11.3816  11.4106  11.4261  11.4399  11.4852  11.4887  11.5111
    11.5197  11.5573  11.5740  11.5789  11.5811  11.5961  11.6029  11.6205
    11.6228  11.6419  11.6430  11.7110  11.7563  11.7651  11.8163  11.8242
    11.8927  11.8978  11.9037  11.9532  11.9616  11.9621  11.9822  12.0093
    12.0219  12.0274  12.0274  12.0333  12.0367  12.0391  12.0785  12.1337
    12.1435  12.1597  12.1822  12.2214  12.2323  12.2578  12.2917  12.3371
    12.3703  12.4112  12.4166  12.4232  12.4445  12.4468  12.4742  12.4886
    12.4993  12.5125  12.5153  12.5307  12.5451  12.5620  12.6269  12.6279
    12.6310  12.6404  12.6587  12.6611  12.7309  12.7572  12.7669  12.7789
    12.8676  12.8810  12.9117  12.9767  13.0105  13.0255  13.0437  13.0628
    13.0810  13.1953  13.2596  13.3549  13.4467  13.5347  13.5654  13.7997
    13.8733  13.9811  14.0568  14.1162  14.1498  14.2426  14.2699  14.3974
    14.4216  14.4621  14.5295  14.5801  14.6946  14.7050  14.7917  15.0324
    15.0921  15.2020  15.2685  15.3118  15.3447  15.3835  15.5591  15.5875
    15.6073  15.6837  15.7820  15.7984  15.8610  15.9215  15.9394  15.9685
    16.0360  16.0727  16.0876  16.1243  16.1497  16.1743  16.2147  16.2295
    16.2428  16.2695  16.2784  16.2789  16.2913  16.3349  16.3668  16.4839
    16.4864  16.5335  16.5465  16.5951  16.6137  16.6490  16.6877  16.7446
    16.7470  16.8060  16.8322  16.8996  16.9137  16.9527  16.9591  16.9951
    17.0807  17.1208  17.2061  17.2829  18.5593  18.6774  18.7114  18.7181
    18.7461  18.7992  18.8345  18.8553  18.8646  18.9201  18.9659  18.9889

          k =-0.5000-0.5000 0.0000 ( 31612 PWs)   bands (ev):

   -66.7880 -66.7544 -66.7090 -66.7070 -66.6638 -66.6463 -66.6389 -66.6341
   -66.6171 -62.4135 -62.3916 -62.3849 -62.3590 -62.3504 -62.3492 -62.3473
   -62.3410 -62.3333 -35.5421 -35.5305 -35.5181 -35.5144 -35.4960 -35.4793
   -35.4637 -35.4609 -35.4585 -35.4565 -35.4394 -35.4359 -35.4332 -35.4100
   -35.4048 -35.4012 -35.3961 -35.3915 -35.3885 -35.3831 -35.3803 -35.3769
   -35.3744 -35.3719 -35.3551 -35.3537 -35.3337 -31.2503 -31.2473 -31.2300
   -31.2202 -31.2184 -31.2183 -31.2131 -31.2074 -31.2016 -31.1995 -31.1957
   -31.1955 -31.1855 -31.1814 -31.1784 -31.1751 -31.1741 -31.1726 -31.1695
   -31.1689 -31.1674 -31.1649 -31.1572 -31.1529 -31.1504 -31.1495 -31.1457
     6.4080   6.4307   6.4450   6.4753   8.0109   8.0169   8.0208   8.0238
     8.0807   8.1341   8.2893   8.3223   8.3252   8.3395   8.3403   8.3448
     8.3468   8.3579   8.3616   8.3639   8.3697   8.3885   8.5534   8.5725
     8.6417   8.6663   8.6779   8.6983   8.7122   8.7336   8.7394   8.7499
     8.7566   8.7943   8.9005   8.9196   8.9545   8.9756   8.9774   8.9781
     8.9827   8.9887   8.9956   9.0092   9.0113   9.0330   9.0529   9.0729
     9.1045   9.1440   9.3110   9.3154   9.3169   9.3212   9.4013   9.4072
     9.4094   9.4163   9.4176   9.4223   9.4273   9.4281   9.4404   9.4538
     9.4589   9.4669   9.4766   9.4809   9.4851   9.4913   9.4993   9.5027
     9.5121   9.5218   9.5423   9.5573   9.5666   9.5687   9.5738   9.5810
     9.5995   9.6101   9.6977   9.7001   9.7665   9.8213   9.8221   9.8329
     9.8333   9.8353   9.8362   9.8450   9.8596   9.8724  10.0325  10.0597
    10.0675  10.0886  10.1007  10.1210  10.1358  10.1408  10.1542  10.1599
    10.1806  10.1933  10.2019  10.2097  10.2217  10.2282  10.2307  10.2360
    10.2372  10.2380  10.2585  10.2731  10.4473  10.4706  10.4735  10.4885
    10.4950  10.5005  10.5249  10.5335  10.6226  10.6366  10.6505  10.6569
    10.6626  10.6640  10.6701  10.6726  10.6920  10.6970  10.7022  10.7040
    10.7163  10.7422  10.7638  10.7930  10.8162  10.8672  10.8781  10.8931
    10.9126  10.9286  11.1994  11.2071  11.2141  11.2235  11.2865  11.3014
    11.3202  11.3452  11.3584  11.3662  11.4038  11.4194  11.5524  11.5678
    11.5813  11.5952  11.6139  11.6386  11.6409  11.6454  11.6493  11.6502
    11.6573  11.6773  11.6847  11.7200  11.7401  11.7445  11.7558  11.8737
    11.8747  11.8780  11.8794  11.8803  11.8829  11.8909  11.9957  12.0152
    12.0187  12.0204  12.0933  12.0988  12.1031  12.1091  12.1097  12.1116
    12.1188  12.1191  12.1253  12.1297  12.1368  12.1430  12.1682  12.1753
    12.1944  12.2021  12.2109  12.2120  12.2183  12.2269  12.2273  12.2533
    12.2716  12.2785  12.2808  12.2845  12.2922  12.3008  12.3227  12.3337
    12.3493  12.3987  12.4329  12.4403  12.4543  12.4650  12.4848  12.5237
    12.5295  12.5522  12.5828  12.5970  12.6034  12.6260  12.6440  12.6816
    12.6978  12.7126  12.7534  12.7803  12.8158  12.8737  12.9379  12.9506
    12.9523  12.9767  12.9836  13.0072  13.0325  13.4382  13.6681  13.6721
    13.6773  13.7550  13.8351  13.8492  13.9253  13.9259  13.9839  14.2035
    14.2743  14.2814  14.3233  14.3888  14.4587  14.7785  14.8025  14.8619
    15.1069  15.1425  15.1743  15.3057  15.4094  15.5086  15.6148  15.7409
    15.7801  15.8016  15.8141  15.8402  15.8617  15.8899  15.8975  15.9307
    15.9425  15.9792  15.9866  16.0064  16.0320  16.0663  16.0913  16.1655
    16.1906  16.2394  16.2777  16.2997  16.3144  16.3662  16.3725  16.4163
    16.4866  16.5186  16.5777  16.6654  16.6655  16.7190  16.7408  16.7973
    16.8086  16.8771  16.9809  17.0156  17.3816  17.3974  17.4794  18.1376
    18.1637  18.2022  18.2082  18.2392  18.2448  18.4165  18.4987  18.5533
    18.5674  18.6167  18.6423  18.6533  18.7312  18.7928  18.7979  18.8048

          k =-0.5000-0.5000-0.5734 ( 31672 PWs)   bands (ev):

   -66.7880 -66.7544 -66.7090 -66.7070 -66.6638 -66.6463 -66.6389 -66.6341
   -66.6171 -62.4135 -62.3916 -62.3849 -62.3590 -62.3504 -62.3492 -62.3473
   -62.3410 -62.3333 -35.5421 -35.5305 -35.5181 -35.5144 -35.4960 -35.4793
   -35.4637 -35.4609 -35.4585 -35.4565 -35.4394 -35.4359 -35.4332 -35.4100
   -35.4048 -35.4012 -35.3961 -35.3915 -35.3885 -35.3831 -35.3803 -35.3769
   -35.3744 -35.3719 -35.3551 -35.3537 -35.3337 -31.2503 -31.2473 -31.2300
   -31.2202 -31.2184 -31.2183 -31.2131 -31.2074 -31.2016 -31.1995 -31.1957
   -31.1955 -31.1855 -31.1814 -31.1784 -31.1751 -31.1741 -31.1726 -31.1695
   -31.1689 -31.1674 -31.1649 -31.1572 -31.1529 -31.1504 -31.1495 -31.1457
     6.8810   6.8876   6.9314   6.9398   6.9989   7.0169   7.0475   7.0520
     8.4395   8.4706   8.4732   8.4788   8.4847   8.4901   8.4934   8.4952
     8.5011   8.5037   8.5063   8.5135   8.5236   8.5439   8.5444   8.5573
     8.5767   8.5770   8.5879   8.6453   8.8776   8.8789   8.8903   8.8985
     8.9166   8.9223   8.9291   8.9358   9.0837   9.0874   9.1153   9.1213
     9.1268   9.1273   9.1401   9.1475   9.1548   9.1572   9.1588   9.1628
     9.1629   9.1656   9.1692   9.1757   9.1775   9.1791   9.1793   9.1822
     9.1838   9.1850   9.1924   9.1950   9.1981   9.2048   9.2139   9.2155
     9.2347   9.2377   9.2404   9.2494   9.2610   9.2642   9.2712   9.2836
     9.5430   9.5473   9.5627   9.5663   9.5808   9.5883   9.6192   9.6267
     9.6349   9.6427   9.6683   9.6929   9.7098   9.7502   9.7865   9.7968
     9.8110   9.8194   9.8392   9.8588   9.8800   9.8923   9.8953   9.9011
    10.0978  10.1186  10.1501  10.1591  10.1602  10.1744  10.1997  10.2098
    10.2678  10.3355  10.4309  10.4413  10.4572  10.4658  10.4785  10.4830
    10.4884  10.4937  10.4978  10.5010  10.5038  10.5122  10.5194  10.5232
    10.5256  10.5359  10.5438  10.5500  10.5512  10.5592  10.6081  10.6156
    10.6264  10.6346  10.6360  10.6372  10.6469  10.6607  10.6637  10.6705
    10.6855  10.6894  10.6944  10.6963  10.7128  10.7190  11.0306  11.0579
    11.0675  11.0775  11.0849  11.0980  11.1082  11.1326  11.3776  11.3812
    11.3910  11.4012  11.4097  11.4205  11.4413  11.4554  11.4563  11.4657
    11.4868  11.4918  11.4979  11.5078  11.5383  11.5467  11.5899  11.6356
    11.6372  11.6390  11.6579  11.6651  11.6734  11.6992  11.7047  11.7149
    11.7162  11.7196  11.7232  11.7396  11.7634  11.7660  11.7703  11.7870
    11.8026  11.8153  11.8268  11.8335  11.8434  11.9566  11.9720  11.9795
    11.9935  12.0200  12.0540  12.0894  12.1050  12.1106  12.1199  12.1389
    12.1731  12.1852  12.2151  12.2250  12.2770  12.2826  12.2906  12.3020
    12.3086  12.3477  12.3744  12.3910  12.4386  12.4460  12.4645  12.4789
    12.4889  12.5058  12.5293  12.5356  12.5458  12.5655  12.5906  12.6005
    12.6582  12.6903  12.7100  12.7361  12.7417  12.7813  12.8072  12.8932
    12.9604  12.9773  12.9919  13.0034  13.1164  13.1200  13.1393  13.1695
    13.1873  13.2068  13.2499  13.2992  13.3388  13.3545  13.3741  13.5091
    13.5486  13.5768  13.6907  13.7554  13.9651  13.9687  14.0247  14.0979
    14.1743  14.2473  14.3578  14.3975  14.7719  14.7814  14.9782  15.0519
    15.1340  15.2834  15.3555  15.4224  15.4385  15.6362  15.7050  15.7254
    15.7266  15.7646  15.8117  15.8258  15.8326  15.8765  15.9100  15.9250
    15.9359  15.9630  15.9917  16.0433  16.0550  16.1075  16.1304  16.1941
    16.2149  16.2411  16.2499  16.2510  16.2941  16.3709  16.4444  16.5231
    16.5411  16.5820  16.6159  16.6195  16.6402  16.6748  16.7344  16.7600
    16.7828  16.8508  16.8545  16.9072  16.9208  16.9689  17.0003  17.0285
    17.1060  17.1332  17.4407  17.6902  17.9609  18.0632  19.0017  19.0363
    19.0385  19.0646  19.1104  19.1300  19.1740  19.2309  19.2328  19.3275

          k =-0.5000 0.0000 0.0000 ( 31722 PWs)   bands (ev):

   -66.7880 -66.7544 -66.7090 -66.7070 -66.6638 -66.6463 -66.6389 -66.6341
   -66.6171 -62.4135 -62.3916 -62.3849 -62.3590 -62.3504 -62.3492 -62.3473
   -62.3410 -62.3333 -35.5421 -35.5305 -35.5181 -35.5144 -35.4961 -35.4793
   -35.4636 -35.4609 -35.4585 -35.4565 -35.4394 -35.4359 -35.4332 -35.4100
   -35.4048 -35.4011 -35.3961 -35.3915 -35.3885 -35.3831 -35.3797 -35.3769
   -35.3760 -35.3710 -35.3551 -35.3536 -35.3337 -31.2500 -31.2473 -31.2308
   -31.2202 -31.2184 -31.2178 -31.2131 -31.2074 -31.2013 -31.1995 -31.1957
   -31.1957 -31.1852 -31.1814 -31.1795 -31.1751 -31.1741 -31.1725 -31.1695
   -31.1683 -31.1674 -31.1649 -31.1572 -31.1529 -31.1504 -31.1495 -31.1457
     6.0235   6.0608   7.4182   7.4373   7.4493   7.4841   7.6720   7.6820
     8.0995   8.1177   8.1374   8.1800   8.2118   8.2172   8.2422   8.2819
     8.4026   8.4270   8.4357   8.4771   8.5947   8.6362   8.6474   8.6547
     8.6603   8.6929   8.6973   8.7023   8.7353   8.7998   8.8265   8.8445
     8.8500   8.8604   8.8807   8.8915   8.9045   8.9091   8.9146   8.9201
     8.9262   8.9296   8.9356   8.9466   9.0476   9.0547   9.1617   9.1827
     9.1924   9.1958   9.2024   9.2318   9.2386   9.2532   9.3156   9.3389
     9.3537   9.3648   9.3779   9.4127   9.4753   9.4850   9.4941   9.5108
     9.5157   9.5375   9.5381   9.5557   9.5936   9.5949   9.6045   9.6181
     9.6214   9.6257   9.6312   9.6326   9.6349   9.6380   9.6420   9.6521
     9.6561   9.6637   9.6739   9.6788   9.6920   9.7171   9.7352   9.7519
     9.7595   9.7634   9.7659   9.7687   9.8956   9.8970   9.9061  10.0089
    10.0092  10.0427  10.1416  10.1915  10.2102  10.2377  10.2468  10.2555
    10.2640  10.2689  10.2703  10.2706  10.2843  10.2887  10.3437  10.3557
    10.3633  10.3794  10.3820  10.3852  10.4221  10.4452  10.4459  10.4729
    10.4808  10.5204  10.5241  10.5331  10.5454  10.5771  10.5796  10.5934
    10.6110  10.6594  10.6780  10.6810  10.7027  10.7244  10.7456  10.7621
    10.7970  10.8173  10.8268  10.8522  10.8660  10.8957  10.9144  10.9289
    10.9533  11.0122  11.0182  11.0220  11.0313  11.1259  11.1579  11.1913
    11.2857  11.3462  11.3524  11.3668  11.3842  11.3907  11.4067  11.4168
    11.4397  11.4429  11.4503  11.4635  11.5005  11.5292  11.5346  11.5573
    11.5719  11.5784  11.6023  11.6237  11.6454  11.6572  11.6861  11.7228
    11.7352  11.7769  11.7842  11.7901  11.7952  11.8329  11.8442  11.8449
    11.8525  11.8756  11.9097  11.9193  11.9382  11.9558  11.9579  11.9818
    11.9836  11.9915  12.0103  12.0119  12.1065  12.1517  12.1559  12.1877
    12.1972  12.2129  12.2133  12.2215  12.2429  12.2588  12.2778  12.2842
    12.2880  12.2948  12.3232  12.3356  12.3545  12.3740  12.4011  12.4156
    12.4307  12.4466  12.4641  12.4744  12.4824  12.5229  12.5321  12.5606
    12.5661  12.5741  12.6090  12.6174  12.6529  12.6529  12.6698  12.7487
    12.8821  12.9167  13.0206  13.0603  13.0673  13.1205  13.1376  13.1475
    13.1481  13.1869  13.1891  13.1965  13.2327  13.2865  13.2937  13.3192
    13.3474  13.3902  13.4221  13.7177  13.7468  14.2840  14.4767  14.4990
    14.6296  14.7493  14.7622  14.7935  14.8210  14.8648  14.8978  14.9710
    15.0460  15.2283  15.2407  15.3483  15.4233  15.4592  15.5152  15.6035
    15.6049  15.6980  15.7317  15.7727  15.8163  15.8191  15.8658  16.0448
    16.0502  16.0945  16.1012  16.1274  16.1461  16.1499  16.1666  16.1730
    16.2074  16.2085  16.2295  16.2543  16.2626  16.2763  16.2923  16.3430
    16.4215  16.4706  16.5128  16.5811  16.7145  16.7901  17.0012  17.0956
    17.1546  17.1912  17.1945  17.3113  17.4019  17.5335  17.6235  17.6292
    17.7149  17.7167  17.7836  17.8131  17.8764  17.8801  17.9221  17.9248
    18.0382  18.1044  18.1524  18.2310  19.2681  19.2828  19.2928  19.3323

          k =-0.5000 0.0000 0.5734 ( 31696 PWs)   bands (ev):

   -66.7880 -66.7544 -66.7090 -66.7070 -66.6638 -66.6463 -66.6389 -66.6341
   -66.6171 -62.4135 -62.3916 -62.3849 -62.3590 -62.3504 -62.3492 -62.3473
   -62.3410 -62.3333 -35.5421 -35.5305 -35.5181 -35.5144 -35.4961 -35.4793
   -35.4636 -35.4609 -35.4585 -35.4565 -35.4394 -35.4359 -35.4332 -35.4100
   -35.4048 -35.4011 -35.3961 -35.3915 -35.3885 -35.3831 -35.3797 -35.3769
   -35.3760 -35.3710 -35.3551 -35.3536 -35.3337 -31.2500 -31.2473 -31.2308
   -31.2202 -31.2184 -31.2178 -31.2131 -31.2074 -31.2013 -31.1995 -31.1957
   -31.1957 -31.1852 -31.1814 -31.1795 -31.1751 -31.1741 -31.1725 -31.1695
   -31.1683 -31.1674 -31.1649 -31.1572 -31.1529 -31.1504 -31.1495 -31.1457
     6.4979   6.5809   6.5921   6.6682   7.8213   7.8262   7.8605   7.8742
     7.9056   7.9274   7.9429   7.9547   8.2618   8.2845   8.2961   8.3030
     8.5151   8.5234   8.5275   8.5391   8.6562   8.6676   8.6735   8.6826
     8.6891   8.6966   8.7009   8.7149   8.7283   8.7301   8.7491   8.7498
     8.7682   8.7689   8.7806   8.8258   8.9264   8.9951   9.0173   9.0236
     9.0336   9.0650   9.0700   9.0779   9.1555   9.1981   9.2061   9.2205
     9.2302   9.2305   9.2330   9.2380   9.2406   9.2454   9.2560   9.2594
     9.2609   9.2656   9.2733   9.2760   9.2866   9.3807   9.3859   9.3927
     9.4056   9.4265   9.4535   9.4552   9.4704   9.4714   9.4760   9.4782
     9.4822   9.4845   9.5072   9.5101   9.5276   9.5444   9.5634   9.5709
     9.5870   9.6310   9.7521   9.7616   9.7832   9.7885   9.7921   9.8198
     9.8281   9.8301   9.8443   9.8501   9.8624   9.8721   9.8847   9.8894
     9.9444   9.9710  10.0054  10.0105  10.0323  10.0378  10.0556  10.0615
    10.3540  10.3755  10.3758  10.3861  10.4080  10.4191  10.4253  10.4284
    10.4332  10.4588  10.4714  10.4844  10.4862  10.4919  10.4963  10.5372
    10.5463  10.5607  10.5778  10.5839  10.5916  10.6036  10.6161  10.6258
    10.6547  10.6582  10.6726  10.6732  10.6814  10.6953  10.7139  10.7186
    10.7286  10.8559  10.8578  10.8947  10.9738  11.0033  11.0121  11.0855
    11.1146  11.1202  11.1269  11.1796  11.1866  11.1950  11.1954  11.2033
    11.2112  11.2145  11.2727  11.3310  11.3338  11.3356  11.3642  11.3699
    11.3706  11.3828  11.4055  11.4423  11.4504  11.4634  11.4754  11.5355
    11.5368  11.5659  11.5682  11.5713  11.5783  11.5826  11.5921  11.6025
    11.6322  11.6357  11.7217  11.7240  11.7371  11.7513  11.7724  11.8022
    11.8869  11.8980  11.9100  11.9569  11.9600  11.9657  11.9794  12.0052
    12.0123  12.0212  12.0217  12.0320  12.0355  12.0400  12.0955  12.1269
    12.1577  12.1800  12.1923  12.2033  12.2239  12.2442  12.3211  12.3384
    12.3828  12.3891  12.4049  12.4256  12.4463  12.4476  12.4554  12.4691
    12.4794  12.4907  12.5094  12.5138  12.5567  12.5614  12.5860  12.5868
    12.6328  12.6463  12.6479  12.6630  12.7054  12.7539  12.8497  12.8543
    12.8651  12.8864  12.9463  12.9984  13.0180  13.0318  13.0345  13.0733
    13.1574  13.1878  13.2639  13.3492  13.5220  13.5361  13.6821  13.7723
    13.7779  13.9307  14.0267  14.0456  14.1396  14.1409  14.1755  14.3733
    14.4168  14.5329  14.5758  14.6091  14.6283  14.7431  14.8177  15.0487
    15.1412  15.1902  15.2853  15.3882  15.4628  15.4725  15.5214  15.5566
    15.6335  15.6474  15.6955  15.7214  15.7279  15.7956  15.8942  16.0909
    16.1017  16.1091  16.1357  16.1534  16.1566  16.1813  16.2098  16.2098
    16.2550  16.2794  16.2894  16.2937  16.3283  16.3955  16.4682  16.4724
    16.5056  16.5365  16.5556  16.6112  16.6134  16.6354  16.6910  16.6946
    16.7003  16.7562  16.7761  16.8491  16.8754  16.9195  16.9700  16.9842
    17.0829  17.1012  17.2077  17.2923  18.6125  18.6675  18.7585  18.7622
    18.7840  18.7888  18.7945  18.8454  18.8795  18.8929  18.9456  18.9906

     the Fermi energy is    14.8423 ev

!    total energy              =  -33062.61060738 Ry
     Harris-Foulkes estimate   =  -33062.61059623 Ry
     estimated scf accuracy    <       0.00000041 Ry

     total all-electron energy =  -1410574.700982 Ry

     The total energy is the sum of the following terms:

     one-electron contribution =   -1645.67517613 Ry
     hartree contribution      =    1489.88602894 Ry
     xc contribution           =   -1658.75152002 Ry
     ewald contribution        =   -4919.25534656 Ry
     one-center paw contrib.   =  -26328.81459361 Ry

     total magnetization       =     0.00 Bohr mag/cell
     absolute magnetization    =    78.95 Bohr mag/cell

     convergence has been achieved in  25 iterations

     Writing output data file mnau2.save
 
     init_run     :     52.83s CPU     53.58s WALL (       1 calls)
     electrons    :   3501.93s CPU   3569.00s WALL (       1 calls)

     Called by init_run:
     wfcinit      :     46.93s CPU     47.45s WALL (       1 calls)
     potinit      :      2.50s CPU      2.55s WALL (       1 calls)

     Called by electrons:
     c_bands      :   3095.08s CPU   3146.41s WALL (      25 calls)
     sum_band     :    340.82s CPU    347.94s WALL (      25 calls)
     v_of_rho     :      6.67s CPU      6.87s WALL (      26 calls)
     newd         :     21.13s CPU     24.05s WALL (      26 calls)
     PAW_pot      :     38.60s CPU     39.20s WALL (      26 calls)
     mix_rho      :      1.40s CPU      1.46s WALL (      25 calls)

     Called by c_bands:
     init_us_2    :     12.22s CPU     12.29s WALL (     816 calls)
     cegterg      :   3016.52s CPU   3066.98s WALL (     400 calls)

     Called by sum_band:
     sum_band:bec :      1.94s CPU      1.94s WALL (     400 calls)
     addusdens    :     37.51s CPU     40.98s WALL (      25 calls)

     Called by *egterg:
     h_psi        :   1101.94s CPU   1113.81s WALL (    1484 calls)
     s_psi        :    268.66s CPU    268.86s WALL (    1484 calls)
     g_psi        :      4.04s CPU      4.06s WALL (    1068 calls)
     cdiaghg      :   1025.33s CPU   1026.04s WALL (    1468 calls)

     Called by h_psi:
     h_psi:pot    :   1091.31s CPU   1103.11s WALL (    1484 calls)
     h_psi:calbec :    269.40s CPU    271.89s WALL (    1484 calls)
     vloc_psi     :    551.64s CPU    560.72s WALL (    1484 calls)
     add_vuspsi   :    270.24s CPU    270.49s WALL (    1484 calls)

     General routines
     calbec       :    388.95s CPU    392.62s WALL (    1884 calls)
     fft          :      5.88s CPU      6.30s WALL (     796 calls)
     ffts         :      0.13s CPU      0.13s WALL (     102 calls)
     fftw         :    522.24s CPU    530.63s WALL (  866990 calls)
     interpolate  :      1.00s CPU      1.05s WALL (     102 calls)
 
     Parallel routines
     fft_scatt_xy :     66.30s CPU     67.18s WALL (  867888 calls)
     fft_scatt_yz :    135.38s CPU    139.01s WALL (  867888 calls)
 
     PWSCF        :     0h59m CPU        1h 0m WALL

 
   This run was terminated on:  21:12:11   4Mar2019            

=------------------------------------------------------------------------------=
   JOB DONE.
=------------------------------------------------------------------------------=
