
     Program PWSCF v.6.2 (svn rev. 14038) starts on  5Mar2019 at  2:15:16 

     This program is part of the open-source Quantum ESPRESSO suite
     for quantum simulation of materials; please cite
         "P. Giannozzi et al., J. Phys.:Condens. Matter 21 395502 (2009);
         "P. Giannozzi et al., J. Phys.:Condens. Matter 29 465901 (2017);
          URL http://www.quantum-espresso.org", 
     in publications or presentations arising from this work. More details at
     http://www.quantum-espresso.org/quote

     Parallel version (MPI), running on    16 processors

     MPI processes distributed on     1 nodes
     R & G space division:  proc/nbgrp/npool/nimage =      16
     Waiting for input...
     Reading input from standard input

     Current dimensions of program PWSCF are:
     Max number of different atomic species (ntypx) = 10
     Max number of k-points (npk) =  40000
     Max angular momentum in pseudopotentials (lmaxx) =  3
               file Mn.pbe-spn-kjpaw_psl.0.3.1.UPF: wavefunction(s)  3P 3D renormalized
               file Mn.pbe-spn-kjpaw_psl.0.3.1.UPF: wavefunction(s)  3P 3D renormalized
               file Au.pbe-dn-kjpaw_psl.0.1.UPF: wavefunction(s)  6S 6P 5D renormalized

     Subspace diagonalization in iterative solution of the eigenvalue problem:
     a serial algorithm will be used

 
     Parallelization info
     --------------------
     sticks:   dense  smooth     PW     G-vecs:    dense   smooth      PW
     Min         736     331     90                52486    15847    2256
     Max         737     332     91                52489    15850    2259
     Sum       11785    5297   1449               839803   253559   36125
 


     bravais-lattice index     =            0
     lattice parameter (alat)  =      19.2459  a.u.
     unit-cell volume          =    6216.1497 (a.u.)^3
     number of atoms/cell      =           54
     number of atomic types    =            3
     number of electrons       =       666.00
     number of Kohn-Sham states=          400
     kinetic-energy cutoff     =      45.0000  Ry
     charge density cutoff     =     400.0000  Ry
     convergence threshold     =      1.0E-06
     mixing beta               =       0.1000
     number of iterations used =            8  plain     mixing
     Exchange-correlation      = SLA PW PBX PBC ( 1  4  3  4 0 0)

     celldm(1)=  19.245946  celldm(2)=   0.000000  celldm(3)=   0.000000
     celldm(4)=   0.000000  celldm(5)=   0.000000  celldm(6)=   0.000000

     crystal axes: (cart. coord. in units of alat)
               a(1) = (   1.000000   0.000000   0.000000 )  
               a(2) = (   0.000000   1.000000   0.000000 )  
               a(3) = (   0.000000   0.000000   0.871974 )  

     reciprocal axes: (cart. coord. in units 2 pi/alat)
               b(1) = (  1.000000  0.000000  0.000000 )  
               b(2) = (  0.000000  1.000000  0.000000 )  
               b(3) = (  0.000000  0.000000  1.146823 )  


     PseudoPot. # 1 for Mn read from file:
     ./pseudo/Mn.pbe-spn-kjpaw_psl.0.3.1.UPF
     MD5 check sum: 7eef95dd2aae66803482eea66ebeebf1
     Pseudo is Projector augmented-wave + core cor, Zval = 15.0
     Generated using "atomic" code by A. Dal Corso v.5.0.99 svn rev. 10869
     Shape of augmentation charge: PSQ
     Using radial grid of 1187 points,  6 beta functions with: 
                l(1) =   0
                l(2) =   0
                l(3) =   1
                l(4) =   1
                l(5) =   2
                l(6) =   2
     Q(r) pseudized with 0 coefficients 


     PseudoPot. # 2 for Mn read from file:
     ./pseudo/Mn.pbe-spn-kjpaw_psl.0.3.1.UPF
     MD5 check sum: 7eef95dd2aae66803482eea66ebeebf1
     Pseudo is Projector augmented-wave + core cor, Zval = 15.0
     Generated using "atomic" code by A. Dal Corso v.5.0.99 svn rev. 10869
     Shape of augmentation charge: PSQ
     Using radial grid of 1187 points,  6 beta functions with: 
                l(1) =   0
                l(2) =   0
                l(3) =   1
                l(4) =   1
                l(5) =   2
                l(6) =   2
     Q(r) pseudized with 0 coefficients 


     PseudoPot. # 3 for Au read from file:
     ./pseudo/Au.pbe-dn-kjpaw_psl.0.1.UPF
     MD5 check sum: 5c9b92683623e7ae2ab3f8e525febab6
     Pseudo is Projector augmented-wave + core cor, Zval = 11.0
     Generated using "atomic" code by A. Dal Corso v.5.0.2 svn rev. 9415
     Shape of augmentation charge: PSQ
     Using radial grid of 1279 points,  6 beta functions with: 
                l(1) =   0
                l(2) =   0
                l(3) =   1
                l(4) =   1
                l(5) =   2
                l(6) =   2
     Q(r) pseudized with 0 coefficients 


     atomic species   valence    mass     pseudopotential
        Mn1           15.00    54.93800     Mn( 1.00)
        Mn2           15.00    54.93800     Mn( 1.00)
        Au            11.00   196.96600     Au( 1.00)

     Starting magnetic structure 
     atomic species   magnetization
        Mn1          0.800
        Mn2         -0.800
        Au           0.000

      2 Sym. Ops. (no inversion) found



   Cartesian axes

     site n.     atom                  positions (alat units)
         1           Mn1 tau(   1) = (   0.0000000   0.0000000   0.0000000  )
         2           Mn1 tau(   2) = (   0.0000000   0.3333300   0.0000000  )
         3           Mn1 tau(   3) = (   0.0000000   0.6666700   0.0000000  )
         4           Mn1 tau(   4) = (   0.3333300   0.0000000   0.0000000  )
         5           Mn2 tau(   5) = (   0.3333300   0.3333300   0.0000000  )
         6           Mn2 tau(   6) = (   0.3333300   0.6666700   0.0000000  )
         7           Mn2 tau(   7) = (   0.6666700   0.0000000   0.0000000  )
         8           Mn2 tau(   8) = (   0.6666700   0.3333300   0.0000000  )
         9           Mn2 tau(   9) = (   0.6666700   0.6666700   0.0000000  )
        10           Mn2 tau(  10) = (   0.1666700   0.1666700   0.4359871  )
        11           Mn2 tau(  11) = (   0.1666700   0.5000000   0.4359871  )
        12           Mn2 tau(  12) = (   0.1666700   0.8333300   0.4359871  )
        13           Mn2 tau(  13) = (   0.5000000   0.1666700   0.4359871  )
        14           Mn1 tau(  14) = (   0.5000000   0.5000000   0.4359871  )
        15           Mn1 tau(  15) = (   0.5000000   0.8333300   0.4359871  )
        16           Mn1 tau(  16) = (   0.8333300   0.1666700   0.4359871  )
        17           Mn1 tau(  17) = (   0.8333300   0.5000000   0.4359871  )
        18           Mn1 tau(  18) = (   0.8333300   0.8333300   0.4359871  )
        19           Au  tau(  19) = (   0.1666700   0.1666700   0.7327374  )
        20           Au  tau(  20) = (   0.1666700   0.5000000   0.7327374  )
        21           Au  tau(  21) = (   0.1666700   0.8333300   0.7327374  )
        22           Au  tau(  22) = (   0.5000000   0.1666700   0.7327374  )
        23           Au  tau(  23) = (   0.5000000   0.5000000   0.7327374  )
        24           Au  tau(  24) = (   0.5000000   0.8333300   0.7327374  )
        25           Au  tau(  25) = (   0.8333300   0.1666700   0.7327374  )
        26           Au  tau(  26) = (   0.8333300   0.5000000   0.7327374  )
        27           Au  tau(  27) = (   0.8333300   0.8333300   0.7327374  )
        28           Au  tau(  28) = (   0.1666700   0.1666700   0.1392369  )
        29           Au  tau(  29) = (   0.1666700   0.5000000   0.1392369  )
        30           Au  tau(  30) = (   0.1666700   0.8333300   0.1392369  )
        31           Au  tau(  31) = (   0.5000000   0.1666700   0.1392369  )
        32           Au  tau(  32) = (   0.5000000   0.5000000   0.1392369  )
        33           Au  tau(  33) = (   0.5000000   0.8333300   0.1392369  )
        34           Au  tau(  34) = (   0.8333300   0.1666700   0.1392369  )
        35           Au  tau(  35) = (   0.8333300   0.5000000   0.1392369  )
        36           Au  tau(  36) = (   0.8333300   0.8333300   0.1392369  )
        37           Au  tau(  37) = (   0.0000000   0.0000000   0.2967503  )
        38           Au  tau(  38) = (   0.0000000   0.3333300   0.2967503  )
        39           Au  tau(  39) = (   0.0000000   0.6666700   0.2967503  )
        40           Au  tau(  40) = (   0.3333300   0.0000000   0.2967503  )
        41           Au  tau(  41) = (   0.3333300   0.3333300   0.2967503  )
        42           Au  tau(  42) = (   0.3333300   0.6666700   0.2967503  )
        43           Au  tau(  43) = (   0.6666700   0.0000000   0.2967503  )
        44           Au  tau(  44) = (   0.6666700   0.3333300   0.2967503  )
        45           Au  tau(  45) = (   0.6666700   0.6666700   0.2967503  )
        46           Au  tau(  46) = (   0.0000000   0.0000000   0.5752240  )
        47           Au  tau(  47) = (   0.0000000   0.3333300   0.5752240  )
        48           Au  tau(  48) = (   0.0000000   0.6666700   0.5752240  )
        49           Au  tau(  49) = (   0.3333300   0.0000000   0.5752240  )
        50           Au  tau(  50) = (   0.3333300   0.3333300   0.5752240  )
        51           Au  tau(  51) = (   0.3333300   0.6666700   0.5752240  )
        52           Au  tau(  52) = (   0.6666700   0.0000000   0.5752240  )
        53           Au  tau(  53) = (   0.6666700   0.3333300   0.5752240  )
        54           Au  tau(  54) = (   0.6666700   0.6666700   0.5752240  )

     number of k points=     8 (tetrahedron method)
                       cart. coord. in units 2pi/alat
        k(    1) = (   0.0000000   0.0000000   0.0000000), wk =   0.1250000
        k(    2) = (   0.0000000   0.0000000  -0.5734114), wk =   0.1250000
        k(    3) = (   0.0000000  -0.5000000   0.0000000), wk =   0.1250000
        k(    4) = (   0.0000000  -0.5000000  -0.5734114), wk =   0.1250000
        k(    5) = (  -0.5000000  -0.5000000   0.0000000), wk =   0.1250000
        k(    6) = (  -0.5000000  -0.5000000  -0.5734114), wk =   0.1250000
        k(    7) = (  -0.5000000   0.0000000   0.0000000), wk =   0.1250000
        k(    8) = (  -0.5000000   0.0000000   0.5734114), wk =   0.1250000

     Dense  grid:   839803 G-vectors     FFT dimensions: ( 125, 125, 108)

     Smooth grid:   253559 G-vectors     FFT dimensions: (  90,  90,  72)

     Estimated max dynamical RAM per process >     570.13 MB

     Estimated total dynamical RAM >       8.91 GB
     Generating pointlists ...
     new r_m :   0.1129 (alat units)  2.1733 (a.u.) for type    1
     new r_m :   0.1129 (alat units)  2.1733 (a.u.) for type    2
     new r_m :   0.1129 (alat units)  2.1733 (a.u.) for type    3

     Check: negative/imaginary core charge=   -0.000006    0.000000

     Initial potential from superposition of free atoms

     starting charge  665.98709, renormalised to  666.00000
     Starting wfc are  504 randomized atomic wfcs
     Checking if some PAW data can be deallocated... 

     total cpu time spent up to now is       56.6 secs

     Self-consistent Calculation

     iteration #  1     ecut=    45.00 Ry     beta= 0.10
     Davidson diagonalization with overlap
     ethr =  1.00E-02,  avg # of iterations =  3.2

     total cpu time spent up to now is      216.8 secs

     total energy              =  -33047.18848259 Ry
     Harris-Foulkes estimate   =  -33044.03931438 Ry
     estimated scf accuracy    <      27.02557899 Ry

     total magnetization       =     0.01 Bohr mag/cell
     absolute magnetization    =    92.13 Bohr mag/cell

     iteration #  2     ecut=    45.00 Ry     beta= 0.10
     Davidson diagonalization with overlap
     ethr =  4.06E-03,  avg # of iterations =  1.0

     total cpu time spent up to now is      326.8 secs

     total energy              =  -33058.57026357 Ry
     Harris-Foulkes estimate   =  -33047.36766139 Ry
     estimated scf accuracy    <      21.37186319 Ry

     total magnetization       =     0.01 Bohr mag/cell
     absolute magnetization    =    91.72 Bohr mag/cell

     iteration #  3     ecut=    45.00 Ry     beta= 0.10
     Davidson diagonalization with overlap
     ethr =  3.21E-03,  avg # of iterations =  2.1

     total cpu time spent up to now is      460.3 secs

     total energy              =  -33066.51229572 Ry
     Harris-Foulkes estimate   =  -33061.37651025 Ry
     estimated scf accuracy    <       8.81105736 Ry

     total magnetization       =    -0.15 Bohr mag/cell
     absolute magnetization    =    85.59 Bohr mag/cell

     iteration #  4     ecut=    45.00 Ry     beta= 0.10
     Davidson diagonalization with overlap
     ethr =  1.32E-03,  avg # of iterations =  4.2

     total cpu time spent up to now is      678.4 secs

     total energy              =  -33058.94180545 Ry
     Harris-Foulkes estimate   =  -33069.50576097 Ry
     estimated scf accuracy    <      56.63052282 Ry

     total magnetization       =    -0.56 Bohr mag/cell
     absolute magnetization    =    70.40 Bohr mag/cell

     iteration #  5     ecut=    45.00 Ry     beta= 0.10
     Davidson diagonalization with overlap
     ethr =  1.32E-03,  avg # of iterations =  4.9

     total cpu time spent up to now is      918.0 secs

     total energy              =  -33061.80180472 Ry
     Harris-Foulkes estimate   =  -33062.74679010 Ry
     estimated scf accuracy    <       4.59763542 Ry

     total magnetization       =    -0.22 Bohr mag/cell
     absolute magnetization    =    83.30 Bohr mag/cell

     iteration #  6     ecut=    45.00 Ry     beta= 0.10
     Davidson diagonalization with overlap
     ethr =  6.90E-04,  avg # of iterations =  3.8

     total cpu time spent up to now is     1080.2 secs

     total energy              =  -33062.53746285 Ry
     Harris-Foulkes estimate   =  -33062.54481288 Ry
     estimated scf accuracy    <       0.30015466 Ry

     total magnetization       =    -0.18 Bohr mag/cell
     absolute magnetization    =    79.83 Bohr mag/cell

     iteration #  7     ecut=    45.00 Ry     beta= 0.10
     Davidson diagonalization with overlap
     ethr =  4.51E-05,  avg # of iterations =  4.5

     total cpu time spent up to now is     1268.7 secs

     total energy              =  -33062.58713585 Ry
     Harris-Foulkes estimate   =  -33062.58360773 Ry
     estimated scf accuracy    <       0.06159229 Ry

     total magnetization       =    -0.37 Bohr mag/cell
     absolute magnetization    =    78.80 Bohr mag/cell

     iteration #  8     ecut=    45.00 Ry     beta= 0.10
     Davidson diagonalization with overlap
     ethr =  9.25E-06,  avg # of iterations =  3.6

     total cpu time spent up to now is     1423.3 secs

     total energy              =  -33062.57059221 Ry
     Harris-Foulkes estimate   =  -33062.59628071 Ry
     estimated scf accuracy    <       0.13056529 Ry

     total magnetization       =    -0.34 Bohr mag/cell
     absolute magnetization    =    78.49 Bohr mag/cell

     iteration #  9     ecut=    45.00 Ry     beta= 0.10
     Davidson diagonalization with overlap
     ethr =  9.25E-06,  avg # of iterations =  2.1

     total cpu time spent up to now is     1553.8 secs

     total energy              =  -33062.58677697 Ry
     Harris-Foulkes estimate   =  -33062.57977881 Ry
     estimated scf accuracy    <       0.02654084 Ry

     total magnetization       =    -0.45 Bohr mag/cell
     absolute magnetization    =    78.34 Bohr mag/cell

     iteration # 10     ecut=    45.00 Ry     beta= 0.10
     Davidson diagonalization with overlap
     ethr =  3.99E-06,  avg # of iterations =  2.0

     total cpu time spent up to now is     1678.5 secs

     total energy              =  -33062.58722987 Ry
     Harris-Foulkes estimate   =  -33062.59039225 Ry
     estimated scf accuracy    <       0.01641903 Ry

     total magnetization       =    -0.42 Bohr mag/cell
     absolute magnetization    =    78.67 Bohr mag/cell

     iteration # 11     ecut=    45.00 Ry     beta= 0.10
     Davidson diagonalization with overlap
     ethr =  2.47E-06,  avg # of iterations =  4.2

     total cpu time spent up to now is     1840.4 secs

     total energy              =  -33062.59021290 Ry
     Harris-Foulkes estimate   =  -33062.59005023 Ry
     estimated scf accuracy    <       0.00248290 Ry

     total magnetization       =    -0.45 Bohr mag/cell
     absolute magnetization    =    78.90 Bohr mag/cell

     iteration # 12     ecut=    45.00 Ry     beta= 0.10
     Davidson diagonalization with overlap
     ethr =  3.73E-07,  avg # of iterations =  3.5

     total cpu time spent up to now is     1996.2 secs

     total energy              =  -33062.59131290 Ry
     Harris-Foulkes estimate   =  -33062.59062990 Ry
     estimated scf accuracy    <       0.00163039 Ry

     total magnetization       =    -0.44 Bohr mag/cell
     absolute magnetization    =    78.86 Bohr mag/cell

     iteration # 13     ecut=    45.00 Ry     beta= 0.10
     Davidson diagonalization with overlap
     ethr =  2.45E-07,  avg # of iterations =  2.2

     total cpu time spent up to now is     2123.5 secs

     total energy              =  -33062.59162866 Ry
     Harris-Foulkes estimate   =  -33062.59123285 Ry
     estimated scf accuracy    <       0.00029217 Ry

     total magnetization       =    -0.46 Bohr mag/cell
     absolute magnetization    =    78.74 Bohr mag/cell

     iteration # 14     ecut=    45.00 Ry     beta= 0.10
     Davidson diagonalization with overlap
     ethr =  4.39E-08,  avg # of iterations =  4.0

     total cpu time spent up to now is     2295.4 secs

     total energy              =  -33062.59173401 Ry
     Harris-Foulkes estimate   =  -33062.59164116 Ry
     estimated scf accuracy    <       0.00013119 Ry

     total magnetization       =    -0.47 Bohr mag/cell
     absolute magnetization    =    78.68 Bohr mag/cell

     iteration # 15     ecut=    45.00 Ry     beta= 0.10
     Davidson diagonalization with overlap
     ethr =  1.97E-08,  avg # of iterations =  1.1

     total cpu time spent up to now is     2404.7 secs

     total energy              =  -33062.59185482 Ry
     Harris-Foulkes estimate   =  -33062.59171759 Ry
     estimated scf accuracy    <       0.00008694 Ry

     total magnetization       =    -0.47 Bohr mag/cell
     absolute magnetization    =    78.67 Bohr mag/cell

     iteration # 16     ecut=    45.00 Ry     beta= 0.10
     Davidson diagonalization with overlap
     ethr =  1.31E-08,  avg # of iterations =  2.3

     total cpu time spent up to now is     2537.6 secs

     total energy              =  -33062.59191233 Ry
     Harris-Foulkes estimate   =  -33062.59184709 Ry
     estimated scf accuracy    <       0.00003572 Ry

     total magnetization       =    -0.47 Bohr mag/cell
     absolute magnetization    =    78.65 Bohr mag/cell

     iteration # 17     ecut=    45.00 Ry     beta= 0.10
     Davidson diagonalization with overlap
     ethr =  5.36E-09,  avg # of iterations =  3.0

     total cpu time spent up to now is     2696.6 secs

     total energy              =  -33062.59190769 Ry
     Harris-Foulkes estimate   =  -33062.59188500 Ry
     estimated scf accuracy    <       0.00001287 Ry

     total magnetization       =    -0.48 Bohr mag/cell
     absolute magnetization    =    78.63 Bohr mag/cell

     iteration # 18     ecut=    45.00 Ry     beta= 0.10
     Davidson diagonalization with overlap
     ethr =  1.93E-09,  avg # of iterations =  2.3

     total cpu time spent up to now is     2831.7 secs

     total energy              =  -33062.59189574 Ry
     Harris-Foulkes estimate   =  -33062.59188393 Ry
     estimated scf accuracy    <       0.00000546 Ry

     total magnetization       =    -0.48 Bohr mag/cell
     absolute magnetization    =    78.62 Bohr mag/cell

     iteration # 19     ecut=    45.00 Ry     beta= 0.10
     Davidson diagonalization with overlap
     ethr =  8.19E-10,  avg # of iterations =  2.9

     total cpu time spent up to now is     2989.4 secs

     total energy              =  -33062.59189373 Ry
     Harris-Foulkes estimate   =  -33062.59188739 Ry
     estimated scf accuracy    <       0.00000261 Ry

     total magnetization       =    -0.48 Bohr mag/cell
     absolute magnetization    =    78.61 Bohr mag/cell

     iteration # 20     ecut=    45.00 Ry     beta= 0.10
     Davidson diagonalization with overlap
     ethr =  3.91E-10,  avg # of iterations =  3.0
 
     Magnetic moment per site:
     atom:    1    charge:   13.5790    magn:    3.9559    constr:    0.0000
     atom:    2    charge:   13.5766    magn:    3.9929    constr:    0.0000
     atom:    3    charge:   13.5817    magn:    3.9518    constr:    0.0000
     atom:    4    charge:   13.5727    magn:    4.0718    constr:    0.0000
     atom:    5    charge:   13.5836    magn:   -3.9541    constr:    0.0000
     atom:    6    charge:   13.5805    magn:   -3.9869    constr:    0.0000
     atom:    7    charge:   13.5725    magn:   -4.0417    constr:    0.0000
     atom:    8    charge:   13.5704    magn:   -4.0500    constr:    0.0000
     atom:    9    charge:   13.5685    magn:   -4.0632    constr:    0.0000
     atom:   10    charge:   13.5715    magn:   -4.0342    constr:    0.0000
     atom:   11    charge:   13.5732    magn:   -4.0316    constr:    0.0000
     atom:   12    charge:   13.5727    magn:   -4.0431    constr:    0.0000
     atom:   13    charge:   13.5826    magn:   -3.9789    constr:    0.0000
     atom:   14    charge:   13.5690    magn:    4.0570    constr:    0.0000
     atom:   15    charge:   13.5727    magn:    4.0464    constr:    0.0000
     atom:   16    charge:   13.5836    magn:    3.9336    constr:    0.0000
     atom:   17    charge:   13.5754    magn:    3.9984    constr:    0.0000
     atom:   18    charge:   13.5828    magn:    3.9384    constr:    0.0000
     atom:   19    charge:    9.1212    magn:    0.0125    constr:    0.0000
     atom:   20    charge:    9.1195    magn:   -0.0146    constr:    0.0000
     atom:   21    charge:    9.1213    magn:    0.0123    constr:    0.0000
     atom:   22    charge:    9.1201    magn:   -0.0372    constr:    0.0000
     atom:   23    charge:    9.1211    magn:   -0.0516    constr:    0.0000
     atom:   24    charge:    9.1218    magn:   -0.0202    constr:    0.0000
     atom:   25    charge:    9.1202    magn:    0.0014    constr:    0.0000
     atom:   26    charge:    9.1210    magn:    0.0092    constr:    0.0000
     atom:   27    charge:    9.1205    magn:    0.0047    constr:    0.0000
     atom:   28    charge:    9.1212    magn:    0.0125    constr:    0.0000
     atom:   29    charge:    9.1195    magn:   -0.0146    constr:    0.0000
     atom:   30    charge:    9.1213    magn:    0.0123    constr:    0.0000
     atom:   31    charge:    9.1201    magn:   -0.0372    constr:    0.0000
     atom:   32    charge:    9.1211    magn:   -0.0516    constr:    0.0000
     atom:   33    charge:    9.1218    magn:   -0.0202    constr:    0.0000
     atom:   34    charge:    9.1202    magn:    0.0014    constr:    0.0000
     atom:   35    charge:    9.1210    magn:    0.0092    constr:    0.0000
     atom:   36    charge:    9.1205    magn:    0.0047    constr:    0.0000
     atom:   37    charge:    9.1207    magn:    0.0083    constr:    0.0000
     atom:   38    charge:    9.1204    magn:    0.0088    constr:    0.0000
     atom:   39    charge:    9.1205    magn:    0.0046    constr:    0.0000
     atom:   40    charge:    9.1218    magn:   -0.0200    constr:    0.0000
     atom:   41    charge:    9.1201    magn:   -0.0404    constr:    0.0000
     atom:   42    charge:    9.1208    magn:   -0.0104    constr:    0.0000
     atom:   43    charge:    9.1206    magn:    0.0106    constr:    0.0000
     atom:   44    charge:    9.1202    magn:    0.0117    constr:    0.0000
     atom:   45    charge:    9.1216    magn:    0.0461    constr:    0.0000
     atom:   46    charge:    9.1207    magn:    0.0083    constr:    0.0000
     atom:   47    charge:    9.1204    magn:    0.0088    constr:    0.0000
     atom:   48    charge:    9.1205    magn:    0.0046    constr:    0.0000
     atom:   49    charge:    9.1218    magn:   -0.0200    constr:    0.0000
     atom:   50    charge:    9.1201    magn:   -0.0404    constr:    0.0000
     atom:   51    charge:    9.1208    magn:   -0.0104    constr:    0.0000
     atom:   52    charge:    9.1206    magn:    0.0106    constr:    0.0000
     atom:   53    charge:    9.1202    magn:    0.0117    constr:    0.0000
     atom:   54    charge:    9.1216    magn:    0.0461    constr:    0.0000

     total cpu time spent up to now is     3141.3 secs

     End of self-consistent calculation

 ------ SPIN UP ------------


          k = 0.0000 0.0000 0.0000 ( 31747 PWs)   bands (ev):

   -66.7686 -66.7222 -66.7004 -66.6932 -66.6716 -66.6353 -66.6175 -66.5964
   -66.5929 -62.4086 -62.4011 -62.3968 -62.3933 -62.3896 -62.3819 -62.3169
   -62.3001 -62.2946 -35.5289 -35.5122 -35.4932 -35.4883 -35.4714 -35.4712
   -35.4632 -35.4428 -35.4374 -35.4373 -35.4349 -35.4284 -35.4145 -35.4045
   -35.4017 -35.3966 -35.3743 -35.3735 -35.3625 -35.3576 -35.3480 -35.3470
   -35.3415 -35.3412 -35.3403 -35.3319 -35.3292 -31.2452 -31.2424 -31.2371
   -31.2334 -31.2328 -31.2272 -31.2260 -31.2259 -31.2250 -31.2207 -31.2165
   -31.2138 -31.2131 -31.2076 -31.2024 -31.1996 -31.1953 -31.1946 -31.1533
   -31.1525 -31.1479 -31.1438 -31.1280 -31.1255 -31.1159 -31.1015 -31.1010
     5.6173   7.1410   7.1649   7.1967   7.2200   7.3667   7.8488   7.8920
     7.9292   7.9404   8.0611   8.1210   8.1375   8.1764   8.1919   8.2403
     8.2626   8.2968   8.3200   8.5111   8.5455   8.5691   8.5807   8.5971
     8.6107   8.8505   8.8556   8.8658   8.8847   8.8876   8.8902   8.8911
     8.9062   8.9084   8.9139   8.9258   8.9325   8.9624   8.9704   8.9862
     9.0086   9.0852   9.1204   9.1247   9.1311   9.1401   9.1522   9.1598
     9.1847   9.2080   9.2105   9.2677   9.2895   9.3029   9.3056   9.3499
     9.3579   9.3649   9.3704   9.3723   9.3912   9.3964   9.4010   9.4295
     9.4411   9.4487   9.4542   9.4559   9.4580   9.4611   9.4931   9.5796
     9.5814   9.5823   9.5897   9.5949   9.6260   9.6676   9.6707   9.6720
     9.6773   9.6788   9.6959   9.7390   9.7535   9.7884   9.8077   9.8506
     9.8525   9.9039   9.9145   9.9398   9.9550   9.9608  10.0257  10.0430
    10.0938  10.1206  10.1340  10.1611  10.2874  10.2886  10.2929  10.2955
    10.3056  10.3070  10.3077  10.3084  10.3187  10.3298  10.3395  10.3420
    10.3436  10.3549  10.3613  10.3649  10.3661  10.3698  10.3851  10.3964
    10.4014  10.5193  10.5207  10.5721  10.6166  10.6225  10.6397  10.6724
    10.6997  10.7861  10.7888  10.7909  10.8123  10.8152  10.8269  10.8311
    10.8449  10.8542  10.8573  10.8756  10.8769  10.8786  10.8799  10.8893
    10.9093  10.9230  11.0035  11.0330  11.0771  11.1093  11.2131  11.2209
    11.2256  11.2273  11.2343  11.2648  11.3238  11.3247  11.3352  11.3503
    11.3614  11.3817  11.3897  11.3911  11.3938  11.4024  11.4114  11.4177
    11.4456  11.4487  11.5152  11.5913  11.5927  11.5953  11.5992  11.5997
    11.6446  11.6688  11.7265  11.7325  11.7441  11.7540  11.7743  11.8333
    11.8448  11.8682  11.8726  11.8772  11.9223  11.9287  11.9427  11.9554
    11.9768  11.9901  12.0611  12.1016  12.1024  12.1051  12.1063  12.1306
    12.1417  12.1441  12.1487  12.1495  12.1563  12.1798  12.2209  12.2344
    12.2509  12.2584  12.2641  12.2642  12.3338  12.3524  12.3944  12.4081
    12.4364  12.4366  12.4503  12.4918  12.5103  12.5121  12.5217  12.5278
    12.5495  12.5654  12.5825  12.5906  12.5927  12.6005  12.6623  12.7086
    12.7171  12.7234  12.7310  12.7510  12.7668  12.8608  13.0923  13.0986
    13.1172  13.1349  13.2000  13.2201  13.3910  13.6439  13.8129  13.8346
    13.8739  14.0330  14.1390  14.1926  14.2790  14.3553  14.3894  14.6829
    14.7609  14.8151  14.8229  14.9800  15.0248  15.0404  15.1559  15.1645
    15.2103  15.3631  15.3672  15.3977  15.4291  15.4566  15.5654  15.6237
    15.6270  15.7255  15.7306  15.7663  15.7673  15.8733  15.8842  16.0145
    16.0241  16.0482  16.1111  16.1114  16.1197  16.1676  16.1829  16.2086
    16.2605  16.2785  16.3092  16.3176  16.3385  16.3512  16.3727  16.3932
    16.4276  16.4681  16.4755  16.6073  16.6213  16.6979  16.7750  16.7974
    16.9674  17.0324  17.0790  17.1651  17.2151  17.2371  17.2910  17.3167
    17.4499  17.5895  17.8500  17.9088  17.9244  17.9325  17.9714  18.1764
    18.2840  18.3300  18.4246  18.9236  18.9494  19.0540  19.1278  19.2758

          k = 0.0000 0.0000-0.5734 ( 31692 PWs)   bands (ev):

   -66.7686 -66.7222 -66.7004 -66.6932 -66.6716 -66.6353 -66.6175 -66.5964
   -66.5929 -62.4086 -62.4011 -62.3968 -62.3933 -62.3896 -62.3819 -62.3169
   -62.3001 -62.2946 -35.5289 -35.5122 -35.4932 -35.4883 -35.4714 -35.4712
   -35.4632 -35.4428 -35.4374 -35.4373 -35.4349 -35.4284 -35.4145 -35.4045
   -35.4017 -35.3966 -35.3743 -35.3735 -35.3625 -35.3576 -35.3480 -35.3470
   -35.3415 -35.3412 -35.3403 -35.3319 -35.3292 -31.2452 -31.2424 -31.2371
   -31.2333 -31.2328 -31.2272 -31.2260 -31.2259 -31.2250 -31.2207 -31.2165
   -31.2138 -31.2131 -31.2076 -31.2024 -31.1996 -31.1953 -31.1946 -31.1533
   -31.1525 -31.1479 -31.1438 -31.1280 -31.1255 -31.1159 -31.1015 -31.1010
     6.1757   6.1972   7.5394   7.5532   7.5665   7.5841   7.5868   7.6021
     7.6192   7.6301   8.3085   8.3251   8.3391   8.3490   8.3616   8.3695
     8.3783   8.3868   8.4525   8.4558   8.4782   8.4784   8.4901   8.5002
     8.5249   8.5254   8.7010   8.7099   8.7619   8.7806   8.9448   8.9647
     8.9660   8.9807   8.9812   8.9872   8.9874   8.9945   9.0088   9.0179
     9.0284   9.0421   9.0440   9.0572   9.0818   9.1067   9.1947   9.2117
     9.2176   9.2327   9.2465   9.2595   9.2731   9.2747   9.2809   9.2853
     9.2898   9.2905   9.2950   9.3046   9.3079   9.3098   9.4105   9.4106
     9.4300   9.4306   9.4374   9.4483   9.4517   9.4552   9.4629   9.4755
     9.4886   9.4955   9.5021   9.5167   9.5277   9.5470   9.6509   9.6795
     9.7885   9.7934   9.7992   9.8052   9.8061   9.8193   9.8276   9.8355
     9.8792   9.8812   9.8816   9.8834   9.8884   9.8908   9.8923   9.8936
    10.0592  10.0612  10.0637  10.0655  10.1395  10.1570  10.1589  10.1696
    10.1720  10.1864  10.1881  10.1933  10.2047  10.2159  10.3594  10.3611
    10.3762  10.3793  10.3931  10.4044  10.4181  10.4210  10.4789  10.5036
    10.5961  10.5971  10.6134  10.6170  10.6229  10.6358  10.6678  10.6722
    10.6724  10.6889  10.7098  10.7446  10.7527  10.8000  10.8015  10.8162
    10.9808  10.9992  10.9992  11.0074  11.0145  11.0199  11.0388  11.0829
    11.0872  11.0997  11.1074  11.1290  11.1504  11.1655  11.2046  11.2167
    11.2380  11.2436  11.2513  11.2514  11.2621  11.2625  11.2719  11.2729
    11.2743  11.2805  11.2814  11.2835  11.2906  11.2907  11.2971  11.3000
    11.3070  11.3089  11.3252  11.3261  11.5592  11.5743  11.7143  11.7150
    11.7160  11.7205  11.7237  11.7245  11.7265  11.7276  11.7348  11.7661
    11.7767  11.7814  11.7884  11.7965  11.8069  11.8227  11.8292  11.9292
    11.9815  11.9888  11.9947  12.0157  12.0277  12.0329  12.0499  12.0720
    12.1314  12.1711  12.1964  12.2344  12.2582  12.3343  12.3481  12.3687
    12.3759  12.4298  12.4361  12.4770  12.4801  12.4822  12.4852  12.4898
    12.4983  12.5049  12.5352  12.5395  12.5456  12.5542  12.5785  12.6453
    12.6570  12.6792  12.6852  12.7712  12.7832  12.8134  12.9222  12.9693
    12.9827  13.0339  13.0519  13.0748  13.1360  13.1609  13.2272  13.2275
    13.2443  13.2743  13.2871  13.3098  13.3229  13.5418  13.6246  13.7276
    13.9083  13.9619  13.9877  14.1182  14.1543  14.1630  14.2981  14.4738
    14.5214  14.8611  14.9011  14.9136  14.9830  14.9985  15.0061  15.1177
    15.1633  15.1671  15.1733  15.3287  15.3649  15.4144  15.4669  15.5492
    15.6577  15.6634  15.6814  15.7686  15.8003  15.8765  15.9510  15.9790
    16.0825  16.0861  16.1157  16.1489  16.1726  16.1847  16.2063  16.2164
    16.2301  16.2455  16.2538  16.2620  16.2726  16.2880  16.2966  16.2999
    16.3238  16.3523  16.5123  16.5875  16.5930  16.6736  16.7101  16.7410
    16.8471  16.8929  17.3219  17.3278  17.3530  17.4031  17.4816  17.5443
    17.5537  17.5650  17.6638  17.6937  17.7116  17.7436  17.8861  17.9057
    17.9177  17.9203  18.1662  18.2337  18.2338  18.2735  18.2985  18.3286

          k = 0.0000-0.5000 0.0000 ( 31722 PWs)   bands (ev):

   -66.7686 -66.7222 -66.7004 -66.6932 -66.6716 -66.6353 -66.6175 -66.5964
   -66.5929 -62.4086 -62.4011 -62.3968 -62.3933 -62.3896 -62.3819 -62.3169
   -62.3001 -62.2946 -35.5289 -35.5122 -35.4932 -35.4883 -35.4714 -35.4712
   -35.4632 -35.4428 -35.4374 -35.4373 -35.4349 -35.4284 -35.4145 -35.4045
   -35.4017 -35.3968 -35.3740 -35.3735 -35.3626 -35.3578 -35.3480 -35.3470
   -35.3414 -35.3412 -35.3403 -35.3320 -35.3292 -31.2468 -31.2401 -31.2374
   -31.2335 -31.2333 -31.2267 -31.2259 -31.2258 -31.2251 -31.2208 -31.2168
   -31.2132 -31.2131 -31.2076 -31.2024 -31.2000 -31.1953 -31.1946 -31.1533
   -31.1525 -31.1479 -31.1438 -31.1280 -31.1255 -31.1159 -31.1015 -31.1010
     6.0353   6.0551   7.4024   7.4290   7.4800   7.4878   7.6767   7.6800
     8.1108   8.1166   8.1550   8.1731   8.1908   8.1973   8.2695   8.2818
     8.3841   8.4195   8.4797   8.4872   8.6196   8.6365   8.6374   8.6548
     8.6577   8.6746   8.6981   8.7066   8.7826   8.8012   8.8157   8.8313
     8.8569   8.8600   8.8731   8.8933   8.9022   8.9099   8.9215   8.9248
     8.9313   8.9371   8.9493   8.9526   9.0507   9.0533   9.1533   9.1686
     9.2027   9.2083   9.2194   9.2260   9.2281   9.2340   9.3147   9.3274
     9.3570   9.3778   9.3986   9.4056   9.4699   9.4778   9.4857   9.4981
     9.5382   9.5586   9.5622   9.5670   9.5874   9.5981   9.6031   9.6172
     9.6262   9.6262   9.6356   9.6379   9.6409   9.6423   9.6445   9.6459
     9.6499   9.6722   9.6792   9.6896   9.6991   9.7050   9.7085   9.7315
     9.7385   9.7618   9.7630   9.7720   9.8977   9.9017   9.9342   9.9575
    10.0200  10.0352  10.1714  10.1926  10.2074  10.2173  10.2453  10.2470
    10.2759  10.2774  10.2781  10.2853  10.2856  10.2881  10.3366  10.3503
    10.3823  10.3853  10.3884  10.3928  10.4355  10.4424  10.4689  10.4742
    10.4911  10.5023  10.5105  10.5362  10.5555  10.5634  10.5850  10.5902
    10.6606  10.6621  10.6762  10.7089  10.7098  10.7457  10.7468  10.7673
    10.8028  10.8071  10.8365  10.8499  10.8594  10.8654  10.9031  10.9302
    10.9576  10.9666  11.0232  11.0421  11.0649  11.0785  11.1752  11.1814
    11.3021  11.3268  11.3462  11.3512  11.3624  11.3674  11.4149  11.4208
    11.4383  11.4633  11.4880  11.4888  11.4905  11.5341  11.5361  11.5635
    11.5704  11.5996  11.6098  11.6109  11.6305  11.6646  11.7333  11.7468
    11.7513  11.7910  11.8173  11.8291  11.8295  11.8524  11.8641  11.8683
    11.8729  11.8779  11.8868  11.9015  11.9140  11.9213  11.9468  11.9536
    11.9680  11.9813  12.0120  12.0142  12.1001  12.1165  12.1545  12.1645
    12.1724  12.1788  12.2047  12.2219  12.2436  12.2506  12.2516  12.2667
    12.2905  12.3030  12.3343  12.3949  12.4002  12.4006  12.4229  12.4461
    12.4616  12.4688  12.4808  12.5097  12.5146  12.5397  12.5436  12.5755
    12.5898  12.5976  12.6081  12.6252  12.6580  12.6626  12.7486  12.7853
    12.8534  12.8818  12.9536  13.0191  13.0303  13.0407  13.0943  13.1336
    13.1647  13.2207  13.2269  13.2490  13.2782  13.2846  13.3152  13.3970
    13.4783  13.4946  13.5643  13.5844  13.6452  14.3358  14.3894  14.4942
    14.4942  14.7519  14.7683  14.8294  14.9147  14.9759  15.0643  15.1172
    15.1228  15.1303  15.1621  15.2833  15.3250  15.4203  15.5389  15.6042
    15.6316  15.7077  15.7494  15.7836  15.8349  15.8428  15.9036  15.9768
    15.9940  16.0126  16.0167  16.0758  16.0974  16.1071  16.1199  16.1331
    16.1677  16.2044  16.2456  16.2506  16.2791  16.2815  16.3188  16.4003
    16.4119  16.5594  16.6280  16.6659  16.7294  16.7533  17.0030  17.0322
    17.1996  17.2181  17.2842  17.2880  17.5042  17.5238  17.6030  17.6224
    17.6881  17.7565  17.7902  17.7909  17.8735  17.9060  17.9066  17.9104
    17.9831  18.0519  18.1166  18.2254  19.3003  19.3202  19.3367  19.3821

          k = 0.0000-0.5000-0.5734 ( 31696 PWs)   bands (ev):

   -66.7686 -66.7222 -66.7004 -66.6932 -66.6716 -66.6353 -66.6175 -66.5964
   -66.5929 -62.4086 -62.4011 -62.3968 -62.3933 -62.3896 -62.3819 -62.3169
   -62.3001 -62.2946 -35.5289 -35.5122 -35.4932 -35.4883 -35.4714 -35.4712
   -35.4632 -35.4428 -35.4374 -35.4373 -35.4349 -35.4284 -35.4145 -35.4045
   -35.4017 -35.3968 -35.3740 -35.3735 -35.3626 -35.3578 -35.3480 -35.3470
   -35.3414 -35.3412 -35.3403 -35.3320 -35.3292 -31.2468 -31.2401 -31.2374
   -31.2335 -31.2333 -31.2267 -31.2259 -31.2258 -31.2251 -31.2208 -31.2168
   -31.2132 -31.2131 -31.2076 -31.2024 -31.2000 -31.1953 -31.1946 -31.1533
   -31.1525 -31.1479 -31.1438 -31.1280 -31.1255 -31.1159 -31.1015 -31.1010
     6.5518   6.5761   6.5984   6.6147   7.8345   7.8591   7.8766   7.8852
     7.9039   7.9174   7.9230   7.9450   8.2726   8.2777   8.3008   8.3044
     8.5075   8.5143   8.5445   8.5481   8.6621   8.6666   8.6722   8.6775
     8.6800   8.6842   8.7078   8.7139   8.7397   8.7405   8.7477   8.7531
     8.7580   8.7765   8.8010   8.8203   8.9727   8.9974   9.0107   9.0231
     9.0354   9.0444   9.0543   9.0669   9.2038   9.2056   9.2108   9.2130
     9.2158   9.2221   9.2248   9.2264   9.2467   9.2496   9.2563   9.2690
     9.2734   9.2736   9.2999   9.3004   9.3084   9.3210   9.3826   9.4018
     9.4162   9.4254   9.4610   9.4647   9.4653   9.4658   9.4674   9.4898
     9.4949   9.5081   9.5153   9.5237   9.5401   9.5451   9.5451   9.5532
     9.5554   9.5792   9.7571   9.7597   9.7915   9.7956   9.8083   9.8103
     9.8444   9.8478   9.8510   9.8527   9.8594   9.8627   9.8670   9.8876
     9.9713   9.9749   9.9960  10.0076  10.0252  10.0294  10.0585  10.0624
    10.3620  10.3800  10.4009  10.4029  10.4123  10.4201  10.4317  10.4613
    10.4674  10.4696  10.4797  10.4820  10.4917  10.4923  10.5053  10.5089
    10.5090  10.5197  10.5664  10.5772  10.6054  10.6084  10.6127  10.6172
    10.6515  10.6552  10.6747  10.6751  10.6854  10.7008  10.7058  10.7274
    10.7667  10.7865  10.8696  10.8829  10.9637  10.9750  11.0789  11.0839
    11.1121  11.1282  11.1330  11.1414  11.1672  11.1925  11.1971  11.2019
    11.2113  11.2132  11.3016  11.3208  11.3534  11.3639  11.3691  11.3721
    11.3748  11.3858  11.3995  11.4155  11.4848  11.4865  11.4872  11.5177
    11.5196  11.5276  11.5718  11.5721  11.5863  11.6018  11.6374  11.6394
    11.6431  11.6450  11.7184  11.7266  11.7360  11.8006  11.8044  11.8157
    11.9178  11.9272  11.9342  11.9524  11.9605  11.9636  11.9821  12.0181
    12.0355  12.0364  12.0406  12.0447  12.0801  12.0938  12.1137  12.1416
    12.1867  12.1921  12.2214  12.2314  12.2423  12.2890  12.2968  12.3205
    12.3648  12.3821  12.4021  12.4404  12.4489  12.4680  12.4848  12.4908
    12.5106  12.5270  12.5438  12.5510  12.5568  12.5602  12.5814  12.5817
    12.5936  12.6011  12.6435  12.6519  12.6641  12.7269  12.7283  12.7800
    12.7961  12.8259  12.8490  12.8847  12.9108  12.9447  12.9885  13.0308
    13.0627  13.2147  13.5428  13.6087  13.6153  13.6320  13.6887  13.7594
    13.8562  13.9954  14.0089  14.1487  14.2460  14.2520  14.2887  14.4881
    14.4887  14.5478  14.5526  14.6147  14.6261  14.7476  14.7649  14.9009
    14.9097  15.2598  15.2899  15.3403  15.3753  15.3816  15.3952  15.5357
    15.6333  15.7980  15.8078  15.8199  15.8451  15.8796  15.9430  15.9571
    16.0067  16.0243  16.0348  16.0377  16.0444  16.1493  16.1806  16.1933
    16.2086  16.2572  16.2887  16.3208  16.3535  16.3593  16.3800  16.4134
    16.4306  16.5838  16.6010  16.6388  16.6578  16.6977  16.7330  16.7427
    16.7555  16.8299  16.8948  16.8980  16.9421  16.9814  16.9917  16.9976
    17.0597  17.1002  17.1981  17.2729  18.5798  18.6085  18.6675  18.6854
    18.8040  18.8270  18.8337  18.8615  18.8943  18.9014  18.9453  18.9481

          k =-0.5000-0.5000 0.0000 ( 31612 PWs)   bands (ev):

   -66.7686 -66.7222 -66.7004 -66.6932 -66.6716 -66.6353 -66.6175 -66.5964
   -66.5929 -62.4086 -62.4011 -62.3968 -62.3933 -62.3896 -62.3819 -62.3169
   -62.3001 -62.2946 -35.5289 -35.5122 -35.4932 -35.4883 -35.4714 -35.4712
   -35.4632 -35.4428 -35.4374 -35.4373 -35.4349 -35.4284 -35.4145 -35.4045
   -35.4017 -35.3968 -35.3740 -35.3735 -35.3626 -35.3578 -35.3480 -35.3470
   -35.3414 -35.3412 -35.3403 -35.3320 -35.3292 -31.2468 -31.2401 -31.2374
   -31.2335 -31.2333 -31.2267 -31.2259 -31.2258 -31.2251 -31.2208 -31.2168
   -31.2132 -31.2131 -31.2076 -31.2024 -31.2000 -31.1953 -31.1946 -31.1533
   -31.1525 -31.1479 -31.1438 -31.1280 -31.1255 -31.1159 -31.1015 -31.1010
     6.4068   6.4211   6.4501   6.4943   8.0125   8.0149   8.0226   8.0261
     8.1001   8.1115   8.2964   8.3082   8.3214   8.3293   8.3369   8.3400
     8.3481   8.3521   8.3582   8.3719   8.3757   8.4152   8.5905   8.6167
     8.6404   8.6606   8.6782   8.7009   8.7139   8.7178   8.7275   8.7377
     8.7668   8.8162   8.9227   8.9385   8.9538   8.9723   8.9780   8.9787
     8.9798   8.9883   8.9976   9.0130   9.0181   9.0337   9.0470   9.0491
     9.1195   9.1279   9.3101   9.3110   9.3209   9.3228   9.4051   9.4088
     9.4136   9.4232   9.4277   9.4311   9.4372   9.4422   9.4480   9.4533
     9.4596   9.4716   9.4766   9.4776   9.4830   9.4918   9.4959   9.5044
     9.5119   9.5158   9.5353   9.5416   9.5470   9.5664   9.5812   9.5939
     9.6043   9.6136   9.7004   9.7012   9.7754   9.7793   9.8211   9.8271
     9.8286   9.8362   9.8442   9.8492   9.8520   9.8874  10.0397  10.0600
    10.0802  10.1072  10.1244  10.1284  10.1420  10.1501  10.1528  10.1640
    10.1748  10.1803  10.2064  10.2150  10.2246  10.2272  10.2292  10.2354
    10.2379  10.2384  10.2418  10.2563  10.4610  10.4753  10.4901  10.4948
    10.4990  10.5034  10.5085  10.5558  10.5940  10.6217  10.6451  10.6499
    10.6586  10.6649  10.6799  10.6869  10.6951  10.7014  10.7082  10.7104
    10.7144  10.7496  10.7858  10.8226  10.8332  10.8411  10.8686  10.8805
    10.9368  10.9510  11.1963  11.2010  11.2196  11.2321  11.3074  11.3235
    11.3326  11.3424  11.3610  11.3684  11.3858  11.3924  11.5310  11.5473
    11.6046  11.6333  11.6375  11.6434  11.6446  11.6500  11.6526  11.6545
    11.7003  11.7023  11.7266  11.7326  11.7340  11.7475  11.7547  11.7594
    11.8702  11.8772  11.8792  11.8818  11.8857  11.8886  11.9426  11.9457
    12.0023  12.0419  12.0666  12.0843  12.0972  12.1049  12.1073  12.1107
    12.1118  12.1155  12.1203  12.1216  12.1454  12.1465  12.1659  12.1731
    12.1978  12.2007  12.2111  12.2271  12.2274  12.2385  12.2577  12.2737
    12.2748  12.2798  12.2905  12.2969  12.2980  12.3073  12.3130  12.3424
    12.3663  12.3819  12.4163  12.4397  12.4820  12.4930  12.5174  12.5299
    12.5399  12.5702  12.5825  12.6064  12.6090  12.6363  12.6631  12.6636
    12.7059  12.8077  12.8446  12.8737  12.8922  12.9289  12.9440  12.9539
    12.9746  12.9990  13.0001  13.0058  13.0290  13.5633  13.5747  13.6762
    13.6782  13.6789  13.7014  13.8624  13.8797  14.0037  14.0569  14.1794
    14.1993  14.2076  14.3457  14.4528  14.5413  14.6870  14.8084  15.0705
    15.1976  15.2165  15.2312  15.2353  15.3767  15.4868  15.5469  15.7184
    15.7421  15.7980  15.7985  15.8798  15.8851  15.9018  15.9185  15.9494
    15.9774  15.9938  16.0138  16.0178  16.0193  16.0794  16.1061  16.1404
    16.1707  16.1795  16.2549  16.2952  16.3305  16.3466  16.4166  16.4462
    16.4715  16.4927  16.5071  16.6648  16.6676  16.6975  16.7094  16.7219
    16.8569  16.8938  16.9111  16.9227  17.3890  17.3914  17.8092  17.9381
    18.1704  18.1954  18.2217  18.2426  18.2953  18.3147  18.4946  18.5717
    18.5758  18.6443  18.6752  18.7140  18.7477  18.7961  18.7977  18.8088

          k =-0.5000-0.5000-0.5734 ( 31672 PWs)   bands (ev):

   -66.7686 -66.7222 -66.7004 -66.6932 -66.6716 -66.6353 -66.6175 -66.5964
   -66.5929 -62.4086 -62.4011 -62.3968 -62.3933 -62.3896 -62.3819 -62.3169
   -62.3001 -62.2946 -35.5289 -35.5122 -35.4932 -35.4883 -35.4714 -35.4712
   -35.4632 -35.4428 -35.4374 -35.4373 -35.4349 -35.4284 -35.4145 -35.4045
   -35.4017 -35.3968 -35.3740 -35.3735 -35.3626 -35.3578 -35.3480 -35.3470
   -35.3414 -35.3412 -35.3403 -35.3320 -35.3292 -31.2468 -31.2401 -31.2374
   -31.2335 -31.2333 -31.2267 -31.2259 -31.2258 -31.2251 -31.2208 -31.2168
   -31.2132 -31.2131 -31.2076 -31.2024 -31.2000 -31.1953 -31.1946 -31.1533
   -31.1525 -31.1479 -31.1438 -31.1280 -31.1255 -31.1159 -31.1015 -31.1010
     6.8832   6.9170   6.9373   6.9457   6.9959   7.0080   7.0296   7.0558
     8.4480   8.4593   8.4792   8.4842   8.4866   8.4898   8.4923   8.4993
     8.5042   8.5086   8.5142   8.5206   8.5393   8.5458   8.5463   8.5666
     8.5761   8.5921   8.5927   8.6015   8.8767   8.8793   8.8865   8.8966
     8.9087   8.9099   8.9372   8.9510   9.0871   9.1073   9.1142   9.1203
     9.1258   9.1467   9.1518   9.1532   9.1607   9.1614   9.1625   9.1651
     9.1662   9.1675   9.1689   9.1728   9.1748   9.1768   9.1791   9.1821
     9.1851   9.1873   9.1906   9.1984   9.2013   9.2123   9.2184   9.2220
     9.2289   9.2344   9.2366   9.2450   9.2535   9.2669   9.2764   9.2901
     9.5445   9.5527   9.5621   9.5737   9.5835   9.5955   9.6157   9.6250
     9.6497   9.6726   9.6779   9.6895   9.7177   9.7372   9.7511   9.7849
     9.8183   9.8375   9.8432   9.8524   9.8769   9.8840   9.8897   9.8982
    10.1061  10.1201  10.1443  10.1547  10.1694  10.1817  10.1939  10.2023
    10.2944  10.3107  10.4494  10.4630  10.4647  10.4665  10.4795  10.4841
    10.4843  10.4910  10.5019  10.5033  10.5108  10.5134  10.5135  10.5141
    10.5204  10.5339  10.5389  10.5635  10.5726  10.5732  10.5815  10.6006
    10.6064  10.6089  10.6177  10.6406  10.6424  10.6639  10.6653  10.6848
    10.6897  10.6933  10.7040  10.7068  10.7326  10.7359  11.0464  11.0520
    11.0658  11.0703  11.0907  11.1000  11.1300  11.1356  11.3837  11.3858
    11.3959  11.3963  11.4060  11.4274  11.4399  11.4448  11.4755  11.4815
    11.4856  11.4922  11.5024  11.5070  11.5199  11.5306  11.6358  11.6412
    11.6451  11.6464  11.6507  11.6520  11.6952  11.7006  11.7054  11.7249
    11.7277  11.7333  11.7390  11.7420  11.7724  11.7789  11.7816  11.8043
    11.8053  11.8187  11.8236  11.8373  11.8453  11.8681  11.9928  12.0172
    12.0336  12.0556  12.0723  12.0801  12.0882  12.1274  12.1512  12.1618
    12.1788  12.2062  12.2279  12.2312  12.2495  12.2873  12.3247  12.3343
    12.3506  12.3989  12.4029  12.4160  12.4193  12.4297  12.4371  12.4670
    12.4783  12.4950  12.5022  12.5319  12.5357  12.5604  12.5753  12.6014
    12.6146  12.6739  12.7006  12.7238  12.7260  12.7591  12.7742  12.8193
    12.9019  12.9274  12.9533  12.9787  13.1042  13.1369  13.1498  13.2437
    13.2640  13.2825  13.2922  13.3321  13.3512  13.3967  13.4845  13.4982
    13.5283  13.7094  13.7910  13.8142  13.8514  13.9740  14.1351  14.1586
    14.2138  14.3016  14.3425  14.6924  14.8091  14.8320  14.8640  14.8925
    14.9602  15.0676  15.1804  15.3139  15.3355  15.6639  15.6768  15.6852
    15.7018  15.7540  15.8006  15.8912  15.9323  15.9627  15.9679  16.0006
    16.0105  16.0211  16.0888  16.1155  16.1437  16.1646  16.1701  16.2210
    16.2212  16.2339  16.2495  16.3175  16.3318  16.3911  16.3936  16.4938
    16.5317  16.5351  16.5597  16.6005  16.6088  16.6378  16.7026  16.7203
    16.7769  16.7847  16.8099  16.8827  16.8901  16.9635  16.9905  17.0005
    17.1257  17.1285  17.7284  17.8081  17.8575  17.8608  19.0056  19.0122
    19.0404  19.0446  19.0797  19.1090  19.1883  19.2237  19.2329  19.3398

          k =-0.5000 0.0000 0.0000 ( 31722 PWs)   bands (ev):

   -66.7686 -66.7222 -66.7004 -66.6932 -66.6716 -66.6353 -66.6175 -66.5964
   -66.5929 -62.4086 -62.4011 -62.3968 -62.3933 -62.3896 -62.3819 -62.3169
   -62.3001 -62.2946 -35.5289 -35.5122 -35.4932 -35.4883 -35.4714 -35.4712
   -35.4632 -35.4428 -35.4374 -35.4373 -35.4349 -35.4284 -35.4145 -35.4045
   -35.4017 -35.3966 -35.3743 -35.3735 -35.3625 -35.3576 -35.3480 -35.3470
   -35.3415 -35.3412 -35.3403 -35.3319 -35.3292 -31.2452 -31.2424 -31.2371
   -31.2333 -31.2328 -31.2272 -31.2260 -31.2259 -31.2250 -31.2207 -31.2165
   -31.2138 -31.2131 -31.2076 -31.2024 -31.1996 -31.1953 -31.1946 -31.1533
   -31.1525 -31.1479 -31.1438 -31.1280 -31.1255 -31.1159 -31.1015 -31.1010
     6.0186   6.0720   7.4250   7.4310   7.4443   7.5002   7.6761   7.6794
     8.0920   8.1137   8.1459   8.1821   8.2092   8.2353   8.2513   8.2642
     8.4058   8.4214   8.4375   8.4940   8.6336   8.6396   8.6414   8.6470
     8.6580   8.6635   8.7055   8.7127   8.7544   8.8073   8.8323   8.8413
     8.8474   8.8693   8.8841   8.8902   8.8971   8.9102   8.9165   8.9213
     8.9248   8.9305   8.9415   8.9630   9.0462   9.0559   9.1662   9.1687
     9.1831   9.2083   9.2221   9.2270   9.2306   9.2497   9.3382   9.3416
     9.3458   9.3546   9.3836   9.4161   9.4718   9.4869   9.4969   9.5049
     9.5220   9.5338   9.5781   9.5807   9.5867   9.6032   9.6104   9.6129
     9.6212   9.6281   9.6300   9.6317   9.6371   9.6391   9.6442   9.6472
     9.6565   9.6624   9.6781   9.6894   9.6972   9.7052   9.7197   9.7231
     9.7303   9.7456   9.7775   9.7858   9.8879   9.9137   9.9448   9.9669
    10.0219  10.0414  10.1380  10.2003  10.2185  10.2300  10.2518  10.2567
    10.2594  10.2612  10.2615  10.2642  10.2929  10.2983  10.3376  10.3516
    10.3614  10.3761  10.3893  10.3941  10.4315  10.4446  10.4511  10.4723
    10.5262  10.5314  10.5373  10.5544  10.5635  10.5704  10.5735  10.5876
    10.6058  10.6528  10.6567  10.6944  10.7042  10.7404  10.7503  10.7758
    10.7860  10.8193  10.8203  10.8576  10.8604  10.8707  10.9016  10.9428
    10.9993  11.0092  11.0156  11.0251  11.0400  11.0824  11.1722  11.1816
    11.3484  11.3506  11.3527  11.3787  11.3791  11.4010  11.4013  11.4136
    11.4216  11.4347  11.4575  11.4792  11.4794  11.5352  11.5414  11.5423
    11.5611  11.5729  11.5834  11.6178  11.6233  11.6479  11.6704  11.7380
    11.7655  11.7847  11.7915  11.8191  11.8527  11.8681  11.8686  11.8729
    11.8939  11.9001  11.9210  11.9251  11.9411  11.9425  11.9552  11.9600
    11.9697  11.9725  11.9879  11.9956  12.0535  12.0923  12.1690  12.1698
    12.1959  12.2075  12.2099  12.2148  12.2290  12.2528  12.2728  12.2831
    12.2881  12.2944  12.3191  12.3221  12.3445  12.4044  12.4108  12.4456
    12.4488  12.4846  12.4870  12.4928  12.5133  12.5401  12.5482  12.5609
    12.5730  12.6095  12.6185  12.6440  12.6555  12.6640  12.7290  12.7987
    12.8667  13.0077  13.0338  13.0680  13.0987  13.1027  13.1148  13.1443
    13.1650  13.1787  13.2023  13.2330  13.2528  13.2833  13.3415  13.3431
    13.3480  13.4665  13.4992  13.5814  13.6341  14.4529  14.4786  14.5743
    14.6433  14.7361  14.7641  14.7689  14.7981  14.9030  14.9487  14.9913
    15.0504  15.0682  15.1129  15.2527  15.4266  15.4643  15.5377  15.6294
    15.7024  15.7676  15.7886  15.7928  15.8009  15.8106  15.8477  16.0174
    16.0196  16.0595  16.0737  16.0840  16.1202  16.1350  16.1578  16.1760
    16.1902  16.2047  16.2438  16.2527  16.2961  16.3192  16.3701  16.4213
    16.4303  16.4975  16.5577  16.6005  16.6562  16.7785  17.0450  17.0723
    17.1382  17.1888  17.2184  17.3241  17.4050  17.4346  17.6160  17.6354
    17.7214  17.7674  17.7710  17.8255  17.8507  17.8709  17.8747  17.9747
    17.9880  18.0020  18.1761  18.2749  19.2294  19.2937  19.3410  19.3842

          k =-0.5000 0.0000 0.5734 ( 31696 PWs)   bands (ev):

   -66.7686 -66.7222 -66.7004 -66.6932 -66.6716 -66.6353 -66.6175 -66.5964
   -66.5929 -62.4086 -62.4011 -62.3968 -62.3933 -62.3896 -62.3819 -62.3169
   -62.3001 -62.2946 -35.5289 -35.5122 -35.4932 -35.4883 -35.4714 -35.4712
   -35.4632 -35.4428 -35.4374 -35.4373 -35.4349 -35.4284 -35.4145 -35.4045
   -35.4017 -35.3966 -35.3743 -35.3735 -35.3625 -35.3576 -35.3480 -35.3470
   -35.3415 -35.3412 -35.3403 -35.3319 -35.3292 -31.2452 -31.2424 -31.2371
   -31.2333 -31.2328 -31.2272 -31.2260 -31.2259 -31.2250 -31.2207 -31.2165
   -31.2138 -31.2131 -31.2076 -31.2024 -31.1996 -31.1953 -31.1946 -31.1533
   -31.1525 -31.1479 -31.1438 -31.1280 -31.1255 -31.1159 -31.1015 -31.1010
     6.5271   6.5491   6.6260   6.6448   7.8342   7.8603   7.8628   7.8689
     7.9093   7.9159   7.9282   7.9511   8.2714   8.2781   8.3020   8.3049
     8.5173   8.5255   8.5328   8.5360   8.6664   8.6726   8.6747   8.6757
     8.6860   8.7014   8.7122   8.7264   8.7311   8.7369   8.7503   8.7537
     8.7564   8.7848   8.7876   8.7901   8.9535   8.9693   9.0371   9.0427
     9.0433   9.0482   9.0570   9.0596   9.1911   9.2063   9.2140   9.2170
     9.2225   9.2293   9.2358   9.2390   9.2438   9.2473   9.2501   9.2577
     9.2605   9.2653   9.2762   9.2796   9.3035   9.3447   9.3830   9.4064
     9.4170   9.4280   9.4521   9.4566   9.4653   9.4671   9.4692   9.4891
     9.5055   9.5193   9.5210   9.5314   9.5317   9.5461   9.5548   9.5603
     9.5819   9.5978   9.7552   9.7573   9.7954   9.8135   9.8177   9.8214
     9.8230   9.8408   9.8462   9.8505   9.8569   9.8618   9.8673   9.8807
     9.9389   9.9452  10.0169  10.0272  10.0335  10.0471  10.0527  10.0534
    10.3602  10.3765  10.3895  10.3919  10.4070  10.4140  10.4318  10.4403
    10.4516  10.4522  10.4724  10.4760  10.4779  10.4815  10.4912  10.5150
    10.5311  10.5638  10.5691  10.5783  10.5798  10.5910  10.6424  10.6499
    10.6562  10.6590  10.6804  10.6829  10.6923  10.7012  10.7139  10.7270
    10.7701  10.7905  10.8618  10.8796  10.9767  10.9876  11.0304  11.0328
    11.1135  11.1207  11.1477  11.1858  11.1923  11.1939  11.1956  11.2072
    11.2124  11.2138  11.2966  11.2988  11.3428  11.3479  11.3690  11.3811
    11.3848  11.3979  11.4220  11.4480  11.4496  11.4528  11.4875  11.4986
    11.5671  11.5707  11.5823  11.5836  11.5921  11.6127  11.6185  11.6216
    11.6240  11.6275  11.7326  11.7462  11.7463  11.7714  11.7833  11.8814
    11.8893  11.9092  11.9269  11.9379  11.9669  11.9952  12.0047  12.0138
    12.0216  12.0270  12.0300  12.0402  12.0420  12.0432  12.0572  12.0904
    12.2249  12.2355  12.2621  12.2749  12.2794  12.2934  12.3067  12.3299
    12.3432  12.3477  12.3664  12.3724  12.4096  12.4406  12.4426  12.4751
    12.4849  12.4968  12.5005  12.5175  12.5528  12.5618  12.5725  12.6109
    12.6159  12.6399  12.6450  12.6538  12.6542  12.7016  12.7391  12.7667
    12.7791  12.8444  12.9324  12.9836  12.9997  13.0425  13.0857  13.1310
    13.2212  13.2589  13.3594  13.4553  13.4720  13.5562  13.6085  13.9166
    13.9579  13.9770  14.0492  14.0789  14.1539  14.2795  14.3091  14.4160
    14.4226  14.5511  14.5606  14.5758  14.6305  14.7531  14.7700  15.0730
    15.0855  15.1356  15.2009  15.3824  15.3940  15.4214  15.4326  15.4734
    15.4818  15.6647  15.7160  15.7298  15.8366  15.9380  15.9688  16.0251
    16.0476  16.0639  16.1044  16.1499  16.1559  16.2206  16.2262  16.2451
    16.2871  16.3087  16.3507  16.3909  16.3932  16.4064  16.4101  16.4240
    16.4279  16.4450  16.4843  16.5696  16.5705  16.6167  16.6943  16.7417
    16.7864  16.8038  16.8395  16.8595  16.9098  16.9661  16.9772  17.0035
    17.0483  17.0711  17.1619  17.2665  18.6655  18.6958  18.7175  18.7535
    18.7810  18.7875  18.8003  18.8457  18.8773  18.8997  18.9162  18.9170

 ------ SPIN DOWN ----------


          k = 0.0000 0.0000 0.0000 ( 31747 PWs)   bands (ev):

   -66.7845 -66.7631 -66.7434 -66.7394 -66.7311 -66.7267 -66.6115 -66.5823
   -66.5561 -62.4028 -62.3830 -62.3726 -62.3694 -62.3684 -62.3584 -62.3562
   -62.3441 -62.3237 -35.5364 -35.5314 -35.5262 -35.5149 -35.5092 -35.5063
   -35.5046 -35.4953 -35.4892 -35.4874 -35.4825 -35.4805 -35.4797 -35.4759
   -35.4617 -35.4557 -35.4507 -35.4432 -35.3659 -35.3561 -35.3541 -35.3481
   -35.3308 -35.3187 -35.3075 -35.2889 -35.2837 -31.2407 -31.2309 -31.2222
   -31.2152 -31.2137 -31.2134 -31.2085 -31.2055 -31.2043 -31.2011 -31.2001
   -31.1968 -31.1915 -31.1866 -31.1852 -31.1845 -31.1835 -31.1807 -31.1799
   -31.1784 -31.1723 -31.1618 -31.1599 -31.1561 -31.1494 -31.1476 -31.1434
     5.6118   7.1369   7.1669   7.1864   7.2103   7.3614   7.8596   7.8617
     7.9137   7.9496   8.0719   8.1040   8.1354   8.1639   8.1962   8.2316
     8.2608   8.2883   8.3190   8.5213   8.5319   8.5594   8.5723   8.5931
     8.6080   8.8405   8.8643   8.8645   8.8798   8.8837   8.8880   8.9034
     8.9067   8.9075   8.9141   8.9178   8.9264   8.9493   8.9541   8.9789
     8.9951   9.0823   9.1173   9.1197   9.1227   9.1310   9.1579   9.1620
     9.1785   9.2010   9.2148   9.2676   9.2740   9.3015   9.3139   9.3338
     9.3462   9.3525   9.3648   9.3673   9.3829   9.3865   9.4020   9.4254
     9.4401   9.4415   9.4459   9.4488   9.4533   9.4651   9.5089   9.5661
     9.5747   9.5813   9.5848   9.5880   9.6211   9.6634   9.6678   9.6716
     9.6727   9.6748   9.7060   9.7369   9.7572   9.7801   9.7984   9.8495
     9.8500   9.8930   9.9099   9.9287   9.9522   9.9579  10.0189  10.0393
    10.0933  10.1202  10.1300  10.1568  10.2908  10.2919  10.2930  10.2951
    10.2975  10.2988  10.3019  10.3085  10.3100  10.3235  10.3281  10.3423
    10.3481  10.3497  10.3527  10.3550  10.3552  10.3726  10.3824  10.3825
    10.3999  10.5188  10.5197  10.5731  10.6086  10.6096  10.6309  10.6358
    10.6916  10.7611  10.7839  10.7854  10.7898  10.8213  10.8292  10.8379
    10.8427  10.8526  10.8630  10.8686  10.8722  10.8759  10.8798  10.8953
    10.9003  10.9202  10.9972  11.0374  11.0729  11.1082  11.2017  11.2180
    11.2224  11.2274  11.2554  11.2574  11.2792  11.2940  11.3357  11.3385
    11.3644  11.3650  11.3834  11.3901  11.3994  11.4034  11.4080  11.4115
    11.4185  11.4530  11.5870  11.5876  11.5892  11.5953  11.5979  11.6071
    11.6281  11.6710  11.7205  11.7271  11.7320  11.7400  11.7554  11.7861
    11.8320  11.8480  11.8598  11.8689  11.8770  11.8990  11.9327  11.9377
    11.9631  12.0577  12.0983  12.1008  12.1017  12.1030  12.1043  12.1390
    12.1416  12.1440  12.1442  12.1486  12.1526  12.1719  12.1918  12.2177
    12.2458  12.2595  12.3195  12.3210  12.3447  12.3483  12.3660  12.4034
    12.4057  12.4229  12.4342  12.4344  12.4587  12.4805  12.4875  12.4891
    12.5027  12.5200  12.5285  12.5484  12.5735  12.5822  12.5975  12.6250
    12.6816  12.7032  12.7789  12.7840  12.7882  12.8937  12.9942  13.0600
    13.1105  13.1373  13.2152  13.3169  13.3544  13.6613  13.7110  13.7312
    13.8825  14.0080  14.2354  14.2475  14.3107  14.3405  14.4337  14.4366
    14.7315  14.7741  14.7823  15.0185  15.1176  15.1620  15.2070  15.2569
    15.2654  15.2864  15.3107  15.3370  15.3798  15.4456  15.4874  15.5645
    15.6562  15.6853  15.7069  15.8170  15.8691  15.8849  15.9153  15.9376
    16.0034  16.0619  16.0791  16.1303  16.1358  16.1546  16.1598  16.1672
    16.2572  16.2711  16.2795  16.2962  16.3260  16.3386  16.3779  16.3903
    16.4432  16.4873  16.5186  16.5726  16.6143  16.6734  16.7797  16.8927
    17.0254  17.0463  17.0920  17.1661  17.1902  17.2432  17.2689  17.2846
    17.4351  17.5290  17.8850  17.8984  17.9192  17.9498  17.9514  18.1915
    18.2446  18.3192  18.4478  18.9461  19.0000  19.0035  19.0686  19.1779

          k = 0.0000 0.0000-0.5734 ( 31692 PWs)   bands (ev):

   -66.7845 -66.7631 -66.7434 -66.7394 -66.7311 -66.7267 -66.6115 -66.5823
   -66.5561 -62.4028 -62.3830 -62.3726 -62.3694 -62.3684 -62.3584 -62.3562
   -62.3441 -62.3237 -35.5364 -35.5314 -35.5262 -35.5149 -35.5092 -35.5063
   -35.5046 -35.4953 -35.4892 -35.4874 -35.4825 -35.4805 -35.4797 -35.4759
   -35.4617 -35.4557 -35.4507 -35.4432 -35.3659 -35.3561 -35.3541 -35.3481
   -35.3308 -35.3187 -35.3075 -35.2889 -35.2837 -31.2407 -31.2309 -31.2222
   -31.2152 -31.2137 -31.2134 -31.2085 -31.2055 -31.2043 -31.2011 -31.2001
   -31.1968 -31.1915 -31.1866 -31.1852 -31.1845 -31.1835 -31.1807 -31.1799
   -31.1784 -31.1723 -31.1618 -31.1599 -31.1561 -31.1494 -31.1476 -31.1434
     6.1713   6.1897   7.5360   7.5444   7.5627   7.5819   7.5841   7.5946
     7.6131   7.6198   8.3120   8.3247   8.3257   8.3305   8.3612   8.3663
     8.3673   8.3891   8.4578   8.4591   8.4789   8.4835   8.4944   8.4949
     8.5021   8.5035   8.6996   8.7076   8.7605   8.7775   8.9461   8.9651
     8.9653   8.9747   8.9750   8.9801   8.9813   8.9857   9.0086   9.0176
     9.0224   9.0347   9.0425   9.0541   9.0770   9.0985   9.1866   9.1990
     9.2152   9.2277   9.2413   9.2518   9.2739   9.2777   9.2795   9.2837
     9.2869   9.2876   9.2903   9.3024   9.3025   9.3088   9.4112   9.4128
     9.4259   9.4359   9.4407   9.4411   9.4544   9.4549   9.4575   9.4589
     9.4619   9.4776   9.4923   9.5085   9.5243   9.5424   9.6504   9.6746
     9.7822   9.7841   9.7979   9.8051   9.8065   9.8168   9.8289   9.8347
     9.8718   9.8723   9.8771   9.8787   9.8880   9.8893   9.8911   9.8922
    10.0585  10.0600  10.0601  10.0612  10.1313  10.1441  10.1538  10.1632
    10.1664  10.1833  10.1885  10.1945  10.1976  10.2100  10.3483  10.3502
    10.3682  10.3757  10.4017  10.4080  10.4139  10.4150  10.4754  10.4989
    10.5819  10.5829  10.6114  10.6191  10.6342  10.6514  10.6736  10.6757
    10.6780  10.7032  10.7085  10.7318  10.7409  10.7633  10.7758  10.7937
    10.9582  10.9643  10.9997  11.0200  11.0248  11.0304  11.0493  11.0659
    11.0946  11.1173  11.1281  11.1399  11.1454  11.1492  11.1519  11.1542
    11.2217  11.2311  11.2477  11.2496  11.2592  11.2604  11.2634  11.2668
    11.2722  11.2725  11.2803  11.2825  11.2882  11.2888  11.2962  11.2977
    11.3063  11.3067  11.3192  11.3203  11.5668  11.5869  11.7061  11.7080
    11.7080  11.7156  11.7191  11.7230  11.7292  11.7303  11.7332  11.7501
    11.7596  11.7602  11.7731  11.7735  11.7943  11.8510  11.8550  11.9120
    11.9649  11.9721  11.9796  11.9986  12.0079  12.0249  12.0468  12.0615
    12.1399  12.1661  12.1801  12.2171  12.2649  12.3478  12.3492  12.3643
    12.3933  12.4049  12.4071  12.4276  12.4323  12.4331  12.4377  12.4720
    12.4767  12.4996  12.5162  12.5364  12.5431  12.5720  12.5816  12.6095
    12.6513  12.7127  12.7345  12.7476  12.7604  12.7720  12.8886  12.9322
    12.9347  12.9659  13.0631  13.1015  13.1340  13.1570  13.1661  13.2132
    13.2154  13.2410  13.2448  13.2861  13.3144  13.5734  13.6670  13.7463
    13.9152  13.9955  14.0429  14.0711  14.0753  14.1397  14.2933  14.3892
    14.4695  14.8756  14.9003  14.9412  14.9790  15.0093  15.0648  15.0758
    15.1148  15.2161  15.2739  15.3194  15.3374  15.4179  15.4794  15.5249
    15.5745  15.7004  15.7098  15.7492  15.7791  15.8306  15.8720  16.0369
    16.0648  16.0708  16.0984  16.1370  16.1842  16.1935  16.2053  16.2263
    16.2326  16.2497  16.2574  16.2662  16.2693  16.2819  16.3199  16.3236
    16.3472  16.3593  16.5020  16.5768  16.6009  16.6345  16.7437  16.7961
    16.8642  16.9014  17.2670  17.2916  17.2959  17.3287  17.4526  17.4702
    17.5561  17.6046  17.7177  17.7255  17.7697  17.7706  17.8702  17.8761
    17.9166  17.9209  18.1885  18.2008  18.2328  18.2622  18.2937  18.3349

          k = 0.0000-0.5000 0.0000 ( 31722 PWs)   bands (ev):

   -66.7845 -66.7631 -66.7434 -66.7394 -66.7311 -66.7267 -66.6115 -66.5823
   -66.5561 -62.4028 -62.3830 -62.3726 -62.3694 -62.3684 -62.3584 -62.3562
   -62.3441 -62.3237 -35.5364 -35.5319 -35.5257 -35.5149 -35.5093 -35.5063
   -35.5046 -35.4954 -35.4892 -35.4874 -35.4825 -35.4805 -35.4796 -35.4759
   -35.4615 -35.4557 -35.4509 -35.4432 -35.3659 -35.3561 -35.3541 -35.3481
   -35.3308 -35.3187 -35.3075 -35.2889 -35.2837 -31.2407 -31.2309 -31.2222
   -31.2152 -31.2137 -31.2134 -31.2087 -31.2056 -31.2043 -31.2029 -31.2001
   -31.1937 -31.1915 -31.1865 -31.1865 -31.1845 -31.1827 -31.1807 -31.1800
   -31.1784 -31.1728 -31.1618 -31.1599 -31.1561 -31.1494 -31.1476 -31.1434
     6.0326   6.0472   7.4041   7.4095   7.4705   7.4886   7.6696   7.6767
     8.1081   8.1130   8.1424   8.1729   8.1928   8.2042   8.2612   8.2750
     8.3842   8.3939   8.4760   8.4945   8.6176   8.6238   8.6335   8.6524
     8.6560   8.6719   8.6909   8.7102   8.7877   8.8080   8.8142   8.8218
     8.8325   8.8505   8.8753   8.8860   8.8932   8.8993   8.9096   8.9117
     8.9361   8.9421   8.9471   8.9566   9.0459   9.0506   9.1548   9.1571
     9.1905   9.2058   9.2174   9.2201   9.2280   9.2344   9.3100   9.3150
     9.3509   9.3679   9.3960   9.4173   9.4710   9.4745   9.4793   9.4813
     9.5304   9.5468   9.5623   9.5748   9.5841   9.5940   9.6052   9.6131
     9.6184   9.6282   9.6311   9.6331   9.6377   9.6395   9.6420   9.6462
     9.6468   9.6538   9.6627   9.6645   9.7052   9.7106   9.7113   9.7125
     9.7379   9.7475   9.7626   9.7644   9.8956   9.9004   9.9325   9.9562
    10.0179  10.0330  10.1628  10.1909  10.2086  10.2120  10.2502  10.2536
    10.2700  10.2707  10.2719  10.2758  10.2825  10.2849  10.3461  10.3525
    10.3774  10.3799  10.3813  10.3852  10.4241  10.4306  10.4716  10.4808
    10.4859  10.5067  10.5189  10.5202  10.5257  10.5360  10.5847  10.5899
    10.6594  10.6671  10.6876  10.6978  10.7192  10.7194  10.7399  10.7636
    10.8120  10.8248  10.8345  10.8474  10.8585  10.8624  10.8846  10.8986
    10.9471  10.9569  11.0097  11.0188  11.0706  11.0844  11.1783  11.1848
    11.2788  11.3036  11.3452  11.3468  11.3626  11.3646  11.3997  11.4147
    11.4575  11.4597  11.4696  11.4794  11.4927  11.5122  11.5223  11.5608
    11.5805  11.5895  11.5968  11.6070  11.6608  11.6702  11.6814  11.7362
    11.7509  11.7793  11.7919  11.8018  11.8337  11.8555  11.8623  11.8686
    11.8686  11.8731  11.8811  11.9069  11.9205  11.9225  11.9433  11.9504
    11.9637  11.9823  12.0143  12.0165  12.0841  12.1181  12.1529  12.1555
    12.1602  12.1958  12.2079  12.2173  12.2432  12.2485  12.2506  12.2672
    12.2709  12.2920  12.2986  12.3614  12.3746  12.3819  12.3963  12.4131
    12.4434  12.4454  12.4540  12.4599  12.4753  12.5063  12.5268  12.5505
    12.5819  12.5882  12.6128  12.6739  12.7173  12.7261  12.7466  12.7666
    12.7820  12.8499  12.9030  12.9102  12.9768  13.0292  13.1303  13.1479
    13.1621  13.1699  13.2122  13.2325  13.2574  13.3017  13.3149  13.4150
    13.4348  13.4608  13.5196  13.5678  13.6331  14.3279  14.4990  14.5538
    14.5740  14.7463  14.7715  14.8035  14.8487  14.8668  15.0236  15.0740
    15.0994  15.1007  15.1479  15.2634  15.3225  15.4057  15.4991  15.6702
    15.6839  15.7372  15.7668  15.7856  15.8489  15.8734  15.9405  15.9845
    15.9877  16.0214  16.0417  16.0457  16.0580  16.0719  16.1204  16.1449
    16.1888  16.2007  16.2213  16.2357  16.2503  16.2854  16.3326  16.3668
    16.4285  16.4545  16.7010  16.7120  16.7308  16.8284  16.9209  16.9973
    17.1439  17.2239  17.2773  17.2939  17.5518  17.5668  17.6027  17.6042
    17.7248  17.7485  17.7682  17.7847  17.8028  17.8628  17.9050  17.9269
    17.9925  18.1001  18.1152  18.1792  19.2800  19.3140  19.3465  19.3894

          k = 0.0000-0.5000-0.5734 ( 31696 PWs)   bands (ev):

   -66.7845 -66.7631 -66.7434 -66.7394 -66.7311 -66.7267 -66.6115 -66.5823
   -66.5561 -62.4028 -62.3830 -62.3726 -62.3694 -62.3684 -62.3584 -62.3562
   -62.3441 -62.3237 -35.5364 -35.5319 -35.5257 -35.5149 -35.5093 -35.5063
   -35.5046 -35.4954 -35.4892 -35.4874 -35.4825 -35.4805 -35.4796 -35.4759
   -35.4615 -35.4557 -35.4509 -35.4432 -35.3659 -35.3561 -35.3541 -35.3481
   -35.3308 -35.3187 -35.3075 -35.2889 -35.2837 -31.2407 -31.2309 -31.2222
   -31.2152 -31.2137 -31.2134 -31.2087 -31.2056 -31.2043 -31.2029 -31.2001
   -31.1937 -31.1915 -31.1865 -31.1865 -31.1845 -31.1827 -31.1807 -31.1800
   -31.1784 -31.1728 -31.1618 -31.1599 -31.1561 -31.1494 -31.1476 -31.1434
     6.5526   6.5737   6.5887   6.6019   7.8326   7.8491   7.8646   7.8742
     7.9054   7.9205   7.9218   7.9338   8.2690   8.2719   8.2972   8.2988
     8.5109   8.5153   8.5348   8.5357   8.6565   8.6668   8.6684   8.6810
     8.6918   8.6939   8.7061   8.7068   8.7171   8.7216   8.7500   8.7510
     8.7550   8.7597   8.7957   8.8156   8.9745   8.9959   9.0066   9.0186
     9.0339   9.0393   9.0517   9.0611   9.2005   9.2018   9.2109   9.2167
     9.2176   9.2184   9.2235   9.2289   9.2420   9.2501   9.2562   9.2624
     9.2690   9.2710   9.2816   9.2950   9.3004   9.3023   9.3838   9.3995
     9.4104   9.4210   9.4551   9.4580   9.4644   9.4646   9.4721   9.4850
     9.4980   9.5105   9.5107   9.5181   9.5228   9.5301   9.5391   9.5413
     9.5459   9.5619   9.7547   9.7566   9.7911   9.7928   9.8043   9.8055
     9.8301   9.8378   9.8410   9.8433   9.8638   9.8697   9.8731   9.8901
     9.9662   9.9741   9.9873   9.9984  10.0047  10.0166  10.0661  10.0707
    10.3767  10.3957  10.3992  10.4047  10.4056  10.4073  10.4238  10.4557
    10.4654  10.4656  10.4740  10.4754  10.4883  10.4884  10.4948  10.4985
    10.5088  10.5107  10.5572  10.5595  10.5778  10.6065  10.6280  10.6310
    10.6388  10.6443  10.6635  10.6697  10.6884  10.6914  10.7297  10.7337
    10.7502  10.7769  10.8549  10.8658  10.9527  10.9599  11.0801  11.0906
    11.1100  11.1226  11.1252  11.1321  11.1622  11.1816  11.1966  11.2003
    11.2106  11.2111  11.2918  11.3151  11.3527  11.3606  11.3616  11.3733
    11.3733  11.3763  11.4027  11.4090  11.4791  11.4820  11.4833  11.5055
    11.5119  11.5185  11.5803  11.5830  11.5925  11.5989  11.6164  11.6320
    11.6389  11.6465  11.7244  11.7280  11.7419  11.7951  11.7967  11.8037
    11.9140  11.9170  11.9273  11.9390  11.9454  11.9721  11.9790  12.0081
    12.0310  12.0355  12.0362  12.0383  12.0719  12.1000  12.1066  12.1071
    12.1600  12.1625  12.1740  12.1808  12.2412  12.2575  12.2835  12.2960
    12.3296  12.4024  12.4043  12.4261  12.4276  12.4433  12.4462  12.4542
    12.5035  12.5153  12.5325  12.5619  12.5821  12.6016  12.6016  12.6071
    12.6277  12.6343  12.6427  12.6444  12.6466  12.6670  12.6946  12.7231
    12.7406  12.8048  12.8167  12.8872  12.8975  12.9219  12.9285  12.9489
    13.0527  13.1942  13.4037  13.5389  13.5757  13.6083  13.7840  13.7930
    13.9032  14.0628  14.0911  14.2664  14.2691  14.3179  14.3292  14.4206
    14.4369  14.5247  14.5477  14.5566  14.5774  14.6148  14.6208  14.8973
    14.9005  15.2620  15.2893  15.3400  15.4041  15.4766  15.4816  15.5051
    15.6030  15.7176  15.7822  15.8281  15.8623  15.8747  15.9067  15.9668
    15.9762  16.0628  16.0883  16.1085  16.1229  16.1274  16.1433  16.1814
    16.1855  16.2643  16.2905  16.3137  16.3507  16.3550  16.3936  16.4039
    16.4298  16.5314  16.5531  16.5595  16.6133  16.6230  16.7330  16.7611
    16.8105  16.8228  16.9193  16.9255  16.9728  16.9832  16.9957  17.0329
    17.1066  17.1546  17.1720  17.1934  18.6029  18.6309  18.6591  18.6731
    18.7431  18.7736  18.8526  18.8728  18.8942  18.9156  18.9175  18.9425

          k =-0.5000-0.5000 0.0000 ( 31612 PWs)   bands (ev):

   -66.7845 -66.7631 -66.7434 -66.7394 -66.7311 -66.7267 -66.6115 -66.5823
   -66.5561 -62.4028 -62.3830 -62.3726 -62.3694 -62.3684 -62.3584 -62.3562
   -62.3441 -62.3237 -35.5364 -35.5319 -35.5257 -35.5149 -35.5093 -35.5063
   -35.5046 -35.4954 -35.4892 -35.4874 -35.4825 -35.4805 -35.4796 -35.4759
   -35.4615 -35.4557 -35.4509 -35.4432 -35.3659 -35.3561 -35.3541 -35.3481
   -35.3308 -35.3187 -35.3075 -35.2889 -35.2837 -31.2407 -31.2308 -31.2222
   -31.2152 -31.2137 -31.2134 -31.2087 -31.2056 -31.2043 -31.2029 -31.2001
   -31.1937 -31.1915 -31.1865 -31.1865 -31.1845 -31.1827 -31.1807 -31.1800
   -31.1784 -31.1728 -31.1618 -31.1599 -31.1561 -31.1494 -31.1476 -31.1434
     6.4069   6.4302   6.4544   6.4565   8.0031   8.0096   8.0157   8.0269
     8.0974   8.1091   8.2831   8.3174   8.3271   8.3353   8.3372   8.3431
     8.3457   8.3501   8.3537   8.3574   8.3680   8.3754   8.5865   8.6084
     8.6404   8.6614   8.6790   8.6975   8.7092   8.7157   8.7286   8.7406
     8.7727   8.7776   8.9155   8.9320   8.9537   8.9707   8.9755   8.9758
     8.9827   8.9892   9.0020   9.0045   9.0156   9.0183   9.0318   9.0475
     9.1171   9.1245   9.3019   9.3059   9.3180   9.3265   9.3965   9.4091
     9.4176   9.4231   9.4240   9.4276   9.4300   9.4420   9.4480   9.4508
     9.4616   9.4685   9.4708   9.4763   9.4803   9.4809   9.4864   9.4962
     9.4988   9.5043   9.5132   9.5310   9.5441   9.5581   9.5790   9.5896
     9.6068   9.6089   9.6981   9.6992   9.7567   9.7986   9.8179   9.8317
     9.8323   9.8340   9.8347   9.8419   9.8499   9.8576  10.0420  10.0609
    10.0796  10.0999  10.1097  10.1108  10.1385  10.1444  10.1519  10.1624
    10.1773  10.1907  10.2015  10.2123  10.2207  10.2215  10.2252  10.2275
    10.2284  10.2304  10.2382  10.2476  10.4409  10.4786  10.4919  10.4948
    10.4981  10.5061  10.5262  10.5461  10.6091  10.6244  10.6390  10.6468
    10.6590  10.6617  10.6777  10.6812  10.6832  10.6866  10.6896  10.6965
    10.7019  10.7054  10.8079  10.8115  10.8305  10.8496  10.8652  10.8805
    10.9342  10.9481  11.1975  11.2081  11.2153  11.2167  11.3076  11.3216
    11.3229  11.3369  11.3498  11.3622  11.3866  11.3947  11.5424  11.5595
    11.5711  11.5800  11.6385  11.6438  11.6445  11.6448  11.6464  11.6476
    11.6725  11.6884  11.6895  11.7153  11.7263  11.7287  11.7736  11.7748
    11.8748  11.8749  11.8772  11.8791  11.8854  11.8861  11.9714  11.9955
    12.0053  12.0068  12.0626  12.0657  12.0658  12.1049  12.1083  12.1090
    12.1129  12.1134  12.1143  12.1197  12.1449  12.1450  12.1499  12.1604
    12.1720  12.1780  12.1933  12.2045  12.2172  12.2564  12.2649  12.2661
    12.2750  12.2808  12.2866  12.2885  12.2896  12.2940  12.2950  12.3220
    12.3604  12.3693  12.4379  12.4442  12.4583  12.5031  12.5266  12.5342
    12.5385  12.5472  12.5631  12.5728  12.5799  12.6132  12.6447  12.6565
    12.6576  12.6975  12.7432  12.8071  12.8488  12.8611  12.8907  12.9246
    12.9718  12.9740  13.0134  13.0228  13.1307  13.5451  13.5961  13.6186
    13.6542  13.6813  13.7028  13.9124  13.9425  13.9501  14.1079  14.1456
    14.1611  14.2207  14.4634  14.4828  14.4995  14.5645  14.7379  15.1096
    15.1253  15.1914  15.2106  15.2686  15.3679  15.4020  15.6634  15.7613
    15.7730  15.7984  15.8090  15.8119  15.8783  15.9017  15.9202  15.9650
    15.9815  15.9897  16.0001  16.0131  16.0368  16.0467  16.0642  16.1624
    16.1842  16.2006  16.2904  16.3117  16.3187  16.3232  16.3465  16.4203
    16.4866  16.4900  16.5387  16.6595  16.6716  16.6888  16.6950  16.7271
    16.7808  16.8882  16.9578  16.9788  17.3846  17.3885  17.7984  17.9273
    18.1634  18.1910  18.2048  18.2093  18.2641  18.4158  18.5293  18.5510
    18.6121  18.6362  18.6429  18.6667  18.7350  18.7901  18.7989  18.8032

          k =-0.5000-0.5000-0.5734 ( 31672 PWs)   bands (ev):

   -66.7845 -66.7631 -66.7434 -66.7394 -66.7311 -66.7267 -66.6115 -66.5823
   -66.5561 -62.4028 -62.3830 -62.3726 -62.3694 -62.3684 -62.3584 -62.3562
   -62.3441 -62.3237 -35.5364 -35.5319 -35.5257 -35.5149 -35.5093 -35.5063
   -35.5046 -35.4954 -35.4892 -35.4874 -35.4825 -35.4805 -35.4796 -35.4759
   -35.4615 -35.4557 -35.4509 -35.4432 -35.3659 -35.3561 -35.3541 -35.3481
   -35.3308 -35.3187 -35.3075 -35.2889 -35.2837 -31.2407 -31.2308 -31.2222
   -31.2152 -31.2137 -31.2134 -31.2087 -31.2056 -31.2043 -31.2029 -31.2001
   -31.1937 -31.1915 -31.1865 -31.1865 -31.1845 -31.1827 -31.1807 -31.1800
   -31.1784 -31.1728 -31.1618 -31.1599 -31.1561 -31.1494 -31.1476 -31.1434
     6.8865   6.9153   6.9199   6.9297   6.9933   7.0044   7.0296   7.0469
     8.4503   8.4582   8.4688   8.4753   8.4825   8.4864   8.4889   8.4916
     8.5014   8.5039   8.5156   8.5218   8.5372   8.5401   8.5420   8.5610
     8.5701   8.5717   8.5946   8.6073   8.8772   8.8807   8.8849   8.8864
     8.9069   8.9121   8.9255   8.9310   9.0897   9.1087   9.1103   9.1180
     9.1237   9.1447   9.1466   9.1494   9.1509   9.1544   9.1545   9.1632
     9.1635   9.1678   9.1685   9.1696   9.1721   9.1747   9.1767   9.1816
     9.1831   9.1841   9.1901   9.1910   9.1967   9.2038   9.2062   9.2187
     9.2329   9.2340   9.2405   9.2418   9.2537   9.2587   9.2613   9.2698
     9.5433   9.5442   9.5603   9.5711   9.5772   9.5830   9.6100   9.6146
     9.6475   9.6602   9.6656   9.6780   9.7190   9.7386   9.7539   9.7779
     9.8168   9.8385   9.8448   9.8504   9.8758   9.8773   9.8846   9.8955
    10.1151  10.1261  10.1399  10.1499  10.1658  10.1714  10.1779  10.1787
    10.2911  10.3052  10.4430  10.4511  10.4669  10.4676  10.4733  10.4746
    10.4844  10.4867  10.4913  10.4958  10.4992  10.5025  10.5152  10.5176
    10.5211  10.5281  10.5375  10.5472  10.5608  10.5609  10.5790  10.5844
    10.5977  10.6186  10.6318  10.6410  10.6491  10.6703  10.6782  10.6836
    10.6904  10.6912  10.7007  10.7054  10.7169  10.7208  11.0431  11.0474
    11.0592  11.0666  11.0930  11.0945  11.1098  11.1099  11.3697  11.3699
    11.3966  11.3986  11.4016  11.4256  11.4412  11.4501  11.4660  11.4712
    11.4770  11.4911  11.5007  11.5069  11.5080  11.5160  11.6381  11.6400
    11.6446  11.6468  11.6696  11.6720  11.6862  11.6878  11.7023  11.7231
    11.7246  11.7276  11.7342  11.7437  11.7753  11.7769  11.7845  11.7877
    11.7984  11.8012  11.8125  11.8285  11.8321  11.8400  11.9901  12.0067
    12.0152  12.0502  12.0579  12.0646  12.1038  12.1230  12.1313  12.1392
    12.1647  12.1863  12.2046  12.2172  12.2432  12.2690  12.2860  12.2920
    12.2951  12.3495  12.4033  12.4221  12.4278  12.4368  12.4558  12.4584
    12.4821  12.4837  12.5397  12.5572  12.5654  12.5784  12.5876  12.5933
    12.6195  12.6508  12.6795  12.6849  12.6922  12.7046  12.7156  12.7619
    12.8103  12.8409  12.9556  12.9588  13.0732  13.0821  13.1134  13.1716
    13.2472  13.2876  13.2970  13.3144  13.4115  13.4718  13.5228  13.5419
    13.6238  13.6928  13.8431  13.8706  13.8778  13.9197  14.0749  14.1133
    14.1443  14.1673  14.2285  14.6475  14.7130  14.7490  14.8455  15.0621
    15.0634  15.1758  15.2155  15.4433  15.4447  15.5817  15.6648  15.7008
    15.7020  15.7825  15.8282  15.8330  15.8693  15.9048  15.9195  15.9385
    15.9487  15.9923  16.0688  16.0712  16.1377  16.1831  16.1867  16.2068
    16.2151  16.2195  16.2344  16.2411  16.3470  16.4203  16.4571  16.4959
    16.5169  16.5227  16.5888  16.5980  16.6432  16.6760  16.6816  16.6863
    16.7726  16.8555  16.8696  16.8903  16.8963  16.9328  16.9838  17.0186
    17.0792  17.1052  17.7318  17.8075  17.8531  17.8574  19.0119  19.0178
    19.0504  19.0511  19.0630  19.0950  19.1689  19.2349  19.3006  19.3038

          k =-0.5000 0.0000 0.0000 ( 31722 PWs)   bands (ev):

   -66.7845 -66.7631 -66.7434 -66.7394 -66.7311 -66.7267 -66.6115 -66.5823
   -66.5561 -62.4028 -62.3830 -62.3726 -62.3694 -62.3684 -62.3584 -62.3562
   -62.3441 -62.3237 -35.5364 -35.5314 -35.5262 -35.5149 -35.5092 -35.5063
   -35.5046 -35.4953 -35.4892 -35.4874 -35.4825 -35.4805 -35.4797 -35.4759
   -35.4617 -35.4557 -35.4507 -35.4432 -35.3659 -35.3561 -35.3541 -35.3481
   -35.3308 -35.3187 -35.3075 -35.2889 -35.2837 -31.2407 -31.2308 -31.2222
   -31.2152 -31.2137 -31.2134 -31.2085 -31.2055 -31.2043 -31.2011 -31.2001
   -31.1968 -31.1915 -31.1866 -31.1852 -31.1845 -31.1835 -31.1807 -31.1799
   -31.1784 -31.1723 -31.1618 -31.1599 -31.1561 -31.1494 -31.1476 -31.1434
     6.0221   6.0566   7.4104   7.4495   7.4574   7.4608   7.6608   7.6842
     8.1024   8.1059   8.1299   8.1919   8.2070   8.2306   8.2399   8.2463
     8.3924   8.4449   8.4509   8.4541   8.6258   8.6329   8.6463   8.6535
     8.6663   8.6709   8.6724   8.6973   8.7606   8.7836   8.8143   8.8352
     8.8618   8.8647   8.8775   8.8786   8.9141   8.9162   8.9168   8.9183
     8.9248   8.9275   8.9353   8.9356   9.0354   9.0603   9.1596   9.1843
     9.1910   9.1986   9.2172   9.2207   9.2260   9.2273   9.3162   9.3396
     9.3624   9.3725   9.3796   9.3832   9.4771   9.4809   9.4895   9.5229
     9.5308   9.5313   9.5341   9.5756   9.5868   9.5961   9.6020   9.6049
     9.6107   9.6210   9.6281   9.6311   9.6315   9.6342   9.6359   9.6455
     9.6521   9.6626   9.6724   9.6797   9.6967   9.7144   9.7151   9.7329
     9.7401   9.7427   9.7521   9.7571   9.8970   9.9016   9.9454   9.9692
     9.9964  10.0606  10.1447  10.1854  10.2164  10.2305  10.2474  10.2491
    10.2603  10.2648  10.2681  10.2742  10.2772  10.2799  10.3439  10.3502
    10.3550  10.3711  10.3769  10.3828  10.4292  10.4352  10.4454  10.4518
    10.5253  10.5302  10.5460  10.5555  10.5636  10.5688  10.5790  10.5897
    10.5951  10.6066  10.6635  10.6644  10.7136  10.7274  10.7552  10.7736
    10.7970  10.8093  10.8230  10.8514  10.8641  10.8772  10.8862  10.9074
    10.9842  11.0065  11.0129  11.0212  11.0421  11.0982  11.1683  11.1754
    11.3430  11.3472  11.3486  11.3570  11.3742  11.3830  11.3917  11.3953
    11.4021  11.4168  11.4490  11.4810  11.4931  11.5355  11.5412  11.5433
    11.5651  11.5901  11.6067  11.6173  11.6226  11.6298  11.6787  11.6986
    11.7487  11.7673  11.7847  11.7864  11.8014  11.8148  11.8505  11.8505
    11.9034  11.9078  11.9103  11.9239  11.9369  11.9372  11.9450  11.9600
    11.9747  11.9789  11.9845  12.0140  12.0976  12.1027  12.1608  12.1697
    12.1927  12.1977  12.2061  12.2113  12.2390  12.2478  12.2563  12.2661
    12.2804  12.3311  12.3369  12.3614  12.3630  12.3705  12.3865  12.3935
    12.3956  12.4242  12.4383  12.4482  12.4582  12.4787  12.5188  12.5440
    12.5543  12.5853  12.6138  12.6485  12.6562  12.7484  12.7670  12.9004
    12.9057  12.9437  12.9671  12.9906  13.0229  13.0647  13.0836  13.1442
    13.1512  13.1604  13.1921  13.2034  13.2280  13.2405  13.2734  13.3169
    13.4366  13.4579  13.4779  13.5811  13.6237  14.4955  14.5302  14.5639
    14.6300  14.6914  14.7224  14.7799  14.8010  14.8469  14.8676  15.0064
    15.0136  15.1362  15.2989  15.3088  15.4089  15.4106  15.4581  15.5010
    15.5777  15.7314  15.7721  15.8556  15.8798  15.8840  15.9278  15.9999
    16.0150  16.0159  16.0470  16.0967  16.1054  16.1248  16.1889  16.2014
    16.2280  16.2310  16.2317  16.2737  16.2963  16.3180  16.3353  16.3761
    16.4287  16.4428  16.5236  16.6546  16.7089  16.7851  17.0194  17.0658
    17.1436  17.1913  17.2238  17.2954  17.3529  17.4106  17.6185  17.6255
    17.6771  17.7471  17.8257  17.8296  17.8644  17.8770  17.9141  17.9202
    18.0191  18.0538  18.1227  18.2397  19.2536  19.3056  19.3208  19.3821

          k =-0.5000 0.0000 0.5734 ( 31696 PWs)   bands (ev):

   -66.7845 -66.7631 -66.7434 -66.7394 -66.7311 -66.7267 -66.6115 -66.5823
   -66.5561 -62.4028 -62.3830 -62.3726 -62.3694 -62.3684 -62.3584 -62.3562
   -62.3441 -62.3237 -35.5364 -35.5314 -35.5262 -35.5149 -35.5092 -35.5063
   -35.5046 -35.4953 -35.4892 -35.4874 -35.4825 -35.4805 -35.4797 -35.4759
   -35.4617 -35.4557 -35.4507 -35.4432 -35.3659 -35.3561 -35.3541 -35.3481
   -35.3308 -35.3187 -35.3075 -35.2889 -35.2837 -31.2407 -31.2308 -31.2222
   -31.2152 -31.2137 -31.2134 -31.2085 -31.2055 -31.2043 -31.2011 -31.2001
   -31.1968 -31.1915 -31.1866 -31.1852 -31.1845 -31.1835 -31.1807 -31.1799
   -31.1784 -31.1723 -31.1618 -31.1599 -31.1561 -31.1494 -31.1476 -31.1434
     6.5187   6.5380   6.6265   6.6415   7.8338   7.8463   7.8490   7.8624
     7.9042   7.9138   7.9307   7.9426   8.2688   8.2720   8.2992   8.3007
     8.5168   8.5222   8.5276   8.5291   8.6694   8.6724   8.6799   8.6876
     8.6890   8.6939   8.7079   8.7207   8.7304   8.7313   8.7382   8.7421
     8.7510   8.7750   8.7799   8.7816   8.9478   8.9642   9.0348   9.0416
     9.0434   9.0439   9.0520   9.0543   9.1689   9.1865   9.2105   9.2157
     9.2171   9.2233   9.2332   9.2335   9.2395   9.2409   9.2455   9.2550
     9.2570   9.2576   9.2697   9.2729   9.3221   9.3547   9.3857   9.4044
     9.4148   9.4264   9.4480   9.4542   9.4590   9.4628   9.4655   9.4755
     9.5056   9.5115   9.5147   9.5244   9.5329   9.5402   9.5484   9.5547
     9.5789   9.5942   9.7514   9.7533   9.7966   9.8079   9.8097   9.8135
     9.8213   9.8329   9.8333   9.8402   9.8563   9.8608   9.8610   9.8776
     9.9492   9.9542  10.0103  10.0115  10.0284  10.0363  10.0495  10.0547
    10.3577  10.3655  10.3681  10.3713  10.3896  10.3933  10.4343  10.4366
    10.4427  10.4554  10.4615  10.4641  10.4730  10.5031  10.5180  10.5286
    10.5477  10.5502  10.5592  10.5713  10.5888  10.6061  10.6327  10.6412
    10.6516  10.6549  10.6718  10.6754  10.6889  10.6935  10.7292  10.7329
    10.7522  10.7809  10.8306  10.8402  10.9854  10.9904  11.0062  11.0127
    11.1114  11.1277  11.1510  11.1786  11.1833  11.1856  11.1931  11.1932
    11.2110  11.2112  11.3261  11.3262  11.3335  11.3393  11.3697  11.3829
    11.3837  11.3877  11.4140  11.4451  11.4452  11.4489  11.4860  11.4979
    11.5490  11.5492  11.5628  11.5684  11.5724  11.5754  11.6032  11.6277
    11.6405  11.6431  11.7346  11.7424  11.7513  11.7704  11.7838  11.8782
    11.8851  11.9067  11.9146  11.9187  11.9689  11.9752  11.9977  12.0044
    12.0091  12.0294  12.0325  12.0348  12.0352  12.0387  12.0423  12.0606
    12.1972  12.2176  12.2517  12.2569  12.2721  12.2773  12.3089  12.3317
    12.3357  12.3477  12.3695  12.3752  12.3830  12.4105  12.4440  12.4497
    12.4655  12.4742  12.4911  12.4954  12.5274  12.5356  12.5526  12.5816
    12.5963  12.6451  12.6479  12.6556  12.6645  12.6713  12.6882  12.7424
    12.7746  12.8304  12.8532  12.9394  12.9523  12.9699  12.9764  13.1547
    13.2867  13.2989  13.3929  13.4348  13.5369  13.6751  13.7154  13.8926
    13.9630  14.0155  14.0234  14.0801  14.1155  14.1575  14.1645  14.2013
    14.3050  14.5465  14.5558  14.6531  14.6787  14.7340  14.7764  15.0353
    15.0371  15.2938  15.2965  15.4165  15.4405  15.4476  15.5112  15.5727
    15.5889  15.6150  15.6583  15.6986  15.7356  15.8658  15.8849  15.9484
    15.9765  16.0974  16.1223  16.1699  16.1802  16.2017  16.2144  16.2202
    16.2826  16.2834  16.3018  16.3428  16.3886  16.3974  16.4135  16.4302
    16.4641  16.5384  16.5454  16.5817  16.5936  16.6333  16.6671  16.7243
    16.7640  16.7735  16.8363  16.8381  16.8890  16.8904  16.9511  17.0027
    17.1393  17.1611  17.2018  17.2046  18.6736  18.6782  18.6945  18.7121
    18.7432  18.7654  18.8054  18.8067  18.8686  18.8804  18.9863  19.0046

     the Fermi energy is    14.8204 ev

!    total energy              =  -33062.59190996 Ry
     Harris-Foulkes estimate   =  -33062.59188828 Ry
     estimated scf accuracy    <       0.00000089 Ry

     total all-electron energy =  -1410574.682284 Ry

     The total energy is the sum of the following terms:

     one-electron contribution =   -1645.67898825 Ry
     hartree contribution      =    1489.89575285 Ry
     xc contribution           =   -1658.73951078 Ry
     ewald contribution        =   -4919.25534656 Ry
     one-center paw contrib.   =  -26328.81381723 Ry

     total magnetization       =    -0.48 Bohr mag/cell
     absolute magnetization    =    78.61 Bohr mag/cell

     convergence has been achieved in  20 iterations

     Writing output data file mnau2.save
 
     init_run     :     52.55s CPU     53.29s WALL (       1 calls)
     electrons    :   3033.89s CPU   3085.69s WALL (       1 calls)

     Called by init_run:
     wfcinit      :     46.60s CPU     47.11s WALL (       1 calls)
     potinit      :      2.51s CPU      2.55s WALL (       1 calls)

     Called by electrons:
     c_bands      :   2703.71s CPU   2745.35s WALL (      20 calls)
     sum_band     :    277.54s CPU    283.55s WALL (      20 calls)
     v_of_rho     :      5.39s CPU      5.56s WALL (      21 calls)
     newd         :     17.11s CPU     19.46s WALL (      21 calls)
     PAW_pot      :     31.00s CPU     31.51s WALL (      21 calls)
     mix_rho      :      1.08s CPU      1.14s WALL (      20 calls)

     Called by c_bands:
     init_us_2    :      9.88s CPU      9.96s WALL (     656 calls)
     cegterg      :   2641.16s CPU   2682.00s WALL (     320 calls)

     Called by sum_band:
     sum_band:bec :      1.55s CPU      1.56s WALL (     320 calls)
     addusdens    :     30.19s CPU     32.83s WALL (      20 calls)

     Called by *egterg:
     h_psi        :    931.50s CPU    941.12s WALL (    1294 calls)
     s_psi        :    225.18s CPU    225.46s WALL (    1294 calls)
     g_psi        :      3.48s CPU      3.49s WALL (     958 calls)
     cdiaghg      :    955.85s CPU    956.78s WALL (    1278 calls)

     Called by h_psi:
     h_psi:pot    :    922.77s CPU    932.31s WALL (    1294 calls)
     h_psi:calbec :    225.24s CPU    227.80s WALL (    1294 calls)
     vloc_psi     :    471.08s CPU    477.80s WALL (    1294 calls)
     add_vuspsi   :    226.43s CPU    226.70s WALL (    1294 calls)

     General routines
     calbec       :    320.66s CPU    324.22s WALL (    1614 calls)
     fft          :      4.70s CPU      5.04s WALL (     641 calls)
     ffts         :      0.09s CPU      0.09s WALL (      82 calls)
     fftw         :    445.72s CPU    452.24s WALL (  719180 calls)
     interpolate  :      0.79s CPU      0.85s WALL (      82 calls)
 
     Parallel routines
     fft_scatt_xy :     54.99s CPU     55.57s WALL (  719903 calls)
     fft_scatt_yz :    116.53s CPU    119.63s WALL (  719903 calls)
 
     PWSCF        : 51m31.84s CPU    52m40.64s WALL

 
   This run was terminated on:   3: 7:56   5Mar2019            

=------------------------------------------------------------------------------=
   JOB DONE.
=------------------------------------------------------------------------------=
