
     Program PWSCF v.6.2 (svn rev. 14038) starts on  5Mar2019 at 12: 5:59 

     This program is part of the open-source Quantum ESPRESSO suite
     for quantum simulation of materials; please cite
         "P. Giannozzi et al., J. Phys.:Condens. Matter 21 395502 (2009);
         "P. Giannozzi et al., J. Phys.:Condens. Matter 29 465901 (2017);
          URL http://www.quantum-espresso.org", 
     in publications or presentations arising from this work. More details at
     http://www.quantum-espresso.org/quote

     Parallel version (MPI), running on    16 processors

     MPI processes distributed on     1 nodes
     R & G space division:  proc/nbgrp/npool/nimage =      16
     Waiting for input...
     Reading input from standard input

     Current dimensions of program PWSCF are:
     Max number of different atomic species (ntypx) = 10
     Max number of k-points (npk) =  40000
     Max angular momentum in pseudopotentials (lmaxx) =  3
               file Mn.pbe-spn-kjpaw_psl.0.3.1.UPF: wavefunction(s)  3P 3D renormalized
               file Mn.pbe-spn-kjpaw_psl.0.3.1.UPF: wavefunction(s)  3P 3D renormalized
               file Au.pbe-dn-kjpaw_psl.0.1.UPF: wavefunction(s)  6S 6P 5D renormalized

     Subspace diagonalization in iterative solution of the eigenvalue problem:
     a serial algorithm will be used

 
     Parallelization info
     --------------------
     sticks:   dense  smooth     PW     G-vecs:    dense   smooth      PW
     Min         736     331     90                52486    15847    2256
     Max         737     332     91                52489    15850    2259
     Sum       11785    5297   1449               839803   253559   36125
 


     bravais-lattice index     =            0
     lattice parameter (alat)  =      19.2459  a.u.
     unit-cell volume          =    6216.1497 (a.u.)^3
     number of atoms/cell      =           54
     number of atomic types    =            3
     number of electrons       =       666.00
     number of Kohn-Sham states=          400
     kinetic-energy cutoff     =      45.0000  Ry
     charge density cutoff     =     400.0000  Ry
     convergence threshold     =      1.0E-06
     mixing beta               =       0.1000
     number of iterations used =            8  plain     mixing
     Exchange-correlation      = SLA PW PBX PBC ( 1  4  3  4 0 0)

     celldm(1)=  19.245946  celldm(2)=   0.000000  celldm(3)=   0.000000
     celldm(4)=   0.000000  celldm(5)=   0.000000  celldm(6)=   0.000000

     crystal axes: (cart. coord. in units of alat)
               a(1) = (   1.000000   0.000000   0.000000 )  
               a(2) = (   0.000000   1.000000   0.000000 )  
               a(3) = (   0.000000   0.000000   0.871974 )  

     reciprocal axes: (cart. coord. in units 2 pi/alat)
               b(1) = (  1.000000  0.000000  0.000000 )  
               b(2) = (  0.000000  1.000000  0.000000 )  
               b(3) = (  0.000000  0.000000  1.146823 )  


     PseudoPot. # 1 for Mn read from file:
     ./pseudo/Mn.pbe-spn-kjpaw_psl.0.3.1.UPF
     MD5 check sum: 7eef95dd2aae66803482eea66ebeebf1
     Pseudo is Projector augmented-wave + core cor, Zval = 15.0
     Generated using "atomic" code by A. Dal Corso v.5.0.99 svn rev. 10869
     Shape of augmentation charge: PSQ
     Using radial grid of 1187 points,  6 beta functions with: 
                l(1) =   0
                l(2) =   0
                l(3) =   1
                l(4) =   1
                l(5) =   2
                l(6) =   2
     Q(r) pseudized with 0 coefficients 


     PseudoPot. # 2 for Mn read from file:
     ./pseudo/Mn.pbe-spn-kjpaw_psl.0.3.1.UPF
     MD5 check sum: 7eef95dd2aae66803482eea66ebeebf1
     Pseudo is Projector augmented-wave + core cor, Zval = 15.0
     Generated using "atomic" code by A. Dal Corso v.5.0.99 svn rev. 10869
     Shape of augmentation charge: PSQ
     Using radial grid of 1187 points,  6 beta functions with: 
                l(1) =   0
                l(2) =   0
                l(3) =   1
                l(4) =   1
                l(5) =   2
                l(6) =   2
     Q(r) pseudized with 0 coefficients 


     PseudoPot. # 3 for Au read from file:
     ./pseudo/Au.pbe-dn-kjpaw_psl.0.1.UPF
     MD5 check sum: 5c9b92683623e7ae2ab3f8e525febab6
     Pseudo is Projector augmented-wave + core cor, Zval = 11.0
     Generated using "atomic" code by A. Dal Corso v.5.0.2 svn rev. 9415
     Shape of augmentation charge: PSQ
     Using radial grid of 1279 points,  6 beta functions with: 
                l(1) =   0
                l(2) =   0
                l(3) =   1
                l(4) =   1
                l(5) =   2
                l(6) =   2
     Q(r) pseudized with 0 coefficients 


     atomic species   valence    mass     pseudopotential
        Mn1           15.00    54.93800     Mn( 1.00)
        Mn2           15.00    54.93800     Mn( 1.00)
        Au            11.00   196.96600     Au( 1.00)

     Starting magnetic structure 
     atomic species   magnetization
        Mn1          0.800
        Mn2         -0.800
        Au           0.000

      2 Sym. Ops. (no inversion) found



   Cartesian axes

     site n.     atom                  positions (alat units)
         1           Mn1 tau(   1) = (   0.0000000   0.0000000   0.0000000  )
         2           Mn1 tau(   2) = (   0.0000000   0.3333300   0.0000000  )
         3           Mn1 tau(   3) = (   0.0000000   0.6666700   0.0000000  )
         4           Mn2 tau(   4) = (   0.3333300   0.0000000   0.0000000  )
         5           Mn1 tau(   5) = (   0.3333300   0.3333300   0.0000000  )
         6           Mn1 tau(   6) = (   0.3333300   0.6666700   0.0000000  )
         7           Mn2 tau(   7) = (   0.6666700   0.0000000   0.0000000  )
         8           Mn2 tau(   8) = (   0.6666700   0.3333300   0.0000000  )
         9           Mn1 tau(   9) = (   0.6666700   0.6666700   0.0000000  )
        10           Mn2 tau(  10) = (   0.1666700   0.1666700   0.4359871  )
        11           Mn2 tau(  11) = (   0.1666700   0.5000000   0.4359871  )
        12           Mn2 tau(  12) = (   0.1666700   0.8333300   0.4359871  )
        13           Mn1 tau(  13) = (   0.5000000   0.1666700   0.4359871  )
        14           Mn2 tau(  14) = (   0.5000000   0.5000000   0.4359871  )
        15           Mn2 tau(  15) = (   0.5000000   0.8333300   0.4359871  )
        16           Mn1 tau(  16) = (   0.8333300   0.1666700   0.4359871  )
        17           Mn1 tau(  17) = (   0.8333300   0.5000000   0.4359871  )
        18           Mn2 tau(  18) = (   0.8333300   0.8333300   0.4359871  )
        19           Au  tau(  19) = (   0.1666700   0.1666700   0.7327374  )
        20           Au  tau(  20) = (   0.1666700   0.5000000   0.7327374  )
        21           Au  tau(  21) = (   0.1666700   0.8333300   0.7327374  )
        22           Au  tau(  22) = (   0.5000000   0.1666700   0.7327374  )
        23           Au  tau(  23) = (   0.5000000   0.5000000   0.7327374  )
        24           Au  tau(  24) = (   0.5000000   0.8333300   0.7327374  )
        25           Au  tau(  25) = (   0.8333300   0.1666700   0.7327374  )
        26           Au  tau(  26) = (   0.8333300   0.5000000   0.7327374  )
        27           Au  tau(  27) = (   0.8333300   0.8333300   0.7327374  )
        28           Au  tau(  28) = (   0.1666700   0.1666700   0.1392369  )
        29           Au  tau(  29) = (   0.1666700   0.5000000   0.1392369  )
        30           Au  tau(  30) = (   0.1666700   0.8333300   0.1392369  )
        31           Au  tau(  31) = (   0.5000000   0.1666700   0.1392369  )
        32           Au  tau(  32) = (   0.5000000   0.5000000   0.1392369  )
        33           Au  tau(  33) = (   0.5000000   0.8333300   0.1392369  )
        34           Au  tau(  34) = (   0.8333300   0.1666700   0.1392369  )
        35           Au  tau(  35) = (   0.8333300   0.5000000   0.1392369  )
        36           Au  tau(  36) = (   0.8333300   0.8333300   0.1392369  )
        37           Au  tau(  37) = (   0.0000000   0.0000000   0.2967503  )
        38           Au  tau(  38) = (   0.0000000   0.3333300   0.2967503  )
        39           Au  tau(  39) = (   0.0000000   0.6666700   0.2967503  )
        40           Au  tau(  40) = (   0.3333300   0.0000000   0.2967503  )
        41           Au  tau(  41) = (   0.3333300   0.3333300   0.2967503  )
        42           Au  tau(  42) = (   0.3333300   0.6666700   0.2967503  )
        43           Au  tau(  43) = (   0.6666700   0.0000000   0.2967503  )
        44           Au  tau(  44) = (   0.6666700   0.3333300   0.2967503  )
        45           Au  tau(  45) = (   0.6666700   0.6666700   0.2967503  )
        46           Au  tau(  46) = (   0.0000000   0.0000000   0.5752240  )
        47           Au  tau(  47) = (   0.0000000   0.3333300   0.5752240  )
        48           Au  tau(  48) = (   0.0000000   0.6666700   0.5752240  )
        49           Au  tau(  49) = (   0.3333300   0.0000000   0.5752240  )
        50           Au  tau(  50) = (   0.3333300   0.3333300   0.5752240  )
        51           Au  tau(  51) = (   0.3333300   0.6666700   0.5752240  )
        52           Au  tau(  52) = (   0.6666700   0.0000000   0.5752240  )
        53           Au  tau(  53) = (   0.6666700   0.3333300   0.5752240  )
        54           Au  tau(  54) = (   0.6666700   0.6666700   0.5752240  )

     number of k points=     8 (tetrahedron method)
                       cart. coord. in units 2pi/alat
        k(    1) = (   0.0000000   0.0000000   0.0000000), wk =   0.1250000
        k(    2) = (   0.0000000   0.0000000  -0.5734114), wk =   0.1250000
        k(    3) = (   0.0000000  -0.5000000   0.0000000), wk =   0.1250000
        k(    4) = (   0.0000000  -0.5000000  -0.5734114), wk =   0.1250000
        k(    5) = (  -0.5000000  -0.5000000   0.0000000), wk =   0.1250000
        k(    6) = (  -0.5000000  -0.5000000  -0.5734114), wk =   0.1250000
        k(    7) = (  -0.5000000   0.0000000   0.0000000), wk =   0.1250000
        k(    8) = (  -0.5000000   0.0000000   0.5734114), wk =   0.1250000

     Dense  grid:   839803 G-vectors     FFT dimensions: ( 125, 125, 108)

     Smooth grid:   253559 G-vectors     FFT dimensions: (  90,  90,  72)

     Estimated max dynamical RAM per process >     570.13 MB

     Estimated total dynamical RAM >       8.91 GB
     Generating pointlists ...
     new r_m :   0.1129 (alat units)  2.1733 (a.u.) for type    1
     new r_m :   0.1129 (alat units)  2.1733 (a.u.) for type    2
     new r_m :   0.1129 (alat units)  2.1733 (a.u.) for type    3

     Check: negative/imaginary core charge=   -0.000006    0.000000

     Initial potential from superposition of free atoms

     starting charge  665.98709, renormalised to  666.00000
     Starting wfc are  504 randomized atomic wfcs
     Checking if some PAW data can be deallocated... 

     total cpu time spent up to now is       56.8 secs

     Self-consistent Calculation

     iteration #  1     ecut=    45.00 Ry     beta= 0.10
     Davidson diagonalization with overlap
     ethr =  1.00E-02,  avg # of iterations =  3.1

     total cpu time spent up to now is      216.5 secs

     total energy              =  -33047.19376482 Ry
     Harris-Foulkes estimate   =  -33044.04228368 Ry
     estimated scf accuracy    <      27.03776657 Ry

     total magnetization       =    -0.01 Bohr mag/cell
     absolute magnetization    =    92.10 Bohr mag/cell

     iteration #  2     ecut=    45.00 Ry     beta= 0.10
     Davidson diagonalization with overlap
     ethr =  4.06E-03,  avg # of iterations =  1.0

     total cpu time spent up to now is      325.3 secs

     total energy              =  -33058.56605252 Ry
     Harris-Foulkes estimate   =  -33047.37235355 Ry
     estimated scf accuracy    <      21.37699622 Ry

     total magnetization       =    -0.00 Bohr mag/cell
     absolute magnetization    =    91.66 Bohr mag/cell

     iteration #  3     ecut=    45.00 Ry     beta= 0.10
     Davidson diagonalization with overlap
     ethr =  3.21E-03,  avg # of iterations =  2.1

     total cpu time spent up to now is      458.1 secs

     total energy              =  -33065.95763990 Ry
     Harris-Foulkes estimate   =  -33061.35640310 Ry
     estimated scf accuracy    <       8.79183646 Ry

     total magnetization       =     0.02 Bohr mag/cell
     absolute magnetization    =    85.54 Bohr mag/cell

     iteration #  4     ecut=    45.00 Ry     beta= 0.10
     Davidson diagonalization with overlap
     ethr =  1.32E-03,  avg # of iterations =  3.9

     total cpu time spent up to now is      653.2 secs

     total energy              =  -33058.89108218 Ry
     Harris-Foulkes estimate   =  -33068.38449074 Ry
     estimated scf accuracy    <      49.05677872 Ry

     total magnetization       =     0.40 Bohr mag/cell
     absolute magnetization    =    72.58 Bohr mag/cell

     iteration #  5     ecut=    45.00 Ry     beta= 0.10
     Davidson diagonalization with overlap
     ethr =  1.32E-03,  avg # of iterations =  4.9

     total cpu time spent up to now is      893.9 secs

     total energy              =  -33062.19145064 Ry
     Harris-Foulkes estimate   =  -33062.53721752 Ry
     estimated scf accuracy    <       3.30895555 Ry

     total magnetization       =     0.02 Bohr mag/cell
     absolute magnetization    =    83.42 Bohr mag/cell

     iteration #  6     ecut=    45.00 Ry     beta= 0.10
     Davidson diagonalization with overlap
     ethr =  4.97E-04,  avg # of iterations =  3.4

     total cpu time spent up to now is     1038.4 secs

     total energy              =  -33062.56851870 Ry
     Harris-Foulkes estimate   =  -33062.54605783 Ry
     estimated scf accuracy    <       0.14672756 Ry

     total magnetization       =    -0.09 Bohr mag/cell
     absolute magnetization    =    80.30 Bohr mag/cell

     iteration #  7     ecut=    45.00 Ry     beta= 0.10
     Davidson diagonalization with overlap
     ethr =  2.20E-05,  avg # of iterations =  5.2

     total cpu time spent up to now is     1296.0 secs

     total energy              =  -33062.59897800 Ry
     Harris-Foulkes estimate   =  -33062.60632267 Ry
     estimated scf accuracy    <       0.10639399 Ry

     total magnetization       =    -0.00 Bohr mag/cell
     absolute magnetization    =    78.75 Bohr mag/cell

     iteration #  8     ecut=    45.00 Ry     beta= 0.10
     Davidson diagonalization with overlap
     ethr =  1.60E-05,  avg # of iterations =  1.0

     total cpu time spent up to now is     1404.4 secs

     total energy              =  -33062.59541513 Ry
     Harris-Foulkes estimate   =  -33062.59967601 Ry
     estimated scf accuracy    <       0.08755664 Ry

     total magnetization       =     0.01 Bohr mag/cell
     absolute magnetization    =    78.32 Bohr mag/cell

     iteration #  9     ecut=    45.00 Ry     beta= 0.10
     Davidson diagonalization with overlap
     ethr =  1.31E-05,  avg # of iterations =  1.0

     total cpu time spent up to now is     1512.8 secs

     total energy              =  -33062.59975004 Ry
     Harris-Foulkes estimate   =  -33062.59934052 Ry
     estimated scf accuracy    <       0.02481140 Ry

     total magnetization       =    -0.02 Bohr mag/cell
     absolute magnetization    =    78.55 Bohr mag/cell

     iteration # 10     ecut=    45.00 Ry     beta= 0.10
     Davidson diagonalization with overlap
     ethr =  3.73E-06,  avg # of iterations =  4.1

     total cpu time spent up to now is     1672.6 secs

     total energy              =  -33062.60222674 Ry
     Harris-Foulkes estimate   =  -33062.60277566 Ry
     estimated scf accuracy    <       0.00376580 Ry

     total magnetization       =    -0.00 Bohr mag/cell
     absolute magnetization    =    78.77 Bohr mag/cell

     iteration # 11     ecut=    45.00 Ry     beta= 0.10
     Davidson diagonalization with overlap
     ethr =  5.65E-07,  avg # of iterations =  2.9

     total cpu time spent up to now is     1820.9 secs

     total energy              =  -33062.60437752 Ry
     Harris-Foulkes estimate   =  -33062.60349962 Ry
     estimated scf accuracy    <       0.00411520 Ry

     total magnetization       =    -0.01 Bohr mag/cell
     absolute magnetization    =    78.94 Bohr mag/cell

     iteration # 12     ecut=    45.00 Ry     beta= 0.10
     Davidson diagonalization with overlap
     ethr =  5.65E-07,  avg # of iterations =  2.1

     total cpu time spent up to now is     1945.3 secs

     total energy              =  -33062.60492250 Ry
     Harris-Foulkes estimate   =  -33062.60438131 Ry
     estimated scf accuracy    <       0.00080842 Ry

     total magnetization       =    -0.00 Bohr mag/cell
     absolute magnetization    =    78.74 Bohr mag/cell

     iteration # 13     ecut=    45.00 Ry     beta= 0.10
     Davidson diagonalization with overlap
     ethr =  1.21E-07,  avg # of iterations =  3.1

     total cpu time spent up to now is     2095.2 secs

     total energy              =  -33062.60510627 Ry
     Harris-Foulkes estimate   =  -33062.60504475 Ry
     estimated scf accuracy    <       0.00039276 Ry

     total magnetization       =    -0.00 Bohr mag/cell
     absolute magnetization    =    78.76 Bohr mag/cell

     iteration # 14     ecut=    45.00 Ry     beta= 0.10
     Davidson diagonalization with overlap
     ethr =  5.90E-08,  avg # of iterations =  2.6

     total cpu time spent up to now is     2227.6 secs

     total energy              =  -33062.60536244 Ry
     Harris-Foulkes estimate   =  -33062.60516028 Ry
     estimated scf accuracy    <       0.00024742 Ry

     total magnetization       =    -0.00 Bohr mag/cell
     absolute magnetization    =    78.71 Bohr mag/cell

     iteration # 15     ecut=    45.00 Ry     beta= 0.10
     Davidson diagonalization with overlap
     ethr =  3.72E-08,  avg # of iterations =  2.0

     total cpu time spent up to now is     2350.4 secs

     total energy              =  -33062.60547843 Ry
     Harris-Foulkes estimate   =  -33062.60533148 Ry
     estimated scf accuracy    <       0.00008246 Ry

     total magnetization       =    -0.00 Bohr mag/cell
     absolute magnetization    =    78.70 Bohr mag/cell

     iteration # 16     ecut=    45.00 Ry     beta= 0.10
     Davidson diagonalization with overlap
     ethr =  1.24E-08,  avg # of iterations =  2.8

     total cpu time spent up to now is     2496.7 secs

     total energy              =  -33062.60548610 Ry
     Harris-Foulkes estimate   =  -33062.60543383 Ry
     estimated scf accuracy    <       0.00003703 Ry

     total magnetization       =    -0.00 Bohr mag/cell
     absolute magnetization    =    78.68 Bohr mag/cell

     iteration # 17     ecut=    45.00 Ry     beta= 0.10
     Davidson diagonalization with overlap
     ethr =  5.56E-09,  avg # of iterations =  2.4

     total cpu time spent up to now is     2631.8 secs

     total energy              =  -33062.60548846 Ry
     Harris-Foulkes estimate   =  -33062.60546321 Ry
     estimated scf accuracy    <       0.00001321 Ry

     total magnetization       =    -0.00 Bohr mag/cell
     absolute magnetization    =    78.67 Bohr mag/cell

     iteration # 18     ecut=    45.00 Ry     beta= 0.10
     Davidson diagonalization with overlap
     ethr =  1.98E-09,  avg # of iterations =  3.1

     total cpu time spent up to now is     2787.2 secs

     total energy              =  -33062.60547543 Ry
     Harris-Foulkes estimate   =  -33062.60546262 Ry
     estimated scf accuracy    <       0.00000491 Ry

     total magnetization       =    -0.00 Bohr mag/cell
     absolute magnetization    =    78.65 Bohr mag/cell

     iteration # 19     ecut=    45.00 Ry     beta= 0.10
     Davidson diagonalization with overlap
     ethr =  7.37E-10,  avg # of iterations =  2.9

     total cpu time spent up to now is     2946.3 secs

     total energy              =  -33062.60546279 Ry
     Harris-Foulkes estimate   =  -33062.60545589 Ry
     estimated scf accuracy    <       0.00000205 Ry

     total magnetization       =    -0.00 Bohr mag/cell
     absolute magnetization    =    78.65 Bohr mag/cell

     iteration # 20     ecut=    45.00 Ry     beta= 0.10
     Davidson diagonalization with overlap
     ethr =  3.08E-10,  avg # of iterations =  2.1

     total cpu time spent up to now is     3081.8 secs

     total energy              =  -33062.60546000 Ry
     Harris-Foulkes estimate   =  -33062.60545515 Ry
     estimated scf accuracy    <       0.00000105 Ry

     total magnetization       =    -0.00 Bohr mag/cell
     absolute magnetization    =    78.64 Bohr mag/cell

     iteration # 21     ecut=    45.00 Ry     beta= 0.10
     Davidson diagonalization with overlap
     ethr =  1.57E-10,  avg # of iterations =  2.0
 
     Magnetic moment per site:
     atom:    1    charge:   13.5800    magn:    3.9770    constr:    0.0000
     atom:    2    charge:   13.5816    magn:    3.9536    constr:    0.0000
     atom:    3    charge:   13.5718    magn:    4.0199    constr:    0.0000
     atom:    4    charge:   13.5850    magn:   -3.9628    constr:    0.0000
     atom:    5    charge:   13.5775    magn:    4.0140    constr:    0.0000
     atom:    6    charge:   13.5685    magn:    4.0517    constr:    0.0000
     atom:    7    charge:   13.5747    magn:   -4.0107    constr:    0.0000
     atom:    8    charge:   13.5698    magn:   -4.0801    constr:    0.0000
     atom:    9    charge:   13.5779    magn:    3.9883    constr:    0.0000
     atom:   10    charge:   13.5779    magn:   -3.9884    constr:    0.0000
     atom:   11    charge:   13.5685    magn:   -4.0518    constr:    0.0000
     atom:   12    charge:   13.5719    magn:   -4.0199    constr:    0.0000
     atom:   13    charge:   13.5698    magn:    4.0801    constr:    0.0000
     atom:   14    charge:   13.5774    magn:   -4.0141    constr:    0.0000
     atom:   15    charge:   13.5816    magn:   -3.9536    constr:    0.0000
     atom:   16    charge:   13.5748    magn:    4.0107    constr:    0.0000
     atom:   17    charge:   13.5851    magn:    3.9628    constr:    0.0000
     atom:   18    charge:   13.5801    magn:   -3.9769    constr:    0.0000
     atom:   19    charge:    9.1201    magn:    0.0179    constr:    0.0000
     atom:   20    charge:    9.1201    magn:    0.0480    constr:    0.0000
     atom:   21    charge:    9.1213    magn:    0.0132    constr:    0.0000
     atom:   22    charge:    9.1225    magn:   -0.0155    constr:    0.0000
     atom:   23    charge:    9.1213    magn:    0.0206    constr:    0.0000
     atom:   24    charge:    9.1202    magn:   -0.0075    constr:    0.0000
     atom:   25    charge:    9.1214    magn:    0.0116    constr:    0.0000
     atom:   26    charge:    9.1202    magn:    0.0379    constr:    0.0000
     atom:   27    charge:    9.1199    magn:    0.0199    constr:    0.0000
     atom:   28    charge:    9.1201    magn:    0.0179    constr:    0.0000
     atom:   29    charge:    9.1201    magn:    0.0480    constr:    0.0000
     atom:   30    charge:    9.1213    magn:    0.0132    constr:    0.0000
     atom:   31    charge:    9.1225    magn:   -0.0155    constr:    0.0000
     atom:   32    charge:    9.1213    magn:    0.0206    constr:    0.0000
     atom:   33    charge:    9.1202    magn:   -0.0075    constr:    0.0000
     atom:   34    charge:    9.1214    magn:    0.0116    constr:    0.0000
     atom:   35    charge:    9.1202    magn:    0.0379    constr:    0.0000
     atom:   36    charge:    9.1199    magn:    0.0199    constr:    0.0000
     atom:   37    charge:    9.1200    magn:   -0.0198    constr:    0.0000
     atom:   38    charge:    9.1203    magn:    0.0076    constr:    0.0000
     atom:   39    charge:    9.1214    magn:   -0.0132    constr:    0.0000
     atom:   40    charge:    9.1202    magn:   -0.0379    constr:    0.0000
     atom:   41    charge:    9.1213    magn:   -0.0206    constr:    0.0000
     atom:   42    charge:    9.1201    magn:   -0.0480    constr:    0.0000
     atom:   43    charge:    9.1214    magn:   -0.0116    constr:    0.0000
     atom:   44    charge:    9.1225    magn:    0.0155    constr:    0.0000
     atom:   45    charge:    9.1200    magn:   -0.0179    constr:    0.0000
     atom:   46    charge:    9.1200    magn:   -0.0198    constr:    0.0000
     atom:   47    charge:    9.1203    magn:    0.0076    constr:    0.0000
     atom:   48    charge:    9.1214    magn:   -0.0132    constr:    0.0000
     atom:   49    charge:    9.1202    magn:   -0.0379    constr:    0.0000
     atom:   50    charge:    9.1213    magn:   -0.0206    constr:    0.0000
     atom:   51    charge:    9.1201    magn:   -0.0480    constr:    0.0000
     atom:   52    charge:    9.1214    magn:   -0.0116    constr:    0.0000
     atom:   53    charge:    9.1225    magn:    0.0155    constr:    0.0000
     atom:   54    charge:    9.1200    magn:   -0.0179    constr:    0.0000

     total cpu time spent up to now is     3212.7 secs

     End of self-consistent calculation

 ------ SPIN UP ------------


          k = 0.0000 0.0000 0.0000 ( 31747 PWs)   bands (ev):

   -66.7868 -66.7459 -66.7443 -66.6837 -66.6689 -66.6638 -66.6367 -66.6029
   -66.5529 -62.4210 -62.4099 -62.3739 -62.3650 -62.3584 -62.3529 -62.3416
   -62.3397 -62.2870 -35.5461 -35.5240 -35.5175 -35.5079 -35.4988 -35.4959
   -35.4948 -35.4683 -35.4624 -35.4436 -35.4261 -35.4256 -35.4231 -35.4206
   -35.4124 -35.4115 -35.3982 -35.3925 -35.3922 -35.3880 -35.3596 -35.3516
   -35.3470 -35.3338 -35.3136 -35.2951 -35.2875 -31.2589 -31.2533 -31.2483
   -31.2335 -31.2273 -31.2266 -31.2177 -31.2051 -31.1982 -31.1958 -31.1947
   -31.1935 -31.1815 -31.1807 -31.1789 -31.1786 -31.1773 -31.1739 -31.1730
   -31.1675 -31.1636 -31.1591 -31.1570 -31.1451 -31.1369 -31.1120 -31.0923
     5.6148   7.1545   7.1563   7.1979   7.2010   7.3643   7.8573   7.8869
     7.9157   7.9394   8.0867   8.1003   8.1408   8.1605   8.1906   8.2468
     8.2520   8.3032   8.3064   8.5183   8.5565   8.5600   8.5689   8.5949
     8.5993   8.8542   8.8599   8.8602   8.8816   8.8919   8.8946   8.8987
     8.9019   8.9041   8.9105   8.9228   8.9345   8.9604   8.9639   8.9729
     8.9831   9.0837   9.1200   9.1213   9.1283   9.1357   9.1549   9.1571
     9.1863   9.1972   9.2083   9.2655   9.2859   9.2964   9.3085   9.3586
     9.3625   9.3668   9.3699   9.3732   9.3755   9.3821   9.3933   9.4311
     9.4396   9.4459   9.4494   9.4534   9.4670   9.4705   9.4850   9.5788
     9.5814   9.5885   9.5898   9.5934   9.6015   9.6665   9.6687   9.6734
     9.6759   9.6767   9.6853   9.7392   9.7623   9.7709   9.8005   9.8496
     9.8503   9.9078   9.9092   9.9488   9.9517   9.9531  10.0075  10.0291
    10.1135  10.1307  10.1395  10.1504  10.2895  10.2917  10.2958  10.2999
    10.3026  10.3032  10.3065  10.3085  10.3091  10.3277  10.3428  10.3443
    10.3449  10.3462  10.3515  10.3560  10.3595  10.3685  10.3829  10.3837
    10.4005  10.5100  10.5198  10.5774  10.5978  10.6303  10.6382  10.6536
    10.6750  10.7848  10.7868  10.8131  10.8163  10.8190  10.8276  10.8416
    10.8448  10.8534  10.8578  10.8724  10.8740  10.8784  10.8854  10.8906
    10.9021  10.9221  11.0179  11.0216  11.0903  11.0922  11.2120  11.2221
    11.2238  11.2253  11.2758  11.2844  11.3002  11.3281  11.3538  11.3544
    11.3567  11.3739  11.3817  11.3834  11.3923  11.3941  11.4031  11.4103
    11.4160  11.4460  11.5504  11.5893  11.5917  11.5954  11.5979  11.6010
    11.6300  11.6785  11.7010  11.7021  11.7267  11.7300  11.7445  11.7482
    11.8325  11.8356  11.8462  11.8648  11.8705  11.9157  11.9271  11.9501
    11.9601  12.0150  12.0891  12.0993  12.1013  12.1015  12.1059  12.1426
    12.1448  12.1469  12.1482  12.1634  12.1692  12.1712  12.1846  12.2191
    12.2368  12.2439  12.3117  12.3197  12.3443  12.3692  12.3816  12.4079
    12.4312  12.4340  12.4393  12.4788  12.4910  12.4958  12.5039  12.5058
    12.5238  12.5253  12.5366  12.5572  12.5724  12.6167  12.6292  12.7008
    12.7104  12.7469  12.7487  12.7593  12.9767  13.0000  13.0631  13.0784
    13.1310  13.1368  13.1774  13.1925  13.3376  13.7691  13.7823  13.7883
    13.8217  13.9411  13.9601  14.2459  14.2775  14.3159  14.3380  14.5089
    14.8017  14.8626  14.9345  14.9888  15.0021  15.1157  15.1634  15.2472
    15.2771  15.3537  15.3549  15.3719  15.4778  15.4938  15.5207  15.5803
    15.6264  15.6466  15.6801  15.7887  15.8371  15.8445  15.9510  15.9800
    16.0446  16.0779  16.0915  16.1042  16.1292  16.1548  16.1839  16.1870
    16.2196  16.2600  16.2974  16.2997  16.3201  16.3532  16.3641  16.3807
    16.4302  16.5370  16.5577  16.6165  16.6553  16.6562  16.7271  16.8571
    16.9954  17.0308  17.1736  17.1986  17.2042  17.2299  17.2376  17.2550
    17.4968  17.5242  17.8665  17.9171  17.9244  17.9313  17.9671  18.1146
    18.2285  18.2792  18.3606  18.9754  19.0044  19.0319  19.1783  19.2103

          k = 0.0000 0.0000-0.5734 ( 31692 PWs)   bands (ev):

   -66.7868 -66.7459 -66.7443 -66.6837 -66.6689 -66.6638 -66.6367 -66.6029
   -66.5529 -62.4210 -62.4099 -62.3739 -62.3650 -62.3584 -62.3529 -62.3416
   -62.3397 -62.2870 -35.5461 -35.5240 -35.5175 -35.5079 -35.4988 -35.4959
   -35.4948 -35.4683 -35.4624 -35.4436 -35.4261 -35.4256 -35.4231 -35.4206
   -35.4124 -35.4115 -35.3982 -35.3925 -35.3922 -35.3880 -35.3596 -35.3516
   -35.3470 -35.3338 -35.3136 -35.2951 -35.2875 -31.2589 -31.2533 -31.2483
   -31.2335 -31.2273 -31.2266 -31.2177 -31.2051 -31.1982 -31.1958 -31.1947
   -31.1935 -31.1815 -31.1807 -31.1789 -31.1786 -31.1773 -31.1739 -31.1730
   -31.1675 -31.1636 -31.1591 -31.1570 -31.1451 -31.1369 -31.1120 -31.0923
     6.1552   6.2137   7.5330   7.5404   7.5663   7.5814   7.5840   7.6005
     7.6136   7.6393   8.3074   8.3175   8.3290   8.3404   8.3632   8.3746
     8.3797   8.3945   8.4570   8.4658   8.4664   8.4733   8.4960   8.4983
     8.5103   8.5122   8.6924   8.7174   8.7441   8.7986   8.9427   8.9522
     8.9717   8.9723   8.9727   8.9767   8.9793   9.0021   9.0064   9.0268
     9.0277   9.0415   9.0457   9.0663   9.0785   9.0975   9.1888   9.1962
     9.2315   9.2364   9.2386   9.2458   9.2668   9.2779   9.2821   9.2832
     9.2857   9.2925   9.2937   9.2970   9.3074   9.3166   9.4134   9.4153
     9.4205   9.4228   9.4283   9.4303   9.4511   9.4596   9.4677   9.4777
     9.4832   9.4849   9.4880   9.4973   9.5444   9.5479   9.6199   9.7017
     9.7828   9.7887   9.7967   9.8032   9.8045   9.8191   9.8295   9.8468
     9.8708   9.8776   9.8793   9.8831   9.8848   9.8882   9.8907   9.8912
    10.0552  10.0579  10.0626  10.0655  10.1338  10.1471  10.1502  10.1532
    10.1619  10.1927  10.1942  10.1984  10.2030  10.2196  10.3397  10.3642
    10.3826  10.3872  10.3973  10.4003  10.4096  10.4320  10.4539  10.5282
    10.5907  10.5912  10.6047  10.6081  10.6307  10.6396  10.6547  10.6629
    10.6738  10.6953  10.7123  10.7211  10.7610  10.7772  10.8158  10.8793
    10.9209  10.9714  10.9954  11.0059  11.0435  11.0521  11.0583  11.0727
    11.0753  11.0872  11.1055  11.1355  11.1436  11.1609  11.1836  11.1942
    11.2137  11.2368  11.2512  11.2527  11.2555  11.2559  11.2568  11.2670
    11.2678  11.2715  11.2777  11.2841  11.2961  11.3007  11.3009  11.3010
    11.3126  11.3160  11.3245  11.3262  11.5278  11.5992  11.7049  11.7139
    11.7144  11.7160  11.7180  11.7241  11.7270  11.7301  11.7359  11.7623
    11.7641  11.7661  11.7713  11.8070  11.8109  11.8128  11.8458  11.9346
    11.9365  11.9668  11.9691  12.0047  12.0382  12.0436  12.0552  12.0682
    12.1523  12.1539  12.2118  12.2450  12.2518  12.2769  12.3158  12.3812
    12.4106  12.4161  12.4337  12.4404  12.4521  12.4778  12.4894  12.4989
    12.5062  12.5091  12.5302  12.5368  12.5421  12.5626  12.5717  12.6230
    12.6231  12.6763  12.7441  12.7787  12.7809  12.8074  12.8670  12.8709
    12.9587  13.0048  13.0389  13.0987  13.1461  13.1577  13.1754  13.2087
    13.2158  13.2247  13.3051  13.4257  13.4849  13.5156  13.6331  13.7065
    13.9643  13.9716  13.9755  14.0744  14.1192  14.1401  14.2823  14.3105
    14.5728  14.8966  14.9131  14.9357  14.9579  15.0348  15.0964  15.1093
    15.1659  15.1692  15.2250  15.2531  15.3340  15.3543  15.3664  15.5373
    15.6171  15.6873  15.7165  15.7462  15.8132  15.9067  15.9166  16.0553
    16.0847  16.0900  16.1150  16.1366  16.1656  16.1839  16.1967  16.2025
    16.2121  16.2261  16.2415  16.2699  16.2725  16.2922  16.2987  16.3366
    16.3582  16.4587  16.4774  16.5279  16.6651  16.7134  16.7394  16.7584
    16.8824  16.8891  17.2164  17.2972  17.3391  17.3929  17.5176  17.5616
    17.5636  17.5843  17.6422  17.6761  17.7317  17.7380  17.8414  17.8719
    17.9156  17.9720  18.1036  18.1986  18.2135  18.2621  18.3102  18.3571

          k = 0.0000-0.5000 0.0000 ( 31722 PWs)   bands (ev):

   -66.7868 -66.7459 -66.7443 -66.6837 -66.6689 -66.6638 -66.6367 -66.6029
   -66.5529 -62.4210 -62.4099 -62.3739 -62.3650 -62.3584 -62.3529 -62.3416
   -62.3397 -62.2870 -35.5461 -35.5240 -35.5175 -35.5079 -35.4988 -35.4959
   -35.4948 -35.4683 -35.4624 -35.4436 -35.4261 -35.4256 -35.4231 -35.4206
   -35.4124 -35.4115 -35.3982 -35.3925 -35.3922 -35.3880 -35.3595 -35.3517
   -35.3470 -35.3338 -35.3136 -35.2951 -35.2875 -31.2591 -31.2536 -31.2477
   -31.2335 -31.2273 -31.2267 -31.2177 -31.2051 -31.1982 -31.1958 -31.1947
   -31.1935 -31.1815 -31.1807 -31.1789 -31.1786 -31.1773 -31.1739 -31.1730
   -31.1675 -31.1636 -31.1591 -31.1570 -31.1451 -31.1369 -31.1120 -31.0923
     6.0268   6.0582   7.4016   7.4406   7.4545   7.4913   7.6706   7.6805
     8.1028   8.1176   8.1434   8.1693   8.1990   8.2345   8.2440   8.2740
     8.3850   8.4295   8.4491   8.4851   8.6129   8.6223   8.6490   8.6515
     8.6721   8.6775   8.6887   8.7044   8.7531   8.8038   8.8163   8.8299
     8.8554   8.8660   8.8712   8.8919   8.9056   8.9098   8.9175   8.9203
     8.9267   8.9292   8.9357   8.9531   9.0426   9.0551   9.1550   9.1751
     9.1941   9.2016   9.2083   9.2294   9.2339   9.2405   9.3125   9.3338
     9.3561   9.3718   9.3773   9.4137   9.4732   9.4749   9.4892   9.5082
     9.5278   9.5376   9.5602   9.5737   9.5779   9.5950   9.6091   9.6152
     9.6176   9.6218   9.6289   9.6361   9.6365   9.6390   9.6415   9.6459
     9.6532   9.6645   9.6707   9.6799   9.6987   9.7080   9.7171   9.7354
     9.7498   9.7538   9.7563   9.7744   9.8961   9.9020   9.9153   9.9849
    10.0070  10.0435  10.1525  10.1936  10.2092  10.2247  10.2490  10.2536
    10.2668  10.2704  10.2729  10.2746  10.2840  10.2852  10.3317  10.3554
    10.3598  10.3785  10.3838  10.3935  10.4215  10.4407  10.4511  10.4822
    10.4871  10.5095  10.5267  10.5459  10.5554  10.5774  10.5861  10.5884
    10.5980  10.6577  10.6727  10.6915  10.7089  10.7230  10.7545  10.7663
    10.8007  10.8170  10.8302  10.8487  10.8539  10.8746  10.8907  10.9317
    10.9575  10.9976  11.0213  11.0333  11.0443  11.0949  11.1650  11.1829
    11.2940  11.3451  11.3491  11.3667  11.3713  11.3823  11.4040  11.4066
    11.4179  11.4455  11.4629  11.4844  11.4909  11.5310  11.5366  11.5558
    11.5712  11.6040  11.6106  11.6187  11.6337  11.6474  11.6938  11.7452
    11.7509  11.7713  11.7886  11.7938  11.8157  11.8324  11.8479  11.8634
    11.8653  11.8910  11.9067  11.9165  11.9401  11.9569  11.9599  11.9709
    11.9757  11.9799  11.9828  12.0137  12.0942  12.1411  12.1469  12.1581
    12.1881  12.1923  12.2006  12.2336  12.2399  12.2482  12.2672  12.2753
    12.2797  12.2905  12.3469  12.3477  12.3606  12.3952  12.4016  12.4198
    12.4345  12.4463  12.4563  12.4616  12.4799  12.4951  12.5543  12.5720
    12.5888  12.5934  12.6054  12.6353  12.6442  12.6802  12.7020  12.7967
    12.8843  12.9453  12.9718  13.0073  13.0443  13.0685  13.1036  13.1302
    13.1376  13.1994  13.2198  13.2247  13.2752  13.2805  13.3147  13.3296
    13.4424  13.4645  13.5127  13.6699  13.6775  14.3218  14.4528  14.5461
    14.6319  14.7403  14.8221  14.8323  14.8475  14.8999  14.9412  14.9658
    14.9979  15.1522  15.2176  15.3214  15.3233  15.4412  15.5075  15.5213
    15.6529  15.7144  15.7681  15.8112  15.8448  15.8645  15.8954  15.9593
    16.0179  16.0357  16.0508  16.1063  16.1214  16.1274  16.1599  16.1793
    16.2024  16.2169  16.2203  16.2710  16.2949  16.3024  16.3786  16.3911
    16.3958  16.5065  16.5532  16.6414  16.6935  16.8126  17.0178  17.0631
    17.1639  17.2159  17.2348  17.3324  17.3788  17.5036  17.6070  17.6304
    17.6620  17.7363  17.8003  17.8269  17.8427  17.8553  17.9497  17.9516
    18.0113  18.0693  18.1539  18.2255  19.2525  19.3159  19.3164  19.3412

          k = 0.0000-0.5000-0.5734 ( 31696 PWs)   bands (ev):

   -66.7868 -66.7459 -66.7443 -66.6837 -66.6689 -66.6638 -66.6367 -66.6029
   -66.5529 -62.4210 -62.4099 -62.3739 -62.3650 -62.3584 -62.3529 -62.3416
   -62.3397 -62.2870 -35.5461 -35.5240 -35.5175 -35.5079 -35.4988 -35.4959
   -35.4948 -35.4683 -35.4624 -35.4436 -35.4261 -35.4256 -35.4231 -35.4206
   -35.4124 -35.4115 -35.3982 -35.3925 -35.3922 -35.3880 -35.3595 -35.3517
   -35.3470 -35.3338 -35.3136 -35.2951 -35.2875 -31.2591 -31.2536 -31.2477
   -31.2335 -31.2273 -31.2267 -31.2177 -31.2051 -31.1982 -31.1958 -31.1947
   -31.1935 -31.1815 -31.1807 -31.1789 -31.1786 -31.1773 -31.1739 -31.1730
   -31.1675 -31.1636 -31.1591 -31.1570 -31.1451 -31.1369 -31.1120 -31.0923
     6.5187   6.5782   6.5937   6.6442   7.8328   7.8433   7.8567   7.8722
     7.9103   7.9222   7.9321   7.9461   8.2666   8.2779   8.2977   8.3041
     8.5097   8.5227   8.5352   8.5373   8.6571   8.6742   8.6798   8.6866
     8.6883   8.6905   8.7013   8.7113   8.7186   8.7396   8.7423   8.7498
     8.7534   8.7734   8.7813   8.8166   8.9430   9.0047   9.0075   9.0313
     9.0386   9.0517   9.0553   9.0694   9.1744   9.2029   9.2126   9.2154
     9.2218   9.2224   9.2294   9.2330   9.2452   9.2458   9.2507   9.2519
     9.2650   9.2725   9.2815   9.2857   9.2956   9.3578   9.3809   9.4043
     9.4072   9.4224   9.4516   9.4588   9.4624   9.4672   9.4675   9.4789
     9.4823   9.4969   9.5124   9.5232   9.5240   9.5506   9.5538   9.5577
     9.5674   9.6117   9.7525   9.7587   9.7879   9.7931   9.8083   9.8150
     9.8343   9.8351   9.8522   9.8530   9.8570   9.8613   9.8635   9.8854
     9.9467   9.9632   9.9974  10.0026  10.0330  10.0407  10.0558  10.0628
    10.3555  10.3770  10.3879  10.3917  10.4040  10.4173  10.4296  10.4314
    10.4649  10.4769  10.4783  10.4796  10.4823  10.4906  10.4961  10.5125
    10.5397  10.5581  10.5636  10.5794  10.5913  10.5955  10.6175  10.6256
    10.6650  10.6659  10.6745  10.6763  10.6766  10.6845  10.7118  10.7185
    10.7385  10.8210  10.8484  10.8711  10.9727  10.9907  11.0253  11.0813
    11.1138  11.1300  11.1364  11.1554  11.1809  11.1860  11.1913  11.2028
    11.2098  11.2128  11.2784  11.3383  11.3436  11.3448  11.3621  11.3739
    11.3783  11.3919  11.4098  11.4141  11.4437  11.4798  11.4881  11.5151
    11.5187  11.5542  11.5665  11.5686  11.5759  11.5780  11.6085  11.6143
    11.6382  11.6414  11.7151  11.7202  11.7535  11.7605  11.7949  11.8393
    11.8841  11.9114  11.9133  11.9471  11.9631  11.9683  12.0025  12.0032
    12.0149  12.0208  12.0290  12.0349  12.0378  12.0419  12.1099  12.1189
    12.1596  12.1721  12.1985  12.2200  12.2548  12.2959  12.2966  12.3516
    12.3619  12.3685  12.3868  12.4007  12.4416  12.4500  12.4567  12.4902
    12.5010  12.5082  12.5129  12.5129  12.5202  12.5526  12.5803  12.5809
    12.6358  12.6381  12.6444  12.6555  12.7069  12.7081  12.7611  12.7939
    12.8439  12.8499  12.9384  12.9438  12.9821  12.9975  13.0261  13.0393
    13.1889  13.2565  13.4129  13.5199  13.5313  13.6697  13.7096  13.7526
    13.9027  14.0164  14.0191  14.0947  14.1056  14.1438  14.2183  14.3103
    14.3352  14.5391  14.5675  14.5795  14.5825  14.7052  14.7570  15.0149
    15.0794  15.2715  15.3014  15.3357  15.3642  15.4494  15.5239  15.5572
    15.6283  15.6648  15.7608  15.7693  15.8636  15.8696  15.9218  16.0144
    16.0568  16.1018  16.1071  16.1582  16.1636  16.1773  16.2213  16.2326
    16.2591  16.2848  16.3047  16.3126  16.3280  16.3639  16.3640  16.4631
    16.5031  16.5649  16.5666  16.5943  16.6303  16.6459  16.6951  16.7006
    16.7630  16.7689  16.8159  16.8714  16.8782  16.8995  16.9872  16.9874
    17.0818  17.1540  17.1553  17.2203  18.6000  18.6935  18.7112  18.7373
    18.7467  18.7783  18.7896  18.8488  18.8928  18.9088  18.9532  19.0051

          k =-0.5000-0.5000 0.0000 ( 31612 PWs)   bands (ev):

   -66.7868 -66.7459 -66.7443 -66.6837 -66.6689 -66.6638 -66.6367 -66.6029
   -66.5529 -62.4210 -62.4099 -62.3739 -62.3650 -62.3584 -62.3529 -62.3416
   -62.3397 -62.2870 -35.5461 -35.5240 -35.5175 -35.5079 -35.4988 -35.4959
   -35.4948 -35.4683 -35.4624 -35.4436 -35.4261 -35.4256 -35.4231 -35.4206
   -35.4124 -35.4115 -35.3982 -35.3925 -35.3922 -35.3880 -35.3595 -35.3517
   -35.3470 -35.3338 -35.3136 -35.2951 -35.2875 -31.2591 -31.2536 -31.2477
   -31.2335 -31.2273 -31.2267 -31.2177 -31.2051 -31.1982 -31.1958 -31.1947
   -31.1935 -31.1815 -31.1807 -31.1789 -31.1786 -31.1771 -31.1736 -31.1730
   -31.1679 -31.1636 -31.1591 -31.1570 -31.1451 -31.1369 -31.1120 -31.0923
     6.4140   6.4329   6.4380   6.4750   8.0082   8.0154   8.0208   8.0225
     8.0885   8.1230   8.2959   8.3217   8.3270   8.3334   8.3402   8.3460
     8.3507   8.3534   8.3539   8.3595   8.3649   8.3861   8.5679   8.5993
     8.6492   8.6652   8.6767   8.6959   8.7151   8.7235   8.7350   8.7439
     8.7493   8.7962   8.9163   8.9202   8.9746   8.9750   8.9773   8.9780
     8.9833   8.9906   8.9937   9.0024   9.0038   9.0335   9.0410   9.0470
     9.1100   9.1345   9.3059   9.3126   9.3167   9.3227   9.4012   9.4086
     9.4154   9.4172   9.4197   9.4262   9.4274   9.4317   9.4471   9.4557
     9.4613   9.4756   9.4756   9.4810   9.4839   9.4853   9.4926   9.5047
     9.5161   9.5191   9.5298   9.5398   9.5424   9.5675   9.5752   9.5958
     9.5983   9.6100   9.6971   9.6995   9.7684   9.8174   9.8247   9.8253
     9.8317   9.8333   9.8347   9.8394   9.8443   9.8676  10.0443  10.0618
    10.0736  10.1046  10.1115  10.1284  10.1382  10.1404  10.1562  10.1729
    10.1788  10.1922  10.2021  10.2040  10.2153  10.2201  10.2261  10.2284
    10.2317  10.2370  10.2486  10.2532  10.4560  10.4700  10.4881  10.4919
    10.4958  10.4995  10.5043  10.5366  10.6296  10.6368  10.6398  10.6480
    10.6636  10.6684  10.6723  10.6768  10.6907  10.6925  10.6948  10.7036
    10.7140  10.7327  10.7894  10.8113  10.8297  10.8419  10.8630  10.8802
    10.9232  10.9361  11.1966  11.2092  11.2126  11.2227  11.3071  11.3119
    11.3365  11.3409  11.3474  11.3586  11.3970  11.3994  11.5437  11.5516
    11.5866  11.6240  11.6339  11.6402  11.6405  11.6431  11.6464  11.6485
    11.6521  11.6524  11.6957  11.7223  11.7346  11.7527  11.7603  11.8520
    11.8726  11.8763  11.8783  11.8802  11.8832  11.8883  11.9896  12.0136
    12.0211  12.0262  12.0766  12.0898  12.0911  12.1054  12.1091  12.1099
    12.1109  12.1141  12.1152  12.1193  12.1378  12.1506  12.1705  12.1794
    12.1871  12.1872  12.2021  12.2060  12.2192  12.2240  12.2333  12.2442
    12.2542  12.2632  12.2775  12.2832  12.2850  12.2930  12.3024  12.3214
    12.3769  12.4282  12.4402  12.4466  12.4695  12.4770  12.4843  12.4943
    12.5113  12.5355  12.5727  12.5812  12.5989  12.6187  12.6377  12.6825
    12.7139  12.7457  12.7981  12.8813  12.8877  12.9144  12.9539  12.9557
    12.9617  12.9636  12.9885  13.0278  13.0724  13.5526  13.6722  13.6743
    13.7217  13.7974  13.8133  13.8276  13.8826  13.9298  14.0340  14.0970
    14.1821  14.2777  14.2954  14.3432  14.5236  14.6606  14.8652  14.8898
    15.0977  15.1947  15.1980  15.2949  15.3743  15.5125  15.5669  15.7352
    15.7949  15.7974  15.8465  15.8706  15.8860  15.8889  15.9175  15.9371
    15.9446  15.9563  15.9925  16.0071  16.0901  16.1271  16.1329  16.1627
    16.1886  16.2542  16.3159  16.3549  16.3601  16.3868  16.4006  16.4133
    16.4657  16.4691  16.5003  16.6645  16.6839  16.7086  16.7252  16.7499
    16.7844  16.8225  16.9192  16.9723  17.3836  17.3922  17.6338  18.0222
    18.1458  18.1981  18.2044  18.2372  18.2802  18.4480  18.4686  18.5370
    18.5926  18.6202  18.6559  18.6724  18.7710  18.7860  18.7938  18.8028

          k =-0.5000-0.5000-0.5734 ( 31672 PWs)   bands (ev):

   -66.7868 -66.7459 -66.7443 -66.6837 -66.6689 -66.6638 -66.6367 -66.6029
   -66.5529 -62.4210 -62.4099 -62.3739 -62.3650 -62.3584 -62.3529 -62.3416
   -62.3397 -62.2870 -35.5461 -35.5240 -35.5175 -35.5079 -35.4988 -35.4959
   -35.4948 -35.4683 -35.4624 -35.4436 -35.4261 -35.4256 -35.4231 -35.4206
   -35.4124 -35.4115 -35.3982 -35.3925 -35.3922 -35.3880 -35.3595 -35.3517
   -35.3470 -35.3338 -35.3136 -35.2951 -35.2875 -31.2591 -31.2536 -31.2477
   -31.2335 -31.2273 -31.2267 -31.2177 -31.2051 -31.1982 -31.1958 -31.1947
   -31.1935 -31.1815 -31.1807 -31.1789 -31.1786 -31.1771 -31.1736 -31.1730
   -31.1679 -31.1636 -31.1591 -31.1570 -31.1451 -31.1369 -31.1120 -31.0923
     6.8808   6.9143   6.9231   6.9467   6.9973   7.0156   7.0262   7.0473
     8.4446   8.4669   8.4704   8.4814   8.4872   8.4918   8.4924   8.4953
     8.4982   8.5008   8.5129   8.5158   8.5372   8.5415   8.5440   8.5707
     8.5740   8.5780   8.5834   8.6214   8.8743   8.8745   8.8895   8.8920
     8.8975   8.9198   8.9367   8.9412   9.0823   9.1025   9.1162   9.1227
     9.1242   9.1418   9.1465   9.1490   9.1543   9.1563   9.1599   9.1629
     9.1660   9.1678   9.1707   9.1725   9.1727   9.1748   9.1766   9.1793
     9.1796   9.1821   9.1943   9.1992   9.2005   9.2054   9.2096   9.2136
     9.2267   9.2320   9.2430   9.2450   9.2573   9.2611   9.2650   9.2831
     9.5452   9.5490   9.5578   9.5703   9.5768   9.5959   9.6035   9.6263
     9.6420   9.6637   9.6752   9.6754   9.7297   9.7400   9.7529   9.7869
     9.8131   9.8259   9.8424   9.8567   9.8797   9.8840   9.8909   9.8972
    10.1132  10.1207  10.1493  10.1539  10.1650  10.1720  10.1901  10.1984
    10.2834  10.3221  10.4368  10.4577  10.4588  10.4679  10.4804  10.4814
    10.4864  10.4868  10.4939  10.4994  10.5031  10.5113  10.5130  10.5191
    10.5232  10.5246  10.5414  10.5461  10.5695  10.5701  10.5863  10.6011
    10.6014  10.6265  10.6383  10.6384  10.6521  10.6550  10.6660  10.6843
    10.6864  10.6878  10.6989  10.7107  10.7145  10.7278  11.0189  11.0418
    11.0709  11.0792  11.0802  11.0858  11.1272  11.1431  11.3788  11.3871
    11.3904  11.3994  11.4020  11.4326  11.4383  11.4439  11.4553  11.4792
    11.4794  11.4903  11.5009  11.5041  11.5167  11.5449  11.6057  11.6210
    11.6410  11.6478  11.6525  11.6683  11.6732  11.6953  11.6971  11.7180
    11.7213  11.7273  11.7341  11.7605  11.7647  11.7670  11.7789  11.7832
    11.8027  11.8082  11.8183  11.8329  11.8366  11.9420  11.9637  12.0013
    12.0176  12.0261  12.0884  12.1035  12.1205  12.1304  12.1366  12.1482
    12.1584  12.2036  12.2084  12.2205  12.2391  12.2480  12.2703  12.3190
    12.3566  12.3735  12.4050  12.4266  12.4354  12.4464  12.4470  12.4504
    12.4777  12.4974  12.5073  12.5330  12.5435  12.5534  12.5871  12.6231
    12.6446  12.6714  12.6739  12.6779  12.7012  12.7622  12.7905  12.8041
    12.9120  12.9506  12.9649  12.9729  13.0555  13.1273  13.1501  13.1865
    13.2476  13.2747  13.2918  13.3316  13.3591  13.4959  13.4985  13.5031
    13.5162  13.6036  13.7629  13.7882  13.9128  14.0538  14.0836  14.1607
    14.1872  14.2087  14.4152  14.5531  14.6915  14.7528  14.8626  14.9606
    14.9733  15.3058  15.3160  15.3649  15.4302  15.6223  15.6507  15.6556
    15.7036  15.7217  15.7607  15.8391  15.8619  15.8679  15.9103  15.9480
    15.9618  15.9918  16.0842  16.1183  16.1389  16.1543  16.1622  16.2115
    16.2179  16.2507  16.2812  16.3594  16.4129  16.4418  16.4599  16.4897
    16.5219  16.5463  16.5776  16.6099  16.6471  16.6828  16.6893  16.7305
    16.7400  16.8207  16.8472  16.8875  16.9045  16.9486  16.9934  17.0238
    17.0880  17.1183  17.5901  17.7491  17.9081  17.9585  18.9988  19.0090
    19.0201  19.0633  19.0678  19.1067  19.1732  19.2039  19.2706  19.2860

          k =-0.5000 0.0000 0.0000 ( 31722 PWs)   bands (ev):

   -66.7868 -66.7459 -66.7443 -66.6837 -66.6689 -66.6638 -66.6367 -66.6029
   -66.5529 -62.4210 -62.4099 -62.3739 -62.3650 -62.3584 -62.3529 -62.3416
   -62.3397 -62.2870 -35.5461 -35.5240 -35.5175 -35.5079 -35.4988 -35.4959
   -35.4948 -35.4683 -35.4624 -35.4436 -35.4261 -35.4256 -35.4231 -35.4206
   -35.4124 -35.4115 -35.3982 -35.3925 -35.3922 -35.3880 -35.3596 -35.3516
   -35.3470 -35.3338 -35.3136 -35.2951 -35.2875 -31.2589 -31.2533 -31.2483
   -31.2336 -31.2273 -31.2266 -31.2177 -31.2051 -31.1982 -31.1958 -31.1947
   -31.1935 -31.1815 -31.1807 -31.1789 -31.1786 -31.1771 -31.1736 -31.1730
   -31.1679 -31.1636 -31.1591 -31.1570 -31.1451 -31.1369 -31.1120 -31.0923
     6.0277   6.0576   7.4070   7.4319   7.4473   7.5006   7.6718   7.6799
     8.1018   8.1158   8.1424   8.1742   8.1934   8.2343   8.2524   8.2753
     8.3929   8.4113   8.4481   8.4947   8.6110   8.6289   8.6393   8.6512
     8.6685   8.6794   8.6842   8.7146   8.7554   8.8033   8.8242   8.8380
     8.8529   8.8643   8.8697   8.8774   8.9025   8.9064   8.9150   8.9190
     8.9269   8.9344   8.9377   8.9576   9.0460   9.0527   9.1561   9.1707
     9.1826   9.2035   9.2127   9.2235   9.2403   9.2441   9.3144   9.3340
     9.3449   9.3667   9.3865   9.4192   9.4708   9.4772   9.4875   9.4989
     9.5317   9.5355   9.5579   9.5732   9.5847   9.6051   9.6120   9.6158
     9.6191   9.6218   9.6268   9.6309   9.6318   9.6371   9.6466   9.6475
     9.6558   9.6599   9.6710   9.6792   9.7051   9.7114   9.7116   9.7355
     9.7365   9.7416   9.7714   9.7796   9.8927   9.9051   9.9150   9.9823
    10.0173  10.0332  10.1498  10.1972  10.2097  10.2243  10.2486  10.2550
    10.2676  10.2684  10.2694  10.2721  10.2861  10.2901  10.3357  10.3516
    10.3690  10.3784  10.3841  10.3914  10.4208  10.4412  10.4554  10.4771
    10.4945  10.5124  10.5260  10.5289  10.5579  10.5687  10.5785  10.5960
    10.6042  10.6514  10.6857  10.6882  10.7178  10.7362  10.7458  10.7623
    10.8069  10.8240  10.8269  10.8494  10.8531  10.8722  10.8849  10.9330
    10.9519  11.0069  11.0144  11.0196  11.0481  11.0944  11.1673  11.1880
    11.2840  11.3456  11.3494  11.3594  11.3745  11.3915  11.4059  11.4079
    11.4218  11.4570  11.4636  11.4724  11.4903  11.5174  11.5494  11.5502
    11.5688  11.5903  11.6029  11.6301  11.6422  11.6678  11.6883  11.7351
    11.7416  11.7662  11.7848  11.8064  11.8189  11.8470  11.8517  11.8697
    11.8755  11.8828  11.9097  11.9282  11.9343  11.9525  11.9552  11.9633
    11.9782  11.9788  11.9905  12.0120  12.0767  12.1144  12.1564  12.1697
    12.1936  12.1994  12.2126  12.2307  12.2413  12.2477  12.2651  12.2770
    12.2872  12.2914  12.3016  12.3409  12.3419  12.3910  12.4009  12.4165
    12.4363  12.4604  12.4624  12.4836  12.4922  12.5103  12.5225  12.5596
    12.5888  12.6050  12.6155  12.6159  12.6393  12.7115  12.7447  12.7612
    12.8297  12.9301  12.9777  13.0101  13.0536  13.0594  13.1374  13.1547
    13.1600  13.1890  13.2036  13.2292  13.2488  13.2859  13.3182  13.3362
    13.4530  13.4618  13.4969  13.6667  13.6732  14.3140  14.5349  14.5840
    14.6579  14.7333  14.7718  14.7737  14.8289  14.8833  14.9185  14.9586
    15.0439  15.0744  15.1588  15.3052  15.4303  15.4623  15.5458  15.5644
    15.6888  15.7156  15.7503  15.7734  15.8365  15.8644  15.9240  16.0011
    16.0348  16.0437  16.0603  16.0699  16.0916  16.1350  16.1675  16.1833
    16.1897  16.2123  16.2204  16.2342  16.2391  16.2479  16.3691  16.4266
    16.4573  16.4838  16.5321  16.6578  16.7190  16.8346  16.9637  17.0470
    17.1579  17.2062  17.2441  17.3202  17.4388  17.5267  17.6130  17.6257
    17.7090  17.7764  17.7876  17.8041  17.8160  17.8303  17.9304  17.9527
    18.0215  18.0366  18.1580  18.2455  19.2413  19.3201  19.3242  19.3400

          k =-0.5000 0.0000 0.5734 ( 31696 PWs)   bands (ev):

   -66.7868 -66.7459 -66.7443 -66.6837 -66.6689 -66.6638 -66.6367 -66.6029
   -66.5529 -62.4210 -62.4099 -62.3739 -62.3650 -62.3584 -62.3529 -62.3416
   -62.3397 -62.2870 -35.5461 -35.5240 -35.5175 -35.5079 -35.4988 -35.4959
   -35.4948 -35.4683 -35.4624 -35.4436 -35.4261 -35.4256 -35.4231 -35.4206
   -35.4124 -35.4115 -35.3982 -35.3925 -35.3922 -35.3880 -35.3596 -35.3516
   -35.3470 -35.3338 -35.3136 -35.2951 -35.2875 -31.2589 -31.2533 -31.2483
   -31.2336 -31.2273 -31.2266 -31.2177 -31.2051 -31.1982 -31.1958 -31.1947
   -31.1935 -31.1815 -31.1807 -31.1789 -31.1786 -31.1771 -31.1736 -31.1730
   -31.1679 -31.1636 -31.1591 -31.1570 -31.1451 -31.1369 -31.1120 -31.0923
     6.5233   6.5831   6.5885   6.6391   7.8311   7.8522   7.8606   7.8694
     7.9093   7.9194   7.9299   7.9438   8.2663   8.2800   8.2984   8.3029
     8.5103   8.5244   8.5342   8.5359   8.6531   8.6749   8.6754   8.6843
     8.6908   8.6974   8.6997   8.7112   8.7163   8.7367   8.7371   8.7511
     8.7579   8.7785   8.7813   8.8175   8.9470   9.0039   9.0051   9.0339
     9.0366   9.0506   9.0542   9.0686   9.1866   9.2015   9.2122   9.2164
     9.2217   9.2217   9.2329   9.2341   9.2426   9.2431   9.2536   9.2555
     9.2617   9.2783   9.2807   9.2860   9.2898   9.3449   9.3806   9.4022
     9.4082   9.4220   9.4511   9.4575   9.4649   9.4662   9.4679   9.4788
     9.4881   9.5040   9.5094   9.5158   9.5275   9.5457   9.5544   9.5555
     9.5668   9.6071   9.7528   9.7585   9.7881   9.7925   9.8082   9.8150
     9.8302   9.8391   9.8478   9.8562   9.8589   9.8603   9.8721   9.8881
     9.9436   9.9677   9.9864  10.0013  10.0298  10.0460  10.0545  10.0686
    10.3649  10.3826  10.3992  10.3997  10.4111  10.4207  10.4263  10.4321
    10.4473  10.4720  10.4819  10.4831  10.4852  10.4893  10.4964  10.5038
    10.5308  10.5401  10.5730  10.5751  10.5831  10.5898  10.6226  10.6384
    10.6598  10.6611  10.6711  10.6720  10.6749  10.6906  10.7181  10.7211
    10.7405  10.8210  10.8497  10.8785  10.9676  10.9889  11.0330  11.0906
    11.1127  11.1286  11.1304  11.1531  11.1848  11.1908  11.1916  11.2025
    11.2103  11.2126  11.2837  11.3165  11.3317  11.3419  11.3631  11.3721
    11.3775  11.3998  11.4071  11.4229  11.4423  11.4777  11.4858  11.5160
    11.5258  11.5544  11.5718  11.5778  11.5803  11.5883  11.6006  11.6220
    11.6280  11.6316  11.7159  11.7264  11.7502  11.7607  11.8005  11.8389
    11.8829  11.9112  11.9292  11.9408  11.9503  11.9603  11.9995  12.0034
    12.0130  12.0277  12.0328  12.0365  12.0407  12.0439  12.0997  12.1132
    12.1544  12.1721  12.1883  12.2341  12.2499  12.2912  12.3030  12.3325
    12.3534  12.3618  12.3956  12.4015  12.4359  12.4512  12.4591  12.4632
    12.4894  12.5031  12.5269  12.5399  12.5585  12.5901  12.5922  12.6078
    12.6153  12.6379  12.6526  12.6555  12.6674  12.6888  12.8044  12.8114
    12.8338  12.8474  12.8937  12.9360  13.0147  13.0193  13.0216  13.0262
    13.2000  13.2086  13.3927  13.4414  13.5206  13.6260  13.7528  13.7637
    13.9517  13.9609  14.0326  14.1092  14.1556  14.2117  14.2549  14.3279
    14.4644  14.4733  14.5413  14.5695  14.6106  14.6124  14.6878  15.0209
    15.1009  15.1907  15.2838  15.3734  15.3854  15.4280  15.5396  15.5599
    15.6273  15.6811  15.7049  15.7522  15.7681  15.9677  16.0177  16.0571
    16.0771  16.0939  16.1345  16.1476  16.1702  16.1818  16.1879  16.2190
    16.2619  16.2695  16.2846  16.3130  16.3312  16.3778  16.4018  16.4867
    16.4873  16.5239  16.5417  16.5519  16.5805  16.6439  16.6967  16.7057
    16.7316  16.7824  16.8321  16.8615  16.8950  16.9765  16.9875  17.0146
    17.1009  17.1280  17.1408  17.2036  18.6032  18.6920  18.7035  18.7349
    18.7614  18.7804  18.8209  18.8485  18.8802  18.9027  18.9434  18.9688

 ------ SPIN DOWN ----------


          k = 0.0000 0.0000 0.0000 ( 31747 PWs)   bands (ev):

   -66.7870 -66.7458 -66.7443 -66.6837 -66.6689 -66.6640 -66.6367 -66.6028
   -66.5526 -62.4209 -62.4099 -62.3741 -62.3650 -62.3583 -62.3529 -62.3415
   -62.3397 -62.2871 -35.5462 -35.5241 -35.5176 -35.5079 -35.4988 -35.4959
   -35.4949 -35.4683 -35.4625 -35.4436 -35.4261 -35.4256 -35.4230 -35.4208
   -35.4124 -35.4117 -35.3982 -35.3925 -35.3925 -35.3879 -35.3596 -35.3517
   -35.3470 -35.3338 -35.3134 -35.2949 -35.2872 -31.2588 -31.2532 -31.2483
   -31.2335 -31.2273 -31.2268 -31.2177 -31.2051 -31.1982 -31.1958 -31.1949
   -31.1935 -31.1814 -31.1806 -31.1788 -31.1786 -31.1773 -31.1738 -31.1732
   -31.1675 -31.1635 -31.1590 -31.1569 -31.1451 -31.1370 -31.1121 -31.0924
     5.6148   7.1545   7.1563   7.1979   7.2010   7.3643   7.8573   7.8869
     7.9157   7.9394   8.0867   8.1003   8.1408   8.1605   8.1906   8.2467
     8.2520   8.3032   8.3064   8.5183   8.5565   8.5600   8.5689   8.5949
     8.5994   8.8542   8.8599   8.8602   8.8816   8.8918   8.8946   8.8987
     8.9019   8.9041   8.9104   8.9229   8.9345   8.9604   8.9638   8.9729
     8.9831   9.0837   9.1200   9.1213   9.1283   9.1357   9.1549   9.1571
     9.1863   9.1972   9.2083   9.2655   9.2859   9.2964   9.3085   9.3586
     9.3625   9.3667   9.3699   9.3731   9.3755   9.3821   9.3933   9.4311
     9.4396   9.4459   9.4493   9.4535   9.4670   9.4705   9.4850   9.5788
     9.5814   9.5885   9.5898   9.5935   9.6015   9.6665   9.6687   9.6734
     9.6760   9.6767   9.6853   9.7392   9.7623   9.7709   9.8005   9.8496
     9.8503   9.9078   9.9092   9.9488   9.9517   9.9531  10.0075  10.0291
    10.1135  10.1307  10.1395  10.1504  10.2895  10.2917  10.2958  10.2999
    10.3026  10.3032  10.3065  10.3085  10.3091  10.3277  10.3428  10.3443
    10.3449  10.3462  10.3516  10.3560  10.3595  10.3685  10.3828  10.3837
    10.4005  10.5100  10.5198  10.5774  10.5978  10.6302  10.6382  10.6537
    10.6750  10.7848  10.7868  10.8132  10.8163  10.8191  10.8275  10.8416
    10.8448  10.8534  10.8578  10.8724  10.8739  10.8784  10.8854  10.8906
    10.9021  10.9221  11.0180  11.0216  11.0903  11.0922  11.2119  11.2221
    11.2238  11.2253  11.2758  11.2844  11.3001  11.3281  11.3538  11.3544
    11.3567  11.3739  11.3817  11.3835  11.3923  11.3941  11.4031  11.4103
    11.4160  11.4460  11.5504  11.5893  11.5917  11.5954  11.5979  11.6010
    11.6300  11.6785  11.7010  11.7021  11.7267  11.7300  11.7445  11.7482
    11.8325  11.8355  11.8462  11.8649  11.8705  11.9157  11.9271  11.9501
    11.9601  12.0150  12.0891  12.0993  12.1014  12.1015  12.1059  12.1426
    12.1448  12.1470  12.1482  12.1634  12.1692  12.1713  12.1846  12.2191
    12.2368  12.2439  12.3117  12.3197  12.3443  12.3692  12.3816  12.4079
    12.4311  12.4340  12.4393  12.4788  12.4910  12.4958  12.5039  12.5058
    12.5237  12.5253  12.5366  12.5572  12.5724  12.6168  12.6291  12.7008
    12.7104  12.7471  12.7487  12.7593  12.9767  13.0000  13.0631  13.0784
    13.1310  13.1368  13.1774  13.1925  13.3375  13.7692  13.7822  13.7883
    13.8218  13.9410  13.9600  14.2459  14.2776  14.3158  14.3380  14.5089
    14.8017  14.8626  14.9345  14.9887  15.0021  15.1157  15.1634  15.2472
    15.2771  15.3537  15.3549  15.3719  15.4778  15.4938  15.5207  15.5803
    15.6264  15.6466  15.6801  15.7886  15.8371  15.8445  15.9510  15.9800
    16.0446  16.0779  16.0915  16.1042  16.1292  16.1547  16.1840  16.1870
    16.2196  16.2600  16.2973  16.2996  16.3201  16.3532  16.3641  16.3806
    16.4302  16.5370  16.5576  16.6165  16.6552  16.6562  16.7271  16.8571
    16.9955  17.0308  17.1736  17.1986  17.2042  17.2299  17.2376  17.2550
    17.4969  17.5242  17.8665  17.9171  17.9244  17.9313  17.9671  18.1146
    18.2285  18.2792  18.3606  18.9753  19.0043  19.0318  19.1783  19.2103

          k = 0.0000 0.0000-0.5734 ( 31692 PWs)   bands (ev):

   -66.7870 -66.7458 -66.7443 -66.6837 -66.6689 -66.6640 -66.6367 -66.6028
   -66.5526 -62.4209 -62.4099 -62.3741 -62.3650 -62.3583 -62.3529 -62.3415
   -62.3397 -62.2871 -35.5462 -35.5241 -35.5176 -35.5079 -35.4988 -35.4959
   -35.4949 -35.4683 -35.4625 -35.4436 -35.4261 -35.4256 -35.4230 -35.4208
   -35.4124 -35.4117 -35.3982 -35.3925 -35.3925 -35.3879 -35.3596 -35.3517
   -35.3470 -35.3338 -35.3134 -35.2949 -35.2872 -31.2588 -31.2532 -31.2483
   -31.2335 -31.2273 -31.2268 -31.2177 -31.2051 -31.1982 -31.1958 -31.1948
   -31.1935 -31.1814 -31.1806 -31.1788 -31.1786 -31.1773 -31.1738 -31.1732
   -31.1675 -31.1635 -31.1590 -31.1569 -31.1451 -31.1370 -31.1121 -31.0924
     6.1552   6.2136   7.5329   7.5405   7.5662   7.5813   7.5842   7.6005
     7.6136   7.6393   8.3075   8.3174   8.3290   8.3404   8.3632   8.3746
     8.3798   8.3944   8.4570   8.4658   8.4664   8.4733   8.4960   8.4983
     8.5103   8.5121   8.6924   8.7174   8.7441   8.7986   8.9428   8.9521
     8.9717   8.9723   8.9727   8.9767   8.9794   9.0021   9.0064   9.0267
     9.0277   9.0414   9.0457   9.0663   9.0785   9.0975   9.1888   9.1962
     9.2314   9.2365   9.2386   9.2457   9.2668   9.2780   9.2821   9.2833
     9.2857   9.2925   9.2937   9.2969   9.3074   9.3166   9.4134   9.4153
     9.4204   9.4228   9.4283   9.4303   9.4510   9.4596   9.4677   9.4776
     9.4832   9.4849   9.4881   9.4973   9.5444   9.5479   9.6199   9.7017
     9.7828   9.7887   9.7967   9.8032   9.8045   9.8191   9.8295   9.8467
     9.8708   9.8777   9.8792   9.8831   9.8847   9.8883   9.8907   9.8911
    10.0552  10.0579  10.0626  10.0654  10.1339  10.1470  10.1503  10.1532
    10.1619  10.1927  10.1943  10.1984  10.2030  10.2195  10.3397  10.3642
    10.3827  10.3872  10.3974  10.4003  10.4096  10.4320  10.4538  10.5282
    10.5907  10.5912  10.6047  10.6081  10.6307  10.6396  10.6547  10.6629
    10.6738  10.6954  10.7124  10.7210  10.7609  10.7771  10.8158  10.8793
    10.9209  10.9714  10.9954  11.0059  11.0434  11.0521  11.0583  11.0727
    11.0753  11.0872  11.1054  11.1355  11.1436  11.1609  11.1836  11.1941
    11.2137  11.2369  11.2512  11.2526  11.2555  11.2559  11.2568  11.2670
    11.2678  11.2715  11.2777  11.2841  11.2962  11.3006  11.3009  11.3010
    11.3125  11.3160  11.3244  11.3263  11.5278  11.5992  11.7049  11.7139
    11.7143  11.7159  11.7180  11.7241  11.7270  11.7302  11.7359  11.7623
    11.7641  11.7661  11.7713  11.8070  11.8109  11.8128  11.8458  11.9347
    11.9366  11.9668  11.9690  12.0047  12.0382  12.0436  12.0553  12.0682
    12.1523  12.1539  12.2118  12.2450  12.2518  12.2769  12.3158  12.3812
    12.4106  12.4160  12.4337  12.4404  12.4522  12.4778  12.4895  12.4988
    12.5062  12.5090  12.5302  12.5368  12.5421  12.5626  12.5718  12.6230
    12.6232  12.6763  12.7441  12.7787  12.7809  12.8074  12.8670  12.8709
    12.9587  13.0049  13.0389  13.0987  13.1461  13.1577  13.1754  13.2088
    13.2158  13.2247  13.3051  13.4257  13.4848  13.5156  13.6330  13.7065
    13.9643  13.9716  13.9755  14.0744  14.1191  14.1402  14.2823  14.3104
    14.5728  14.8966  14.9131  14.9357  14.9579  15.0348  15.0965  15.1092
    15.1658  15.1692  15.2250  15.2531  15.3340  15.3543  15.3664  15.5372
    15.6171  15.6873  15.7165  15.7462  15.8132  15.9066  15.9166  16.0553
    16.0847  16.0900  16.1150  16.1366  16.1656  16.1839  16.1968  16.2025
    16.2121  16.2261  16.2414  16.2699  16.2725  16.2922  16.2987  16.3366
    16.3582  16.4587  16.4774  16.5279  16.6651  16.7135  16.7394  16.7584
    16.8824  16.8891  17.2164  17.2972  17.3391  17.3929  17.5176  17.5615
    17.5635  17.5843  17.6422  17.6761  17.7317  17.7379  17.8415  17.8719
    17.9156  17.9720  18.1036  18.1986  18.2135  18.2620  18.3102  18.3570

          k = 0.0000-0.5000 0.0000 ( 31722 PWs)   bands (ev):

   -66.7870 -66.7458 -66.7443 -66.6837 -66.6689 -66.6640 -66.6367 -66.6028
   -66.5526 -62.4209 -62.4099 -62.3741 -62.3650 -62.3583 -62.3529 -62.3415
   -62.3397 -62.2871 -35.5462 -35.5241 -35.5176 -35.5079 -35.4987 -35.4959
   -35.4949 -35.4683 -35.4625 -35.4436 -35.4261 -35.4256 -35.4230 -35.4208
   -35.4124 -35.4117 -35.3982 -35.3925 -35.3925 -35.3879 -35.3596 -35.3517
   -35.3470 -35.3338 -35.3134 -35.2949 -35.2872 -31.2588 -31.2532 -31.2483
   -31.2336 -31.2273 -31.2268 -31.2177 -31.2050 -31.1982 -31.1958 -31.1949
   -31.1935 -31.1814 -31.1806 -31.1788 -31.1786 -31.1771 -31.1736 -31.1732
   -31.1679 -31.1635 -31.1590 -31.1569 -31.1451 -31.1370 -31.1121 -31.0924
     6.0277   6.0576   7.4070   7.4319   7.4474   7.5006   7.6718   7.6799
     8.1018   8.1158   8.1424   8.1742   8.1934   8.2343   8.2524   8.2754
     8.3929   8.4113   8.4481   8.4947   8.6110   8.6290   8.6393   8.6513
     8.6685   8.6794   8.6842   8.7146   8.7554   8.8032   8.8242   8.8380
     8.8529   8.8643   8.8698   8.8774   8.9025   8.9065   8.9149   8.9190
     8.9269   8.9344   8.9377   8.9576   9.0460   9.0527   9.1562   9.1707
     9.1826   9.2036   9.2127   9.2235   9.2403   9.2441   9.3144   9.3340
     9.3450   9.3667   9.3865   9.4192   9.4708   9.4772   9.4875   9.4989
     9.5317   9.5355   9.5579   9.5732   9.5848   9.6052   9.6120   9.6158
     9.6191   9.6218   9.6269   9.6309   9.6317   9.6372   9.6466   9.6474
     9.6558   9.6598   9.6709   9.6792   9.7051   9.7114   9.7116   9.7355
     9.7365   9.7416   9.7714   9.7796   9.8927   9.9051   9.9150   9.9823
    10.0173  10.0333  10.1498  10.1972  10.2097  10.2242  10.2486  10.2550
    10.2677  10.2685  10.2694  10.2721  10.2860  10.2901  10.3357  10.3516
    10.3690  10.3784  10.3841  10.3914  10.4208  10.4412  10.4554  10.4772
    10.4945  10.5124  10.5260  10.5289  10.5579  10.5687  10.5785  10.5960
    10.6042  10.6514  10.6857  10.6882  10.7178  10.7362  10.7458  10.7624
    10.8068  10.8240  10.8269  10.8494  10.8530  10.8721  10.8848  10.9330
    10.9519  11.0069  11.0144  11.0196  11.0482  11.0943  11.1673  11.1880
    11.2839  11.3456  11.3494  11.3594  11.3745  11.3914  11.4060  11.4079
    11.4218  11.4570  11.4637  11.4724  11.4903  11.5175  11.5494  11.5502
    11.5688  11.5903  11.6029  11.6300  11.6422  11.6678  11.6883  11.7352
    11.7416  11.7662  11.7847  11.8064  11.8189  11.8470  11.8517  11.8696
    11.8755  11.8829  11.9097  11.9282  11.9343  11.9525  11.9552  11.9633
    11.9782  11.9789  11.9906  12.0120  12.0766  12.1144  12.1565  12.1697
    12.1936  12.1994  12.2125  12.2307  12.2413  12.2477  12.2651  12.2769
    12.2873  12.2914  12.3016  12.3409  12.3419  12.3910  12.4009  12.4165
    12.4363  12.4603  12.4624  12.4836  12.4922  12.5103  12.5225  12.5597
    12.5888  12.6050  12.6156  12.6159  12.6393  12.7116  12.7448  12.7612
    12.8297  12.9301  12.9777  13.0101  13.0536  13.0594  13.1375  13.1547
    13.1600  13.1890  13.2036  13.2291  13.2488  13.2859  13.3182  13.3362
    13.4531  13.4619  13.4969  13.6666  13.6732  14.3140  14.5349  14.5840
    14.6579  14.7333  14.7718  14.7736  14.8290  14.8833  14.9185  14.9586
    15.0439  15.0743  15.1588  15.3052  15.4304  15.4624  15.5458  15.5644
    15.6887  15.7156  15.7503  15.7734  15.8365  15.8643  15.9240  16.0011
    16.0348  16.0437  16.0602  16.0699  16.0916  16.1349  16.1674  16.1833
    16.1898  16.2123  16.2205  16.2342  16.2391  16.2479  16.3691  16.4266
    16.4572  16.4838  16.5321  16.6577  16.7191  16.8346  16.9637  17.0470
    17.1578  17.2063  17.2441  17.3202  17.4388  17.5267  17.6130  17.6257
    17.7090  17.7764  17.7876  17.8041  17.8160  17.8303  17.9304  17.9526
    18.0215  18.0366  18.1580  18.2454  19.2414  19.3200  19.3243  19.3400

          k = 0.0000-0.5000-0.5734 ( 31696 PWs)   bands (ev):

   -66.7870 -66.7458 -66.7443 -66.6837 -66.6689 -66.6640 -66.6367 -66.6028
   -66.5526 -62.4209 -62.4099 -62.3741 -62.3650 -62.3583 -62.3529 -62.3415
   -62.3397 -62.2871 -35.5462 -35.5241 -35.5176 -35.5079 -35.4987 -35.4959
   -35.4949 -35.4683 -35.4625 -35.4436 -35.4261 -35.4256 -35.4230 -35.4208
   -35.4124 -35.4117 -35.3982 -35.3925 -35.3925 -35.3879 -35.3596 -35.3517
   -35.3470 -35.3338 -35.3134 -35.2949 -35.2872 -31.2588 -31.2532 -31.2483
   -31.2336 -31.2273 -31.2268 -31.2177 -31.2050 -31.1982 -31.1958 -31.1948
   -31.1935 -31.1814 -31.1806 -31.1788 -31.1786 -31.1771 -31.1736 -31.1732
   -31.1679 -31.1635 -31.1590 -31.1569 -31.1451 -31.1370 -31.1121 -31.0924
     6.5233   6.5831   6.5885   6.6391   7.8312   7.8520   7.8605   7.8695
     7.9093   7.9193   7.9300   7.9438   8.2663   8.2800   8.2984   8.3029
     8.5102   8.5244   8.5343   8.5358   8.6531   8.6750   8.6753   8.6843
     8.6908   8.6974   8.6997   8.7112   8.7163   8.7366   8.7371   8.7511
     8.7579   8.7785   8.7814   8.8175   8.9470   9.0039   9.0051   9.0339
     9.0367   9.0506   9.0542   9.0686   9.1866   9.2015   9.2122   9.2164
     9.2216   9.2217   9.2330   9.2341   9.2425   9.2431   9.2536   9.2555
     9.2617   9.2782   9.2808   9.2861   9.2897   9.3449   9.3806   9.4021
     9.4082   9.4220   9.4511   9.4575   9.4650   9.4663   9.4679   9.4787
     9.4880   9.5041   9.5095   9.5158   9.5275   9.5457   9.5543   9.5556
     9.5668   9.6071   9.7528   9.7585   9.7881   9.7925   9.8082   9.8149
     9.8302   9.8390   9.8478   9.8563   9.8589   9.8603   9.8721   9.8881
     9.9436   9.9676   9.9864  10.0012  10.0298  10.0460  10.0545  10.0686
    10.3649  10.3826  10.3992  10.3997  10.4111  10.4207  10.4263  10.4321
    10.4472  10.4720  10.4819  10.4831  10.4852  10.4893  10.4964  10.5038
    10.5308  10.5402  10.5730  10.5751  10.5831  10.5898  10.6226  10.6384
    10.6598  10.6611  10.6711  10.6720  10.6748  10.6906  10.7180  10.7212
    10.7405  10.8210  10.8497  10.8785  10.9677  10.9888  11.0330  11.0906
    11.1128  11.1287  11.1304  11.1531  11.1848  11.1908  11.1915  11.2025
    11.2103  11.2126  11.2837  11.3165  11.3317  11.3419  11.3631  11.3721
    11.3775  11.3999  11.4071  11.4230  11.4424  11.4777  11.4858  11.5160
    11.5258  11.5544  11.5718  11.5777  11.5803  11.5883  11.6005  11.6220
    11.6280  11.6316  11.7159  11.7264  11.7502  11.7606  11.8006  11.8389
    11.8830  11.9113  11.9293  11.9408  11.9503  11.9602  11.9995  12.0033
    12.0130  12.0278  12.0328  12.0365  12.0406  12.0439  12.0996  12.1132
    12.1544  12.1721  12.1883  12.2341  12.2499  12.2912  12.3030  12.3325
    12.3533  12.3618  12.3956  12.4015  12.4359  12.4512  12.4591  12.4633
    12.4893  12.5031  12.5268  12.5399  12.5585  12.5901  12.5921  12.6078
    12.6153  12.6379  12.6526  12.6555  12.6674  12.6888  12.8044  12.8113
    12.8338  12.8474  12.8936  12.9360  13.0147  13.0193  13.0216  13.0263
    13.2001  13.2086  13.3928  13.4414  13.5205  13.6260  13.7529  13.7637
    13.9516  13.9609  14.0326  14.1092  14.1556  14.2116  14.2549  14.3278
    14.4644  14.4733  14.5413  14.5695  14.6106  14.6124  14.6878  15.0209
    15.1009  15.1906  15.2838  15.3734  15.3854  15.4279  15.5396  15.5599
    15.6273  15.6811  15.7049  15.7522  15.7680  15.9677  16.0177  16.0572
    16.0771  16.0939  16.1346  16.1476  16.1702  16.1817  16.1879  16.2190
    16.2618  16.2695  16.2846  16.3130  16.3312  16.3778  16.4018  16.4867
    16.4873  16.5239  16.5417  16.5519  16.5805  16.6439  16.6967  16.7057
    16.7315  16.7824  16.8320  16.8615  16.8950  16.9765  16.9875  17.0146
    17.1009  17.1279  17.1408  17.2036  18.6032  18.6920  18.7035  18.7349
    18.7613  18.7804  18.8209  18.8485  18.8801  18.9028  18.9435  18.9687

          k =-0.5000-0.5000 0.0000 ( 31612 PWs)   bands (ev):

   -66.7870 -66.7458 -66.7443 -66.6837 -66.6689 -66.6640 -66.6367 -66.6028
   -66.5526 -62.4209 -62.4099 -62.3741 -62.3650 -62.3583 -62.3529 -62.3415
   -62.3397 -62.2871 -35.5462 -35.5241 -35.5176 -35.5079 -35.4987 -35.4959
   -35.4949 -35.4683 -35.4625 -35.4436 -35.4261 -35.4256 -35.4230 -35.4208
   -35.4124 -35.4117 -35.3982 -35.3925 -35.3925 -35.3879 -35.3595 -35.3517
   -35.3470 -35.3338 -35.3134 -35.2949 -35.2872 -31.2591 -31.2536 -31.2476
   -31.2335 -31.2273 -31.2269 -31.2177 -31.2050 -31.1982 -31.1958 -31.1949
   -31.1935 -31.1814 -31.1806 -31.1789 -31.1786 -31.1771 -31.1736 -31.1732
   -31.1679 -31.1635 -31.1590 -31.1569 -31.1451 -31.1370 -31.1121 -31.0924
     6.4140   6.4329   6.4380   6.4749   8.0082   8.0153   8.0208   8.0225
     8.0885   8.1230   8.2959   8.3217   8.3270   8.3334   8.3402   8.3460
     8.3507   8.3534   8.3539   8.3594   8.3649   8.3861   8.5679   8.5993
     8.6492   8.6651   8.6767   8.6959   8.7151   8.7235   8.7351   8.7439
     8.7492   8.7961   8.9164   8.9202   8.9746   8.9750   8.9773   8.9780
     8.9833   8.9907   8.9937   9.0024   9.0039   9.0334   9.0409   9.0471
     9.1100   9.1345   9.3059   9.3126   9.3167   9.3227   9.4012   9.4087
     9.4154   9.4172   9.4197   9.4262   9.4274   9.4317   9.4472   9.4557
     9.4613   9.4756   9.4756   9.4810   9.4839   9.4853   9.4926   9.5046
     9.5161   9.5191   9.5298   9.5398   9.5424   9.5675   9.5752   9.5958
     9.5983   9.6100   9.6971   9.6995   9.7684   9.8174   9.8247   9.8254
     9.8317   9.8333   9.8346   9.8393   9.8443   9.8675  10.0443  10.0618
    10.0735  10.1045  10.1116  10.1284  10.1383  10.1404  10.1561  10.1729
    10.1788  10.1922  10.2022  10.2040  10.2153  10.2201  10.2261  10.2284
    10.2317  10.2370  10.2486  10.2532  10.4560  10.4700  10.4881  10.4919
    10.4959  10.4995  10.5043  10.5366  10.6296  10.6368  10.6398  10.6479
    10.6636  10.6685  10.6723  10.6768  10.6907  10.6925  10.6948  10.7036
    10.7140  10.7326  10.7894  10.8113  10.8297  10.8419  10.8629  10.8801
    10.9232  10.9361  11.1966  11.2092  11.2125  11.2227  11.3071  11.3119
    11.3365  11.3409  11.3474  11.3586  11.3970  11.3994  11.5437  11.5516
    11.5866  11.6240  11.6339  11.6402  11.6406  11.6431  11.6464  11.6485
    11.6520  11.6524  11.6957  11.7224  11.7345  11.7527  11.7603  11.8520
    11.8726  11.8763  11.8783  11.8802  11.8833  11.8882  11.9896  12.0136
    12.0211  12.0262  12.0766  12.0898  12.0911  12.1054  12.1091  12.1099
    12.1109  12.1141  12.1153  12.1193  12.1378  12.1506  12.1706  12.1794
    12.1871  12.1872  12.2021  12.2059  12.2192  12.2239  12.2333  12.2442
    12.2542  12.2632  12.2775  12.2832  12.2850  12.2930  12.3024  12.3214
    12.3769  12.4282  12.4401  12.4466  12.4695  12.4770  12.4843  12.4943
    12.5113  12.5355  12.5727  12.5812  12.5989  12.6187  12.6378  12.6825
    12.7139  12.7457  12.7981  12.8813  12.8877  12.9144  12.9538  12.9557
    12.9618  12.9636  12.9885  13.0278  13.0725  13.5526  13.6722  13.6743
    13.7218  13.7974  13.8133  13.8275  13.8826  13.9298  14.0340  14.0970
    14.1820  14.2777  14.2954  14.3432  14.5236  14.6605  14.8652  14.8898
    15.0977  15.1947  15.1980  15.2949  15.3744  15.5125  15.5669  15.7351
    15.7949  15.7974  15.8465  15.8705  15.8860  15.8889  15.9175  15.9371
    15.9446  15.9563  15.9925  16.0071  16.0900  16.1270  16.1330  16.1627
    16.1886  16.2542  16.3159  16.3549  16.3601  16.3867  16.4006  16.4133
    16.4656  16.4691  16.5003  16.6646  16.6839  16.7086  16.7252  16.7499
    16.7844  16.8225  16.9191  16.9724  17.3836  17.3923  17.6338  18.0222
    18.1458  18.1981  18.2044  18.2372  18.2802  18.4480  18.4686  18.5370
    18.5926  18.6202  18.6559  18.6724  18.7710  18.7860  18.7938  18.8028

          k =-0.5000-0.5000-0.5734 ( 31672 PWs)   bands (ev):

   -66.7870 -66.7458 -66.7443 -66.6837 -66.6689 -66.6640 -66.6367 -66.6028
   -66.5526 -62.4209 -62.4099 -62.3741 -62.3650 -62.3583 -62.3529 -62.3415
   -62.3397 -62.2871 -35.5462 -35.5241 -35.5176 -35.5079 -35.4987 -35.4959
   -35.4949 -35.4683 -35.4625 -35.4436 -35.4261 -35.4256 -35.4230 -35.4208
   -35.4124 -35.4117 -35.3982 -35.3925 -35.3925 -35.3879 -35.3595 -35.3517
   -35.3470 -35.3338 -35.3134 -35.2949 -35.2872 -31.2591 -31.2536 -31.2476
   -31.2335 -31.2273 -31.2269 -31.2177 -31.2050 -31.1982 -31.1958 -31.1949
   -31.1935 -31.1814 -31.1806 -31.1788 -31.1786 -31.1771 -31.1736 -31.1732
   -31.1679 -31.1635 -31.1590 -31.1569 -31.1451 -31.1370 -31.1121 -31.0924
     6.8808   6.9143   6.9230   6.9467   6.9973   7.0156   7.0262   7.0474
     8.4446   8.4669   8.4705   8.4814   8.4872   8.4918   8.4924   8.4952
     8.4982   8.5008   8.5129   8.5159   8.5372   8.5414   8.5440   8.5707
     8.5739   8.5781   8.5834   8.6214   8.8743   8.8745   8.8896   8.8920
     8.8975   8.9197   8.9367   8.9412   9.0823   9.1026   9.1162   9.1227
     9.1242   9.1418   9.1465   9.1490   9.1542   9.1564   9.1599   9.1629
     9.1660   9.1678   9.1708   9.1726   9.1727   9.1748   9.1766   9.1792
     9.1796   9.1821   9.1943   9.1993   9.2004   9.2054   9.2096   9.2136
     9.2267   9.2320   9.2429   9.2450   9.2573   9.2611   9.2650   9.2831
     9.5452   9.5491   9.5577   9.5703   9.5768   9.5959   9.6035   9.6263
     9.6420   9.6638   9.6751   9.6754   9.7297   9.7401   9.7529   9.7869
     9.8130   9.8260   9.8425   9.8567   9.8796   9.8840   9.8909   9.8973
    10.1132  10.1207  10.1494  10.1539  10.1650  10.1720  10.1901  10.1984
    10.2834  10.3221  10.4368  10.4576  10.4587  10.4680  10.4804  10.4814
    10.4865  10.4868  10.4939  10.4993  10.5031  10.5113  10.5130  10.5191
    10.5232  10.5246  10.5414  10.5461  10.5695  10.5701  10.5864  10.6012
    10.6013  10.6265  10.6383  10.6383  10.6521  10.6549  10.6660  10.6843
    10.6863  10.6879  10.6989  10.7108  10.7145  10.7278  11.0189  11.0418
    11.0710  11.0792  11.0802  11.0857  11.1272  11.1431  11.3788  11.3872
    11.3904  11.3994  11.4020  11.4326  11.4384  11.4440  11.4553  11.4792
    11.4794  11.4903  11.5009  11.5041  11.5167  11.5449  11.6057  11.6210
    11.6410  11.6478  11.6525  11.6683  11.6733  11.6954  11.6970  11.7180
    11.7214  11.7272  11.7341  11.7605  11.7647  11.7670  11.7789  11.7832
    11.8027  11.8081  11.8182  11.8329  11.8367  11.9420  11.9636  12.0013
    12.0176  12.0261  12.0885  12.1035  12.1205  12.1304  12.1366  12.1481
    12.1584  12.2036  12.2084  12.2205  12.2391  12.2480  12.2703  12.3190
    12.3566  12.3735  12.4050  12.4266  12.4354  12.4464  12.4469  12.4504
    12.4777  12.4974  12.5073  12.5329  12.5435  12.5534  12.5870  12.6232
    12.6446  12.6714  12.6740  12.6780  12.7012  12.7622  12.7905  12.8041
    12.9120  12.9505  12.9650  12.9729  13.0555  13.1273  13.1500  13.1865
    13.2476  13.2747  13.2918  13.3316  13.3591  13.4958  13.4985  13.5031
    13.5162  13.6036  13.7629  13.7881  13.9128  14.0538  14.0836  14.1607
    14.1872  14.2087  14.4152  14.5531  14.6915  14.7528  14.8626  14.9606
    14.9733  15.3058  15.3160  15.3649  15.4301  15.6223  15.6507  15.6556
    15.7036  15.7217  15.7607  15.8391  15.8618  15.8679  15.9103  15.9480
    15.9619  15.9919  16.0842  16.1183  16.1389  16.1542  16.1622  16.2115
    16.2179  16.2506  16.2812  16.3594  16.4128  16.4417  16.4599  16.4897
    16.5219  16.5463  16.5775  16.6099  16.6471  16.6828  16.6892  16.7305
    16.7400  16.8206  16.8472  16.8875  16.9045  16.9486  16.9934  17.0238
    17.0880  17.1182  17.5901  17.7491  17.9081  17.9585  18.9988  19.0090
    19.0201  19.0633  19.0678  19.1067  19.1732  19.2039  19.2707  19.2861

          k =-0.5000 0.0000 0.0000 ( 31722 PWs)   bands (ev):

   -66.7870 -66.7458 -66.7443 -66.6837 -66.6689 -66.6640 -66.6367 -66.6028
   -66.5526 -62.4209 -62.4099 -62.3741 -62.3650 -62.3583 -62.3529 -62.3415
   -62.3397 -62.2871 -35.5462 -35.5241 -35.5176 -35.5079 -35.4988 -35.4959
   -35.4949 -35.4683 -35.4625 -35.4436 -35.4261 -35.4256 -35.4230 -35.4208
   -35.4124 -35.4117 -35.3982 -35.3925 -35.3925 -35.3879 -35.3595 -35.3517
   -35.3470 -35.3338 -35.3134 -35.2949 -35.2872 -31.2591 -31.2536 -31.2476
   -31.2335 -31.2273 -31.2269 -31.2177 -31.2051 -31.1982 -31.1958 -31.1949
   -31.1935 -31.1814 -31.1806 -31.1789 -31.1786 -31.1773 -31.1738 -31.1732
   -31.1675 -31.1635 -31.1590 -31.1569 -31.1451 -31.1370 -31.1121 -31.0924
     6.0268   6.0582   7.4016   7.4406   7.4544   7.4914   7.6706   7.6805
     8.1028   8.1176   8.1434   8.1692   8.1990   8.2346   8.2441   8.2740
     8.3850   8.4295   8.4492   8.4851   8.6129   8.6222   8.6490   8.6515
     8.6722   8.6775   8.6887   8.7044   8.7531   8.8038   8.8163   8.8299
     8.8554   8.8660   8.8711   8.8918   8.9056   8.9099   8.9175   8.9203
     8.9267   8.9293   8.9356   8.9531   9.0426   9.0551   9.1550   9.1751
     9.1941   9.2017   9.2083   9.2293   9.2339   9.2405   9.3125   9.3338
     9.3561   9.3718   9.3773   9.4137   9.4732   9.4748   9.4892   9.5082
     9.5278   9.5376   9.5603   9.5737   9.5779   9.5950   9.6092   9.6152
     9.6176   9.6218   9.6290   9.6361   9.6365   9.6390   9.6415   9.6458
     9.6532   9.6645   9.6707   9.6798   9.6987   9.7080   9.7171   9.7354
     9.7498   9.7538   9.7562   9.7744   9.8961   9.9020   9.9153   9.9850
    10.0071  10.0435  10.1526  10.1935  10.2092  10.2247  10.2490  10.2536
    10.2668  10.2705  10.2728  10.2746  10.2838  10.2854  10.3317  10.3554
    10.3598  10.3785  10.3838  10.3935  10.4215  10.4407  10.4511  10.4821
    10.4871  10.5095  10.5267  10.5458  10.5554  10.5774  10.5861  10.5884
    10.5980  10.6577  10.6727  10.6915  10.7088  10.7230  10.7545  10.7663
    10.8007  10.8170  10.8301  10.8487  10.8539  10.8746  10.8906  10.9317
    10.9576  10.9974  11.0212  11.0333  11.0443  11.0949  11.1650  11.1829
    11.2940  11.3451  11.3491  11.3667  11.3713  11.3823  11.4040  11.4065
    11.4178  11.4456  11.4629  11.4844  11.4909  11.5309  11.5366  11.5558
    11.5712  11.6040  11.6106  11.6187  11.6337  11.6474  11.6939  11.7452
    11.7510  11.7713  11.7887  11.7938  11.8156  11.8324  11.8479  11.8634
    11.8653  11.8909  11.9067  11.9164  11.9402  11.9569  11.9599  11.9709
    11.9757  11.9799  11.9829  12.0137  12.0942  12.1411  12.1468  12.1581
    12.1882  12.1923  12.2006  12.2336  12.2399  12.2482  12.2672  12.2752
    12.2797  12.2906  12.3469  12.3477  12.3606  12.3952  12.4016  12.4197
    12.4345  12.4463  12.4563  12.4616  12.4799  12.4950  12.5543  12.5720
    12.5887  12.5935  12.6054  12.6353  12.6442  12.6802  12.7020  12.7967
    12.8843  12.9453  12.9718  13.0072  13.0443  13.0685  13.1036  13.1302
    13.1376  13.1995  13.2198  13.2248  13.2751  13.2805  13.3147  13.3297
    13.4424  13.4645  13.5127  13.6699  13.6774  14.3218  14.4527  14.5461
    14.6319  14.7403  14.8221  14.8323  14.8475  14.8999  14.9413  14.9658
    14.9979  15.1521  15.2176  15.3214  15.3233  15.4412  15.5075  15.5213
    15.6529  15.7144  15.7680  15.8112  15.8448  15.8645  15.8954  15.9593
    16.0179  16.0357  16.0507  16.1062  16.1214  16.1274  16.1599  16.1793
    16.2024  16.2169  16.2203  16.2710  16.2948  16.3024  16.3786  16.3911
    16.3958  16.5066  16.5531  16.6414  16.6935  16.8127  17.0178  17.0631
    17.1639  17.2160  17.2348  17.3323  17.3788  17.5036  17.6070  17.6304
    17.6620  17.7363  17.8003  17.8269  17.8427  17.8553  17.9497  17.9516
    18.0113  18.0693  18.1539  18.2255  19.2525  19.3159  19.3164  19.3412

          k =-0.5000 0.0000 0.5734 ( 31696 PWs)   bands (ev):

   -66.7870 -66.7458 -66.7443 -66.6837 -66.6689 -66.6640 -66.6367 -66.6028
   -66.5526 -62.4209 -62.4099 -62.3741 -62.3650 -62.3583 -62.3529 -62.3415
   -62.3397 -62.2871 -35.5462 -35.5241 -35.5176 -35.5079 -35.4988 -35.4959
   -35.4949 -35.4683 -35.4625 -35.4436 -35.4261 -35.4256 -35.4230 -35.4208
   -35.4124 -35.4117 -35.3982 -35.3925 -35.3925 -35.3879 -35.3595 -35.3517
   -35.3470 -35.3338 -35.3134 -35.2949 -35.2872 -31.2591 -31.2535 -31.2476
   -31.2335 -31.2273 -31.2269 -31.2177 -31.2051 -31.1982 -31.1958 -31.1949
   -31.1935 -31.1814 -31.1806 -31.1789 -31.1786 -31.1773 -31.1738 -31.1732
   -31.1675 -31.1635 -31.1590 -31.1569 -31.1451 -31.1370 -31.1121 -31.0924
     6.5187   6.5782   6.5937   6.6442   7.8329   7.8433   7.8567   7.8721
     7.9104   7.9223   7.9321   7.9460   8.2666   8.2779   8.2977   8.3041
     8.5098   8.5226   8.5352   8.5373   8.6571   8.6741   8.6799   8.6867
     8.6882   8.6905   8.7013   8.7114   8.7185   8.7396   8.7423   8.7497
     8.7534   8.7734   8.7813   8.8166   8.9430   9.0047   9.0075   9.0314
     9.0386   9.0517   9.0553   9.0694   9.1744   9.2029   9.2126   9.2153
     9.2217   9.2225   9.2294   9.2330   9.2452   9.2458   9.2507   9.2519
     9.2650   9.2725   9.2815   9.2856   9.2956   9.3578   9.3809   9.4042
     9.4071   9.4224   9.4516   9.4588   9.4624   9.4672   9.4675   9.4790
     9.4823   9.4969   9.5125   9.5232   9.5240   9.5506   9.5538   9.5577
     9.5673   9.6117   9.7525   9.7587   9.7879   9.7931   9.8084   9.8150
     9.8344   9.8351   9.8522   9.8530   9.8570   9.8613   9.8634   9.8854
     9.9467   9.9633   9.9974  10.0025  10.0331  10.0407  10.0557  10.0628
    10.3555  10.3770  10.3879  10.3917  10.4040  10.4173  10.4296  10.4314
    10.4649  10.4769  10.4783  10.4795  10.4822  10.4906  10.4961  10.5126
    10.5396  10.5581  10.5636  10.5793  10.5913  10.5956  10.6175  10.6256
    10.6650  10.6659  10.6744  10.6763  10.6766  10.6845  10.7117  10.7185
    10.7385  10.8211  10.8484  10.8711  10.9727  10.9907  11.0254  11.0812
    11.1138  11.1300  11.1364  11.1555  11.1809  11.1860  11.1914  11.2027
    11.2098  11.2128  11.2784  11.3383  11.3436  11.3447  11.3620  11.3739
    11.3783  11.3919  11.4098  11.4141  11.4437  11.4798  11.4881  11.5151
    11.5187  11.5542  11.5665  11.5685  11.5759  11.5780  11.6085  11.6143
    11.6383  11.6414  11.7151  11.7202  11.7535  11.7605  11.7949  11.8393
    11.8841  11.9114  11.9133  11.9471  11.9632  11.9683  12.0025  12.0032
    12.0149  12.0208  12.0290  12.0349  12.0378  12.0419  12.1098  12.1190
    12.1596  12.1722  12.1985  12.2199  12.2548  12.2959  12.2966  12.3516
    12.3619  12.3684  12.3868  12.4007  12.4416  12.4500  12.4567  12.4902
    12.5010  12.5082  12.5129  12.5130  12.5202  12.5526  12.5803  12.5809
    12.6358  12.6381  12.6444  12.6555  12.7068  12.7081  12.7611  12.7939
    12.8439  12.8499  12.9384  12.9437  12.9822  12.9976  13.0261  13.0392
    13.1889  13.2566  13.4129  13.5199  13.5313  13.6696  13.7096  13.7526
    13.9027  14.0163  14.0191  14.0947  14.1056  14.1438  14.2183  14.3103
    14.3353  14.5391  14.5675  14.5795  14.5825  14.7052  14.7570  15.0149
    15.0794  15.2714  15.3014  15.3357  15.3642  15.4493  15.5239  15.5572
    15.6283  15.6648  15.7608  15.7692  15.8636  15.8696  15.9218  16.0144
    16.0568  16.1018  16.1071  16.1582  16.1636  16.1773  16.2212  16.2326
    16.2591  16.2848  16.3047  16.3126  16.3280  16.3639  16.3640  16.4631
    16.5031  16.5650  16.5665  16.5943  16.6304  16.6459  16.6951  16.7006
    16.7630  16.7689  16.8158  16.8714  16.8782  16.8995  16.9872  16.9874
    17.0817  17.1540  17.1554  17.2202  18.6000  18.6935  18.7112  18.7373
    18.7467  18.7783  18.7895  18.8488  18.8928  18.9088  18.9531  19.0051

     the Fermi energy is    14.8164 ev

!    total energy              =  -33062.60547620 Ry
     Harris-Foulkes estimate   =  -33062.60545702 Ry
     estimated scf accuracy    <       0.00000061 Ry

     total all-electron energy =  -1410574.695851 Ry

     The total energy is the sum of the following terms:

     one-electron contribution =   -1645.74609432 Ry
     hartree contribution      =    1489.95077312 Ry
     xc contribution           =   -1658.74558085 Ry
     ewald contribution        =   -4919.25534656 Ry
     one-center paw contrib.   =  -26328.80922759 Ry

     total magnetization       =    -0.00 Bohr mag/cell
     absolute magnetization    =    78.64 Bohr mag/cell

     convergence has been achieved in  21 iterations

     Writing output data file mnau2.save
 
     init_run     :     52.48s CPU     53.24s WALL (       1 calls)
     electrons    :   3104.18s CPU   3156.10s WALL (       1 calls)

     Called by init_run:
     wfcinit      :     46.58s CPU     47.11s WALL (       1 calls)
     potinit      :      2.51s CPU      2.55s WALL (       1 calls)

     Called by electrons:
     c_bands      :   2759.68s CPU   2802.44s WALL (      21 calls)
     sum_band     :    289.16s CPU    295.07s WALL (      21 calls)
     v_of_rho     :      5.65s CPU      5.81s WALL (      22 calls)
     newd         :     17.91s CPU     20.39s WALL (      22 calls)
     PAW_pot      :     32.57s CPU     33.04s WALL (      22 calls)
     mix_rho      :      1.13s CPU      1.20s WALL (      21 calls)

     Called by c_bands:
     init_us_2    :     10.37s CPU     10.47s WALL (     688 calls)
     cegterg      :   2694.30s CPU   2736.04s WALL (     336 calls)

     Called by sum_band:
     sum_band:bec :      1.64s CPU      1.64s WALL (     336 calls)
     addusdens    :     31.76s CPU     34.67s WALL (      21 calls)

     Called by *egterg:
     h_psi        :    963.10s CPU    972.39s WALL (    1277 calls)
     s_psi        :    234.85s CPU    235.11s WALL (    1277 calls)
     g_psi        :      3.62s CPU      3.64s WALL (     925 calls)
     cdiaghg      :    946.24s CPU    947.20s WALL (    1261 calls)

     Called by h_psi:
     h_psi:pot    :    954.78s CPU    964.00s WALL (    1277 calls)
     h_psi:calbec :    233.49s CPU    235.86s WALL (    1277 calls)
     vloc_psi     :    486.85s CPU    493.39s WALL (    1277 calls)
     add_vuspsi   :    234.41s CPU    234.74s WALL (    1277 calls)

     General routines
     calbec       :    333.98s CPU    337.22s WALL (    1613 calls)
     fft          :      4.84s CPU      5.18s WALL (     672 calls)
     ffts         :      0.12s CPU      0.13s WALL (      86 calls)
     fftw         :    454.50s CPU    460.58s WALL (  750712 calls)
     interpolate  :      0.81s CPU      0.88s WALL (      86 calls)
 
     Parallel routines
     fft_scatt_xy :     57.24s CPU     57.82s WALL (  751470 calls)
     fft_scatt_yz :    102.22s CPU    104.66s WALL (  751470 calls)
 
     PWSCF        : 52m42.31s CPU    53m50.11s WALL

 
   This run was terminated on:  12:59:49   5Mar2019            

=------------------------------------------------------------------------------=
   JOB DONE.
=------------------------------------------------------------------------------=
