
     Program PWSCF v.6.2 (svn rev. 14038) starts on  5Mar2019 at 23:27:37 

     This program is part of the open-source Quantum ESPRESSO suite
     for quantum simulation of materials; please cite
         "P. Giannozzi et al., J. Phys.:Condens. Matter 21 395502 (2009);
         "P. Giannozzi et al., J. Phys.:Condens. Matter 29 465901 (2017);
          URL http://www.quantum-espresso.org", 
     in publications or presentations arising from this work. More details at
     http://www.quantum-espresso.org/quote

     Parallel version (MPI), running on    16 processors

     MPI processes distributed on     1 nodes
     R & G space division:  proc/nbgrp/npool/nimage =      16
     Waiting for input...
     Reading input from standard input

     Current dimensions of program PWSCF are:
     Max number of different atomic species (ntypx) = 10
     Max number of k-points (npk) =  40000
     Max angular momentum in pseudopotentials (lmaxx) =  3
               file Mn.pbe-spn-kjpaw_psl.0.3.1.UPF: wavefunction(s)  3P 3D renormalized
               file Mn.pbe-spn-kjpaw_psl.0.3.1.UPF: wavefunction(s)  3P 3D renormalized
               file Au.pbe-dn-kjpaw_psl.0.1.UPF: wavefunction(s)  6S 6P 5D renormalized

     Subspace diagonalization in iterative solution of the eigenvalue problem:
     a serial algorithm will be used

 
     Parallelization info
     --------------------
     sticks:   dense  smooth     PW     G-vecs:    dense   smooth      PW
     Min         736     331     90                52486    15847    2256
     Max         737     332     91                52489    15850    2259
     Sum       11785    5297   1449               839803   253559   36125
 


     bravais-lattice index     =            0
     lattice parameter (alat)  =      19.2459  a.u.
     unit-cell volume          =    6216.1497 (a.u.)^3
     number of atoms/cell      =           54
     number of atomic types    =            3
     number of electrons       =       666.00
     number of Kohn-Sham states=          400
     kinetic-energy cutoff     =      45.0000  Ry
     charge density cutoff     =     400.0000  Ry
     convergence threshold     =      1.0E-06
     mixing beta               =       0.1000
     number of iterations used =            8  plain     mixing
     Exchange-correlation      = SLA PW PBX PBC ( 1  4  3  4 0 0)

     celldm(1)=  19.245946  celldm(2)=   0.000000  celldm(3)=   0.000000
     celldm(4)=   0.000000  celldm(5)=   0.000000  celldm(6)=   0.000000

     crystal axes: (cart. coord. in units of alat)
               a(1) = (   1.000000   0.000000   0.000000 )  
               a(2) = (   0.000000   1.000000   0.000000 )  
               a(3) = (   0.000000   0.000000   0.871974 )  

     reciprocal axes: (cart. coord. in units 2 pi/alat)
               b(1) = (  1.000000  0.000000  0.000000 )  
               b(2) = (  0.000000  1.000000  0.000000 )  
               b(3) = (  0.000000  0.000000  1.146823 )  


     PseudoPot. # 1 for Mn read from file:
     ./pseudo/Mn.pbe-spn-kjpaw_psl.0.3.1.UPF
     MD5 check sum: 7eef95dd2aae66803482eea66ebeebf1
     Pseudo is Projector augmented-wave + core cor, Zval = 15.0
     Generated using "atomic" code by A. Dal Corso v.5.0.99 svn rev. 10869
     Shape of augmentation charge: PSQ
     Using radial grid of 1187 points,  6 beta functions with: 
                l(1) =   0
                l(2) =   0
                l(3) =   1
                l(4) =   1
                l(5) =   2
                l(6) =   2
     Q(r) pseudized with 0 coefficients 


     PseudoPot. # 2 for Mn read from file:
     ./pseudo/Mn.pbe-spn-kjpaw_psl.0.3.1.UPF
     MD5 check sum: 7eef95dd2aae66803482eea66ebeebf1
     Pseudo is Projector augmented-wave + core cor, Zval = 15.0
     Generated using "atomic" code by A. Dal Corso v.5.0.99 svn rev. 10869
     Shape of augmentation charge: PSQ
     Using radial grid of 1187 points,  6 beta functions with: 
                l(1) =   0
                l(2) =   0
                l(3) =   1
                l(4) =   1
                l(5) =   2
                l(6) =   2
     Q(r) pseudized with 0 coefficients 


     PseudoPot. # 3 for Au read from file:
     ./pseudo/Au.pbe-dn-kjpaw_psl.0.1.UPF
     MD5 check sum: 5c9b92683623e7ae2ab3f8e525febab6
     Pseudo is Projector augmented-wave + core cor, Zval = 11.0
     Generated using "atomic" code by A. Dal Corso v.5.0.2 svn rev. 9415
     Shape of augmentation charge: PSQ
     Using radial grid of 1279 points,  6 beta functions with: 
                l(1) =   0
                l(2) =   0
                l(3) =   1
                l(4) =   1
                l(5) =   2
                l(6) =   2
     Q(r) pseudized with 0 coefficients 


     atomic species   valence    mass     pseudopotential
        Mn1           15.00    54.93800     Mn( 1.00)
        Mn2           15.00    54.93800     Mn( 1.00)
        Au            11.00   196.96600     Au( 1.00)

     Starting magnetic structure 
     atomic species   magnetization
        Mn1          0.800
        Mn2         -0.800
        Au           0.000

      2 Sym. Ops. (no inversion) found



   Cartesian axes

     site n.     atom                  positions (alat units)
         1           Mn1 tau(   1) = (   0.0000000   0.0000000   0.0000000  )
         2           Mn1 tau(   2) = (   0.0000000   0.3333300   0.0000000  )
         3           Mn1 tau(   3) = (   0.0000000   0.6666700   0.0000000  )
         4           Mn2 tau(   4) = (   0.3333300   0.0000000   0.0000000  )
         5           Mn2 tau(   5) = (   0.3333300   0.3333300   0.0000000  )
         6           Mn1 tau(   6) = (   0.3333300   0.6666700   0.0000000  )
         7           Mn1 tau(   7) = (   0.6666700   0.0000000   0.0000000  )
         8           Mn2 tau(   8) = (   0.6666700   0.3333300   0.0000000  )
         9           Mn1 tau(   9) = (   0.6666700   0.6666700   0.0000000  )
        10           Mn2 tau(  10) = (   0.1666700   0.1666700   0.4359871  )
        11           Mn2 tau(  11) = (   0.1666700   0.5000000   0.4359871  )
        12           Mn2 tau(  12) = (   0.1666700   0.8333300   0.4359871  )
        13           Mn1 tau(  13) = (   0.5000000   0.1666700   0.4359871  )
        14           Mn1 tau(  14) = (   0.5000000   0.5000000   0.4359871  )
        15           Mn2 tau(  15) = (   0.5000000   0.8333300   0.4359871  )
        16           Mn2 tau(  16) = (   0.8333300   0.1666700   0.4359871  )
        17           Mn1 tau(  17) = (   0.8333300   0.5000000   0.4359871  )
        18           Mn2 tau(  18) = (   0.8333300   0.8333300   0.4359871  )
        19           Au  tau(  19) = (   0.1666700   0.1666700   0.7327374  )
        20           Au  tau(  20) = (   0.1666700   0.5000000   0.7327374  )
        21           Au  tau(  21) = (   0.1666700   0.8333300   0.7327374  )
        22           Au  tau(  22) = (   0.5000000   0.1666700   0.7327374  )
        23           Au  tau(  23) = (   0.5000000   0.5000000   0.7327374  )
        24           Au  tau(  24) = (   0.5000000   0.8333300   0.7327374  )
        25           Au  tau(  25) = (   0.8333300   0.1666700   0.7327374  )
        26           Au  tau(  26) = (   0.8333300   0.5000000   0.7327374  )
        27           Au  tau(  27) = (   0.8333300   0.8333300   0.7327374  )
        28           Au  tau(  28) = (   0.1666700   0.1666700   0.1392369  )
        29           Au  tau(  29) = (   0.1666700   0.5000000   0.1392369  )
        30           Au  tau(  30) = (   0.1666700   0.8333300   0.1392369  )
        31           Au  tau(  31) = (   0.5000000   0.1666700   0.1392369  )
        32           Au  tau(  32) = (   0.5000000   0.5000000   0.1392369  )
        33           Au  tau(  33) = (   0.5000000   0.8333300   0.1392369  )
        34           Au  tau(  34) = (   0.8333300   0.1666700   0.1392369  )
        35           Au  tau(  35) = (   0.8333300   0.5000000   0.1392369  )
        36           Au  tau(  36) = (   0.8333300   0.8333300   0.1392369  )
        37           Au  tau(  37) = (   0.0000000   0.0000000   0.2967503  )
        38           Au  tau(  38) = (   0.0000000   0.3333300   0.2967503  )
        39           Au  tau(  39) = (   0.0000000   0.6666700   0.2967503  )
        40           Au  tau(  40) = (   0.3333300   0.0000000   0.2967503  )
        41           Au  tau(  41) = (   0.3333300   0.3333300   0.2967503  )
        42           Au  tau(  42) = (   0.3333300   0.6666700   0.2967503  )
        43           Au  tau(  43) = (   0.6666700   0.0000000   0.2967503  )
        44           Au  tau(  44) = (   0.6666700   0.3333300   0.2967503  )
        45           Au  tau(  45) = (   0.6666700   0.6666700   0.2967503  )
        46           Au  tau(  46) = (   0.0000000   0.0000000   0.5752240  )
        47           Au  tau(  47) = (   0.0000000   0.3333300   0.5752240  )
        48           Au  tau(  48) = (   0.0000000   0.6666700   0.5752240  )
        49           Au  tau(  49) = (   0.3333300   0.0000000   0.5752240  )
        50           Au  tau(  50) = (   0.3333300   0.3333300   0.5752240  )
        51           Au  tau(  51) = (   0.3333300   0.6666700   0.5752240  )
        52           Au  tau(  52) = (   0.6666700   0.0000000   0.5752240  )
        53           Au  tau(  53) = (   0.6666700   0.3333300   0.5752240  )
        54           Au  tau(  54) = (   0.6666700   0.6666700   0.5752240  )

     number of k points=     8 (tetrahedron method)
                       cart. coord. in units 2pi/alat
        k(    1) = (   0.0000000   0.0000000   0.0000000), wk =   0.1250000
        k(    2) = (   0.0000000   0.0000000  -0.5734114), wk =   0.1250000
        k(    3) = (   0.0000000  -0.5000000   0.0000000), wk =   0.1250000
        k(    4) = (   0.0000000  -0.5000000  -0.5734114), wk =   0.1250000
        k(    5) = (  -0.5000000  -0.5000000   0.0000000), wk =   0.1250000
        k(    6) = (  -0.5000000  -0.5000000  -0.5734114), wk =   0.1250000
        k(    7) = (  -0.5000000   0.0000000   0.0000000), wk =   0.1250000
        k(    8) = (  -0.5000000   0.0000000   0.5734114), wk =   0.1250000

     Dense  grid:   839803 G-vectors     FFT dimensions: ( 125, 125, 108)

     Smooth grid:   253559 G-vectors     FFT dimensions: (  90,  90,  72)

     Estimated max dynamical RAM per process >     570.13 MB

     Estimated total dynamical RAM >       8.91 GB
     Generating pointlists ...
     new r_m :   0.1129 (alat units)  2.1733 (a.u.) for type    1
     new r_m :   0.1129 (alat units)  2.1733 (a.u.) for type    2
     new r_m :   0.1129 (alat units)  2.1733 (a.u.) for type    3

     Check: negative/imaginary core charge=   -0.000006    0.000000

     Initial potential from superposition of free atoms

     starting charge  665.98709, renormalised to  666.00000
     Starting wfc are  504 randomized atomic wfcs
     Checking if some PAW data can be deallocated... 

     total cpu time spent up to now is       57.1 secs

     Self-consistent Calculation

     iteration #  1     ecut=    45.00 Ry     beta= 0.10
     Davidson diagonalization with overlap
     ethr =  1.00E-02,  avg # of iterations =  3.2

     total cpu time spent up to now is      220.2 secs

     total energy              =  -33047.19168597 Ry
     Harris-Foulkes estimate   =  -33044.04129431 Ry
     estimated scf accuracy    <      27.04377495 Ry

     total magnetization       =    -0.00 Bohr mag/cell
     absolute magnetization    =    92.09 Bohr mag/cell

     iteration #  2     ecut=    45.00 Ry     beta= 0.10
     Davidson diagonalization with overlap
     ethr =  4.06E-03,  avg # of iterations =  1.0

     total cpu time spent up to now is      330.3 secs

     total energy              =  -33058.55584954 Ry
     Harris-Foulkes estimate   =  -33047.36988383 Ry
     estimated scf accuracy    <      21.37712040 Ry

     total magnetization       =    -0.00 Bohr mag/cell
     absolute magnetization    =    91.66 Bohr mag/cell

     iteration #  3     ecut=    45.00 Ry     beta= 0.10
     Davidson diagonalization with overlap
     ethr =  3.21E-03,  avg # of iterations =  2.1

     total cpu time spent up to now is      464.0 secs

     total energy              =  -33065.87507480 Ry
     Harris-Foulkes estimate   =  -33061.33497805 Ry
     estimated scf accuracy    <       8.77001885 Ry

     total magnetization       =     0.01 Bohr mag/cell
     absolute magnetization    =    85.56 Bohr mag/cell

     iteration #  4     ecut=    45.00 Ry     beta= 0.10
     Davidson diagonalization with overlap
     ethr =  1.32E-03,  avg # of iterations =  4.0

     total cpu time spent up to now is      661.6 secs

     total energy              =  -33058.97301687 Ry
     Harris-Foulkes estimate   =  -33068.25898924 Ry
     estimated scf accuracy    <      48.44074659 Ry

     total magnetization       =     0.26 Bohr mag/cell
     absolute magnetization    =    72.82 Bohr mag/cell

     iteration #  5     ecut=    45.00 Ry     beta= 0.10
     Davidson diagonalization with overlap
     ethr =  1.32E-03,  avg # of iterations =  4.9

     total cpu time spent up to now is      900.4 secs

     total energy              =  -33062.18232624 Ry
     Harris-Foulkes estimate   =  -33062.53761774 Ry
     estimated scf accuracy    <       3.34565939 Ry

     total magnetization       =    -0.01 Bohr mag/cell
     absolute magnetization    =    83.42 Bohr mag/cell

     iteration #  6     ecut=    45.00 Ry     beta= 0.10
     Davidson diagonalization with overlap
     ethr =  5.02E-04,  avg # of iterations =  3.5

     total cpu time spent up to now is     1047.6 secs

     total energy              =  -33062.56554804 Ry
     Harris-Foulkes estimate   =  -33062.53805025 Ry
     estimated scf accuracy    <       0.17274075 Ry

     total magnetization       =    -0.08 Bohr mag/cell
     absolute magnetization    =    80.41 Bohr mag/cell

     iteration #  7     ecut=    45.00 Ry     beta= 0.10
     Davidson diagonalization with overlap
     ethr =  2.59E-05,  avg # of iterations =  5.3

     total cpu time spent up to now is     1298.5 secs

     total energy              =  -33062.60193221 Ry
     Harris-Foulkes estimate   =  -33062.60371500 Ry
     estimated scf accuracy    <       0.08403066 Ry

     total magnetization       =     0.01 Bohr mag/cell
     absolute magnetization    =    78.84 Bohr mag/cell

     iteration #  8     ecut=    45.00 Ry     beta= 0.10
     Davidson diagonalization with overlap
     ethr =  1.26E-05,  avg # of iterations =  1.0

     total cpu time spent up to now is     1408.3 secs

     total energy              =  -33062.58967637 Ry
     Harris-Foulkes estimate   =  -33062.60368008 Ry
     estimated scf accuracy    <       0.10414713 Ry

     total magnetization       =     0.01 Bohr mag/cell
     absolute magnetization    =    78.33 Bohr mag/cell

     iteration #  9     ecut=    45.00 Ry     beta= 0.10
     Davidson diagonalization with overlap
     ethr =  1.26E-05,  avg # of iterations =  1.1

     total cpu time spent up to now is     1519.0 secs

     total energy              =  -33062.60020821 Ry
     Harris-Foulkes estimate   =  -33062.59543469 Ry
     estimated scf accuracy    <       0.02319654 Ry

     total magnetization       =    -0.01 Bohr mag/cell
     absolute magnetization    =    78.44 Bohr mag/cell

     iteration # 10     ecut=    45.00 Ry     beta= 0.10
     Davidson diagonalization with overlap
     ethr =  3.48E-06,  avg # of iterations =  2.4

     total cpu time spent up to now is     1654.3 secs

     total energy              =  -33062.60249362 Ry
     Harris-Foulkes estimate   =  -33062.60274494 Ry
     estimated scf accuracy    <       0.00508148 Ry

     total magnetization       =    -0.00 Bohr mag/cell
     absolute magnetization    =    78.69 Bohr mag/cell

     iteration # 11     ecut=    45.00 Ry     beta= 0.10
     Davidson diagonalization with overlap
     ethr =  7.63E-07,  avg # of iterations =  3.0

     total cpu time spent up to now is     1793.3 secs

     total energy              =  -33062.60462132 Ry
     Harris-Foulkes estimate   =  -33062.60356677 Ry
     estimated scf accuracy    <       0.00227478 Ry

     total magnetization       =    -0.00 Bohr mag/cell
     absolute magnetization    =    78.93 Bohr mag/cell

     iteration # 12     ecut=    45.00 Ry     beta= 0.10
     Davidson diagonalization with overlap
     ethr =  3.42E-07,  avg # of iterations =  2.7

     total cpu time spent up to now is     1926.1 secs

     total energy              =  -33062.60495552 Ry
     Harris-Foulkes estimate   =  -33062.60469298 Ry
     estimated scf accuracy    <       0.00118081 Ry

     total magnetization       =    -0.01 Bohr mag/cell
     absolute magnetization    =    78.81 Bohr mag/cell

     iteration # 13     ecut=    45.00 Ry     beta= 0.10
     Davidson diagonalization with overlap
     ethr =  1.77E-07,  avg # of iterations =  2.4

     total cpu time spent up to now is     2069.0 secs

     total energy              =  -33062.60492232 Ry
     Harris-Foulkes estimate   =  -33062.60496481 Ry
     estimated scf accuracy    <       0.00047454 Ry

     total magnetization       =    -0.00 Bohr mag/cell
     absolute magnetization    =    78.72 Bohr mag/cell

     iteration # 14     ecut=    45.00 Ry     beta= 0.10
     Davidson diagonalization with overlap
     ethr =  7.13E-08,  avg # of iterations =  2.9

     total cpu time spent up to now is     2218.4 secs

     total energy              =  -33062.60534787 Ry
     Harris-Foulkes estimate   =  -33062.60510367 Ry
     estimated scf accuracy    <       0.00035003 Ry

     total magnetization       =    -0.00 Bohr mag/cell
     absolute magnetization    =    78.71 Bohr mag/cell

     iteration # 15     ecut=    45.00 Ry     beta= 0.10
     Davidson diagonalization with overlap
     ethr =  5.26E-08,  avg # of iterations =  2.0

     total cpu time spent up to now is     2341.2 secs

     total energy              =  -33062.60543656 Ry
     Harris-Foulkes estimate   =  -33062.60531964 Ry
     estimated scf accuracy    <       0.00010172 Ry

     total magnetization       =    -0.00 Bohr mag/cell
     absolute magnetization    =    78.70 Bohr mag/cell

     iteration # 16     ecut=    45.00 Ry     beta= 0.10
     Davidson diagonalization with overlap
     ethr =  1.53E-08,  avg # of iterations =  2.8

     total cpu time spent up to now is     2478.6 secs

     total energy              =  -33062.60546962 Ry
     Harris-Foulkes estimate   =  -33062.60541014 Ry
     estimated scf accuracy    <       0.00004845 Ry

     total magnetization       =    -0.00 Bohr mag/cell
     absolute magnetization    =    78.69 Bohr mag/cell

     iteration # 17     ecut=    45.00 Ry     beta= 0.10
     Davidson diagonalization with overlap
     ethr =  7.27E-09,  avg # of iterations =  2.0

     total cpu time spent up to now is     2602.2 secs

     total energy              =  -33062.60550962 Ry
     Harris-Foulkes estimate   =  -33062.60544940 Ry
     estimated scf accuracy    <       0.00002613 Ry

     total magnetization       =    -0.00 Bohr mag/cell
     absolute magnetization    =    78.68 Bohr mag/cell

     iteration # 18     ecut=    45.00 Ry     beta= 0.10
     Davidson diagonalization with overlap
     ethr =  3.92E-09,  avg # of iterations =  4.0

     total cpu time spent up to now is     2812.9 secs

     total energy              =  -33062.60547145 Ry
     Harris-Foulkes estimate   =  -33062.60546031 Ry
     estimated scf accuracy    <       0.00000578 Ry

     total magnetization       =    -0.00 Bohr mag/cell
     absolute magnetization    =    78.65 Bohr mag/cell

     iteration # 19     ecut=    45.00 Ry     beta= 0.10
     Davidson diagonalization with overlap
     ethr =  8.67E-10,  avg # of iterations =  2.0

     total cpu time spent up to now is     2940.0 secs

     total energy              =  -33062.60546883 Ry
     Harris-Foulkes estimate   =  -33062.60546090 Ry
     estimated scf accuracy    <       0.00000303 Ry

     total magnetization       =     0.00 Bohr mag/cell
     absolute magnetization    =    78.65 Bohr mag/cell

     iteration # 20     ecut=    45.00 Ry     beta= 0.10
     Davidson diagonalization with overlap
     ethr =  4.55E-10,  avg # of iterations =  2.7

     total cpu time spent up to now is     3107.1 secs

     total energy              =  -33062.60546400 Ry
     Harris-Foulkes estimate   =  -33062.60545899 Ry
     estimated scf accuracy    <       0.00000119 Ry

     total magnetization       =     0.00 Bohr mag/cell
     absolute magnetization    =    78.65 Bohr mag/cell

     iteration # 21     ecut=    45.00 Ry     beta= 0.10
     Davidson diagonalization with overlap
     ethr =  1.79E-10,  avg # of iterations =  2.0
 
     Magnetic moment per site:
     atom:    1    charge:   13.5685    magn:    4.0520    constr:    0.0000
     atom:    2    charge:   13.5779    magn:    3.9885    constr:    0.0000
     atom:    3    charge:   13.5718    magn:    4.0201    constr:    0.0000
     atom:    4    charge:   13.5850    magn:   -3.9630    constr:    0.0000
     atom:    5    charge:   13.5747    magn:   -4.0108    constr:    0.0000
     atom:    6    charge:   13.5799    magn:    3.9770    constr:    0.0000
     atom:    7    charge:   13.5775    magn:    4.0142    constr:    0.0000
     atom:    8    charge:   13.5698    magn:   -4.0802    constr:    0.0000
     atom:    9    charge:   13.5816    magn:    3.9537    constr:    0.0000
     atom:   10    charge:   13.5817    magn:   -3.9538    constr:    0.0000
     atom:   11    charge:   13.5799    magn:   -3.9770    constr:    0.0000
     atom:   12    charge:   13.5719    magn:   -4.0201    constr:    0.0000
     atom:   13    charge:   13.5698    magn:    4.0802    constr:    0.0000
     atom:   14    charge:   13.5746    magn:    4.0108    constr:    0.0000
     atom:   15    charge:   13.5778    magn:   -3.9885    constr:    0.0000
     atom:   16    charge:   13.5776    magn:   -4.0141    constr:    0.0000
     atom:   17    charge:   13.5851    magn:    3.9629    constr:    0.0000
     atom:   18    charge:   13.5686    magn:   -4.0519    constr:    0.0000
     atom:   19    charge:    9.1202    magn:   -0.0076    constr:    0.0000
     atom:   20    charge:    9.1197    magn:    0.0198    constr:    0.0000
     atom:   21    charge:    9.1213    magn:    0.0132    constr:    0.0000
     atom:   22    charge:    9.1225    magn:   -0.0155    constr:    0.0000
     atom:   23    charge:    9.1213    magn:    0.0116    constr:    0.0000
     atom:   24    charge:    9.1200    magn:    0.0179    constr:    0.0000
     atom:   25    charge:    9.1213    magn:    0.0206    constr:    0.0000
     atom:   26    charge:    9.1201    magn:    0.0379    constr:    0.0000
     atom:   27    charge:    9.1202    magn:    0.0480    constr:    0.0000
     atom:   28    charge:    9.1202    magn:   -0.0076    constr:    0.0000
     atom:   29    charge:    9.1197    magn:    0.0198    constr:    0.0000
     atom:   30    charge:    9.1213    magn:    0.0132    constr:    0.0000
     atom:   31    charge:    9.1225    magn:   -0.0155    constr:    0.0000
     atom:   32    charge:    9.1213    magn:    0.0116    constr:    0.0000
     atom:   33    charge:    9.1200    magn:    0.0179    constr:    0.0000
     atom:   34    charge:    9.1213    magn:    0.0206    constr:    0.0000
     atom:   35    charge:    9.1201    magn:    0.0379    constr:    0.0000
     atom:   36    charge:    9.1202    magn:    0.0480    constr:    0.0000
     atom:   37    charge:    9.1203    magn:   -0.0480    constr:    0.0000
     atom:   38    charge:    9.1201    magn:   -0.0179    constr:    0.0000
     atom:   39    charge:    9.1213    magn:   -0.0132    constr:    0.0000
     atom:   40    charge:    9.1202    magn:   -0.0379    constr:    0.0000
     atom:   41    charge:    9.1213    magn:   -0.0116    constr:    0.0000
     atom:   42    charge:    9.1197    magn:   -0.0199    constr:    0.0000
     atom:   43    charge:    9.1214    magn:   -0.0206    constr:    0.0000
     atom:   44    charge:    9.1225    magn:    0.0155    constr:    0.0000
     atom:   45    charge:    9.1201    magn:    0.0075    constr:    0.0000
     atom:   46    charge:    9.1203    magn:   -0.0480    constr:    0.0000
     atom:   47    charge:    9.1201    magn:   -0.0179    constr:    0.0000
     atom:   48    charge:    9.1213    magn:   -0.0132    constr:    0.0000
     atom:   49    charge:    9.1202    magn:   -0.0379    constr:    0.0000
     atom:   50    charge:    9.1213    magn:   -0.0116    constr:    0.0000
     atom:   51    charge:    9.1197    magn:   -0.0199    constr:    0.0000
     atom:   52    charge:    9.1214    magn:   -0.0206    constr:    0.0000
     atom:   53    charge:    9.1225    magn:    0.0155    constr:    0.0000
     atom:   54    charge:    9.1201    magn:    0.0075    constr:    0.0000

     total cpu time spent up to now is     3237.5 secs

     End of self-consistent calculation

 ------ SPIN UP ------------


          k = 0.0000 0.0000 0.0000 ( 31747 PWs)   bands (ev):

   -66.7872 -66.7462 -66.7446 -66.6841 -66.6693 -66.6642 -66.6369 -66.6030
   -66.5532 -62.4202 -62.4091 -62.3733 -62.3643 -62.3576 -62.3523 -62.3409
   -62.3390 -62.2863 -35.5465 -35.5243 -35.5178 -35.5082 -35.4991 -35.4962
   -35.4952 -35.4686 -35.4627 -35.4439 -35.4264 -35.4260 -35.4235 -35.4209
   -35.4128 -35.4118 -35.3983 -35.3926 -35.3925 -35.3883 -35.3597 -35.3518
   -35.3471 -35.3339 -35.3139 -35.2954 -35.2878 -31.2582 -31.2525 -31.2476
   -31.2328 -31.2266 -31.2260 -31.2170 -31.2045 -31.1975 -31.1951 -31.1941
   -31.1928 -31.1808 -31.1800 -31.1782 -31.1779 -31.1767 -31.1732 -31.1724
   -31.1669 -31.1629 -31.1585 -31.1564 -31.1444 -31.1362 -31.1114 -31.0917
     5.6148   7.1546   7.1563   7.1979   7.2008   7.3643   7.8574   7.8870
     7.9157   7.9394   8.0868   8.1004   8.1409   8.1606   8.1907   8.2467
     8.2520   8.3033   8.3066   8.5184   8.5566   8.5601   8.5690   8.5950
     8.5994   8.8543   8.8600   8.8603   8.8817   8.8919   8.8947   8.8988
     8.9020   8.9043   8.9106   8.9230   8.9346   8.9606   8.9639   8.9730
     8.9832   9.0838   9.1202   9.1214   9.1284   9.1358   9.1551   9.1573
     9.1864   9.1974   9.2084   9.2656   9.2860   9.2965   9.3086   9.3587
     9.3626   9.3669   9.3700   9.3733   9.3756   9.3823   9.3934   9.4312
     9.4398   9.4459   9.4494   9.4536   9.4671   9.4706   9.4850   9.5790
     9.5815   9.5887   9.5900   9.5936   9.6017   9.6666   9.6688   9.6735
     9.6761   9.6768   9.6854   9.7394   9.7624   9.7711   9.8007   9.8498
     9.8504   9.9080   9.9094   9.9490   9.9518   9.9533  10.0076  10.0292
    10.1136  10.1308  10.1397  10.1505  10.2897  10.2919  10.2959  10.3000
    10.3028  10.3034  10.3066  10.3086  10.3092  10.3277  10.3429  10.3444
    10.3451  10.3464  10.3518  10.3562  10.3596  10.3686  10.3831  10.3839
    10.4006  10.5101  10.5200  10.5775  10.5979  10.6304  10.6384  10.6538
    10.6751  10.7850  10.7870  10.8133  10.8164  10.8192  10.8278  10.8418
    10.8450  10.8536  10.8579  10.8726  10.8742  10.8785  10.8855  10.8907
    10.9023  10.9222  11.0181  11.0217  11.0904  11.0923  11.2121  11.2222
    11.2240  11.2254  11.2760  11.2845  11.3003  11.3282  11.3539  11.3545
    11.3569  11.3740  11.3818  11.3836  11.3923  11.3941  11.4033  11.4104
    11.4162  11.4461  11.5505  11.5895  11.5919  11.5957  11.5981  11.6012
    11.6301  11.6786  11.7010  11.7023  11.7270  11.7301  11.7447  11.7483
    11.8327  11.8357  11.8464  11.8650  11.8707  11.9159  11.9273  11.9503
    11.9603  12.0151  12.0890  12.0995  12.1016  12.1017  12.1061  12.1428
    12.1451  12.1472  12.1483  12.1635  12.1691  12.1714  12.1847  12.2190
    12.2367  12.2440  12.3117  12.3196  12.3442  12.3691  12.3815  12.4078
    12.4310  12.4342  12.4391  12.4788  12.4909  12.4957  12.5038  12.5057
    12.5237  12.5252  12.5366  12.5571  12.5723  12.6166  12.6291  12.7008
    12.7103  12.7469  12.7486  12.7593  12.9766  13.0000  13.0630  13.0784
    13.1310  13.1368  13.1774  13.1925  13.3377  13.7693  13.7823  13.7884
    13.8218  13.9411  13.9601  14.2460  14.2776  14.3159  14.3381  14.5089
    14.8019  14.8628  14.9347  14.9890  15.0024  15.1159  15.1635  15.2475
    15.2773  15.3538  15.3552  15.3721  15.4780  15.4941  15.5209  15.5807
    15.6266  15.6469  15.6804  15.7891  15.8375  15.8448  15.9514  15.9804
    16.0450  16.0783  16.0919  16.1047  16.1296  16.1552  16.1843  16.1874
    16.2200  16.2604  16.2977  16.3001  16.3205  16.3536  16.3645  16.3811
    16.4306  16.5374  16.5580  16.6169  16.6556  16.6566  16.7275  16.8575
    16.9958  17.0309  17.1737  17.1988  17.2045  17.2303  17.2378  17.2552
    17.4971  17.5245  17.8667  17.9171  17.9245  17.9315  17.9672  18.1148
    18.2287  18.2793  18.3608  18.9754  19.0045  19.0320  19.1785  19.2105

          k = 0.0000 0.0000-0.5734 ( 31692 PWs)   bands (ev):

   -66.7872 -66.7462 -66.7446 -66.6841 -66.6693 -66.6642 -66.6369 -66.6030
   -66.5532 -62.4202 -62.4091 -62.3733 -62.3643 -62.3576 -62.3523 -62.3409
   -62.3390 -62.2863 -35.5465 -35.5243 -35.5178 -35.5082 -35.4991 -35.4962
   -35.4952 -35.4686 -35.4627 -35.4439 -35.4264 -35.4260 -35.4235 -35.4209
   -35.4128 -35.4118 -35.3983 -35.3926 -35.3925 -35.3883 -35.3597 -35.3518
   -35.3471 -35.3339 -35.3139 -35.2954 -35.2878 -31.2582 -31.2525 -31.2476
   -31.2328 -31.2266 -31.2260 -31.2170 -31.2045 -31.1975 -31.1951 -31.1941
   -31.1928 -31.1808 -31.1800 -31.1782 -31.1779 -31.1766 -31.1732 -31.1724
   -31.1669 -31.1629 -31.1585 -31.1564 -31.1444 -31.1362 -31.1114 -31.0917
     6.1552   6.2137   7.5329   7.5405   7.5663   7.5814   7.5842   7.6005
     7.6135   7.6393   8.3076   8.3175   8.3291   8.3404   8.3633   8.3747
     8.3798   8.3945   8.4571   8.4659   8.4665   8.4734   8.4961   8.4984
     8.5104   8.5123   8.6926   8.7176   8.7442   8.7987   8.9429   8.9523
     8.9719   8.9724   8.9728   8.9768   8.9795   9.0022   9.0065   9.0269
     9.0278   9.0416   9.0459   9.0664   9.0786   9.0976   9.1889   9.1963
     9.2317   9.2366   9.2388   9.2458   9.2670   9.2780   9.2822   9.2834
     9.2859   9.2926   9.2938   9.2971   9.3076   9.3168   9.4135   9.4155
     9.4206   9.4229   9.4284   9.4304   9.4512   9.4597   9.4679   9.4778
     9.4833   9.4851   9.4882   9.4974   9.5445   9.5480   9.6200   9.7018
     9.7830   9.7888   9.7968   9.8033   9.8046   9.8193   9.8297   9.8469
     9.8710   9.8779   9.8794   9.8832   9.8849   9.8884   9.8908   9.8912
    10.0554  10.0581  10.0628  10.0656  10.1340  10.1472  10.1504  10.1534
    10.1620  10.1929  10.1943  10.1986  10.2032  10.2196  10.3398  10.3644
    10.3828  10.3874  10.3975  10.4004  10.4097  10.4322  10.4540  10.5284
    10.5908  10.5913  10.6048  10.6083  10.6308  10.6397  10.6548  10.6631
    10.6739  10.6955  10.7125  10.7212  10.7611  10.7773  10.8160  10.8795
    10.9210  10.9716  10.9955  11.0060  11.0435  11.0523  11.0584  11.0728
    11.0755  11.0874  11.1056  11.1356  11.1438  11.1610  11.1838  11.1943
    11.2138  11.2370  11.2514  11.2528  11.2557  11.2561  11.2569  11.2671
    11.2680  11.2717  11.2779  11.2842  11.2963  11.3008  11.3011  11.3012
    11.3127  11.3162  11.3246  11.3264  11.5279  11.5993  11.7051  11.7140
    11.7145  11.7160  11.7182  11.7244  11.7272  11.7303  11.7361  11.7624
    11.7642  11.7662  11.7715  11.8072  11.8111  11.8130  11.8460  11.9348
    11.9367  11.9668  11.9691  12.0049  12.0384  12.0437  12.0553  12.0682
    12.1523  12.1540  12.2118  12.2450  12.2519  12.2769  12.3158  12.3812
    12.4105  12.4160  12.4337  12.4404  12.4521  12.4777  12.4893  12.4988
    12.5062  12.5090  12.5302  12.5367  12.5420  12.5625  12.5717  12.6230
    12.6231  12.6763  12.7441  12.7787  12.7808  12.8073  12.8671  12.8709
    12.9586  13.0048  13.0390  13.0986  13.1461  13.1577  13.1754  13.2088
    13.2158  13.2247  13.3051  13.4257  13.4849  13.5156  13.6331  13.7065
    13.9645  13.9717  13.9755  14.0745  14.1192  14.1402  14.2825  14.3105
    14.5729  14.8968  14.9133  14.9359  14.9580  15.0350  15.0966  15.1094
    15.1660  15.1694  15.2252  15.2532  15.3342  15.3545  15.3666  15.5375
    15.6174  15.6876  15.7168  15.7464  15.8136  15.9070  15.9170  16.0557
    16.0850  16.0904  16.1154  16.1370  16.1660  16.1842  16.1972  16.2029
    16.2125  16.2265  16.2418  16.2703  16.2729  16.2927  16.2991  16.3370
    16.3586  16.4591  16.4778  16.5283  16.6655  16.7138  16.7398  16.7588
    16.8828  16.8895  17.2166  17.2974  17.3393  17.3931  17.5179  17.5618
    17.5637  17.5845  17.6424  17.6764  17.7319  17.7382  17.8417  17.8721
    17.9159  17.9723  18.1037  18.1987  18.2137  18.2621  18.3103  18.3572

          k = 0.0000-0.5000 0.0000 ( 31722 PWs)   bands (ev):

   -66.7872 -66.7462 -66.7446 -66.6841 -66.6693 -66.6642 -66.6369 -66.6030
   -66.5532 -62.4202 -62.4091 -62.3733 -62.3643 -62.3576 -62.3523 -62.3409
   -62.3390 -62.2863 -35.5465 -35.5243 -35.5178 -35.5082 -35.4991 -35.4962
   -35.4952 -35.4686 -35.4627 -35.4439 -35.4264 -35.4260 -35.4235 -35.4209
   -35.4128 -35.4118 -35.3983 -35.3926 -35.3925 -35.3883 -35.3597 -35.3518
   -35.3471 -35.3339 -35.3139 -35.2954 -35.2878 -31.2582 -31.2525 -31.2476
   -31.2329 -31.2266 -31.2260 -31.2170 -31.2045 -31.1975 -31.1951 -31.1941
   -31.1928 -31.1808 -31.1800 -31.1782 -31.1779 -31.1765 -31.1730 -31.1724
   -31.1673 -31.1629 -31.1585 -31.1564 -31.1444 -31.1362 -31.1114 -31.0917
     6.0277   6.0577   7.4071   7.4321   7.4473   7.5005   7.6718   7.6799
     8.1019   8.1159   8.1424   8.1743   8.1935   8.2344   8.2525   8.2754
     8.3930   8.4114   8.4482   8.4948   8.6110   8.6289   8.6393   8.6514
     8.6686   8.6795   8.6843   8.7147   8.7555   8.8034   8.8243   8.8382
     8.8530   8.8644   8.8698   8.8776   8.9026   8.9066   8.9151   8.9191
     8.9270   8.9346   8.9379   8.9577   9.0461   9.0528   9.1562   9.1708
     9.1827   9.2037   9.2128   9.2237   9.2405   9.2443   9.3145   9.3341
     9.3451   9.3669   9.3866   9.4194   9.4710   9.4774   9.4876   9.4990
     9.5319   9.5356   9.5581   9.5734   9.5849   9.6053   9.6121   9.6160
     9.6192   9.6219   9.6270   9.6310   9.6318   9.6373   9.6467   9.6476
     9.6559   9.6600   9.6711   9.6793   9.7052   9.7116   9.7118   9.7357
     9.7366   9.7417   9.7715   9.7797   9.8929   9.9053   9.9152   9.9825
    10.0175  10.0334  10.1500  10.1973  10.2098  10.2244  10.2488  10.2551
    10.2678  10.2685  10.2696  10.2723  10.2863  10.2902  10.3358  10.3518
    10.3692  10.3786  10.3843  10.3915  10.4209  10.4413  10.4555  10.4773
    10.4946  10.5125  10.5261  10.5291  10.5580  10.5688  10.5787  10.5962
    10.6044  10.6516  10.6859  10.6883  10.7180  10.7363  10.7460  10.7625
    10.8070  10.8242  10.8271  10.8495  10.8532  10.8723  10.8850  10.9332
    10.9519  11.0069  11.0146  11.0198  11.0483  11.0945  11.1674  11.1882
    11.2840  11.3458  11.3496  11.3596  11.3746  11.3916  11.4061  11.4080
    11.4220  11.4572  11.4638  11.4725  11.4905  11.5176  11.5495  11.5503
    11.5690  11.5905  11.6030  11.6301  11.6424  11.6680  11.6884  11.7352
    11.7417  11.7664  11.7849  11.8066  11.8191  11.8472  11.8519  11.8697
    11.8757  11.8830  11.9099  11.9284  11.9344  11.9527  11.9552  11.9635
    11.9784  11.9789  11.9908  12.0121  12.0767  12.1144  12.1566  12.1697
    12.1938  12.1995  12.2126  12.2308  12.2414  12.2477  12.2653  12.2769
    12.2874  12.2915  12.3017  12.3410  12.3419  12.3909  12.4008  12.4164
    12.4364  12.4604  12.4623  12.4835  12.4921  12.5103  12.5225  12.5595
    12.5887  12.6050  12.6155  12.6159  12.6392  12.7114  12.7447  12.7612
    12.8297  12.9300  12.9777  13.0101  13.0536  13.0594  13.1374  13.1548
    13.1599  13.1890  13.2036  13.2292  13.2488  13.2859  13.3182  13.3362
    13.4530  13.4619  13.4969  13.6667  13.6732  14.3142  14.5351  14.5841
    14.6580  14.7335  14.7720  14.7738  14.8291  14.8835  14.9186  14.9587
    15.0442  15.0746  15.1590  15.3054  15.4306  15.4626  15.5461  15.5647
    15.6891  15.7159  15.7506  15.7739  15.8369  15.8647  15.9245  16.0016
    16.0352  16.0441  16.0606  16.0703  16.0921  16.1354  16.1678  16.1837
    16.1902  16.2127  16.2209  16.2346  16.2395  16.2483  16.3695  16.4271
    16.4576  16.4842  16.5325  16.6582  16.7195  16.8349  16.9640  17.0473
    17.1581  17.2065  17.2444  17.3204  17.4390  17.5269  17.6131  17.6258
    17.7092  17.7765  17.7877  17.8043  17.8161  17.8305  17.9306  17.9528
    18.0217  18.0368  18.1582  18.2457  19.2415  19.3202  19.3244  19.3401

          k = 0.0000-0.5000-0.5734 ( 31696 PWs)   bands (ev):

   -66.7872 -66.7462 -66.7446 -66.6841 -66.6693 -66.6642 -66.6369 -66.6030
   -66.5532 -62.4202 -62.4091 -62.3733 -62.3643 -62.3576 -62.3523 -62.3409
   -62.3390 -62.2863 -35.5465 -35.5243 -35.5178 -35.5082 -35.4991 -35.4962
   -35.4952 -35.4686 -35.4627 -35.4439 -35.4264 -35.4260 -35.4235 -35.4209
   -35.4128 -35.4118 -35.3983 -35.3926 -35.3925 -35.3883 -35.3597 -35.3518
   -35.3471 -35.3339 -35.3139 -35.2954 -35.2878 -31.2582 -31.2525 -31.2476
   -31.2329 -31.2266 -31.2260 -31.2170 -31.2045 -31.1975 -31.1951 -31.1941
   -31.1928 -31.1808 -31.1800 -31.1782 -31.1779 -31.1765 -31.1730 -31.1724
   -31.1673 -31.1629 -31.1585 -31.1564 -31.1444 -31.1362 -31.1114 -31.0917
     6.5233   6.5832   6.5885   6.6392   7.8312   7.8521   7.8606   7.8695
     7.9094   7.9193   7.9300   7.9437   8.2663   8.2801   8.2985   8.3030
     8.5103   8.5245   8.5344   8.5360   8.6532   8.6751   8.6754   8.6844
     8.6909   8.6975   8.6998   8.7113   8.7164   8.7368   8.7372   8.7513
     8.7580   8.7786   8.7815   8.8176   8.9471   9.0040   9.0052   9.0341
     9.0367   9.0508   9.0544   9.0686   9.1866   9.2016   9.2123   9.2165
     9.2218   9.2218   9.2331   9.2343   9.2427   9.2432   9.2537   9.2556
     9.2618   9.2784   9.2809   9.2862   9.2900   9.3450   9.3808   9.4022
     9.4084   9.4221   9.4513   9.4577   9.4651   9.4664   9.4680   9.4788
     9.4881   9.5042   9.5096   9.5159   9.5277   9.5459   9.5545   9.5557
     9.5670   9.6072   9.7530   9.7587   9.7882   9.7927   9.8083   9.8151
     9.8303   9.8392   9.8479   9.8564   9.8590   9.8605   9.8722   9.8882
     9.9438   9.9678   9.9865  10.0014  10.0299  10.0462  10.0547  10.0688
    10.3650  10.3827  10.3994  10.3998  10.4112  10.4209  10.4264  10.4322
    10.4474  10.4721  10.4820  10.4833  10.4853  10.4894  10.4966  10.5039
    10.5309  10.5403  10.5732  10.5752  10.5833  10.5899  10.6227  10.6386
    10.6599  10.6612  10.6712  10.6722  10.6750  10.6908  10.7181  10.7213
    10.7406  10.8211  10.8498  10.8786  10.9678  10.9890  11.0331  11.0907
    11.1129  11.1288  11.1306  11.1532  11.1850  11.1909  11.1917  11.2026
    11.2105  11.2128  11.2838  11.3167  11.3318  11.3421  11.3633  11.3723
    11.3778  11.4000  11.4073  11.4231  11.4425  11.4779  11.4860  11.5162
    11.5260  11.5546  11.5719  11.5779  11.5804  11.5884  11.6007  11.6222
    11.6282  11.6318  11.7161  11.7265  11.7503  11.7608  11.8007  11.8389
    11.8830  11.9114  11.9294  11.9409  11.9504  11.9603  11.9997  12.0035
    12.0131  12.0279  12.0330  12.0367  12.0408  12.0441  12.0998  12.1133
    12.1545  12.1721  12.1883  12.2340  12.2499  12.2912  12.3030  12.3324
    12.3534  12.3618  12.3955  12.4015  12.4358  12.4512  12.4590  12.4631
    12.4893  12.5030  12.5268  12.5399  12.5585  12.5901  12.5920  12.6077
    12.6152  12.6380  12.6525  12.6556  12.6673  12.6887  12.8044  12.8114
    12.8338  12.8473  12.8936  12.9359  13.0147  13.0193  13.0217  13.0263
    13.2001  13.2087  13.3928  13.4415  13.5206  13.6261  13.7529  13.7637
    13.9517  13.9610  14.0327  14.1093  14.1557  14.2118  14.2550  14.3279
    14.4645  14.4734  14.5413  14.5695  14.6107  14.6125  14.6878  15.0211
    15.1012  15.1908  15.2840  15.3737  15.3856  15.4282  15.5398  15.5602
    15.6276  15.6814  15.7053  15.7525  15.7684  15.9681  16.0182  16.0575
    16.0775  16.0943  16.1349  16.1480  16.1706  16.1821  16.1883  16.2195
    16.2622  16.2699  16.2850  16.3134  16.3316  16.3781  16.4022  16.4870
    16.4877  16.5242  16.5421  16.5522  16.5809  16.6443  16.6971  16.7061
    16.7319  16.7828  16.8324  16.8618  16.8953  16.9769  16.9879  17.0149
    17.1012  17.1283  17.1411  17.2039  18.6032  18.6920  18.7037  18.7349
    18.7613  18.7805  18.8210  18.8486  18.8803  18.9029  18.9437  18.9689

          k =-0.5000-0.5000 0.0000 ( 31612 PWs)   bands (ev):

   -66.7872 -66.7462 -66.7446 -66.6841 -66.6693 -66.6642 -66.6369 -66.6030
   -66.5532 -62.4202 -62.4091 -62.3733 -62.3643 -62.3576 -62.3523 -62.3409
   -62.3390 -62.2863 -35.5465 -35.5243 -35.5178 -35.5082 -35.4991 -35.4962
   -35.4952 -35.4686 -35.4627 -35.4439 -35.4264 -35.4260 -35.4235 -35.4209
   -35.4128 -35.4118 -35.3983 -35.3926 -35.3925 -35.3883 -35.3597 -35.3518
   -35.3471 -35.3339 -35.3139 -35.2954 -35.2878 -31.2584 -31.2529 -31.2469
   -31.2328 -31.2266 -31.2261 -31.2170 -31.2045 -31.1975 -31.1951 -31.1941
   -31.1928 -31.1808 -31.1800 -31.1782 -31.1779 -31.1765 -31.1730 -31.1724
   -31.1673 -31.1629 -31.1585 -31.1564 -31.1444 -31.1362 -31.1114 -31.0917
     6.4140   6.4329   6.4380   6.4750   8.0082   8.0154   8.0208   8.0225
     8.0886   8.1231   8.2960   8.3218   8.3271   8.3335   8.3402   8.3461
     8.3508   8.3534   8.3540   8.3595   8.3650   8.3862   8.5680   8.5995
     8.6494   8.6653   8.6768   8.6960   8.7152   8.7236   8.7352   8.7440
     8.7494   8.7963   8.9165   8.9203   8.9747   8.9751   8.9774   8.9781
     8.9834   8.9907   8.9937   9.0025   9.0039   9.0336   9.0411   9.0471
     9.1101   9.1347   9.3061   9.3127   9.3168   9.3228   9.4014   9.4088
     9.4155   9.4173   9.4198   9.4264   9.4275   9.4318   9.4473   9.4558
     9.4614   9.4757   9.4758   9.4812   9.4840   9.4854   9.4927   9.5048
     9.5163   9.5192   9.5300   9.5401   9.5425   9.5677   9.5754   9.5960
     9.5984   9.6102   9.6973   9.6997   9.7685   9.8175   9.8249   9.8255
     9.8318   9.8334   9.8348   9.8395   9.8445   9.8677  10.0444  10.0619
    10.0737  10.1047  10.1117  10.1285  10.1384  10.1405  10.1563  10.1730
    10.1789  10.1923  10.2023  10.2041  10.2154  10.2202  10.2263  10.2286
    10.2319  10.2371  10.2487  10.2534  10.4562  10.4702  10.4883  10.4921
    10.4960  10.4997  10.5044  10.5367  10.6297  10.6369  10.6400  10.6481
    10.6638  10.6686  10.6725  10.6770  10.6909  10.6927  10.6949  10.7038
    10.7142  10.7328  10.7896  10.8114  10.8299  10.8420  10.8631  10.8803
    10.9233  10.9363  11.1968  11.2094  11.2127  11.2228  11.3072  11.3120
    11.3366  11.3411  11.3476  11.3588  11.3972  11.3995  11.5438  11.5517
    11.5867  11.6242  11.6339  11.6404  11.6407  11.6433  11.6466  11.6486
    11.6523  11.6526  11.6958  11.7225  11.7348  11.7528  11.7604  11.8519
    11.8728  11.8765  11.8785  11.8804  11.8834  11.8885  11.9895  12.0136
    12.0212  12.0262  12.0766  12.0899  12.0913  12.1056  12.1093  12.1098
    12.1111  12.1143  12.1154  12.1195  12.1379  12.1506  12.1706  12.1794
    12.1872  12.1872  12.2022  12.2059  12.2192  12.2240  12.2334  12.2443
    12.2542  12.2633  12.2777  12.2834  12.2850  12.2931  12.3026  12.3213
    12.3769  12.4281  12.4401  12.4466  12.4695  12.4769  12.4843  12.4942
    12.5112  12.5355  12.5726  12.5812  12.5988  12.6187  12.6377  12.6825
    12.7139  12.7456  12.7980  12.8812  12.8876  12.9143  12.9539  12.9556
    12.9617  12.9636  12.9884  13.0277  13.0724  13.5527  13.6722  13.6743
    13.7219  13.7975  13.8134  13.8276  13.8826  13.9299  14.0341  14.0971
    14.1821  14.2777  14.2955  14.3433  14.5237  14.6607  14.8653  14.8899
    15.0980  15.1949  15.1982  15.2951  15.3747  15.5127  15.5672  15.7355
    15.7952  15.7979  15.8468  15.8710  15.8864  15.8893  15.9179  15.9375
    15.9450  15.9568  15.9929  16.0075  16.0904  16.1274  16.1334  16.1631
    16.1890  16.2546  16.3163  16.3553  16.3604  16.3871  16.4010  16.4137
    16.4660  16.4695  16.5007  16.6649  16.6842  16.7090  16.7256  16.7504
    16.7848  16.8229  16.9196  16.9728  17.3837  17.3923  17.6340  18.0225
    18.1459  18.1982  18.2046  18.2374  18.2804  18.4482  18.4688  18.5371
    18.5927  18.6203  18.6560  18.6726  18.7710  18.7861  18.7939  18.8030

          k =-0.5000-0.5000-0.5734 ( 31672 PWs)   bands (ev):

   -66.7872 -66.7462 -66.7446 -66.6841 -66.6693 -66.6642 -66.6369 -66.6030
   -66.5532 -62.4202 -62.4091 -62.3733 -62.3643 -62.3576 -62.3523 -62.3409
   -62.3390 -62.2863 -35.5465 -35.5243 -35.5178 -35.5082 -35.4991 -35.4962
   -35.4952 -35.4686 -35.4627 -35.4439 -35.4264 -35.4260 -35.4235 -35.4209
   -35.4128 -35.4118 -35.3983 -35.3926 -35.3925 -35.3883 -35.3597 -35.3518
   -35.3471 -35.3339 -35.3139 -35.2954 -35.2878 -31.2584 -31.2529 -31.2469
   -31.2328 -31.2266 -31.2261 -31.2170 -31.2045 -31.1975 -31.1951 -31.1941
   -31.1928 -31.1808 -31.1800 -31.1782 -31.1779 -31.1765 -31.1730 -31.1724
   -31.1673 -31.1629 -31.1585 -31.1564 -31.1444 -31.1362 -31.1114 -31.0917
     6.8808   6.9143   6.9230   6.9467   6.9974   7.0156   7.0263   7.0474
     8.4447   8.4669   8.4705   8.4815   8.4873   8.4919   8.4925   8.4954
     8.4983   8.5009   8.5129   8.5160   8.5373   8.5415   8.5441   8.5708
     8.5741   8.5782   8.5836   8.6215   8.8744   8.8746   8.8897   8.8921
     8.8976   8.9199   8.9368   8.9413   9.0824   9.1027   9.1163   9.1228
     9.1243   9.1419   9.1466   9.1491   9.1544   9.1565   9.1600   9.1630
     9.1662   9.1680   9.1709   9.1727   9.1729   9.1749   9.1768   9.1794
     9.1797   9.1822   9.1945   9.1994   9.2006   9.2055   9.2098   9.2138
     9.2269   9.2321   9.2431   9.2451   9.2574   9.2613   9.2651   9.2832
     9.5453   9.5492   9.5579   9.5704   9.5769   9.5960   9.6037   9.6264
     9.6422   9.6639   9.6753   9.6755   9.7299   9.7402   9.7530   9.7870
     9.8132   9.8261   9.8425   9.8569   9.8799   9.8842   9.8911   9.8975
    10.1133  10.1208  10.1495  10.1540  10.1651  10.1721  10.1902  10.1985
    10.2835  10.3222  10.4369  10.4578  10.4588  10.4681  10.4806  10.4816
    10.4866  10.4869  10.4940  10.4995  10.5032  10.5114  10.5132  10.5193
    10.5234  10.5247  10.5415  10.5462  10.5696  10.5703  10.5865  10.6013
    10.6015  10.6267  10.6384  10.6385  10.6523  10.6551  10.6661  10.6844
    10.6865  10.6880  10.6991  10.7109  10.7147  10.7279  11.0190  11.0419
    11.0711  11.0794  11.0804  11.0859  11.1273  11.1432  11.3789  11.3873
    11.3905  11.3996  11.4022  11.4328  11.4385  11.4441  11.4555  11.4793
    11.4796  11.4905  11.5010  11.5042  11.5168  11.5451  11.6058  11.6212
    11.6412  11.6480  11.6527  11.6685  11.6734  11.6955  11.6972  11.7181
    11.7215  11.7274  11.7343  11.7607  11.7648  11.7671  11.7791  11.7833
    11.8029  11.8082  11.8184  11.8331  11.8368  11.9421  11.9637  12.0013
    12.0176  12.0262  12.0885  12.1035  12.1206  12.1304  12.1366  12.1482
    12.1585  12.2037  12.2085  12.2206  12.2392  12.2480  12.2704  12.3190
    12.3566  12.3735  12.4050  12.4267  12.4354  12.4463  12.4468  12.4503
    12.4776  12.4975  12.5072  12.5330  12.5435  12.5533  12.5870  12.6230
    12.6446  12.6714  12.6740  12.6779  12.7012  12.7622  12.7905  12.8041
    12.9121  12.9505  12.9651  12.9730  13.0555  13.1274  13.1501  13.1865
    13.2477  13.2747  13.2918  13.3317  13.3591  13.4959  13.4985  13.5031
    13.5163  13.6037  13.7629  13.7882  13.9129  14.0539  14.0837  14.1608
    14.1873  14.2088  14.4153  14.5532  14.6916  14.7529  14.8627  14.9608
    14.9734  15.3060  15.3162  15.3650  15.4303  15.6225  15.6511  15.6558
    15.7040  15.7220  15.7611  15.8395  15.8623  15.8683  15.9107  15.9484
    15.9622  15.9923  16.0846  16.1187  16.1393  16.1547  16.1626  16.2119
    16.2183  16.2511  16.2816  16.3597  16.4132  16.4421  16.4602  16.4901
    16.5222  16.5466  16.5779  16.6102  16.6475  16.6832  16.6897  16.7308
    16.7404  16.8210  16.8475  16.8877  16.9049  16.9488  16.9937  17.0241
    17.0883  17.1186  17.5904  17.7493  17.9083  17.9588  18.9989  19.0091
    19.0202  19.0634  19.0679  19.1068  19.1733  19.2040  19.2708  19.2861

          k =-0.5000 0.0000 0.0000 ( 31722 PWs)   bands (ev):

   -66.7872 -66.7462 -66.7446 -66.6841 -66.6693 -66.6642 -66.6369 -66.6030
   -66.5532 -62.4202 -62.4091 -62.3733 -62.3643 -62.3576 -62.3523 -62.3409
   -62.3390 -62.2863 -35.5465 -35.5243 -35.5178 -35.5082 -35.4991 -35.4962
   -35.4952 -35.4686 -35.4627 -35.4439 -35.4264 -35.4260 -35.4235 -35.4209
   -35.4128 -35.4118 -35.3983 -35.3926 -35.3925 -35.3883 -35.3597 -35.3518
   -35.3471 -35.3339 -35.3139 -35.2954 -35.2878 -31.2584 -31.2529 -31.2469
   -31.2327 -31.2266 -31.2261 -31.2170 -31.2045 -31.1975 -31.1951 -31.1941
   -31.1928 -31.1808 -31.1800 -31.1782 -31.1779 -31.1767 -31.1732 -31.1724
   -31.1669 -31.1629 -31.1585 -31.1564 -31.1444 -31.1362 -31.1114 -31.0917
     6.0268   6.0583   7.4016   7.4406   7.4545   7.4915   7.6706   7.6805
     8.1029   8.1177   8.1434   8.1693   8.1991   8.2346   8.2441   8.2741
     8.3851   8.4296   8.4492   8.4852   8.6130   8.6223   8.6491   8.6516
     8.6722   8.6776   8.6889   8.7045   8.7532   8.8039   8.8164   8.8300
     8.8555   8.8661   8.8713   8.8920   8.9058   8.9100   8.9177   8.9204
     8.9268   8.9294   8.9358   8.9532   9.0427   9.0552   9.1551   9.1752
     9.1942   9.2018   9.2084   9.2295   9.2340   9.2407   9.3126   9.3339
     9.3563   9.3720   9.3774   9.4138   9.4733   9.4750   9.4893   9.5084
     9.5279   9.5378   9.5604   9.5739   9.5780   9.5951   9.6093   9.6154
     9.6177   9.6220   9.6291   9.6363   9.6366   9.6391   9.6417   9.6460
     9.6534   9.6646   9.6709   9.6800   9.6989   9.7081   9.7172   9.7355
     9.7500   9.7540   9.7564   9.7746   9.8963   9.9022   9.9154   9.9851
    10.0072  10.0437  10.1527  10.1937  10.2093  10.2248  10.2491  10.2537
    10.2669  10.2706  10.2730  10.2747  10.2840  10.2855  10.3319  10.3556
    10.3599  10.3787  10.3840  10.3937  10.4217  10.4408  10.4512  10.4822
    10.4872  10.5096  10.5269  10.5460  10.5555  10.5776  10.5862  10.5886
    10.5981  10.6579  10.6728  10.6917  10.7090  10.7232  10.7547  10.7665
    10.8008  10.8172  10.8303  10.8489  10.8540  10.8747  10.8908  10.9318
    10.9578  10.9976  11.0213  11.0335  11.0444  11.0951  11.1652  11.1831
    11.2942  11.3453  11.3493  11.3669  11.3713  11.3825  11.4041  11.4067
    11.4179  11.4457  11.4631  11.4845  11.4911  11.5310  11.5368  11.5560
    11.5713  11.6041  11.6107  11.6189  11.6338  11.6476  11.6939  11.7454
    11.7511  11.7715  11.7888  11.7939  11.8158  11.8325  11.8480  11.8636
    11.8654  11.8910  11.9069  11.9166  11.9403  11.9571  11.9601  11.9709
    11.9759  11.9802  11.9830  12.0139  12.0942  12.1410  12.1469  12.1582
    12.1883  12.1923  12.2008  12.2338  12.2399  12.2484  12.2673  12.2752
    12.2798  12.2907  12.3468  12.3478  12.3607  12.3951  12.4017  12.4197
    12.4345  12.4462  12.4563  12.4614  12.4798  12.4950  12.5542  12.5720
    12.5888  12.5933  12.6054  12.6353  12.6441  12.6803  12.7019  12.7967
    12.8843  12.9453  12.9718  13.0072  13.0442  13.0685  13.1035  13.1302
    13.1376  13.1994  13.2198  13.2248  13.2751  13.2805  13.3147  13.3297
    13.4424  13.4645  13.5127  13.6699  13.6775  14.3219  14.4529  14.5462
    14.6321  14.7405  14.8223  14.8325  14.8477  14.9001  14.9414  14.9659
    14.9981  15.1524  15.2178  15.3216  15.3236  15.4415  15.5078  15.5215
    15.6532  15.7147  15.7684  15.8116  15.8452  15.8650  15.8958  15.9598
    16.0183  16.0361  16.0512  16.1067  16.1218  16.1278  16.1603  16.1797
    16.2028  16.2173  16.2207  16.2714  16.2952  16.3027  16.3790  16.3915
    16.3962  16.5070  16.5535  16.6418  16.6939  16.8131  17.0181  17.0634
    17.1642  17.2163  17.2351  17.3325  17.3790  17.5038  17.6071  17.6305
    17.6621  17.7364  17.8004  17.8271  17.8429  17.8554  17.9499  17.9518
    18.0115  18.0695  18.1541  18.2258  19.2526  19.3160  19.3164  19.3413

          k =-0.5000 0.0000 0.5734 ( 31696 PWs)   bands (ev):

   -66.7872 -66.7462 -66.7446 -66.6841 -66.6693 -66.6642 -66.6369 -66.6030
   -66.5532 -62.4202 -62.4091 -62.3733 -62.3643 -62.3576 -62.3523 -62.3409
   -62.3390 -62.2863 -35.5465 -35.5243 -35.5178 -35.5082 -35.4991 -35.4962
   -35.4952 -35.4686 -35.4627 -35.4439 -35.4264 -35.4260 -35.4235 -35.4209
   -35.4128 -35.4118 -35.3983 -35.3926 -35.3925 -35.3883 -35.3597 -35.3518
   -35.3471 -35.3339 -35.3139 -35.2954 -35.2878 -31.2584 -31.2529 -31.2469
   -31.2327 -31.2266 -31.2261 -31.2170 -31.2045 -31.1975 -31.1951 -31.1941
   -31.1928 -31.1808 -31.1800 -31.1782 -31.1779 -31.1766 -31.1732 -31.1724
   -31.1669 -31.1629 -31.1585 -31.1564 -31.1444 -31.1362 -31.1114 -31.0917
     6.5187   6.5782   6.5937   6.6443   7.8329   7.8433   7.8567   7.8721
     7.9104   7.9224   7.9322   7.9461   8.2667   8.2780   8.2978   8.3042
     8.5099   8.5227   8.5353   8.5375   8.6572   8.6742   8.6800   8.6868
     8.6883   8.6906   8.7013   8.7115   8.7187   8.7398   8.7425   8.7499
     8.7535   8.7735   8.7814   8.8167   8.9431   9.0048   9.0076   9.0314
     9.0387   9.0519   9.0555   9.0695   9.1745   9.2030   9.2127   9.2155
     9.2219   9.2226   9.2295   9.2332   9.2454   9.2459   9.2509   9.2520
     9.2652   9.2727   9.2816   9.2858   9.2957   9.3579   9.3811   9.4044
     9.4073   9.4226   9.4518   9.4589   9.4625   9.4673   9.4677   9.4791
     9.4824   9.4970   9.5126   9.5234   9.5241   9.5507   9.5539   9.5578
     9.5675   9.6118   9.7526   9.7588   9.7880   9.7932   9.8085   9.8152
     9.8346   9.8353   9.8523   9.8532   9.8571   9.8615   9.8635   9.8855
     9.9468   9.9634   9.9976  10.0027  10.0332  10.0409  10.0559  10.0630
    10.3556  10.3771  10.3880  10.3918  10.4042  10.4175  10.4298  10.4315
    10.4650  10.4771  10.4784  10.4797  10.4824  10.4907  10.4963  10.5127
    10.5399  10.5582  10.5638  10.5795  10.5915  10.5957  10.6177  10.6258
    10.6651  10.6661  10.6746  10.6764  10.6768  10.6846  10.7118  10.7186
    10.7386  10.8212  10.8486  10.8713  10.9728  10.9908  11.0255  11.0814
    11.1140  11.1301  11.1366  11.1556  11.1811  11.1862  11.1916  11.2028
    11.2100  11.2130  11.2786  11.3384  11.3437  11.3449  11.3622  11.3741
    11.3785  11.3921  11.4100  11.4143  11.4439  11.4799  11.4883  11.5153
    11.5189  11.5543  11.5667  11.5687  11.5760  11.5781  11.6087  11.6145
    11.6384  11.6416  11.7152  11.7203  11.7536  11.7606  11.7951  11.8394
    11.8841  11.9115  11.9133  11.9472  11.9633  11.9684  12.0026  12.0033
    12.0150  12.0209  12.0292  12.0352  12.0380  12.0421  12.1099  12.1190
    12.1597  12.1722  12.1985  12.2200  12.2549  12.2959  12.2966  12.3516
    12.3619  12.3684  12.3868  12.4006  12.4416  12.4499  12.4566  12.4901
    12.5009  12.5082  12.5128  12.5129  12.5202  12.5525  12.5802  12.5809
    12.6358  12.6382  12.6443  12.6556  12.7068  12.7081  12.7611  12.7938
    12.8439  12.8498  12.9384  12.9438  12.9821  12.9976  13.0260  13.0392
    13.1889  13.2566  13.4130  13.5200  13.5314  13.6697  13.7097  13.7526
    13.9028  14.0164  14.0192  14.0948  14.1057  14.1439  14.2184  14.3103
    14.3354  14.5391  14.5675  14.5796  14.5826  14.7053  14.7571  15.0151
    15.0796  15.2716  15.3017  15.3359  15.3645  15.4496  15.5242  15.5575
    15.6286  15.6651  15.7611  15.7697  15.8639  15.8700  15.9222  16.0148
    16.0571  16.1022  16.1075  16.1585  16.1640  16.1777  16.2216  16.2330
    16.2595  16.2852  16.3051  16.3129  16.3283  16.3643  16.3644  16.4634
    16.5034  16.5653  16.5669  16.5946  16.6307  16.6463  16.6955  16.7010
    16.7633  16.7692  16.8162  16.8717  16.8785  16.8999  16.9875  16.9878
    17.0821  17.1543  17.1557  17.2206  18.6001  18.6936  18.7112  18.7374
    18.7468  18.7784  18.7897  18.8489  18.8929  18.9089  18.9533  19.0052

 ------ SPIN DOWN ----------


          k = 0.0000 0.0000 0.0000 ( 31747 PWs)   bands (ev):

   -66.7872 -66.7462 -66.7446 -66.6840 -66.6692 -66.6643 -66.6371 -66.6031
   -66.5530 -62.4202 -62.4091 -62.3733 -62.3644 -62.3576 -62.3522 -62.3408
   -62.3391 -62.2864 -35.5464 -35.5243 -35.5178 -35.5082 -35.4991 -35.4962
   -35.4951 -35.4686 -35.4627 -35.4438 -35.4263 -35.4259 -35.4233 -35.4210
   -35.4127 -35.4119 -35.3985 -35.3929 -35.3926 -35.3882 -35.3598 -35.3520
   -35.3472 -35.3340 -35.3137 -35.2951 -35.2875 -31.2581 -31.2525 -31.2476
   -31.2328 -31.2266 -31.2260 -31.2170 -31.2044 -31.1976 -31.1952 -31.1941
   -31.1929 -31.1807 -31.1800 -31.1782 -31.1780 -31.1766 -31.1732 -31.1724
   -31.1669 -31.1629 -31.1583 -31.1563 -31.1445 -31.1364 -31.1115 -31.0918
     5.6148   7.1545   7.1562   7.1981   7.2010   7.3643   7.8573   7.8870
     7.9157   7.9395   8.0867   8.1004   8.1409   8.1606   8.1907   8.2468
     8.2521   8.3031   8.3065   8.5183   8.5566   8.5601   8.5691   8.5950
     8.5995   8.8543   8.8601   8.8603   8.8817   8.8920   8.8946   8.8988
     8.9020   8.9042   8.9106   8.9229   8.9346   8.9606   8.9640   8.9731
     8.9833   9.0838   9.1201   9.1214   9.1284   9.1358   9.1549   9.1572
     9.1864   9.1973   9.2085   9.2656   9.2860   9.2965   9.3087   9.3587
     9.3627   9.3669   9.3701   9.3733   9.3756   9.3822   9.3933   9.4312
     9.4397   9.4459   9.4495   9.4535   9.4671   9.4707   9.4851   9.5790
     9.5815   9.5887   9.5900   9.5936   9.6017   9.6666   9.6688   9.6736
     9.6760   9.6768   9.6854   9.7393   9.7624   9.7711   9.8007   9.8498
     9.8504   9.9079   9.9093   9.9490   9.9519   9.9533  10.0076  10.0292
    10.1137  10.1308  10.1396  10.1505  10.2896  10.2919  10.2959  10.3001
    10.3028  10.3033  10.3066  10.3087  10.3092  10.3279  10.3429  10.3444
    10.3450  10.3464  10.3517  10.3563  10.3596  10.3686  10.3831  10.3839
    10.4007  10.5101  10.5200  10.5775  10.5979  10.6304  10.6383  10.6538
    10.6751  10.7850  10.7870  10.8133  10.8164  10.8192  10.8277  10.8418
    10.8450  10.8535  10.8578  10.8726  10.8741  10.8785  10.8855  10.8907
    10.9023  10.9223  11.0181  11.0216  11.0905  11.0923  11.2121  11.2222
    11.2240  11.2254  11.2759  11.2845  11.3003  11.3282  11.3538  11.3544
    11.3569  11.3740  11.3818  11.3836  11.3924  11.3942  11.4033  11.4104
    11.4162  11.4462  11.5504  11.5895  11.5919  11.5956  11.5981  11.6012
    11.6301  11.6787  11.7010  11.7024  11.7269  11.7301  11.7448  11.7484
    11.8327  11.8357  11.8464  11.8650  11.8707  11.9159  11.9273  11.9503
    11.9603  12.0150  12.0890  12.0995  12.1016  12.1017  12.1061  12.1427
    12.1451  12.1472  12.1484  12.1635  12.1691  12.1713  12.1847  12.2191
    12.2367  12.2441  12.3118  12.3196  12.3443  12.3691  12.3815  12.4079
    12.4311  12.4342  12.4392  12.4788  12.4909  12.4958  12.5039  12.5057
    12.5237  12.5252  12.5366  12.5571  12.5723  12.6167  12.6291  12.7008
    12.7104  12.7470  12.7487  12.7594  12.9767  13.0000  13.0631  13.0784
    13.1310  13.1368  13.1774  13.1926  13.3376  13.7692  13.7824  13.7884
    13.8219  13.9411  13.9601  14.2461  14.2776  14.3160  14.3380  14.5090
    14.8019  14.8628  14.9347  14.9890  15.0024  15.1159  15.1636  15.2475
    15.2773  15.3538  15.3552  15.3721  15.4780  15.4941  15.5208  15.5807
    15.6266  15.6469  15.6804  15.7891  15.8375  15.8449  15.9514  15.9804
    16.0449  16.0783  16.0919  16.1046  16.1295  16.1551  16.1843  16.1874
    16.2199  16.2603  16.2977  16.3001  16.3204  16.3536  16.3645  16.3811
    16.4306  16.5374  16.5580  16.6169  16.6556  16.6565  16.7275  16.8575
    16.9959  17.0309  17.1737  17.1988  17.2045  17.2302  17.2378  17.2552
    17.4971  17.5246  17.8668  17.9172  17.9244  17.9314  17.9672  18.1148
    18.2287  18.2793  18.3608  18.9755  19.0045  19.0319  19.1785  19.2104

          k = 0.0000 0.0000-0.5734 ( 31692 PWs)   bands (ev):

   -66.7872 -66.7462 -66.7446 -66.6840 -66.6692 -66.6643 -66.6371 -66.6031
   -66.5530 -62.4202 -62.4091 -62.3733 -62.3644 -62.3576 -62.3522 -62.3408
   -62.3391 -62.2864 -35.5464 -35.5243 -35.5178 -35.5082 -35.4991 -35.4962
   -35.4951 -35.4686 -35.4627 -35.4438 -35.4263 -35.4259 -35.4233 -35.4210
   -35.4127 -35.4119 -35.3985 -35.3929 -35.3926 -35.3882 -35.3598 -35.3520
   -35.3472 -35.3340 -35.3137 -35.2951 -35.2875 -31.2581 -31.2525 -31.2476
   -31.2328 -31.2266 -31.2260 -31.2170 -31.2044 -31.1976 -31.1952 -31.1941
   -31.1929 -31.1807 -31.1800 -31.1782 -31.1780 -31.1766 -31.1732 -31.1724
   -31.1669 -31.1629 -31.1583 -31.1563 -31.1445 -31.1364 -31.1115 -31.0918
     6.1552   6.2137   7.5329   7.5404   7.5663   7.5815   7.5841   7.6006
     7.6137   7.6393   8.3074   8.3175   8.3290   8.3405   8.3633   8.3747
     8.3798   8.3945   8.4571   8.4659   8.4665   8.4734   8.4961   8.4984
     8.5104   8.5122   8.6926   8.7175   8.7442   8.7987   8.9428   8.9523
     8.9718   8.9725   8.9729   8.9768   8.9795   9.0022   9.0065   9.0269
     9.0277   9.0416   9.0458   9.0664   9.0786   9.0977   9.1889   9.1963
     9.2316   9.2367   9.2387   9.2460   9.2669   9.2781   9.2822   9.2834
     9.2859   9.2926   9.2939   9.2972   9.3076   9.3168   9.4135   9.4155
     9.4206   9.4230   9.4284   9.4304   9.4512   9.4597   9.4678   9.4778
     9.4833   9.4850   9.4882   9.4974   9.5446   9.5481   9.6200   9.7018
     9.7830   9.7888   9.7968   9.8033   9.8046   9.8193   9.8297   9.8469
     9.8709   9.8778   9.8794   9.8832   9.8849   9.8884   9.8909   9.8914
    10.0554  10.0581  10.0628  10.0656  10.1339  10.1472  10.1504  10.1533
    10.1620  10.1929  10.1945  10.1986  10.2031  10.2198  10.3398  10.3643
    10.3828  10.3873  10.3975  10.4004  10.4097  10.4322  10.4540  10.5284
    10.5909  10.5913  10.6048  10.6082  10.6309  10.6397  10.6548  10.6631
    10.6739  10.6955  10.7124  10.7211  10.7611  10.7773  10.8159  10.8795
    10.9210  10.9715  10.9955  11.0060  11.0436  11.0523  11.0585  11.0728
    11.0754  11.0873  11.1056  11.1356  11.1437  11.1610  11.1837  11.1943
    11.2139  11.2371  11.2514  11.2528  11.2556  11.2561  11.2569  11.2672
    11.2680  11.2717  11.2779  11.2842  11.2963  11.3008  11.3010  11.3012
    11.3127  11.3162  11.3246  11.3264  11.5279  11.5993  11.7051  11.7140
    11.7145  11.7160  11.7182  11.7244  11.7272  11.7303  11.7361  11.7624
    11.7643  11.7663  11.7714  11.8072  11.8111  11.8130  11.8460  11.9348
    11.9367  11.9668  11.9691  12.0049  12.0383  12.0437  12.0553  12.0683
    12.1523  12.1540  12.2119  12.2449  12.2519  12.2769  12.3158  12.3812
    12.4105  12.4160  12.4337  12.4404  12.4521  12.4778  12.4894  12.4988
    12.5062  12.5090  12.5301  12.5368  12.5420  12.5626  12.5717  12.6231
    12.6231  12.6763  12.7441  12.7787  12.7809  12.8074  12.8671  12.8709
    12.9587  13.0049  13.0389  13.0987  13.1462  13.1577  13.1754  13.2087
    13.2159  13.2247  13.3051  13.4258  13.4849  13.5157  13.6331  13.7065
    13.9644  13.9716  13.9756  14.0744  14.1192  14.1402  14.2824  14.3106
    14.5730  14.8968  14.9132  14.9359  14.9581  15.0349  15.0967  15.1094
    15.1660  15.1695  15.2252  15.2533  15.3343  15.3545  15.3667  15.5375
    15.6174  15.6876  15.7168  15.7464  15.8136  15.9070  15.9169  16.0557
    16.0850  16.0903  16.1154  16.1369  16.1660  16.1842  16.1971  16.2029
    16.2125  16.2265  16.2419  16.2704  16.2728  16.2927  16.2991  16.3371
    16.3586  16.4590  16.4778  16.5282  16.6655  16.7138  16.7397  16.7588
    16.8828  16.8895  17.2166  17.2973  17.3392  17.3931  17.5178  17.5617
    17.5637  17.5845  17.6424  17.6763  17.7320  17.7382  17.8417  17.8721
    17.9158  17.9723  18.1037  18.1987  18.2137  18.2622  18.3104  18.3574

          k = 0.0000-0.5000 0.0000 ( 31722 PWs)   bands (ev):

   -66.7872 -66.7462 -66.7446 -66.6840 -66.6692 -66.6643 -66.6371 -66.6031
   -66.5530 -62.4202 -62.4091 -62.3733 -62.3644 -62.3576 -62.3522 -62.3408
   -62.3391 -62.2864 -35.5464 -35.5243 -35.5178 -35.5082 -35.4991 -35.4962
   -35.4951 -35.4686 -35.4627 -35.4438 -35.4263 -35.4259 -35.4233 -35.4210
   -35.4127 -35.4119 -35.3985 -35.3929 -35.3926 -35.3882 -35.3598 -35.3520
   -35.3472 -35.3340 -35.3137 -35.2951 -35.2875 -31.2583 -31.2528 -31.2469
   -31.2327 -31.2266 -31.2261 -31.2170 -31.2044 -31.1976 -31.1952 -31.1942
   -31.1929 -31.1807 -31.1800 -31.1782 -31.1780 -31.1766 -31.1732 -31.1724
   -31.1669 -31.1629 -31.1583 -31.1563 -31.1445 -31.1364 -31.1115 -31.0918
     6.0268   6.0582   7.4015   7.4406   7.4546   7.4915   7.6706   7.6805
     8.1029   8.1177   8.1435   8.1693   8.1991   8.2346   8.2441   8.2741
     8.3851   8.4296   8.4493   8.4852   8.6130   8.6224   8.6491   8.6516
     8.6721   8.6776   8.6889   8.7044   8.7532   8.8038   8.8163   8.8301
     8.8554   8.8661   8.8713   8.8920   8.9058   8.9100   8.9177   8.9204
     8.9268   8.9294   8.9358   8.9532   9.0427   9.0552   9.1551   9.1752
     9.1942   9.2018   9.2084   9.2294   9.2340   9.2407   9.3127   9.3340
     9.3563   9.3719   9.3774   9.4138   9.4733   9.4750   9.4893   9.5084
     9.5279   9.5377   9.5604   9.5738   9.5780   9.5951   9.6093   9.6153
     9.6177   9.6219   9.6291   9.6362   9.6366   9.6391   9.6416   9.6460
     9.6533   9.6646   9.6709   9.6800   9.6989   9.7081   9.7172   9.7355
     9.7500   9.7540   9.7565   9.7745   9.8963   9.9022   9.9154   9.9851
    10.0072  10.0437  10.1527  10.1937  10.2093  10.2248  10.2491  10.2537
    10.2669  10.2706  10.2730  10.2747  10.2840  10.2854  10.3319  10.3556
    10.3599  10.3787  10.3840  10.3937  10.4217  10.4408  10.4513  10.4822
    10.4872  10.5096  10.5269  10.5460  10.5555  10.5776  10.5862  10.5886
    10.5981  10.6578  10.6728  10.6916  10.7090  10.7232  10.7547  10.7665
    10.8008  10.8172  10.8303  10.8489  10.8540  10.8747  10.8908  10.9318
    10.9578  10.9977  11.0214  11.0334  11.0443  11.0950  11.1652  11.1831
    11.2942  11.3453  11.3493  11.3668  11.3714  11.3824  11.4041  11.4067
    11.4180  11.4457  11.4630  11.4845  11.4911  11.5311  11.5367  11.5559
    11.5713  11.6041  11.6107  11.6189  11.6339  11.6475  11.6939  11.7454
    11.7510  11.7715  11.7888  11.7939  11.8158  11.8325  11.8480  11.8636
    11.8654  11.8910  11.9069  11.9167  11.9403  11.9571  11.9602  11.9710
    11.9759  11.9801  11.9829  12.0139  12.0942  12.1410  12.1469  12.1581
    12.1882  12.1922  12.2008  12.2338  12.2399  12.2484  12.2673  12.2752
    12.2799  12.2908  12.3468  12.3478  12.3607  12.3952  12.4017  12.4197
    12.4345  12.4462  12.4563  12.4615  12.4798  12.4949  12.5542  12.5719
    12.5889  12.5934  12.6054  12.6353  12.6442  12.6802  12.7020  12.7968
    12.8844  12.9453  12.9718  13.0073  13.0443  13.0685  13.1036  13.1302
    13.1377  13.1995  13.2198  13.2248  13.2751  13.2805  13.3147  13.3297
    13.4424  13.4646  13.5127  13.6699  13.6775  14.3219  14.4529  14.5463
    14.6321  14.7405  14.8223  14.8324  14.8477  14.9001  14.9414  14.9659
    14.9981  15.1524  15.2178  15.3216  15.3236  15.4415  15.5078  15.5216
    15.6532  15.7147  15.7684  15.8116  15.8452  15.8649  15.8958  15.9597
    16.0183  16.0361  16.0511  16.1066  16.1218  16.1277  16.1603  16.1797
    16.2028  16.2173  16.2208  16.2714  16.2952  16.3028  16.3791  16.3915
    16.3962  16.5070  16.5535  16.6418  16.6939  16.8131  17.0181  17.0634
    17.1642  17.2162  17.2351  17.3326  17.3790  17.5037  17.6071  17.6305
    17.6621  17.7364  17.8004  17.8271  17.8429  17.8554  17.9499  17.9518
    18.0115  18.0695  18.1541  18.2258  19.2526  19.3160  19.3164  19.3412

          k = 0.0000-0.5000-0.5734 ( 31696 PWs)   bands (ev):

   -66.7872 -66.7462 -66.7446 -66.6840 -66.6692 -66.6643 -66.6371 -66.6031
   -66.5530 -62.4202 -62.4091 -62.3733 -62.3644 -62.3576 -62.3522 -62.3408
   -62.3391 -62.2864 -35.5464 -35.5243 -35.5178 -35.5082 -35.4991 -35.4962
   -35.4951 -35.4686 -35.4627 -35.4438 -35.4263 -35.4259 -35.4233 -35.4210
   -35.4127 -35.4119 -35.3985 -35.3929 -35.3926 -35.3882 -35.3598 -35.3520
   -35.3472 -35.3340 -35.3137 -35.2951 -35.2875 -31.2583 -31.2528 -31.2469
   -31.2327 -31.2266 -31.2261 -31.2170 -31.2044 -31.1976 -31.1952 -31.1942
   -31.1929 -31.1807 -31.1800 -31.1782 -31.1780 -31.1766 -31.1732 -31.1724
   -31.1669 -31.1629 -31.1583 -31.1563 -31.1445 -31.1364 -31.1115 -31.0918
     6.5187   6.5782   6.5937   6.6443   7.8328   7.8435   7.8566   7.8721
     7.9104   7.9224   7.9322   7.9462   8.2667   8.2780   8.2978   8.3042
     8.5099   8.5228   8.5353   8.5374   8.6572   8.6743   8.6799   8.6868
     8.6884   8.6907   8.7013   8.7114   8.7187   8.7397   8.7424   8.7499
     8.7535   8.7735   8.7814   8.8167   8.9431   9.0048   9.0076   9.0314
     9.0388   9.0518   9.0555   9.0696   9.1745   9.2030   9.2127   9.2154
     9.2219   9.2226   9.2295   9.2331   9.2454   9.2460   9.2510   9.2521
     9.2651   9.2726   9.2816   9.2857   9.2957   9.3579   9.3810   9.4044
     9.4073   9.4226   9.4518   9.4589   9.4626   9.4674   9.4677   9.4791
     9.4825   9.4969   9.5126   9.5233   9.5242   9.5507   9.5539   9.5578
     9.5675   9.6118   9.7526   9.7588   9.7880   9.7932   9.8085   9.8151
     9.8345   9.8352   9.8524   9.8532   9.8572   9.8615   9.8636   9.8856
     9.9469   9.9634   9.9975  10.0028  10.0331  10.0409  10.0559  10.0629
    10.3556  10.3771  10.3880  10.3919  10.4041  10.4174  10.4298  10.4315
    10.4651  10.4771  10.4784  10.4797  10.4824  10.4907  10.4962  10.5127
    10.5398  10.5582  10.5638  10.5795  10.5915  10.5957  10.6176  10.6258
    10.6652  10.6661  10.6746  10.6764  10.6768  10.6846  10.7119  10.7186
    10.7386  10.8212  10.8485  10.8713  10.9728  10.9907  11.0256  11.0815
    11.1139  11.1301  11.1365  11.1557  11.1810  11.1862  11.1916  11.2029
    11.2100  11.2130  11.2786  11.3385  11.3437  11.3449  11.3622  11.3741
    11.3785  11.3921  11.4100  11.4142  11.4439  11.4799  11.4883  11.5153
    11.5189  11.5543  11.5667  11.5687  11.5760  11.5781  11.6087  11.6145
    11.6384  11.6416  11.7152  11.7203  11.7537  11.7606  11.7951  11.8393
    11.8842  11.9115  11.9134  11.9472  11.9633  11.9684  12.0027  12.0033
    12.0150  12.0209  12.0292  12.0351  12.0380  12.0421  12.1099  12.1190
    12.1597  12.1722  12.1985  12.2200  12.2548  12.2960  12.2966  12.3516
    12.3619  12.3685  12.3868  12.4007  12.4416  12.4500  12.4566  12.4901
    12.5010  12.5083  12.5128  12.5130  12.5201  12.5526  12.5803  12.5810
    12.6357  12.6382  12.6444  12.6556  12.7069  12.7081  12.7611  12.7939
    12.8439  12.8499  12.9384  12.9438  12.9822  12.9975  13.0261  13.0392
    13.1889  13.2566  13.4130  13.5200  13.5313  13.6697  13.7098  13.7527
    13.9028  14.0164  14.0192  14.0949  14.1057  14.1439  14.2183  14.3104
    14.3353  14.5391  14.5675  14.5795  14.5826  14.7054  14.7571  15.0151
    15.0796  15.2717  15.3017  15.3360  15.3645  15.4496  15.5241  15.5575
    15.6286  15.6651  15.7611  15.7697  15.8639  15.8700  15.9221  16.0147
    16.0571  16.1021  16.1075  16.1585  16.1639  16.1777  16.2216  16.2330
    16.2596  16.2852  16.3050  16.3129  16.3284  16.3643  16.3644  16.4635
    16.5034  16.5653  16.5669  16.5946  16.6307  16.6463  16.6956  16.7010
    16.7633  16.7692  16.8162  16.8717  16.8785  16.8999  16.9875  16.9877
    17.0821  17.1543  17.1557  17.2206  18.6002  18.6937  18.7112  18.7375
    18.7468  18.7785  18.7896  18.8488  18.8928  18.9089  18.9532  19.0052

          k =-0.5000-0.5000 0.0000 ( 31612 PWs)   bands (ev):

   -66.7872 -66.7462 -66.7446 -66.6840 -66.6692 -66.6643 -66.6371 -66.6031
   -66.5530 -62.4202 -62.4091 -62.3733 -62.3644 -62.3576 -62.3522 -62.3408
   -62.3391 -62.2864 -35.5464 -35.5243 -35.5179 -35.5082 -35.4990 -35.4962
   -35.4951 -35.4686 -35.4627 -35.4438 -35.4263 -35.4259 -35.4233 -35.4210
   -35.4127 -35.4119 -35.3985 -35.3929 -35.3926 -35.3882 -35.3598 -35.3520
   -35.3472 -35.3340 -35.3137 -35.2951 -35.2875 -31.2583 -31.2528 -31.2469
   -31.2327 -31.2266 -31.2261 -31.2170 -31.2044 -31.1976 -31.1952 -31.1942
   -31.1929 -31.1807 -31.1800 -31.1782 -31.1780 -31.1765 -31.1729 -31.1724
   -31.1672 -31.1629 -31.1583 -31.1563 -31.1445 -31.1364 -31.1115 -31.0918
     6.4140   6.4329   6.4380   6.4750   8.0082   8.0154   8.0208   8.0224
     8.0886   8.1231   8.2960   8.3218   8.3271   8.3335   8.3402   8.3461
     8.3508   8.3534   8.3540   8.3595   8.3649   8.3862   8.5680   8.5995
     8.6494   8.6653   8.6768   8.6960   8.7152   8.7236   8.7352   8.7440
     8.7494   8.7963   8.9164   8.9202   8.9747   8.9751   8.9774   8.9780
     8.9834   8.9908   8.9938   9.0025   9.0040   9.0336   9.0411   9.0472
     9.1101   9.1346   9.3061   9.3127   9.3168   9.3228   9.4014   9.4088
     9.4155   9.4173   9.4198   9.4264   9.4276   9.4318   9.4473   9.4558
     9.4614   9.4757   9.4758   9.4812   9.4840   9.4854   9.4927   9.5048
     9.5163   9.5193   9.5299   9.5400   9.5425   9.5677   9.5753   9.5959
     9.5984   9.6102   9.6973   9.6997   9.7685   9.8175   9.8248   9.8255
     9.8318   9.8335   9.8348   9.8395   9.8444   9.8677  10.0445  10.0619
    10.0737  10.1047  10.1117  10.1285  10.1384  10.1405  10.1563  10.1729
    10.1789  10.1923  10.2023  10.2041  10.2154  10.2202  10.2262  10.2286
    10.2319  10.2371  10.2487  10.2534  10.4562  10.4702  10.4883  10.4920
    10.4960  10.4997  10.5044  10.5367  10.6297  10.6369  10.6400  10.6481
    10.6638  10.6686  10.6725  10.6770  10.6909  10.6927  10.6949  10.7037
    10.7142  10.7327  10.7895  10.8114  10.8299  10.8420  10.8631  10.8803
    10.9234  10.9363  11.1968  11.2094  11.2127  11.2228  11.3072  11.3120
    11.3366  11.3411  11.3476  11.3588  11.3972  11.3995  11.5438  11.5517
    11.5867  11.6242  11.6339  11.6404  11.6407  11.6433  11.6466  11.6486
    11.6522  11.6526  11.6958  11.7225  11.7347  11.7529  11.7605  11.8520
    11.8728  11.8765  11.8785  11.8804  11.8834  11.8884  11.9896  12.0135
    12.0212  12.0262  12.0766  12.0899  12.0913  12.1056  12.1093  12.1098
    12.1111  12.1143  12.1154  12.1195  12.1378  12.1506  12.1706  12.1795
    12.1872  12.1872  12.2022  12.2059  12.2192  12.2240  12.2334  12.2443
    12.2542  12.2633  12.2777  12.2834  12.2850  12.2931  12.3026  12.3214
    12.3769  12.4281  12.4401  12.4467  12.4696  12.4769  12.4843  12.4943
    12.5112  12.5355  12.5727  12.5812  12.5989  12.6187  12.6377  12.6825
    12.7139  12.7457  12.7981  12.8813  12.8877  12.9143  12.9539  12.9556
    12.9617  12.9636  12.9885  13.0278  13.0725  13.5527  13.6722  13.6743
    13.7219  13.7975  13.8134  13.8276  13.8827  13.9299  14.0341  14.0971
    14.1822  14.2777  14.2955  14.3433  14.5238  14.6607  14.8653  14.8899
    15.0980  15.1949  15.1982  15.2951  15.3746  15.5127  15.5672  15.7355
    15.7953  15.7978  15.8469  15.8710  15.8864  15.8893  15.9179  15.9375
    15.9450  15.9567  15.9928  16.0075  16.0904  16.1274  16.1333  16.1631
    16.1890  16.2546  16.3163  16.3552  16.3605  16.3871  16.4010  16.4136
    16.4660  16.4695  16.5007  16.6650  16.6842  16.7090  16.7256  16.7503
    16.7848  16.8229  16.9196  16.9728  17.3837  17.3923  17.6340  18.0225
    18.1460  18.1982  18.2045  18.2373  18.2804  18.4482  18.4688  18.5371
    18.5927  18.6202  18.6560  18.6725  18.7711  18.7861  18.7939  18.8030

          k =-0.5000-0.5000-0.5734 ( 31672 PWs)   bands (ev):

   -66.7872 -66.7462 -66.7446 -66.6840 -66.6692 -66.6643 -66.6371 -66.6031
   -66.5530 -62.4202 -62.4091 -62.3733 -62.3644 -62.3576 -62.3522 -62.3408
   -62.3391 -62.2864 -35.5464 -35.5243 -35.5179 -35.5082 -35.4990 -35.4962
   -35.4951 -35.4685 -35.4627 -35.4438 -35.4263 -35.4259 -35.4233 -35.4210
   -35.4127 -35.4119 -35.3985 -35.3929 -35.3926 -35.3882 -35.3598 -35.3520
   -35.3472 -35.3340 -35.3137 -35.2951 -35.2875 -31.2583 -31.2528 -31.2469
   -31.2327 -31.2266 -31.2261 -31.2170 -31.2044 -31.1976 -31.1952 -31.1942
   -31.1929 -31.1807 -31.1800 -31.1782 -31.1780 -31.1765 -31.1729 -31.1724
   -31.1672 -31.1629 -31.1583 -31.1563 -31.1445 -31.1364 -31.1115 -31.0918
     6.8808   6.9143   6.9230   6.9467   6.9973   7.0156   7.0262   7.0474
     8.4447   8.4670   8.4705   8.4815   8.4873   8.4919   8.4925   8.4953
     8.4983   8.5009   8.5130   8.5160   8.5373   8.5415   8.5441   8.5708
     8.5741   8.5781   8.5835   8.6215   8.8744   8.8746   8.8897   8.8921
     8.8976   8.9199   8.9368   8.9413   9.0824   9.1027   9.1163   9.1228
     9.1243   9.1419   9.1466   9.1491   9.1544   9.1565   9.1601   9.1630
     9.1661   9.1679   9.1709   9.1727   9.1729   9.1749   9.1768   9.1794
     9.1798   9.1822   9.1945   9.1994   9.2006   9.2055   9.2098   9.2138
     9.2268   9.2321   9.2431   9.2451   9.2574   9.2612   9.2651   9.2832
     9.5453   9.5492   9.5579   9.5704   9.5769   9.5961   9.6037   9.6264
     9.6421   9.6639   9.6752   9.6755   9.7299   9.7402   9.7530   9.7871
     9.8133   9.8261   9.8426   9.8569   9.8799   9.8842   9.8910   9.8974
    10.1133  10.1208  10.1495  10.1540  10.1651  10.1721  10.1902  10.1985
    10.2835  10.3222  10.4369  10.4578  10.4589  10.4680  10.4806  10.4815
    10.4866  10.4869  10.4940  10.4995  10.5032  10.5114  10.5132  10.5193
    10.5234  10.5247  10.5415  10.5462  10.5696  10.5702  10.5865  10.6012
    10.6015  10.6267  10.6385  10.6386  10.6523  10.6551  10.6662  10.6845
    10.6865  10.6880  10.6991  10.7109  10.7147  10.7279  11.0190  11.0419
    11.0711  11.0793  11.0804  11.0859  11.1273  11.1433  11.3789  11.3873
    11.3905  11.3995  11.4022  11.4328  11.4385  11.4441  11.4554  11.4793
    11.4796  11.4905  11.5010  11.5043  11.5168  11.5451  11.6058  11.6212
    11.6412  11.6479  11.6527  11.6685  11.6734  11.6955  11.6973  11.7181
    11.7215  11.7274  11.7343  11.7607  11.7648  11.7672  11.7791  11.7834
    11.8028  11.8083  11.8185  11.8331  11.8369  11.9421  11.9637  12.0013
    12.0176  12.0262  12.0885  12.1036  12.1206  12.1304  12.1366  12.1482
    12.1585  12.2037  12.2084  12.2206  12.2391  12.2480  12.2704  12.3191
    12.3566  12.3735  12.4050  12.4267  12.4354  12.4464  12.4469  12.4504
    12.4776  12.4975  12.5073  12.5330  12.5435  12.5533  12.5870  12.6231
    12.6446  12.6714  12.6740  12.6779  12.7012  12.7623  12.7905  12.8041
    12.9121  12.9505  12.9650  12.9730  13.0556  13.1273  13.1501  13.1866
    13.2477  13.2747  13.2918  13.3317  13.3591  13.4959  13.4986  13.5031
    13.5163  13.6037  13.7630  13.7882  13.9129  14.0539  14.0837  14.1608
    14.1872  14.2088  14.4154  14.5532  14.6916  14.7529  14.8627  14.9608
    14.9735  15.3060  15.3162  15.3651  15.4303  15.6225  15.6511  15.6558
    15.7039  15.7220  15.7611  15.8395  15.8623  15.8683  15.9107  15.9484
    15.9622  15.9922  16.0846  16.1187  16.1392  16.1546  16.1625  16.2119
    16.2182  16.2510  16.2816  16.3597  16.4132  16.4421  16.4602  16.4901
    16.5222  16.5466  16.5779  16.6102  16.6475  16.6832  16.6897  16.7308
    16.7404  16.8210  16.8475  16.8877  16.9049  16.9489  16.9937  17.0241
    17.0883  17.1186  17.5903  17.7493  17.9083  17.9588  18.9988  19.0091
    19.0202  19.0634  19.0679  19.1068  19.1733  19.2040  19.2708  19.2860

          k =-0.5000 0.0000 0.0000 ( 31722 PWs)   bands (ev):

   -66.7872 -66.7462 -66.7446 -66.6840 -66.6692 -66.6643 -66.6371 -66.6031
   -66.5530 -62.4202 -62.4091 -62.3733 -62.3644 -62.3576 -62.3522 -62.3408
   -62.3391 -62.2864 -35.5464 -35.5243 -35.5179 -35.5082 -35.4990 -35.4962
   -35.4951 -35.4685 -35.4627 -35.4438 -35.4263 -35.4259 -35.4233 -35.4210
   -35.4127 -35.4119 -35.3985 -35.3929 -35.3926 -35.3882 -35.3598 -35.3520
   -35.3472 -35.3340 -35.3137 -35.2951 -35.2875 -31.2581 -31.2525 -31.2476
   -31.2328 -31.2266 -31.2260 -31.2170 -31.2044 -31.1976 -31.1952 -31.1941
   -31.1929 -31.1807 -31.1800 -31.1782 -31.1780 -31.1765 -31.1729 -31.1724
   -31.1672 -31.1629 -31.1583 -31.1563 -31.1445 -31.1364 -31.1115 -31.0918
     6.0277   6.0576   7.4070   7.4319   7.4474   7.5006   7.6718   7.6799
     8.1019   8.1158   8.1424   8.1742   8.1935   8.2344   8.2525   8.2755
     8.3930   8.4114   8.4482   8.4948   8.6111   8.6290   8.6394   8.6514
     8.6685   8.6795   8.6843   8.7146   8.7555   8.8034   8.8243   8.8381
     8.8530   8.8644   8.8698   8.8776   8.9026   8.9066   8.9151   8.9191
     8.9270   8.9346   8.9378   8.9577   9.0461   9.0528   9.1562   9.1708
     9.1827   9.2037   9.2128   9.2236   9.2405   9.2442   9.3145   9.3342
     9.3451   9.3668   9.3866   9.4193   9.4710   9.4774   9.4876   9.4991
     9.5319   9.5356   9.5580   9.5733   9.5849   9.6052   9.6121   9.6160
     9.6193   9.6219   9.6270   9.6310   9.6319   9.6372   9.6467   9.6476
     9.6559   9.6600   9.6711   9.6793   9.7053   9.7115   9.7117   9.7356
     9.7367   9.7417   9.7715   9.7797   9.8929   9.9052   9.9152   9.9825
    10.0174  10.0334  10.1499  10.1973  10.2098  10.2244  10.2488  10.2551
    10.2678  10.2686  10.2696  10.2723  10.2862  10.2902  10.3359  10.3518
    10.3692  10.3786  10.3843  10.3915  10.4209  10.4413  10.4555  10.4772
    10.4946  10.5126  10.5261  10.5291  10.5580  10.5689  10.5787  10.5962
    10.6044  10.6515  10.6859  10.6883  10.7180  10.7363  10.7459  10.7625
    10.8070  10.8242  10.8271  10.8495  10.8532  10.8723  10.8850  10.9331
    10.9520  11.0070  11.0146  11.0197  11.0482  11.0945  11.1675  11.1882
    11.2840  11.3458  11.3496  11.3596  11.3746  11.3916  11.4060  11.4080
    11.4220  11.4572  11.4638  11.4726  11.4904  11.5176  11.5495  11.5503
    11.5689  11.5904  11.6030  11.6302  11.6424  11.6680  11.6884  11.7352
    11.7417  11.7664  11.7849  11.8066  11.8191  11.8472  11.8519  11.8697
    11.8757  11.8830  11.9099  11.9283  11.9345  11.9527  11.9552  11.9636
    11.9784  11.9789  11.9907  12.0122  12.0767  12.1144  12.1565  12.1697
    12.1937  12.1995  12.2125  12.2308  12.2414  12.2477  12.2653  12.2769
    12.2874  12.2916  12.3018  12.3411  12.3418  12.3909  12.4008  12.4164
    12.4364  12.4604  12.4623  12.4835  12.4922  12.5103  12.5224  12.5596
    12.5887  12.6051  12.6156  12.6159  12.6392  12.7115  12.7448  12.7612
    12.8298  12.9301  12.9777  13.0101  13.0536  13.0594  13.1375  13.1547
    13.1600  13.1890  13.2036  13.2292  13.2488  13.2859  13.3182  13.3362
    13.4531  13.4619  13.4969  13.6667  13.6732  14.3142  14.5351  14.5842
    14.6581  14.7334  14.7720  14.7738  14.8290  14.8835  14.9186  14.9588
    15.0442  15.0746  15.1590  15.3054  15.4306  15.4626  15.5461  15.5647
    15.6891  15.7159  15.7506  15.7738  15.8369  15.8647  15.9244  16.0015
    16.0352  16.0441  16.0606  16.0703  16.0920  16.1353  16.1678  16.1837
    16.1901  16.2127  16.2209  16.2346  16.2395  16.2483  16.3696  16.4270
    16.4576  16.4842  16.5324  16.6582  16.7195  16.8350  16.9639  17.0473
    17.1581  17.2065  17.2444  17.3203  17.4390  17.5269  17.6131  17.6258
    17.7092  17.7765  17.7877  17.8043  17.8161  17.8304  17.9306  17.9528
    18.0217  18.0368  18.1583  18.2457  19.2415  19.3201  19.3244  19.3401

          k =-0.5000 0.0000 0.5734 ( 31696 PWs)   bands (ev):

   -66.7872 -66.7462 -66.7446 -66.6840 -66.6692 -66.6643 -66.6371 -66.6031
   -66.5530 -62.4202 -62.4091 -62.3733 -62.3644 -62.3576 -62.3522 -62.3408
   -62.3391 -62.2864 -35.5464 -35.5243 -35.5179 -35.5082 -35.4990 -35.4962
   -35.4951 -35.4685 -35.4627 -35.4438 -35.4263 -35.4259 -35.4233 -35.4210
   -35.4127 -35.4119 -35.3985 -35.3929 -35.3926 -35.3882 -35.3598 -35.3520
   -35.3472 -35.3340 -35.3137 -35.2951 -35.2875 -31.2581 -31.2525 -31.2476
   -31.2328 -31.2266 -31.2260 -31.2170 -31.2044 -31.1976 -31.1952 -31.1941
   -31.1929 -31.1807 -31.1800 -31.1782 -31.1780 -31.1765 -31.1729 -31.1724
   -31.1672 -31.1629 -31.1583 -31.1563 -31.1445 -31.1364 -31.1115 -31.0918
     6.5233   6.5832   6.5885   6.6391   7.8311   7.8522   7.8606   7.8694
     7.9094   7.9194   7.9299   7.9438   8.2663   8.2801   8.2985   8.3030
     8.5104   8.5244   8.5343   8.5360   8.6532   8.6751   8.6755   8.6844
     8.6909   8.6975   8.6998   8.7113   8.7163   8.7368   8.7372   8.7512
     8.7580   8.7786   8.7815   8.8176   8.9471   9.0040   9.0052   9.0341
     9.0367   9.0507   9.0543   9.0687   9.1867   9.2017   9.2123   9.2165
     9.2218   9.2218   9.2330   9.2343   9.2427   9.2432   9.2537   9.2556
     9.2618   9.2784   9.2809   9.2861   9.2900   9.3451   9.3807   9.4023
     9.4083   9.4222   9.4513   9.4577   9.4651   9.4664   9.4680   9.4789
     9.4882   9.5041   9.5096   9.5159   9.5276   9.5458   9.5545   9.5557
     9.5670   9.6072   9.7530   9.7587   9.7882   9.7927   9.8084   9.8151
     9.8303   9.8391   9.8479   9.8565   9.8590   9.8606   9.8723   9.8882
     9.9438   9.9679   9.9866  10.0014  10.0299  10.0461  10.0546  10.0688
    10.3650  10.3827  10.3994  10.3998  10.4112  10.4209  10.4264  10.4322
    10.4473  10.4721  10.4820  10.4833  10.4854  10.4894  10.4965  10.5039
    10.5309  10.5402  10.5731  10.5752  10.5833  10.5900  10.6227  10.6385
    10.6599  10.6613  10.6712  10.6722  10.6750  10.6907  10.7181  10.7214
    10.7407  10.8211  10.8498  10.8786  10.9678  10.9890  11.0332  11.0908
    11.1128  11.1288  11.1305  11.1533  11.1849  11.1910  11.1917  11.2027
    11.2105  11.2128  11.2838  11.3167  11.3318  11.3421  11.3633  11.3723
    11.3777  11.4000  11.4073  11.4231  11.4426  11.4779  11.4860  11.5162
    11.5260  11.5546  11.5720  11.5779  11.5805  11.5884  11.6007  11.6222
    11.6282  11.6318  11.7161  11.7265  11.7504  11.7608  11.8008  11.8389
    11.8830  11.9114  11.9294  11.9409  11.9504  11.9604  11.9996  12.0035
    12.0132  12.0279  12.0330  12.0367  12.0408  12.0441  12.0997  12.1133
    12.1545  12.1721  12.1883  12.2341  12.2499  12.2912  12.3031  12.3325
    12.3534  12.3618  12.3956  12.4015  12.4359  12.4512  12.4591  12.4632
    12.4893  12.5031  12.5268  12.5399  12.5585  12.5901  12.5921  12.6078
    12.6153  12.6380  12.6526  12.6556  12.6674  12.6888  12.8044  12.8114
    12.8338  12.8474  12.8937  12.9359  13.0147  13.0193  13.0217  13.0262
    13.2000  13.2087  13.3928  13.4415  13.5206  13.6261  13.7530  13.7638
    13.9517  13.9610  14.0327  14.1093  14.1557  14.2118  14.2550  14.3279
    14.4644  14.4735  14.5413  14.5695  14.6107  14.6125  14.6878  15.0211
    15.1011  15.1909  15.2841  15.3736  15.3856  15.4282  15.5398  15.5602
    15.6276  15.6814  15.7052  15.7525  15.7684  15.9681  16.0181  16.0575
    16.0775  16.0943  16.1349  16.1480  16.1706  16.1821  16.1883  16.2194
    16.2622  16.2699  16.2849  16.3134  16.3316  16.3781  16.4022  16.4870
    16.4876  16.5242  16.5421  16.5523  16.5809  16.6442  16.6971  16.7061
    16.7319  16.7828  16.8324  16.8618  16.8952  16.9769  16.9880  17.0149
    17.1012  17.1283  17.1411  17.2039  18.6033  18.6921  18.7036  18.7350
    18.7615  18.7805  18.8210  18.8486  18.8803  18.9028  18.9436  18.9689

     the Fermi energy is    14.8166 ev

!    total energy              =  -33062.60548224 Ry
     Harris-Foulkes estimate   =  -33062.60546195 Ry
     estimated scf accuracy    <       0.00000065 Ry

     total all-electron energy =  -1410574.695857 Ry

     The total energy is the sum of the following terms:

     one-electron contribution =   -1645.74135437 Ry
     hartree contribution      =    1489.94350121 Ry
     xc contribution           =   -1658.74371045 Ry
     ewald contribution        =   -4919.25534656 Ry
     one-center paw contrib.   =  -26328.80857207 Ry

     total magnetization       =     0.00 Bohr mag/cell
     absolute magnetization    =    78.65 Bohr mag/cell

     convergence has been achieved in  21 iterations

     Writing output data file mnau2.save
 
     init_run     :     53.03s CPU     53.81s WALL (       1 calls)
     electrons    :   3127.63s CPU   3180.74s WALL (       1 calls)

     Called by init_run:
     wfcinit      :     47.03s CPU     47.56s WALL (       1 calls)
     potinit      :      2.51s CPU      2.55s WALL (       1 calls)

     Called by electrons:
     c_bands      :   2776.97s CPU   2819.74s WALL (      21 calls)
     sum_band     :    295.29s CPU    302.01s WALL (      21 calls)
     v_of_rho     :      5.66s CPU      5.82s WALL (      22 calls)
     newd         :     17.89s CPU     20.44s WALL (      22 calls)
     PAW_pot      :     32.61s CPU     33.06s WALL (      22 calls)
     mix_rho      :      1.12s CPU      1.22s WALL (      21 calls)

     Called by c_bands:
     init_us_2    :     10.40s CPU     10.46s WALL (     688 calls)
     cegterg      :   2711.50s CPU   2753.25s WALL (     336 calls)

     Called by sum_band:
     sum_band:bec :      1.62s CPU      1.63s WALL (     336 calls)
     addusdens    :     31.78s CPU     34.91s WALL (      21 calls)

     Called by *egterg:
     h_psi        :    982.14s CPU    991.89s WALL (    1263 calls)
     s_psi        :    233.93s CPU    234.06s WALL (    1263 calls)
     g_psi        :      3.62s CPU      3.63s WALL (     911 calls)
     cdiaghg      :    945.76s CPU    946.33s WALL (    1247 calls)

     Called by h_psi:
     h_psi:pot    :    973.05s CPU    982.74s WALL (    1263 calls)
     h_psi:calbec :    234.33s CPU    236.35s WALL (    1263 calls)
     vloc_psi     :    502.97s CPU    510.34s WALL (    1263 calls)
     add_vuspsi   :    235.73s CPU    236.03s WALL (    1263 calls)

     General routines
     calbec       :    334.75s CPU    337.86s WALL (    1599 calls)
     fft          :      4.81s CPU      5.14s WALL (     672 calls)
     ffts         :      0.13s CPU      0.13s WALL (      86 calls)
     fftw         :    476.11s CPU    483.12s WALL (  751806 calls)
     interpolate  :      0.82s CPU      0.88s WALL (      86 calls)
 
     Parallel routines
     fft_scatt_xy :     57.33s CPU     57.96s WALL (  752564 calls)
     fft_scatt_yz :    115.98s CPU    119.11s WALL (  752564 calls)
 
     PWSCF        : 53m 6.11s CPU    54m16.22s WALL

 
   This run was terminated on:   0:21:53   6Mar2019            

=------------------------------------------------------------------------------=
   JOB DONE.
=------------------------------------------------------------------------------=
