
     Program PWSCF v.6.2 (svn rev. 14038) starts on  3Mar2019 at 21:50:36 

     This program is part of the open-source Quantum ESPRESSO suite
     for quantum simulation of materials; please cite
         "P. Giannozzi et al., J. Phys.:Condens. Matter 21 395502 (2009);
         "P. Giannozzi et al., J. Phys.:Condens. Matter 29 465901 (2017);
          URL http://www.quantum-espresso.org", 
     in publications or presentations arising from this work. More details at
     http://www.quantum-espresso.org/quote

     Parallel version (MPI), running on    16 processors

     MPI processes distributed on     1 nodes
     R & G space division:  proc/nbgrp/npool/nimage =      16
     Waiting for input...
     Reading input from standard input

     Current dimensions of program PWSCF are:
     Max number of different atomic species (ntypx) = 10
     Max number of k-points (npk) =  40000
     Max angular momentum in pseudopotentials (lmaxx) =  3
               file Mn.pbe-spn-kjpaw_psl.0.3.1.UPF: wavefunction(s)  3P 3D renormalized
               file Mn.pbe-spn-kjpaw_psl.0.3.1.UPF: wavefunction(s)  3P 3D renormalized
               file Au.pbe-dn-kjpaw_psl.0.1.UPF: wavefunction(s)  6S 6P 5D renormalized

     Subspace diagonalization in iterative solution of the eigenvalue problem:
     a serial algorithm will be used

 
     Parallelization info
     --------------------
     sticks:   dense  smooth     PW     G-vecs:    dense   smooth      PW
     Min         736     331     90                52486    15847    2256
     Max         737     332     91                52489    15850    2259
     Sum       11785    5297   1449               839803   253559   36125
 


     bravais-lattice index     =            0
     lattice parameter (alat)  =      19.2459  a.u.
     unit-cell volume          =    6216.1497 (a.u.)^3
     number of atoms/cell      =           54
     number of atomic types    =            3
     number of electrons       =       666.00
     number of Kohn-Sham states=          400
     kinetic-energy cutoff     =      45.0000  Ry
     charge density cutoff     =     400.0000  Ry
     convergence threshold     =      1.0E-06
     mixing beta               =       0.1000
     number of iterations used =            8  plain     mixing
     Exchange-correlation      = SLA PW PBX PBC ( 1  4  3  4 0 0)

     celldm(1)=  19.245946  celldm(2)=   0.000000  celldm(3)=   0.000000
     celldm(4)=   0.000000  celldm(5)=   0.000000  celldm(6)=   0.000000

     crystal axes: (cart. coord. in units of alat)
               a(1) = (   1.000000   0.000000   0.000000 )  
               a(2) = (   0.000000   1.000000   0.000000 )  
               a(3) = (   0.000000   0.000000   0.871974 )  

     reciprocal axes: (cart. coord. in units 2 pi/alat)
               b(1) = (  1.000000  0.000000  0.000000 )  
               b(2) = (  0.000000  1.000000  0.000000 )  
               b(3) = (  0.000000  0.000000  1.146823 )  


     PseudoPot. # 1 for Mn read from file:
     ./pseudo/Mn.pbe-spn-kjpaw_psl.0.3.1.UPF
     MD5 check sum: 7eef95dd2aae66803482eea66ebeebf1
     Pseudo is Projector augmented-wave + core cor, Zval = 15.0
     Generated using "atomic" code by A. Dal Corso v.5.0.99 svn rev. 10869
     Shape of augmentation charge: PSQ
     Using radial grid of 1187 points,  6 beta functions with: 
                l(1) =   0
                l(2) =   0
                l(3) =   1
                l(4) =   1
                l(5) =   2
                l(6) =   2
     Q(r) pseudized with 0 coefficients 


     PseudoPot. # 2 for Mn read from file:
     ./pseudo/Mn.pbe-spn-kjpaw_psl.0.3.1.UPF
     MD5 check sum: 7eef95dd2aae66803482eea66ebeebf1
     Pseudo is Projector augmented-wave + core cor, Zval = 15.0
     Generated using "atomic" code by A. Dal Corso v.5.0.99 svn rev. 10869
     Shape of augmentation charge: PSQ
     Using radial grid of 1187 points,  6 beta functions with: 
                l(1) =   0
                l(2) =   0
                l(3) =   1
                l(4) =   1
                l(5) =   2
                l(6) =   2
     Q(r) pseudized with 0 coefficients 


     PseudoPot. # 3 for Au read from file:
     ./pseudo/Au.pbe-dn-kjpaw_psl.0.1.UPF
     MD5 check sum: 5c9b92683623e7ae2ab3f8e525febab6
     Pseudo is Projector augmented-wave + core cor, Zval = 11.0
     Generated using "atomic" code by A. Dal Corso v.5.0.2 svn rev. 9415
     Shape of augmentation charge: PSQ
     Using radial grid of 1279 points,  6 beta functions with: 
                l(1) =   0
                l(2) =   0
                l(3) =   1
                l(4) =   1
                l(5) =   2
                l(6) =   2
     Q(r) pseudized with 0 coefficients 


     atomic species   valence    mass     pseudopotential
        Mn1           15.00    54.93800     Mn( 1.00)
        Mn2           15.00    54.93800     Mn( 1.00)
        Au            11.00   196.96600     Au( 1.00)

     Starting magnetic structure 
     atomic species   magnetization
        Mn1          0.800
        Mn2         -0.800
        Au           0.000

      2 Sym. Ops. (no inversion) found



   Cartesian axes

     site n.     atom                  positions (alat units)
         1           Mn1 tau(   1) = (   0.0000000   0.0000000   0.0000000  )
         2           Mn1 tau(   2) = (   0.0000000   0.3333300   0.0000000  )
         3           Mn1 tau(   3) = (   0.0000000   0.6666700   0.0000000  )
         4           Mn1 tau(   4) = (   0.3333300   0.0000000   0.0000000  )
         5           Mn1 tau(   5) = (   0.3333300   0.3333300   0.0000000  )
         6           Mn1 tau(   6) = (   0.3333300   0.6666700   0.0000000  )
         7           Mn2 tau(   7) = (   0.6666700   0.0000000   0.0000000  )
         8           Mn1 tau(   8) = (   0.6666700   0.3333300   0.0000000  )
         9           Mn2 tau(   9) = (   0.6666700   0.6666700   0.0000000  )
        10           Mn2 tau(  10) = (   0.1666700   0.1666700   0.4359871  )
        11           Mn2 tau(  11) = (   0.1666700   0.5000000   0.4359871  )
        12           Mn2 tau(  12) = (   0.1666700   0.8333300   0.4359871  )
        13           Mn2 tau(  13) = (   0.5000000   0.1666700   0.4359871  )
        14           Mn2 tau(  14) = (   0.5000000   0.5000000   0.4359871  )
        15           Mn2 tau(  15) = (   0.5000000   0.8333300   0.4359871  )
        16           Mn1 tau(  16) = (   0.8333300   0.1666700   0.4359871  )
        17           Mn2 tau(  17) = (   0.8333300   0.5000000   0.4359871  )
        18           Mn1 tau(  18) = (   0.8333300   0.8333300   0.4359871  )
        19           Au  tau(  19) = (   0.1666700   0.1666700   0.7327374  )
        20           Au  tau(  20) = (   0.1666700   0.5000000   0.7327374  )
        21           Au  tau(  21) = (   0.1666700   0.8333300   0.7327374  )
        22           Au  tau(  22) = (   0.5000000   0.1666700   0.7327374  )
        23           Au  tau(  23) = (   0.5000000   0.5000000   0.7327374  )
        24           Au  tau(  24) = (   0.5000000   0.8333300   0.7327374  )
        25           Au  tau(  25) = (   0.8333300   0.1666700   0.7327374  )
        26           Au  tau(  26) = (   0.8333300   0.5000000   0.7327374  )
        27           Au  tau(  27) = (   0.8333300   0.8333300   0.7327374  )
        28           Au  tau(  28) = (   0.1666700   0.1666700   0.1392369  )
        29           Au  tau(  29) = (   0.1666700   0.5000000   0.1392369  )
        30           Au  tau(  30) = (   0.1666700   0.8333300   0.1392369  )
        31           Au  tau(  31) = (   0.5000000   0.1666700   0.1392369  )
        32           Au  tau(  32) = (   0.5000000   0.5000000   0.1392369  )
        33           Au  tau(  33) = (   0.5000000   0.8333300   0.1392369  )
        34           Au  tau(  34) = (   0.8333300   0.1666700   0.1392369  )
        35           Au  tau(  35) = (   0.8333300   0.5000000   0.1392369  )
        36           Au  tau(  36) = (   0.8333300   0.8333300   0.1392369  )
        37           Au  tau(  37) = (   0.0000000   0.0000000   0.2967503  )
        38           Au  tau(  38) = (   0.0000000   0.3333300   0.2967503  )
        39           Au  tau(  39) = (   0.0000000   0.6666700   0.2967503  )
        40           Au  tau(  40) = (   0.3333300   0.0000000   0.2967503  )
        41           Au  tau(  41) = (   0.3333300   0.3333300   0.2967503  )
        42           Au  tau(  42) = (   0.3333300   0.6666700   0.2967503  )
        43           Au  tau(  43) = (   0.6666700   0.0000000   0.2967503  )
        44           Au  tau(  44) = (   0.6666700   0.3333300   0.2967503  )
        45           Au  tau(  45) = (   0.6666700   0.6666700   0.2967503  )
        46           Au  tau(  46) = (   0.0000000   0.0000000   0.5752240  )
        47           Au  tau(  47) = (   0.0000000   0.3333300   0.5752240  )
        48           Au  tau(  48) = (   0.0000000   0.6666700   0.5752240  )
        49           Au  tau(  49) = (   0.3333300   0.0000000   0.5752240  )
        50           Au  tau(  50) = (   0.3333300   0.3333300   0.5752240  )
        51           Au  tau(  51) = (   0.3333300   0.6666700   0.5752240  )
        52           Au  tau(  52) = (   0.6666700   0.0000000   0.5752240  )
        53           Au  tau(  53) = (   0.6666700   0.3333300   0.5752240  )
        54           Au  tau(  54) = (   0.6666700   0.6666700   0.5752240  )

     number of k points=     8 (tetrahedron method)
                       cart. coord. in units 2pi/alat
        k(    1) = (   0.0000000   0.0000000   0.0000000), wk =   0.1250000
        k(    2) = (   0.0000000   0.0000000  -0.5734114), wk =   0.1250000
        k(    3) = (   0.0000000  -0.5000000   0.0000000), wk =   0.1250000
        k(    4) = (   0.0000000  -0.5000000  -0.5734114), wk =   0.1250000
        k(    5) = (  -0.5000000  -0.5000000   0.0000000), wk =   0.1250000
        k(    6) = (  -0.5000000  -0.5000000  -0.5734114), wk =   0.1250000
        k(    7) = (  -0.5000000   0.0000000   0.0000000), wk =   0.1250000
        k(    8) = (  -0.5000000   0.0000000   0.5734114), wk =   0.1250000

     Dense  grid:   839803 G-vectors     FFT dimensions: ( 125, 125, 108)

     Smooth grid:   253559 G-vectors     FFT dimensions: (  90,  90,  72)

     Estimated max dynamical RAM per process >     570.13 MB

     Estimated total dynamical RAM >       8.91 GB
     Generating pointlists ...
     new r_m :   0.1129 (alat units)  2.1733 (a.u.) for type    1
     new r_m :   0.1129 (alat units)  2.1733 (a.u.) for type    2
     new r_m :   0.1129 (alat units)  2.1733 (a.u.) for type    3

     Check: negative/imaginary core charge=   -0.000006    0.000000

     Initial potential from superposition of free atoms

     starting charge  665.98709, renormalised to  666.00000
     Starting wfc are  504 randomized atomic wfcs
     Checking if some PAW data can be deallocated... 

     total cpu time spent up to now is       56.6 secs

     Self-consistent Calculation

     iteration #  1     ecut=    45.00 Ry     beta= 0.10
     Davidson diagonalization with overlap
     ethr =  1.00E-02,  avg # of iterations =  3.1

     total cpu time spent up to now is      214.9 secs

     total energy              =  -33047.17288202 Ry
     Harris-Foulkes estimate   =  -33044.01276763 Ry
     estimated scf accuracy    <      27.03648032 Ry

     total magnetization       =    -0.00 Bohr mag/cell
     absolute magnetization    =    92.14 Bohr mag/cell

     iteration #  2     ecut=    45.00 Ry     beta= 0.10
     Davidson diagonalization with overlap
     ethr =  4.06E-03,  avg # of iterations =  1.0

     total cpu time spent up to now is      323.7 secs

     total energy              =  -33058.58924781 Ry
     Harris-Foulkes estimate   =  -33047.35257519 Ry
     estimated scf accuracy    <      21.38702362 Ry

     total magnetization       =    -0.00 Bohr mag/cell
     absolute magnetization    =    91.70 Bohr mag/cell

     iteration #  3     ecut=    45.00 Ry     beta= 0.10
     Davidson diagonalization with overlap
     ethr =  3.21E-03,  avg # of iterations =  2.1

     total cpu time spent up to now is      457.6 secs

     total energy              =  -33066.05793091 Ry
     Harris-Foulkes estimate   =  -33061.39232180 Ry
     estimated scf accuracy    <       8.78665866 Ry

     total magnetization       =     0.01 Bohr mag/cell
     absolute magnetization    =    85.53 Bohr mag/cell

     iteration #  4     ecut=    45.00 Ry     beta= 0.10
     Davidson diagonalization with overlap
     ethr =  1.32E-03,  avg # of iterations =  4.0

     total cpu time spent up to now is      654.2 secs

     total energy              =  -33059.92964458 Ry
     Harris-Foulkes estimate   =  -33068.53064572 Ry
     estimated scf accuracy    <      49.65193435 Ry

     total magnetization       =     0.22 Bohr mag/cell
     absolute magnetization    =    72.52 Bohr mag/cell

     iteration #  5     ecut=    45.00 Ry     beta= 0.10
     Davidson diagonalization with overlap
     ethr =  1.32E-03,  avg # of iterations =  5.4

     total cpu time spent up to now is      883.9 secs

     total energy              =  -33061.57330995 Ry
     Harris-Foulkes estimate   =  -33062.88138289 Ry
     estimated scf accuracy    <       5.26833472 Ry

     total magnetization       =     0.11 Bohr mag/cell
     absolute magnetization    =    83.13 Bohr mag/cell

     iteration #  6     ecut=    45.00 Ry     beta= 0.10
     Davidson diagonalization with overlap
     ethr =  7.91E-04,  avg # of iterations =  3.9

     total cpu time spent up to now is     1059.7 secs

     total energy              =  -33062.52437148 Ry
     Harris-Foulkes estimate   =  -33062.58990578 Ry
     estimated scf accuracy    <       0.67673615 Ry

     total magnetization       =    -0.04 Bohr mag/cell
     absolute magnetization    =    80.00 Bohr mag/cell

     iteration #  7     ecut=    45.00 Ry     beta= 0.10
     Davidson diagonalization with overlap
     ethr =  1.02E-04,  avg # of iterations =  2.8

     total cpu time spent up to now is     1201.8 secs

     total energy              =  -33062.60648789 Ry
     Harris-Foulkes estimate   =  -33062.60356633 Ry
     estimated scf accuracy    <       0.06673478 Ry

     total magnetization       =    -0.02 Bohr mag/cell
     absolute magnetization    =    79.48 Bohr mag/cell

     iteration #  8     ecut=    45.00 Ry     beta= 0.10
     Davidson diagonalization with overlap
     ethr =  1.00E-05,  avg # of iterations =  5.8

     total cpu time spent up to now is     1433.3 secs

     total energy              =  -33062.59976681 Ry
     Harris-Foulkes estimate   =  -33062.62352277 Ry
     estimated scf accuracy    <       0.18665521 Ry

     total magnetization       =     0.02 Bohr mag/cell
     absolute magnetization    =    78.74 Bohr mag/cell

     iteration #  9     ecut=    45.00 Ry     beta= 0.10
     Davidson diagonalization with overlap
     ethr =  1.00E-05,  avg # of iterations =  2.0

     total cpu time spent up to now is     1557.8 secs

     total energy              =  -33062.60254599 Ry
     Harris-Foulkes estimate   =  -33062.60471090 Ry
     estimated scf accuracy    <       0.06571068 Ry

     total magnetization       =    -0.01 Bohr mag/cell
     absolute magnetization    =    78.55 Bohr mag/cell

     iteration # 10     ecut=    45.00 Ry     beta= 0.10
     Davidson diagonalization with overlap
     ethr =  9.87E-06,  avg # of iterations =  1.9

     total cpu time spent up to now is     1679.0 secs

     total energy              =  -33062.60460026 Ry
     Harris-Foulkes estimate   =  -33062.60620370 Ry
     estimated scf accuracy    <       0.01542592 Ry

     total magnetization       =     0.01 Bohr mag/cell
     absolute magnetization    =    78.81 Bohr mag/cell

     iteration # 11     ecut=    45.00 Ry     beta= 0.10
     Davidson diagonalization with overlap
     ethr =  2.32E-06,  avg # of iterations =  5.6

     total cpu time spent up to now is     1884.3 secs

     total energy              =  -33062.60811159 Ry
     Harris-Foulkes estimate   =  -33062.60871646 Ry
     estimated scf accuracy    <       0.00431348 Ry

     total magnetization       =     0.00 Bohr mag/cell
     absolute magnetization    =    79.24 Bohr mag/cell

     iteration # 12     ecut=    45.00 Ry     beta= 0.10
     Davidson diagonalization with overlap
     ethr =  6.48E-07,  avg # of iterations =  2.7

     total cpu time spent up to now is     2026.2 secs

     total energy              =  -33062.60966039 Ry
     Harris-Foulkes estimate   =  -33062.60898334 Ry
     estimated scf accuracy    <       0.00327310 Ry

     total magnetization       =    -0.01 Bohr mag/cell
     absolute magnetization    =    79.22 Bohr mag/cell

     iteration # 13     ecut=    45.00 Ry     beta= 0.10
     Davidson diagonalization with overlap
     ethr =  4.91E-07,  avg # of iterations =  1.0

     total cpu time spent up to now is     2134.9 secs

     total energy              =  -33062.61028397 Ry
     Harris-Foulkes estimate   =  -33062.60964161 Ry
     estimated scf accuracy    <       0.00140094 Ry

     total magnetization       =     0.00 Bohr mag/cell
     absolute magnetization    =    79.17 Bohr mag/cell

     iteration # 14     ecut=    45.00 Ry     beta= 0.10
     Davidson diagonalization with overlap
     ethr =  2.10E-07,  avg # of iterations =  2.1

     total cpu time spent up to now is     2278.7 secs

     total energy              =  -33062.61040085 Ry
     Harris-Foulkes estimate   =  -33062.61030661 Ry
     estimated scf accuracy    <       0.00018619 Ry

     total magnetization       =     0.00 Bohr mag/cell
     absolute magnetization    =    79.03 Bohr mag/cell

     iteration # 15     ecut=    45.00 Ry     beta= 0.10
     Davidson diagonalization with overlap
     ethr =  2.80E-08,  avg # of iterations =  3.4

     total cpu time spent up to now is     2424.7 secs

     total energy              =  -33062.61039099 Ry
     Harris-Foulkes estimate   =  -33062.61038675 Ry
     estimated scf accuracy    <       0.00016565 Ry

     total magnetization       =     0.00 Bohr mag/cell
     absolute magnetization    =    79.00 Bohr mag/cell

     iteration # 16     ecut=    45.00 Ry     beta= 0.10
     Davidson diagonalization with overlap
     ethr =  2.49E-08,  avg # of iterations =  1.0

     total cpu time spent up to now is     2532.8 secs

     total energy              =  -33062.61047583 Ry
     Harris-Foulkes estimate   =  -33062.61040456 Ry
     estimated scf accuracy    <       0.00011806 Ry

     total magnetization       =     0.00 Bohr mag/cell
     absolute magnetization    =    79.01 Bohr mag/cell

     iteration # 17     ecut=    45.00 Ry     beta= 0.10
     Davidson diagonalization with overlap
     ethr =  1.77E-08,  avg # of iterations =  1.0

     total cpu time spent up to now is     2641.4 secs

     total energy              =  -33062.61058088 Ry
     Harris-Foulkes estimate   =  -33062.61046823 Ry
     estimated scf accuracy    <       0.00013553 Ry

     total magnetization       =    -0.00 Bohr mag/cell
     absolute magnetization    =    79.00 Bohr mag/cell

     iteration # 18     ecut=    45.00 Ry     beta= 0.10
     Davidson diagonalization with overlap
     ethr =  1.77E-08,  avg # of iterations =  2.0

     total cpu time spent up to now is     2764.0 secs

     total energy              =  -33062.61063284 Ry
     Harris-Foulkes estimate   =  -33062.61055987 Ry
     estimated scf accuracy    <       0.00005110 Ry

     total magnetization       =    -0.00 Bohr mag/cell
     absolute magnetization    =    78.99 Bohr mag/cell

     iteration # 19     ecut=    45.00 Ry     beta= 0.10
     Davidson diagonalization with overlap
     ethr =  7.67E-09,  avg # of iterations =  2.2

     total cpu time spent up to now is     2897.6 secs

     total energy              =  -33062.61063268 Ry
     Harris-Foulkes estimate   =  -33062.61060287 Ry
     estimated scf accuracy    <       0.00002279 Ry

     total magnetization       =    -0.00 Bohr mag/cell
     absolute magnetization    =    78.97 Bohr mag/cell

     iteration # 20     ecut=    45.00 Ry     beta= 0.10
     Davidson diagonalization with overlap
     ethr =  3.42E-09,  avg # of iterations =  2.4

     total cpu time spent up to now is     3033.2 secs

     total energy              =  -33062.61062104 Ry
     Harris-Foulkes estimate   =  -33062.61061000 Ry
     estimated scf accuracy    <       0.00001068 Ry

     total magnetization       =    -0.00 Bohr mag/cell
     absolute magnetization    =    78.96 Bohr mag/cell

     iteration # 21     ecut=    45.00 Ry     beta= 0.10
     Davidson diagonalization with overlap
     ethr =  1.60E-09,  avg # of iterations =  2.6

     total cpu time spent up to now is     3167.2 secs

     total energy              =  -33062.61060394 Ry
     Harris-Foulkes estimate   =  -33062.61059796 Ry
     estimated scf accuracy    <       0.00000572 Ry

     total magnetization       =    -0.00 Bohr mag/cell
     absolute magnetization    =    78.96 Bohr mag/cell

     iteration # 22     ecut=    45.00 Ry     beta= 0.10
     Davidson diagonalization with overlap
     ethr =  8.59E-10,  avg # of iterations =  2.0

     total cpu time spent up to now is     3290.7 secs

     total energy              =  -33062.61059693 Ry
     Harris-Foulkes estimate   =  -33062.61059264 Ry
     estimated scf accuracy    <       0.00000285 Ry

     total magnetization       =    -0.00 Bohr mag/cell
     absolute magnetization    =    78.95 Bohr mag/cell

     iteration # 23     ecut=    45.00 Ry     beta= 0.10
     Davidson diagonalization with overlap
     ethr =  4.28E-10,  avg # of iterations =  2.4

     total cpu time spent up to now is     3421.8 secs

     total energy              =  -33062.61059104 Ry
     Harris-Foulkes estimate   =  -33062.61058795 Ry
     estimated scf accuracy    <       0.00000170 Ry

     total magnetization       =    -0.00 Bohr mag/cell
     absolute magnetization    =    78.95 Bohr mag/cell

     iteration # 24     ecut=    45.00 Ry     beta= 0.10
     Davidson diagonalization with overlap
     ethr =  2.56E-10,  avg # of iterations =  2.6
 
     Magnetic moment per site:
     atom:    1    charge:   13.5811    magn:    3.9645    constr:    0.0000
     atom:    2    charge:   13.5786    magn:    3.9713    constr:    0.0000
     atom:    3    charge:   13.5798    magn:    3.9770    constr:    0.0000
     atom:    4    charge:   13.5749    magn:    4.0125    constr:    0.0000
     atom:    5    charge:   13.5706    magn:    4.0457    constr:    0.0000
     atom:    6    charge:   13.5690    magn:    4.0604    constr:    0.0000
     atom:    7    charge:   13.5729    magn:   -4.0533    constr:    0.0000
     atom:    8    charge:   13.5803    magn:    3.9786    constr:    0.0000
     atom:    9    charge:   13.5763    magn:   -4.0266    constr:    0.0000
     atom:   10    charge:   13.5693    magn:   -4.0604    constr:    0.0000
     atom:   11    charge:   13.5707    magn:   -4.0458    constr:    0.0000
     atom:   12    charge:   13.5750    magn:   -4.0124    constr:    0.0000
     atom:   13    charge:   13.5797    magn:   -3.9771    constr:    0.0000
     atom:   14    charge:   13.5780    magn:   -3.9713    constr:    0.0000
     atom:   15    charge:   13.5810    magn:   -3.9645    constr:    0.0000
     atom:   16    charge:   13.5764    magn:    4.0267    constr:    0.0000
     atom:   17    charge:   13.5800    magn:   -3.9787    constr:    0.0000
     atom:   18    charge:   13.5729    magn:    4.0533    constr:    0.0000
     atom:   19    charge:    9.1204    magn:    0.0472    constr:    0.0000
     atom:   20    charge:    9.1207    magn:    0.0460    constr:    0.0000
     atom:   21    charge:    9.1208    magn:    0.0526    constr:    0.0000
     atom:   22    charge:    9.1216    magn:    0.0180    constr:    0.0000
     atom:   23    charge:    9.1214    magn:    0.0184    constr:    0.0000
     atom:   24    charge:    9.1218    magn:   -0.0080    constr:    0.0000
     atom:   25    charge:    9.1201    magn:    0.0409    constr:    0.0000
     atom:   26    charge:    9.1198    magn:    0.0166    constr:    0.0000
     atom:   27    charge:    9.1214    magn:    0.0090    constr:    0.0000
     atom:   28    charge:    9.1204    magn:    0.0472    constr:    0.0000
     atom:   29    charge:    9.1207    magn:    0.0460    constr:    0.0000
     atom:   30    charge:    9.1208    magn:    0.0526    constr:    0.0000
     atom:   31    charge:    9.1216    magn:    0.0180    constr:    0.0000
     atom:   32    charge:    9.1214    magn:    0.0184    constr:    0.0000
     atom:   33    charge:    9.1218    magn:   -0.0080    constr:    0.0000
     atom:   34    charge:    9.1201    magn:    0.0409    constr:    0.0000
     atom:   35    charge:    9.1198    magn:    0.0166    constr:    0.0000
     atom:   36    charge:    9.1214    magn:    0.0090    constr:    0.0000
     atom:   37    charge:    9.1220    magn:    0.0080    constr:    0.0000
     atom:   38    charge:    9.1215    magn:   -0.0184    constr:    0.0000
     atom:   39    charge:    9.1217    magn:   -0.0180    constr:    0.0000
     atom:   40    charge:    9.1209    magn:   -0.0526    constr:    0.0000
     atom:   41    charge:    9.1206    magn:   -0.0460    constr:    0.0000
     atom:   42    charge:    9.1203    magn:   -0.0472    constr:    0.0000
     atom:   43    charge:    9.1214    magn:   -0.0090    constr:    0.0000
     atom:   44    charge:    9.1196    magn:   -0.0166    constr:    0.0000
     atom:   45    charge:    9.1200    magn:   -0.0409    constr:    0.0000
     atom:   46    charge:    9.1220    magn:    0.0080    constr:    0.0000
     atom:   47    charge:    9.1215    magn:   -0.0184    constr:    0.0000
     atom:   48    charge:    9.1217    magn:   -0.0180    constr:    0.0000
     atom:   49    charge:    9.1209    magn:   -0.0526    constr:    0.0000
     atom:   50    charge:    9.1206    magn:   -0.0460    constr:    0.0000
     atom:   51    charge:    9.1203    magn:   -0.0472    constr:    0.0000
     atom:   52    charge:    9.1214    magn:   -0.0090    constr:    0.0000
     atom:   53    charge:    9.1196    magn:   -0.0166    constr:    0.0000
     atom:   54    charge:    9.1200    magn:   -0.0409    constr:    0.0000

     total cpu time spent up to now is     3553.3 secs

     End of self-consistent calculation

 ------ SPIN UP ------------


          k = 0.0000 0.0000 0.0000 ( 31747 PWs)   bands (ev):

   -66.7874 -66.7539 -66.7087 -66.7068 -66.6636 -66.6470 -66.6390 -66.6345
   -66.6171 -62.4142 -62.3920 -62.3854 -62.3590 -62.3506 -62.3491 -62.3480
   -62.3415 -62.3339 -35.5415 -35.5300 -35.5175 -35.5138 -35.4957 -35.4789
   -35.4633 -35.4604 -35.4583 -35.4564 -35.4392 -35.4357 -35.4330 -35.4097
   -35.4052 -35.4018 -35.3967 -35.3915 -35.3893 -35.3831 -35.3802 -35.3769
   -35.3760 -35.3711 -35.3551 -35.3536 -35.3340 -31.2506 -31.2478 -31.2312
   -31.2202 -31.2190 -31.2183 -31.2135 -31.2075 -31.2011 -31.2000 -31.1961
   -31.1959 -31.1853 -31.1820 -31.1798 -31.1757 -31.1746 -31.1727 -31.1693
   -31.1685 -31.1681 -31.1648 -31.1574 -31.1533 -31.1511 -31.1500 -31.1458
     5.6143   7.1507   7.1597   7.1944   7.2059   7.3659   7.8592   7.8884
     7.9118   7.9428   8.0843   8.1087   8.1348   8.1530   8.1909   8.2440
     8.2619   8.2922   8.3104   8.5237   8.5494   8.5641   8.5693   8.5945
     8.6035   8.8571   8.8676   8.8687   8.8788   8.8852   8.8932   8.9015
     8.9030   8.9058   8.9139   8.9168   8.9309   8.9409   8.9623   8.9637
     8.9866   9.0852   9.1194   9.1267   9.1285   9.1312   9.1594   9.1602
     9.1885   9.2010   9.2120   9.2690   9.2780   9.2936   9.3060   9.3525
     9.3556   9.3619   9.3720   9.3763   9.3822   9.3852   9.4125   9.4258
     9.4460   9.4481   9.4556   9.4664   9.4672   9.4727   9.4955   9.5813
     9.5838   9.5839   9.5886   9.5912   9.6137   9.6583   9.6684   9.6725
     9.6736   9.6765   9.6808   9.7403   9.7584   9.7730   9.7930   9.8493
     9.8506   9.9121   9.9207   9.9505   9.9550   9.9637  10.0163  10.0374
    10.0966  10.1285  10.1363  10.1582  10.2922  10.2931  10.2953  10.2997
    10.3008  10.3063  10.3063  10.3115  10.3117  10.3249  10.3342  10.3454
    10.3497  10.3511  10.3545  10.3565  10.3616  10.3658  10.3809  10.3853
    10.4009  10.5134  10.5166  10.5532  10.5704  10.6180  10.6219  10.6425
    10.6914  10.7845  10.7869  10.8140  10.8198  10.8266  10.8320  10.8492
    10.8539  10.8596  10.8629  10.8746  10.8780  10.8825  10.8988  10.9138
    10.9172  10.9180  11.0143  11.0351  11.0757  11.0978  11.2207  11.2226
    11.2265  11.2289  11.2570  11.2751  11.3069  11.3282  11.3339  11.3460
    11.3547  11.3669  11.3881  11.3916  11.4015  11.4089  11.4152  11.4216
    11.4398  11.4651  11.5322  11.5549  11.5911  11.5939  11.5967  11.5979
    11.5986  11.6680  11.7047  11.7271  11.7314  11.7317  11.7442  11.7493
    11.8301  11.8331  11.8363  11.8719  11.8730  11.9096  11.9272  11.9454
    11.9494  12.0143  12.0810  12.1012  12.1020  12.1034  12.1061  12.1442
    12.1458  12.1478  12.1494  12.1616  12.1741  12.1812  12.1915  12.2321
    12.2451  12.2463  12.3228  12.3358  12.3424  12.3619  12.3683  12.4261
    12.4287  12.4345  12.4430  12.4734  12.4883  12.5003  12.5034  12.5144
    12.5167  12.5417  12.5419  12.5550  12.5625  12.5767  12.5871  12.6514
    12.7003  12.7081  12.7438  12.7540  12.9971  13.0299  13.0913  13.1061
    13.1299  13.1310  13.1781  13.1885  13.3759  13.4663  13.6749  13.8220
    13.8389  13.9613  14.0069  14.2395  14.2437  14.3451  14.3521  14.5018
    14.7793  14.8897  14.9449  15.0458  15.0525  15.1534  15.1836  15.2344
    15.2952  15.3343  15.3730  15.3933  15.4473  15.4659  15.5182  15.5770
    15.6576  15.6584  15.7344  15.7559  15.7846  15.7981  15.9148  15.9225
    16.0065  16.0818  16.1079  16.1095  16.1148  16.1455  16.1792  16.2120
    16.2211  16.2445  16.2786  16.3404  16.3622  16.3667  16.3779  16.4387
    16.4467  16.4669  16.4737  16.5805  16.6418  16.6505  16.7557  16.8494
    16.9771  17.0302  17.1652  17.1909  17.2027  17.2471  17.2637  17.3294
    17.5023  17.5523  17.8675  17.9113  17.9336  17.9476  17.9712  18.0365
    18.1153  18.2166  18.3697  18.9817  19.0338  19.0340  19.1560  19.2289

          k = 0.0000 0.0000-0.5734 ( 31692 PWs)   bands (ev):

   -66.7874 -66.7539 -66.7087 -66.7068 -66.6636 -66.6470 -66.6390 -66.6345
   -66.6171 -62.4142 -62.3920 -62.3854 -62.3590 -62.3506 -62.3491 -62.3480
   -62.3415 -62.3339 -35.5415 -35.5300 -35.5175 -35.5138 -35.4957 -35.4789
   -35.4633 -35.4604 -35.4583 -35.4564 -35.4392 -35.4357 -35.4330 -35.4097
   -35.4052 -35.4018 -35.3967 -35.3915 -35.3893 -35.3831 -35.3802 -35.3769
   -35.3760 -35.3711 -35.3551 -35.3536 -35.3340 -31.2506 -31.2478 -31.2312
   -31.2202 -31.2190 -31.2183 -31.2135 -31.2075 -31.2011 -31.2000 -31.1961
   -31.1959 -31.1853 -31.1820 -31.1798 -31.1757 -31.1746 -31.1727 -31.1693
   -31.1685 -31.1681 -31.1648 -31.1574 -31.1533 -31.1510 -31.1500 -31.1458
     6.1372   6.2333   7.5248   7.5343   7.5620   7.5807   7.5857   7.6015
     7.6317   7.6385   8.3041   8.3074   8.3203   8.3433   8.3492   8.3832
     8.3905   8.4083   8.4558   8.4671   8.4689   8.4866   8.4896   8.4951
     8.5090   8.5113   8.6861   8.7253   8.7292   8.8162   8.9397   8.9462
     8.9504   8.9705   8.9812   8.9833   8.9901   8.9945   9.0094   9.0266
     9.0328   9.0467   9.0496   9.0609   9.0945   9.1013   9.1761   9.1878
     9.2191   9.2322   9.2455   9.2595   9.2615   9.2703   9.2792   9.2821
     9.2855   9.2984   9.2993   9.3048   9.3150   9.3272   9.4073   9.4117
     9.4118   9.4259   9.4295   9.4314   9.4421   9.4532   9.4611   9.4659
     9.4744   9.4878   9.4959   9.5149   9.5541   9.5752   9.5899   9.7288
     9.7783   9.7940   9.7990   9.8007   9.8091   9.8221   9.8452   9.8464
     9.8745   9.8780   9.8802   9.8829   9.8836   9.8858   9.8890   9.8906
    10.0537  10.0556  10.0662  10.0675  10.1292  10.1321  10.1351  10.1466
    10.1740  10.1815  10.1979  10.2150  10.2177  10.2226  10.3477  10.3780
    10.3787  10.3892  10.3954  10.4000  10.4006  10.4290  10.4323  10.5528
    10.5917  10.5979  10.6028  10.6094  10.6139  10.6328  10.6403  10.6695
    10.6723  10.6815  10.6939  10.7196  10.7622  10.8111  10.8716  10.8983
    10.9207  10.9430  10.9927  11.0087  11.0371  11.0605  11.0665  11.0818
    11.0848  11.0872  11.1141  11.1327  11.1420  11.1692  11.1720  11.1860
    11.1953  11.2315  11.2506  11.2509  11.2526  11.2546  11.2648  11.2658
    11.2686  11.2697  11.2779  11.2792  11.2873  11.3008  11.3036  11.3053
    11.3217  11.3283  11.3293  11.3315  11.5135  11.6242  11.7075  11.7113
    11.7115  11.7149  11.7177  11.7234  11.7263  11.7333  11.7358  11.7394
    11.7548  11.7741  11.7948  11.7970  11.8136  11.8323  11.8353  11.8406
    11.9496  11.9680  11.9873  11.9986  12.0350  12.0388  12.0815  12.0881
    12.1340  12.1743  12.2152  12.2421  12.2482  12.2694  12.3073  12.3729
    12.3829  12.4082  12.4211  12.4382  12.4529  12.4799  12.4894  12.4900
    12.4927  12.5297  12.5352  12.5457  12.5477  12.5700  12.5782  12.5905
    12.6202  12.6333  12.7347  12.7914  12.8194  12.8703  12.8790  12.9145
    12.9790  13.0339  13.0368  13.0740  13.1239  13.1249  13.1446  13.1456
    13.1959  13.2163  13.2508  13.4279  13.5026  13.5317  13.5359  13.7480
    13.8792  13.9535  14.0170  14.0720  14.1239  14.1689  14.2658  14.4351
    14.4910  14.8857  14.9221  14.9552  14.9759  15.0334  15.0578  15.0715
    15.1486  15.1878  15.2029  15.2091  15.2518  15.2745  15.3640  15.6299
    15.6558  15.7189  15.7434  15.7689  15.8489  15.8854  15.9576  16.0227
    16.1024  16.1243  16.1252  16.1318  16.1354  16.1725  16.1810  16.2124
    16.2344  16.2389  16.2438  16.2602  16.2639  16.2699  16.2867  16.3455
    16.3832  16.4394  16.4476  16.5159  16.6022  16.6901  16.7245  16.7595
    16.8895  16.9577  17.2466  17.3442  17.4171  17.4704  17.5391  17.5482
    17.5704  17.5724  17.6118  17.6433  17.6509  17.7257  17.7889  17.8372
    17.9057  17.9304  18.0794  18.1223  18.1773  18.2583  18.3470  18.3613

          k = 0.0000-0.5000 0.0000 ( 31722 PWs)   bands (ev):

   -66.7874 -66.7539 -66.7087 -66.7068 -66.6636 -66.6470 -66.6390 -66.6345
   -66.6171 -62.4142 -62.3920 -62.3854 -62.3590 -62.3506 -62.3491 -62.3480
   -62.3415 -62.3339 -35.5415 -35.5300 -35.5175 -35.5138 -35.4956 -35.4789
   -35.4634 -35.4604 -35.4583 -35.4564 -35.4392 -35.4357 -35.4330 -35.4097
   -35.4052 -35.4019 -35.3967 -35.3915 -35.3893 -35.3831 -35.3807 -35.3769
   -35.3746 -35.3720 -35.3551 -35.3537 -35.3340 -31.2509 -31.2478 -31.2303
   -31.2202 -31.2190 -31.2188 -31.2135 -31.2075 -31.2015 -31.2000 -31.1961
   -31.1956 -31.1856 -31.1820 -31.1787 -31.1757 -31.1746 -31.1727 -31.1693
   -31.1692 -31.1681 -31.1648 -31.1574 -31.1533 -31.1511 -31.1500 -31.1458
     6.0330   6.0515   7.4068   7.4394   7.4548   7.4861   7.6753   7.6795
     8.1014   8.1221   8.1505   8.1733   8.1777   8.2333   8.2453   8.2890
     8.3900   8.4162   8.4545   8.4857   8.5958   8.6228   8.6438   8.6542
     8.6778   8.6788   8.6988   8.7064   8.7380   8.8126   8.8211   8.8370
     8.8427   8.8735   8.8756   8.8817   8.9065   8.9092   8.9123   8.9203
     8.9263   8.9308   8.9389   8.9504   9.0501   9.0531   9.1580   9.1769
     9.1875   9.1988   9.2120   9.2246   9.2430   9.2503   9.3159   9.3234
     9.3376   9.3838   9.4015   9.4027   9.4740   9.4774   9.4838   9.4970
     9.5368   9.5406   9.5418   9.5727   9.5757   9.6024   9.6041   9.6157
     9.6179   9.6196   9.6282   9.6286   9.6332   9.6408   9.6466   9.6566
     9.6657   9.6672   9.6673   9.6800   9.6912   9.7150   9.7249   9.7493
     9.7564   9.7622   9.7703   9.7745   9.8896   9.8971   9.9034  10.0053
    10.0160  10.0319  10.1562  10.1856  10.2135  10.2250  10.2469  10.2522
    10.2695  10.2720  10.2777  10.2795  10.2812  10.2877  10.3461  10.3606
    10.3649  10.3814  10.3838  10.3901  10.4302  10.4409  10.4431  10.4496
    10.4889  10.5148  10.5183  10.5319  10.5632  10.5655  10.5852  10.5934
    10.6075  10.6571  10.6909  10.6988  10.7042  10.7061  10.7395  10.7806
    10.8055  10.8128  10.8342  10.8479  10.8698  10.8859  10.9063  10.9241
    10.9304  10.9962  11.0048  11.0273  11.0514  11.1236  11.1628  11.1935
    11.2744  11.3443  11.3510  11.3612  11.3660  11.3967  11.4002  11.4044
    11.4187  11.4452  11.4823  11.4919  11.4935  11.5468  11.5514  11.5758
    11.5837  11.5943  11.6003  11.6099  11.6150  11.6575  11.6578  11.7222
    11.7457  11.7830  11.8018  11.8115  11.8138  11.8387  11.8428  11.8610
    11.8647  11.8841  11.8977  11.9180  11.9258  11.9470  11.9677  11.9720
    11.9829  12.0052  12.0174  12.0183  12.0390  12.1303  12.1452  12.1879
    12.1952  12.2095  12.2293  12.2410  12.2431  12.2606  12.2633  12.2787
    12.2853  12.2956  12.2986  12.3010  12.3795  12.3963  12.4054  12.4069
    12.4492  12.4582  12.4642  12.4757  12.4813  12.5150  12.5195  12.5515
    12.5726  12.5779  12.6077  12.6634  12.6656  12.7042  12.7247  12.7720
    12.7972  12.8591  12.9272  12.9765  13.0585  13.0764  13.1359  13.1427
    13.1504  13.2022  13.2202  13.2279  13.2665  13.2692  13.3130  13.3251
    13.3675  13.4341  13.4582  13.7215  13.7454  14.1263  14.5108  14.5735
    14.6268  14.7448  14.7879  14.8569  14.8651  14.8836  14.9321  14.9545
    15.0781  15.1067  15.2299  15.3326  15.3782  15.3960  15.5116  15.5672
    15.6852  15.7469  15.7486  15.7886  15.8368  15.8622  15.9306  16.0247
    16.0250  16.0543  16.0551  16.0699  16.1017  16.1303  16.1428  16.1564
    16.1781  16.1976  16.2380  16.2477  16.2605  16.2956  16.3482  16.3641
    16.4213  16.4240  16.5501  16.5878  16.7161  16.8011  16.9978  17.0324
    17.1183  17.2070  17.2528  17.3929  17.4388  17.5601  17.6106  17.6246
    17.7089  17.7461  17.7705  17.8227  17.8321  17.8591  17.9188  18.0033
    18.0453  18.0620  18.1306  18.2138  19.2644  19.2910  19.3108  19.3598

          k = 0.0000-0.5000-0.5734 ( 31696 PWs)   bands (ev):

   -66.7874 -66.7539 -66.7087 -66.7068 -66.6636 -66.6470 -66.6390 -66.6345
   -66.6171 -62.4142 -62.3920 -62.3854 -62.3590 -62.3506 -62.3491 -62.3480
   -62.3415 -62.3339 -35.5415 -35.5300 -35.5175 -35.5138 -35.4956 -35.4789
   -35.4634 -35.4604 -35.4583 -35.4564 -35.4392 -35.4357 -35.4330 -35.4097
   -35.4052 -35.4019 -35.3967 -35.3915 -35.3893 -35.3831 -35.3807 -35.3769
   -35.3746 -35.3720 -35.3551 -35.3537 -35.3340 -31.2509 -31.2478 -31.2303
   -31.2202 -31.2190 -31.2188 -31.2135 -31.2075 -31.2015 -31.2000 -31.1961
   -31.1956 -31.1856 -31.1820 -31.1787 -31.1757 -31.1746 -31.1727 -31.1693
   -31.1692 -31.1681 -31.1648 -31.1574 -31.1533 -31.1510 -31.1500 -31.1458
     6.5231   6.5535   6.6067   6.6520   7.8323   7.8399   7.8454   7.8790
     7.8989   7.9315   7.9452   7.9497   8.2641   8.2822   8.2928   8.3048
     8.5040   8.5251   8.5356   8.5411   8.6375   8.6658   8.6735   8.6866
     8.6917   8.6960   8.7127   8.7165   8.7209   8.7239   8.7444   8.7582
     8.7587   8.7637   8.7838   8.8431   8.9456   8.9715   9.0244   9.0264
     9.0306   9.0607   9.0651   9.0808   9.1814   9.1990   9.2014   9.2117
     9.2177   9.2214   9.2233   9.2298   9.2357   9.2465   9.2552   9.2653
     9.2719   9.2810   9.2885   9.2914   9.3052   9.3623   9.3806   9.3829
     9.4066   9.4260   9.4528   9.4567   9.4637   9.4649   9.4715   9.4853
     9.4877   9.4928   9.4999   9.5018   9.5149   9.5452   9.5506   9.5739
     9.5826   9.6198   9.7519   9.7630   9.7741   9.7775   9.8045   9.8242
     9.8248   9.8387   9.8487   9.8543   9.8578   9.8610   9.8933   9.8948
     9.9594   9.9855   9.9889   9.9985  10.0301  10.0307  10.0546  10.0694
    10.3571  10.3861  10.3923  10.4059  10.4118  10.4175  10.4236  10.4302
    10.4489  10.4609  10.4729  10.4789  10.4884  10.4942  10.4985  10.5178
    10.5274  10.5634  10.5758  10.5793  10.5981  10.6103  10.6149  10.6170
    10.6408  10.6495  10.6676  10.6701  10.6781  10.6927  10.7164  10.7170
    10.7300  10.8554  10.8613  10.9048  10.9632  10.9950  11.0352  11.1085
    11.1148  11.1310  11.1346  11.1498  11.1605  11.1891  11.1977  11.2099
    11.2114  11.2143  11.2557  11.3168  11.3435  11.3522  11.3652  11.3705
    11.3784  11.3815  11.4105  11.4260  11.4398  11.4851  11.4886  11.5110
    11.5196  11.5572  11.5739  11.5788  11.5810  11.5959  11.6027  11.6204
    11.6226  11.6418  11.6429  11.7109  11.7562  11.7650  11.8161  11.8242
    11.8927  11.8977  11.9035  11.9531  11.9615  11.9621  11.9821  12.0091
    12.0218  12.0272  12.0273  12.0332  12.0366  12.0390  12.0783  12.1336
    12.1434  12.1597  12.1823  12.2214  12.2324  12.2578  12.2918  12.3368
    12.3705  12.4114  12.4167  12.4232  12.4447  12.4468  12.4743  12.4883
    12.4992  12.5126  12.5152  12.5303  12.5451  12.5620  12.6270  12.6281
    12.6309  12.6406  12.6587  12.6611  12.7307  12.7571  12.7668  12.7788
    12.8674  12.8809  12.9119  12.9766  13.0106  13.0253  13.0437  13.0629
    13.0808  13.1951  13.2597  13.3549  13.4467  13.5345  13.5655  13.7997
    13.8733  13.9811  14.0569  14.1161  14.1498  14.2425  14.2699  14.3973
    14.4216  14.4620  14.5295  14.5802  14.6946  14.7051  14.7918  15.0322
    15.0919  15.2019  15.2683  15.3116  15.3446  15.3832  15.5589  15.5873
    15.6070  15.6837  15.7819  15.7983  15.8607  15.9211  15.9391  15.9683
    16.0357  16.0724  16.0874  16.1241  16.1496  16.1745  16.2145  16.2292
    16.2427  16.2692  16.2782  16.2787  16.2911  16.3347  16.3667  16.4837
    16.4861  16.5337  16.5463  16.5951  16.6136  16.6488  16.6875  16.7443
    16.7467  16.8057  16.8321  16.8993  16.9135  16.9524  16.9589  16.9949
    17.0804  17.1206  17.2059  17.2827  18.5592  18.6773  18.7113  18.7180
    18.7459  18.7991  18.8345  18.8551  18.8645  18.9200  18.9660  18.9889

          k =-0.5000-0.5000 0.0000 ( 31612 PWs)   bands (ev):

   -66.7874 -66.7539 -66.7087 -66.7068 -66.6636 -66.6470 -66.6390 -66.6345
   -66.6171 -62.4142 -62.3920 -62.3854 -62.3590 -62.3506 -62.3491 -62.3480
   -62.3415 -62.3339 -35.5415 -35.5300 -35.5175 -35.5138 -35.4956 -35.4789
   -35.4634 -35.4604 -35.4583 -35.4564 -35.4392 -35.4357 -35.4330 -35.4097
   -35.4052 -35.4018 -35.3967 -35.3915 -35.3893 -35.3831 -35.3807 -35.3769
   -35.3746 -35.3720 -35.3551 -35.3537 -35.3340 -31.2509 -31.2478 -31.2303
   -31.2204 -31.2190 -31.2188 -31.2135 -31.2072 -31.2015 -31.2000 -31.1961
   -31.1956 -31.1855 -31.1820 -31.1787 -31.1757 -31.1746 -31.1727 -31.1694
   -31.1692 -31.1681 -31.1648 -31.1574 -31.1533 -31.1511 -31.1500 -31.1458
     6.4079   6.4307   6.4450   6.4754   8.0109   8.0169   8.0209   8.0238
     8.0806   8.1341   8.2892   8.3223   8.3252   8.3394   8.3402   8.3448
     8.3467   8.3579   8.3616   8.3639   8.3696   8.3886   8.5532   8.5723
     8.6416   8.6663   8.6779   8.6982   8.7121   8.7335   8.7395   8.7499
     8.7565   8.7943   8.9004   8.9196   8.9544   8.9755   8.9773   8.9780
     8.9826   8.9887   8.9954   9.0091   9.0112   9.0329   9.0529   9.0728
     9.1043   9.1440   9.3109   9.3153   9.3168   9.3211   9.4012   9.4071
     9.4093   9.4162   9.4175   9.4222   9.4271   9.4280   9.4403   9.4537
     9.4588   9.4668   9.4765   9.4808   9.4850   9.4912   9.4992   9.5026
     9.5120   9.5217   9.5422   9.5572   9.5665   9.5686   9.5737   9.5809
     9.5994   9.6101   9.6976   9.7000   9.7664   9.8212   9.8219   9.8328
     9.8332   9.8352   9.8360   9.8449   9.8595   9.8724  10.0324  10.0596
    10.0675  10.0885  10.1007  10.1209  10.1357  10.1406  10.1541  10.1598
    10.1805  10.1933  10.2018  10.2097  10.2217  10.2282  10.2306  10.2359
    10.2371  10.2379  10.2584  10.2730  10.4472  10.4704  10.4734  10.4884
    10.4948  10.5004  10.5248  10.5334  10.6225  10.6365  10.6504  10.6568
    10.6625  10.6638  10.6700  10.6725  10.6919  10.6969  10.7021  10.7039
    10.7162  10.7421  10.7636  10.7929  10.8161  10.8671  10.8780  10.8930
    10.9125  10.9285  11.1992  11.2069  11.2140  11.2234  11.2865  11.3013
    11.3201  11.3450  11.3583  11.3661  11.4036  11.4192  11.5523  11.5677
    11.5812  11.5951  11.6138  11.6384  11.6407  11.6453  11.6492  11.6501
    11.6572  11.6771  11.6845  11.7198  11.7399  11.7444  11.7557  11.8737
    11.8746  11.8779  11.8793  11.8802  11.8827  11.8908  11.9959  12.0154
    12.0186  12.0204  12.0931  12.0987  12.1030  12.1089  12.1095  12.1115
    12.1189  12.1190  12.1251  12.1297  12.1368  12.1430  12.1682  12.1753
    12.1943  12.2022  12.2107  12.2120  12.2184  12.2270  12.2273  12.2533
    12.2717  12.2783  12.2809  12.2844  12.2921  12.3007  12.3229  12.3339
    12.3492  12.3986  12.4329  12.4404  12.4543  12.4650  12.4845  12.5236
    12.5294  12.5521  12.5829  12.5971  12.6035  12.6259  12.6441  12.6816
    12.6977  12.7125  12.7534  12.7804  12.8158  12.8738  12.9379  12.9504
    12.9522  12.9764  12.9835  13.0073  13.0324  13.4382  13.6682  13.6720
    13.6773  13.7548  13.8351  13.8491  13.9253  13.9259  13.9838  14.2033
    14.2742  14.2814  14.3233  14.3888  14.4587  14.7785  14.8025  14.8619
    15.1066  15.1425  15.1741  15.3057  15.4094  15.5085  15.6147  15.7405
    15.7797  15.8015  15.8140  15.8399  15.8613  15.8900  15.8971  15.9305
    15.9422  15.9790  15.9862  16.0063  16.0320  16.0662  16.0909  16.1653
    16.1905  16.2392  16.2774  16.2997  16.3145  16.3659  16.3723  16.4161
    16.4864  16.5182  16.5777  16.6651  16.6652  16.7188  16.7404  16.7969
    16.8084  16.8767  16.9808  17.0156  17.3815  17.3973  17.4792  18.1374
    18.1636  18.2020  18.2080  18.2390  18.2447  18.4164  18.4987  18.5532
    18.5674  18.6167  18.6422  18.6532  18.7312  18.7925  18.7977  18.8054

          k =-0.5000-0.5000-0.5734 ( 31672 PWs)   bands (ev):

   -66.7874 -66.7539 -66.7087 -66.7068 -66.6636 -66.6470 -66.6390 -66.6345
   -66.6171 -62.4142 -62.3920 -62.3854 -62.3590 -62.3506 -62.3491 -62.3480
   -62.3415 -62.3339 -35.5415 -35.5300 -35.5175 -35.5138 -35.4956 -35.4789
   -35.4634 -35.4604 -35.4583 -35.4564 -35.4392 -35.4357 -35.4330 -35.4097
   -35.4052 -35.4018 -35.3967 -35.3915 -35.3893 -35.3831 -35.3807 -35.3769
   -35.3746 -35.3720 -35.3551 -35.3537 -35.3340 -31.2509 -31.2478 -31.2303
   -31.2204 -31.2190 -31.2188 -31.2135 -31.2072 -31.2015 -31.2000 -31.1961
   -31.1956 -31.1855 -31.1820 -31.1787 -31.1757 -31.1746 -31.1727 -31.1694
   -31.1692 -31.1681 -31.1648 -31.1574 -31.1533 -31.1510 -31.1500 -31.1458
     6.8810   6.8875   6.9313   6.9398   6.9990   7.0170   7.0475   7.0522
     8.4394   8.4705   8.4731   8.4788   8.4847   8.4901   8.4933   8.4951
     8.5011   8.5038   8.5061   8.5134   8.5235   8.5438   8.5443   8.5572
     8.5767   8.5770   8.5878   8.6453   8.8775   8.8788   8.8902   8.8985
     8.9165   8.9222   8.9291   8.9358   9.0836   9.0872   9.1151   9.1211
     9.1267   9.1272   9.1400   9.1473   9.1546   9.1571   9.1587   9.1627
     9.1629   9.1656   9.1691   9.1756   9.1773   9.1790   9.1791   9.1821
     9.1838   9.1849   9.1923   9.1949   9.1980   9.2047   9.2138   9.2154
     9.2346   9.2376   9.2403   9.2493   9.2610   9.2642   9.2712   9.2836
     9.5428   9.5473   9.5626   9.5661   9.5807   9.5882   9.6191   9.6266
     9.6348   9.6426   9.6681   9.6928   9.7097   9.7502   9.7864   9.7967
     9.8108   9.8192   9.8391   9.8587   9.8800   9.8922   9.8952   9.9010
    10.0977  10.1185  10.1500  10.1590  10.1601  10.1743  10.1997  10.2098
    10.2677  10.3354  10.4309  10.4411  10.4571  10.4657  10.4784  10.4829
    10.4883  10.4936  10.4977  10.5009  10.5037  10.5121  10.5193  10.5231
    10.5255  10.5358  10.5437  10.5499  10.5512  10.5590  10.6080  10.6155
    10.6262  10.6345  10.6358  10.6372  10.6467  10.6606  10.6636  10.6704
    10.6854  10.6893  10.6943  10.6962  10.7127  10.7189  11.0304  11.0578
    11.0675  11.0774  11.0848  11.0979  11.1080  11.1325  11.3775  11.3810
    11.3909  11.4011  11.4096  11.4203  11.4411  11.4552  11.4561  11.4655
    11.4866  11.4917  11.4978  11.5077  11.5382  11.5466  11.5897  11.6354
    11.6372  11.6388  11.6578  11.6650  11.6733  11.6991  11.7046  11.7147
    11.7161  11.7194  11.7231  11.7395  11.7633  11.7659  11.7703  11.7869
    11.8025  11.8152  11.8266  11.8334  11.8432  11.9566  11.9720  11.9794
    11.9936  12.0200  12.0539  12.0894  12.1050  12.1105  12.1199  12.1389
    12.1730  12.1852  12.2151  12.2247  12.2770  12.2825  12.2905  12.3021
    12.3087  12.3478  12.3746  12.3910  12.4388  12.4460  12.4646  12.4786
    12.4888  12.5059  12.5292  12.5355  12.5457  12.5655  12.5907  12.6004
    12.6582  12.6902  12.7099  12.7361  12.7417  12.7813  12.8071  12.8932
    12.9604  12.9771  12.9920  13.0033  13.1165  13.1199  13.1393  13.1695
    13.1873  13.2068  13.2499  13.2991  13.3388  13.3543  13.3741  13.5091
    13.5486  13.5768  13.6906  13.7555  13.9651  13.9687  14.0248  14.0979
    14.1743  14.2473  14.3577  14.3974  14.7718  14.7813  14.9780  15.0516
    15.1338  15.2833  15.3555  15.4223  15.4383  15.6360  15.7049  15.7251
    15.7264  15.7645  15.8114  15.8257  15.8323  15.8764  15.9099  15.9247
    15.9357  15.9631  15.9914  16.0430  16.0547  16.1072  16.1302  16.1940
    16.2146  16.2408  16.2497  16.2507  16.2938  16.3709  16.4443  16.5231
    16.5409  16.5819  16.6156  16.6192  16.6402  16.6746  16.7342  16.7597
    16.7826  16.8507  16.8544  16.9069  16.9207  16.9687  17.0001  17.0283
    17.1057  17.1330  17.4405  17.6901  17.9608  18.0630  19.0016  19.0361
    19.0384  19.0646  19.1103  19.1299  19.1739  19.2307  19.2327  19.3275

          k =-0.5000 0.0000 0.0000 ( 31722 PWs)   bands (ev):

   -66.7874 -66.7539 -66.7087 -66.7068 -66.6636 -66.6470 -66.6390 -66.6345
   -66.6171 -62.4142 -62.3920 -62.3854 -62.3590 -62.3506 -62.3491 -62.3480
   -62.3415 -62.3339 -35.5415 -35.5300 -35.5175 -35.5138 -35.4957 -35.4789
   -35.4633 -35.4604 -35.4583 -35.4564 -35.4392 -35.4357 -35.4330 -35.4097
   -35.4052 -35.4017 -35.3967 -35.3915 -35.3893 -35.3831 -35.3802 -35.3769
   -35.3760 -35.3712 -35.3551 -35.3536 -35.3340 -31.2506 -31.2478 -31.2312
   -31.2205 -31.2190 -31.2183 -31.2135 -31.2072 -31.2012 -31.2000 -31.1961
   -31.1959 -31.1852 -31.1820 -31.1798 -31.1757 -31.1746 -31.1727 -31.1695
   -31.1686 -31.1681 -31.1648 -31.1574 -31.1533 -31.1511 -31.1500 -31.1458
     6.0234   6.0609   7.4182   7.4372   7.4494   7.4841   7.6720   7.6819
     8.0994   8.1176   8.1373   8.1799   8.2118   8.2171   8.2422   8.2819
     8.4025   8.4269   8.4357   8.4771   8.5946   8.6361   8.6473   8.6547
     8.6603   8.6928   8.6973   8.7023   8.7352   8.7997   8.8264   8.8443
     8.8499   8.8604   8.8806   8.8914   8.9044   8.9090   8.9145   8.9200
     8.9261   8.9296   8.9356   8.9466   9.0476   9.0546   9.1615   9.1825
     9.1923   9.1957   9.2023   9.2317   9.2385   9.2532   9.3154   9.3388
     9.3536   9.3647   9.3778   9.4126   9.4751   9.4849   9.4940   9.5107
     9.5156   9.5374   9.5380   9.5557   9.5934   9.5948   9.6045   9.6180
     9.6213   9.6256   9.6311   9.6325   9.6348   9.6379   9.6419   9.6520
     9.6561   9.6636   9.6738   9.6787   9.6919   9.7171   9.7351   9.7518
     9.7594   9.7634   9.7658   9.7686   9.8955   9.8969   9.9060  10.0088
    10.0091  10.0426  10.1416  10.1914  10.2102  10.2377  10.2467  10.2554
    10.2639  10.2688  10.2702  10.2705  10.2843  10.2887  10.3437  10.3555
    10.3632  10.3793  10.3819  10.3851  10.4221  10.4451  10.4458  10.4728
    10.4808  10.5203  10.5240  10.5330  10.5454  10.5770  10.5794  10.5933
    10.6110  10.6592  10.6778  10.6809  10.7026  10.7243  10.7456  10.7620
    10.7969  10.8171  10.8266  10.8521  10.8658  10.8956  10.9143  10.9288
    10.9532  11.0121  11.0181  11.0218  11.0312  11.1258  11.1578  11.1912
    11.2855  11.3460  11.3523  11.3667  11.3842  11.3906  11.4066  11.4167
    11.4396  11.4428  11.4502  11.4634  11.5004  11.5291  11.5344  11.5572
    11.5718  11.5783  11.6021  11.6236  11.6453  11.6571  11.6861  11.7228
    11.7350  11.7768  11.7840  11.7900  11.7951  11.8328  11.8441  11.8447
    11.8524  11.8754  11.9096  11.9192  11.9381  11.9557  11.9578  11.9817
    11.9834  11.9915  12.0102  12.0119  12.1066  12.1517  12.1558  12.1875
    12.1971  12.2128  12.2136  12.2217  12.2430  12.2586  12.2777  12.2844
    12.2879  12.2947  12.3231  12.3358  12.3545  12.3739  12.4012  12.4158
    12.4308  12.4467  12.4642  12.4744  12.4825  12.5229  12.5320  12.5606
    12.5661  12.5738  12.6089  12.6173  12.6529  12.6529  12.6698  12.7486
    12.8820  12.9166  13.0206  13.0605  13.0673  13.1202  13.1376  13.1474
    13.1482  13.1869  13.1890  13.1965  13.2326  13.2866  13.2936  13.3192
    13.3473  13.3901  13.4221  13.7178  13.7468  14.2840  14.4766  14.4988
    14.6295  14.7492  14.7623  14.7935  14.8208  14.8647  14.8978  14.9709
    15.0460  15.2280  15.2406  15.3481  15.4233  15.4592  15.5150  15.6033
    15.6049  15.6979  15.7316  15.7724  15.8161  15.8188  15.8658  16.0449
    16.0500  16.0944  16.1006  16.1272  16.1458  16.1494  16.1664  16.1725
    16.2070  16.2084  16.2295  16.2543  16.2624  16.2762  16.2920  16.3428
    16.4214  16.4702  16.5126  16.5808  16.7144  16.7900  17.0009  17.0953
    17.1544  17.1909  17.1944  17.3112  17.4017  17.5334  17.6235  17.6290
    17.7146  17.7167  17.7834  17.8130  17.8762  17.8801  17.9220  17.9247
    18.0382  18.1044  18.1524  18.2310  19.2680  19.2827  19.2926  19.3322

          k =-0.5000 0.0000 0.5734 ( 31696 PWs)   bands (ev):

   -66.7874 -66.7539 -66.7087 -66.7068 -66.6636 -66.6470 -66.6390 -66.6345
   -66.6171 -62.4142 -62.3920 -62.3854 -62.3590 -62.3506 -62.3491 -62.3480
   -62.3415 -62.3339 -35.5415 -35.5300 -35.5175 -35.5138 -35.4957 -35.4789
   -35.4633 -35.4604 -35.4583 -35.4564 -35.4392 -35.4357 -35.4330 -35.4097
   -35.4052 -35.4017 -35.3967 -35.3915 -35.3893 -35.3831 -35.3802 -35.3769
   -35.3760 -35.3711 -35.3551 -35.3536 -35.3340 -31.2506 -31.2478 -31.2312
   -31.2205 -31.2190 -31.2183 -31.2135 -31.2072 -31.2012 -31.2000 -31.1961
   -31.1959 -31.1852 -31.1820 -31.1798 -31.1757 -31.1746 -31.1727 -31.1695
   -31.1686 -31.1681 -31.1648 -31.1574 -31.1533 -31.1510 -31.1500 -31.1458
     6.4979   6.5809   6.5922   6.6683   7.8212   7.8261   7.8605   7.8743
     7.9056   7.9274   7.9429   7.9548   8.2618   8.2845   8.2961   8.3029
     8.5151   8.5234   8.5274   8.5391   8.6561   8.6674   8.6734   8.6824
     8.6889   8.6965   8.7008   8.7148   8.7282   8.7301   8.7490   8.7497
     8.7681   8.7688   8.7805   8.8258   8.9263   8.9950   9.0173   9.0235
     9.0334   9.0650   9.0700   9.0778   9.1555   9.1980   9.2060   9.2204
     9.2301   9.2304   9.2329   9.2379   9.2405   9.2453   9.2559   9.2592
     9.2608   9.2655   9.2732   9.2760   9.2865   9.3807   9.3858   9.3927
     9.4054   9.4264   9.4534   9.4551   9.4703   9.4713   9.4758   9.4781
     9.4822   9.4844   9.5071   9.5100   9.5275   9.5444   9.5633   9.5708
     9.5870   9.6310   9.7519   9.7615   9.7831   9.7884   9.7920   9.8198
     9.8280   9.8300   9.8442   9.8499   9.8623   9.8721   9.8846   9.8893
     9.9442   9.9709  10.0053  10.0103  10.0322  10.0377  10.0555  10.0614
    10.3539  10.3753  10.3758  10.3861  10.4079  10.4189  10.4252  10.4284
    10.4331  10.4587  10.4713  10.4843  10.4861  10.4918  10.4962  10.5371
    10.5462  10.5606  10.5777  10.5838  10.5914  10.6036  10.6160  10.6257
    10.6545  10.6582  10.6725  10.6731  10.6813  10.6952  10.7138  10.7184
    10.7286  10.8559  10.8578  10.8946  10.9737  11.0032  11.0121  11.0854
    11.1145  11.1201  11.1267  11.1795  11.1865  11.1948  11.1954  11.2033
    11.2110  11.2144  11.2724  11.3308  11.3337  11.3355  11.3641  11.3697
    11.3705  11.3827  11.4053  11.4421  11.4502  11.4633  11.4752  11.5354
    11.5366  11.5657  11.5680  11.5712  11.5781  11.5824  11.5920  11.6024
    11.6320  11.6356  11.7216  11.7238  11.7370  11.7512  11.7723  11.8021
    11.8870  11.8979  11.9101  11.9568  11.9600  11.9656  11.9793  12.0051
    12.0122  12.0211  12.0216  12.0318  12.0353  12.0398  12.0955  12.1268
    12.1576  12.1800  12.1923  12.2033  12.2240  12.2443  12.3211  12.3384
    12.3829  12.3890  12.4051  12.4257  12.4464  12.4479  12.4555  12.4690
    12.4796  12.4907  12.5091  12.5139  12.5566  12.5613  12.5861  12.5867
    12.6327  12.6462  12.6475  12.6630  12.7054  12.7538  12.8496  12.8544
    12.8651  12.8865  12.9462  12.9984  13.0180  13.0318  13.0345  13.0732
    13.1574  13.1877  13.2638  13.3490  13.5220  13.5361  13.6821  13.7723
    13.7778  13.9308  14.0267  14.0456  14.1397  14.1410  14.1756  14.3733
    14.4167  14.5328  14.5759  14.6091  14.6283  14.7432  14.8177  15.0483
    15.1410  15.1901  15.2851  15.3880  15.4627  15.4723  15.5210  15.5563
    15.6333  15.6473  15.6955  15.7213  15.7277  15.7955  15.8941  16.0906
    16.1013  16.1091  16.1354  16.1532  16.1563  16.1812  16.2095  16.2097
    16.2549  16.2793  16.2892  16.2934  16.3281  16.3952  16.4679  16.4720
    16.5053  16.5365  16.5554  16.6110  16.6132  16.6352  16.6908  16.6943
    16.7001  16.7560  16.7759  16.8488  16.8751  16.9193  16.9699  16.9840
    17.0828  17.1009  17.2077  17.2921  18.6125  18.6674  18.7585  18.7622
    18.7839  18.7888  18.7944  18.8453  18.8795  18.8928  18.9455  18.9907

 ------ SPIN DOWN ----------


          k = 0.0000 0.0000 0.0000 ( 31747 PWs)   bands (ev):

   -66.7879 -66.7543 -66.7086 -66.7070 -66.6634 -66.6454 -66.6388 -66.6338
   -66.6171 -62.4138 -62.3919 -62.3853 -62.3597 -62.3508 -62.3497 -62.3478
   -62.3416 -62.3337 -35.5420 -35.5304 -35.5180 -35.5144 -35.4960 -35.4791
   -35.4634 -35.4608 -35.4581 -35.4566 -35.4393 -35.4359 -35.4329 -35.4094
   -35.4044 -35.4004 -35.3958 -35.3915 -35.3874 -35.3830 -35.3791 -35.3765
   -35.3759 -35.3708 -35.3551 -35.3535 -35.3335 -31.2502 -31.2475 -31.2311
   -31.2202 -31.2186 -31.2181 -31.2135 -31.2081 -31.2018 -31.1998 -31.1962
   -31.1961 -31.1859 -31.1818 -31.1800 -31.1755 -31.1745 -31.1729 -31.1697
   -31.1687 -31.1679 -31.1656 -31.1577 -31.1532 -31.1508 -31.1501 -31.1463
     5.6143   7.1506   7.1597   7.1943   7.2059   7.3658   7.8591   7.8883
     7.9119   7.9427   8.0843   8.1088   8.1348   8.1529   8.1908   8.2440
     8.2619   8.2923   8.3105   8.5237   8.5494   8.5640   8.5693   8.5944
     8.6034   8.8570   8.8675   8.8687   8.8789   8.8852   8.8932   8.9016
     8.9030   8.9059   8.9139   8.9167   8.9309   8.9408   8.9622   8.9636
     8.9866   9.0852   9.1194   9.1266   9.1285   9.1312   9.1594   9.1602
     9.1885   9.2010   9.2119   9.2690   9.2780   9.2937   9.3061   9.3525
     9.3556   9.3619   9.3719   9.3764   9.3821   9.3852   9.4125   9.4259
     9.4461   9.4481   9.4556   9.4663   9.4672   9.4727   9.4955   9.5813
     9.5838   9.5839   9.5886   9.5913   9.6138   9.6583   9.6684   9.6725
     9.6737   9.6766   9.6810   9.7403   9.7584   9.7730   9.7930   9.8493
     9.8506   9.9121   9.9207   9.9505   9.9550   9.9637  10.0164  10.0374
    10.0966  10.1285  10.1363  10.1582  10.2922  10.2931  10.2953  10.2996
    10.3008  10.3063  10.3064  10.3116  10.3116  10.3249  10.3342  10.3454
    10.3497  10.3511  10.3546  10.3565  10.3615  10.3658  10.3809  10.3853
    10.4008  10.5134  10.5166  10.5533  10.5706  10.6180  10.6218  10.6426
    10.6915  10.7845  10.7869  10.8139  10.8198  10.8266  10.8321  10.8492
    10.8540  10.8596  10.8629  10.8746  10.8780  10.8824  10.8988  10.9138
    10.9171  10.9180  11.0143  11.0351  11.0757  11.0978  11.2207  11.2226
    11.2265  11.2290  11.2570  11.2751  11.3070  11.3283  11.3339  11.3460
    11.3547  11.3670  11.3880  11.3916  11.4014  11.4090  11.4152  11.4217
    11.4399  11.4651  11.5322  11.5551  11.5911  11.5939  11.5967  11.5980
    11.5986  11.6679  11.7049  11.7270  11.7316  11.7318  11.7442  11.7493
    11.8302  11.8331  11.8363  11.8719  11.8731  11.9096  11.9273  11.9454
    11.9494  12.0144  12.0809  12.1012  12.1021  12.1034  12.1061  12.1442
    12.1458  12.1479  12.1493  12.1618  12.1740  12.1814  12.1915  12.2317
    12.2450  12.2464  12.3228  12.3359  12.3422  12.3617  12.3683  12.4258
    12.4297  12.4345  12.4429  12.4734  12.4883  12.5002  12.5033  12.5145
    12.5170  12.5417  12.5419  12.5554  12.5628  12.5766  12.5871  12.6516
    12.7003  12.7083  12.7438  12.7541  12.9977  13.0303  13.0915  13.1063
    13.1300  13.1313  13.1784  13.1888  13.3759  13.4664  13.6751  13.8222
    13.8391  13.9611  14.0070  14.2393  14.2436  14.3452  14.3519  14.5017
    14.7790  14.8897  14.9449  15.0461  15.0521  15.1533  15.1834  15.2345
    15.2952  15.3343  15.3729  15.3931  15.4472  15.4663  15.5181  15.5773
    15.6578  15.6583  15.7346  15.7557  15.7843  15.7978  15.9151  15.9221
    16.0060  16.0821  16.1078  16.1098  16.1145  16.1453  16.1789  16.2116
    16.2215  16.2442  16.2785  16.3402  16.3620  16.3666  16.3779  16.4383
    16.4471  16.4670  16.4735  16.5807  16.6414  16.6510  16.7559  16.8494
    16.9768  17.0302  17.1652  17.1906  17.2029  17.2472  17.2638  17.3292
    17.5019  17.5521  17.8672  17.9114  17.9335  17.9475  17.9713  18.0365
    18.1153  18.2166  18.3698  18.9817  19.0337  19.0342  19.1562  19.2289

          k = 0.0000 0.0000-0.5734 ( 31692 PWs)   bands (ev):

   -66.7879 -66.7543 -66.7086 -66.7070 -66.6634 -66.6454 -66.6388 -66.6338
   -66.6171 -62.4138 -62.3919 -62.3853 -62.3597 -62.3508 -62.3497 -62.3478
   -62.3416 -62.3337 -35.5420 -35.5304 -35.5180 -35.5144 -35.4960 -35.4791
   -35.4634 -35.4608 -35.4581 -35.4566 -35.4393 -35.4359 -35.4329 -35.4094
   -35.4044 -35.4004 -35.3958 -35.3915 -35.3874 -35.3830 -35.3791 -35.3765
   -35.3759 -35.3708 -35.3551 -35.3535 -35.3335 -31.2502 -31.2475 -31.2311
   -31.2202 -31.2186 -31.2181 -31.2135 -31.2081 -31.2018 -31.1998 -31.1962
   -31.1961 -31.1859 -31.1818 -31.1800 -31.1755 -31.1745 -31.1729 -31.1697
   -31.1687 -31.1679 -31.1656 -31.1577 -31.1532 -31.1508 -31.1501 -31.1463
     6.1372   6.2332   7.5249   7.5344   7.5620   7.5805   7.5857   7.6015
     7.6315   7.6384   8.3041   8.3075   8.3204   8.3432   8.3491   8.3831
     8.3904   8.4083   8.4559   8.4672   8.4689   8.4867   8.4895   8.4950
     8.5090   8.5112   8.6861   8.7253   8.7292   8.8162   8.9397   8.9463
     8.9505   8.9705   8.9812   8.9832   8.9900   8.9946   9.0095   9.0265
     9.0329   9.0466   9.0496   9.0608   9.0945   9.1012   9.1762   9.1879
     9.2191   9.2322   9.2454   9.2595   9.2615   9.2703   9.2792   9.2821
     9.2854   9.2984   9.2992   9.3047   9.3150   9.3271   9.4074   9.4118
     9.4119   9.4259   9.4296   9.4314   9.4421   9.4532   9.4611   9.4660
     9.4744   9.4878   9.4958   9.5148   9.5539   9.5752   9.5899   9.7287
     9.7783   9.7941   9.7991   9.8007   9.8091   9.8221   9.8453   9.8464
     9.8745   9.8780   9.8803   9.8829   9.8836   9.8857   9.8890   9.8906
    10.0538  10.0557  10.0661  10.0675  10.1293  10.1322  10.1352  10.1467
    10.1739  10.1815  10.1978  10.2150  10.2177  10.2225  10.3477  10.3779
    10.3787  10.3892  10.3954  10.4000  10.4006  10.4289  10.4322  10.5528
    10.5918  10.5978  10.6029  10.6094  10.6139  10.6329  10.6402  10.6696
    10.6725  10.6814  10.6939  10.7197  10.7622  10.8112  10.8716  10.8982
    10.9208  10.9431  10.9928  11.0088  11.0371  11.0606  11.0665  11.0817
    11.0850  11.0872  11.1141  11.1326  11.1419  11.1691  11.1720  11.1860
    11.1953  11.2316  11.2505  11.2510  11.2526  11.2547  11.2648  11.2659
    11.2686  11.2697  11.2780  11.2792  11.2872  11.3008  11.3035  11.3053
    11.3217  11.3283  11.3293  11.3314  11.5135  11.6243  11.7075  11.7113
    11.7114  11.7148  11.7178  11.7234  11.7263  11.7334  11.7358  11.7396
    11.7548  11.7742  11.7948  11.7970  11.8135  11.8323  11.8354  11.8407
    11.9496  11.9681  11.9873  11.9987  12.0349  12.0389  12.0815  12.0881
    12.1339  12.1743  12.2151  12.2423  12.2481  12.2695  12.3073  12.3731
    12.3829  12.4079  12.4213  12.4382  12.4527  12.4799  12.4894  12.4900
    12.4931  12.5297  12.5356  12.5457  12.5483  12.5700  12.5784  12.5907
    12.6202  12.6334  12.7351  12.7914  12.8196  12.8704  12.8790  12.9146
    12.9791  13.0339  13.0370  13.0741  13.1239  13.1250  13.1451  13.1455
    13.1961  13.2167  13.2508  13.4282  13.5026  13.5316  13.5358  13.7479
    13.8791  13.9534  14.0170  14.0720  14.1240  14.1688  14.2659  14.4351
    14.4911  14.8857  14.9222  14.9552  14.9758  15.0335  15.0577  15.0715
    15.1488  15.1878  15.2031  15.2092  15.2519  15.2744  15.3640  15.6302
    15.6558  15.7187  15.7434  15.7688  15.8491  15.8854  15.9577  16.0230
    16.1024  16.1243  16.1250  16.1316  16.1352  16.1721  16.1812  16.2124
    16.2343  16.2381  16.2439  16.2598  16.2638  16.2695  16.2867  16.3453
    16.3831  16.4391  16.4480  16.5154  16.6020  16.6901  16.7244  16.7594
    16.8888  16.9575  17.2467  17.3442  17.4170  17.4702  17.5392  17.5481
    17.5704  17.5723  17.6119  17.6434  17.6510  17.7256  17.7889  17.8373
    17.9058  17.9303  18.0794  18.1224  18.1774  18.2583  18.3469  18.3612

          k = 0.0000-0.5000 0.0000 ( 31722 PWs)   bands (ev):

   -66.7879 -66.7543 -66.7086 -66.7070 -66.6634 -66.6454 -66.6388 -66.6338
   -66.6171 -62.4138 -62.3919 -62.3853 -62.3597 -62.3508 -62.3497 -62.3478
   -62.3416 -62.3337 -35.5420 -35.5304 -35.5181 -35.5144 -35.4959 -35.4791
   -35.4634 -35.4608 -35.4581 -35.4566 -35.4393 -35.4359 -35.4329 -35.4094
   -35.4044 -35.4005 -35.3958 -35.3914 -35.3874 -35.3830 -35.3798 -35.3765
   -35.3741 -35.3718 -35.3551 -35.3536 -35.3335 -31.2505 -31.2475 -31.2302
   -31.2202 -31.2186 -31.2186 -31.2135 -31.2081 -31.2021 -31.1998 -31.1962
   -31.1958 -31.1862 -31.1818 -31.1789 -31.1755 -31.1745 -31.1729 -31.1697
   -31.1693 -31.1679 -31.1656 -31.1577 -31.1532 -31.1508 -31.1501 -31.1463
     6.0330   6.0514   7.4068   7.4393   7.4548   7.4860   7.6753   7.6795
     8.1014   8.1221   8.1506   8.1732   8.1777   8.2333   8.2452   8.2890
     8.3899   8.4161   8.4546   8.4857   8.5959   8.6228   8.6437   8.6542
     8.6777   8.6788   8.6988   8.7064   8.7380   8.8126   8.8211   8.8370
     8.8427   8.8735   8.8756   8.8817   8.9064   8.9091   8.9123   8.9203
     8.9263   8.9309   8.9389   8.9504   9.0501   9.0532   9.1580   9.1768
     9.1875   9.1989   9.2120   9.2246   9.2429   9.2503   9.3159   9.3234
     9.3376   9.3839   9.4015   9.4027   9.4740   9.4774   9.4838   9.4970
     9.5370   9.5406   9.5418   9.5728   9.5756   9.6025   9.6041   9.6158
     9.6179   9.6197   9.6283   9.6286   9.6332   9.6408   9.6466   9.6565
     9.6656   9.6673   9.6673   9.6799   9.6911   9.7150   9.7247   9.7493
     9.7564   9.7622   9.7702   9.7745   9.8895   9.8971   9.9034  10.0053
    10.0160  10.0320  10.1562  10.1855  10.2135  10.2249  10.2469  10.2522
    10.2694  10.2720  10.2776  10.2795  10.2812  10.2876  10.3461  10.3606
    10.3649  10.3814  10.3838  10.3901  10.4301  10.4411  10.4432  10.4496
    10.4889  10.5148  10.5182  10.5319  10.5634  10.5654  10.5853  10.5936
    10.6075  10.6571  10.6910  10.6989  10.7043  10.7062  10.7395  10.7806
    10.8056  10.8129  10.8342  10.8479  10.8697  10.8859  10.9062  10.9241
    10.9304  10.9961  11.0048  11.0273  11.0514  11.1236  11.1629  11.1935
    11.2743  11.3443  11.3510  11.3611  11.3661  11.3968  11.4002  11.4043
    11.4187  11.4452  11.4824  11.4919  11.4936  11.5468  11.5515  11.5759
    11.5838  11.5944  11.6003  11.6099  11.6151  11.6575  11.6577  11.7223
    11.7458  11.7830  11.8019  11.8115  11.8137  11.8387  11.8429  11.8611
    11.8648  11.8841  11.8977  11.9179  11.9257  11.9470  11.9678  11.9719
    11.9829  12.0053  12.0174  12.0183  12.0390  12.1303  12.1454  12.1879
    12.1951  12.2096  12.2294  12.2411  12.2428  12.2607  12.2629  12.2786
    12.2854  12.2957  12.2986  12.3010  12.3795  12.3961  12.4056  12.4068
    12.4494  12.4586  12.4641  12.4758  12.4816  12.5154  12.5192  12.5515
    12.5726  12.5781  12.6077  12.6635  12.6658  12.7042  12.7247  12.7722
    12.7973  12.8594  12.9272  12.9767  13.0586  13.0762  13.1361  13.1426
    13.1508  13.2022  13.2205  13.2280  13.2667  13.2696  13.3130  13.3254
    13.3677  13.4340  13.4581  13.7218  13.7453  14.1263  14.5109  14.5736
    14.6266  14.7447  14.7878  14.8568  14.8652  14.8836  14.9321  14.9546
    15.0782  15.1063  15.2295  15.3328  15.3779  15.3959  15.5115  15.5672
    15.6856  15.7467  15.7488  15.7883  15.8371  15.8620  15.9304  16.0247
    16.0251  16.0540  16.0553  16.0702  16.1013  16.1305  16.1424  16.1560
    16.1776  16.1972  16.2377  16.2476  16.2608  16.2959  16.3480  16.3643
    16.4208  16.4242  16.5499  16.5876  16.7160  16.8006  16.9979  17.0326
    17.1182  17.2072  17.2529  17.3928  17.4387  17.5600  17.6107  17.6247
    17.7090  17.7460  17.7704  17.8228  17.8321  17.8590  17.9187  18.0032
    18.0451  18.0618  18.1303  18.2135  19.2644  19.2911  19.3110  19.3598

          k = 0.0000-0.5000-0.5734 ( 31696 PWs)   bands (ev):

   -66.7879 -66.7543 -66.7086 -66.7070 -66.6634 -66.6454 -66.6388 -66.6338
   -66.6171 -62.4138 -62.3919 -62.3853 -62.3597 -62.3508 -62.3497 -62.3478
   -62.3416 -62.3337 -35.5420 -35.5304 -35.5181 -35.5144 -35.4959 -35.4791
   -35.4634 -35.4608 -35.4581 -35.4566 -35.4393 -35.4359 -35.4329 -35.4094
   -35.4044 -35.4005 -35.3958 -35.3914 -35.3874 -35.3830 -35.3798 -35.3765
   -35.3741 -35.3718 -35.3551 -35.3536 -35.3335 -31.2505 -31.2475 -31.2302
   -31.2202 -31.2186 -31.2186 -31.2135 -31.2081 -31.2021 -31.1998 -31.1962
   -31.1958 -31.1862 -31.1818 -31.1789 -31.1755 -31.1745 -31.1729 -31.1697
   -31.1693 -31.1679 -31.1656 -31.1577 -31.1532 -31.1508 -31.1501 -31.1463
     6.5232   6.5535   6.6066   6.6519   7.8323   7.8399   7.8455   7.8790
     7.8988   7.9313   7.9451   7.9496   8.2641   8.2821   8.2928   8.3049
     8.5040   8.5251   8.5356   8.5410   8.6376   8.6659   8.6735   8.6867
     8.6917   8.6960   8.7127   8.7165   8.7209   8.7238   8.7443   8.7582
     8.7588   8.7637   8.7837   8.8430   8.9457   8.9714   9.0246   9.0263
     9.0306   9.0607   9.0650   9.0807   9.1816   9.1990   9.2015   9.2116
     9.2177   9.2214   9.2234   9.2299   9.2357   9.2465   9.2551   9.2653
     9.2719   9.2810   9.2884   9.2914   9.3052   9.3622   9.3807   9.3829
     9.4067   9.4260   9.4527   9.4567   9.4636   9.4650   9.4715   9.4854
     9.4876   9.4928   9.5000   9.5018   9.5149   9.5451   9.5505   9.5739
     9.5825   9.6198   9.7520   9.7630   9.7741   9.7775   9.8046   9.8242
     9.8249   9.8388   9.8487   9.8543   9.8576   9.8609   9.8933   9.8947
     9.9594   9.9855   9.9889   9.9985  10.0301  10.0308  10.0547  10.0695
    10.3572  10.3861  10.3924  10.4060  10.4118  10.4176  10.4236  10.4304
    10.4489  10.4609  10.4729  10.4789  10.4883  10.4941  10.4986  10.5178
    10.5274  10.5634  10.5757  10.5792  10.5980  10.6103  10.6150  10.6171
    10.6408  10.6494  10.6675  10.6701  10.6781  10.6927  10.7164  10.7171
    10.7299  10.8554  10.8614  10.9048  10.9633  10.9951  11.0353  11.1086
    11.1149  11.1309  11.1346  11.1498  11.1606  11.1891  11.1977  11.2099
    11.2113  11.2144  11.2556  11.3169  11.3436  11.3522  11.3652  11.3705
    11.3783  11.3815  11.4105  11.4260  11.4398  11.4851  11.4886  11.5109
    11.5197  11.5572  11.5739  11.5788  11.5811  11.5960  11.6027  11.6205
    11.6227  11.6418  11.6429  11.7109  11.7561  11.7650  11.8161  11.8243
    11.8926  11.8978  11.9037  11.9531  11.9614  11.9620  11.9821  12.0092
    12.0218  12.0273  12.0274  12.0332  12.0366  12.0390  12.0783  12.1336
    12.1434  12.1598  12.1822  12.2214  12.2324  12.2578  12.2918  12.3373
    12.3705  12.4112  12.4166  12.4232  12.4446  12.4468  12.4742  12.4888
    12.4996  12.5126  12.5153  12.5310  12.5451  12.5621  12.6269  12.6281
    12.6309  12.6406  12.6588  12.6610  12.7311  12.7573  12.7670  12.7791
    12.8679  12.8811  12.9118  12.9768  13.0106  13.0256  13.0437  13.0629
    13.0811  13.1955  13.2595  13.3549  13.4467  13.5347  13.5654  13.7996
    13.8733  13.9810  14.0568  14.1162  14.1499  14.2426  14.2699  14.3974
    14.4216  14.4620  14.5294  14.5801  14.6945  14.7050  14.7918  15.0323
    15.0920  15.2019  15.2683  15.3117  15.3448  15.3834  15.5589  15.5873
    15.6074  15.6834  15.7818  15.7981  15.8606  15.9213  15.9391  15.9683
    16.0358  16.0724  16.0874  16.1241  16.1493  16.1740  16.2144  16.2292
    16.2423  16.2691  16.2781  16.2785  16.2910  16.3347  16.3665  16.4835
    16.4861  16.5330  16.5461  16.5946  16.6133  16.6485  16.6876  16.7444
    16.7468  16.8058  16.8318  16.8994  16.9136  16.9525  16.9587  16.9948
    17.0805  17.1205  17.2058  17.2826  18.5592  18.6772  18.7113  18.7180
    18.7458  18.7992  18.8344  18.8552  18.8645  18.9200  18.9659  18.9889

          k =-0.5000-0.5000 0.0000 ( 31612 PWs)   bands (ev):

   -66.7879 -66.7543 -66.7086 -66.7070 -66.6634 -66.6454 -66.6388 -66.6338
   -66.6171 -62.4138 -62.3919 -62.3853 -62.3597 -62.3508 -62.3497 -62.3478
   -62.3416 -62.3337 -35.5420 -35.5304 -35.5181 -35.5144 -35.4959 -35.4791
   -35.4634 -35.4608 -35.4581 -35.4566 -35.4393 -35.4359 -35.4329 -35.4094
   -35.4044 -35.4004 -35.3958 -35.3914 -35.3874 -35.3830 -35.3798 -35.3765
   -35.3741 -35.3718 -35.3551 -35.3536 -35.3335 -31.2505 -31.2475 -31.2302
   -31.2204 -31.2186 -31.2186 -31.2135 -31.2078 -31.2022 -31.1998 -31.1962
   -31.1958 -31.1861 -31.1818 -31.1789 -31.1755 -31.1745 -31.1729 -31.1698
   -31.1693 -31.1679 -31.1656 -31.1577 -31.1532 -31.1508 -31.1501 -31.1463
     6.4079   6.4307   6.4450   6.4753   8.0109   8.0169   8.0208   8.0238
     8.0806   8.1341   8.2892   8.3222   8.3251   8.3394   8.3402   8.3448
     8.3467   8.3578   8.3615   8.3639   8.3696   8.3884   8.5532   8.5724
     8.6416   8.6663   8.6778   8.6982   8.7121   8.7334   8.7394   8.7499
     8.7564   8.7942   8.9005   8.9197   8.9543   8.9754   8.9773   8.9781
     8.9826   8.9887   8.9955   9.0091   9.0113   9.0329   9.0528   9.0728
     9.1044   9.1439   9.3109   9.3153   9.3168   9.3211   9.4012   9.4071
     9.4093   9.4162   9.4175   9.4222   9.4272   9.4280   9.4403   9.4538
     9.4588   9.4668   9.4765   9.4808   9.4851   9.4912   9.4993   9.5025
     9.5120   9.5217   9.5422   9.5572   9.5664   9.5686   9.5737   9.5809
     9.5995   9.6101   9.6976   9.7000   9.7664   9.8211   9.8220   9.8329
     9.8332   9.8352   9.8361   9.8449   9.8595   9.8722  10.0324  10.0596
    10.0674  10.0885  10.1006  10.1209  10.1357  10.1407  10.1541  10.1599
    10.1805  10.1932  10.2018  10.2096  10.2217  10.2282  10.2306  10.2358
    10.2371  10.2379  10.2584  10.2730  10.4472  10.4705  10.4734  10.4884
    10.4949  10.5005  10.5248  10.5334  10.6225  10.6365  10.6504  10.6568
    10.6624  10.6639  10.6699  10.6725  10.6919  10.6969  10.7021  10.7039
    10.7162  10.7422  10.7638  10.7930  10.8161  10.8672  10.8780  10.8930
    10.9124  10.9285  11.1993  11.2069  11.2140  11.2233  11.2865  11.3014
    11.3201  11.3451  11.3583  11.3662  11.4037  11.4193  11.5524  11.5678
    11.5813  11.5951  11.6138  11.6385  11.6407  11.6453  11.6492  11.6500
    11.6571  11.6773  11.6847  11.7199  11.7399  11.7444  11.7557  11.8737
    11.8746  11.8779  11.8793  11.8802  11.8828  11.8907  11.9959  12.0152
    12.0189  12.0205  12.0932  12.0987  12.1031  12.1089  12.1096  12.1115
    12.1188  12.1190  12.1252  12.1297  12.1368  12.1430  12.1682  12.1753
    12.1944  12.2021  12.2110  12.2120  12.2183  12.2269  12.2273  12.2532
    12.2715  12.2784  12.2808  12.2844  12.2921  12.3007  12.3226  12.3338
    12.3492  12.3988  12.4329  12.4404  12.4545  12.4651  12.4851  12.5238
    12.5296  12.5522  12.5830  12.5971  12.6033  12.6261  12.6441  12.6817
    12.6979  12.7127  12.7535  12.7804  12.8161  12.8737  12.9379  12.9508
    12.9523  12.9770  12.9837  13.0073  13.0328  13.4381  13.6681  13.6721
    13.6772  13.7551  13.8350  13.8493  13.9253  13.9260  13.9839  14.2035
    14.2743  14.2814  14.3233  14.3888  14.4586  14.7783  14.8024  14.8618
    15.1068  15.1421  15.1743  15.3053  15.4091  15.5084  15.6146  15.7407
    15.7799  15.8014  15.8138  15.8402  15.8616  15.8895  15.8974  15.9303
    15.9424  15.9786  15.9865  16.0061  16.0313  16.0658  16.0911  16.1651
    16.1903  16.2390  16.2777  16.2993  16.3137  16.3660  16.3720  16.4161
    16.4863  16.5184  16.5775  16.6651  16.6654  16.7185  16.7406  16.7972
    16.8082  16.8769  16.9805  17.0150  17.3815  17.3974  17.4793  18.1373
    18.1637  18.2021  18.2081  18.2390  18.2447  18.4162  18.4985  18.5532
    18.5673  18.6166  18.6422  18.6531  18.7311  18.7923  18.7976  18.8046

          k =-0.5000-0.5000-0.5734 ( 31672 PWs)   bands (ev):

   -66.7879 -66.7543 -66.7086 -66.7070 -66.6634 -66.6454 -66.6388 -66.6338
   -66.6171 -62.4138 -62.3919 -62.3853 -62.3597 -62.3508 -62.3497 -62.3478
   -62.3416 -62.3337 -35.5420 -35.5304 -35.5181 -35.5144 -35.4959 -35.4791
   -35.4634 -35.4608 -35.4581 -35.4566 -35.4393 -35.4359 -35.4329 -35.4094
   -35.4044 -35.4004 -35.3958 -35.3914 -35.3874 -35.3830 -35.3798 -35.3765
   -35.3741 -35.3718 -35.3551 -35.3536 -35.3335 -31.2505 -31.2475 -31.2302
   -31.2204 -31.2186 -31.2186 -31.2135 -31.2078 -31.2022 -31.1998 -31.1962
   -31.1958 -31.1861 -31.1818 -31.1789 -31.1755 -31.1745 -31.1729 -31.1698
   -31.1693 -31.1679 -31.1656 -31.1577 -31.1532 -31.1508 -31.1501 -31.1463
     6.8809   6.8876   6.9314   6.9397   6.9989   7.0168   7.0475   7.0520
     8.4394   8.4705   8.4731   8.4788   8.4847   8.4900   8.4933   8.4951
     8.5010   8.5036   8.5061   8.5135   8.5235   8.5438   8.5443   8.5572
     8.5766   8.5770   8.5877   8.6452   8.8775   8.8788   8.8902   8.8985
     8.9165   8.9222   8.9290   8.9358   9.0835   9.0873   9.1152   9.1211
     9.1267   9.1272   9.1400   9.1474   9.1547   9.1572   9.1588   9.1628
     9.1628   9.1656   9.1691   9.1756   9.1773   9.1790   9.1791   9.1821
     9.1837   9.1848   9.1923   9.1949   9.1981   9.2047   9.2138   9.2154
     9.2346   9.2375   9.2403   9.2493   9.2609   9.2641   9.2711   9.2835
     9.5429   9.5473   9.5625   9.5662   9.5806   9.5882   9.6190   9.6266
     9.6349   9.6426   9.6683   9.6928   9.7096   9.7499   9.7864   9.7966
     9.8108   9.8192   9.8391   9.8586   9.8801   9.8923   9.8952   9.9009
    10.0978  10.1186  10.1500  10.1590  10.1602  10.1743  10.1995  10.2097
    10.2677  10.3354  10.4309  10.4413  10.4570  10.4657  10.4784  10.4829
    10.4883  10.4937  10.4977  10.5010  10.5037  10.5121  10.5194  10.5231
    10.5255  10.5358  10.5437  10.5499  10.5512  10.5591  10.6081  10.6155
    10.6262  10.6345  10.6359  10.6370  10.6467  10.6606  10.6636  10.6704
    10.6853  10.6893  10.6943  10.6962  10.7127  10.7190  11.0305  11.0578
    11.0674  11.0774  11.0849  11.0979  11.1081  11.1324  11.3775  11.3810
    11.3909  11.4012  11.4096  11.4203  11.4412  11.4553  11.4562  11.4656
    11.4866  11.4917  11.4978  11.5077  11.5381  11.5466  11.5898  11.6356
    11.6371  11.6389  11.6577  11.6651  11.6733  11.6991  11.7047  11.7148
    11.7160  11.7195  11.7231  11.7394  11.7633  11.7659  11.7702  11.7869
    11.8025  11.8151  11.8266  11.8334  11.8433  11.9566  11.9720  11.9797
    11.9936  12.0199  12.0540  12.0894  12.1050  12.1106  12.1200  12.1390
    12.1731  12.1852  12.2151  12.2251  12.2770  12.2826  12.2906  12.3020
    12.3085  12.3477  12.3744  12.3910  12.4387  12.4461  12.4645  12.4792
    12.4889  12.5059  12.5293  12.5356  12.5459  12.5656  12.5907  12.6007
    12.6584  12.6904  12.7102  12.7362  12.7417  12.7813  12.8073  12.8932
    12.9605  12.9775  12.9920  13.0034  13.1165  13.1200  13.1394  13.1694
    13.1874  13.2067  13.2499  13.2993  13.3388  13.3546  13.3742  13.5091
    13.5486  13.5768  13.6907  13.7554  13.9650  13.9687  14.0248  14.0979
    14.1743  14.2473  14.3578  14.3975  14.7718  14.7813  14.9780  15.0519
    15.1339  15.2833  15.3555  15.4223  15.4384  15.6359  15.7048  15.7253
    15.7264  15.7645  15.8117  15.8256  15.8324  15.8761  15.9097  15.9247
    15.9355  15.9623  15.9916  16.0431  16.0549  16.1071  16.1300  16.1938
    16.2145  16.2408  16.2496  16.2507  16.2939  16.3706  16.4443  16.5227
    16.5405  16.5817  16.6156  16.6191  16.6396  16.6743  16.7340  16.7598
    16.7825  16.8504  16.8542  16.9069  16.9204  16.9688  17.0001  17.0282
    17.1059  17.1330  17.4406  17.6900  17.9607  18.0629  19.0016  19.0362
    19.0385  19.0645  19.1103  19.1299  19.1739  19.2308  19.2326  19.3275

          k =-0.5000 0.0000 0.0000 ( 31722 PWs)   bands (ev):

   -66.7879 -66.7543 -66.7086 -66.7070 -66.6634 -66.6454 -66.6388 -66.6338
   -66.6171 -62.4138 -62.3919 -62.3853 -62.3597 -62.3508 -62.3497 -62.3478
   -62.3416 -62.3337 -35.5420 -35.5304 -35.5180 -35.5144 -35.4960 -35.4791
   -35.4634 -35.4608 -35.4581 -35.4566 -35.4393 -35.4359 -35.4329 -35.4094
   -35.4044 -35.4003 -35.3958 -35.3915 -35.3874 -35.3830 -35.3791 -35.3765
   -35.3759 -35.3708 -35.3551 -35.3535 -35.3335 -31.2502 -31.2475 -31.2311
   -31.2204 -31.2186 -31.2181 -31.2135 -31.2078 -31.2019 -31.1998 -31.1962
   -31.1960 -31.1858 -31.1818 -31.1800 -31.1755 -31.1745 -31.1729 -31.1699
   -31.1687 -31.1679 -31.1656 -31.1577 -31.1532 -31.1508 -31.1501 -31.1463
     6.0234   6.0608   7.4183   7.4371   7.4494   7.4839   7.6720   7.6819
     8.0994   8.1176   8.1373   8.1799   8.2118   8.2171   8.2422   8.2818
     8.4026   8.4269   8.4356   8.4770   8.5947   8.6361   8.6473   8.6548
     8.6602   8.6928   8.6974   8.7022   8.7352   8.7997   8.8264   8.8443
     8.8499   8.8603   8.8807   8.8914   8.9044   8.9090   8.9145   8.9200
     8.9261   8.9295   8.9356   8.9465   9.0475   9.0546   9.1616   9.1826
     9.1924   9.1958   9.2022   9.2317   9.2385   9.2531   9.3155   9.3388
     9.3537   9.3646   9.3778   9.4126   9.4752   9.4849   9.4941   9.5107
     9.5156   9.5374   9.5381   9.5557   9.5934   9.5947   9.6045   9.6180
     9.6213   9.6256   9.6310   9.6326   9.6348   9.6378   9.6419   9.6519
     9.6561   9.6636   9.6738   9.6787   9.6919   9.7171   9.7350   9.7518
     9.7594   9.7632   9.7658   9.7685   9.8955   9.8969   9.9060  10.0089
    10.0090  10.0427  10.1416  10.1914  10.2101  10.2376  10.2468  10.2553
    10.2639  10.2688  10.2702  10.2705  10.2842  10.2886  10.3436  10.3556
    10.3631  10.3793  10.3820  10.3851  10.4220  10.4451  10.4458  10.4729
    10.4807  10.5203  10.5239  10.5330  10.5454  10.5769  10.5795  10.5933
    10.6110  10.6593  10.6779  10.6809  10.7028  10.7243  10.7456  10.7620
    10.7969  10.8171  10.8266  10.8521  10.8659  10.8956  10.9143  10.9288
    10.9532  11.0121  11.0181  11.0219  11.0312  11.1258  11.1578  11.1911
    11.2857  11.3460  11.3523  11.3668  11.3842  11.3906  11.4066  11.4167
    11.4397  11.4428  11.4503  11.4633  11.5005  11.5292  11.5345  11.5572
    11.5718  11.5784  11.6022  11.6236  11.6454  11.6572  11.6860  11.7229
    11.7351  11.7768  11.7841  11.7900  11.7951  11.8328  11.8441  11.8449
    11.8524  11.8755  11.9096  11.9192  11.9381  11.9557  11.9579  11.9817
    11.9835  11.9915  12.0103  12.0119  12.1065  12.1517  12.1560  12.1876
    12.1972  12.2129  12.2132  12.2216  12.2429  12.2587  12.2777  12.2842
    12.2879  12.2947  12.3232  12.3357  12.3545  12.3740  12.4011  12.4157
    12.4308  12.4467  12.4642  12.4745  12.4824  12.5230  12.5323  12.5606
    12.5661  12.5744  12.6090  12.6175  12.6530  12.6531  12.6699  12.7489
    12.8822  12.9169  13.0207  13.0605  13.0673  13.1208  13.1376  13.1476
    13.1480  13.1870  13.1892  13.1966  13.2328  13.2866  13.2939  13.3193
    13.3476  13.3901  13.4221  13.7177  13.7469  14.2839  14.4765  14.4990
    14.6296  14.7493  14.7620  14.7934  14.8210  14.8647  14.8978  14.9709
    15.0457  15.2283  15.2403  15.3482  15.4230  15.4590  15.5153  15.6034
    15.6046  15.6978  15.7314  15.7725  15.8160  15.8189  15.8653  16.0441
    16.0500  16.0941  16.1012  16.1270  16.1457  16.1498  16.1662  16.1728
    16.2072  16.2081  16.2291  16.2538  16.2621  16.2758  16.2922  16.3427
    16.4212  16.4706  16.5125  16.5808  16.7141  16.7894  17.0011  17.0954
    17.1544  17.1911  17.1943  17.3111  17.4016  17.5333  17.6235  17.6291
    17.7148  17.7167  17.7835  17.8129  17.8763  17.8799  17.9221  17.9245
    18.0379  18.1040  18.1521  18.2307  19.2680  19.2827  19.2927  19.3322

          k =-0.5000 0.0000 0.5734 ( 31696 PWs)   bands (ev):

   -66.7879 -66.7543 -66.7086 -66.7070 -66.6634 -66.6454 -66.6388 -66.6338
   -66.6171 -62.4138 -62.3919 -62.3853 -62.3597 -62.3508 -62.3497 -62.3478
   -62.3416 -62.3337 -35.5420 -35.5304 -35.5180 -35.5144 -35.4960 -35.4791
   -35.4634 -35.4608 -35.4581 -35.4566 -35.4393 -35.4359 -35.4329 -35.4094
   -35.4044 -35.4003 -35.3958 -35.3915 -35.3874 -35.3830 -35.3791 -35.3765
   -35.3759 -35.3708 -35.3551 -35.3535 -35.3335 -31.2502 -31.2475 -31.2311
   -31.2204 -31.2186 -31.2181 -31.2135 -31.2078 -31.2019 -31.1998 -31.1962
   -31.1960 -31.1858 -31.1818 -31.1800 -31.1755 -31.1745 -31.1729 -31.1699
   -31.1687 -31.1679 -31.1656 -31.1577 -31.1532 -31.1508 -31.1501 -31.1463
     6.4979   6.5809   6.5920   6.6682   7.8212   7.8261   7.8606   7.8742
     7.9055   7.9272   7.9427   7.9548   8.2618   8.2844   8.2961   8.3029
     8.5151   8.5234   8.5274   8.5390   8.6562   8.6674   8.6734   8.6825
     8.6890   8.6966   8.7008   8.7148   8.7282   8.7301   8.7490   8.7497
     8.7681   8.7687   8.7805   8.8257   8.9263   8.9951   9.0173   9.0236
     9.0334   9.0650   9.0698   9.0778   9.1554   9.1980   9.2061   9.2205
     9.2301   9.2305   9.2329   9.2379   9.2404   9.2452   9.2560   9.2592
     9.2608   9.2655   9.2732   9.2758   9.2866   9.3807   9.3858   9.3926
     9.4054   9.4264   9.4533   9.4551   9.4704   9.4712   9.4759   9.4782
     9.4821   9.4843   9.5072   9.5101   9.5275   9.5444   9.5632   9.5708
     9.5869   9.6310   9.7520   9.7614   9.7831   9.7885   9.7921   9.8199
     9.8280   9.8299   9.8443   9.8499   9.8622   9.8720   9.8846   9.8893
     9.9443   9.9709  10.0054  10.0103  10.0322  10.0377  10.0556  10.0615
    10.3539  10.3753  10.3758  10.3861  10.4079  10.4190  10.4253  10.4283
    10.4333  10.4587  10.4713  10.4843  10.4862  10.4919  10.4962  10.5371
    10.5463  10.5606  10.5777  10.5837  10.5915  10.6035  10.6160  10.6258
    10.6545  10.6581  10.6726  10.6731  10.6814  10.6952  10.7139  10.7184
    10.7285  10.8559  10.8578  10.8947  10.9738  11.0031  11.0121  11.0853
    11.1146  11.1201  11.1268  11.1795  11.1865  11.1948  11.1954  11.2031
    11.2110  11.2144  11.2727  11.3308  11.3338  11.3355  11.3640  11.3698
    11.3706  11.3827  11.4053  11.4422  11.4503  11.4633  11.4753  11.5354
    11.5368  11.5657  11.5680  11.5712  11.5782  11.5824  11.5920  11.6024
    11.6320  11.6356  11.7216  11.7240  11.7370  11.7513  11.7724  11.8021
    11.8869  11.8980  11.9101  11.9567  11.9599  11.9656  11.9793  12.0050
    12.0122  12.0211  12.0216  12.0318  12.0354  12.0398  12.0955  12.1269
    12.1576  12.1800  12.1924  12.2033  12.2239  12.2442  12.3211  12.3385
    12.3828  12.3892  12.4049  12.4257  12.4463  12.4477  12.4554  12.4692
    12.4796  12.4908  12.5096  12.5139  12.5567  12.5615  12.5862  12.5870
    12.6327  12.6465  12.6482  12.6629  12.7055  12.7540  12.8499  12.8544
    12.8652  12.8866  12.9464  12.9983  13.0181  13.0319  13.0346  13.0735
    13.1575  13.1879  13.2639  13.3493  13.5221  13.5361  13.6820  13.7722
    13.7779  13.9306  14.0268  14.0457  14.1396  14.1409  14.1756  14.3732
    14.4168  14.5328  14.5758  14.6091  14.6284  14.7430  14.8177  15.0487
    15.1411  15.1901  15.2852  15.3880  15.4626  15.4724  15.5213  15.5564
    15.6333  15.6473  15.6952  15.7212  15.7278  15.7952  15.8940  16.0905
    16.1016  16.1086  16.1353  16.1532  16.1563  16.1809  16.2094  16.2094
    16.2546  16.2792  16.2889  16.2936  16.3279  16.3953  16.4679  16.4723
    16.5053  16.5361  16.5553  16.6109  16.6132  16.6349  16.6908  16.6942
    16.7000  16.7558  16.7759  16.8487  16.8753  16.9193  16.9697  16.9840
    17.0826  17.1008  17.2073  17.2920  18.6123  18.6674  18.7585  18.7620
    18.7839  18.7887  18.7943  18.8455  18.8794  18.8928  18.9457  18.9906

     the Fermi energy is    14.8423 ev

!    total energy              =  -33062.61059914 Ry
     Harris-Foulkes estimate   =  -33062.61058704 Ry
     estimated scf accuracy    <       0.00000090 Ry

     total all-electron energy =  -1410574.700974 Ry

     The total energy is the sum of the following terms:

     one-electron contribution =   -1645.67562823 Ry
     hartree contribution      =    1489.88879088 Ry
     xc contribution           =   -1658.75295630 Ry
     ewald contribution        =   -4919.25534656 Ry
     one-center paw contrib.   =  -26328.81545894 Ry

     total magnetization       =    -0.00 Bohr mag/cell
     absolute magnetization    =    78.95 Bohr mag/cell

     convergence has been achieved in  24 iterations

     Writing output data file mnau2.save
 
     init_run     :     52.36s CPU     53.08s WALL (       1 calls)
     electrons    :   3439.37s CPU   3496.98s WALL (       1 calls)

     Called by init_run:
     wfcinit      :     46.47s CPU     46.95s WALL (       1 calls)
     potinit      :      2.50s CPU      2.54s WALL (       1 calls)

     Called by electrons:
     c_bands      :   3043.84s CPU   3090.57s WALL (      24 calls)
     sum_band     :    332.57s CPU    339.34s WALL (      24 calls)
     v_of_rho     :      6.44s CPU      6.61s WALL (      25 calls)
     newd         :     20.11s CPU     22.98s WALL (      25 calls)
     PAW_pot      :     36.93s CPU     37.54s WALL (      25 calls)
     mix_rho      :      1.28s CPU      1.38s WALL (      24 calls)

     Called by c_bands:
     init_us_2    :     11.83s CPU     11.90s WALL (     784 calls)
     cegterg      :   2968.90s CPU   3014.51s WALL (     384 calls)

     Called by sum_band:
     sum_band:bec :      1.88s CPU      1.89s WALL (     384 calls)
     addusdens    :     36.21s CPU     39.60s WALL (      24 calls)

     Called by *egterg:
     h_psi        :   1072.02s CPU   1081.41s WALL (    1443 calls)
     s_psi        :    262.25s CPU    262.36s WALL (    1443 calls)
     g_psi        :      3.97s CPU      3.98s WALL (    1043 calls)
     cdiaghg      :   1028.79s CPU   1029.22s WALL (    1427 calls)

     Called by h_psi:
     h_psi:pot    :   1061.84s CPU   1071.17s WALL (    1443 calls)
     h_psi:calbec :    261.28s CPU    263.43s WALL (    1443 calls)
     vloc_psi     :    537.99s CPU    545.00s WALL (    1443 calls)
     add_vuspsi   :    262.55s CPU    262.72s WALL (    1443 calls)

     General routines
     calbec       :    376.80s CPU    380.05s WALL (    1827 calls)
     fft          :      5.77s CPU      6.18s WALL (     765 calls)
     ffts         :      0.12s CPU      0.13s WALL (      98 calls)
     fftw         :    499.03s CPU    505.39s WALL (  838766 calls)
     interpolate  :      0.94s CPU      1.00s WALL (      98 calls)
 
     Parallel routines
     fft_scatt_xy :     63.99s CPU     64.60s WALL (  839629 calls)
     fft_scatt_yz :    115.86s CPU    118.53s WALL (  839629 calls)
 
     PWSCF        : 58m17.48s CPU    59m30.44s WALL

 
   This run was terminated on:  22:50: 6   3Mar2019            

=------------------------------------------------------------------------------=
   JOB DONE.
=------------------------------------------------------------------------------=
