
     Program PWSCF v.6.2 (svn rev. 14038) starts on  6Mar2019 at  9:33:44 

     This program is part of the open-source Quantum ESPRESSO suite
     for quantum simulation of materials; please cite
         "P. Giannozzi et al., J. Phys.:Condens. Matter 21 395502 (2009);
         "P. Giannozzi et al., J. Phys.:Condens. Matter 29 465901 (2017);
          URL http://www.quantum-espresso.org", 
     in publications or presentations arising from this work. More details at
     http://www.quantum-espresso.org/quote

     Parallel version (MPI), running on    16 processors

     MPI processes distributed on     1 nodes
     R & G space division:  proc/nbgrp/npool/nimage =      16
     Waiting for input...
     Reading input from standard input

     Current dimensions of program PWSCF are:
     Max number of different atomic species (ntypx) = 10
     Max number of k-points (npk) =  40000
     Max angular momentum in pseudopotentials (lmaxx) =  3
               file Mn.pbe-spn-kjpaw_psl.0.3.1.UPF: wavefunction(s)  3P 3D renormalized
               file Mn.pbe-spn-kjpaw_psl.0.3.1.UPF: wavefunction(s)  3P 3D renormalized
               file Au.pbe-dn-kjpaw_psl.0.1.UPF: wavefunction(s)  6S 6P 5D renormalized

     Subspace diagonalization in iterative solution of the eigenvalue problem:
     a serial algorithm will be used

 
     Parallelization info
     --------------------
     sticks:   dense  smooth     PW     G-vecs:    dense   smooth      PW
     Min         736     331     90                52486    15847    2256
     Max         737     332     91                52489    15850    2259
     Sum       11785    5297   1449               839803   253559   36125
 


     bravais-lattice index     =            0
     lattice parameter (alat)  =      19.2459  a.u.
     unit-cell volume          =    6216.1497 (a.u.)^3
     number of atoms/cell      =           54
     number of atomic types    =            3
     number of electrons       =       666.00
     number of Kohn-Sham states=          400
     kinetic-energy cutoff     =      45.0000  Ry
     charge density cutoff     =     400.0000  Ry
     convergence threshold     =      1.0E-06
     mixing beta               =       0.1000
     number of iterations used =            8  plain     mixing
     Exchange-correlation      = SLA PW PBX PBC ( 1  4  3  4 0 0)

     celldm(1)=  19.245946  celldm(2)=   0.000000  celldm(3)=   0.000000
     celldm(4)=   0.000000  celldm(5)=   0.000000  celldm(6)=   0.000000

     crystal axes: (cart. coord. in units of alat)
               a(1) = (   1.000000   0.000000   0.000000 )  
               a(2) = (   0.000000   1.000000   0.000000 )  
               a(3) = (   0.000000   0.000000   0.871974 )  

     reciprocal axes: (cart. coord. in units 2 pi/alat)
               b(1) = (  1.000000  0.000000  0.000000 )  
               b(2) = (  0.000000  1.000000  0.000000 )  
               b(3) = (  0.000000  0.000000  1.146823 )  


     PseudoPot. # 1 for Mn read from file:
     ./pseudo/Mn.pbe-spn-kjpaw_psl.0.3.1.UPF
     MD5 check sum: 7eef95dd2aae66803482eea66ebeebf1
     Pseudo is Projector augmented-wave + core cor, Zval = 15.0
     Generated using "atomic" code by A. Dal Corso v.5.0.99 svn rev. 10869
     Shape of augmentation charge: PSQ
     Using radial grid of 1187 points,  6 beta functions with: 
                l(1) =   0
                l(2) =   0
                l(3) =   1
                l(4) =   1
                l(5) =   2
                l(6) =   2
     Q(r) pseudized with 0 coefficients 


     PseudoPot. # 2 for Mn read from file:
     ./pseudo/Mn.pbe-spn-kjpaw_psl.0.3.1.UPF
     MD5 check sum: 7eef95dd2aae66803482eea66ebeebf1
     Pseudo is Projector augmented-wave + core cor, Zval = 15.0
     Generated using "atomic" code by A. Dal Corso v.5.0.99 svn rev. 10869
     Shape of augmentation charge: PSQ
     Using radial grid of 1187 points,  6 beta functions with: 
                l(1) =   0
                l(2) =   0
                l(3) =   1
                l(4) =   1
                l(5) =   2
                l(6) =   2
     Q(r) pseudized with 0 coefficients 


     PseudoPot. # 3 for Au read from file:
     ./pseudo/Au.pbe-dn-kjpaw_psl.0.1.UPF
     MD5 check sum: 5c9b92683623e7ae2ab3f8e525febab6
     Pseudo is Projector augmented-wave + core cor, Zval = 11.0
     Generated using "atomic" code by A. Dal Corso v.5.0.2 svn rev. 9415
     Shape of augmentation charge: PSQ
     Using radial grid of 1279 points,  6 beta functions with: 
                l(1) =   0
                l(2) =   0
                l(3) =   1
                l(4) =   1
                l(5) =   2
                l(6) =   2
     Q(r) pseudized with 0 coefficients 


     atomic species   valence    mass     pseudopotential
        Mn1           15.00    54.93800     Mn( 1.00)
        Mn2           15.00    54.93800     Mn( 1.00)
        Au            11.00   196.96600     Au( 1.00)

     Starting magnetic structure 
     atomic species   magnetization
        Mn1          0.800
        Mn2         -0.800
        Au           0.000

      2 Sym. Ops. (no inversion) found



   Cartesian axes

     site n.     atom                  positions (alat units)
         1           Mn1 tau(   1) = (   0.0000000   0.0000000   0.0000000  )
         2           Mn1 tau(   2) = (   0.0000000   0.3333300   0.0000000  )
         3           Mn1 tau(   3) = (   0.0000000   0.6666700   0.0000000  )
         4           Mn2 tau(   4) = (   0.3333300   0.0000000   0.0000000  )
         5           Mn2 tau(   5) = (   0.3333300   0.3333300   0.0000000  )
         6           Mn2 tau(   6) = (   0.3333300   0.6666700   0.0000000  )
         7           Mn1 tau(   7) = (   0.6666700   0.0000000   0.0000000  )
         8           Mn2 tau(   8) = (   0.6666700   0.3333300   0.0000000  )
         9           Mn2 tau(   9) = (   0.6666700   0.6666700   0.0000000  )
        10           Mn2 tau(  10) = (   0.1666700   0.1666700   0.4359871  )
        11           Mn2 tau(  11) = (   0.1666700   0.5000000   0.4359871  )
        12           Mn2 tau(  12) = (   0.1666700   0.8333300   0.4359871  )
        13           Mn1 tau(  13) = (   0.5000000   0.1666700   0.4359871  )
        14           Mn1 tau(  14) = (   0.5000000   0.5000000   0.4359871  )
        15           Mn1 tau(  15) = (   0.5000000   0.8333300   0.4359871  )
        16           Mn2 tau(  16) = (   0.8333300   0.1666700   0.4359871  )
        17           Mn1 tau(  17) = (   0.8333300   0.5000000   0.4359871  )
        18           Mn1 tau(  18) = (   0.8333300   0.8333300   0.4359871  )
        19           Au  tau(  19) = (   0.1666700   0.1666700   0.7327374  )
        20           Au  tau(  20) = (   0.1666700   0.5000000   0.7327374  )
        21           Au  tau(  21) = (   0.1666700   0.8333300   0.7327374  )
        22           Au  tau(  22) = (   0.5000000   0.1666700   0.7327374  )
        23           Au  tau(  23) = (   0.5000000   0.5000000   0.7327374  )
        24           Au  tau(  24) = (   0.5000000   0.8333300   0.7327374  )
        25           Au  tau(  25) = (   0.8333300   0.1666700   0.7327374  )
        26           Au  tau(  26) = (   0.8333300   0.5000000   0.7327374  )
        27           Au  tau(  27) = (   0.8333300   0.8333300   0.7327374  )
        28           Au  tau(  28) = (   0.1666700   0.1666700   0.1392369  )
        29           Au  tau(  29) = (   0.1666700   0.5000000   0.1392369  )
        30           Au  tau(  30) = (   0.1666700   0.8333300   0.1392369  )
        31           Au  tau(  31) = (   0.5000000   0.1666700   0.1392369  )
        32           Au  tau(  32) = (   0.5000000   0.5000000   0.1392369  )
        33           Au  tau(  33) = (   0.5000000   0.8333300   0.1392369  )
        34           Au  tau(  34) = (   0.8333300   0.1666700   0.1392369  )
        35           Au  tau(  35) = (   0.8333300   0.5000000   0.1392369  )
        36           Au  tau(  36) = (   0.8333300   0.8333300   0.1392369  )
        37           Au  tau(  37) = (   0.0000000   0.0000000   0.2967503  )
        38           Au  tau(  38) = (   0.0000000   0.3333300   0.2967503  )
        39           Au  tau(  39) = (   0.0000000   0.6666700   0.2967503  )
        40           Au  tau(  40) = (   0.3333300   0.0000000   0.2967503  )
        41           Au  tau(  41) = (   0.3333300   0.3333300   0.2967503  )
        42           Au  tau(  42) = (   0.3333300   0.6666700   0.2967503  )
        43           Au  tau(  43) = (   0.6666700   0.0000000   0.2967503  )
        44           Au  tau(  44) = (   0.6666700   0.3333300   0.2967503  )
        45           Au  tau(  45) = (   0.6666700   0.6666700   0.2967503  )
        46           Au  tau(  46) = (   0.0000000   0.0000000   0.5752240  )
        47           Au  tau(  47) = (   0.0000000   0.3333300   0.5752240  )
        48           Au  tau(  48) = (   0.0000000   0.6666700   0.5752240  )
        49           Au  tau(  49) = (   0.3333300   0.0000000   0.5752240  )
        50           Au  tau(  50) = (   0.3333300   0.3333300   0.5752240  )
        51           Au  tau(  51) = (   0.3333300   0.6666700   0.5752240  )
        52           Au  tau(  52) = (   0.6666700   0.0000000   0.5752240  )
        53           Au  tau(  53) = (   0.6666700   0.3333300   0.5752240  )
        54           Au  tau(  54) = (   0.6666700   0.6666700   0.5752240  )

     number of k points=     8 (tetrahedron method)
                       cart. coord. in units 2pi/alat
        k(    1) = (   0.0000000   0.0000000   0.0000000), wk =   0.1250000
        k(    2) = (   0.0000000   0.0000000  -0.5734114), wk =   0.1250000
        k(    3) = (   0.0000000  -0.5000000   0.0000000), wk =   0.1250000
        k(    4) = (   0.0000000  -0.5000000  -0.5734114), wk =   0.1250000
        k(    5) = (  -0.5000000  -0.5000000   0.0000000), wk =   0.1250000
        k(    6) = (  -0.5000000  -0.5000000  -0.5734114), wk =   0.1250000
        k(    7) = (  -0.5000000   0.0000000   0.0000000), wk =   0.1250000
        k(    8) = (  -0.5000000   0.0000000   0.5734114), wk =   0.1250000

     Dense  grid:   839803 G-vectors     FFT dimensions: ( 125, 125, 108)

     Smooth grid:   253559 G-vectors     FFT dimensions: (  90,  90,  72)

     Estimated max dynamical RAM per process >     570.13 MB

     Estimated total dynamical RAM >       8.91 GB
     Generating pointlists ...
     new r_m :   0.1129 (alat units)  2.1733 (a.u.) for type    1
     new r_m :   0.1129 (alat units)  2.1733 (a.u.) for type    2
     new r_m :   0.1129 (alat units)  2.1733 (a.u.) for type    3

     Check: negative/imaginary core charge=   -0.000006    0.000000

     Initial potential from superposition of free atoms

     starting charge  665.98709, renormalised to  666.00000
     Starting wfc are  504 randomized atomic wfcs
     Checking if some PAW data can be deallocated... 

     total cpu time spent up to now is       57.0 secs

     Self-consistent Calculation

     iteration #  1     ecut=    45.00 Ry     beta= 0.10
     Davidson diagonalization with overlap
     ethr =  1.00E-02,  avg # of iterations =  3.4

     total cpu time spent up to now is      220.5 secs

     total energy              =  -33047.18673151 Ry
     Harris-Foulkes estimate   =  -33044.03710725 Ry
     estimated scf accuracy    <      27.02785855 Ry

     total magnetization       =    -0.02 Bohr mag/cell
     absolute magnetization    =    92.13 Bohr mag/cell

     iteration #  2     ecut=    45.00 Ry     beta= 0.10
     Davidson diagonalization with overlap
     ethr =  4.06E-03,  avg # of iterations =  1.0

     total cpu time spent up to now is      329.3 secs

     total energy              =  -33058.56701779 Ry
     Harris-Foulkes estimate   =  -33047.36580307 Ry
     estimated scf accuracy    <      21.37178834 Ry

     total magnetization       =    -0.02 Bohr mag/cell
     absolute magnetization    =    91.71 Bohr mag/cell

     iteration #  3     ecut=    45.00 Ry     beta= 0.10
     Davidson diagonalization with overlap
     ethr =  3.21E-03,  avg # of iterations =  2.1

     total cpu time spent up to now is      462.6 secs

     total energy              =  -33066.52772917 Ry
     Harris-Foulkes estimate   =  -33061.36989368 Ry
     estimated scf accuracy    <       8.80940892 Ry

     total magnetization       =     0.19 Bohr mag/cell
     absolute magnetization    =    85.58 Bohr mag/cell

     iteration #  4     ecut=    45.00 Ry     beta= 0.10
     Davidson diagonalization with overlap
     ethr =  1.32E-03,  avg # of iterations =  4.1

     total cpu time spent up to now is      678.7 secs

     total energy              =  -33059.10995182 Ry
     Harris-Foulkes estimate   =  -33069.55674832 Ry
     estimated scf accuracy    <      57.34885819 Ry

     total magnetization       =     1.27 Bohr mag/cell
     absolute magnetization    =    70.25 Bohr mag/cell

     iteration #  5     ecut=    45.00 Ry     beta= 0.10
     Davidson diagonalization with overlap
     ethr =  1.32E-03,  avg # of iterations =  5.1

     total cpu time spent up to now is      917.2 secs

     total energy              =  -33061.76724593 Ry
     Harris-Foulkes estimate   =  -33062.80290540 Ry
     estimated scf accuracy    <       5.05102186 Ry

     total magnetization       =     0.34 Bohr mag/cell
     absolute magnetization    =    83.22 Bohr mag/cell

     iteration #  6     ecut=    45.00 Ry     beta= 0.10
     Davidson diagonalization with overlap
     ethr =  7.58E-04,  avg # of iterations =  3.6

     total cpu time spent up to now is     1073.3 secs

     total energy              =  -33062.52943825 Ry
     Harris-Foulkes estimate   =  -33062.51630462 Ry
     estimated scf accuracy    <       0.28949222 Ry

     total magnetization       =     0.08 Bohr mag/cell
     absolute magnetization    =    80.14 Bohr mag/cell

     iteration #  7     ecut=    45.00 Ry     beta= 0.10
     Davidson diagonalization with overlap
     ethr =  4.35E-05,  avg # of iterations =  5.0

     total cpu time spent up to now is     1290.9 secs

     total energy              =  -33062.58033702 Ry
     Harris-Foulkes estimate   =  -33062.58606329 Ry
     estimated scf accuracy    <       0.06293835 Ry

     total magnetization       =     0.36 Bohr mag/cell
     absolute magnetization    =    79.01 Bohr mag/cell

     iteration #  8     ecut=    45.00 Ry     beta= 0.10
     Davidson diagonalization with overlap
     ethr =  9.45E-06,  avg # of iterations =  4.8

     total cpu time spent up to now is     1472.1 secs

     total energy              =  -33062.58130028 Ry
     Harris-Foulkes estimate   =  -33062.59359980 Ry
     estimated scf accuracy    <       0.11469844 Ry

     total magnetization       =     0.33 Bohr mag/cell
     absolute magnetization    =    78.52 Bohr mag/cell

     iteration #  9     ecut=    45.00 Ry     beta= 0.10
     Davidson diagonalization with overlap
     ethr =  9.45E-06,  avg # of iterations =  1.1

     total cpu time spent up to now is     1581.7 secs

     total energy              =  -33062.58501975 Ry
     Harris-Foulkes estimate   =  -33062.58395333 Ry
     estimated scf accuracy    <       0.05301618 Ry

     total magnetization       =     0.42 Bohr mag/cell
     absolute magnetization    =    78.33 Bohr mag/cell

     iteration # 10     ecut=    45.00 Ry     beta= 0.10
     Davidson diagonalization with overlap
     ethr =  7.96E-06,  avg # of iterations =  1.9

     total cpu time spent up to now is     1702.6 secs

     total energy              =  -33062.58687928 Ry
     Harris-Foulkes estimate   =  -33062.58859376 Ry
     estimated scf accuracy    <       0.01285109 Ry

     total magnetization       =     0.43 Bohr mag/cell
     absolute magnetization    =    78.57 Bohr mag/cell

     iteration # 11     ecut=    45.00 Ry     beta= 0.10
     Davidson diagonalization with overlap
     ethr =  1.93E-06,  avg # of iterations =  4.3

     total cpu time spent up to now is     1876.6 secs

     total energy              =  -33062.58976196 Ry
     Harris-Foulkes estimate   =  -33062.58987278 Ry
     estimated scf accuracy    <       0.00285463 Ry

     total magnetization       =     0.44 Bohr mag/cell
     absolute magnetization    =    78.90 Bohr mag/cell

     iteration # 12     ecut=    45.00 Ry     beta= 0.10
     Davidson diagonalization with overlap
     ethr =  4.29E-07,  avg # of iterations =  3.1

     total cpu time spent up to now is     2026.8 secs

     total energy              =  -33062.59104546 Ry
     Harris-Foulkes estimate   =  -33062.59043636 Ry
     estimated scf accuracy    <       0.00270515 Ry

     total magnetization       =     0.43 Bohr mag/cell
     absolute magnetization    =    78.87 Bohr mag/cell

     iteration # 13     ecut=    45.00 Ry     beta= 0.10
     Davidson diagonalization with overlap
     ethr =  4.06E-07,  avg # of iterations =  1.3

     total cpu time spent up to now is     2138.7 secs

     total energy              =  -33062.59162924 Ry
     Harris-Foulkes estimate   =  -33062.59100860 Ry
     estimated scf accuracy    <       0.00067985 Ry

     total magnetization       =     0.45 Bohr mag/cell
     absolute magnetization    =    78.79 Bohr mag/cell

     iteration # 14     ecut=    45.00 Ry     beta= 0.10
     Davidson diagonalization with overlap
     ethr =  1.02E-07,  avg # of iterations =  3.3

     total cpu time spent up to now is     2316.5 secs

     total energy              =  -33062.59171774 Ry
     Harris-Foulkes estimate   =  -33062.59163477 Ry
     estimated scf accuracy    <       0.00013375 Ry

     total magnetization       =     0.46 Bohr mag/cell
     absolute magnetization    =    78.69 Bohr mag/cell

     iteration # 15     ecut=    45.00 Ry     beta= 0.10
     Davidson diagonalization with overlap
     ethr =  2.01E-08,  avg # of iterations =  2.1

     total cpu time spent up to now is     2438.8 secs

     total energy              =  -33062.59186986 Ry
     Harris-Foulkes estimate   =  -33062.59169591 Ry
     estimated scf accuracy    <       0.00009713 Ry

     total magnetization       =     0.47 Bohr mag/cell
     absolute magnetization    =    78.67 Bohr mag/cell

     iteration # 16     ecut=    45.00 Ry     beta= 0.10
     Davidson diagonalization with overlap
     ethr =  1.46E-08,  avg # of iterations =  2.9

     total cpu time spent up to now is     2592.4 secs

     total energy              =  -33062.59190096 Ry
     Harris-Foulkes estimate   =  -33062.59184879 Ry
     estimated scf accuracy    <       0.00003095 Ry

     total magnetization       =     0.47 Bohr mag/cell
     absolute magnetization    =    78.64 Bohr mag/cell

     iteration # 17     ecut=    45.00 Ry     beta= 0.10
     Davidson diagonalization with overlap
     ethr =  4.65E-09,  avg # of iterations =  3.0

     total cpu time spent up to now is     2740.8 secs

     total energy              =  -33062.59189824 Ry
     Harris-Foulkes estimate   =  -33062.59188015 Ry
     estimated scf accuracy    <       0.00001168 Ry

     total magnetization       =     0.48 Bohr mag/cell
     absolute magnetization    =    78.63 Bohr mag/cell

     iteration # 18     ecut=    45.00 Ry     beta= 0.10
     Davidson diagonalization with overlap
     ethr =  1.75E-09,  avg # of iterations =  2.6

     total cpu time spent up to now is     2876.3 secs

     total energy              =  -33062.59189645 Ry
     Harris-Foulkes estimate   =  -33062.59188472 Ry
     estimated scf accuracy    <       0.00000514 Ry

     total magnetization       =     0.48 Bohr mag/cell
     absolute magnetization    =    78.62 Bohr mag/cell

     iteration # 19     ecut=    45.00 Ry     beta= 0.10
     Davidson diagonalization with overlap
     ethr =  7.72E-10,  avg # of iterations =  3.1

     total cpu time spent up to now is     3050.3 secs

     total energy              =  -33062.59188913 Ry
     Harris-Foulkes estimate   =  -33062.59188305 Ry
     estimated scf accuracy    <       0.00000178 Ry

     total magnetization       =     0.48 Bohr mag/cell
     absolute magnetization    =    78.61 Bohr mag/cell

     iteration # 20     ecut=    45.00 Ry     beta= 0.10
     Davidson diagonalization with overlap
     ethr =  2.67E-10,  avg # of iterations =  2.6

     total cpu time spent up to now is     3185.4 secs

     total energy              =  -33062.59189011 Ry
     Harris-Foulkes estimate   =  -33062.59188531 Ry
     estimated scf accuracy    <       0.00000100 Ry

     total magnetization       =     0.48 Bohr mag/cell
     absolute magnetization    =    78.61 Bohr mag/cell

     iteration # 21     ecut=    45.00 Ry     beta= 0.10
     Davidson diagonalization with overlap
     ethr =  1.50E-10,  avg # of iterations =  2.6
 
     Magnetic moment per site:
     atom:    1    charge:   13.5714    magn:    4.0343    constr:    0.0000
     atom:    2    charge:   13.5725    magn:    4.0432    constr:    0.0000
     atom:    3    charge:   13.5732    magn:    4.0316    constr:    0.0000
     atom:    4    charge:   13.5835    magn:   -3.9334    constr:    0.0000
     atom:    5    charge:   13.5827    magn:   -3.9383    constr:    0.0000
     atom:    6    charge:   13.5754    magn:   -3.9983    constr:    0.0000
     atom:    7    charge:   13.5825    magn:    3.9789    constr:    0.0000
     atom:    8    charge:   13.5727    magn:   -4.0464    constr:    0.0000
     atom:    9    charge:   13.5691    magn:   -4.0570    constr:    0.0000
     atom:   10    charge:   13.5791    magn:   -3.9557    constr:    0.0000
     atom:   11    charge:   13.5817    magn:   -3.9517    constr:    0.0000
     atom:   12    charge:   13.5767    magn:   -3.9927    constr:    0.0000
     atom:   13    charge:   13.5724    magn:    4.0417    constr:    0.0000
     atom:   14    charge:   13.5684    magn:    4.0633    constr:    0.0000
     atom:   15    charge:   13.5704    magn:    4.0501    constr:    0.0000
     atom:   16    charge:   13.5728    magn:   -4.0719    constr:    0.0000
     atom:   17    charge:   13.5805    magn:    3.9869    constr:    0.0000
     atom:   18    charge:   13.5837    magn:    3.9541    constr:    0.0000
     atom:   19    charge:    9.1207    magn:   -0.0083    constr:    0.0000
     atom:   20    charge:    9.1204    magn:   -0.0046    constr:    0.0000
     atom:   21    charge:    9.1204    magn:   -0.0089    constr:    0.0000
     atom:   22    charge:    9.1204    magn:   -0.0107    constr:    0.0000
     atom:   23    charge:    9.1217    magn:   -0.0461    constr:    0.0000
     atom:   24    charge:    9.1203    magn:   -0.0118    constr:    0.0000
     atom:   25    charge:    9.1218    magn:    0.0200    constr:    0.0000
     atom:   26    charge:    9.1209    magn:    0.0104    constr:    0.0000
     atom:   27    charge:    9.1202    magn:    0.0404    constr:    0.0000
     atom:   28    charge:    9.1207    magn:   -0.0083    constr:    0.0000
     atom:   29    charge:    9.1204    magn:   -0.0046    constr:    0.0000
     atom:   30    charge:    9.1204    magn:   -0.0089    constr:    0.0000
     atom:   31    charge:    9.1204    magn:   -0.0107    constr:    0.0000
     atom:   32    charge:    9.1217    magn:   -0.0461    constr:    0.0000
     atom:   33    charge:    9.1203    magn:   -0.0118    constr:    0.0000
     atom:   34    charge:    9.1218    magn:    0.0200    constr:    0.0000
     atom:   35    charge:    9.1209    magn:    0.0104    constr:    0.0000
     atom:   36    charge:    9.1202    magn:    0.0404    constr:    0.0000
     atom:   37    charge:    9.1213    magn:   -0.0125    constr:    0.0000
     atom:   38    charge:    9.1214    magn:   -0.0123    constr:    0.0000
     atom:   39    charge:    9.1196    magn:    0.0146    constr:    0.0000
     atom:   40    charge:    9.1203    magn:   -0.0015    constr:    0.0000
     atom:   41    charge:    9.1205    magn:   -0.0047    constr:    0.0000
     atom:   42    charge:    9.1210    magn:   -0.0092    constr:    0.0000
     atom:   43    charge:    9.1202    magn:    0.0373    constr:    0.0000
     atom:   44    charge:    9.1218    magn:    0.0202    constr:    0.0000
     atom:   45    charge:    9.1211    magn:    0.0516    constr:    0.0000
     atom:   46    charge:    9.1213    magn:   -0.0125    constr:    0.0000
     atom:   47    charge:    9.1214    magn:   -0.0123    constr:    0.0000
     atom:   48    charge:    9.1196    magn:    0.0146    constr:    0.0000
     atom:   49    charge:    9.1203    magn:   -0.0015    constr:    0.0000
     atom:   50    charge:    9.1205    magn:   -0.0047    constr:    0.0000
     atom:   51    charge:    9.1210    magn:   -0.0092    constr:    0.0000
     atom:   52    charge:    9.1202    magn:    0.0373    constr:    0.0000
     atom:   53    charge:    9.1218    magn:    0.0202    constr:    0.0000
     atom:   54    charge:    9.1211    magn:    0.0516    constr:    0.0000

     total cpu time spent up to now is     3343.2 secs

     End of self-consistent calculation

 ------ SPIN UP ------------


          k = 0.0000 0.0000 0.0000 ( 31747 PWs)   bands (ev):

   -66.7849 -66.7635 -66.7436 -66.7395 -66.7310 -66.7267 -66.6116 -66.5821
   -66.5561 -62.4025 -62.3830 -62.3728 -62.3695 -62.3682 -62.3586 -62.3563
   -62.3442 -62.3233 -35.5369 -35.5318 -35.5266 -35.5154 -35.5094 -35.5068
   -35.5049 -35.4954 -35.4894 -35.4876 -35.4829 -35.4807 -35.4796 -35.4758
   -35.4618 -35.4555 -35.4507 -35.4433 -35.3660 -35.3558 -35.3542 -35.3483
   -35.3308 -35.3185 -35.3074 -35.2890 -35.2837 -31.2405 -31.2307 -31.2222
   -31.2155 -31.2133 -31.2132 -31.2085 -31.2058 -31.2045 -31.2013 -31.2005
   -31.1970 -31.1914 -31.1866 -31.1854 -31.1842 -31.1836 -31.1808 -31.1800
   -31.1784 -31.1724 -31.1615 -31.1601 -31.1561 -31.1495 -31.1472 -31.1432
     5.6118   7.1371   7.1671   7.1862   7.2101   7.3614   7.8596   7.8618
     7.9137   7.9494   8.0719   8.1039   8.1353   8.1637   8.1960   8.2314
     8.2606   8.2883   8.3191   8.5213   8.5318   8.5592   8.5722   8.5930
     8.6078   8.8404   8.8641   8.8644   8.8797   8.8836   8.8880   8.9032
     8.9066   8.9074   8.9140   8.9177   8.9263   8.9492   8.9539   8.9787
     8.9949   9.0822   9.1170   9.1197   9.1225   9.1307   9.1577   9.1621
     9.1784   9.2010   9.2146   9.2674   9.2738   9.3013   9.3137   9.3336
     9.3462   9.3523   9.3646   9.3671   9.3827   9.3863   9.4020   9.4254
     9.4399   9.4412   9.4458   9.4487   9.4532   9.4651   9.5086   9.5659
     9.5745   9.5811   9.5846   9.5879   9.6210   9.6631   9.6676   9.6715
     9.6725   9.6747   9.7059   9.7370   9.7571   9.7799   9.7982   9.8493
     9.8499   9.8929   9.9098   9.9285   9.9521   9.9577  10.0188  10.0392
    10.0933  10.1200  10.1300  10.1568  10.2907  10.2918  10.2931  10.2950
    10.2973  10.2987  10.3017  10.3083  10.3099  10.3233  10.3277  10.3423
    10.3479  10.3497  10.3525  10.3546  10.3550  10.3724  10.3822  10.3823
    10.3995  10.5186  10.5195  10.5731  10.6084  10.6094  10.6307  10.6356
    10.6914  10.7609  10.7838  10.7852  10.7896  10.8212  10.8291  10.8378
    10.8426  10.8526  10.8629  10.8684  10.8721  10.8756  10.8796  10.8951
    10.9002  10.9200  10.9971  11.0374  11.0727  11.1080  11.2015  11.2178
    11.2223  11.2272  11.2552  11.2573  11.2791  11.2939  11.3358  11.3383
    11.3642  11.3650  11.3832  11.3899  11.3992  11.4032  11.4079  11.4113
    11.4183  11.4528  11.5869  11.5874  11.5889  11.5951  11.5979  11.6070
    11.6279  11.6707  11.7204  11.7268  11.7318  11.7398  11.7552  11.7860
    11.8319  11.8477  11.8597  11.8687  11.8768  11.8988  11.9324  11.9375
    11.9629  12.0576  12.0981  12.1007  12.1015  12.1028  12.1041  12.1389
    12.1414  12.1438  12.1441  12.1483  12.1524  12.1717  12.1916  12.2176
    12.2456  12.2592  12.3193  12.3207  12.3445  12.3482  12.3657  12.4033
    12.4055  12.4228  12.4340  12.4341  12.4585  12.4804  12.4872  12.4890
    12.5025  12.5197  12.5282  12.5483  12.5732  12.5822  12.5974  12.6250
    12.6814  12.7031  12.7788  12.7839  12.7882  12.8936  12.9941  13.0599
    13.1104  13.1372  13.2150  13.3168  13.3542  13.6611  13.7109  13.7310
    13.8823  14.0077  14.2352  14.2474  14.3105  14.3404  14.4336  14.4362
    14.7314  14.7740  14.7821  15.0184  15.1175  15.1619  15.2068  15.2569
    15.2653  15.2863  15.3105  15.3368  15.3797  15.4455  15.4875  15.5644
    15.6561  15.6852  15.7067  15.8169  15.8690  15.8850  15.9153  15.9376
    16.0033  16.0619  16.0790  16.1301  16.1357  16.1545  16.1597  16.1672
    16.2569  16.2712  16.2794  16.2960  16.3260  16.3386  16.3778  16.3902
    16.4431  16.4871  16.5187  16.5727  16.6142  16.6733  16.7797  16.8927
    17.0253  17.0463  17.0920  17.1660  17.1902  17.2432  17.2689  17.2846
    17.4352  17.5290  17.8850  17.8981  17.9191  17.9497  17.9514  18.1913
    18.2444  18.3191  18.4477  18.9460  19.0000  19.0034  19.0685  19.1780

          k = 0.0000 0.0000-0.5734 ( 31692 PWs)   bands (ev):

   -66.7849 -66.7635 -66.7436 -66.7395 -66.7310 -66.7267 -66.6116 -66.5821
   -66.5561 -62.4025 -62.3830 -62.3728 -62.3695 -62.3682 -62.3586 -62.3563
   -62.3442 -62.3233 -35.5369 -35.5318 -35.5266 -35.5154 -35.5094 -35.5068
   -35.5049 -35.4954 -35.4894 -35.4876 -35.4829 -35.4807 -35.4796 -35.4758
   -35.4618 -35.4555 -35.4507 -35.4433 -35.3660 -35.3558 -35.3542 -35.3483
   -35.3308 -35.3185 -35.3074 -35.2890 -35.2837 -31.2405 -31.2307 -31.2222
   -31.2155 -31.2133 -31.2132 -31.2085 -31.2058 -31.2045 -31.2013 -31.2005
   -31.1970 -31.1914 -31.1866 -31.1854 -31.1842 -31.1836 -31.1808 -31.1800
   -31.1784 -31.1724 -31.1615 -31.1601 -31.1561 -31.1495 -31.1472 -31.1432
     6.1713   6.1896   7.5361   7.5445   7.5628   7.5820   7.5840   7.5945
     7.6130   7.6197   8.3121   8.3246   8.3257   8.3304   8.3612   8.3663
     8.3671   8.3889   8.4577   8.4590   8.4788   8.4834   8.4943   8.4948
     8.5020   8.5033   8.6994   8.7075   8.7604   8.7774   8.9460   8.9650
     8.9652   8.9745   8.9748   8.9800   8.9811   8.9855   9.0085   9.0174
     9.0224   9.0347   9.0423   9.0540   9.0768   9.0982   9.1867   9.1990
     9.2152   9.2277   9.2411   9.2516   9.2738   9.2776   9.2794   9.2835
     9.2867   9.2875   9.2901   9.3023   9.3024   9.3086   9.4111   9.4127
     9.4258   9.4357   9.4406   9.4411   9.4542   9.4548   9.4574   9.4587
     9.4618   9.4775   9.4921   9.5083   9.5241   9.5422   9.6503   9.6745
     9.7820   9.7840   9.7977   9.8049   9.8063   9.8166   9.8288   9.8345
     9.8718   9.8722   9.8769   9.8786   9.8879   9.8890   9.8910   9.8920
    10.0583  10.0598  10.0599  10.0610  10.1314  10.1441  10.1537  10.1631
    10.1663  10.1832  10.1883  10.1944  10.1973  10.2097  10.3482  10.3501
    10.3681  10.3756  10.4015  10.4079  10.4137  10.4148  10.4752  10.4988
    10.5817  10.5828  10.6112  10.6189  10.6340  10.6512  10.6734  10.6755
    10.6779  10.7030  10.7084  10.7317  10.7409  10.7631  10.7757  10.7936
    10.9581  10.9643  10.9996  11.0199  11.0247  11.0303  11.0491  11.0658
    11.0944  11.1171  11.1279  11.1396  11.1452  11.1490  11.1518  11.1540
    11.2215  11.2309  11.2476  11.2494  11.2591  11.2602  11.2632  11.2666
    11.2721  11.2724  11.2801  11.2824  11.2879  11.2886  11.2961  11.2975
    11.3061  11.3065  11.3190  11.3201  11.5666  11.5868  11.7058  11.7077
    11.7079  11.7154  11.7190  11.7229  11.7290  11.7301  11.7330  11.7500
    11.7594  11.7600  11.7729  11.7733  11.7940  11.8507  11.8548  11.9119
    11.9647  11.9720  11.9795  11.9986  12.0077  12.0247  12.0465  12.0613
    12.1396  12.1660  12.1799  12.2170  12.2648  12.3475  12.3490  12.3641
    12.3931  12.4047  12.4067  12.4273  12.4322  12.4330  12.4375  12.4719
    12.4765  12.4994  12.5160  12.5363  12.5429  12.5718  12.5816  12.6095
    12.6511  12.7126  12.7343  12.7474  12.7603  12.7718  12.8885  12.9320
    12.9346  12.9656  13.0629  13.1013  13.1337  13.1569  13.1660  13.2131
    13.2154  13.2408  13.2446  13.2859  13.3142  13.5733  13.6669  13.7461
    13.9150  13.9955  14.0427  14.0710  14.0751  14.1396  14.2932  14.3890
    14.4692  14.8756  14.9002  14.9411  14.9788  15.0092  15.0646  15.0757
    15.1147  15.2160  15.2737  15.3192  15.3373  15.4178  15.4793  15.5248
    15.5743  15.7003  15.7098  15.7492  15.7790  15.8306  15.8719  16.0369
    16.0647  16.0707  16.0983  16.1368  16.1840  16.1934  16.2054  16.2262
    16.2323  16.2496  16.2573  16.2661  16.2692  16.2819  16.3198  16.3234
    16.3472  16.3592  16.5021  16.5769  16.6009  16.6346  16.7438  16.7961
    16.8641  16.9014  17.2669  17.2916  17.2959  17.3287  17.4526  17.4702
    17.5560  17.6045  17.7177  17.7255  17.7697  17.7706  17.8701  17.8760
    17.9165  17.9208  18.1883  18.2006  18.2327  18.2621  18.2935  18.3284

          k = 0.0000-0.5000 0.0000 ( 31722 PWs)   bands (ev):

   -66.7849 -66.7635 -66.7436 -66.7395 -66.7310 -66.7267 -66.6116 -66.5821
   -66.5561 -62.4025 -62.3830 -62.3728 -62.3695 -62.3682 -62.3586 -62.3563
   -62.3442 -62.3233 -35.5369 -35.5322 -35.5261 -35.5154 -35.5095 -35.5068
   -35.5049 -35.4955 -35.4894 -35.4876 -35.4829 -35.4807 -35.4795 -35.4758
   -35.4616 -35.4555 -35.4508 -35.4433 -35.3660 -35.3558 -35.3542 -35.3483
   -35.3308 -35.3185 -35.3074 -35.2890 -35.2837 -31.2405 -31.2307 -31.2222
   -31.2155 -31.2133 -31.2132 -31.2087 -31.2058 -31.2045 -31.2031 -31.2005
   -31.1939 -31.1914 -31.1868 -31.1865 -31.1842 -31.1828 -31.1808 -31.1801
   -31.1784 -31.1729 -31.1615 -31.1601 -31.1561 -31.1495 -31.1472 -31.1432
     6.0326   6.0472   7.4042   7.4097   7.4703   7.4884   7.6695   7.6767
     8.1080   8.1129   8.1424   8.1728   8.1927   8.2042   8.2611   8.2749
     8.3842   8.3939   8.4759   8.4943   8.6174   8.6237   8.6334   8.6523
     8.6559   8.6717   8.6909   8.7102   8.7875   8.8079   8.8142   8.8217
     8.8324   8.8503   8.8752   8.8859   8.8930   8.8992   8.9094   8.9115
     8.9359   8.9420   8.9470   8.9564   9.0457   9.0504   9.1546   9.1570
     9.1904   9.2056   9.2173   9.2200   9.2278   9.2342   9.3098   9.3148
     9.3507   9.3678   9.3959   9.4172   9.4709   9.4743   9.4792   9.4811
     9.5303   9.5467   9.5622   9.5747   9.5840   9.5938   9.6052   9.6130
     9.6182   9.6281   9.6310   9.6330   9.6375   9.6393   9.6419   9.6460
     9.6467   9.6537   9.6627   9.6644   9.7049   9.7105   9.7110   9.7123
     9.7377   9.7472   9.7623   9.7641   9.8954   9.9003   9.9324   9.9561
    10.0178  10.0328  10.1627  10.1908  10.2085  10.2119  10.2501  10.2535
    10.2698  10.2705  10.2717  10.2757  10.2824  10.2845  10.3460  10.3524
    10.3772  10.3797  10.3811  10.3850  10.4240  10.4305  10.4715  10.4807
    10.4857  10.5066  10.5188  10.5201  10.5255  10.5357  10.5846  10.5897
    10.6593  10.6670  10.6874  10.6975  10.7190  10.7193  10.7398  10.7634
    10.8118  10.8246  10.8343  10.8472  10.8583  10.8623  10.8845  10.8985
    10.9469  10.9567  11.0096  11.0188  11.0706  11.0843  11.1781  11.1846
    11.2786  11.3034  11.3450  11.3467  11.3624  11.3645  11.3995  11.4145
    11.4574  11.4596  11.4695  11.4792  11.4925  11.5121  11.5221  11.5607
    11.5803  11.5893  11.5966  11.6068  11.6607  11.6700  11.6813  11.7360
    11.7507  11.7792  11.7917  11.8015  11.8335  11.8553  11.8621  11.8684
    11.8685  11.8729  11.8809  11.9068  11.9203  11.9224  11.9431  11.9504
    11.9634  11.9821  12.0141  12.0163  12.0840  12.1181  12.1528  12.1554
    12.1601  12.1956  12.2078  12.2171  12.2430  12.2484  12.2503  12.2669
    12.2706  12.2918  12.2984  12.3611  12.3744  12.3817  12.3961  12.4130
    12.4432  12.4452  12.4538  12.4596  12.4751  12.5061  12.5267  12.5503
    12.5819  12.5880  12.6127  12.6736  12.7171  12.7260  12.7464  12.7664
    12.7818  12.8498  12.9027  12.9100  12.9766  13.0290  13.1300  13.1477
    13.1620  13.1697  13.2121  13.2323  13.2573  13.3017  13.3148  13.4149
    13.4346  13.4606  13.5195  13.5677  13.6330  14.3278  14.4988  14.5536
    14.5738  14.7461  14.7714  14.8033  14.8485  14.8667  15.0235  15.0738
    15.0992  15.1006  15.1477  15.2633  15.3224  15.4055  15.4990  15.6701
    15.6838  15.7370  15.7667  15.7854  15.8488  15.8734  15.9405  15.9844
    15.9877  16.0214  16.0417  16.0457  16.0580  16.0718  16.1203  16.1449
    16.1887  16.2006  16.2213  16.2356  16.2502  16.2852  16.3326  16.3667
    16.4284  16.4546  16.7010  16.7120  16.7309  16.8284  16.9208  16.9973
    17.1439  17.2239  17.2771  17.2937  17.5517  17.5667  17.6027  17.6042
    17.7247  17.7485  17.7681  17.7847  17.8028  17.8627  17.9049  17.9269
    17.9925  18.1001  18.1152  18.1792  19.2800  19.3138  19.3464  19.3685

          k = 0.0000-0.5000-0.5734 ( 31696 PWs)   bands (ev):

   -66.7849 -66.7635 -66.7436 -66.7395 -66.7310 -66.7267 -66.6116 -66.5821
   -66.5561 -62.4025 -62.3830 -62.3728 -62.3695 -62.3682 -62.3586 -62.3563
   -62.3442 -62.3233 -35.5369 -35.5322 -35.5261 -35.5154 -35.5095 -35.5068
   -35.5049 -35.4955 -35.4894 -35.4876 -35.4829 -35.4807 -35.4795 -35.4758
   -35.4616 -35.4555 -35.4508 -35.4433 -35.3660 -35.3558 -35.3542 -35.3483
   -35.3308 -35.3185 -35.3074 -35.2890 -35.2837 -31.2405 -31.2307 -31.2222
   -31.2155 -31.2133 -31.2132 -31.2087 -31.2058 -31.2045 -31.2031 -31.2005
   -31.1939 -31.1914 -31.1868 -31.1865 -31.1842 -31.1828 -31.1808 -31.1801
   -31.1784 -31.1729 -31.1615 -31.1601 -31.1561 -31.1495 -31.1472 -31.1432
     6.5525   6.5737   6.5886   6.6019   7.8327   7.8491   7.8647   7.8743
     7.9052   7.9204   7.9217   7.9336   8.2689   8.2718   8.2971   8.2986
     8.5107   8.5151   8.5347   8.5357   8.6564   8.6667   8.6682   8.6810
     8.6918   8.6937   8.7059   8.7066   8.7170   8.7215   8.7498   8.7508
     8.7549   8.7595   8.7955   8.8154   8.9744   8.9958   9.0065   9.0185
     9.0339   9.0392   9.0514   9.0608   9.2004   9.2016   9.2108   9.2166
     9.2174   9.2183   9.2234   9.2287   9.2419   9.2500   9.2559   9.2622
     9.2689   9.2709   9.2816   9.2948   9.3003   9.3023   9.3837   9.3995
     9.4102   9.4208   9.4550   9.4578   9.4642   9.4645   9.4719   9.4847
     9.4979   9.5103   9.5106   9.5180   9.5227   9.5300   9.5391   9.5411
     9.5458   9.5618   9.7545   9.7564   9.7910   9.7927   9.8042   9.8053
     9.8298   9.8375   9.8409   9.8433   9.8635   9.8695   9.8729   9.8899
     9.9660   9.9739   9.9871   9.9982  10.0046  10.0165  10.0661  10.0706
    10.3766  10.3955  10.3991  10.4045  10.4055  10.4072  10.4237  10.4557
    10.4653  10.4655  10.4739  10.4752  10.4882  10.4882  10.4946  10.4984
    10.5087  10.5106  10.5571  10.5593  10.5777  10.6063  10.6279  10.6309
    10.6386  10.6441  10.6634  10.6696  10.6884  10.6913  10.7295  10.7335
    10.7500  10.7767  10.8548  10.8657  10.9527  10.9599  11.0798  11.0904
    11.1099  11.1225  11.1250  11.1320  11.1620  11.1814  11.1963  11.2000
    11.2104  11.2109  11.2916  11.3150  11.3525  11.3604  11.3614  11.3732
    11.3732  11.3761  11.4025  11.4088  11.4790  11.4819  11.4832  11.5053
    11.5118  11.5184  11.5800  11.5828  11.5924  11.5987  11.6162  11.6318
    11.6387  11.6463  11.7242  11.7278  11.7417  11.7949  11.7966  11.8036
    11.9139  11.9168  11.9271  11.9388  11.9451  11.9719  11.9787  12.0078
    12.0309  12.0353  12.0360  12.0382  12.0716  12.0999  12.1065  12.1070
    12.1599  12.1623  12.1739  12.1807  12.2410  12.2573  12.2834  12.2959
    12.3294  12.4021  12.4042  12.4259  12.4274  12.4433  12.4461  12.4540
    12.5033  12.5152  12.5324  12.5617  12.5819  12.6013  12.6014  12.6069
    12.6276  12.6342  12.6425  12.6443  12.6464  12.6668  12.6944  12.7230
    12.7405  12.8047  12.8165  12.8870  12.8974  12.9217  12.9284  12.9488
    13.0525  13.1942  13.4036  13.5389  13.5755  13.6082  13.7838  13.7928
    13.9030  14.0627  14.0909  14.2661  14.2688  14.3177  14.3290  14.4205
    14.4367  14.5246  14.5476  14.5566  14.5773  14.6147  14.6206  14.8971
    14.9003  15.2619  15.2893  15.3399  15.4040  15.4765  15.4814  15.5050
    15.6030  15.7174  15.7821  15.8282  15.8624  15.8746  15.9066  15.9668
    15.9761  16.0626  16.0882  16.1083  16.1228  16.1273  16.1433  16.1813
    16.1855  16.2643  16.2903  16.3136  16.3507  16.3549  16.3935  16.4039
    16.4298  16.5314  16.5530  16.5596  16.6132  16.6231  16.7329  16.7610
    16.8105  16.8227  16.9192  16.9255  16.9728  16.9833  16.9956  17.0328
    17.1066  17.1545  17.1720  17.1934  18.6027  18.6308  18.6589  18.6729
    18.7431  18.7736  18.8525  18.8727  18.8943  18.9156  18.9175  18.9425

          k =-0.5000-0.5000 0.0000 ( 31612 PWs)   bands (ev):

   -66.7849 -66.7635 -66.7436 -66.7395 -66.7310 -66.7267 -66.6116 -66.5821
   -66.5561 -62.4025 -62.3830 -62.3728 -62.3695 -62.3682 -62.3586 -62.3563
   -62.3442 -62.3233 -35.5369 -35.5322 -35.5261 -35.5154 -35.5095 -35.5068
   -35.5049 -35.4955 -35.4894 -35.4876 -35.4829 -35.4807 -35.4795 -35.4758
   -35.4616 -35.4555 -35.4508 -35.4433 -35.3660 -35.3558 -35.3542 -35.3483
   -35.3308 -35.3185 -35.3074 -35.2890 -35.2837 -31.2404 -31.2306 -31.2222
   -31.2155 -31.2133 -31.2132 -31.2087 -31.2058 -31.2045 -31.2031 -31.2005
   -31.1939 -31.1914 -31.1868 -31.1865 -31.1842 -31.1828 -31.1808 -31.1801
   -31.1784 -31.1729 -31.1615 -31.1601 -31.1561 -31.1495 -31.1472 -31.1432
     6.4070   6.4302   6.4543   6.4565   8.0030   8.0095   8.0157   8.0269
     8.0973   8.1090   8.2831   8.3174   8.3270   8.3353   8.3371   8.3430
     8.3456   8.3500   8.3536   8.3573   8.3679   8.3753   8.5864   8.6083
     8.6403   8.6612   8.6788   8.6974   8.7091   8.7155   8.7284   8.7405
     8.7726   8.7775   8.9155   8.9319   8.9536   8.9706   8.9753   8.9757
     8.9825   8.9891   9.0019   9.0043   9.0154   9.0182   9.0317   9.0473
     9.1169   9.1243   9.3018   9.3058   9.3179   9.3264   9.3963   9.4089
     9.4175   9.4230   9.4239   9.4273   9.4299   9.4418   9.4478   9.4506
     9.4615   9.4684   9.4706   9.4762   9.4802   9.4808   9.4863   9.4960
     9.4987   9.5042   9.5131   9.5308   9.5440   9.5580   9.5790   9.5896
     9.6067   9.6089   9.6979   9.6991   9.7565   9.7985   9.8178   9.8316
     9.8322   9.8338   9.8345   9.8418   9.8497   9.8574  10.0418  10.0607
    10.0795  10.0998  10.1096  10.1107  10.1384  10.1443  10.1518  10.1623
    10.1772  10.1906  10.2014  10.2121  10.2206  10.2213  10.2250  10.2273
    10.2282  10.2302  10.2380  10.2475  10.4408  10.4785  10.4918  10.4947
    10.4979  10.5059  10.5260  10.5459  10.6089  10.6243  10.6388  10.6466
    10.6589  10.6616  10.6776  10.6810  10.6831  10.6865  10.6895  10.6964
    10.7017  10.7053  10.8078  10.8114  10.8303  10.8495  10.8650  10.8802
    10.9340  10.9479  11.1973  11.2079  11.2151  11.2165  11.3074  11.3214
    11.3227  11.3367  11.3496  11.3621  11.3864  11.3946  11.5422  11.5593
    11.5709  11.5798  11.6384  11.6436  11.6443  11.6446  11.6462  11.6475
    11.6723  11.6882  11.6893  11.7152  11.7262  11.7285  11.7735  11.7746
    11.8746  11.8747  11.8770  11.8789  11.8852  11.8859  11.9714  11.9954
    12.0052  12.0066  12.0625  12.0656  12.0658  12.1047  12.1081  12.1088
    12.1127  12.1132  12.1141  12.1196  12.1447  12.1448  12.1497  12.1603
    12.1718  12.1778  12.1932  12.2043  12.2170  12.2562  12.2646  12.2658
    12.2748  12.2806  12.2864  12.2883  12.2894  12.2938  12.2948  12.3219
    12.3603  12.3692  12.4377  12.4440  12.4582  12.5029  12.5264  12.5339
    12.5383  12.5469  12.5629  12.5725  12.5797  12.6131  12.6445  12.6564
    12.6574  12.6974  12.7430  12.8070  12.8488  12.8609  12.8906  12.9245
    12.9716  12.9738  13.0133  13.0226  13.1307  13.5449  13.5959  13.6184
    13.6541  13.6812  13.7027  13.9122  13.9422  13.9499  14.1077  14.1454
    14.1609  14.2205  14.4632  14.4826  14.4994  14.5644  14.7377  15.1094
    15.1251  15.1913  15.2105  15.2684  15.3677  15.4020  15.6634  15.7611
    15.7728  15.7985  15.8089  15.8117  15.8783  15.9018  15.9202  15.9648
    15.9814  15.9895  16.0000  16.0131  16.0368  16.0466  16.0642  16.1623
    16.1843  16.2006  16.2902  16.3116  16.3186  16.3230  16.3464  16.4203
    16.4864  16.4899  16.5386  16.6596  16.6716  16.6888  16.6951  16.7271
    16.7807  16.8883  16.9578  16.9788  17.3845  17.3884  17.7982  17.9272
    18.1634  18.1910  18.2047  18.2093  18.2640  18.4159  18.5293  18.5510
    18.6121  18.6362  18.6428  18.6667  18.7348  18.7900  18.7987  18.8032

          k =-0.5000-0.5000-0.5734 ( 31672 PWs)   bands (ev):

   -66.7849 -66.7635 -66.7436 -66.7395 -66.7310 -66.7267 -66.6116 -66.5821
   -66.5561 -62.4025 -62.3830 -62.3728 -62.3695 -62.3682 -62.3586 -62.3563
   -62.3442 -62.3233 -35.5369 -35.5322 -35.5261 -35.5154 -35.5095 -35.5068
   -35.5049 -35.4955 -35.4894 -35.4876 -35.4829 -35.4807 -35.4795 -35.4758
   -35.4616 -35.4555 -35.4508 -35.4433 -35.3660 -35.3558 -35.3542 -35.3483
   -35.3308 -35.3185 -35.3074 -35.2890 -35.2837 -31.2404 -31.2306 -31.2222
   -31.2155 -31.2133 -31.2132 -31.2087 -31.2058 -31.2045 -31.2031 -31.2005
   -31.1939 -31.1914 -31.1868 -31.1865 -31.1842 -31.1828 -31.1808 -31.1801
   -31.1784 -31.1729 -31.1615 -31.1601 -31.1561 -31.1495 -31.1472 -31.1432
     6.8865   6.9153   6.9199   6.9297   6.9933   7.0044   7.0295   7.0468
     8.4501   8.4580   8.4687   8.4752   8.4824   8.4863   8.4888   8.4915
     8.5014   8.5039   8.5154   8.5217   8.5371   8.5400   8.5418   8.5609
     8.5700   8.5716   8.5945   8.6071   8.8770   8.8806   8.8848   8.8863
     8.9068   8.9119   8.9253   8.9308   9.0895   9.1086   9.1102   9.1178
     9.1235   9.1445   9.1465   9.1493   9.1508   9.1543   9.1544   9.1631
     9.1633   9.1677   9.1684   9.1694   9.1719   9.1745   9.1766   9.1815
     9.1830   9.1839   9.1901   9.1909   9.1966   9.2036   9.2060   9.2186
     9.2328   9.2339   9.2403   9.2416   9.2536   9.2585   9.2611   9.2697
     9.5432   9.5441   9.5602   9.5709   9.5770   9.5829   9.6098   9.6144
     9.6475   9.6602   9.6654   9.6779   9.7189   9.7385   9.7537   9.7777
     9.8165   9.8382   9.8446   9.8503   9.8757   9.8771   9.8846   9.8955
    10.1150  10.1260  10.1398  10.1498  10.1657  10.1712  10.1778  10.1786
    10.2910  10.3051  10.4429  10.4510  10.4668  10.4675  10.4732  10.4745
    10.4843  10.4866  10.4912  10.4956  10.4990  10.5022  10.5151  10.5175
    10.5210  10.5279  10.5374  10.5471  10.5606  10.5607  10.5790  10.5842
    10.5976  10.6184  10.6316  10.6410  10.6489  10.6701  10.6781  10.6834
    10.6903  10.6910  10.7006  10.7053  10.7168  10.7207  11.0429  11.0473
    11.0590  11.0664  11.0928  11.0943  11.1096  11.1097  11.3695  11.3697
    11.3966  11.3984  11.4014  11.4255  11.4410  11.4500  11.4658  11.4710
    11.4768  11.4910  11.5006  11.5067  11.5079  11.5159  11.6379  11.6399
    11.6444  11.6466  11.6695  11.6718  11.6859  11.6877  11.7021  11.7229
    11.7244  11.7274  11.7340  11.7436  11.7751  11.7766  11.7844  11.7875
    11.7982  11.8009  11.8122  11.8283  11.8318  11.8399  11.9899  12.0065
    12.0151  12.0500  12.0577  12.0644  12.1036  12.1229  12.1311  12.1390
    12.1646  12.1862  12.2045  12.2171  12.2430  12.2688  12.2858  12.2918
    12.2950  12.3494  12.4030  12.4218  12.4276  12.4367  12.4556  12.4583
    12.4820  12.4836  12.5395  12.5571  12.5654  12.5781  12.5875  12.5932
    12.6194  12.6507  12.6793  12.6847  12.6920  12.7045  12.7155  12.7618
    12.8101  12.8407  12.9554  12.9587  13.0730  13.0819  13.1132  13.1715
    13.2471  13.2875  13.2969  13.3143  13.4113  13.4717  13.5227  13.5418
    13.6236  13.6927  13.8430  13.8704  13.8777  13.9196  14.0747  14.1132
    14.1442  14.1672  14.2284  14.6474  14.7129  14.7489  14.8454  15.0619
    15.0632  15.1756  15.2152  15.4431  15.4445  15.5816  15.6648  15.7007
    15.7020  15.7823  15.8281  15.8330  15.8693  15.9049  15.9196  15.9385
    15.9487  15.9923  16.0688  16.0711  16.1376  16.1828  16.1865  16.2066
    16.2150  16.2194  16.2342  16.2411  16.3471  16.4203  16.4572  16.4959
    16.5169  16.5226  16.5888  16.5979  16.6433  16.6760  16.6816  16.6863
    16.7726  16.8555  16.8696  16.8903  16.8963  16.9327  16.9838  17.0185
    17.0790  17.1051  17.7316  17.8074  17.8530  17.8573  19.0119  19.0178
    19.0504  19.0510  19.0629  19.0950  19.1688  19.2348  19.3003  19.3036

          k =-0.5000 0.0000 0.0000 ( 31722 PWs)   bands (ev):

   -66.7849 -66.7635 -66.7436 -66.7395 -66.7310 -66.7267 -66.6116 -66.5821
   -66.5561 -62.4025 -62.3830 -62.3728 -62.3695 -62.3682 -62.3586 -62.3563
   -62.3442 -62.3233 -35.5369 -35.5318 -35.5266 -35.5154 -35.5094 -35.5068
   -35.5049 -35.4954 -35.4894 -35.4876 -35.4829 -35.4807 -35.4796 -35.4758
   -35.4618 -35.4555 -35.4507 -35.4433 -35.3660 -35.3558 -35.3542 -35.3483
   -35.3308 -35.3185 -35.3074 -35.2890 -35.2837 -31.2405 -31.2306 -31.2222
   -31.2155 -31.2133 -31.2132 -31.2085 -31.2058 -31.2045 -31.2013 -31.2005
   -31.1970 -31.1914 -31.1866 -31.1854 -31.1842 -31.1836 -31.1808 -31.1800
   -31.1784 -31.1724 -31.1615 -31.1601 -31.1561 -31.1495 -31.1472 -31.1432
     6.0221   6.0566   7.4106   7.4494   7.4572   7.4608   7.6607   7.6842
     8.1023   8.1058   8.1298   8.1918   8.2070   8.2305   8.2397   8.2461
     8.3923   8.4448   8.4508   8.4540   8.6256   8.6328   8.6461   8.6534
     8.6662   8.6709   8.6724   8.6972   8.7605   8.7835   8.8143   8.8351
     8.8616   8.8647   8.8774   8.8785   8.9140   8.9160   8.9166   8.9181
     8.9247   8.9273   8.9352   8.9355   9.0352   9.0602   9.1594   9.1841
     9.1909   9.1985   9.2170   9.2206   9.2258   9.2271   9.3159   9.3395
     9.3622   9.3722   9.3795   9.3831   9.4769   9.4807   9.4893   9.5227
     9.5307   9.5311   9.5339   9.5754   9.5867   9.5959   9.6019   9.6048
     9.6106   9.6209   9.6280   9.6310   9.6312   9.6340   9.6358   9.6455
     9.6520   9.6625   9.6722   9.6796   9.6966   9.7143   9.7151   9.7328
     9.7399   9.7425   9.7519   9.7570   9.8969   9.9015   9.9453   9.9691
     9.9963  10.0604  10.1446  10.1853  10.2163  10.2304  10.2473  10.2490
    10.2602  10.2646  10.2679  10.2742  10.2771  10.2796  10.3438  10.3501
    10.3548  10.3710  10.3767  10.3826  10.4291  10.4351  10.4453  10.4517
    10.5251  10.5301  10.5458  10.5553  10.5634  10.5687  10.5788  10.5894
    10.5949  10.6064  10.6635  10.6643  10.7135  10.7273  10.7551  10.7735
    10.7968  10.8091  10.8229  10.8512  10.8639  10.8770  10.8860  10.9073
    10.9840  11.0063  11.0127  11.0211  11.0421  11.0980  11.1681  11.1752
    11.3428  11.3470  11.3485  11.3569  11.3740  11.3828  11.3916  11.3951
    11.4018  11.4166  11.4489  11.4808  11.4930  11.5353  11.5411  11.5432
    11.5649  11.5899  11.6065  11.6171  11.6224  11.6296  11.6787  11.6985
    11.7485  11.7671  11.7845  11.7861  11.8012  11.8146  11.8504  11.8504
    11.9032  11.9077  11.9102  11.9237  11.9367  11.9370  11.9449  11.9597
    11.9746  11.9787  11.9843  12.0140  12.0975  12.1026  12.1606  12.1695
    12.1925  12.1976  12.2060  12.2112  12.2387  12.2476  12.2561  12.2659
    12.2802  12.3309  12.3367  12.3612  12.3628  12.3703  12.3863  12.3933
    12.3954  12.4239  12.4381  12.4481  12.4581  12.4785  12.5187  12.5437
    12.5542  12.5853  12.6137  12.6484  12.6560  12.7483  12.7668  12.9002
    12.9055  12.9435  12.9668  12.9904  13.0228  13.0644  13.0835  13.1442
    13.1511  13.1602  13.1919  13.2034  13.2278  13.2403  13.2732  13.3169
    13.4364  13.4578  13.4777  13.5809  13.6236  14.4953  14.5300  14.5637
    14.6298  14.6912  14.7222  14.7797  14.8008  14.8469  14.8675  15.0063
    15.0135  15.1359  15.2988  15.3087  15.4088  15.4105  15.4580  15.5009
    15.5775  15.7314  15.7721  15.8557  15.8799  15.8840  15.9278  15.9997
    16.0149  16.0159  16.0472  16.0966  16.1052  16.1245  16.1889  16.2014
    16.2279  16.2310  16.2317  16.2733  16.2962  16.3179  16.3354  16.3762
    16.4286  16.4429  16.5237  16.6546  16.7089  16.7852  17.0193  17.0657
    17.1436  17.1913  17.2237  17.2954  17.3528  17.4105  17.6184  17.6254
    17.6771  17.7470  17.8257  17.8296  17.8643  17.8768  17.9141  17.9201
    18.0191  18.0538  18.1228  18.2396  19.2535  19.3057  19.3207  19.3820

          k =-0.5000 0.0000 0.5734 ( 31696 PWs)   bands (ev):

   -66.7849 -66.7635 -66.7436 -66.7395 -66.7310 -66.7267 -66.6116 -66.5821
   -66.5561 -62.4025 -62.3830 -62.3728 -62.3695 -62.3682 -62.3586 -62.3563
   -62.3442 -62.3233 -35.5369 -35.5318 -35.5266 -35.5154 -35.5094 -35.5068
   -35.5049 -35.4954 -35.4894 -35.4876 -35.4829 -35.4807 -35.4796 -35.4758
   -35.4618 -35.4555 -35.4507 -35.4433 -35.3660 -35.3558 -35.3542 -35.3483
   -35.3308 -35.3185 -35.3074 -35.2890 -35.2837 -31.2405 -31.2306 -31.2222
   -31.2155 -31.2133 -31.2132 -31.2085 -31.2058 -31.2045 -31.2013 -31.2005
   -31.1970 -31.1914 -31.1866 -31.1854 -31.1842 -31.1836 -31.1808 -31.1800
   -31.1784 -31.1724 -31.1615 -31.1601 -31.1561 -31.1495 -31.1472 -31.1432
     6.5187   6.5380   6.6264   6.6414   7.8339   7.8462   7.8491   7.8623
     7.9042   7.9138   7.9306   7.9424   8.2687   8.2719   8.2991   8.3005
     8.5167   8.5220   8.5276   8.5290   8.6693   8.6723   8.6798   8.6875
     8.6889   8.6938   8.7078   8.7206   8.7302   8.7312   8.7381   8.7420
     8.7509   8.7748   8.7797   8.7814   8.9477   8.9641   9.0347   9.0415
     9.0432   9.0438   9.0518   9.0541   9.1689   9.1864   9.2104   9.2156
     9.2169   9.2232   9.2331   9.2334   9.2393   9.2406   9.2453   9.2548
     9.2567   9.2574   9.2695   9.2728   9.3220   9.3545   9.3856   9.4043
     9.4147   9.4263   9.4479   9.4540   9.4589   9.4626   9.4653   9.4752
     9.5054   9.5115   9.5145   9.5243   9.5328   9.5400   9.5483   9.5545
     9.5788   9.5941   9.7512   9.7531   9.7965   9.8077   9.8096   9.8134
     9.8212   9.8329   9.8333   9.8401   9.8561   9.8605   9.8608   9.8774
     9.9490   9.9540  10.0102  10.0113  10.0283  10.0362  10.0494  10.0546
    10.3575  10.3653  10.3679  10.3712  10.3895  10.3932  10.4342  10.4366
    10.4426  10.4554  10.4614  10.4640  10.4729  10.5030  10.5178  10.5284
    10.5476  10.5500  10.5592  10.5711  10.5886  10.6059  10.6327  10.6411
    10.6515  10.6548  10.6716  10.6752  10.6887  10.6934  10.7290  10.7327
    10.7519  10.7807  10.8305  10.8401  10.9853  10.9904  11.0059  11.0124
    11.1113  11.1276  11.1508  11.1785  11.1833  11.1854  11.1928  11.1930
    11.2108  11.2110  11.3259  11.3260  11.3333  11.3391  11.3695  11.3827
    11.3836  11.3876  11.4138  11.4450  11.4450  11.4488  11.4858  11.4978
    11.5488  11.5491  11.5626  11.5682  11.5721  11.5752  11.6030  11.6276
    11.6403  11.6429  11.7345  11.7422  11.7512  11.7702  11.7835  11.8780
    11.8850  11.9066  11.9144  11.9185  11.9687  11.9749  11.9975  12.0042
    12.0089  12.0293  12.0323  12.0346  12.0350  12.0385  12.0421  12.0604
    12.1970  12.2175  12.2516  12.2568  12.2719  12.2771  12.3087  12.3315
    12.3356  12.3476  12.3693  12.3752  12.3828  12.4103  12.4439  12.4494
    12.4652  12.4741  12.4910  12.4953  12.5273  12.5355  12.5524  12.5815
    12.5962  12.6450  12.6477  12.6554  12.6644  12.6711  12.6880  12.7423
    12.7744  12.8303  12.8531  12.9392  12.9522  12.9698  12.9763  13.1546
    13.2864  13.2987  13.3928  13.4346  13.5367  13.6750  13.7152  13.8925
    13.9628  14.0153  14.0232  14.0799  14.1153  14.1573  14.1644  14.2012
    14.3049  14.5465  14.5558  14.6529  14.6785  14.7339  14.7764  15.0352
    15.0370  15.2937  15.2963  15.4165  15.4405  15.4474  15.5111  15.5726
    15.5888  15.6149  15.6581  15.6986  15.7355  15.8657  15.8849  15.9483
    15.9765  16.0973  16.1223  16.1698  16.1801  16.2017  16.2141  16.2198
    16.2824  16.2834  16.3016  16.3427  16.3885  16.3973  16.4134  16.4302
    16.4641  16.5384  16.5453  16.5818  16.5935  16.6333  16.6672  16.7242
    16.7639  16.7735  16.8362  16.8380  16.8889  16.8903  16.9510  17.0027
    17.1392  17.1611  17.2017  17.2046  18.6734  18.6780  18.6944  18.7119
    18.7432  18.7653  18.8051  18.8065  18.8687  18.8805  18.9862  19.0046

 ------ SPIN DOWN ----------


          k = 0.0000 0.0000 0.0000 ( 31747 PWs)   bands (ev):

   -66.7685 -66.7223 -66.7004 -66.6933 -66.6715 -66.6351 -66.6176 -66.5961
   -66.5929 -62.4085 -62.4010 -62.3966 -62.3930 -62.3894 -62.3815 -62.3170
   -62.2999 -62.2946 -35.5289 -35.5120 -35.4932 -35.4883 -35.4715 -35.4713
   -35.4633 -35.4430 -35.4374 -35.4374 -35.4349 -35.4284 -35.4143 -35.4044
   -35.4018 -35.3964 -35.3740 -35.3737 -35.3625 -35.3574 -35.3479 -35.3470
   -35.3414 -35.3413 -35.3400 -35.3315 -35.3291 -31.2451 -31.2423 -31.2370
   -31.2333 -31.2325 -31.2270 -31.2259 -31.2258 -31.2247 -31.2206 -31.2165
   -31.2135 -31.2130 -31.2073 -31.2022 -31.1992 -31.1951 -31.1943 -31.1534
   -31.1523 -31.1480 -31.1438 -31.1281 -31.1254 -31.1160 -31.1015 -31.1007
     5.6173   7.1409   7.1648   7.1968   7.2201   7.3666   7.8486   7.8920
     7.9292   7.9404   8.0611   8.1209   8.1374   8.1763   8.1918   8.2403
     8.2626   8.2966   8.3197   8.5109   8.5454   8.5690   8.5806   8.5970
     8.6106   8.8505   8.8555   8.8657   8.8846   8.8874   8.8899   8.8910
     8.9059   8.9083   8.9137   8.9256   8.9323   8.9623   8.9703   8.9862
     9.0085   9.0850   9.1203   9.1245   9.1310   9.1400   9.1519   9.1596
     9.1845   9.2080   9.2103   9.2675   9.2894   9.3027   9.3054   9.3498
     9.3578   9.3647   9.3702   9.3722   9.3911   9.3963   9.4008   9.4293
     9.4409   9.4487   9.4541   9.4556   9.4580   9.4608   9.4931   9.5794
     9.5812   9.5821   9.5896   9.5948   9.6258   9.6674   9.6705   9.6719
     9.6771   9.6786   9.6957   9.7388   9.7534   9.7883   9.8077   9.8504
     9.8523   9.9037   9.9143   9.9396   9.9548   9.9606  10.0256  10.0429
    10.0938  10.1206  10.1339  10.1610  10.2872  10.2885  10.2928  10.2954
    10.3055  10.3068  10.3074  10.3083  10.3186  10.3296  10.3394  10.3418
    10.3434  10.3548  10.3611  10.3648  10.3660  10.3696  10.3849  10.3963
    10.4015  10.5191  10.5205  10.5720  10.6165  10.6224  10.6396  10.6723
    10.6996  10.7859  10.7887  10.7909  10.8121  10.8149  10.8267  10.8310
    10.8448  10.8540  10.8571  10.8755  10.8767  10.8786  10.8797  10.8891
    10.9092  10.9231  11.0033  11.0328  11.0770  11.1093  11.2129  11.2208
    11.2254  11.2271  11.2341  11.2646  11.3237  11.3246  11.3351  11.3503
    11.3613  11.3817  11.3897  11.3910  11.3937  11.4023  11.4113  11.4176
    11.4455  11.4485  11.5150  11.5911  11.5925  11.5952  11.5991  11.5996
    11.6443  11.6688  11.7263  11.7322  11.7439  11.7538  11.7742  11.8332
    11.8446  11.8680  11.8723  11.8769  11.9221  11.9286  11.9425  11.9552
    11.9767  11.9900  12.0610  12.1014  12.1022  12.1048  12.1061  12.1307
    12.1415  12.1438  12.1485  12.1494  12.1561  12.1797  12.2209  12.2343
    12.2508  12.2584  12.2641  12.2642  12.3338  12.3524  12.3944  12.4081
    12.4364  12.4364  12.4503  12.4918  12.5102  12.5121  12.5217  12.5278
    12.5496  12.5653  12.5825  12.5906  12.5927  12.6005  12.6623  12.7086
    12.7171  12.7234  12.7311  12.7510  12.7668  12.8608  13.0923  13.0986
    13.1171  13.1351  13.2000  13.2202  13.3910  13.6440  13.8128  13.8346
    13.8739  14.0329  14.1390  14.1926  14.2789  14.3553  14.3893  14.6830
    14.7608  14.8152  14.8228  14.9798  15.0248  15.0404  15.1559  15.1646
    15.2104  15.3631  15.3672  15.3977  15.4291  15.4566  15.5652  15.6236
    15.6269  15.7255  15.7306  15.7662  15.7673  15.8733  15.8842  16.0146
    16.0240  16.0482  16.1111  16.1114  16.1196  16.1676  16.1828  16.2085
    16.2604  16.2784  16.3092  16.3176  16.3385  16.3511  16.3727  16.3933
    16.4277  16.4681  16.4756  16.6073  16.6214  16.6979  16.7752  16.7974
    16.9676  17.0323  17.0790  17.1650  17.2151  17.2371  17.2909  17.3168
    17.4500  17.5897  17.8500  17.9087  17.9244  17.9324  17.9713  18.1765
    18.2840  18.3300  18.4245  18.9237  18.9494  19.0541  19.1277  19.2757

          k = 0.0000 0.0000-0.5734 ( 31692 PWs)   bands (ev):

   -66.7685 -66.7223 -66.7004 -66.6933 -66.6715 -66.6351 -66.6176 -66.5961
   -66.5929 -62.4085 -62.4010 -62.3966 -62.3930 -62.3894 -62.3815 -62.3170
   -62.2999 -62.2946 -35.5288 -35.5120 -35.4932 -35.4883 -35.4715 -35.4713
   -35.4633 -35.4430 -35.4374 -35.4374 -35.4349 -35.4284 -35.4143 -35.4044
   -35.4018 -35.3964 -35.3740 -35.3737 -35.3625 -35.3574 -35.3479 -35.3470
   -35.3414 -35.3413 -35.3400 -35.3315 -35.3291 -31.2451 -31.2423 -31.2370
   -31.2333 -31.2325 -31.2270 -31.2259 -31.2258 -31.2247 -31.2206 -31.2165
   -31.2135 -31.2130 -31.2073 -31.2022 -31.1992 -31.1951 -31.1943 -31.1534
   -31.1523 -31.1480 -31.1438 -31.1281 -31.1254 -31.1160 -31.1014 -31.1007
     6.1757   6.1972   7.5394   7.5530   7.5663   7.5840   7.5869   7.6022
     7.6192   7.6301   8.3084   8.3250   8.3391   8.3490   8.3616   8.3694
     8.3783   8.3868   8.4524   8.4557   8.4780   8.4783   8.4899   8.5001
     8.5248   8.5253   8.7009   8.7098   8.7617   8.7805   8.9446   8.9647
     8.9658   8.9806   8.9811   8.9870   8.9873   8.9945   9.0086   9.0178
     9.0282   9.0419   9.0438   9.0570   9.0817   9.1066   9.1945   9.2115
     9.2173   9.2325   9.2465   9.2595   9.2729   9.2746   9.2807   9.2852
     9.2896   9.2903   9.2950   9.3045   9.3077   9.3097   9.4103   9.4104
     9.4298   9.4304   9.4373   9.4482   9.4515   9.4550   9.4627   9.4754
     9.4885   9.4954   9.5020   9.5166   9.5276   9.5469   9.6508   9.6794
     9.7884   9.7932   9.7990   9.8051   9.8059   9.8191   9.8274   9.8353
     9.8789   9.8810   9.8814   9.8832   9.8883   9.8907   9.8922   9.8936
    10.0590  10.0610  10.0635  10.0653  10.1392  10.1567  10.1587  10.1694
    10.1718  10.1863  10.1879  10.1932  10.2047  10.2159  10.3593  10.3609
    10.3760  10.3793  10.3929  10.4043  10.4180  10.4209  10.4788  10.5034
    10.5960  10.5970  10.6132  10.6169  10.6228  10.6357  10.6676  10.6721
    10.6723  10.6888  10.7096  10.7443  10.7525  10.7999  10.8013  10.8161
    10.9806  10.9991  10.9991  11.0073  11.0144  11.0198  11.0387  11.0828
    11.0871  11.0995  11.1072  11.1289  11.1502  11.1654  11.2044  11.2165
    11.2378  11.2435  11.2511  11.2512  11.2619  11.2623  11.2718  11.2727
    11.2741  11.2802  11.2813  11.2833  11.2904  11.2905  11.2969  11.2998
    11.3069  11.3088  11.3251  11.3259  11.5591  11.5742  11.7142  11.7148
    11.7157  11.7204  11.7235  11.7244  11.7264  11.7274  11.7347  11.7659
    11.7765  11.7813  11.7884  11.7965  11.8068  11.8226  11.8290  11.9291
    11.9814  11.9886  11.9946  12.0156  12.0276  12.0328  12.0498  12.0720
    12.1314  12.1710  12.1963  12.2343  12.2582  12.3342  12.3480  12.3686
    12.3758  12.4298  12.4360  12.4769  12.4800  12.4822  12.4852  12.4897
    12.4983  12.5049  12.5351  12.5395  12.5455  12.5542  12.5784  12.6453
    12.6570  12.6792  12.6851  12.7712  12.7832  12.8134  12.9221  12.9692
    12.9827  13.0340  13.0519  13.0748  13.1360  13.1608  13.2274  13.2277
    13.2442  13.2743  13.2870  13.3097  13.3229  13.5418  13.6245  13.7276
    13.9081  13.9618  13.9876  14.1180  14.1542  14.1629  14.2980  14.4738
    14.5214  14.8611  14.9010  14.9135  14.9830  14.9985  15.0061  15.1176
    15.1632  15.1670  15.1733  15.3286  15.3649  15.4144  15.4669  15.5492
    15.6576  15.6633  15.6813  15.7686  15.8003  15.8764  15.9510  15.9790
    16.0824  16.0860  16.1156  16.1489  16.1725  16.1847  16.2063  16.2164
    16.2302  16.2456  16.2537  16.2620  16.2726  16.2880  16.2967  16.2998
    16.3239  16.3523  16.5124  16.5875  16.5931  16.6736  16.7102  16.7411
    16.8472  16.8930  17.3219  17.3277  17.3530  17.4031  17.4816  17.5442
    17.5538  17.5651  17.6637  17.6936  17.7117  17.7437  17.8861  17.9057
    17.9178  17.9204  18.1661  18.2337  18.2337  18.2731  18.2984  18.3285

          k = 0.0000-0.5000 0.0000 ( 31722 PWs)   bands (ev):

   -66.7685 -66.7223 -66.7004 -66.6933 -66.6715 -66.6351 -66.6176 -66.5961
   -66.5929 -62.4085 -62.4010 -62.3966 -62.3930 -62.3894 -62.3815 -62.3170
   -62.2999 -62.2946 -35.5289 -35.5120 -35.4932 -35.4883 -35.4715 -35.4713
   -35.4633 -35.4430 -35.4374 -35.4374 -35.4349 -35.4284 -35.4143 -35.4044
   -35.4018 -35.3965 -35.3737 -35.3737 -35.3625 -35.3575 -35.3479 -35.3470
   -35.3413 -35.3413 -35.3400 -35.3316 -35.3292 -31.2467 -31.2400 -31.2373
   -31.2334 -31.2330 -31.2266 -31.2258 -31.2258 -31.2247 -31.2206 -31.2168
   -31.2130 -31.2129 -31.2073 -31.2022 -31.1996 -31.1951 -31.1943 -31.1534
   -31.1523 -31.1480 -31.1438 -31.1281 -31.1254 -31.1160 -31.1015 -31.1007
     6.0353   6.0551   7.4023   7.4288   7.4801   7.4879   7.6766   7.6799
     8.1107   8.1165   8.1550   8.1731   8.1907   8.1972   8.2694   8.2817
     8.3841   8.4194   8.4796   8.4872   8.6197   8.6363   8.6374   8.6547
     8.6575   8.6745   8.6979   8.7064   8.7826   8.8010   8.8156   8.8312
     8.8568   8.8599   8.8730   8.8931   8.9021   8.9098   8.9214   8.9247
     8.9311   8.9369   8.9492   8.9524   9.0506   9.0531   9.1533   9.1685
     9.2025   9.2082   9.2193   9.2258   9.2280   9.2338   9.3147   9.3273
     9.3568   9.3777   9.3984   9.4053   9.4698   9.4776   9.4855   9.4980
     9.5381   9.5585   9.5620   9.5668   9.5872   9.5979   9.6029   9.6170
     9.6260   9.6260   9.6354   9.6377   9.6407   9.6422   9.6444   9.6457
     9.6498   9.6720   9.6791   9.6894   9.6990   9.7049   9.7084   9.7314
     9.7385   9.7616   9.7629   9.7719   9.8975   9.9015   9.9341   9.9574
    10.0198  10.0349  10.1713  10.1925  10.2073  10.2172  10.2452  10.2469
    10.2756  10.2773  10.2780  10.2852  10.2854  10.2879  10.3365  10.3501
    10.3821  10.3851  10.3883  10.3927  10.4353  10.4423  10.4688  10.4742
    10.4909  10.5022  10.5104  10.5361  10.5554  10.5633  10.5848  10.5900
    10.6604  10.6620  10.6761  10.7087  10.7096  10.7455  10.7466  10.7672
    10.8026  10.8069  10.8363  10.8498  10.8592  10.8653  10.9030  10.9301
    10.9576  10.9666  11.0232  11.0419  11.0646  11.0782  11.1750  11.1812
    11.3021  11.3267  11.3460  11.3510  11.3622  11.3673  11.4149  11.4208
    11.4380  11.4631  11.4878  11.4886  11.4903  11.5342  11.5359  11.5634
    11.5702  11.5995  11.6097  11.6110  11.6304  11.6644  11.7333  11.7467
    11.7511  11.7909  11.8172  11.8289  11.8295  11.8522  11.8638  11.8681
    11.8728  11.8777  11.8866  11.9014  11.9138  11.9212  11.9467  11.9535
    11.9679  11.9811  12.0117  12.0139  12.0999  12.1165  12.1544  12.1644
    12.1723  12.1787  12.2045  12.2217  12.2435  12.2504  12.2515  12.2667
    12.2903  12.3028  12.3343  12.3949  12.4002  12.4005  12.4229  12.4461
    12.4615  12.4688  12.4808  12.5096  12.5146  12.5397  12.5436  12.5756
    12.5897  12.5976  12.6081  12.6252  12.6580  12.6626  12.7486  12.7853
    12.8534  12.8817  12.9537  13.0191  13.0303  13.0409  13.0944  13.1336
    13.1647  13.2206  13.2270  13.2491  13.2781  13.2846  13.3151  13.3972
    13.4784  13.4945  13.5643  13.5844  13.6452  14.3357  14.3893  14.4941
    14.4941  14.7519  14.7683  14.8293  14.9146  14.9758  15.0642  15.1171
    15.1228  15.1303  15.1620  15.2832  15.3250  15.4203  15.5389  15.6042
    15.6316  15.7076  15.7494  15.7836  15.8349  15.8429  15.9036  15.9767
    15.9941  16.0127  16.0167  16.0757  16.0974  16.1071  16.1199  16.1331
    16.1677  16.2044  16.2455  16.2506  16.2792  16.2815  16.3188  16.4004
    16.4119  16.5595  16.6280  16.6661  16.7296  16.7535  17.0030  17.0322
    17.1996  17.2181  17.2841  17.2881  17.5041  17.5238  17.6029  17.6223
    17.6880  17.7565  17.7903  17.7908  17.8734  17.9060  17.9066  17.9104
    17.9831  18.0520  18.1166  18.2254  19.3003  19.3202  19.3367  19.3716

          k = 0.0000-0.5000-0.5734 ( 31696 PWs)   bands (ev):

   -66.7685 -66.7223 -66.7004 -66.6933 -66.6715 -66.6351 -66.6176 -66.5961
   -66.5929 -62.4085 -62.4010 -62.3966 -62.3930 -62.3894 -62.3815 -62.3170
   -62.2999 -62.2946 -35.5288 -35.5120 -35.4932 -35.4883 -35.4715 -35.4713
   -35.4633 -35.4430 -35.4374 -35.4374 -35.4349 -35.4284 -35.4143 -35.4044
   -35.4018 -35.3965 -35.3737 -35.3737 -35.3625 -35.3575 -35.3479 -35.3470
   -35.3413 -35.3413 -35.3400 -35.3316 -35.3292 -31.2467 -31.2400 -31.2373
   -31.2334 -31.2330 -31.2266 -31.2258 -31.2258 -31.2247 -31.2206 -31.2168
   -31.2130 -31.2129 -31.2073 -31.2022 -31.1996 -31.1951 -31.1943 -31.1534
   -31.1523 -31.1480 -31.1438 -31.1281 -31.1254 -31.1160 -31.1014 -31.1007
     6.5518   6.5761   6.5984   6.6146   7.8344   7.8590   7.8765   7.8851
     7.9040   7.9175   7.9230   7.9450   8.2725   8.2777   8.3007   8.3043
     8.5074   8.5143   8.5444   8.5480   8.6620   8.6665   8.6721   8.6774
     8.6799   8.6841   8.7077   8.7138   8.7395   8.7404   8.7475   8.7530
     8.7578   8.7763   8.8008   8.8201   8.9725   8.9973   9.0106   9.0229
     9.0351   9.0442   9.0542   9.0669   9.2037   9.2055   9.2106   9.2128
     9.2157   9.2219   9.2246   9.2262   9.2466   9.2496   9.2562   9.2689
     9.2733   9.2734   9.2998   9.3002   9.3082   9.3209   9.3823   9.4016
     9.4161   9.4253   9.4608   9.4646   9.4651   9.4656   9.4673   9.4897
     9.4947   9.5080   9.5152   9.5236   9.5401   9.5449   9.5450   9.5531
     9.5553   9.5791   9.7569   9.7596   9.7913   9.7954   9.8081   9.8101
     9.8443   9.8476   9.8508   9.8526   9.8593   9.8625   9.8670   9.8875
     9.9712   9.9748   9.9958  10.0074  10.0250  10.0292  10.0583  10.0622
    10.3618  10.3799  10.4007  10.4028  10.4122  10.4199  10.4316  10.4612
    10.4673  10.4694  10.4796  10.4819  10.4915  10.4921  10.5051  10.5087
    10.5089  10.5196  10.5662  10.5771  10.6052  10.6083  10.6125  10.6170
    10.6513  10.6551  10.6746  10.6750  10.6853  10.7007  10.7056  10.7273
    10.7666  10.7863  10.8695  10.8827  10.9635  10.9748  11.0789  11.0838
    11.1118  11.1280  11.1329  11.1413  11.1671  11.1924  11.1969  11.2019
    11.2111  11.2131  11.3016  11.3207  11.3532  11.3637  11.3689  11.3719
    11.3746  11.3857  11.3994  11.4153  11.4846  11.4862  11.4870  11.5176
    11.5193  11.5274  11.5717  11.5719  11.5861  11.6016  11.6372  11.6392
    11.6429  11.6448  11.7182  11.7266  11.7358  11.8005  11.8043  11.8158
    11.9178  11.9271  11.9341  11.9522  11.9603  11.9635  11.9820  12.0179
    12.0353  12.0362  12.0404  12.0445  12.0800  12.0937  12.1136  12.1415
    12.1867  12.1920  12.2213  12.2313  12.2423  12.2890  12.2967  12.3205
    12.3648  12.3821  12.4021  12.4404  12.4490  12.4680  12.4848  12.4909
    12.5106  12.5270  12.5437  12.5510  12.5568  12.5602  12.5814  12.5816
    12.5936  12.6011  12.6433  12.6518  12.6643  12.7269  12.7282  12.7800
    12.7960  12.8259  12.8490  12.8848  12.9108  12.9447  12.9885  13.0307
    13.0627  13.2145  13.5428  13.6086  13.6152  13.6319  13.6887  13.7593
    13.8562  13.9953  14.0089  14.1486  14.2460  14.2520  14.2886  14.4879
    14.4887  14.5478  14.5526  14.6146  14.6260  14.7475  14.7649  14.9008
    14.9097  15.2597  15.2899  15.3403  15.3752  15.3816  15.3952  15.5356
    15.6333  15.7980  15.8078  15.8198  15.8451  15.8796  15.9430  15.9571
    16.0067  16.0242  16.0347  16.0377  16.0444  16.1493  16.1807  16.1932
    16.2086  16.2572  16.2888  16.3207  16.3535  16.3593  16.3800  16.4134
    16.4307  16.5838  16.6009  16.6387  16.6578  16.6978  16.7331  16.7428
    16.7556  16.8300  16.8948  16.8981  16.9422  16.9814  16.9917  16.9976
    17.0598  17.1003  17.1982  17.2729  18.5797  18.6085  18.6676  18.6855
    18.8040  18.8269  18.8336  18.8614  18.8942  18.9014  18.9452  18.9480

          k =-0.5000-0.5000 0.0000 ( 31612 PWs)   bands (ev):

   -66.7685 -66.7223 -66.7004 -66.6933 -66.6715 -66.6351 -66.6176 -66.5961
   -66.5929 -62.4085 -62.4010 -62.3966 -62.3930 -62.3894 -62.3815 -62.3170
   -62.2999 -62.2946 -35.5288 -35.5120 -35.4932 -35.4883 -35.4715 -35.4713
   -35.4633 -35.4430 -35.4374 -35.4374 -35.4349 -35.4284 -35.4143 -35.4044
   -35.4018 -35.3965 -35.3737 -35.3737 -35.3625 -35.3575 -35.3479 -35.3470
   -35.3413 -35.3413 -35.3400 -35.3316 -35.3292 -31.2467 -31.2400 -31.2373
   -31.2334 -31.2330 -31.2266 -31.2258 -31.2258 -31.2247 -31.2206 -31.2168
   -31.2130 -31.2129 -31.2073 -31.2022 -31.1996 -31.1951 -31.1943 -31.1534
   -31.1523 -31.1480 -31.1438 -31.1281 -31.1254 -31.1160 -31.1014 -31.1007
     6.4068   6.4211   6.4501   6.4942   8.0124   8.0148   8.0225   8.0260
     8.1000   8.1114   8.2964   8.3082   8.3213   8.3293   8.3369   8.3399
     8.3480   8.3520   8.3582   8.3719   8.3756   8.4150   8.5905   8.6166
     8.6403   8.6605   8.6781   8.7007   8.7138   8.7177   8.7273   8.7376
     8.7667   8.8161   8.9225   8.9383   8.9536   8.9721   8.9778   8.9786
     8.9797   8.9882   8.9975   9.0129   9.0179   9.0336   9.0469   9.0490
     9.1193   9.1277   9.3099   9.3108   9.3207   9.3226   9.4050   9.4087
     9.4135   9.4231   9.4276   9.4309   9.4372   9.4421   9.4479   9.4532
     9.4594   9.4714   9.4765   9.4775   9.4828   9.4917   9.4957   9.5042
     9.5117   9.5157   9.5351   9.5413   9.5469   9.5663   9.5809   9.5937
     9.6041   9.6134   9.7002   9.7010   9.7753   9.7793   9.8209   9.8270
     9.8285   9.8361   9.8441   9.8490   9.8518   9.8873  10.0397  10.0599
    10.0801  10.1071  10.1244  10.1283  10.1419  10.1500  10.1526  10.1638
    10.1747  10.1801  10.2063  10.2149  10.2244  10.2271  10.2290  10.2352
    10.2377  10.2383  10.2417  10.2561  10.4608  10.4752  10.4899  10.4946
    10.4988  10.5033  10.5083  10.5557  10.5940  10.6215  10.6450  10.6498
    10.6584  10.6648  10.6797  10.6867  10.6950  10.7012  10.7080  10.7103
    10.7142  10.7495  10.7855  10.8223  10.8330  10.8409  10.8684  10.8804
    10.9367  10.9509  11.1961  11.2009  11.2194  11.2320  11.3072  11.3233
    11.3324  11.3422  11.3609  11.3682  11.3856  11.3923  11.5308  11.5471
    11.6044  11.6331  11.6373  11.6432  11.6444  11.6498  11.6524  11.6543
    11.7001  11.7023  11.7264  11.7324  11.7338  11.7474  11.7546  11.7596
    11.8700  11.8770  11.8790  11.8816  11.8854  11.8884  11.9425  11.9457
    12.0023  12.0419  12.0666  12.0843  12.0970  12.1047  12.1071  12.1105
    12.1116  12.1153  12.1201  12.1215  12.1453  12.1464  12.1658  12.1730
    12.1977  12.2007  12.2110  12.2270  12.2273  12.2385  12.2577  12.2735
    12.2747  12.2796  12.2904  12.2968  12.2979  12.3071  12.3129  12.3424
    12.3663  12.3819  12.4163  12.4397  12.4820  12.4930  12.5175  12.5299
    12.5399  12.5701  12.5825  12.6064  12.6090  12.6362  12.6631  12.6636
    12.7059  12.8077  12.8446  12.8738  12.8923  12.9290  12.9441  12.9538
    12.9746  12.9991  13.0001  13.0058  13.0291  13.5633  13.5747  13.6763
    13.6781  13.6790  13.7013  13.8623  13.8796  14.0037  14.0568  14.1794
    14.1992  14.2075  14.3456  14.4527  14.5413  14.6870  14.8085  15.0706
    15.1976  15.2165  15.2312  15.2353  15.3767  15.4868  15.5468  15.7183
    15.7421  15.7980  15.7985  15.8798  15.8852  15.9017  15.9185  15.9494
    15.9774  15.9937  16.0138  16.0178  16.0194  16.0795  16.1060  16.1404
    16.1707  16.1795  16.2549  16.2953  16.3305  16.3467  16.4166  16.4462
    16.4715  16.4927  16.5071  16.6649  16.6676  16.6976  16.7094  16.7219
    16.8569  16.8938  16.9112  16.9229  17.3889  17.3913  17.8092  17.9381
    18.1704  18.1954  18.2216  18.2426  18.2953  18.3148  18.4947  18.5717
    18.5758  18.6443  18.6753  18.7140  18.7477  18.7960  18.7976  18.8083

          k =-0.5000-0.5000-0.5734 ( 31672 PWs)   bands (ev):

   -66.7685 -66.7223 -66.7004 -66.6933 -66.6715 -66.6351 -66.6176 -66.5961
   -66.5929 -62.4085 -62.4010 -62.3966 -62.3930 -62.3894 -62.3815 -62.3170
   -62.2999 -62.2946 -35.5289 -35.5120 -35.4932 -35.4883 -35.4715 -35.4713
   -35.4633 -35.4430 -35.4374 -35.4374 -35.4349 -35.4284 -35.4143 -35.4044
   -35.4018 -35.3965 -35.3737 -35.3737 -35.3625 -35.3575 -35.3479 -35.3470
   -35.3413 -35.3413 -35.3400 -35.3316 -35.3292 -31.2467 -31.2400 -31.2373
   -31.2334 -31.2330 -31.2266 -31.2258 -31.2258 -31.2247 -31.2206 -31.2168
   -31.2130 -31.2129 -31.2073 -31.2022 -31.1996 -31.1951 -31.1943 -31.1534
   -31.1523 -31.1480 -31.1438 -31.1281 -31.1254 -31.1160 -31.1014 -31.1007
     6.8833   6.9171   6.9373   6.9457   6.9958   7.0079   7.0295   7.0557
     8.4480   8.4593   8.4792   8.4842   8.4865   8.4898   8.4922   8.4993
     8.5041   8.5085   8.5141   8.5206   8.5392   8.5457   8.5462   8.5665
     8.5759   8.5920   8.5926   8.6014   8.8766   8.8792   8.8864   8.8965
     8.9086   8.9097   8.9371   8.9509   9.0870   9.1072   9.1141   9.1202
     9.1257   9.1466   9.1516   9.1530   9.1606   9.1612   9.1624   9.1650
     9.1661   9.1673   9.1688   9.1727   9.1746   9.1767   9.1789   9.1820
     9.1850   9.1872   9.1905   9.1982   9.2011   9.2121   9.2183   9.2219
     9.2288   9.2343   9.2364   9.2449   9.2533   9.2668   9.2762   9.2899
     9.5443   9.5526   9.5619   9.5736   9.5833   9.5954   9.6156   9.6248
     9.6494   9.6724   9.6778   9.6894   9.7175   9.7371   9.7511   9.7848
     9.8182   9.8375   9.8430   9.8522   9.8767   9.8838   9.8895   9.8979
    10.1060  10.1200  10.1442  10.1545  10.1693  10.1816  10.1939  10.2022
    10.2943  10.3106  10.4493  10.4629  10.4646  10.4664  10.4794  10.4840
    10.4842  10.4908  10.5018  10.5032  10.5107  10.5131  10.5134  10.5139
    10.5203  10.5338  10.5388  10.5634  10.5724  10.5730  10.5813  10.6005
    10.6062  10.6087  10.6175  10.6404  10.6423  10.6638  10.6651  10.6846
    10.6896  10.6931  10.7039  10.7066  10.7324  10.7357  11.0462  11.0519
    11.0657  11.0701  11.0905  11.0998  11.1299  11.1355  11.3836  11.3857
    11.3957  11.3961  11.4058  11.4271  11.4397  11.4446  11.4753  11.4813
    11.4855  11.4921  11.5023  11.5068  11.5197  11.5305  11.6356  11.6410
    11.6449  11.6463  11.6506  11.6519  11.6950  11.7005  11.7053  11.7246
    11.7276  11.7332  11.7388  11.7418  11.7723  11.7787  11.7814  11.8042
    11.8051  11.8186  11.8234  11.8371  11.8452  11.8682  11.9927  12.0172
    12.0335  12.0555  12.0722  12.0800  12.0881  12.1273  12.1511  12.1617
    12.1787  12.2062  12.2279  12.2312  12.2494  12.2873  12.3245  12.3342
    12.3505  12.3989  12.4029  12.4159  12.4192  12.4297  12.4370  12.4670
    12.4783  12.4950  12.5022  12.5319  12.5356  12.5604  12.5753  12.6014
    12.6145  12.6739  12.7005  12.7237  12.7260  12.7591  12.7742  12.8193
    12.9020  12.9274  12.9533  12.9786  13.1042  13.1369  13.1497  13.2436
    13.2640  13.2824  13.2921  13.3320  13.3512  13.3967  13.4844  13.4982
    13.5282  13.7094  13.7909  13.8141  13.8513  13.9739  14.1350  14.1585
    14.2136  14.3015  14.3424  14.6924  14.8091  14.8320  14.8640  14.8925
    14.9602  15.0676  15.1804  15.3139  15.3355  15.6639  15.6768  15.6853
    15.7018  15.7540  15.8006  15.8912  15.9323  15.9626  15.9679  16.0006
    16.0105  16.0211  16.0888  16.1156  16.1437  16.1645  16.1702  16.2210
    16.2212  16.2340  16.2495  16.3175  16.3319  16.3911  16.3936  16.4938
    16.5318  16.5352  16.5598  16.6006  16.6088  16.6379  16.7027  16.7203
    16.7771  16.7848  16.8099  16.8826  16.8901  16.9635  16.9905  17.0005
    17.1257  17.1285  17.7284  17.8081  17.8575  17.8607  19.0056  19.0122
    19.0405  19.0446  19.0797  19.1090  19.1883  19.2237  19.2329  19.3402

          k =-0.5000 0.0000 0.0000 ( 31722 PWs)   bands (ev):

   -66.7685 -66.7223 -66.7004 -66.6933 -66.6715 -66.6351 -66.6176 -66.5961
   -66.5929 -62.4085 -62.4010 -62.3966 -62.3930 -62.3894 -62.3815 -62.3170
   -62.2999 -62.2946 -35.5289 -35.5120 -35.4932 -35.4883 -35.4715 -35.4713
   -35.4633 -35.4430 -35.4374 -35.4374 -35.4349 -35.4284 -35.4143 -35.4044
   -35.4018 -35.3964 -35.3740 -35.3737 -35.3625 -35.3574 -35.3479 -35.3470
   -35.3414 -35.3413 -35.3400 -35.3315 -35.3291 -31.2451 -31.2423 -31.2370
   -31.2333 -31.2325 -31.2270 -31.2259 -31.2258 -31.2247 -31.2206 -31.2165
   -31.2135 -31.2130 -31.2073 -31.2022 -31.1992 -31.1951 -31.1943 -31.1534
   -31.1523 -31.1480 -31.1438 -31.1281 -31.1254 -31.1160 -31.1015 -31.1007
     6.0186   6.0720   7.4250   7.4310   7.4441   7.5003   7.6760   7.6793
     8.0920   8.1136   8.1459   8.1820   8.2091   8.2352   8.2512   8.2641
     8.4057   8.4213   8.4374   8.4940   8.6336   8.6396   8.6413   8.6467
     8.6579   8.6634   8.7054   8.7124   8.7543   8.8072   8.8321   8.8412
     8.8472   8.8692   8.8840   8.8901   8.8970   8.9100   8.9164   8.9212
     8.9247   8.9303   8.9414   8.9628   9.0460   9.0557   9.1660   9.1687
     9.1831   9.2082   9.2219   9.2268   9.2305   9.2495   9.3381   9.3415
     9.3457   9.3544   9.3835   9.4159   9.4716   9.4867   9.4967   9.5047
     9.5218   9.5337   9.5779   9.5806   9.5866   9.6030   9.6102   9.6128
     9.6211   9.6279   9.6300   9.6315   9.6370   9.6389   9.6441   9.6470
     9.6563   9.6622   9.6780   9.6893   9.6970   9.7051   9.7196   9.7229
     9.7301   9.7454   9.7774   9.7856   9.8876   9.9135   9.9447   9.9668
    10.0217  10.0411  10.1379  10.2001  10.2183  10.2299  10.2516  10.2565
    10.2594  10.2610  10.2613  10.2641  10.2926  10.2982  10.3374  10.3515
    10.3613  10.3759  10.3892  10.3940  10.4314  10.4445  10.4510  10.4722
    10.5260  10.5312  10.5371  10.5543  10.5634  10.5703  10.5734  10.5875
    10.6057  10.6527  10.6566  10.6940  10.7040  10.7401  10.7501  10.7756
    10.7859  10.8191  10.8201  10.8574  10.8602  10.8706  10.9015  10.9426
    10.9993  11.0091  11.0155  11.0250  11.0397  11.0823  11.1720  11.1814
    11.3482  11.3504  11.3526  11.3786  11.3790  11.4008  11.4011  11.4135
    11.4215  11.4346  11.4572  11.4790  11.4793  11.5350  11.5413  11.5424
    11.5609  11.5728  11.5832  11.6176  11.6232  11.6479  11.6702  11.7379
    11.7654  11.7845  11.7913  11.8190  11.8525  11.8679  11.8685  11.8726
    11.8937  11.9000  11.9210  11.9250  11.9410  11.9424  11.9551  11.9599
    11.9695  11.9723  11.9877  11.9954  12.0534  12.0922  12.1690  12.1696
    12.1957  12.2073  12.2098  12.2146  12.2289  12.2527  12.2727  12.2831
    12.2880  12.2942  12.3190  12.3220  12.3444  12.4042  12.4108  12.4456
    12.4488  12.4846  12.4869  12.4928  12.5133  12.5402  12.5482  12.5609
    12.5730  12.6095  12.6185  12.6440  12.6555  12.6639  12.7290  12.7987
    12.8667  13.0077  13.0338  13.0681  13.0988  13.1026  13.1150  13.1443
    13.1650  13.1787  13.2023  13.2332  13.2529  13.2832  13.3416  13.3430
    13.3480  13.4664  13.4992  13.5813  13.6340  14.4527  14.4786  14.5742
    14.6433  14.7361  14.7641  14.7688  14.7981  14.9030  14.9487  14.9913
    15.0503  15.0682  15.1128  15.2526  15.4266  15.4642  15.5377  15.6294
    15.7024  15.7676  15.7886  15.7928  15.8008  15.8107  15.8478  16.0174
    16.0196  16.0594  16.0737  16.0839  16.1201  16.1350  16.1577  16.1760
    16.1902  16.2047  16.2438  16.2527  16.2962  16.3193  16.3702  16.4213
    16.4303  16.4975  16.5578  16.6006  16.6563  16.7787  17.0449  17.0722
    17.1382  17.1888  17.2184  17.3241  17.4050  17.4346  17.6159  17.6354
    17.7214  17.7673  17.7709  17.8255  17.8506  17.8710  17.8749  17.9747
    17.9880  18.0020  18.1761  18.2750  19.2293  19.2938  19.3410  19.3842

          k =-0.5000 0.0000 0.5734 ( 31696 PWs)   bands (ev):

   -66.7685 -66.7223 -66.7004 -66.6933 -66.6715 -66.6351 -66.6176 -66.5961
   -66.5929 -62.4085 -62.4010 -62.3966 -62.3930 -62.3894 -62.3815 -62.3170
   -62.2999 -62.2946 -35.5288 -35.5120 -35.4932 -35.4883 -35.4715 -35.4713
   -35.4633 -35.4430 -35.4374 -35.4374 -35.4349 -35.4284 -35.4143 -35.4044
   -35.4018 -35.3964 -35.3740 -35.3737 -35.3625 -35.3574 -35.3479 -35.3470
   -35.3414 -35.3413 -35.3400 -35.3315 -35.3291 -31.2451 -31.2423 -31.2370
   -31.2333 -31.2325 -31.2270 -31.2259 -31.2258 -31.2247 -31.2206 -31.2165
   -31.2135 -31.2130 -31.2073 -31.2022 -31.1992 -31.1951 -31.1943 -31.1534
   -31.1523 -31.1480 -31.1438 -31.1281 -31.1254 -31.1160 -31.1014 -31.1007
     6.5271   6.5491   6.6259   6.6447   7.8340   7.8605   7.8627   7.8690
     7.9091   7.9157   7.9283   7.9511   8.2713   8.2780   8.3019   8.3048
     8.5172   8.5255   8.5327   8.5358   8.6662   8.6725   8.6745   8.6755
     8.6860   8.7013   8.7121   8.7262   8.7310   8.7367   8.7502   8.7535
     8.7563   8.7847   8.7875   8.7900   8.9533   8.9692   9.0370   9.0426
     9.0431   9.0479   9.0569   9.0594   9.1910   9.2062   9.2138   9.2168
     9.2224   9.2291   9.2357   9.2388   9.2436   9.2472   9.2499   9.2576
     9.2604   9.2653   9.2761   9.2794   9.3034   9.3447   9.3828   9.4063
     9.4169   9.4278   9.4520   9.4565   9.4652   9.4670   9.4691   9.4891
     9.5052   9.5192   9.5208   9.5313   9.5316   9.5459   9.5547   9.5602
     9.5818   9.5977   9.7550   9.7571   9.7952   9.8133   9.8176   9.8213
     9.8228   9.8406   9.8460   9.8503   9.8568   9.8618   9.8673   9.8806
     9.9388   9.9451  10.0168  10.0272  10.0332  10.0469  10.0524  10.0532
    10.3601  10.3764  10.3894  10.3917  10.4069  10.4139  10.4317  10.4402
    10.4515  10.4521  10.4723  10.4758  10.4778  10.4814  10.4911  10.5149
    10.5308  10.5637  10.5689  10.5781  10.5797  10.5909  10.6423  10.6496
    10.6560  10.6589  10.6802  10.6827  10.6922  10.7011  10.7138  10.7269
    10.7699  10.7903  10.8617  10.8794  10.9765  10.9875  11.0304  11.0328
    11.1132  11.1205  11.1475  11.1857  11.1921  11.1937  11.1956  11.2070
    11.2122  11.2136  11.2965  11.2987  11.3426  11.3478  11.3689  11.3809
    11.3846  11.3978  11.4218  11.4478  11.4494  11.4526  11.4873  11.4985
    11.5670  11.5706  11.5822  11.5835  11.5919  11.6125  11.6183  11.6214
    11.6239  11.6273  11.7324  11.7460  11.7462  11.7712  11.7832  11.8814
    11.8893  11.9092  11.9267  11.9377  11.9669  11.9949  12.0044  12.0136
    12.0215  12.0269  12.0299  12.0400  12.0418  12.0431  12.0571  12.0903
    12.2249  12.2355  12.2620  12.2749  12.2793  12.2934  12.3067  12.3298
    12.3431  12.3477  12.3663  12.3724  12.4097  12.4405  12.4427  12.4751
    12.4849  12.4968  12.5005  12.5175  12.5528  12.5619  12.5724  12.6109
    12.6160  12.6400  12.6449  12.6537  12.6542  12.7016  12.7390  12.7667
    12.7792  12.8444  12.9323  12.9835  12.9997  13.0425  13.0857  13.1308
    13.2213  13.2590  13.3593  13.4552  13.4719  13.5561  13.6084  13.9165
    13.9579  13.9768  14.0491  14.0789  14.1538  14.2793  14.3090  14.4159
    14.4224  14.5511  14.5606  14.5758  14.6305  14.7531  14.7699  15.0730
    15.0855  15.1356  15.2010  15.3824  15.3940  15.4213  15.4326  15.4733
    15.4818  15.6646  15.7159  15.7298  15.8365  15.9379  15.9688  16.0250
    16.0476  16.0639  16.1044  16.1499  16.1559  16.2205  16.2262  16.2450
    16.2871  16.3087  16.3508  16.3910  16.3932  16.4064  16.4102  16.4240
    16.4279  16.4450  16.4843  16.5698  16.5705  16.6167  16.6943  16.7417
    16.7865  16.8038  16.8396  16.8596  16.9098  16.9661  16.9773  17.0035
    17.0483  17.0711  17.1620  17.2666  18.6655  18.6958  18.7175  18.7533
    18.7811  18.7877  18.8002  18.8457  18.8772  18.8995  18.9161  18.9170

     the Fermi energy is    14.8204 ev

!    total energy              =  -33062.59190856 Ry
     Harris-Foulkes estimate   =  -33062.59189011 Ry
     estimated scf accuracy    <       0.00000046 Ry

     total all-electron energy =  -1410574.682283 Ry

     The total energy is the sum of the following terms:

     one-electron contribution =   -1645.68234244 Ry
     hartree contribution      =    1489.90270759 Ry
     xc contribution           =   -1658.74222251 Ry
     ewald contribution        =   -4919.25534656 Ry
     one-center paw contrib.   =  -26328.81470465 Ry

     total magnetization       =     0.49 Bohr mag/cell
     absolute magnetization    =    78.61 Bohr mag/cell

     convergence has been achieved in  21 iterations

     Writing output data file mnau2.save
 
     init_run     :     52.35s CPU     53.21s WALL (       1 calls)
     electrons    :   3231.45s CPU   3286.54s WALL (       1 calls)

     Called by init_run:
     wfcinit      :     46.43s CPU     47.02s WALL (       1 calls)
     potinit      :      2.48s CPU      2.53s WALL (       1 calls)

     Called by electrons:
     c_bands      :   2888.04s CPU   2932.88s WALL (      21 calls)
     sum_band     :    288.24s CPU    294.91s WALL (      21 calls)
     v_of_rho     :      5.62s CPU      5.80s WALL (      22 calls)
     newd         :     17.76s CPU     20.22s WALL (      22 calls)
     PAW_pot      :     32.53s CPU     33.07s WALL (      22 calls)
     mix_rho      :      1.15s CPU      1.19s WALL (      21 calls)

     Called by c_bands:
     init_us_2    :     10.40s CPU     10.46s WALL (     688 calls)
     cegterg      :   2822.43s CPU   2866.58s WALL (     336 calls)

     Called by sum_band:
     sum_band:bec :      1.64s CPU      1.64s WALL (     336 calls)
     addusdens    :     31.69s CPU     34.52s WALL (      21 calls)

     Called by *egterg:
     h_psi        :    983.22s CPU    994.59s WALL (    1358 calls)
     s_psi        :    237.49s CPU    237.80s WALL (    1358 calls)
     g_psi        :      3.73s CPU      3.74s WALL (    1006 calls)
     cdiaghg      :   1035.16s CPU   1036.03s WALL (    1342 calls)

     Called by h_psi:
     h_psi:pot    :    973.55s CPU    984.86s WALL (    1358 calls)
     h_psi:calbec :    238.40s CPU    240.73s WALL (    1358 calls)
     vloc_psi     :    495.07s CPU    503.81s WALL (    1358 calls)
     add_vuspsi   :    240.05s CPU    240.31s WALL (    1358 calls)

     General routines
     calbec       :    338.80s CPU    342.13s WALL (    1694 calls)
     fft          :      5.00s CPU      5.35s WALL (     672 calls)
     ffts         :      0.10s CPU      0.10s WALL (      86 calls)
     fftw         :    471.06s CPU    479.50s WALL (  760942 calls)
     interpolate  :      0.84s CPU      0.88s WALL (      86 calls)
 
     Parallel routines
     fft_scatt_xy :     57.78s CPU     58.69s WALL (  761700 calls)
     fft_scatt_yz :    123.83s CPU    127.67s WALL (  761700 calls)
 
     PWSCF        : 54m49.62s CPU    56m10.00s WALL

 
   This run was terminated on:  10:29:54   6Mar2019            

=------------------------------------------------------------------------------=
   JOB DONE.
=------------------------------------------------------------------------------=
