
     Program PWSCF v.6.2 (svn rev. 14038) starts on  6Mar2019 at 11:25:40 

     This program is part of the open-source Quantum ESPRESSO suite
     for quantum simulation of materials; please cite
         "P. Giannozzi et al., J. Phys.:Condens. Matter 21 395502 (2009);
         "P. Giannozzi et al., J. Phys.:Condens. Matter 29 465901 (2017);
          URL http://www.quantum-espresso.org", 
     in publications or presentations arising from this work. More details at
     http://www.quantum-espresso.org/quote

     Parallel version (MPI), running on    16 processors

     MPI processes distributed on     1 nodes
     R & G space division:  proc/nbgrp/npool/nimage =      16
     Waiting for input...
     Reading input from standard input

     Current dimensions of program PWSCF are:
     Max number of different atomic species (ntypx) = 10
     Max number of k-points (npk) =  40000
     Max angular momentum in pseudopotentials (lmaxx) =  3
               file Mn.pbe-spn-kjpaw_psl.0.3.1.UPF: wavefunction(s)  3P 3D renormalized
               file Mn.pbe-spn-kjpaw_psl.0.3.1.UPF: wavefunction(s)  3P 3D renormalized
               file Au.pbe-dn-kjpaw_psl.0.1.UPF: wavefunction(s)  6S 6P 5D renormalized

     Subspace diagonalization in iterative solution of the eigenvalue problem:
     a serial algorithm will be used

 
     Parallelization info
     --------------------
     sticks:   dense  smooth     PW     G-vecs:    dense   smooth      PW
     Min         736     331     90                52486    15847    2256
     Max         737     332     91                52489    15850    2259
     Sum       11785    5297   1449               839803   253559   36125
 


     bravais-lattice index     =            0
     lattice parameter (alat)  =      19.2459  a.u.
     unit-cell volume          =    6216.1497 (a.u.)^3
     number of atoms/cell      =           54
     number of atomic types    =            3
     number of electrons       =       666.00
     number of Kohn-Sham states=          400
     kinetic-energy cutoff     =      45.0000  Ry
     charge density cutoff     =     400.0000  Ry
     convergence threshold     =      1.0E-06
     mixing beta               =       0.1000
     number of iterations used =            8  plain     mixing
     Exchange-correlation      = SLA PW PBX PBC ( 1  4  3  4 0 0)

     celldm(1)=  19.245946  celldm(2)=   0.000000  celldm(3)=   0.000000
     celldm(4)=   0.000000  celldm(5)=   0.000000  celldm(6)=   0.000000

     crystal axes: (cart. coord. in units of alat)
               a(1) = (   1.000000   0.000000   0.000000 )  
               a(2) = (   0.000000   1.000000   0.000000 )  
               a(3) = (   0.000000   0.000000   0.871974 )  

     reciprocal axes: (cart. coord. in units 2 pi/alat)
               b(1) = (  1.000000  0.000000  0.000000 )  
               b(2) = (  0.000000  1.000000  0.000000 )  
               b(3) = (  0.000000  0.000000  1.146823 )  


     PseudoPot. # 1 for Mn read from file:
     ./pseudo/Mn.pbe-spn-kjpaw_psl.0.3.1.UPF
     MD5 check sum: 7eef95dd2aae66803482eea66ebeebf1
     Pseudo is Projector augmented-wave + core cor, Zval = 15.0
     Generated using "atomic" code by A. Dal Corso v.5.0.99 svn rev. 10869
     Shape of augmentation charge: PSQ
     Using radial grid of 1187 points,  6 beta functions with: 
                l(1) =   0
                l(2) =   0
                l(3) =   1
                l(4) =   1
                l(5) =   2
                l(6) =   2
     Q(r) pseudized with 0 coefficients 


     PseudoPot. # 2 for Mn read from file:
     ./pseudo/Mn.pbe-spn-kjpaw_psl.0.3.1.UPF
     MD5 check sum: 7eef95dd2aae66803482eea66ebeebf1
     Pseudo is Projector augmented-wave + core cor, Zval = 15.0
     Generated using "atomic" code by A. Dal Corso v.5.0.99 svn rev. 10869
     Shape of augmentation charge: PSQ
     Using radial grid of 1187 points,  6 beta functions with: 
                l(1) =   0
                l(2) =   0
                l(3) =   1
                l(4) =   1
                l(5) =   2
                l(6) =   2
     Q(r) pseudized with 0 coefficients 


     PseudoPot. # 3 for Au read from file:
     ./pseudo/Au.pbe-dn-kjpaw_psl.0.1.UPF
     MD5 check sum: 5c9b92683623e7ae2ab3f8e525febab6
     Pseudo is Projector augmented-wave + core cor, Zval = 11.0
     Generated using "atomic" code by A. Dal Corso v.5.0.2 svn rev. 9415
     Shape of augmentation charge: PSQ
     Using radial grid of 1279 points,  6 beta functions with: 
                l(1) =   0
                l(2) =   0
                l(3) =   1
                l(4) =   1
                l(5) =   2
                l(6) =   2
     Q(r) pseudized with 0 coefficients 


     atomic species   valence    mass     pseudopotential
        Mn1           15.00    54.93800     Mn( 1.00)
        Mn2           15.00    54.93800     Mn( 1.00)
        Au            11.00   196.96600     Au( 1.00)

     Starting magnetic structure 
     atomic species   magnetization
        Mn1          0.800
        Mn2         -0.800
        Au           0.000

      2 Sym. Ops. (no inversion) found



   Cartesian axes

     site n.     atom                  positions (alat units)
         1           Mn1 tau(   1) = (   0.0000000   0.0000000   0.0000000  )
         2           Mn1 tau(   2) = (   0.0000000   0.3333300   0.0000000  )
         3           Mn1 tau(   3) = (   0.0000000   0.6666700   0.0000000  )
         4           Mn2 tau(   4) = (   0.3333300   0.0000000   0.0000000  )
         5           Mn2 tau(   5) = (   0.3333300   0.3333300   0.0000000  )
         6           Mn2 tau(   6) = (   0.3333300   0.6666700   0.0000000  )
         7           Mn2 tau(   7) = (   0.6666700   0.0000000   0.0000000  )
         8           Mn1 tau(   8) = (   0.6666700   0.3333300   0.0000000  )
         9           Mn2 tau(   9) = (   0.6666700   0.6666700   0.0000000  )
        10           Mn2 tau(  10) = (   0.1666700   0.1666700   0.4359871  )
        11           Mn2 tau(  11) = (   0.1666700   0.5000000   0.4359871  )
        12           Mn2 tau(  12) = (   0.1666700   0.8333300   0.4359871  )
        13           Mn1 tau(  13) = (   0.5000000   0.1666700   0.4359871  )
        14           Mn1 tau(  14) = (   0.5000000   0.5000000   0.4359871  )
        15           Mn1 tau(  15) = (   0.5000000   0.8333300   0.4359871  )
        16           Mn1 tau(  16) = (   0.8333300   0.1666700   0.4359871  )
        17           Mn2 tau(  17) = (   0.8333300   0.5000000   0.4359871  )
        18           Mn1 tau(  18) = (   0.8333300   0.8333300   0.4359871  )
        19           Au  tau(  19) = (   0.1666700   0.1666700   0.7327374  )
        20           Au  tau(  20) = (   0.1666700   0.5000000   0.7327374  )
        21           Au  tau(  21) = (   0.1666700   0.8333300   0.7327374  )
        22           Au  tau(  22) = (   0.5000000   0.1666700   0.7327374  )
        23           Au  tau(  23) = (   0.5000000   0.5000000   0.7327374  )
        24           Au  tau(  24) = (   0.5000000   0.8333300   0.7327374  )
        25           Au  tau(  25) = (   0.8333300   0.1666700   0.7327374  )
        26           Au  tau(  26) = (   0.8333300   0.5000000   0.7327374  )
        27           Au  tau(  27) = (   0.8333300   0.8333300   0.7327374  )
        28           Au  tau(  28) = (   0.1666700   0.1666700   0.1392369  )
        29           Au  tau(  29) = (   0.1666700   0.5000000   0.1392369  )
        30           Au  tau(  30) = (   0.1666700   0.8333300   0.1392369  )
        31           Au  tau(  31) = (   0.5000000   0.1666700   0.1392369  )
        32           Au  tau(  32) = (   0.5000000   0.5000000   0.1392369  )
        33           Au  tau(  33) = (   0.5000000   0.8333300   0.1392369  )
        34           Au  tau(  34) = (   0.8333300   0.1666700   0.1392369  )
        35           Au  tau(  35) = (   0.8333300   0.5000000   0.1392369  )
        36           Au  tau(  36) = (   0.8333300   0.8333300   0.1392369  )
        37           Au  tau(  37) = (   0.0000000   0.0000000   0.2967503  )
        38           Au  tau(  38) = (   0.0000000   0.3333300   0.2967503  )
        39           Au  tau(  39) = (   0.0000000   0.6666700   0.2967503  )
        40           Au  tau(  40) = (   0.3333300   0.0000000   0.2967503  )
        41           Au  tau(  41) = (   0.3333300   0.3333300   0.2967503  )
        42           Au  tau(  42) = (   0.3333300   0.6666700   0.2967503  )
        43           Au  tau(  43) = (   0.6666700   0.0000000   0.2967503  )
        44           Au  tau(  44) = (   0.6666700   0.3333300   0.2967503  )
        45           Au  tau(  45) = (   0.6666700   0.6666700   0.2967503  )
        46           Au  tau(  46) = (   0.0000000   0.0000000   0.5752240  )
        47           Au  tau(  47) = (   0.0000000   0.3333300   0.5752240  )
        48           Au  tau(  48) = (   0.0000000   0.6666700   0.5752240  )
        49           Au  tau(  49) = (   0.3333300   0.0000000   0.5752240  )
        50           Au  tau(  50) = (   0.3333300   0.3333300   0.5752240  )
        51           Au  tau(  51) = (   0.3333300   0.6666700   0.5752240  )
        52           Au  tau(  52) = (   0.6666700   0.0000000   0.5752240  )
        53           Au  tau(  53) = (   0.6666700   0.3333300   0.5752240  )
        54           Au  tau(  54) = (   0.6666700   0.6666700   0.5752240  )

     number of k points=     8 (tetrahedron method)
                       cart. coord. in units 2pi/alat
        k(    1) = (   0.0000000   0.0000000   0.0000000), wk =   0.1250000
        k(    2) = (   0.0000000   0.0000000  -0.5734114), wk =   0.1250000
        k(    3) = (   0.0000000  -0.5000000   0.0000000), wk =   0.1250000
        k(    4) = (   0.0000000  -0.5000000  -0.5734114), wk =   0.1250000
        k(    5) = (  -0.5000000  -0.5000000   0.0000000), wk =   0.1250000
        k(    6) = (  -0.5000000  -0.5000000  -0.5734114), wk =   0.1250000
        k(    7) = (  -0.5000000   0.0000000   0.0000000), wk =   0.1250000
        k(    8) = (  -0.5000000   0.0000000   0.5734114), wk =   0.1250000

     Dense  grid:   839803 G-vectors     FFT dimensions: ( 125, 125, 108)

     Smooth grid:   253559 G-vectors     FFT dimensions: (  90,  90,  72)

     Estimated max dynamical RAM per process >     570.13 MB

     Estimated total dynamical RAM >       8.91 GB
     Generating pointlists ...
     new r_m :   0.1129 (alat units)  2.1733 (a.u.) for type    1
     new r_m :   0.1129 (alat units)  2.1733 (a.u.) for type    2
     new r_m :   0.1129 (alat units)  2.1733 (a.u.) for type    3

     Check: negative/imaginary core charge=   -0.000006    0.000000

     Initial potential from superposition of free atoms

     starting charge  665.98709, renormalised to  666.00000
     Starting wfc are  504 randomized atomic wfcs
     Checking if some PAW data can be deallocated... 

     total cpu time spent up to now is       56.6 secs

     Self-consistent Calculation

     iteration #  1     ecut=    45.00 Ry     beta= 0.10
     Davidson diagonalization with overlap
     ethr =  1.00E-02,  avg # of iterations =  3.3

     total cpu time spent up to now is      218.5 secs

     total energy              =  -33047.18476113 Ry
     Harris-Foulkes estimate   =  -33044.03462537 Ry
     estimated scf accuracy    <      27.02915651 Ry

     total magnetization       =    -0.02 Bohr mag/cell
     absolute magnetization    =    92.13 Bohr mag/cell

     iteration #  2     ecut=    45.00 Ry     beta= 0.10
     Davidson diagonalization with overlap
     ethr =  4.06E-03,  avg # of iterations =  1.0

     total cpu time spent up to now is      326.8 secs

     total energy              =  -33058.56544647 Ry
     Harris-Foulkes estimate   =  -33047.36344631 Ry
     estimated scf accuracy    <      21.37170945 Ry

     total magnetization       =    -0.02 Bohr mag/cell
     absolute magnetization    =    91.72 Bohr mag/cell

     iteration #  3     ecut=    45.00 Ry     beta= 0.10
     Davidson diagonalization with overlap
     ethr =  3.21E-03,  avg # of iterations =  2.1

     total cpu time spent up to now is      459.5 secs

     total energy              =  -33066.51110978 Ry
     Harris-Foulkes estimate   =  -33061.36655321 Ry
     estimated scf accuracy    <       8.80740080 Ry

     total magnetization       =     0.19 Bohr mag/cell
     absolute magnetization    =    85.58 Bohr mag/cell

     iteration #  4     ecut=    45.00 Ry     beta= 0.10
     Davidson diagonalization with overlap
     ethr =  1.32E-03,  avg # of iterations =  4.2

     total cpu time spent up to now is      677.4 secs

     total energy              =  -33058.98477438 Ry
     Harris-Foulkes estimate   =  -33069.52649271 Ry
     estimated scf accuracy    <      57.03535808 Ry

     total magnetization       =     1.24 Bohr mag/cell
     absolute magnetization    =    70.34 Bohr mag/cell

     iteration #  5     ecut=    45.00 Ry     beta= 0.10
     Davidson diagonalization with overlap
     ethr =  1.32E-03,  avg # of iterations =  4.9

     total cpu time spent up to now is      914.9 secs

     total energy              =  -33061.79417336 Ry
     Harris-Foulkes estimate   =  -33062.76015802 Ry
     estimated scf accuracy    <       4.74891160 Ry

     total magnetization       =     0.34 Bohr mag/cell
     absolute magnetization    =    83.27 Bohr mag/cell

     iteration #  6     ecut=    45.00 Ry     beta= 0.10
     Davidson diagonalization with overlap
     ethr =  7.13E-04,  avg # of iterations =  3.8

     total cpu time spent up to now is     1076.1 secs

     total energy              =  -33062.53019542 Ry
     Harris-Foulkes estimate   =  -33062.53601499 Ry
     estimated scf accuracy    <       0.30687776 Ry

     total magnetization       =     0.07 Bohr mag/cell
     absolute magnetization    =    79.93 Bohr mag/cell

     iteration #  7     ecut=    45.00 Ry     beta= 0.10
     Davidson diagonalization with overlap
     ethr =  4.61E-05,  avg # of iterations =  4.6

     total cpu time spent up to now is     1270.7 secs

     total energy              =  -33062.58124594 Ry
     Harris-Foulkes estimate   =  -33062.58511158 Ry
     estimated scf accuracy    <       0.05960256 Ry

     total magnetization       =     0.37 Bohr mag/cell
     absolute magnetization    =    78.98 Bohr mag/cell

     iteration #  8     ecut=    45.00 Ry     beta= 0.10
     Davidson diagonalization with overlap
     ethr =  8.95E-06,  avg # of iterations =  5.8

     total cpu time spent up to now is     1490.7 secs

     total energy              =  -33062.57509637 Ry
     Harris-Foulkes estimate   =  -33062.59692229 Ry
     estimated scf accuracy    <       0.13651675 Ry

     total magnetization       =     0.31 Bohr mag/cell
     absolute magnetization    =    78.54 Bohr mag/cell

     iteration #  9     ecut=    45.00 Ry     beta= 0.10
     Davidson diagonalization with overlap
     ethr =  8.95E-06,  avg # of iterations =  2.0

     total cpu time spent up to now is     1617.8 secs

     total energy              =  -33062.58537969 Ry
     Harris-Foulkes estimate   =  -33062.58158542 Ry
     estimated scf accuracy    <       0.03827126 Ry

     total magnetization       =     0.43 Bohr mag/cell
     absolute magnetization    =    78.32 Bohr mag/cell

     iteration # 10     ecut=    45.00 Ry     beta= 0.10
     Davidson diagonalization with overlap
     ethr =  5.75E-06,  avg # of iterations =  2.0

     total cpu time spent up to now is     1739.2 secs

     total energy              =  -33062.58738874 Ry
     Harris-Foulkes estimate   =  -33062.58834840 Ry
     estimated scf accuracy    <       0.00934155 Ry

     total magnetization       =     0.43 Bohr mag/cell
     absolute magnetization    =    78.60 Bohr mag/cell

     iteration # 11     ecut=    45.00 Ry     beta= 0.10
     Davidson diagonalization with overlap
     ethr =  1.40E-06,  avg # of iterations =  4.8

     total cpu time spent up to now is     1909.3 secs

     total energy              =  -33062.59022657 Ry
     Harris-Foulkes estimate   =  -33062.58940672 Ry
     estimated scf accuracy    <       0.00388324 Ry

     total magnetization       =     0.42 Bohr mag/cell
     absolute magnetization    =    78.96 Bohr mag/cell

     iteration # 12     ecut=    45.00 Ry     beta= 0.10
     Davidson diagonalization with overlap
     ethr =  5.83E-07,  avg # of iterations =  3.0

     total cpu time spent up to now is     2044.5 secs

     total energy              =  -33062.59107053 Ry
     Harris-Foulkes estimate   =  -33062.59033662 Ry
     estimated scf accuracy    <       0.00282343 Ry

     total magnetization       =     0.42 Bohr mag/cell
     absolute magnetization    =    78.89 Bohr mag/cell

     iteration # 13     ecut=    45.00 Ry     beta= 0.10
     Davidson diagonalization with overlap
     ethr =  4.24E-07,  avg # of iterations =  1.7

     total cpu time spent up to now is     2161.6 secs

     total energy              =  -33062.59161120 Ry
     Harris-Foulkes estimate   =  -33062.59103873 Ry
     estimated scf accuracy    <       0.00063366 Ry

     total magnetization       =     0.45 Bohr mag/cell
     absolute magnetization    =    78.80 Bohr mag/cell

     iteration # 14     ecut=    45.00 Ry     beta= 0.10
     Davidson diagonalization with overlap
     ethr =  9.51E-08,  avg # of iterations =  4.1

     total cpu time spent up to now is     2343.6 secs

     total energy              =  -33062.59171869 Ry
     Harris-Foulkes estimate   =  -33062.59160072 Ry
     estimated scf accuracy    <       0.00019917 Ry

     total magnetization       =     0.46 Bohr mag/cell
     absolute magnetization    =    78.69 Bohr mag/cell

     iteration # 15     ecut=    45.00 Ry     beta= 0.10
     Davidson diagonalization with overlap
     ethr =  2.99E-08,  avg # of iterations =  1.3

     total cpu time spent up to now is     2455.2 secs

     total energy              =  -33062.59186787 Ry
     Harris-Foulkes estimate   =  -33062.59170064 Ry
     estimated scf accuracy    <       0.00009716 Ry

     total magnetization       =     0.47 Bohr mag/cell
     absolute magnetization    =    78.68 Bohr mag/cell

     iteration # 16     ecut=    45.00 Ry     beta= 0.10
     Davidson diagonalization with overlap
     ethr =  1.46E-08,  avg # of iterations =  2.8

     total cpu time spent up to now is     2607.5 secs

     total energy              =  -33062.59189605 Ry
     Harris-Foulkes estimate   =  -33062.59184981 Ry
     estimated scf accuracy    <       0.00003317 Ry

     total magnetization       =     0.47 Bohr mag/cell
     absolute magnetization    =    78.64 Bohr mag/cell

     iteration # 17     ecut=    45.00 Ry     beta= 0.10
     Davidson diagonalization with overlap
     ethr =  4.98E-09,  avg # of iterations =  2.2

     total cpu time spent up to now is     2736.6 secs

     total energy              =  -33062.59190198 Ry
     Harris-Foulkes estimate   =  -33062.59187425 Ry
     estimated scf accuracy    <       0.00001358 Ry

     total magnetization       =     0.48 Bohr mag/cell
     absolute magnetization    =    78.63 Bohr mag/cell

     iteration # 18     ecut=    45.00 Ry     beta= 0.10
     Davidson diagonalization with overlap
     ethr =  2.04E-09,  avg # of iterations =  2.7

     total cpu time spent up to now is     2884.3 secs

     total energy              =  -33062.59190116 Ry
     Harris-Foulkes estimate   =  -33062.59188819 Ry
     estimated scf accuracy    <       0.00000645 Ry

     total magnetization       =     0.48 Bohr mag/cell
     absolute magnetization    =    78.62 Bohr mag/cell

     iteration # 19     ecut=    45.00 Ry     beta= 0.10
     Davidson diagonalization with overlap
     ethr =  9.69E-10,  avg # of iterations =  3.0

     total cpu time spent up to now is     3054.9 secs

     total energy              =  -33062.59189153 Ry
     Harris-Foulkes estimate   =  -33062.59188540 Ry
     estimated scf accuracy    <       0.00000243 Ry

     total magnetization       =     0.48 Bohr mag/cell
     absolute magnetization    =    78.61 Bohr mag/cell

     iteration # 20     ecut=    45.00 Ry     beta= 0.10
     Davidson diagonalization with overlap
     ethr =  3.65E-10,  avg # of iterations =  2.6

     total cpu time spent up to now is     3195.8 secs

     total energy              =  -33062.59189516 Ry
     Harris-Foulkes estimate   =  -33062.59189065 Ry
     estimated scf accuracy    <       0.00000109 Ry

     total magnetization       =     0.48 Bohr mag/cell
     absolute magnetization    =    78.61 Bohr mag/cell

     iteration # 21     ecut=    45.00 Ry     beta= 0.10
     Davidson diagonalization with overlap
     ethr =  1.64E-10,  avg # of iterations =  2.8
 
     Magnetic moment per site:
     atom:    1    charge:   13.5733    magn:    4.0317    constr:    0.0000
     atom:    2    charge:   13.5714    magn:    4.0343    constr:    0.0000
     atom:    3    charge:   13.5726    magn:    4.0432    constr:    0.0000
     atom:    4    charge:   13.5754    magn:   -3.9984    constr:    0.0000
     atom:    5    charge:   13.5834    magn:   -3.9334    constr:    0.0000
     atom:    6    charge:   13.5828    magn:   -3.9383    constr:    0.0000
     atom:    7    charge:   13.5691    magn:   -4.0571    constr:    0.0000
     atom:    8    charge:   13.5825    magn:    3.9789    constr:    0.0000
     atom:    9    charge:   13.5727    magn:   -4.0464    constr:    0.0000
     atom:   10    charge:   13.5767    magn:   -3.9928    constr:    0.0000
     atom:   11    charge:   13.5791    magn:   -3.9557    constr:    0.0000
     atom:   12    charge:   13.5819    magn:   -3.9517    constr:    0.0000
     atom:   13    charge:   13.5705    magn:    4.0502    constr:    0.0000
     atom:   14    charge:   13.5724    magn:    4.0417    constr:    0.0000
     atom:   15    charge:   13.5685    magn:    4.0633    constr:    0.0000
     atom:   16    charge:   13.5837    magn:    3.9541    constr:    0.0000
     atom:   17    charge:   13.5727    magn:   -4.0719    constr:    0.0000
     atom:   18    charge:   13.5807    magn:    3.9869    constr:    0.0000
     atom:   19    charge:    9.1204    magn:   -0.0089    constr:    0.0000
     atom:   20    charge:    9.1206    magn:   -0.0083    constr:    0.0000
     atom:   21    charge:    9.1204    magn:   -0.0046    constr:    0.0000
     atom:   22    charge:    9.1202    magn:   -0.0118    constr:    0.0000
     atom:   23    charge:    9.1205    magn:   -0.0107    constr:    0.0000
     atom:   24    charge:    9.1217    magn:   -0.0461    constr:    0.0000
     atom:   25    charge:    9.1202    magn:    0.0404    constr:    0.0000
     atom:   26    charge:    9.1217    magn:    0.0200    constr:    0.0000
     atom:   27    charge:    9.1209    magn:    0.0104    constr:    0.0000
     atom:   28    charge:    9.1204    magn:   -0.0089    constr:    0.0000
     atom:   29    charge:    9.1206    magn:   -0.0083    constr:    0.0000
     atom:   30    charge:    9.1204    magn:   -0.0046    constr:    0.0000
     atom:   31    charge:    9.1202    magn:   -0.0118    constr:    0.0000
     atom:   32    charge:    9.1205    magn:   -0.0107    constr:    0.0000
     atom:   33    charge:    9.1217    magn:   -0.0461    constr:    0.0000
     atom:   34    charge:    9.1202    magn:    0.0404    constr:    0.0000
     atom:   35    charge:    9.1217    magn:    0.0200    constr:    0.0000
     atom:   36    charge:    9.1209    magn:    0.0104    constr:    0.0000
     atom:   37    charge:    9.1197    magn:    0.0146    constr:    0.0000
     atom:   38    charge:    9.1213    magn:   -0.0125    constr:    0.0000
     atom:   39    charge:    9.1214    magn:   -0.0123    constr:    0.0000
     atom:   40    charge:    9.1211    magn:   -0.0092    constr:    0.0000
     atom:   41    charge:    9.1201    magn:   -0.0015    constr:    0.0000
     atom:   42    charge:    9.1205    magn:   -0.0047    constr:    0.0000
     atom:   43    charge:    9.1212    magn:    0.0516    constr:    0.0000
     atom:   44    charge:    9.1200    magn:    0.0373    constr:    0.0000
     atom:   45    charge:    9.1218    magn:    0.0202    constr:    0.0000
     atom:   46    charge:    9.1197    magn:    0.0146    constr:    0.0000
     atom:   47    charge:    9.1213    magn:   -0.0125    constr:    0.0000
     atom:   48    charge:    9.1214    magn:   -0.0123    constr:    0.0000
     atom:   49    charge:    9.1211    magn:   -0.0092    constr:    0.0000
     atom:   50    charge:    9.1201    magn:   -0.0015    constr:    0.0000
     atom:   51    charge:    9.1205    magn:   -0.0047    constr:    0.0000
     atom:   52    charge:    9.1212    magn:    0.0516    constr:    0.0000
     atom:   53    charge:    9.1200    magn:    0.0373    constr:    0.0000
     atom:   54    charge:    9.1218    magn:    0.0202    constr:    0.0000

     total cpu time spent up to now is     3344.1 secs

     End of self-consistent calculation

 ------ SPIN UP ------------


          k = 0.0000 0.0000 0.0000 ( 31747 PWs)   bands (ev):

   -66.7853 -66.7638 -66.7440 -66.7399 -66.7315 -66.7271 -66.6119 -66.5823
   -66.5563 -62.4021 -62.3828 -62.3725 -62.3694 -62.3679 -62.3584 -62.3560
   -62.3440 -62.3231 -35.5372 -35.5322 -35.5270 -35.5157 -35.5098 -35.5071
   -35.5053 -35.4958 -35.4897 -35.4879 -35.4832 -35.4810 -35.4800 -35.4761
   -35.4621 -35.4559 -35.4510 -35.4436 -35.3662 -35.3560 -35.3543 -35.3484
   -35.3310 -35.3186 -35.3075 -35.2891 -35.2839 -31.2401 -31.2303 -31.2220
   -31.2151 -31.2129 -31.2129 -31.2083 -31.2056 -31.2043 -31.2011 -31.2002
   -31.1968 -31.1912 -31.1864 -31.1852 -31.1839 -31.1833 -31.1805 -31.1797
   -31.1783 -31.1722 -31.1613 -31.1599 -31.1558 -31.1492 -31.1470 -31.1430
     5.6118   7.1371   7.1669   7.1864   7.2101   7.3614   7.8596   7.8618
     7.9136   7.9495   8.0719   8.1040   8.1353   8.1638   8.1960   8.2314
     8.2607   8.2882   8.3191   8.5213   8.5319   8.5593   8.5721   8.5930
     8.6078   8.8404   8.8642   8.8644   8.8797   8.8835   8.8880   8.9032
     8.9066   8.9074   8.9140   8.9177   8.9263   8.9492   8.9540   8.9787
     8.9949   9.0822   9.1172   9.1196   9.1225   9.1308   9.1578   9.1621
     9.1785   9.2009   9.2147   9.2675   9.2739   9.3013   9.3138   9.3336
     9.3462   9.3524   9.3647   9.3672   9.3828   9.3864   9.4019   9.4254
     9.4400   9.4414   9.4457   9.4487   9.4533   9.4651   9.5087   9.5659
     9.5745   9.5812   9.5847   9.5879   9.6210   9.6632   9.6676   9.6716
     9.6726   9.6747   9.7059   9.7369   9.7572   9.7799   9.7983   9.8494
     9.8499   9.8929   9.9098   9.9286   9.9521   9.9577  10.0189  10.0392
    10.0932  10.1200  10.1300  10.1568  10.2907  10.2918  10.2930  10.2950
    10.2974  10.2987  10.3018  10.3084  10.3099  10.3233  10.3279  10.3423
    10.3480  10.3496  10.3526  10.3547  10.3550  10.3725  10.3822  10.3824
    10.3997  10.5187  10.5195  10.5731  10.6084  10.6095  10.6308  10.6356
    10.6914  10.7610  10.7838  10.7853  10.7897  10.8212  10.8291  10.8379
    10.8426  10.8526  10.8629  10.8685  10.8721  10.8757  10.8797  10.8951
    10.9002  10.9201  10.9971  11.0373  11.0728  11.1080  11.2016  11.2179
    11.2224  11.2273  11.2553  11.2573  11.2791  11.2939  11.3358  11.3383
    11.3642  11.3649  11.3833  11.3900  11.3992  11.4033  11.4079  11.4114
    11.4184  11.4528  11.5869  11.5874  11.5890  11.5952  11.5979  11.6070
    11.6279  11.6708  11.7204  11.7269  11.7318  11.7399  11.7552  11.7861
    11.8319  11.8478  11.8597  11.8687  11.8769  11.8988  11.9325  11.9375
    11.9629  12.0576  12.0982  12.1007  12.1015  12.1029  12.1042  12.1388
    12.1414  12.1439  12.1441  12.1484  12.1524  12.1717  12.1915  12.2176
    12.2455  12.2593  12.3193  12.3206  12.3443  12.3480  12.3656  12.4032
    12.4055  12.4226  12.4340  12.4340  12.4583  12.4802  12.4872  12.4888
    12.5024  12.5197  12.5282  12.5482  12.5731  12.5821  12.5973  12.6249
    12.6813  12.7030  12.7788  12.7838  12.7882  12.8936  12.9941  13.0599
    13.1104  13.1372  13.2149  13.3168  13.3542  13.6611  13.7109  13.7310
    13.8822  14.0077  14.2352  14.2475  14.3106  14.3404  14.4335  14.4362
    14.7314  14.7740  14.7821  15.0185  15.1176  15.1620  15.2068  15.2569
    15.2653  15.2863  15.3106  15.3368  15.3798  15.4456  15.4874  15.5644
    15.6561  15.6853  15.7068  15.8170  15.8691  15.8850  15.9154  15.9378
    16.0034  16.0620  16.0791  16.1301  16.1358  16.1545  16.1598  16.1673
    16.2569  16.2713  16.2794  16.2961  16.3261  16.3387  16.3779  16.3903
    16.4431  16.4871  16.5189  16.5729  16.6143  16.6734  16.7798  16.8928
    17.0254  17.0465  17.0921  17.1660  17.1902  17.2432  17.2690  17.2846
    17.4353  17.5292  17.8851  17.8982  17.9190  17.9498  17.9514  18.1914
    18.2445  18.3191  18.4477  18.9460  19.0000  19.0035  19.0685  19.1779

          k = 0.0000 0.0000-0.5734 ( 31692 PWs)   bands (ev):

   -66.7853 -66.7638 -66.7440 -66.7399 -66.7315 -66.7271 -66.6119 -66.5823
   -66.5563 -62.4021 -62.3828 -62.3725 -62.3694 -62.3679 -62.3584 -62.3560
   -62.3440 -62.3231 -35.5372 -35.5322 -35.5270 -35.5157 -35.5098 -35.5071
   -35.5053 -35.4958 -35.4897 -35.4879 -35.4832 -35.4810 -35.4800 -35.4761
   -35.4621 -35.4559 -35.4510 -35.4436 -35.3662 -35.3560 -35.3543 -35.3484
   -35.3310 -35.3186 -35.3075 -35.2891 -35.2839 -31.2401 -31.2303 -31.2220
   -31.2151 -31.2129 -31.2129 -31.2083 -31.2056 -31.2043 -31.2011 -31.2002
   -31.1968 -31.1912 -31.1864 -31.1852 -31.1839 -31.1833 -31.1805 -31.1797
   -31.1783 -31.1722 -31.1613 -31.1599 -31.1558 -31.1492 -31.1470 -31.1430
     6.1713   6.1896   7.5361   7.5444   7.5627   7.5819   7.5841   7.5945
     7.6130   7.6197   8.3120   8.3247   8.3256   8.3305   8.3611   8.3662
     8.3672   8.3889   8.4578   8.4590   8.4788   8.4834   8.4943   8.4948
     8.5020   8.5034   8.6995   8.7075   8.7604   8.7774   8.9460   8.9650
     8.9653   8.9746   8.9749   8.9800   8.9812   8.9855   9.0086   9.0175
     9.0224   9.0347   9.0423   9.0540   9.0769   9.0983   9.1867   9.1990
     9.2151   9.2276   9.2412   9.2517   9.2738   9.2776   9.2794   9.2836
     9.2867   9.2875   9.2901   9.3024   9.3024   9.3086   9.4111   9.4128
     9.4259   9.4357   9.4406   9.4411   9.4542   9.4548   9.4574   9.4588
     9.4617   9.4775   9.4922   9.5084   9.5241   9.5422   9.6503   9.6745
     9.7820   9.7840   9.7978   9.8049   9.8064   9.8167   9.8288   9.8346
     9.8718   9.8722   9.8771   9.8787   9.8879   9.8891   9.8910   9.8921
    10.0584  10.0599  10.0600  10.0611  10.1313  10.1440  10.1538  10.1631
    10.1664  10.1833  10.1883  10.1944  10.1974  10.2098  10.3482  10.3501
    10.3682  10.3757  10.4015  10.4079  10.4137  10.4148  10.4753  10.4988
    10.5818  10.5828  10.6112  10.6189  10.6341  10.6513  10.6735  10.6756
    10.6779  10.7031  10.7084  10.7317  10.7409  10.7632  10.7758  10.7935
    10.9581  10.9643  10.9996  11.0199  11.0247  11.0303  11.0492  11.0658
    11.0945  11.1171  11.1279  11.1397  11.1452  11.1491  11.1518  11.1540
    11.2216  11.2309  11.2476  11.2495  11.2591  11.2602  11.2633  11.2667
    11.2721  11.2725  11.2801  11.2824  11.2880  11.2886  11.2961  11.2976
    11.3062  11.3066  11.3190  11.3201  11.5667  11.5868  11.7059  11.7078
    11.7079  11.7154  11.7190  11.7229  11.7291  11.7301  11.7331  11.7500
    11.7594  11.7600  11.7730  11.7734  11.7941  11.8508  11.8548  11.9120
    11.9647  11.9720  11.9795  11.9985  12.0077  12.0247  12.0466  12.0613
    12.1397  12.1660  12.1799  12.2170  12.2648  12.3475  12.3490  12.3640
    12.3930  12.4046  12.4066  12.4272  12.4321  12.4328  12.4374  12.4717
    12.4764  12.4994  12.5159  12.5363  12.5429  12.5718  12.5815  12.6094
    12.6511  12.7125  12.7343  12.7474  12.7603  12.7717  12.8884  12.9319
    12.9345  12.9655  13.0629  13.1013  13.1337  13.1569  13.1660  13.2131
    13.2154  13.2408  13.2446  13.2860  13.3142  13.5733  13.6669  13.7462
    13.9150  13.9954  14.0427  14.0710  14.0751  14.1395  14.2931  14.3890
    14.4692  14.8756  14.9002  14.9411  14.9788  15.0092  15.0646  15.0757
    15.1147  15.2160  15.2738  15.3192  15.3373  15.4178  15.4793  15.5250
    15.5744  15.7004  15.7098  15.7493  15.7791  15.8306  15.8720  16.0369
    16.0648  16.0708  16.0984  16.1369  16.1841  16.1935  16.2055  16.2264
    16.2323  16.2498  16.2574  16.2662  16.2693  16.2820  16.3199  16.3235
    16.3473  16.3593  16.5023  16.5770  16.6011  16.6347  16.7439  16.7963
    16.8643  16.9015  17.2670  17.2916  17.2959  17.3288  17.4526  17.4702
    17.5560  17.6046  17.7178  17.7256  17.7697  17.7706  17.8702  17.8760
    17.9166  17.9208  18.1884  18.2007  18.2327  18.2620  18.2935  18.3373

          k = 0.0000-0.5000 0.0000 ( 31722 PWs)   bands (ev):

   -66.7853 -66.7638 -66.7440 -66.7399 -66.7315 -66.7271 -66.6119 -66.5823
   -66.5563 -62.4021 -62.3828 -62.3725 -62.3694 -62.3679 -62.3584 -62.3560
   -62.3440 -62.3231 -35.5372 -35.5326 -35.5265 -35.5157 -35.5098 -35.5071
   -35.5053 -35.4959 -35.4897 -35.4879 -35.4832 -35.4810 -35.4799 -35.4761
   -35.4619 -35.4559 -35.4511 -35.4436 -35.3662 -35.3560 -35.3543 -35.3484
   -35.3310 -35.3186 -35.3075 -35.2891 -35.2839 -31.2401 -31.2303 -31.2220
   -31.2151 -31.2129 -31.2129 -31.2085 -31.2057 -31.2042 -31.2029 -31.2002
   -31.1936 -31.1912 -31.1866 -31.1863 -31.1839 -31.1826 -31.1805 -31.1798
   -31.1783 -31.1727 -31.1613 -31.1599 -31.1558 -31.1492 -31.1470 -31.1430
     6.0326   6.0472   7.4042   7.4097   7.4704   7.4884   7.6695   7.6767
     8.1080   8.1129   8.1424   8.1729   8.1927   8.2042   8.2611   8.2749
     8.3842   8.3939   8.4759   8.4943   8.6174   8.6237   8.6335   8.6523
     8.6559   8.6718   8.6909   8.7102   8.7876   8.8080   8.8142   8.8217
     8.8324   8.8503   8.8752   8.8859   8.8930   8.8992   8.9094   8.9115
     8.9359   8.9421   8.9470   8.9564   9.0458   9.0505   9.1547   9.1570
     9.1904   9.2056   9.2173   9.2200   9.2279   9.2343   9.3098   9.3149
     9.3508   9.3678   9.3959   9.4172   9.4709   9.4744   9.4792   9.4812
     9.5303   9.5467   9.5623   9.5747   9.5840   9.5939   9.6052   9.6130
     9.6183   9.6281   9.6310   9.6330   9.6376   9.6394   9.6419   9.6460
     9.6467   9.6537   9.6627   9.6645   9.7050   9.7105   9.7111   9.7124
     9.7377   9.7473   9.7623   9.7642   9.8955   9.9003   9.9324   9.9562
    10.0179  10.0329  10.1627  10.1908  10.2085  10.2119  10.2501  10.2536
    10.2699  10.2705  10.2718  10.2757  10.2825  10.2846  10.3460  10.3524
    10.3773  10.3797  10.3812  10.3850  10.4240  10.4305  10.4715  10.4807
    10.4858  10.5066  10.5188  10.5201  10.5255  10.5358  10.5846  10.5898
    10.6593  10.6670  10.6875  10.6976  10.7191  10.7193  10.7399  10.7634
    10.8118  10.8247  10.8344  10.8473  10.8583  10.8623  10.8845  10.8985
    10.9469  10.9567  11.0096  11.0188  11.0706  11.0843  11.1781  11.1846
    11.2786  11.3035  11.3451  11.3467  11.3625  11.3645  11.3996  11.4146
    11.4574  11.4596  11.4695  11.4793  11.4925  11.5121  11.5222  11.5607
    11.5803  11.5893  11.5966  11.6068  11.6607  11.6701  11.6813  11.7361
    11.7507  11.7792  11.7917  11.8016  11.8336  11.8554  11.8622  11.8684
    11.8685  11.8730  11.8809  11.9068  11.9204  11.9224  11.9431  11.9504
    11.9635  11.9822  12.0142  12.0164  12.0840  12.1180  12.1528  12.1553
    12.1601  12.1957  12.2077  12.2172  12.2431  12.2483  12.2504  12.2670
    12.2705  12.2918  12.2985  12.3612  12.3742  12.3815  12.3959  12.4129
    12.4430  12.4452  12.4536  12.4596  12.4750  12.5060  12.5266  12.5503
    12.5818  12.5879  12.6127  12.6736  12.7171  12.7260  12.7464  12.7664
    12.7818  12.8497  12.9027  12.9100  12.9766  13.0290  13.1300  13.1477
    13.1620  13.1697  13.2121  13.2323  13.2573  13.3017  13.3148  13.4148
    13.4346  13.4606  13.5195  13.5677  13.6330  14.3278  14.4988  14.5537
    14.5738  14.7461  14.7715  14.8033  14.8485  14.8667  15.0236  15.0738
    15.0993  15.1006  15.1478  15.2633  15.3224  15.4056  15.4991  15.6702
    15.6838  15.7371  15.7668  15.7854  15.8488  15.8736  15.9407  15.9845
    15.9878  16.0215  16.0418  16.0458  16.0581  16.0719  16.1204  16.1450
    16.1887  16.2007  16.2214  16.2357  16.2503  16.2853  16.3327  16.3668
    16.4285  16.4548  16.7011  16.7121  16.7310  16.8285  16.9209  16.9974
    17.1439  17.2240  17.2772  17.2938  17.5517  17.5667  17.6027  17.6042
    17.7247  17.7485  17.7681  17.7848  17.8029  17.8627  17.9049  17.9269
    17.9925  18.1002  18.1153  18.1792  19.2800  19.3139  19.3465  19.3686

          k = 0.0000-0.5000-0.5734 ( 31696 PWs)   bands (ev):

   -66.7853 -66.7638 -66.7440 -66.7399 -66.7315 -66.7271 -66.6119 -66.5823
   -66.5563 -62.4021 -62.3828 -62.3725 -62.3694 -62.3679 -62.3584 -62.3560
   -62.3440 -62.3231 -35.5372 -35.5326 -35.5265 -35.5157 -35.5098 -35.5071
   -35.5053 -35.4959 -35.4897 -35.4879 -35.4832 -35.4810 -35.4799 -35.4761
   -35.4619 -35.4559 -35.4511 -35.4436 -35.3662 -35.3560 -35.3543 -35.3484
   -35.3310 -35.3186 -35.3075 -35.2891 -35.2839 -31.2401 -31.2303 -31.2220
   -31.2151 -31.2129 -31.2129 -31.2085 -31.2057 -31.2042 -31.2028 -31.2002
   -31.1936 -31.1912 -31.1866 -31.1863 -31.1839 -31.1826 -31.1805 -31.1798
   -31.1783 -31.1727 -31.1613 -31.1599 -31.1558 -31.1492 -31.1470 -31.1430
     6.5525   6.5737   6.5886   6.6019   7.8327   7.8491   7.8647   7.8743
     7.9052   7.9204   7.9217   7.9336   8.2689   8.2718   8.2972   8.2987
     8.5108   8.5152   8.5347   8.5357   8.6564   8.6667   8.6683   8.6809
     8.6918   8.6938   8.7060   8.7067   8.7170   8.7215   8.7498   8.7509
     8.7549   8.7595   8.7956   8.8154   8.9744   8.9958   9.0065   9.0185
     9.0339   9.0392   9.0515   9.0609   9.2004   9.2017   9.2108   9.2167
     9.2175   9.2184   9.2234   9.2288   9.2419   9.2500   9.2560   9.2622
     9.2689   9.2709   9.2816   9.2949   9.3004   9.3023   9.3837   9.3995
     9.4103   9.4209   9.4550   9.4579   9.4642   9.4645   9.4719   9.4848
     9.4979   9.5103   9.5107   9.5180   9.5227   9.5300   9.5391   9.5412
     9.5459   9.5619   9.7546   9.7565   9.7910   9.7928   9.8043   9.8054
     9.8299   9.8376   9.8409   9.8432   9.8636   9.8696   9.8730   9.8900
     9.9661   9.9740   9.9871   9.9982  10.0046  10.0165  10.0661  10.0706
    10.3766  10.3956  10.3991  10.4046  10.4055  10.4072  10.4237  10.4557
    10.4653  10.4656  10.4739  10.4753  10.4883  10.4883  10.4947  10.4984
    10.5087  10.5106  10.5571  10.5593  10.5777  10.6064  10.6279  10.6309
    10.6387  10.6442  10.6634  10.6696  10.6883  10.6913  10.7296  10.7336
    10.7501  10.7767  10.8548  10.8657  10.9527  10.9599  11.0799  11.0904
    11.1099  11.1226  11.1251  11.1320  11.1620  11.1814  11.1964  11.2001
    11.2104  11.2110  11.2916  11.3150  11.3526  11.3604  11.3615  11.3732
    11.3732  11.3761  11.4026  11.4089  11.4790  11.4819  11.4832  11.5053
    11.5118  11.5184  11.5801  11.5829  11.5924  11.5988  11.6163  11.6319
    11.6388  11.6464  11.7243  11.7279  11.7418  11.7949  11.7966  11.8036
    11.9138  11.9169  11.9271  11.9388  11.9451  11.9719  11.9788  12.0079
    12.0309  12.0354  12.0360  12.0382  12.0717  12.0999  12.1065  12.1070
    12.1600  12.1623  12.1739  12.1806  12.2410  12.2572  12.2834  12.2959
    12.3293  12.4020  12.4042  12.4259  12.4272  12.4431  12.4460  12.4540
    12.5033  12.5151  12.5323  12.5617  12.5819  12.6012  12.6013  12.6068
    12.6276  12.6341  12.6424  12.6443  12.6465  12.6667  12.6943  12.7230
    12.7404  12.8047  12.8165  12.8870  12.8974  12.9215  12.9283  12.9487
    13.0525  13.1942  13.4036  13.5389  13.5755  13.6083  13.7838  13.7929
    13.9030  14.0627  14.0909  14.2661  14.2688  14.3177  14.3289  14.4205
    14.4367  14.5246  14.5476  14.5566  14.5773  14.6147  14.6206  14.8971
    14.9004  15.2620  15.2893  15.3399  15.4040  15.4765  15.4815  15.5050
    15.6030  15.7174  15.7822  15.8283  15.8625  15.8747  15.9067  15.9669
    15.9762  16.0627  16.0882  16.1084  16.1229  16.1274  16.1434  16.1813
    16.1856  16.2644  16.2904  16.3136  16.3507  16.3550  16.3936  16.4040
    16.4299  16.5315  16.5531  16.5596  16.6133  16.6233  16.7330  16.7610
    16.8107  16.8228  16.9193  16.9256  16.9729  16.9834  16.9957  17.0329
    17.1067  17.1546  17.1720  17.1935  18.6027  18.6308  18.6589  18.6729
    18.7431  18.7736  18.8526  18.8728  18.8944  18.9157  18.9175  18.9425

          k =-0.5000-0.5000 0.0000 ( 31612 PWs)   bands (ev):

   -66.7853 -66.7638 -66.7440 -66.7399 -66.7315 -66.7271 -66.6119 -66.5823
   -66.5563 -62.4021 -62.3828 -62.3725 -62.3694 -62.3679 -62.3584 -62.3560
   -62.3440 -62.3231 -35.5372 -35.5326 -35.5265 -35.5157 -35.5098 -35.5071
   -35.5053 -35.4959 -35.4897 -35.4879 -35.4832 -35.4810 -35.4799 -35.4761
   -35.4619 -35.4559 -35.4511 -35.4436 -35.3662 -35.3560 -35.3543 -35.3484
   -35.3310 -35.3186 -35.3075 -35.2891 -35.2839 -31.2401 -31.2303 -31.2220
   -31.2151 -31.2129 -31.2129 -31.2085 -31.2057 -31.2042 -31.2028 -31.2002
   -31.1936 -31.1912 -31.1866 -31.1863 -31.1839 -31.1826 -31.1805 -31.1799
   -31.1783 -31.1727 -31.1613 -31.1599 -31.1558 -31.1492 -31.1470 -31.1430
     6.4070   6.4302   6.4543   6.4565   8.0030   8.0095   8.0157   8.0269
     8.0973   8.1091   8.2831   8.3174   8.3270   8.3353   8.3371   8.3430
     8.3456   8.3500   8.3536   8.3573   8.3680   8.3753   8.5865   8.6083
     8.6403   8.6613   8.6789   8.6974   8.7091   8.7156   8.7284   8.7405
     8.7726   8.7775   8.9155   8.9319   8.9536   8.9706   8.9754   8.9757
     8.9826   8.9891   9.0019   9.0044   9.0154   9.0182   9.0317   9.0474
     9.1170   9.1244   9.3018   9.3058   9.3179   9.3265   9.3964   9.4089
     9.4175   9.4230   9.4239   9.4274   9.4299   9.4419   9.4478   9.4507
     9.4615   9.4684   9.4707   9.4762   9.4802   9.4808   9.4863   9.4961
     9.4987   9.5042   9.5131   9.5309   9.5440   9.5580   9.5790   9.5896
     9.6067   9.6089   9.6979   9.6991   9.7566   9.7985   9.8178   9.8316
     9.8322   9.8338   9.8345   9.8418   9.8498   9.8574  10.0419  10.0608
    10.0795  10.0998  10.1096  10.1107  10.1384  10.1443  10.1518  10.1623
    10.1772  10.1906  10.2015  10.2121  10.2206  10.2214  10.2250  10.2274
    10.2283  10.2303  10.2381  10.2475  10.4408  10.4785  10.4918  10.4947
    10.4979  10.5060  10.5261  10.5460  10.6090  10.6243  10.6388  10.6467
    10.6589  10.6616  10.6776  10.6811  10.6831  10.6865  10.6895  10.6964
    10.7018  10.7053  10.8078  10.8114  10.8304  10.8495  10.8650  10.8803
    10.9341  10.9479  11.1974  11.2079  11.2151  11.2165  11.3074  11.3214
    11.3227  11.3367  11.3497  11.3622  11.3864  11.3946  11.5422  11.5594
    11.5710  11.5799  11.6384  11.6436  11.6444  11.6447  11.6462  11.6475
    11.6723  11.6883  11.6893  11.7152  11.7262  11.7286  11.7735  11.7747
    11.8746  11.8748  11.8770  11.8789  11.8853  11.8859  11.9713  11.9954
    12.0052  12.0066  12.0625  12.0656  12.0657  12.1047  12.1081  12.1088
    12.1127  12.1132  12.1142  12.1195  12.1447  12.1448  12.1498  12.1603
    12.1718  12.1778  12.1931  12.2043  12.2170  12.2562  12.2645  12.2659
    12.2748  12.2807  12.2865  12.2883  12.2894  12.2938  12.2947  12.3217
    12.3602  12.3691  12.4377  12.4440  12.4581  12.5028  12.5263  12.5339
    12.5382  12.5468  12.5628  12.5724  12.5796  12.6130  12.6445  12.6563
    12.6574  12.6973  12.7430  12.8069  12.8486  12.8609  12.8905  12.9245
    12.9716  12.9738  13.0133  13.0226  13.1307  13.5449  13.5959  13.6184
    13.6541  13.6812  13.7026  13.9122  13.9423  13.9499  14.1077  14.1454
    14.1609  14.2205  14.4632  14.4826  14.4993  14.5644  14.7378  15.1095
    15.1252  15.1914  15.2105  15.2684  15.3678  15.4020  15.6635  15.7612
    15.7729  15.7986  15.8090  15.8117  15.8783  15.9019  15.9203  15.9648
    15.9815  15.9896  16.0001  16.0132  16.0369  16.0467  16.0644  16.1624
    16.1844  16.2007  16.2903  16.3117  16.3186  16.3231  16.3465  16.4204
    16.4865  16.4899  16.5387  16.6598  16.6717  16.6889  16.6952  16.7273
    16.7808  16.8883  16.9580  16.9790  17.3845  17.3884  17.7982  17.9272
    18.1634  18.1911  18.2048  18.2094  18.2640  18.4159  18.5293  18.5510
    18.6121  18.6363  18.6429  18.6667  18.7348  18.7900  18.7987  18.8032

          k =-0.5000-0.5000-0.5734 ( 31672 PWs)   bands (ev):

   -66.7853 -66.7638 -66.7440 -66.7399 -66.7315 -66.7271 -66.6119 -66.5823
   -66.5563 -62.4021 -62.3828 -62.3725 -62.3694 -62.3679 -62.3584 -62.3560
   -62.3440 -62.3231 -35.5372 -35.5326 -35.5265 -35.5157 -35.5098 -35.5071
   -35.5053 -35.4959 -35.4897 -35.4879 -35.4832 -35.4810 -35.4799 -35.4761
   -35.4619 -35.4559 -35.4511 -35.4436 -35.3662 -35.3560 -35.3543 -35.3484
   -35.3310 -35.3186 -35.3075 -35.2891 -35.2839 -31.2401 -31.2303 -31.2220
   -31.2151 -31.2129 -31.2129 -31.2085 -31.2057 -31.2042 -31.2028 -31.2002
   -31.1936 -31.1912 -31.1866 -31.1863 -31.1839 -31.1826 -31.1805 -31.1799
   -31.1783 -31.1727 -31.1613 -31.1599 -31.1558 -31.1492 -31.1470 -31.1430
     6.8865   6.9153   6.9199   6.9297   6.9933   7.0043   7.0295   7.0467
     8.4502   8.4580   8.4687   8.4752   8.4824   8.4863   8.4888   8.4915
     8.5014   8.5039   8.5155   8.5217   8.5371   8.5400   8.5419   8.5609
     8.5700   8.5716   8.5945   8.6072   8.8771   8.8807   8.8848   8.8863
     8.9068   8.9120   8.9254   8.9308   9.0896   9.1086   9.1102   9.1178
     9.1236   9.1446   9.1466   9.1493   9.1508   9.1543   9.1544   9.1631
     9.1634   9.1677   9.1684   9.1695   9.1720   9.1746   9.1766   9.1815
     9.1830   9.1839   9.1901   9.1909   9.1966   9.2037   9.2061   9.2187
     9.2328   9.2339   9.2403   9.2416   9.2536   9.2585   9.2612   9.2697
     9.5432   9.5441   9.5602   9.5709   9.5771   9.5829   9.6099   9.6144
     9.6475   9.6601   9.6655   9.6779   9.7189   9.7385   9.7538   9.7777
     9.8166   9.8383   9.8446   9.8502   9.8758   9.8772   9.8846   9.8955
    10.1150  10.1260  10.1398  10.1499  10.1657  10.1712  10.1778  10.1786
    10.2910  10.3051  10.4429  10.4510  10.4669  10.4675  10.4732  10.4745
    10.4843  10.4866  10.4912  10.4957  10.4991  10.5023  10.5151  10.5175
    10.5211  10.5280  10.5374  10.5471  10.5606  10.5608  10.5790  10.5843
    10.5976  10.6184  10.6317  10.6410  10.6489  10.6702  10.6781  10.6835
    10.6903  10.6911  10.7006  10.7053  10.7168  10.7207  11.0430  11.0473
    11.0591  11.0665  11.0929  11.0944  11.1096  11.1097  11.3695  11.3697
    11.3966  11.3985  11.4015  11.4255  11.4410  11.4500  11.4659  11.4710
    11.4768  11.4910  11.5006  11.5068  11.5079  11.5159  11.6379  11.6399
    11.6445  11.6467  11.6695  11.6719  11.6860  11.6877  11.7021  11.7229
    11.7245  11.7274  11.7340  11.7436  11.7752  11.7767  11.7844  11.7876
    11.7982  11.8010  11.8123  11.8284  11.8319  11.8399  11.9899  12.0065
    12.0151  12.0500  12.0577  12.0644  12.1036  12.1229  12.1311  12.1390
    12.1646  12.1862  12.2045  12.2171  12.2429  12.2688  12.2858  12.2918
    12.2949  12.3494  12.4028  12.4216  12.4275  12.4365  12.4555  12.4582
    12.4820  12.4836  12.5395  12.5571  12.5653  12.5780  12.5875  12.5932
    12.6193  12.6507  12.6793  12.6846  12.6920  12.7044  12.7155  12.7618
    12.8100  12.8407  12.9554  12.9587  13.0729  13.0818  13.1131  13.1715
    13.2471  13.2874  13.2968  13.3142  13.4113  13.4717  13.5226  13.5418
    13.6236  13.6927  13.8430  13.8704  13.8777  13.9196  14.0747  14.1132
    14.1442  14.1672  14.2284  14.6474  14.7129  14.7489  14.8454  15.0620
    15.0632  15.1756  15.2153  15.4431  15.4445  15.5816  15.6648  15.7007
    15.7021  15.7824  15.8282  15.8330  15.8693  15.9050  15.9196  15.9386
    15.9488  15.9924  16.0689  16.0713  16.1376  16.1828  16.1865  16.2067
    16.2151  16.2195  16.2343  16.2413  16.3472  16.4204  16.4573  16.4959
    16.5170  16.5227  16.5888  16.5980  16.6435  16.6761  16.6818  16.6864
    16.7726  16.8556  16.8698  16.8903  16.8963  16.9328  16.9838  17.0186
    17.0791  17.1051  17.7316  17.8074  17.8531  17.8574  19.0119  19.0178
    19.0504  19.0511  19.0629  19.0950  19.1689  19.2349  19.3004  19.3037

          k =-0.5000 0.0000 0.0000 ( 31722 PWs)   bands (ev):

   -66.7853 -66.7638 -66.7440 -66.7399 -66.7315 -66.7271 -66.6119 -66.5823
   -66.5563 -62.4021 -62.3828 -62.3725 -62.3694 -62.3679 -62.3584 -62.3560
   -62.3440 -62.3231 -35.5372 -35.5322 -35.5270 -35.5157 -35.5098 -35.5071
   -35.5053 -35.4958 -35.4897 -35.4879 -35.4832 -35.4810 -35.4800 -35.4761
   -35.4621 -35.4559 -35.4510 -35.4436 -35.3662 -35.3560 -35.3543 -35.3484
   -35.3310 -35.3186 -35.3075 -35.2891 -35.2839 -31.2401 -31.2303 -31.2220
   -31.2151 -31.2129 -31.2129 -31.2083 -31.2056 -31.2043 -31.2011 -31.2002
   -31.1968 -31.1912 -31.1863 -31.1852 -31.1839 -31.1833 -31.1805 -31.1797
   -31.1783 -31.1722 -31.1613 -31.1599 -31.1558 -31.1492 -31.1470 -31.1430
     6.0222   6.0565   7.4105   7.4495   7.4573   7.4608   7.6607   7.6842
     8.1023   8.1059   8.1299   8.1918   8.2070   8.2305   8.2398   8.2462
     8.3924   8.4448   8.4508   8.4540   8.6258   8.6328   8.6462   8.6534
     8.6663   8.6708   8.6723   8.6972   8.7605   8.7835   8.8142   8.8352
     8.8617   8.8647   8.8774   8.8785   8.9140   8.9161   8.9167   8.9181
     8.9247   8.9274   8.9352   8.9355   9.0353   9.0602   9.1595   9.1842
     9.1909   9.1985   9.2170   9.2206   9.2259   9.2272   9.3160   9.3395
     9.3622   9.3723   9.3795   9.3831   9.4769   9.4808   9.4894   9.5227
     9.5307   9.5312   9.5340   9.5755   9.5867   9.5960   9.6019   9.6048
     9.6106   9.6209   9.6280   9.6311   9.6313   9.6341   9.6358   9.6455
     9.6520   9.6625   9.6723   9.6796   9.6966   9.7143   9.7150   9.7329
     9.7400   9.7426   9.7520   9.7571   9.8970   9.9015   9.9453   9.9691
     9.9963  10.0605  10.1446  10.1853  10.2163  10.2304  10.2473  10.2491
    10.2602  10.2647  10.2680  10.2741  10.2770  10.2798  10.3438  10.3501
    10.3549  10.3710  10.3767  10.3827  10.4291  10.4351  10.4453  10.4517
    10.5251  10.5301  10.5459  10.5554  10.5635  10.5687  10.5788  10.5895
    10.5949  10.6064  10.6634  10.6643  10.7136  10.7274  10.7552  10.7735
    10.7969  10.8092  10.8229  10.8513  10.8639  10.8770  10.8861  10.9073
    10.9841  11.0064  11.0128  11.0211  11.0420  11.0980  11.1682  11.1753
    11.3428  11.3471  11.3485  11.3569  11.3740  11.3828  11.3916  11.3951
    11.4019  11.4167  11.4489  11.4808  11.4930  11.5354  11.5411  11.5432
    11.5650  11.5900  11.6065  11.6171  11.6224  11.6297  11.6786  11.6985
    11.7486  11.7672  11.7845  11.7862  11.8013  11.8146  11.8504  11.8504
    11.9033  11.9076  11.9102  11.9238  11.9367  11.9370  11.9449  11.9598
    11.9746  11.9787  11.9843  12.0139  12.0975  12.1025  12.1606  12.1694
    12.1925  12.1976  12.2060  12.2112  12.2388  12.2476  12.2561  12.2657
    12.2803  12.3309  12.3365  12.3612  12.3626  12.3702  12.3864  12.3932
    12.3954  12.4237  12.4379  12.4479  12.4580  12.4784  12.5186  12.5437
    12.5541  12.5852  12.6136  12.6484  12.6560  12.7483  12.7668  12.9001
    12.9055  12.9435  12.9668  12.9903  13.0228  13.0644  13.0834  13.1441
    13.1511  13.1602  13.1919  13.2033  13.2278  13.2404  13.2732  13.3169
    13.4364  13.4578  13.4778  13.5809  13.6235  14.4953  14.5300  14.5637
    14.6298  14.6911  14.7222  14.7797  14.8009  14.8469  14.8675  15.0063
    15.0136  15.1359  15.2988  15.3087  15.4089  15.4106  15.4580  15.5009
    15.5775  15.7315  15.7721  15.8558  15.8800  15.8840  15.9279  15.9998
    16.0149  16.0160  16.0473  16.0966  16.1053  16.1245  16.1890  16.2015
    16.2280  16.2310  16.2319  16.2733  16.2963  16.3180  16.3355  16.3763
    16.4287  16.4430  16.5238  16.6549  16.7091  16.7853  17.0194  17.0657
    17.1436  17.1913  17.2238  17.2954  17.3529  17.4105  17.6185  17.6254
    17.6771  17.7470  17.8258  17.8296  17.8644  17.8769  17.9141  17.9201
    18.0192  18.0539  18.1228  18.2397  19.2535  19.3056  19.3207  19.3820

          k =-0.5000 0.0000 0.5734 ( 31696 PWs)   bands (ev):

   -66.7853 -66.7638 -66.7440 -66.7399 -66.7315 -66.7271 -66.6119 -66.5823
   -66.5563 -62.4021 -62.3828 -62.3725 -62.3694 -62.3679 -62.3584 -62.3560
   -62.3440 -62.3231 -35.5372 -35.5322 -35.5270 -35.5157 -35.5098 -35.5071
   -35.5053 -35.4958 -35.4897 -35.4879 -35.4832 -35.4810 -35.4800 -35.4761
   -35.4621 -35.4559 -35.4510 -35.4436 -35.3662 -35.3560 -35.3543 -35.3484
   -35.3310 -35.3186 -35.3075 -35.2891 -35.2839 -31.2401 -31.2303 -31.2220
   -31.2151 -31.2129 -31.2129 -31.2083 -31.2056 -31.2043 -31.2011 -31.2002
   -31.1968 -31.1912 -31.1863 -31.1852 -31.1839 -31.1833 -31.1805 -31.1797
   -31.1783 -31.1722 -31.1613 -31.1599 -31.1558 -31.1492 -31.1470 -31.1430
     6.5187   6.5380   6.6264   6.6414   7.8338   7.8463   7.8490   7.8624
     7.9041   7.9137   7.9307   7.9425   8.2687   8.2719   8.2991   8.3006
     8.5168   8.5221   8.5276   8.5290   8.6694   8.6723   8.6799   8.6876
     8.6889   8.6938   8.7079   8.7206   8.7303   8.7313   8.7381   8.7420
     8.7510   8.7749   8.7798   8.7814   8.9477   8.9641   9.0347   9.0415
     9.0433   9.0438   9.0519   9.0542   9.1689   9.1865   9.2104   9.2156
     9.2170   9.2232   9.2331   9.2334   9.2393   9.2407   9.2453   9.2549
     9.2568   9.2574   9.2696   9.2728   9.3220   9.3545   9.3857   9.4043
     9.4148   9.4264   9.4478   9.4540   9.4589   9.4627   9.4653   9.4753
     9.5055   9.5114   9.5146   9.5243   9.5328   9.5401   9.5483   9.5545
     9.5788   9.5941   9.7513   9.7531   9.7965   9.8078   9.8096   9.8134
     9.8212   9.8329   9.8333   9.8401   9.8562   9.8606   9.8608   9.8774
     9.9490   9.9540  10.0102  10.0114  10.0283  10.0363  10.0494  10.0547
    10.3575  10.3654  10.3680  10.3712  10.3895  10.3932  10.4342  10.4365
    10.4426  10.4554  10.4615  10.4641  10.4729  10.5030  10.5179  10.5285
    10.5476  10.5501  10.5592  10.5711  10.5887  10.6060  10.6327  10.6411
    10.6515  10.6548  10.6716  10.6753  10.6888  10.6934  10.7290  10.7327
    10.7520  10.7808  10.8305  10.8402  10.9853  10.9903  11.0061  11.0125
    11.1113  11.1275  11.1509  11.1785  11.1832  11.1855  11.1929  11.1931
    11.2109  11.2111  11.3260  11.3260  11.3334  11.3391  11.3696  11.3828
    11.3836  11.3876  11.4139  11.4450  11.4451  11.4488  11.4859  11.4978
    11.5489  11.5491  11.5626  11.5682  11.5722  11.5752  11.6031  11.6276
    11.6404  11.6430  11.7345  11.7422  11.7512  11.7702  11.7836  11.8780
    11.8850  11.9066  11.9145  11.9185  11.9687  11.9750  11.9975  12.0042
    12.0089  12.0293  12.0324  12.0346  12.0351  12.0385  12.0422  12.0604
    12.1970  12.2175  12.2515  12.2568  12.2719  12.2771  12.3086  12.3314
    12.3355  12.3475  12.3693  12.3750  12.3827  12.4102  12.4438  12.4493
    12.4650  12.4739  12.4908  12.4953  12.5272  12.5355  12.5523  12.5814
    12.5961  12.6450  12.6477  12.6554  12.6643  12.6710  12.6879  12.7422
    12.7744  12.8303  12.8530  12.9391  12.9521  12.9697  12.9762  13.1546
    13.2863  13.2987  13.3928  13.4346  13.5367  13.6750  13.7152  13.8925
    13.9629  14.0153  14.0232  14.0800  14.1153  14.1573  14.1644  14.2011
    14.3048  14.5465  14.5558  14.6530  14.6786  14.7339  14.7763  15.0351
    15.0369  15.2938  15.2964  15.4165  15.4405  15.4475  15.5111  15.5727
    15.5888  15.6150  15.6582  15.6986  15.7356  15.8658  15.8849  15.9483
    15.9765  16.0974  16.1224  16.1699  16.1802  16.2018  16.2142  16.2198
    16.2825  16.2835  16.3017  16.3428  16.3887  16.3974  16.4135  16.4302
    16.4641  16.5384  16.5455  16.5819  16.5936  16.6334  16.6673  16.7243
    16.7639  16.7736  16.8363  16.8381  16.8891  16.8904  16.9511  17.0028
    17.1393  17.1612  17.2019  17.2046  18.6735  18.6781  18.6944  18.7120
    18.7431  18.7653  18.8053  18.8067  18.8685  18.8803  18.9863  19.0046

 ------ SPIN DOWN ----------


          k = 0.0000 0.0000 0.0000 ( 31747 PWs)   bands (ev):

   -66.7688 -66.7226 -66.7008 -66.6936 -66.6718 -66.6355 -66.6179 -66.5964
   -66.5932 -62.4082 -62.4007 -62.3964 -62.3928 -62.3891 -62.3813 -62.3166
   -62.2996 -62.2943 -35.5292 -35.5123 -35.4935 -35.4885 -35.4717 -35.4717
   -35.4637 -35.4432 -35.4377 -35.4376 -35.4352 -35.4287 -35.4146 -35.4048
   -35.4021 -35.3967 -35.3744 -35.3740 -35.3628 -35.3577 -35.3481 -35.3472
   -35.3417 -35.3416 -35.3402 -35.3318 -35.3294 -31.2449 -31.2420 -31.2368
   -31.2330 -31.2323 -31.2267 -31.2257 -31.2255 -31.2245 -31.2203 -31.2163
   -31.2133 -31.2127 -31.2071 -31.2020 -31.1990 -31.1948 -31.1941 -31.1531
   -31.1520 -31.1477 -31.1435 -31.1277 -31.1251 -31.1156 -31.1011 -31.1004
     5.6173   7.1409   7.1650   7.1967   7.2201   7.3666   7.8487   7.8920
     7.9292   7.9404   8.0611   8.1209   8.1374   8.1764   8.1918   8.2404
     8.2625   8.2967   8.3198   8.5110   8.5454   8.5690   8.5806   8.5970
     8.6106   8.8505   8.8555   8.8657   8.8847   8.8874   8.8900   8.8910
     8.9060   8.9083   8.9138   8.9257   8.9323   8.9623   8.9703   8.9862
     9.0085   9.0851   9.1203   9.1245   9.1311   9.1401   9.1520   9.1597
     9.1845   9.2080   9.2104   9.2676   9.2894   9.3028   9.3054   9.3498
     9.3578   9.3648   9.3703   9.3722   9.3911   9.3963   9.4009   9.4294
     9.4410   9.4487   9.4541   9.4557   9.4580   9.4609   9.4931   9.5795
     9.5812   9.5822   9.5896   9.5948   9.6259   9.6675   9.6707   9.6719
     9.6771   9.6787   9.6957   9.7388   9.7534   9.7884   9.8077   9.8504
     9.8524   9.9038   9.9144   9.9397   9.9549   9.9607  10.0256  10.0429
    10.0938  10.1206  10.1339  10.1610  10.2872  10.2884  10.2928  10.2954
    10.3055  10.3069  10.3076  10.3083  10.3186  10.3297  10.3394  10.3419
    10.3435  10.3548  10.3611  10.3647  10.3660  10.3697  10.3850  10.3964
    10.4014  10.5192  10.5205  10.5720  10.6166  10.6224  10.6397  10.6723
    10.6996  10.7859  10.7887  10.7909  10.8121  10.8150  10.8267  10.8311
    10.8448  10.8540  10.8572  10.8755  10.8768  10.8786  10.8798  10.8892
    10.9093  10.9230  11.0034  11.0329  11.0770  11.1093  11.2130  11.2208
    11.2255  11.2272  11.2341  11.2647  11.3238  11.3246  11.3351  11.3503
    11.3614  11.3817  11.3897  11.3910  11.3938  11.4023  11.4113  11.4176
    11.4456  11.4485  11.5150  11.5911  11.5926  11.5952  11.5992  11.5996
    11.6445  11.6687  11.7264  11.7323  11.7440  11.7539  11.7743  11.8332
    11.8447  11.8680  11.8724  11.8770  11.9222  11.9286  11.9426  11.9552
    11.9767  11.9901  12.0610  12.1015  12.1023  12.1049  12.1061  12.1306
    12.1415  12.1439  12.1486  12.1494  12.1562  12.1797  12.2208  12.2343
    12.2509  12.2583  12.2640  12.2641  12.3336  12.3522  12.3943  12.4080
    12.4362  12.4365  12.4502  12.4918  12.5101  12.5120  12.5215  12.5276
    12.5494  12.5652  12.5824  12.5905  12.5925  12.6004  12.6622  12.7085
    12.7170  12.7234  12.7310  12.7509  12.7667  12.8607  13.0922  13.0985
    13.1170  13.1351  13.1999  13.2201  13.3910  13.6439  13.8128  13.8345
    13.8738  14.0329  14.1390  14.1926  14.2789  14.3553  14.3893  14.6829
    14.7608  14.8152  14.8228  14.9799  15.0248  15.0404  15.1560  15.1646
    15.2104  15.3631  15.3673  15.3977  15.4292  15.4567  15.5653  15.6237
    15.6271  15.7255  15.7308  15.7663  15.7674  15.8734  15.8842  16.0147
    16.0240  16.0483  16.1112  16.1115  16.1198  16.1678  16.1829  16.2086
    16.2605  16.2785  16.3093  16.3176  16.3386  16.3512  16.3727  16.3934
    16.4279  16.4682  16.4757  16.6074  16.6215  16.6980  16.7753  16.7975
    16.9677  17.0324  17.0791  17.1651  17.2152  17.2371  17.2910  17.3169
    17.4501  17.5898  17.8501  17.9087  17.9243  17.9324  17.9713  18.1765
    18.2841  18.3300  18.4246  18.9236  18.9494  19.0541  19.1278  19.1753

          k = 0.0000 0.0000-0.5734 ( 31692 PWs)   bands (ev):

   -66.7688 -66.7226 -66.7008 -66.6936 -66.6718 -66.6355 -66.6179 -66.5964
   -66.5932 -62.4082 -62.4007 -62.3964 -62.3928 -62.3891 -62.3813 -62.3166
   -62.2996 -62.2943 -35.5292 -35.5123 -35.4935 -35.4885 -35.4717 -35.4717
   -35.4637 -35.4432 -35.4377 -35.4376 -35.4352 -35.4287 -35.4146 -35.4048
   -35.4021 -35.3967 -35.3744 -35.3740 -35.3628 -35.3577 -35.3481 -35.3472
   -35.3417 -35.3416 -35.3402 -35.3318 -35.3294 -31.2449 -31.2420 -31.2368
   -31.2330 -31.2323 -31.2267 -31.2257 -31.2255 -31.2245 -31.2203 -31.2163
   -31.2133 -31.2127 -31.2071 -31.2020 -31.1990 -31.1948 -31.1941 -31.1531
   -31.1520 -31.1477 -31.1435 -31.1277 -31.1251 -31.1156 -31.1011 -31.1004
     6.1757   6.1972   7.5394   7.5531   7.5665   7.5840   7.5869   7.6021
     7.6192   7.6302   8.3084   8.3251   8.3391   8.3489   8.3615   8.3694
     8.3783   8.3867   8.4524   8.4557   8.4781   8.4783   8.4900   8.5001
     8.5248   8.5254   8.7009   8.7098   8.7618   8.7805   8.9447   8.9647
     8.9659   8.9806   8.9811   8.9871   8.9873   8.9944   9.0086   9.0178
     9.0283   9.0420   9.0439   9.0571   9.0817   9.1066   9.1945   9.2115
     9.2175   9.2326   9.2464   9.2594   9.2730   9.2746   9.2807   9.2853
     9.2897   9.2904   9.2950   9.3045   9.3077   9.3098   9.4104   9.4104
     9.4299   9.4305   9.4373   9.4482   9.4516   9.4551   9.4628   9.4754
     9.4886   9.4954   9.5020   9.5166   9.5276   9.5470   9.6508   9.6794
     9.7884   9.7933   9.7990   9.8051   9.8060   9.8192   9.8274   9.8353
     9.8790   9.8811   9.8814   9.8832   9.8884   9.8908   9.8922   9.8935
    10.0591  10.0611  10.0635  10.0654  10.1393  10.1568  10.1587  10.1695
    10.1718  10.1864  10.1880  10.1933  10.2047  10.2159  10.3593  10.3610
    10.3761  10.3792  10.3930  10.4044  10.4180  10.4209  10.4788  10.5034
    10.5960  10.5970  10.6133  10.6169  10.6228  10.6357  10.6676  10.6721
    10.6723  10.6888  10.7097  10.7444  10.7526  10.7999  10.8014  10.8161
    10.9807  10.9991  10.9991  11.0073  11.0144  11.0198  11.0387  11.0829
    11.0872  11.0996  11.1072  11.1290  11.1502  11.1654  11.2045  11.2166
    11.2378  11.2436  11.2512  11.2512  11.2620  11.2624  11.2718  11.2728
    11.2741  11.2803  11.2813  11.2834  11.2904  11.2906  11.2969  11.2998
    11.3069  11.3088  11.3251  11.3260  11.5591  11.5742  11.7142  11.7148
    11.7159  11.7204  11.7236  11.7244  11.7264  11.7275  11.7347  11.7660
    11.7766  11.7813  11.7884  11.7965  11.8068  11.8227  11.8291  11.9291
    11.9814  11.9886  11.9946  12.0156  12.0276  12.0328  12.0498  12.0719
    12.1314  12.1710  12.1963  12.2343  12.2581  12.3342  12.3480  12.3686
    12.3758  12.4297  12.4360  12.4768  12.4799  12.4820  12.4851  12.4897
    12.4983  12.5048  12.5350  12.5393  12.5454  12.5541  12.5783  12.6452
    12.6569  12.6791  12.6851  12.7711  12.7831  12.8133  12.9220  12.9692
    12.9826  13.0338  13.0518  13.0747  13.1360  13.1608  13.2273  13.2277
    13.2442  13.2742  13.2870  13.3097  13.3229  13.5418  13.6245  13.7276
    13.9081  13.9618  13.9876  14.1180  14.1541  14.1628  14.2980  14.4737
    14.5213  14.8612  14.9011  14.9136  14.9830  14.9985  15.0060  15.1176
    15.1633  15.1671  15.1733  15.3286  15.3650  15.4144  15.4669  15.5493
    15.6577  15.6634  15.6814  15.7686  15.8003  15.8766  15.9511  15.9791
    16.0826  16.0862  16.1158  16.1490  16.1726  16.1848  16.2064  16.2165
    16.2303  16.2456  16.2539  16.2621  16.2728  16.2882  16.2968  16.2999
    16.3240  16.3524  16.5125  16.5877  16.5933  16.6737  16.7103  16.7412
    16.8474  16.8931  17.3219  17.3278  17.3531  17.4032  17.4817  17.5443
    17.5538  17.5651  17.6638  17.6937  17.7117  17.7437  17.8862  17.9058
    17.9179  17.9204  18.1662  18.2337  18.2338  18.2731  18.2984  18.3285

          k = 0.0000-0.5000 0.0000 ( 31722 PWs)   bands (ev):

   -66.7688 -66.7226 -66.7008 -66.6936 -66.6718 -66.6355 -66.6179 -66.5964
   -66.5932 -62.4082 -62.4007 -62.3964 -62.3928 -62.3891 -62.3813 -62.3166
   -62.2996 -62.2943 -35.5292 -35.5123 -35.4935 -35.4885 -35.4717 -35.4717
   -35.4637 -35.4432 -35.4377 -35.4376 -35.4352 -35.4287 -35.4146 -35.4048
   -35.4021 -35.3968 -35.3741 -35.3740 -35.3628 -35.3579 -35.3481 -35.3472
   -35.3416 -35.3416 -35.3402 -35.3319 -35.3294 -31.2465 -31.2398 -31.2371
   -31.2332 -31.2328 -31.2263 -31.2255 -31.2255 -31.2246 -31.2204 -31.2166
   -31.2127 -31.2127 -31.2071 -31.2020 -31.1994 -31.1948 -31.1941 -31.1531
   -31.1520 -31.1477 -31.1435 -31.1277 -31.1251 -31.1156 -31.1011 -31.1004
     6.0353   6.0552   7.4023   7.4289   7.4801   7.4880   7.6766   7.6799
     8.1108   8.1165   8.1550   8.1731   8.1907   8.1972   8.2694   8.2817
     8.3841   8.4195   8.4796   8.4872   8.6197   8.6364   8.6375   8.6547
     8.6576   8.6745   8.6979   8.7064   8.7826   8.8011   8.8156   8.8312
     8.8568   8.8599   8.8730   8.8932   8.9021   8.9099   8.9215   8.9248
     8.9311   8.9369   8.9492   8.9525   9.0506   9.0531   9.1533   9.1686
     9.2025   9.2082   9.2193   9.2259   9.2280   9.2339   9.3147   9.3274
     9.3569   9.3777   9.3984   9.4054   9.4698   9.4776   9.4856   9.4980
     9.5381   9.5585   9.5620   9.5669   9.5873   9.5979   9.6029   9.6170
     9.6260   9.6261   9.6355   9.6378   9.6407   9.6422   9.6444   9.6458
     9.6498   9.6720   9.6791   9.6895   9.6990   9.7050   9.7084   9.7314
     9.7385   9.7617   9.7630   9.7720   9.8976   9.9015   9.9341   9.9574
    10.0199  10.0350  10.1713  10.1925  10.2074  10.2172  10.2452  10.2470
    10.2757  10.2773  10.2780  10.2852  10.2854  10.2880  10.3365  10.3502
    10.3821  10.3852  10.3883  10.3927  10.4354  10.4423  10.4688  10.4742
    10.4909  10.5023  10.5104  10.5361  10.5554  10.5634  10.5848  10.5900
    10.6604  10.6620  10.6761  10.7088  10.7097  10.7456  10.7467  10.7673
    10.8027  10.8070  10.8364  10.8498  10.8593  10.8653  10.9030  10.9301
    10.9576  10.9667  11.0232  11.0420  11.0646  11.0783  11.1750  11.1813
    11.3021  11.3267  11.3461  11.3511  11.3622  11.3673  11.4149  11.4208
    11.4381  11.4631  11.4879  11.4887  11.4904  11.5342  11.5360  11.5634
    11.5702  11.5995  11.6097  11.6110  11.6304  11.6645  11.7333  11.7467
    11.7512  11.7909  11.8172  11.8289  11.8296  11.8523  11.8639  11.8681
    11.8728  11.8777  11.8866  11.9014  11.9138  11.9212  11.9467  11.9536
    11.9679  11.9812  12.0118  12.0140  12.0999  12.1164  12.1544  12.1644
    12.1722  12.1787  12.2046  12.2217  12.2435  12.2505  12.2514  12.2666
    12.2903  12.3029  12.3343  12.3947  12.4001  12.4005  12.4228  12.4459
    12.4615  12.4687  12.4806  12.5096  12.5144  12.5396  12.5435  12.5754
    12.5896  12.5974  12.6081  12.6251  12.6580  12.6624  12.7486  12.7853
    12.8533  12.8816  12.9536  13.0190  13.0302  13.0408  13.0943  13.1335
    13.1647  13.2206  13.2270  13.2491  13.2780  13.2846  13.3151  13.3972
    13.4784  13.4945  13.5642  13.5843  13.6452  14.3356  14.3893  14.4941
    14.4941  14.7519  14.7683  14.8294  14.9147  14.9758  15.0643  15.1171
    15.1228  15.1303  15.1620  15.2833  15.3250  15.4203  15.5389  15.6042
    15.6317  15.7077  15.7495  15.7837  15.8351  15.8430  15.9037  15.9769
    15.9942  16.0127  16.0168  16.0758  16.0975  16.1072  16.1200  16.1332
    16.1678  16.2045  16.2456  16.2507  16.2793  16.2817  16.3189  16.4006
    16.4120  16.5597  16.6282  16.6662  16.7297  16.7536  17.0031  17.0322
    17.1997  17.2182  17.2842  17.2881  17.5042  17.5238  17.6030  17.6224
    17.6880  17.7565  17.7903  17.7909  17.8735  17.9060  17.9067  17.9104
    17.9832  18.0520  18.1167  18.2255  19.3003  19.3210  19.3367  19.3717

          k = 0.0000-0.5000-0.5734 ( 31696 PWs)   bands (ev):

   -66.7688 -66.7226 -66.7008 -66.6936 -66.6718 -66.6355 -66.6179 -66.5964
   -66.5932 -62.4082 -62.4007 -62.3964 -62.3928 -62.3891 -62.3813 -62.3166
   -62.2996 -62.2943 -35.5292 -35.5123 -35.4935 -35.4885 -35.4717 -35.4717
   -35.4637 -35.4432 -35.4377 -35.4376 -35.4352 -35.4287 -35.4146 -35.4048
   -35.4021 -35.3968 -35.3741 -35.3740 -35.3628 -35.3579 -35.3481 -35.3472
   -35.3416 -35.3416 -35.3402 -35.3319 -35.3294 -31.2465 -31.2398 -31.2371
   -31.2332 -31.2328 -31.2263 -31.2255 -31.2255 -31.2246 -31.2204 -31.2166
   -31.2127 -31.2127 -31.2071 -31.2020 -31.1994 -31.1948 -31.1941 -31.1531
   -31.1520 -31.1477 -31.1435 -31.1277 -31.1251 -31.1156 -31.1011 -31.1004
     6.5518   6.5761   6.5984   6.6146   7.8344   7.8590   7.8765   7.8851
     7.9040   7.9175   7.9230   7.9450   8.2725   8.2777   8.3007   8.3043
     8.5074   8.5143   8.5444   8.5481   8.6620   8.6665   8.6722   8.6774
     8.6799   8.6841   8.7077   8.7138   8.7396   8.7404   8.7476   8.7530
     8.7579   8.7764   8.8009   8.8201   8.9726   8.9973   9.0106   9.0230
     9.0351   9.0443   9.0542   9.0669   9.2037   9.2055   9.2106   9.2128
     9.2157   9.2219   9.2246   9.2263   9.2466   9.2496   9.2563   9.2689
     9.2733   9.2735   9.2998   9.3003   9.3082   9.3209   9.3824   9.4017
     9.4161   9.4253   9.4609   9.4646   9.4652   9.4657   9.4673   9.4898
     9.4948   9.5080   9.5152   9.5236   9.5401   9.5450   9.5451   9.5531
     9.5554   9.5791   9.7570   9.7596   9.7913   9.7955   9.8082   9.8101
     9.8443   9.8477   9.8509   9.8527   9.8592   9.8626   9.8670   9.8876
     9.9712   9.9748   9.9959  10.0075  10.0251  10.0293  10.0583  10.0622
    10.3618  10.3799  10.4008  10.4028  10.4122  10.4200  10.4316  10.4612
    10.4673  10.4695  10.4796  10.4820  10.4915  10.4922  10.5052  10.5088
    10.5090  10.5197  10.5663  10.5771  10.6052  10.6083  10.6125  10.6171
    10.6514  10.6551  10.6746  10.6750  10.6854  10.7007  10.7056  10.7274
    10.7666  10.7863  10.8696  10.8828  10.9635  10.9749  11.0789  11.0839
    11.1119  11.1281  11.1329  11.1413  11.1671  11.1925  11.1970  11.2019
    11.2111  11.2131  11.3016  11.3207  11.3533  11.3637  11.3689  11.3719
    11.3747  11.3857  11.3994  11.4154  11.4847  11.4863  11.4870  11.5176
    11.5194  11.5275  11.5717  11.5719  11.5862  11.6017  11.6373  11.6393
    11.6430  11.6449  11.7183  11.7266  11.7358  11.8005  11.8043  11.8157
    11.9178  11.9271  11.9341  11.9523  11.9603  11.9635  11.9820  12.0180
    12.0354  12.0363  12.0405  12.0446  12.0800  12.0937  12.1137  12.1415
    12.1867  12.1920  12.2212  12.2312  12.2423  12.2889  12.2967  12.3205
    12.3647  12.3820  12.4020  12.4402  12.4490  12.4680  12.4846  12.4907
    12.5105  12.5269  12.5437  12.5510  12.5567  12.5600  12.5813  12.5816
    12.5936  12.6009  12.6434  12.6518  12.6641  12.7269  12.7281  12.7799
    12.7960  12.8258  12.8490  12.8847  12.9108  12.9446  12.9884  13.0307
    13.0626  13.2145  13.5427  13.6086  13.6152  13.6319  13.6887  13.7593
    13.8563  13.9953  14.0089  14.1486  14.2460  14.2519  14.2886  14.4879
    14.4887  14.5478  14.5526  14.6146  14.6259  14.7475  14.7649  14.9008
    14.9097  15.2598  15.2899  15.3404  15.3753  15.3817  15.3953  15.5357
    15.6334  15.7981  15.8079  15.8199  15.8452  15.8796  15.9430  15.9573
    16.0069  16.0244  16.0349  16.0378  16.0445  16.1494  16.1808  16.1933
    16.2087  16.2573  16.2889  16.3208  16.3536  16.3594  16.3801  16.4135
    16.4308  16.5840  16.6011  16.6388  16.6579  16.6980  16.7331  16.7429
    16.7557  16.8301  16.8949  16.8983  16.9424  16.9815  16.9918  16.9977
    17.0598  17.1004  17.1983  17.2731  18.5798  18.6085  18.6676  18.6855
    18.8040  18.8270  18.8336  18.8614  18.8943  18.9015  18.9452  18.9481

          k =-0.5000-0.5000 0.0000 ( 31612 PWs)   bands (ev):

   -66.7688 -66.7226 -66.7008 -66.6936 -66.6718 -66.6355 -66.6179 -66.5964
   -66.5932 -62.4082 -62.4007 -62.3964 -62.3928 -62.3891 -62.3813 -62.3166
   -62.2996 -62.2943 -35.5292 -35.5123 -35.4935 -35.4885 -35.4717 -35.4717
   -35.4637 -35.4432 -35.4377 -35.4376 -35.4352 -35.4287 -35.4146 -35.4048
   -35.4021 -35.3968 -35.3741 -35.3740 -35.3628 -35.3579 -35.3481 -35.3472
   -35.3416 -35.3416 -35.3402 -35.3319 -35.3294 -31.2465 -31.2398 -31.2371
   -31.2332 -31.2328 -31.2263 -31.2255 -31.2255 -31.2246 -31.2204 -31.2166
   -31.2127 -31.2127 -31.2071 -31.2020 -31.1994 -31.1948 -31.1941 -31.1531
   -31.1520 -31.1477 -31.1435 -31.1277 -31.1251 -31.1156 -31.1011 -31.1004
     6.4068   6.4211   6.4501   6.4943   8.0124   8.0148   8.0226   8.0261
     8.1000   8.1114   8.2964   8.3082   8.3214   8.3293   8.3369   8.3399
     8.3481   8.3520   8.3582   8.3719   8.3757   8.4151   8.5905   8.6166
     8.6403   8.6605   8.6782   8.7007   8.7138   8.7177   8.7273   8.7376
     8.7668   8.8161   8.9226   8.9383   8.9537   8.9722   8.9779   8.9786
     8.9797   8.9882   8.9975   9.0129   9.0180   9.0336   9.0469   9.0491
     9.1194   9.1278   9.3099   9.3108   9.3208   9.3227   9.4050   9.4087
     9.4135   9.4232   9.4276   9.4310   9.4372   9.4422   9.4479   9.4532
     9.4595   9.4715   9.4765   9.4775   9.4829   9.4917   9.4958   9.5043
     9.5118   9.5158   9.5352   9.5414   9.5469   9.5663   9.5810   9.5938
     9.6042   9.6134   9.7002   9.7010   9.7753   9.7793   9.8210   9.8270
     9.8285   9.8361   9.8441   9.8491   9.8519   9.8874  10.0397  10.0599
    10.0801  10.1071  10.1244  10.1283  10.1419  10.1501  10.1527  10.1638
    10.1748  10.1802  10.2063  10.2150  10.2245  10.2271  10.2291  10.2353
    10.2378  10.2383  10.2417  10.2562  10.4609  10.4753  10.4900  10.4946
    10.4989  10.5033  10.5083  10.5557  10.5940  10.6215  10.6451  10.6498
    10.6585  10.6648  10.6798  10.6868  10.6950  10.7013  10.7081  10.7104
    10.7143  10.7495  10.7856  10.8224  10.8330  10.8410  10.8685  10.8804
    10.9368  10.9509  11.1961  11.2009  11.2195  11.2320  11.3072  11.3233
    11.3324  11.3423  11.3609  11.3682  11.3857  11.3923  11.5309  11.5472
    11.6045  11.6331  11.6373  11.6433  11.6445  11.6499  11.6525  11.6544
    11.7002  11.7023  11.7264  11.7325  11.7339  11.7475  11.7546  11.7596
    11.8700  11.8771  11.8790  11.8817  11.8855  11.8885  11.9425  11.9456
    12.0022  12.0418  12.0665  12.0842  12.0971  12.1047  12.1071  12.1106
    12.1117  12.1154  12.1202  12.1215  12.1452  12.1464  12.1657  12.1730
    12.1977  12.2007  12.2110  12.2270  12.2273  12.2384  12.2576  12.2736
    12.2747  12.2796  12.2904  12.2968  12.2979  12.3072  12.3129  12.3424
    12.3662  12.3819  12.4162  12.4395  12.4819  12.4928  12.5174  12.5298
    12.5398  12.5700  12.5824  12.6063  12.6089  12.6361  12.6630  12.6635
    12.7059  12.8076  12.8445  12.8737  12.8922  12.9290  12.9440  12.9537
    12.9746  12.9991  13.0000  13.0057  13.0290  13.5633  13.5747  13.6763
    13.6781  13.6789  13.7013  13.8623  13.8796  14.0037  14.0568  14.1794
    14.1992  14.2074  14.3456  14.4526  14.5412  14.6869  14.8084  15.0706
    15.1976  15.2165  15.2312  15.2353  15.3768  15.4869  15.5469  15.7184
    15.7422  15.7980  15.7988  15.8799  15.8854  15.9019  15.9186  15.9495
    15.9775  15.9938  16.0140  16.0179  16.0195  16.0796  16.1061  16.1405
    16.1708  16.1796  16.2550  16.2954  16.3306  16.3469  16.4167  16.4462
    16.4716  16.4928  16.5072  16.6651  16.6677  16.6978  16.7095  16.7221
    16.8570  16.8940  16.9114  16.9230  17.3889  17.3913  17.8092  17.9381
    18.1704  18.1954  18.2217  18.2426  18.2954  18.3148  18.4947  18.5717
    18.5758  18.6443  18.6753  18.7141  18.7477  18.7961  18.7976  18.8088

          k =-0.5000-0.5000-0.5734 ( 31672 PWs)   bands (ev):

   -66.7688 -66.7226 -66.7008 -66.6936 -66.6718 -66.6355 -66.6179 -66.5964
   -66.5932 -62.4082 -62.4007 -62.3964 -62.3928 -62.3891 -62.3813 -62.3166
   -62.2996 -62.2943 -35.5292 -35.5123 -35.4935 -35.4885 -35.4717 -35.4717
   -35.4637 -35.4432 -35.4377 -35.4376 -35.4352 -35.4287 -35.4146 -35.4048
   -35.4021 -35.3968 -35.3741 -35.3740 -35.3628 -35.3579 -35.3481 -35.3472
   -35.3416 -35.3416 -35.3402 -35.3319 -35.3294 -31.2465 -31.2398 -31.2371
   -31.2332 -31.2328 -31.2263 -31.2255 -31.2255 -31.2246 -31.2204 -31.2166
   -31.2127 -31.2127 -31.2071 -31.2020 -31.1994 -31.1948 -31.1941 -31.1531
   -31.1520 -31.1477 -31.1435 -31.1277 -31.1251 -31.1156 -31.1011 -31.1004
     6.8833   6.9171   6.9374   6.9457   6.9958   7.0079   7.0296   7.0557
     8.4480   8.4593   8.4792   8.4842   8.4866   8.4898   8.4922   8.4993
     8.5041   8.5085   8.5141   8.5206   8.5392   8.5457   8.5462   8.5666
     8.5760   8.5920   8.5926   8.6015   8.8766   8.8792   8.8864   8.8966
     8.9086   8.9097   8.9372   8.9509   9.0870   9.1072   9.1141   9.1202
     9.1256   9.1466   9.1516   9.1531   9.1606   9.1613   9.1624   9.1650
     9.1661   9.1674   9.1688   9.1727   9.1746   9.1767   9.1789   9.1821
     9.1851   9.1873   9.1906   9.1983   9.2012   9.2122   9.2184   9.2219
     9.2288   9.2343   9.2365   9.2449   9.2534   9.2668   9.2762   9.2900
     9.5443   9.5526   9.5619   9.5737   9.5834   9.5955   9.6156   9.6249
     9.6495   9.6725   9.6778   9.6894   9.7176   9.7372   9.7510   9.7848
     9.8182   9.8375   9.8431   9.8523   9.8767   9.8838   9.8896   9.8980
    10.1061  10.1200  10.1442  10.1546  10.1693  10.1816  10.1939  10.2022
    10.2943  10.3106  10.4493  10.4629  10.4646  10.4665  10.4794  10.4841
    10.4842  10.4909  10.5018  10.5032  10.5107  10.5132  10.5134  10.5140
    10.5203  10.5338  10.5388  10.5634  10.5725  10.5731  10.5814  10.6005
    10.6062  10.6087  10.6175  10.6405  10.6423  10.6638  10.6652  10.6847
    10.6897  10.6932  10.7039  10.7067  10.7325  10.7358  11.0463  11.0519
    11.0657  11.0702  11.0906  11.0999  11.1300  11.1355  11.3836  11.3858
    11.3958  11.3962  11.4059  11.4272  11.4398  11.4446  11.4753  11.4813
    11.4855  11.4921  11.5023  11.5068  11.5198  11.5305  11.6357  11.6411
    11.6449  11.6464  11.6507  11.6519  11.6951  11.7005  11.7053  11.7247
    11.7276  11.7332  11.7389  11.7418  11.7724  11.7787  11.7815  11.8042
    11.8051  11.8186  11.8235  11.8371  11.8453  11.8682  11.9926  12.0171
    12.0334  12.0555  12.0722  12.0799  12.0881  12.1273  12.1511  12.1616
    12.1787  12.2062  12.2279  12.2312  12.2494  12.2872  12.3246  12.3343
    12.3505  12.3988  12.4028  12.4159  12.4192  12.4296  12.4370  12.4669
    12.4782  12.4949  12.5021  12.5318  12.5355  12.5603  12.5752  12.6014
    12.6144  12.6739  12.7004  12.7237  12.7260  12.7590  12.7741  12.8192
    12.9018  12.9273  12.9532  12.9786  13.1041  13.1368  13.1497  13.2436
    13.2640  13.2824  13.2921  13.3320  13.3512  13.3966  13.4844  13.4981
    13.5282  13.7094  13.7909  13.8141  13.8513  13.9738  14.1350  14.1585
    14.2136  14.3015  14.3424  14.6924  14.8091  14.8320  14.8640  14.8924
    14.9602  15.0676  15.1804  15.3139  15.3355  15.6640  15.6769  15.6854
    15.7019  15.7541  15.8007  15.8914  15.9324  15.9627  15.9680  16.0006
    16.0106  16.0212  16.0889  16.1157  16.1437  16.1646  16.1702  16.2210
    16.2212  16.2341  16.2496  16.3177  16.3321  16.3913  16.3937  16.4939
    16.5319  16.5354  16.5600  16.6007  16.6090  16.6381  16.7029  16.7205
    16.7772  16.7850  16.8100  16.8827  16.8902  16.9636  16.9905  17.0005
    17.1257  17.1286  17.7284  17.8082  17.8575  17.8607  19.0056  19.0122
    19.0405  19.0446  19.0797  19.1090  19.1883  19.2238  19.2330  19.3398

          k =-0.5000 0.0000 0.0000 ( 31722 PWs)   bands (ev):

   -66.7688 -66.7226 -66.7008 -66.6936 -66.6718 -66.6355 -66.6179 -66.5964
   -66.5932 -62.4082 -62.4007 -62.3964 -62.3928 -62.3891 -62.3813 -62.3166
   -62.2996 -62.2943 -35.5292 -35.5123 -35.4935 -35.4885 -35.4717 -35.4717
   -35.4637 -35.4432 -35.4377 -35.4376 -35.4352 -35.4287 -35.4146 -35.4048
   -35.4021 -35.3967 -35.3744 -35.3740 -35.3628 -35.3577 -35.3481 -35.3472
   -35.3417 -35.3416 -35.3402 -35.3318 -35.3294 -31.2449 -31.2420 -31.2368
   -31.2330 -31.2323 -31.2267 -31.2257 -31.2255 -31.2245 -31.2203 -31.2163
   -31.2133 -31.2127 -31.2071 -31.2020 -31.1990 -31.1948 -31.1941 -31.1531
   -31.1520 -31.1477 -31.1435 -31.1277 -31.1251 -31.1156 -31.1011 -31.1004
     6.0186   6.0720   7.4250   7.4310   7.4443   7.5002   7.6761   7.6793
     8.0920   8.1137   8.1459   8.1820   8.2092   8.2353   8.2512   8.2641
     8.4058   8.4213   8.4375   8.4940   8.6335   8.6396   8.6413   8.6469
     8.6579   8.6634   8.7054   8.7126   8.7543   8.8072   8.8322   8.8412
     8.8473   8.8692   8.8840   8.8901   8.8970   8.9101   8.9164   8.9212
     8.9247   8.9304   8.9414   8.9629   9.0461   9.0558   9.1661   9.1686
     9.1831   9.2082   9.2220   9.2269   9.2305   9.2496   9.3382   9.3414
     9.3457   9.3545   9.3835   9.4160   9.4717   9.4868   9.4968   9.5047
     9.5219   9.5337   9.5780   9.5806   9.5866   9.6031   9.6103   9.6128
     9.6212   9.6280   9.6300   9.6316   9.6370   9.6390   9.6441   9.6471
     9.6564   9.6623   9.6780   9.6893   9.6970   9.7051   9.7195   9.7230
     9.7302   9.7456   9.7774   9.7857   9.8877   9.9136   9.9448   9.9668
    10.0218  10.0412  10.1379  10.2001  10.2184  10.2300  10.2517  10.2566
    10.2593  10.2611  10.2614  10.2641  10.2928  10.2982  10.3375  10.3515
    10.3614  10.3760  10.3892  10.3941  10.4314  10.4445  10.4510  10.4723
    10.5261  10.5313  10.5372  10.5544  10.5634  10.5703  10.5734  10.5875
    10.6057  10.6527  10.6566  10.6941  10.7040  10.7402  10.7502  10.7756
    10.7859  10.8191  10.8201  10.8575  10.8603  10.8706  10.9015  10.9427
    10.9992  11.0091  11.0155  11.0251  11.0399  11.0824  11.1721  11.1815
    11.3482  11.3504  11.3526  11.3786  11.3790  11.4009  11.4012  11.4136
    11.4215  11.4346  11.4573  11.4790  11.4793  11.5351  11.5413  11.5424
    11.5610  11.5729  11.5833  11.6177  11.6232  11.6479  11.6703  11.7379
    11.7654  11.7845  11.7914  11.8190  11.8526  11.8680  11.8686  11.8727
    11.8938  11.9000  11.9209  11.9250  11.9409  11.9424  11.9551  11.9600
    11.9695  11.9724  11.9877  11.9955  12.0535  12.0921  12.1689  12.1696
    12.1957  12.2074  12.2098  12.2146  12.2289  12.2527  12.2727  12.2829
    12.2879  12.2943  12.3190  12.3220  12.3444  12.4043  12.4107  12.4454
    12.4487  12.4844  12.4869  12.4927  12.5131  12.5400  12.5481  12.5608
    12.5728  12.6095  12.6184  12.6438  12.6554  12.6638  12.7289  12.7986
    12.8666  13.0076  13.0337  13.0680  13.0988  13.1026  13.1149  13.1442
    13.1650  13.1786  13.2023  13.2331  13.2528  13.2832  13.3415  13.3431
    13.3479  13.4664  13.4992  13.5813  13.6340  14.4528  14.4786  14.5743
    14.6433  14.7361  14.7641  14.7689  14.7981  14.9030  14.9487  14.9913
    15.0504  15.0682  15.1129  15.2526  15.4266  15.4643  15.5377  15.6295
    15.7025  15.7677  15.7887  15.7930  15.8009  15.8107  15.8480  16.0176
    16.0197  16.0595  16.0738  16.0840  16.1202  16.1351  16.1579  16.1762
    16.1902  16.2049  16.2439  16.2528  16.2963  16.3194  16.3703  16.4215
    16.4304  16.4977  16.5580  16.6009  16.6565  16.7788  17.0450  17.0723
    17.1382  17.1888  17.2184  17.3241  17.4051  17.4347  17.6160  17.6354
    17.7214  17.7673  17.7709  17.8255  17.8507  17.8710  17.8749  17.9747
    17.9880  18.0021  18.1762  18.2751  19.2293  19.2938  19.3410  19.3842

          k =-0.5000 0.0000 0.5734 ( 31696 PWs)   bands (ev):

   -66.7688 -66.7226 -66.7008 -66.6936 -66.6718 -66.6355 -66.6179 -66.5964
   -66.5932 -62.4082 -62.4007 -62.3964 -62.3928 -62.3891 -62.3813 -62.3166
   -62.2996 -62.2943 -35.5292 -35.5123 -35.4935 -35.4885 -35.4717 -35.4717
   -35.4637 -35.4432 -35.4377 -35.4376 -35.4352 -35.4287 -35.4146 -35.4048
   -35.4021 -35.3967 -35.3744 -35.3740 -35.3628 -35.3577 -35.3481 -35.3472
   -35.3417 -35.3416 -35.3402 -35.3318 -35.3294 -31.2449 -31.2420 -31.2368
   -31.2330 -31.2323 -31.2267 -31.2257 -31.2255 -31.2245 -31.2203 -31.2163
   -31.2133 -31.2127 -31.2071 -31.2020 -31.1990 -31.1948 -31.1941 -31.1531
   -31.1520 -31.1477 -31.1435 -31.1277 -31.1251 -31.1156 -31.1011 -31.1004
     6.5271   6.5491   6.6259   6.6447   7.8342   7.8604   7.8628   7.8689
     7.9093   7.9159   7.9282   7.9511   8.2714   8.2780   8.3019   8.3048
     8.5172   8.5255   8.5328   8.5359   8.6663   8.6725   8.6745   8.6756
     8.6860   8.7014   8.7121   8.7262   8.7310   8.7368   8.7502   8.7536
     8.7563   8.7847   8.7875   8.7900   8.9534   8.9692   9.0370   9.0426
     9.0432   9.0481   9.0569   9.0595   9.1910   9.2062   9.2139   9.2168
     9.2224   9.2292   9.2357   9.2389   9.2437   9.2472   9.2499   9.2576
     9.2604   9.2652   9.2762   9.2795   9.3034   9.3447   9.3829   9.4063
     9.4169   9.4279   9.4520   9.4566   9.4653   9.4670   9.4691   9.4891
     9.5053   9.5192   9.5209   9.5313   9.5316   9.5460   9.5547   9.5603
     9.5818   9.5977   9.7550   9.7571   9.7953   9.8134   9.8176   9.8213
     9.8228   9.8407   9.8460   9.8504   9.8568   9.8618   9.8674   9.8806
     9.9388   9.9452  10.0168  10.0271  10.0333  10.0470  10.0525  10.0533
    10.3601  10.3764  10.3894  10.3918  10.4069  10.4139  10.4317  10.4403
    10.4515  10.4521  10.4723  10.4759  10.4778  10.4814  10.4911  10.5149
    10.5309  10.5637  10.5689  10.5782  10.5798  10.5909  10.6423  10.6497
    10.6561  10.6589  10.6803  10.6828  10.6923  10.7011  10.7138  10.7270
    10.7700  10.7903  10.8617  10.8795  10.9767  10.9876  11.0303  11.0327
    11.1133  11.1206  11.1475  11.1857  11.1922  11.1938  11.1955  11.2071
    11.2123  11.2137  11.2965  11.2987  11.3427  11.3478  11.3689  11.3810
    11.3847  11.3978  11.4219  11.4479  11.4494  11.4527  11.4874  11.4985
    11.5670  11.5706  11.5823  11.5836  11.5920  11.6126  11.6184  11.6215
    11.6239  11.6274  11.7325  11.7461  11.7463  11.7712  11.7832  11.8814
    11.8893  11.9092  11.9267  11.9378  11.9668  11.9950  12.0045  12.0136
    12.0216  12.0269  12.0299  12.0400  12.0419  12.0432  12.0571  12.0903
    12.2248  12.2354  12.2620  12.2748  12.2793  12.2933  12.3066  12.3298
    12.3431  12.3476  12.3663  12.3723  12.4095  12.4404  12.4425  12.4750
    12.4847  12.4967  12.5004  12.5174  12.5527  12.5617  12.5723  12.6108
    12.6158  12.6399  12.6449  12.6537  12.6541  12.7015  12.7390  12.7666
    12.7791  12.8443  12.9322  12.9834  12.9996  13.0425  13.0856  13.1309
    13.2212  13.2590  13.3593  13.4552  13.4718  13.5561  13.6084  13.9165
    13.9578  13.9768  14.0491  14.0788  14.1539  14.2794  14.3090  14.4159
    14.4225  14.5511  14.5606  14.5757  14.6304  14.7531  14.7699  15.0731
    15.0856  15.1356  15.2010  15.3825  15.3941  15.4214  15.4326  15.4734
    15.4819  15.6646  15.7159  15.7299  15.8367  15.9381  15.9689  16.0251
    16.0477  16.0640  16.1045  16.1501  16.1560  16.2206  16.2263  16.2451
    16.2872  16.3088  16.3509  16.3911  16.3933  16.4065  16.4103  16.4241
    16.4281  16.4451  16.4845  16.5699  16.5707  16.6169  16.6944  16.7418
    16.7866  16.8039  16.8397  16.8597  16.9099  16.9662  16.9774  17.0036
    17.0484  17.0712  17.1621  17.2667  18.6655  18.6958  18.7175  18.7534
    18.7810  18.7875  18.8003  18.8457  18.8773  18.8997  18.9162  18.9170

     the Fermi energy is    14.8204 ev

!    total energy              =  -33062.59191423 Ry
     Harris-Foulkes estimate   =  -33062.59189580 Ry
     estimated scf accuracy    <       0.00000057 Ry

     total all-electron energy =  -1410574.682289 Ry

     The total energy is the sum of the following terms:

     one-electron contribution =   -1645.69028915 Ry
     hartree contribution      =    1489.91161895 Ry
     xc contribution           =   -1658.74298917 Ry
     ewald contribution        =   -4919.25534656 Ry
     one-center paw contrib.   =  -26328.81490830 Ry

     total magnetization       =     0.49 Bohr mag/cell
     absolute magnetization    =    78.61 Bohr mag/cell

     convergence has been achieved in  21 iterations

     Writing output data file mnau2.save
 
     init_run     :     52.31s CPU     53.06s WALL (       1 calls)
     electrons    :   3235.01s CPU   3287.96s WALL (       1 calls)

     Called by init_run:
     wfcinit      :     46.49s CPU     46.97s WALL (       1 calls)
     potinit      :      2.48s CPU      2.52s WALL (       1 calls)

     Called by electrons:
     c_bands      :   2893.70s CPU   2936.62s WALL (      21 calls)
     sum_band     :    285.86s CPU    292.07s WALL (      21 calls)
     v_of_rho     :      5.68s CPU      5.85s WALL (      22 calls)
     newd         :     17.84s CPU     20.32s WALL (      22 calls)
     PAW_pot      :     32.71s CPU     33.23s WALL (      22 calls)
     mix_rho      :      1.12s CPU      1.20s WALL (      21 calls)

     Called by c_bands:
     init_us_2    :     10.49s CPU     10.54s WALL (     688 calls)
     cegterg      :   2828.24s CPU   2870.19s WALL (     336 calls)

     Called by sum_band:
     sum_band:bec :      1.63s CPU      1.64s WALL (     336 calls)
     addusdens    :     31.48s CPU     34.46s WALL (      21 calls)

     Called by *egterg:
     h_psi        :    975.12s CPU    984.97s WALL (    1390 calls)
     s_psi        :    237.11s CPU    237.46s WALL (    1390 calls)
     g_psi        :      3.69s CPU      3.70s WALL (    1038 calls)
     cdiaghg      :   1051.70s CPU   1052.20s WALL (    1374 calls)

     Called by h_psi:
     h_psi:pot    :    965.62s CPU    975.42s WALL (    1390 calls)
     h_psi:calbec :    238.69s CPU    240.90s WALL (    1390 calls)
     vloc_psi     :    487.46s CPU    494.83s WALL (    1390 calls)
     add_vuspsi   :    239.45s CPU    239.68s WALL (    1390 calls)

     General routines
     calbec       :    339.61s CPU    342.80s WALL (    1726 calls)
     fft          :      4.83s CPU      5.17s WALL (     672 calls)
     ffts         :      0.11s CPU      0.12s WALL (      86 calls)
     fftw         :    457.09s CPU    463.85s WALL (  757234 calls)
     interpolate  :      0.81s CPU      0.87s WALL (      86 calls)
 
     Parallel routines
     fft_scatt_xy :     57.83s CPU     58.49s WALL (  757992 calls)
     fft_scatt_yz :    116.15s CPU    119.32s WALL (  757992 calls)
 
     PWSCF        : 54m52.90s CPU    56m38.98s WALL

 
   This run was terminated on:  12:22:19   6Mar2019            

=------------------------------------------------------------------------------=
   JOB DONE.
=------------------------------------------------------------------------------=
