
     Program PWSCF v.6.2 (svn rev. 14038) starts on  6Mar2019 at 17:10: 7 

     This program is part of the open-source Quantum ESPRESSO suite
     for quantum simulation of materials; please cite
         "P. Giannozzi et al., J. Phys.:Condens. Matter 21 395502 (2009);
         "P. Giannozzi et al., J. Phys.:Condens. Matter 29 465901 (2017);
          URL http://www.quantum-espresso.org", 
     in publications or presentations arising from this work. More details at
     http://www.quantum-espresso.org/quote

     Parallel version (MPI), running on    16 processors

     MPI processes distributed on     1 nodes
     R & G space division:  proc/nbgrp/npool/nimage =      16
     Waiting for input...
     Reading input from standard input

     Current dimensions of program PWSCF are:
     Max number of different atomic species (ntypx) = 10
     Max number of k-points (npk) =  40000
     Max angular momentum in pseudopotentials (lmaxx) =  3
               file Mn.pbe-spn-kjpaw_psl.0.3.1.UPF: wavefunction(s)  3P 3D renormalized
               file Mn.pbe-spn-kjpaw_psl.0.3.1.UPF: wavefunction(s)  3P 3D renormalized
               file Au.pbe-dn-kjpaw_psl.0.1.UPF: wavefunction(s)  6S 6P 5D renormalized

     Subspace diagonalization in iterative solution of the eigenvalue problem:
     a serial algorithm will be used

 
     Parallelization info
     --------------------
     sticks:   dense  smooth     PW     G-vecs:    dense   smooth      PW
     Min         736     331     90                52486    15847    2256
     Max         737     332     91                52489    15850    2259
     Sum       11785    5297   1449               839803   253559   36125
 


     bravais-lattice index     =            0
     lattice parameter (alat)  =      19.2459  a.u.
     unit-cell volume          =    6216.1497 (a.u.)^3
     number of atoms/cell      =           54
     number of atomic types    =            3
     number of electrons       =       666.00
     number of Kohn-Sham states=          400
     kinetic-energy cutoff     =      45.0000  Ry
     charge density cutoff     =     400.0000  Ry
     convergence threshold     =      1.0E-06
     mixing beta               =       0.1000
     number of iterations used =            8  plain     mixing
     Exchange-correlation      = SLA PW PBX PBC ( 1  4  3  4 0 0)

     celldm(1)=  19.245946  celldm(2)=   0.000000  celldm(3)=   0.000000
     celldm(4)=   0.000000  celldm(5)=   0.000000  celldm(6)=   0.000000

     crystal axes: (cart. coord. in units of alat)
               a(1) = (   1.000000   0.000000   0.000000 )  
               a(2) = (   0.000000   1.000000   0.000000 )  
               a(3) = (   0.000000   0.000000   0.871974 )  

     reciprocal axes: (cart. coord. in units 2 pi/alat)
               b(1) = (  1.000000  0.000000  0.000000 )  
               b(2) = (  0.000000  1.000000  0.000000 )  
               b(3) = (  0.000000  0.000000  1.146823 )  


     PseudoPot. # 1 for Mn read from file:
     ./pseudo/Mn.pbe-spn-kjpaw_psl.0.3.1.UPF
     MD5 check sum: 7eef95dd2aae66803482eea66ebeebf1
     Pseudo is Projector augmented-wave + core cor, Zval = 15.0
     Generated using "atomic" code by A. Dal Corso v.5.0.99 svn rev. 10869
     Shape of augmentation charge: PSQ
     Using radial grid of 1187 points,  6 beta functions with: 
                l(1) =   0
                l(2) =   0
                l(3) =   1
                l(4) =   1
                l(5) =   2
                l(6) =   2
     Q(r) pseudized with 0 coefficients 


     PseudoPot. # 2 for Mn read from file:
     ./pseudo/Mn.pbe-spn-kjpaw_psl.0.3.1.UPF
     MD5 check sum: 7eef95dd2aae66803482eea66ebeebf1
     Pseudo is Projector augmented-wave + core cor, Zval = 15.0
     Generated using "atomic" code by A. Dal Corso v.5.0.99 svn rev. 10869
     Shape of augmentation charge: PSQ
     Using radial grid of 1187 points,  6 beta functions with: 
                l(1) =   0
                l(2) =   0
                l(3) =   1
                l(4) =   1
                l(5) =   2
                l(6) =   2
     Q(r) pseudized with 0 coefficients 


     PseudoPot. # 3 for Au read from file:
     ./pseudo/Au.pbe-dn-kjpaw_psl.0.1.UPF
     MD5 check sum: 5c9b92683623e7ae2ab3f8e525febab6
     Pseudo is Projector augmented-wave + core cor, Zval = 11.0
     Generated using "atomic" code by A. Dal Corso v.5.0.2 svn rev. 9415
     Shape of augmentation charge: PSQ
     Using radial grid of 1279 points,  6 beta functions with: 
                l(1) =   0
                l(2) =   0
                l(3) =   1
                l(4) =   1
                l(5) =   2
                l(6) =   2
     Q(r) pseudized with 0 coefficients 


     atomic species   valence    mass     pseudopotential
        Mn1           15.00    54.93800     Mn( 1.00)
        Mn2           15.00    54.93800     Mn( 1.00)
        Au            11.00   196.96600     Au( 1.00)

     Starting magnetic structure 
     atomic species   magnetization
        Mn1          0.800
        Mn2         -0.800
        Au           0.000

      2 Sym. Ops. (no inversion) found



   Cartesian axes

     site n.     atom                  positions (alat units)
         1           Mn1 tau(   1) = (   0.0000000   0.0000000   0.0000000  )
         2           Mn1 tau(   2) = (   0.0000000   0.3333300   0.0000000  )
         3           Mn2 tau(   3) = (   0.0000000   0.6666700   0.0000000  )
         4           Mn1 tau(   4) = (   0.3333300   0.0000000   0.0000000  )
         5           Mn1 tau(   5) = (   0.3333300   0.3333300   0.0000000  )
         6           Mn1 tau(   6) = (   0.3333300   0.6666700   0.0000000  )
         7           Mn1 tau(   7) = (   0.6666700   0.0000000   0.0000000  )
         8           Mn2 tau(   8) = (   0.6666700   0.3333300   0.0000000  )
         9           Mn1 tau(   9) = (   0.6666700   0.6666700   0.0000000  )
        10           Mn2 tau(  10) = (   0.1666700   0.1666700   0.4359871  )
        11           Mn2 tau(  11) = (   0.1666700   0.5000000   0.4359871  )
        12           Mn1 tau(  12) = (   0.1666700   0.8333300   0.4359871  )
        13           Mn2 tau(  13) = (   0.5000000   0.1666700   0.4359871  )
        14           Mn2 tau(  14) = (   0.5000000   0.5000000   0.4359871  )
        15           Mn2 tau(  15) = (   0.5000000   0.8333300   0.4359871  )
        16           Mn2 tau(  16) = (   0.8333300   0.1666700   0.4359871  )
        17           Mn1 tau(  17) = (   0.8333300   0.5000000   0.4359871  )
        18           Mn2 tau(  18) = (   0.8333300   0.8333300   0.4359871  )
        19           Au  tau(  19) = (   0.1666700   0.1666700   0.7327374  )
        20           Au  tau(  20) = (   0.1666700   0.5000000   0.7327374  )
        21           Au  tau(  21) = (   0.1666700   0.8333300   0.7327374  )
        22           Au  tau(  22) = (   0.5000000   0.1666700   0.7327374  )
        23           Au  tau(  23) = (   0.5000000   0.5000000   0.7327374  )
        24           Au  tau(  24) = (   0.5000000   0.8333300   0.7327374  )
        25           Au  tau(  25) = (   0.8333300   0.1666700   0.7327374  )
        26           Au  tau(  26) = (   0.8333300   0.5000000   0.7327374  )
        27           Au  tau(  27) = (   0.8333300   0.8333300   0.7327374  )
        28           Au  tau(  28) = (   0.1666700   0.1666700   0.1392369  )
        29           Au  tau(  29) = (   0.1666700   0.5000000   0.1392369  )
        30           Au  tau(  30) = (   0.1666700   0.8333300   0.1392369  )
        31           Au  tau(  31) = (   0.5000000   0.1666700   0.1392369  )
        32           Au  tau(  32) = (   0.5000000   0.5000000   0.1392369  )
        33           Au  tau(  33) = (   0.5000000   0.8333300   0.1392369  )
        34           Au  tau(  34) = (   0.8333300   0.1666700   0.1392369  )
        35           Au  tau(  35) = (   0.8333300   0.5000000   0.1392369  )
        36           Au  tau(  36) = (   0.8333300   0.8333300   0.1392369  )
        37           Au  tau(  37) = (   0.0000000   0.0000000   0.2967503  )
        38           Au  tau(  38) = (   0.0000000   0.3333300   0.2967503  )
        39           Au  tau(  39) = (   0.0000000   0.6666700   0.2967503  )
        40           Au  tau(  40) = (   0.3333300   0.0000000   0.2967503  )
        41           Au  tau(  41) = (   0.3333300   0.3333300   0.2967503  )
        42           Au  tau(  42) = (   0.3333300   0.6666700   0.2967503  )
        43           Au  tau(  43) = (   0.6666700   0.0000000   0.2967503  )
        44           Au  tau(  44) = (   0.6666700   0.3333300   0.2967503  )
        45           Au  tau(  45) = (   0.6666700   0.6666700   0.2967503  )
        46           Au  tau(  46) = (   0.0000000   0.0000000   0.5752240  )
        47           Au  tau(  47) = (   0.0000000   0.3333300   0.5752240  )
        48           Au  tau(  48) = (   0.0000000   0.6666700   0.5752240  )
        49           Au  tau(  49) = (   0.3333300   0.0000000   0.5752240  )
        50           Au  tau(  50) = (   0.3333300   0.3333300   0.5752240  )
        51           Au  tau(  51) = (   0.3333300   0.6666700   0.5752240  )
        52           Au  tau(  52) = (   0.6666700   0.0000000   0.5752240  )
        53           Au  tau(  53) = (   0.6666700   0.3333300   0.5752240  )
        54           Au  tau(  54) = (   0.6666700   0.6666700   0.5752240  )

     number of k points=     8 (tetrahedron method)
                       cart. coord. in units 2pi/alat
        k(    1) = (   0.0000000   0.0000000   0.0000000), wk =   0.1250000
        k(    2) = (   0.0000000   0.0000000  -0.5734114), wk =   0.1250000
        k(    3) = (   0.0000000  -0.5000000   0.0000000), wk =   0.1250000
        k(    4) = (   0.0000000  -0.5000000  -0.5734114), wk =   0.1250000
        k(    5) = (  -0.5000000  -0.5000000   0.0000000), wk =   0.1250000
        k(    6) = (  -0.5000000  -0.5000000  -0.5734114), wk =   0.1250000
        k(    7) = (  -0.5000000   0.0000000   0.0000000), wk =   0.1250000
        k(    8) = (  -0.5000000   0.0000000   0.5734114), wk =   0.1250000

     Dense  grid:   839803 G-vectors     FFT dimensions: ( 125, 125, 108)

     Smooth grid:   253559 G-vectors     FFT dimensions: (  90,  90,  72)

     Estimated max dynamical RAM per process >     570.13 MB

     Estimated total dynamical RAM >       8.91 GB
     Generating pointlists ...
     new r_m :   0.1129 (alat units)  2.1733 (a.u.) for type    1
     new r_m :   0.1129 (alat units)  2.1733 (a.u.) for type    2
     new r_m :   0.1129 (alat units)  2.1733 (a.u.) for type    3

     Check: negative/imaginary core charge=   -0.000006    0.000000

     Initial potential from superposition of free atoms

     starting charge  665.98709, renormalised to  666.00000
     Starting wfc are  504 randomized atomic wfcs
     Checking if some PAW data can be deallocated... 

     total cpu time spent up to now is       56.6 secs

     Self-consistent Calculation

     iteration #  1     ecut=    45.00 Ry     beta= 0.10
     Davidson diagonalization with overlap
     ethr =  1.00E-02,  avg # of iterations =  3.5

     total cpu time spent up to now is      223.3 secs

     total energy              =  -33047.19759068 Ry
     Harris-Foulkes estimate   =  -33044.04323013 Ry
     estimated scf accuracy    <      27.03387158 Ry

     total magnetization       =     0.00 Bohr mag/cell
     absolute magnetization    =    92.08 Bohr mag/cell

     iteration #  2     ecut=    45.00 Ry     beta= 0.10
     Davidson diagonalization with overlap
     ethr =  4.06E-03,  avg # of iterations =  1.0

     total cpu time spent up to now is      332.0 secs

     total energy              =  -33058.58330572 Ry
     Harris-Foulkes estimate   =  -33047.37621496 Ry
     estimated scf accuracy    <      21.37542091 Ry

     total magnetization       =     0.00 Bohr mag/cell
     absolute magnetization    =    91.66 Bohr mag/cell

     iteration #  3     ecut=    45.00 Ry     beta= 0.10
     Davidson diagonalization with overlap
     ethr =  3.21E-03,  avg # of iterations =  2.3

     total cpu time spent up to now is      468.6 secs

     total energy              =  -33066.28969551 Ry
     Harris-Foulkes estimate   =  -33061.37739710 Ry
     estimated scf accuracy    <       8.77753974 Ry

     total magnetization       =    -0.02 Bohr mag/cell
     absolute magnetization    =    85.55 Bohr mag/cell

     iteration #  4     ecut=    45.00 Ry     beta= 0.10
     Davidson diagonalization with overlap
     ethr =  1.32E-03,  avg # of iterations =  3.8

     total cpu time spent up to now is      667.3 secs

     total energy              =  -33058.69217969 Ry
     Harris-Foulkes estimate   =  -33069.04069091 Ry
     estimated scf accuracy    <      53.45193317 Ry

     total magnetization       =    -0.44 Bohr mag/cell
     absolute magnetization    =    71.38 Bohr mag/cell

     iteration #  5     ecut=    45.00 Ry     beta= 0.10
     Davidson diagonalization with overlap
     ethr =  1.32E-03,  avg # of iterations =  4.9

     total cpu time spent up to now is      914.4 secs

     total energy              =  -33061.92858357 Ry
     Harris-Foulkes estimate   =  -33062.61200768 Ry
     estimated scf accuracy    <       3.64882142 Ry

     total magnetization       =    -0.07 Bohr mag/cell
     absolute magnetization    =    83.47 Bohr mag/cell

     iteration #  6     ecut=    45.00 Ry     beta= 0.10
     Davidson diagonalization with overlap
     ethr =  5.48E-04,  avg # of iterations =  3.8

     total cpu time spent up to now is     1084.3 secs

     total energy              =  -33062.57909877 Ry
     Harris-Foulkes estimate   =  -33062.62282024 Ry
     estimated scf accuracy    <       0.46226959 Ry

     total magnetization       =     0.04 Bohr mag/cell
     absolute magnetization    =    79.35 Bohr mag/cell

     iteration #  7     ecut=    45.00 Ry     beta= 0.10
     Davidson diagonalization with overlap
     ethr =  6.94E-05,  avg # of iterations =  2.2

     total cpu time spent up to now is     1212.8 secs

     total energy              =  -33062.63052426 Ry
     Harris-Foulkes estimate   =  -33062.61378273 Ry
     estimated scf accuracy    <       0.10019454 Ry

     total magnetization       =     0.01 Bohr mag/cell
     absolute magnetization    =    79.03 Bohr mag/cell

     iteration #  8     ecut=    45.00 Ry     beta= 0.10
     Davidson diagonalization with overlap
     ethr =  1.50E-05,  avg # of iterations =  4.2

     total cpu time spent up to now is     1379.4 secs

     total energy              =  -33062.60595308 Ry
     Harris-Foulkes estimate   =  -33062.64432591 Ry
     estimated scf accuracy    <       0.27969752 Ry

     total magnetization       =     0.02 Bohr mag/cell
     absolute magnetization    =    78.50 Bohr mag/cell

     iteration #  9     ecut=    45.00 Ry     beta= 0.10
     Davidson diagonalization with overlap
     ethr =  1.50E-05,  avg # of iterations =  2.1

     total cpu time spent up to now is     1504.0 secs

     total energy              =  -33062.61151389 Ry
     Harris-Foulkes estimate   =  -33062.61751527 Ry
     estimated scf accuracy    <       0.06191008 Ry

     total magnetization       =     0.01 Bohr mag/cell
     absolute magnetization    =    78.74 Bohr mag/cell

     iteration # 10     ecut=    45.00 Ry     beta= 0.10
     Davidson diagonalization with overlap
     ethr =  9.30E-06,  avg # of iterations =  2.7

     total cpu time spent up to now is     1636.1 secs

     total energy              =  -33062.61370642 Ry
     Harris-Foulkes estimate   =  -33062.61570770 Ry
     estimated scf accuracy    <       0.00968167 Ry

     total magnetization       =     0.00 Bohr mag/cell
     absolute magnetization    =    78.79 Bohr mag/cell

     iteration # 11     ecut=    45.00 Ry     beta= 0.10
     Davidson diagonalization with overlap
     ethr =  1.45E-06,  avg # of iterations =  5.9

     total cpu time spent up to now is     1849.3 secs

     total energy              =  -33062.61693684 Ry
     Harris-Foulkes estimate   =  -33062.61631902 Ry
     estimated scf accuracy    <       0.00334963 Ry

     total magnetization       =     0.00 Bohr mag/cell
     absolute magnetization    =    79.09 Bohr mag/cell

     iteration # 12     ecut=    45.00 Ry     beta= 0.10
     Davidson diagonalization with overlap
     ethr =  5.03E-07,  avg # of iterations =  2.8

     total cpu time spent up to now is     1984.9 secs

     total energy              =  -33062.61789357 Ry
     Harris-Foulkes estimate   =  -33062.61720002 Ry
     estimated scf accuracy    <       0.00291065 Ry

     total magnetization       =     0.00 Bohr mag/cell
     absolute magnetization    =    78.99 Bohr mag/cell

     iteration # 13     ecut=    45.00 Ry     beta= 0.10
     Davidson diagonalization with overlap
     ethr =  4.37E-07,  avg # of iterations =  1.8

     total cpu time spent up to now is     2102.8 secs

     total energy              =  -33062.61826419 Ry
     Harris-Foulkes estimate   =  -33062.61787293 Ry
     estimated scf accuracy    <       0.00050458 Ry

     total magnetization       =     0.00 Bohr mag/cell
     absolute magnetization    =    78.89 Bohr mag/cell

     iteration # 14     ecut=    45.00 Ry     beta= 0.10
     Davidson diagonalization with overlap
     ethr =  7.58E-08,  avg # of iterations =  3.1

     total cpu time spent up to now is     2260.7 secs

     total energy              =  -33062.61835344 Ry
     Harris-Foulkes estimate   =  -33062.61822018 Ry
     estimated scf accuracy    <       0.00014746 Ry

     total magnetization       =     0.00 Bohr mag/cell
     absolute magnetization    =    78.81 Bohr mag/cell

     iteration # 15     ecut=    45.00 Ry     beta= 0.10
     Davidson diagonalization with overlap
     ethr =  2.21E-08,  avg # of iterations =  2.3

     total cpu time spent up to now is     2386.4 secs

     total energy              =  -33062.61848922 Ry
     Harris-Foulkes estimate   =  -33062.61834002 Ry
     estimated scf accuracy    <       0.00009360 Ry

     total magnetization       =     0.00 Bohr mag/cell
     absolute magnetization    =    78.80 Bohr mag/cell

     iteration # 16     ecut=    45.00 Ry     beta= 0.10
     Davidson diagonalization with overlap
     ethr =  1.41E-08,  avg # of iterations =  2.1

     total cpu time spent up to now is     2513.7 secs

     total energy              =  -33062.61855922 Ry
     Harris-Foulkes estimate   =  -33062.61845478 Ry
     estimated scf accuracy    <       0.00004401 Ry

     total magnetization       =     0.00 Bohr mag/cell
     absolute magnetization    =    78.78 Bohr mag/cell

     iteration # 17     ecut=    45.00 Ry     beta= 0.10
     Davidson diagonalization with overlap
     ethr =  6.61E-09,  avg # of iterations =  3.0

     total cpu time spent up to now is     2691.6 secs

     total energy              =  -33062.61854281 Ry
     Harris-Foulkes estimate   =  -33062.61852158 Ry
     estimated scf accuracy    <       0.00001224 Ry

     total magnetization       =    -0.00 Bohr mag/cell
     absolute magnetization    =    78.76 Bohr mag/cell

     iteration # 18     ecut=    45.00 Ry     beta= 0.10
     Davidson diagonalization with overlap
     ethr =  1.84E-09,  avg # of iterations =  2.4

     total cpu time spent up to now is     2826.6 secs

     total energy              =  -33062.61853393 Ry
     Harris-Foulkes estimate   =  -33062.61852214 Ry
     estimated scf accuracy    <       0.00000488 Ry

     total magnetization       =     0.00 Bohr mag/cell
     absolute magnetization    =    78.75 Bohr mag/cell

     iteration # 19     ecut=    45.00 Ry     beta= 0.10
     Davidson diagonalization with overlap
     ethr =  7.32E-10,  avg # of iterations =  3.0

     total cpu time spent up to now is     2986.0 secs

     total energy              =  -33062.61851755 Ry
     Harris-Foulkes estimate   =  -33062.61851093 Ry
     estimated scf accuracy    <       0.00000206 Ry

     total magnetization       =    -0.00 Bohr mag/cell
     absolute magnetization    =    78.74 Bohr mag/cell

     iteration # 20     ecut=    45.00 Ry     beta= 0.10
     Davidson diagonalization with overlap
     ethr =  3.09E-10,  avg # of iterations =  2.0

     total cpu time spent up to now is     3113.7 secs

     total energy              =  -33062.61851304 Ry
     Harris-Foulkes estimate   =  -33062.61850862 Ry
     estimated scf accuracy    <       0.00002491 Ry

     total magnetization       =    -0.00 Bohr mag/cell
     absolute magnetization    =    78.75 Bohr mag/cell

     iteration # 21     ecut=    45.00 Ry     beta= 0.10
     Davidson diagonalization with overlap
     ethr =  3.09E-10,  avg # of iterations =  2.0

     total cpu time spent up to now is     3235.4 secs

     total energy              =  -33062.61851621 Ry
     Harris-Foulkes estimate   =  -33062.61851232 Ry
     estimated scf accuracy    <       0.00002542 Ry

     total magnetization       =    -0.00 Bohr mag/cell
     absolute magnetization    =    78.75 Bohr mag/cell

     iteration # 22     ecut=    45.00 Ry     beta= 0.10
     Davidson diagonalization with overlap
     ethr =  3.09E-10,  avg # of iterations =  2.0

     total cpu time spent up to now is     3356.9 secs

     total energy              =  -33062.61852107 Ry
     Harris-Foulkes estimate   =  -33062.61851837 Ry
     estimated scf accuracy    <       0.00002397 Ry

     total magnetization       =    -0.00 Bohr mag/cell
     absolute magnetization    =    78.75 Bohr mag/cell

     iteration # 23     ecut=    45.00 Ry     beta= 0.10
     Davidson diagonalization with overlap
     ethr =  3.09E-10,  avg # of iterations =  2.0

     total cpu time spent up to now is     3478.4 secs

     total energy              =  -33062.61852776 Ry
     Harris-Foulkes estimate   =  -33062.61852521 Ry
     estimated scf accuracy    <       0.00002303 Ry

     total magnetization       =    -0.00 Bohr mag/cell
     absolute magnetization    =    78.75 Bohr mag/cell

     iteration # 24     ecut=    45.00 Ry     beta= 0.10
     Davidson diagonalization with overlap
     ethr =  3.09E-10,  avg # of iterations =  2.0

     total cpu time spent up to now is     3599.8 secs

     total energy              =  -33062.61853153 Ry
     Harris-Foulkes estimate   =  -33062.61852921 Ry
     estimated scf accuracy    <       0.00002338 Ry

     total magnetization       =    -0.00 Bohr mag/cell
     absolute magnetization    =    78.75 Bohr mag/cell

     iteration # 25     ecut=    45.00 Ry     beta= 0.10
     Davidson diagonalization with overlap
     ethr =  3.09E-10,  avg # of iterations =  2.0

     total cpu time spent up to now is     3721.3 secs

     total energy              =  -33062.61853109 Ry
     Harris-Foulkes estimate   =  -33062.61852972 Ry
     estimated scf accuracy    <       0.00001416 Ry

     total magnetization       =     0.00 Bohr mag/cell
     absolute magnetization    =    78.75 Bohr mag/cell

     iteration # 26     ecut=    45.00 Ry     beta= 0.10
     Davidson diagonalization with overlap
     ethr =  3.09E-10,  avg # of iterations =  2.0

     total cpu time spent up to now is     3842.7 secs

     total energy              =  -33062.61853321 Ry
     Harris-Foulkes estimate   =  -33062.61853194 Ry
     estimated scf accuracy    <       0.00001361 Ry

     total magnetization       =    -0.00 Bohr mag/cell
     absolute magnetization    =    78.75 Bohr mag/cell

     iteration # 27     ecut=    45.00 Ry     beta= 0.10
     Davidson diagonalization with overlap
     ethr =  3.09E-10,  avg # of iterations =  2.0

     total cpu time spent up to now is     3964.0 secs

     total energy              =  -33062.61853717 Ry
     Harris-Foulkes estimate   =  -33062.61853391 Ry
     estimated scf accuracy    <       0.00000233 Ry

     total magnetization       =    -0.00 Bohr mag/cell
     absolute magnetization    =    78.74 Bohr mag/cell

     iteration # 28     ecut=    45.00 Ry     beta= 0.10
     Davidson diagonalization with overlap
     ethr =  3.09E-10,  avg # of iterations =  2.0

     total cpu time spent up to now is     4089.7 secs

     total energy              =  -33062.61852916 Ry
     Harris-Foulkes estimate   =  -33062.61852795 Ry
     estimated scf accuracy    <       0.00002562 Ry

     total magnetization       =     0.00 Bohr mag/cell
     absolute magnetization    =    78.75 Bohr mag/cell

     iteration # 29     ecut=    45.00 Ry     beta= 0.10
     Davidson diagonalization with overlap
     ethr =  3.09E-10,  avg # of iterations =  2.0

     total cpu time spent up to now is     4216.8 secs

     total energy              =  -33062.61852927 Ry
     Harris-Foulkes estimate   =  -33062.61852844 Ry
     estimated scf accuracy    <       0.00002622 Ry

     total magnetization       =     0.00 Bohr mag/cell
     absolute magnetization    =    78.75 Bohr mag/cell

     iteration # 30     ecut=    45.00 Ry     beta= 0.10
     Davidson diagonalization with overlap
     ethr =  3.09E-10,  avg # of iterations =  2.0

     total cpu time spent up to now is     4338.3 secs

     total energy              =  -33062.61853007 Ry
     Harris-Foulkes estimate   =  -33062.61852896 Ry
     estimated scf accuracy    <       0.00002667 Ry

     total magnetization       =     0.00 Bohr mag/cell
     absolute magnetization    =    78.75 Bohr mag/cell

     iteration # 31     ecut=    45.00 Ry     beta= 0.10
     Davidson diagonalization with overlap
     ethr =  3.09E-10,  avg # of iterations =  2.0

     total cpu time spent up to now is     4460.3 secs

     total energy              =  -33062.61852855 Ry
     Harris-Foulkes estimate   =  -33062.61852789 Ry
     estimated scf accuracy    <       0.00002905 Ry

     total magnetization       =    -0.00 Bohr mag/cell
     absolute magnetization    =    78.75 Bohr mag/cell

     iteration # 32     ecut=    45.00 Ry     beta= 0.10
     Davidson diagonalization with overlap
     ethr =  3.09E-10,  avg # of iterations =  1.6

     total cpu time spent up to now is     4575.2 secs

     total energy              =  -33062.61853236 Ry
     Harris-Foulkes estimate   =  -33062.61853182 Ry
     estimated scf accuracy    <       0.00002854 Ry

     total magnetization       =    -0.00 Bohr mag/cell
     absolute magnetization    =    78.75 Bohr mag/cell

     iteration # 33     ecut=    45.00 Ry     beta= 0.10
     Davidson diagonalization with overlap
     ethr =  3.09E-10,  avg # of iterations =  1.6

     total cpu time spent up to now is     4690.0 secs

     total energy              =  -33062.61852883 Ry
     Harris-Foulkes estimate   =  -33062.61852869 Ry
     estimated scf accuracy    <       0.00002992 Ry

     total magnetization       =    -0.00 Bohr mag/cell
     absolute magnetization    =    78.75 Bohr mag/cell

     iteration # 34     ecut=    45.00 Ry     beta= 0.10
     Davidson diagonalization with overlap
     ethr =  3.09E-10,  avg # of iterations =  1.9

     total cpu time spent up to now is     4809.9 secs

     total energy              =  -33062.61853215 Ry
     Harris-Foulkes estimate   =  -33062.61853230 Ry
     estimated scf accuracy    <       0.00002906 Ry

     total magnetization       =    -0.00 Bohr mag/cell
     absolute magnetization    =    78.75 Bohr mag/cell

     iteration # 35     ecut=    45.00 Ry     beta= 0.10
     Davidson diagonalization with overlap
     ethr =  3.09E-10,  avg # of iterations =  2.0

     total cpu time spent up to now is     4932.0 secs

     total energy              =  -33062.61853334 Ry
     Harris-Foulkes estimate   =  -33062.61853284 Ry
     estimated scf accuracy    <       0.00002730 Ry

     total magnetization       =    -0.00 Bohr mag/cell
     absolute magnetization    =    78.75 Bohr mag/cell

     iteration # 36     ecut=    45.00 Ry     beta= 0.10
     Davidson diagonalization with overlap
     ethr =  3.09E-10,  avg # of iterations =  1.8

     total cpu time spent up to now is     5050.9 secs

     total energy              =  -33062.61850848 Ry
     Harris-Foulkes estimate   =  -33062.61853142 Ry
     estimated scf accuracy    <       0.00002942 Ry

     total magnetization       =     0.00 Bohr mag/cell
     absolute magnetization    =    78.75 Bohr mag/cell

     iteration # 37     ecut=    45.00 Ry     beta= 0.10
     Davidson diagonalization with overlap
     ethr =  3.09E-10,  avg # of iterations =  4.0

     total cpu time spent up to now is     5309.5 secs

     total energy              =  -33062.61855847 Ry
     Harris-Foulkes estimate   =  -33062.61854299 Ry
     estimated scf accuracy    <       0.00003025 Ry

     total magnetization       =     0.00 Bohr mag/cell
     absolute magnetization    =    78.76 Bohr mag/cell

     iteration # 38     ecut=    45.00 Ry     beta= 0.10
     Davidson diagonalization with overlap
     ethr =  3.09E-10,  avg # of iterations =  4.0

     total cpu time spent up to now is     5555.0 secs

     total energy              =  -33062.61853439 Ry
     Harris-Foulkes estimate   =  -33062.61853412 Ry
     estimated scf accuracy    <       0.00001709 Ry

     total magnetization       =    -0.00 Bohr mag/cell
     absolute magnetization    =    78.75 Bohr mag/cell

     iteration # 39     ecut=    45.00 Ry     beta= 0.10
     Davidson diagonalization with overlap
     ethr =  3.09E-10,  avg # of iterations =  1.6

     total cpu time spent up to now is     5669.8 secs

     total energy              =  -33062.61853476 Ry
     Harris-Foulkes estimate   =  -33062.61853487 Ry
     estimated scf accuracy    <       0.00002033 Ry

     total magnetization       =    -0.00 Bohr mag/cell
     absolute magnetization    =    78.75 Bohr mag/cell

     iteration # 40     ecut=    45.00 Ry     beta= 0.10
     Davidson diagonalization with overlap
     ethr =  3.09E-10,  avg # of iterations =  2.0

     total cpu time spent up to now is     5791.3 secs

     total energy              =  -33062.61853156 Ry
     Harris-Foulkes estimate   =  -33062.61853157 Ry
     estimated scf accuracy    <       0.00001494 Ry

     total magnetization       =     0.00 Bohr mag/cell
     absolute magnetization    =    78.75 Bohr mag/cell

     iteration # 41     ecut=    45.00 Ry     beta= 0.10
     Davidson diagonalization with overlap
     ethr =  3.09E-10,  avg # of iterations =  1.3

     total cpu time spent up to now is     5903.0 secs

     total energy              =  -33062.61853201 Ry
     Harris-Foulkes estimate   =  -33062.61853213 Ry
     estimated scf accuracy    <       0.00002059 Ry

     total magnetization       =     0.00 Bohr mag/cell
     absolute magnetization    =    78.75 Bohr mag/cell

     iteration # 42     ecut=    45.00 Ry     beta= 0.10
     Davidson diagonalization with overlap
     ethr =  3.09E-10,  avg # of iterations =  1.0

     total cpu time spent up to now is     6010.8 secs

     total energy              =  -33062.61853128 Ry
     Harris-Foulkes estimate   =  -33062.61853512 Ry
     estimated scf accuracy    <       0.00002170 Ry

     total magnetization       =     0.00 Bohr mag/cell
     absolute magnetization    =    78.75 Bohr mag/cell

     iteration # 43     ecut=    45.00 Ry     beta= 0.10
     Davidson diagonalization with overlap
     ethr =  3.09E-10,  avg # of iterations =  3.0

     total cpu time spent up to now is     6195.2 secs

     total energy              =  -33062.61853636 Ry
     Harris-Foulkes estimate   =  -33062.61853881 Ry
     estimated scf accuracy    <       0.00001346 Ry

     total magnetization       =     0.00 Bohr mag/cell
     absolute magnetization    =    78.76 Bohr mag/cell

     iteration # 44     ecut=    45.00 Ry     beta= 0.10
     Davidson diagonalization with overlap
     ethr =  3.09E-10,  avg # of iterations =  2.0

     total cpu time spent up to now is     6322.3 secs

     total energy              =  -33062.61853652 Ry
     Harris-Foulkes estimate   =  -33062.61853225 Ry
     estimated scf accuracy    <       0.00001522 Ry

     total magnetization       =    -0.00 Bohr mag/cell
     absolute magnetization    =    78.75 Bohr mag/cell

     iteration # 45     ecut=    45.00 Ry     beta= 0.10
     Davidson diagonalization with overlap
     ethr =  3.09E-10,  avg # of iterations =  2.0

     total cpu time spent up to now is     6449.7 secs

     total energy              =  -33062.61853412 Ry
     Harris-Foulkes estimate   =  -33062.61853073 Ry
     estimated scf accuracy    <       0.00000867 Ry

     total magnetization       =    -0.00 Bohr mag/cell
     absolute magnetization    =    78.75 Bohr mag/cell

     iteration # 46     ecut=    45.00 Ry     beta= 0.10
     Davidson diagonalization with overlap
     ethr =  3.09E-10,  avg # of iterations =  3.1

     total cpu time spent up to now is     6641.8 secs

     total energy              =  -33062.61853188 Ry
     Harris-Foulkes estimate   =  -33062.61853128 Ry
     estimated scf accuracy    <       0.00002124 Ry

     total magnetization       =     0.00 Bohr mag/cell
     absolute magnetization    =    78.75 Bohr mag/cell

     iteration # 47     ecut=    45.00 Ry     beta= 0.10
     Davidson diagonalization with overlap
     ethr =  3.09E-10,  avg # of iterations =  2.0

     total cpu time spent up to now is     6767.9 secs

     total energy              =  -33062.61852871 Ry
     Harris-Foulkes estimate   =  -33062.61852792 Ry
     estimated scf accuracy    <       0.00001238 Ry

     total magnetization       =    -0.00 Bohr mag/cell
     absolute magnetization    =    78.75 Bohr mag/cell

     iteration # 48     ecut=    45.00 Ry     beta= 0.10
     Davidson diagonalization with overlap
     ethr =  3.09E-10,  avg # of iterations =  2.7

     total cpu time spent up to now is     6915.1 secs

     total energy              =  -33062.61852918 Ry
     Harris-Foulkes estimate   =  -33062.61852913 Ry
     estimated scf accuracy    <       0.00000695 Ry

     total magnetization       =    -0.00 Bohr mag/cell
     absolute magnetization    =    78.75 Bohr mag/cell

     iteration # 49     ecut=    45.00 Ry     beta= 0.10
     Davidson diagonalization with overlap
     ethr =  3.09E-10,  avg # of iterations =  2.0

     total cpu time spent up to now is     7038.4 secs

     total energy              =  -33062.61852560 Ry
     Harris-Foulkes estimate   =  -33062.61852565 Ry
     estimated scf accuracy    <       0.00000369 Ry

     total magnetization       =    -0.00 Bohr mag/cell
     absolute magnetization    =    78.74 Bohr mag/cell

     iteration # 50     ecut=    45.00 Ry     beta= 0.10
     Davidson diagonalization with overlap
     ethr =  3.09E-10,  avg # of iterations =  2.8

     total cpu time spent up to now is     7195.5 secs

     total energy              =  -33062.61852425 Ry
     Harris-Foulkes estimate   =  -33062.61852360 Ry
     estimated scf accuracy    <       0.00002954 Ry

     total magnetization       =    -0.00 Bohr mag/cell
     absolute magnetization    =    78.75 Bohr mag/cell

     iteration # 51     ecut=    45.00 Ry     beta= 0.10
     Davidson diagonalization with overlap
     ethr =  3.09E-10,  avg # of iterations =  2.4

     total cpu time spent up to now is     7330.9 secs

     total energy              =  -33062.61852347 Ry
     Harris-Foulkes estimate   =  -33062.61852329 Ry
     estimated scf accuracy    <       0.00001190 Ry

     total magnetization       =    -0.00 Bohr mag/cell
     absolute magnetization    =    78.75 Bohr mag/cell

     iteration # 52     ecut=    45.00 Ry     beta= 0.10
     Davidson diagonalization with overlap
     ethr =  3.09E-10,  avg # of iterations =  1.0

     total cpu time spent up to now is     7438.7 secs

     total energy              =  -33062.61852350 Ry
     Harris-Foulkes estimate   =  -33062.61852345 Ry
     estimated scf accuracy    <       0.00000214 Ry

     total magnetization       =    -0.00 Bohr mag/cell
     absolute magnetization    =    78.74 Bohr mag/cell

     iteration # 53     ecut=    45.00 Ry     beta= 0.10
     Davidson diagonalization with overlap
     ethr =  3.09E-10,  avg # of iterations =  1.0

     total cpu time spent up to now is     7546.2 secs

     total energy              =  -33062.61852310 Ry
     Harris-Foulkes estimate   =  -33062.61852302 Ry
     estimated scf accuracy    <       0.00001089 Ry

     total magnetization       =    -0.00 Bohr mag/cell
     absolute magnetization    =    78.75 Bohr mag/cell

     iteration # 54     ecut=    45.00 Ry     beta= 0.10
     Davidson diagonalization with overlap
     ethr =  3.09E-10,  avg # of iterations =  1.0

     total cpu time spent up to now is     7654.0 secs

     total energy              =  -33062.61852285 Ry
     Harris-Foulkes estimate   =  -33062.61852276 Ry
     estimated scf accuracy    <       0.00000121 Ry

     total magnetization       =    -0.00 Bohr mag/cell
     absolute magnetization    =    78.74 Bohr mag/cell

     iteration # 55     ecut=    45.00 Ry     beta= 0.10
     Davidson diagonalization with overlap
     ethr =  1.81E-10,  avg # of iterations =  1.0

     total cpu time spent up to now is     7763.1 secs

     total energy              =  -33062.61852291 Ry
     Harris-Foulkes estimate   =  -33062.61852282 Ry
     estimated scf accuracy    <       0.00001076 Ry

     total magnetization       =    -0.00 Bohr mag/cell
     absolute magnetization    =    78.75 Bohr mag/cell

     iteration # 56     ecut=    45.00 Ry     beta= 0.10
     Davidson diagonalization with overlap
     ethr =  1.81E-10,  avg # of iterations =  1.0

     total cpu time spent up to now is     7870.8 secs

     total energy              =  -33062.61852327 Ry
     Harris-Foulkes estimate   =  -33062.61852315 Ry
     estimated scf accuracy    <       0.00001087 Ry

     total magnetization       =    -0.00 Bohr mag/cell
     absolute magnetization    =    78.75 Bohr mag/cell

     iteration # 57     ecut=    45.00 Ry     beta= 0.10
     Davidson diagonalization with overlap
     ethr =  1.81E-10,  avg # of iterations =  1.0

     total cpu time spent up to now is     7978.6 secs

     total energy              =  -33062.61852319 Ry
     Harris-Foulkes estimate   =  -33062.61852307 Ry
     estimated scf accuracy    <       0.00001086 Ry

     total magnetization       =    -0.00 Bohr mag/cell
     absolute magnetization    =    78.75 Bohr mag/cell

     iteration # 58     ecut=    45.00 Ry     beta= 0.10
     Davidson diagonalization with overlap
     ethr =  1.81E-10,  avg # of iterations =  1.0

     total cpu time spent up to now is     8086.4 secs

     total energy              =  -33062.61852438 Ry
     Harris-Foulkes estimate   =  -33062.61852429 Ry
     estimated scf accuracy    <       0.00001061 Ry

     total magnetization       =    -0.00 Bohr mag/cell
     absolute magnetization    =    78.75 Bohr mag/cell

     iteration # 59     ecut=    45.00 Ry     beta= 0.10
     Davidson diagonalization with overlap
     ethr =  1.81E-10,  avg # of iterations =  1.0
 
     Magnetic moment per site:
     atom:    1    charge:   13.5807    magn:    3.9694    constr:    0.0000
     atom:    2    charge:   13.5784    magn:    3.9957    constr:    0.0000
     atom:    3    charge:   13.5711    magn:   -4.0924    constr:    0.0000
     atom:    4    charge:   13.5700    magn:    4.0438    constr:    0.0000
     atom:    5    charge:   13.5763    magn:    3.9992    constr:    0.0000
     atom:    6    charge:   13.5806    magn:    3.9693    constr:    0.0000
     atom:    7    charge:   13.5763    magn:    3.9993    constr:    0.0000
     atom:    8    charge:   13.5822    magn:   -4.0043    constr:    0.0000
     atom:    9    charge:   13.5783    magn:    3.9957    constr:    0.0000
     atom:   10    charge:   13.5764    magn:   -3.9993    constr:    0.0000
     atom:   11    charge:   13.5784    magn:   -3.9957    constr:    0.0000
     atom:   12    charge:   13.5823    magn:    4.0043    constr:    0.0000
     atom:   13    charge:   13.5700    magn:   -4.0438    constr:    0.0000
     atom:   14    charge:   13.5804    magn:   -3.9694    constr:    0.0000
     atom:   15    charge:   13.5762    magn:   -3.9993    constr:    0.0000
     atom:   16    charge:   13.5807    magn:   -3.9694    constr:    0.0000
     atom:   17    charge:   13.5711    magn:    4.0924    constr:    0.0000
     atom:   18    charge:   13.5785    magn:   -3.9957    constr:    0.0000
     atom:   19    charge:    9.1210    magn:    0.0519    constr:    0.0000
     atom:   20    charge:    9.1213    magn:    0.0190    constr:    0.0000
     atom:   21    charge:    9.1207    magn:    0.0374    constr:    0.0000
     atom:   22    charge:    9.1219    magn:    0.0134    constr:    0.0000
     atom:   23    charge:    9.1212    magn:    0.0155    constr:    0.0000
     atom:   24    charge:    9.1210    magn:    0.0519    constr:    0.0000
     atom:   25    charge:    9.1213    magn:    0.0155    constr:    0.0000
     atom:   26    charge:    9.1223    magn:    0.0080    constr:    0.0000
     atom:   27    charge:    9.1214    magn:    0.0190    constr:    0.0000
     atom:   28    charge:    9.1210    magn:    0.0519    constr:    0.0000
     atom:   29    charge:    9.1213    magn:    0.0190    constr:    0.0000
     atom:   30    charge:    9.1207    magn:    0.0374    constr:    0.0000
     atom:   31    charge:    9.1219    magn:    0.0134    constr:    0.0000
     atom:   32    charge:    9.1212    magn:    0.0155    constr:    0.0000
     atom:   33    charge:    9.1210    magn:    0.0519    constr:    0.0000
     atom:   34    charge:    9.1213    magn:    0.0155    constr:    0.0000
     atom:   35    charge:    9.1223    magn:    0.0080    constr:    0.0000
     atom:   36    charge:    9.1214    magn:    0.0190    constr:    0.0000
     atom:   37    charge:    9.1214    magn:   -0.0155    constr:    0.0000
     atom:   38    charge:    9.1214    magn:   -0.0190    constr:    0.0000
     atom:   39    charge:    9.1224    magn:   -0.0080    constr:    0.0000
     atom:   40    charge:    9.1220    magn:   -0.0134    constr:    0.0000
     atom:   41    charge:    9.1210    magn:   -0.0519    constr:    0.0000
     atom:   42    charge:    9.1212    magn:   -0.0155    constr:    0.0000
     atom:   43    charge:    9.1211    magn:   -0.0519    constr:    0.0000
     atom:   44    charge:    9.1206    magn:   -0.0374    constr:    0.0000
     atom:   45    charge:    9.1213    magn:   -0.0190    constr:    0.0000
     atom:   46    charge:    9.1214    magn:   -0.0155    constr:    0.0000
     atom:   47    charge:    9.1214    magn:   -0.0190    constr:    0.0000
     atom:   48    charge:    9.1224    magn:   -0.0080    constr:    0.0000
     atom:   49    charge:    9.1220    magn:   -0.0134    constr:    0.0000
     atom:   50    charge:    9.1210    magn:   -0.0519    constr:    0.0000
     atom:   51    charge:    9.1212    magn:   -0.0155    constr:    0.0000
     atom:   52    charge:    9.1211    magn:   -0.0519    constr:    0.0000
     atom:   53    charge:    9.1206    magn:   -0.0374    constr:    0.0000
     atom:   54    charge:    9.1213    magn:   -0.0190    constr:    0.0000

     total cpu time spent up to now is     8194.2 secs

     End of self-consistent calculation

 ------ SPIN UP ------------


          k = 0.0000 0.0000 0.0000 ( 31747 PWs)   bands (ev):

   -66.7859 -66.7240 -66.6877 -66.6876 -66.6496 -66.6496 -66.6242 -66.6241
   -66.5795 -62.4243 -62.3768 -62.3768 -62.3470 -62.3470 -62.3457 -62.3457
   -62.3278 -62.2745 -35.5511 -35.5225 -35.5093 -35.5075 -35.4496 -35.4494
   -35.4461 -35.4460 -35.4370 -35.4369 -35.4119 -35.4118 -35.4038 -35.4037
   -35.4019 -35.4019 -35.3799 -35.3798 -35.3777 -35.3776 -35.3754 -35.3752
   -35.3488 -35.3479 -35.3477 -35.3235 -35.3034 -31.2671 -31.2520 -31.2268
   -31.2192 -31.2191 -31.2064 -31.2063 -31.1926 -31.1926 -31.1852 -31.1851
   -31.1818 -31.1817 -31.1816 -31.1816 -31.1746 -31.1746 -31.1691 -31.1530
   -31.1505 -31.1504 -31.1451 -31.1450 -31.1440 -31.1251 -31.0973 -31.0826
     5.6149   7.1494   7.1690   7.1886   7.2025   7.3652   7.8641   7.9012
     7.9032   7.9363   8.0854   8.1244   8.1300   8.1601   8.1786   8.2585
     8.2595   8.2923   8.2974   8.5302   8.5572   8.5628   8.5727   8.5814
     8.6083   8.8551   8.8675   8.8690   8.8903   8.8945   8.8987   8.8990
     8.9037   8.9084   8.9128   8.9209   8.9367   8.9393   8.9434   8.9565
     8.9879   9.0852   9.1189   9.1259   9.1287   9.1359   9.1578   9.1690
     9.1835   9.1957   9.2073   9.2641   9.2865   9.2944   9.3006   9.3570
     9.3616   9.3635   9.3793   9.3860   9.3897   9.3947   9.3997   9.4317
     9.4448   9.4481   9.4512   9.4658   9.4683   9.4734   9.4824   9.5821
     9.5826   9.5889   9.5954   9.6096   9.6100   9.6557   9.6668   9.6675
     9.6723   9.6737   9.6785   9.7527   9.7599   9.7614   9.7862   9.8499
     9.8516   9.9261   9.9290   9.9490   9.9510   9.9528   9.9963  10.0216
    10.0997  10.1362  10.1534  10.1711  10.2882  10.2957  10.2983  10.2998
    10.3061  10.3078  10.3104  10.3136  10.3226  10.3338  10.3341  10.3456
    10.3476  10.3526  10.3584  10.3594  10.3614  10.3662  10.3745  10.3857
    10.3958  10.5123  10.5149  10.5342  10.5533  10.6380  10.6400  10.6582
    10.7657  10.7758  10.7863  10.7881  10.8102  10.8149  10.8380  10.8433
    10.8493  10.8534  10.8718  10.8753  10.8772  10.8895  10.8899  10.9125
    10.9181  10.9551  11.0326  11.0395  11.0779  11.0793  11.2057  11.2210
    11.2232  11.2310  11.2406  11.2565  11.2915  11.3461  11.3655  11.3677
    11.3726  11.3806  11.3839  11.3931  11.4019  11.4130  11.4131  11.4290
    11.4427  11.4820  11.5700  11.5731  11.5769  11.5908  11.5946  11.5952
    11.6010  11.6451  11.6507  11.6654  11.7287  11.7373  11.7385  11.7494
    11.8246  11.8285  11.8393  11.8423  11.8725  11.8847  11.9224  11.9261
    11.9508  11.9631  12.0995  12.1025  12.1034  12.1081  12.1190  12.1392
    12.1458  12.1470  12.1473  12.1498  12.1580  12.1739  12.2117  12.2366
    12.3107  12.3183  12.3190  12.3336  12.3437  12.3553  12.3712  12.3841
    12.4235  12.4353  12.4354  12.4710  12.4825  12.4978  12.5068  12.5109
    12.5181  12.5260  12.5627  12.5653  12.6042  12.6380  12.6744  12.7169
    12.7190  12.7426  12.8961  12.9334  12.9952  13.0241  13.0768  13.1009
    13.1162  13.1269  13.1497  13.1743  13.4025  13.4862  13.7463  13.7592
    13.8631  13.9255  14.0068  14.2334  14.2554  14.2930  14.3409  14.3566
    14.8773  14.9066  15.0020  15.0140  15.1342  15.2021  15.2021  15.2385
    15.3275  15.3281  15.3363  15.3880  15.4197  15.4517  15.4908  15.5232
    15.5743  15.6058  15.7287  15.7983  15.8489  15.9281  15.9728  16.0289
    16.0495  16.0662  16.0878  16.1263  16.1448  16.1557  16.1560  16.1671
    16.2177  16.2894  16.3050  16.3245  16.3298  16.3432  16.3832  16.3925
    16.4387  16.4996  16.5316  16.5821  16.6567  16.7599  16.8171  16.8222
    16.9159  17.0340  17.1810  17.2160  17.2305  17.2330  17.2541  17.3985
    17.4800  17.4942  17.8608  17.9142  17.9317  17.9408  17.9502  17.9667
    18.0384  18.3192  18.3465  19.0045  19.0595  19.0945  19.1467  19.1695

          k = 0.0000 0.0000-0.5734 ( 31692 PWs)   bands (ev):

   -66.7859 -66.7240 -66.6877 -66.6876 -66.6496 -66.6496 -66.6242 -66.6241
   -66.5795 -62.4243 -62.3768 -62.3768 -62.3470 -62.3470 -62.3457 -62.3457
   -62.3278 -62.2745 -35.5511 -35.5225 -35.5093 -35.5075 -35.4496 -35.4494
   -35.4461 -35.4460 -35.4370 -35.4369 -35.4119 -35.4118 -35.4038 -35.4037
   -35.4019 -35.4019 -35.3799 -35.3798 -35.3777 -35.3776 -35.3754 -35.3752
   -35.3488 -35.3479 -35.3477 -35.3235 -35.3034 -31.2671 -31.2520 -31.2268
   -31.2192 -31.2191 -31.2064 -31.2063 -31.1926 -31.1926 -31.1852 -31.1851
   -31.1818 -31.1817 -31.1816 -31.1816 -31.1746 -31.1746 -31.1691 -31.1530
   -31.1505 -31.1504 -31.1451 -31.1450 -31.1440 -31.1251 -31.0973 -31.0826
     6.1378   6.2343   7.5196   7.5405   7.5498   7.5629   7.5984   7.6106
     7.6296   7.6477   8.2982   8.3006   8.3439   8.3461   8.3463   8.3723
     8.4036   8.4074   8.4634   8.4638   8.4734   8.4761   8.4868   8.4877
     8.5141   8.5183   8.6857   8.7256   8.7294   8.8192   8.9324   8.9352
     8.9676   8.9691   8.9775   8.9823   9.0028   9.0045   9.0154   9.0181
     9.0367   9.0471   9.0493   9.0568   9.0912   9.1016   9.1910   9.1963
     9.2174   9.2235   9.2606   9.2653   9.2654   9.2705   9.2748   9.2800
     9.2889   9.2945   9.2967   9.3066   9.3114   9.3137   9.4123   9.4152
     9.4237   9.4256   9.4326   9.4328   9.4340   9.4477   9.4506   9.4683
     9.4689   9.5019   9.5129   9.5208   9.5502   9.5576   9.5885   9.7225
     9.7705   9.7919   9.7952   9.7953   9.8211   9.8287   9.8456   9.8507
     9.8740   9.8747   9.8804   9.8840   9.8851   9.8882   9.8903   9.8907
    10.0549  10.0562  10.0666  10.0667  10.1303  10.1326  10.1385  10.1559
    10.1660  10.1712  10.1996  10.2125  10.2215  10.2227  10.3472  10.3740
    10.3784  10.3967  10.4011  10.4035  10.4160  10.4344  10.4390  10.5495
    10.5897  10.5900  10.6024  10.6093  10.6177  10.6301  10.6398  10.6398
    10.6729  10.6935  10.7189  10.7536  10.7661  10.8182  10.8596  10.8998
    10.9478  10.9507  10.9867  11.0033  11.0257  11.0263  11.0392  11.0657
    11.0843  11.0919  11.1008  11.1100  11.1696  11.1838  11.1838  11.2063
    11.2331  11.2341  11.2469  11.2547  11.2582  11.2601  11.2654  11.2675
    11.2692  11.2740  11.2814  11.2822  11.2863  11.2937  11.3116  11.3161
    11.3185  11.3313  11.3323  11.3346  11.5010  11.5996  11.7070  11.7116
    11.7156  11.7174  11.7200  11.7229  11.7278  11.7325  11.7386  11.7402
    11.7482  11.7778  11.7916  11.8048  11.8175  11.8232  11.8372  11.8439
    11.9593  11.9660  12.0076  12.0287  12.0407  12.0435  12.0764  12.1189
    12.1663  12.1971  12.2060  12.2344  12.2395  12.2518  12.2802  12.3717
    12.4061  12.4145  12.4302  12.4575  12.4787  12.4866  12.4878  12.5024
    12.5082  12.5215  12.5269  12.5343  12.5584  12.5804  12.5856  12.6044
    12.6183  12.6563  12.7645  12.7922  12.7940  12.8259  12.8925  12.8998
    12.9100  13.0105  13.0430  13.0582  13.1518  13.1697  13.1832  13.1968
    13.2026  13.2131  13.3744  13.4969  13.5059  13.5151  13.6902  13.7767
    13.7920  13.9339  14.0002  14.0353  14.0849  14.1107  14.2503  14.6153
    14.6534  14.9074  14.9183  14.9214  14.9538  14.9698  15.0767  15.0914
    15.1169  15.1451  15.1715  15.2245  15.3210  15.3462  15.4336  15.4970
    15.5567  15.6213  15.6356  15.8204  15.8590  15.9613  16.0271  16.0738
    16.1060  16.1232  16.1244  16.1445  16.1576  16.1607  16.1644  16.2206
    16.2307  16.2445  16.2753  16.2810  16.3015  16.3023  16.3066  16.3210
    16.3642  16.4584  16.4907  16.5574  16.6332  16.6653  16.7638  16.8145
    16.8918  16.9158  17.1851  17.3714  17.4157  17.4364  17.5228  17.5380
    17.5708  17.5873  17.6078  17.7208  17.7304  17.7419  17.7510  17.8894
    17.9019  17.9056  18.0477  18.1110  18.2166  18.2614  18.2918  18.3493

          k = 0.0000-0.5000 0.0000 ( 31722 PWs)   bands (ev):

   -66.7859 -66.7240 -66.6877 -66.6876 -66.6496 -66.6496 -66.6242 -66.6241
   -66.5795 -62.4243 -62.3768 -62.3768 -62.3470 -62.3470 -62.3457 -62.3457
   -62.3278 -62.2745 -35.5511 -35.5225 -35.5093 -35.5075 -35.4496 -35.4494
   -35.4461 -35.4460 -35.4370 -35.4369 -35.4119 -35.4118 -35.4038 -35.4037
   -35.4019 -35.4019 -35.3799 -35.3798 -35.3777 -35.3776 -35.3754 -35.3752
   -35.3488 -35.3479 -35.3477 -35.3235 -35.3034 -31.2672 -31.2521 -31.2268
   -31.2191 -31.2191 -31.2063 -31.2062 -31.1927 -31.1926 -31.1852 -31.1852
   -31.1818 -31.1817 -31.1817 -31.1816 -31.1747 -31.1746 -31.1691 -31.1530
   -31.1505 -31.1504 -31.1451 -31.1450 -31.1440 -31.1251 -31.0973 -31.0826
     6.0317   6.0534   7.4092   7.4349   7.4540   7.4912   7.6717   7.6817
     8.1011   8.1219   8.1436   8.1654   8.1864   8.2397   8.2654   8.2789
     8.3996   8.4191   8.4473   8.4788   8.5936   8.6320   8.6454   8.6581
     8.6710   8.6832   8.7012   8.7029   8.7367   8.8138   8.8218   8.8377
     8.8468   8.8640   8.8692   8.8996   8.9060   8.9101   8.9107   8.9229
     8.9246   8.9283   8.9351   8.9552   9.0448   9.0551   9.1595   9.1719
     9.1916   9.1941   9.2087   9.2266   9.2506   9.2539   9.3164   9.3229
     9.3455   9.3672   9.4033   9.4135   9.4727   9.4794   9.4956   9.5000
     9.5283   9.5465   9.5514   9.5693   9.5761   9.5977   9.6047   9.6092
     9.6196   9.6255   9.6260   9.6307   9.6335   9.6406   9.6516   9.6611
     9.6670   9.6709   9.6756   9.6825   9.6873   9.7218   9.7240   9.7393
     9.7605   9.7638   9.7679   9.7853   9.8907   9.8967   9.9029  10.0038
    10.0146  10.0307  10.1561  10.1838  10.2110  10.2282  10.2518  10.2549
    10.2613  10.2729  10.2751  10.2758  10.2851  10.2890  10.3355  10.3564
    10.3722  10.3794  10.3860  10.3927  10.4200  10.4390  10.4617  10.4732
    10.5000  10.5048  10.5165  10.5313  10.5422  10.5787  10.5794  10.5986
    10.6179  10.6388  10.6694  10.7021  10.7135  10.7303  10.7377  10.7631
    10.8049  10.8306  10.8343  10.8473  10.8611  10.8743  10.9109  10.9440
    10.9519  11.0144  11.0190  11.0234  11.0345  11.1086  11.1614  11.1916
    11.2915  11.3200  11.3451  11.3528  11.3714  11.3830  11.4092  11.4140
    11.4236  11.4508  11.4642  11.4778  11.5118  11.5458  11.5556  11.5678
    11.5793  11.6145  11.6171  11.6389  11.6434  11.6448  11.6610  11.7324
    11.7625  11.7699  11.7960  11.8107  11.8197  11.8281  11.8403  11.8414
    11.8817  11.8932  11.9008  11.9281  11.9458  11.9462  11.9540  11.9648
    11.9680  11.9860  12.0136  12.0190  12.0912  12.1261  12.1520  12.1698
    12.1903  12.2125  12.2286  12.2538  12.2689  12.2717  12.2784  12.2874
    12.2946  12.3050  12.3147  12.3243  12.3584  12.3644  12.3972  12.4156
    12.4170  12.4504  12.4823  12.4969  12.5023  12.5139  12.5286  12.5677
    12.5711  12.6051  12.6121  12.6403  12.6424  12.6601  12.7116  12.7560
    12.8336  12.8834  13.0246  13.0618  13.0823  13.0891  13.1217  13.1294
    13.1672  13.2062  13.2117  13.2196  13.2476  13.2709  13.3402  13.3492
    13.4301  13.4603  13.4844  13.7219  13.7867  14.2613  14.5320  14.5431
    14.6594  14.7026  14.7534  14.7834  14.8365  14.8639  14.9194  14.9604
    15.0541  15.1391  15.1673  15.3324  15.3624  15.4594  15.5102  15.6437
    15.6617  15.7236  15.7893  15.8307  15.8538  15.8721  15.9266  15.9952
    16.0297  16.0402  16.0767  16.0875  16.1081  16.1603  16.1717  16.1825
    16.2078  16.2171  16.2191  16.2317  16.2839  16.2909  16.3297  16.3971
    16.4359  16.4411  16.5630  16.6504  16.7275  16.7700  17.0204  17.1038
    17.1426  17.1842  17.2114  17.3711  17.4387  17.5015  17.6329  17.6418
    17.6891  17.7559  17.7793  17.8020  17.8320  17.8517  17.9614  17.9652
    18.0463  18.0928  18.1587  18.2474  19.2434  19.2891  19.3099  19.3361

          k = 0.0000-0.5000-0.5734 ( 31696 PWs)   bands (ev):

   -66.7859 -66.7240 -66.6877 -66.6876 -66.6496 -66.6496 -66.6242 -66.6241
   -66.5795 -62.4243 -62.3768 -62.3768 -62.3470 -62.3470 -62.3457 -62.3457
   -62.3278 -62.2745 -35.5511 -35.5225 -35.5093 -35.5075 -35.4496 -35.4494
   -35.4461 -35.4460 -35.4370 -35.4369 -35.4119 -35.4118 -35.4038 -35.4037
   -35.4019 -35.4019 -35.3799 -35.3798 -35.3777 -35.3776 -35.3754 -35.3752
   -35.3488 -35.3479 -35.3477 -35.3235 -35.3034 -31.2672 -31.2521 -31.2268
   -31.2191 -31.2191 -31.2063 -31.2062 -31.1927 -31.1926 -31.1852 -31.1852
   -31.1818 -31.1817 -31.1817 -31.1816 -31.1747 -31.1746 -31.1691 -31.1530
   -31.1505 -31.1504 -31.1451 -31.1450 -31.1440 -31.1251 -31.0973 -31.0826
     6.5144   6.5636   6.6145   6.6451   7.8254   7.8298   7.8706   7.8883
     7.8918   7.9110   7.9480   7.9538   8.2635   8.2829   8.2981   8.3043
     8.5133   8.5285   8.5331   8.5335   8.6511   8.6659   8.6726   8.6859
     8.6909   8.7019   8.7079   8.7110   8.7131   8.7219   8.7426   8.7454
     8.7619   8.7860   8.8001   8.8215   8.9377   8.9861   9.0245   9.0330
     9.0405   9.0586   9.0604   9.0773   9.1760   9.2013   9.2070   9.2203
     9.2242   9.2250   9.2298   9.2322   9.2428   9.2508   9.2534   9.2604
     9.2662   9.2770   9.2799   9.2846   9.3129   9.3585   9.3800   9.3866
     9.4192   9.4274   9.4339   9.4506   9.4591   9.4703   9.4764   9.4818
     9.4839   9.4859   9.4902   9.5134   9.5350   9.5451   9.5527   9.5807
     9.5893   9.6273   9.7516   9.7635   9.7800   9.7847   9.8029   9.8181
     9.8375   9.8438   9.8444   9.8493   9.8551   9.8610   9.8887   9.8923
     9.9456   9.9721   9.9865  10.0073  10.0305  10.0470  10.0582  10.0683
    10.3638  10.3812  10.4003  10.4094  10.4119  10.4164  10.4171  10.4274
    10.4458  10.4657  10.4839  10.4862  10.4881  10.4952  10.5096  10.5390
    10.5587  10.5636  10.5713  10.5756  10.5850  10.6028  10.6035  10.6242
    10.6381  10.6439  10.6711  10.6777  10.6826  10.6966  10.6982  10.7054
    10.7378  10.8706  10.8723  10.9127  10.9825  11.0124  11.0269  11.0895
    11.1152  11.1232  11.1503  11.1599  11.1693  11.1864  11.1978  11.2110
    11.2131  11.2146  11.2861  11.3045  11.3378  11.3420  11.3511  11.3667
    11.3722  11.3780  11.3828  11.4301  11.4437  11.4737  11.4968  11.5152
    11.5421  11.5547  11.5701  11.5744  11.5800  11.5897  11.5924  11.5995
    11.6134  11.6368  11.6934  11.7214  11.7390  11.7651  11.8010  11.8093
    11.8891  11.9030  11.9076  11.9353  11.9645  11.9657  11.9852  11.9927
    12.0095  12.0193  12.0284  12.0386  12.0394  12.0432  12.1137  12.1156
    12.1175  12.1298  12.1417  12.2427  12.2636  12.2848  12.2905  12.2982
    12.3847  12.4022  12.4158  12.4388  12.4421  12.4683  12.4800  12.4861
    12.4952  12.5048  12.5197  12.5491  12.5515  12.5584  12.5980  12.6325
    12.6406  12.6620  12.6722  12.7311  12.7727  12.7992  12.8216  12.8439
    12.8782  12.9022  12.9686  12.9877  13.0083  13.0481  13.0621  13.0682
    13.1693  13.2355  13.2969  13.3954  13.5844  13.6468  13.7239  13.8265
    13.8416  13.8733  13.8736  13.9869  14.0390  14.2518  14.2800  14.3058
    14.3197  14.4610  14.5276  14.5721  14.5958  14.6906  14.7350  15.1707
    15.1745  15.1982  15.2515  15.3385  15.3762  15.4755  15.5854  15.6283
    15.6384  15.6517  15.7173  15.7688  15.8344  16.0136  16.0396  16.0784
    16.1070  16.1107  16.1214  16.1503  16.1909  16.2179  16.2445  16.2643
    16.2773  16.2806  16.2943  16.3171  16.3680  16.3683  16.3824  16.4428
    16.5242  16.5457  16.5629  16.5953  16.5987  16.6071  16.6326  16.6613
    16.7107  16.7505  16.7927  16.8164  16.8753  16.9180  16.9950  17.0148
    17.0597  17.1135  17.1897  17.2354  18.5924  18.6837  18.7423  18.7871
    18.7917  18.8109  18.8208  18.8497  18.8658  18.9181  18.9617  19.0182

          k =-0.5000-0.5000 0.0000 ( 31612 PWs)   bands (ev):

   -66.7859 -66.7240 -66.6877 -66.6876 -66.6496 -66.6496 -66.6242 -66.6241
   -66.5795 -62.4243 -62.3768 -62.3768 -62.3470 -62.3470 -62.3457 -62.3457
   -62.3278 -62.2745 -35.5511 -35.5225 -35.5093 -35.5075 -35.4496 -35.4494
   -35.4461 -35.4460 -35.4370 -35.4369 -35.4119 -35.4118 -35.4038 -35.4037
   -35.4019 -35.4019 -35.3799 -35.3798 -35.3777 -35.3776 -35.3753 -35.3752
   -35.3488 -35.3479 -35.3477 -35.3235 -35.3034 -31.2672 -31.2521 -31.2268
   -31.2191 -31.2191 -31.2062 -31.2062 -31.1927 -31.1926 -31.1852 -31.1851
   -31.1818 -31.1817 -31.1817 -31.1816 -31.1747 -31.1746 -31.1691 -31.1530
   -31.1505 -31.1505 -31.1451 -31.1450 -31.1440 -31.1251 -31.0973 -31.0826
     6.4074   6.4406   6.4453   6.4669   8.0041   8.0196   8.0207   8.0266
     8.0781   8.1400   8.2981   8.3233   8.3272   8.3329   8.3401   8.3482
     8.3502   8.3534   8.3643   8.3647   8.3741   8.3804   8.5640   8.5858
     8.6041   8.6650   8.6911   8.7145   8.7228   8.7244   8.7363   8.7482
     8.7601   8.7856   8.9136   8.9153   8.9590   8.9603   8.9761   8.9765
     8.9784   9.0023   9.0094   9.0133   9.0171   9.0256   9.0494   9.0503
     9.1024   9.1463   9.3044   9.3170   9.3184   9.3231   9.4039   9.4044
     9.4115   9.4141   9.4170   9.4228   9.4253   9.4304   9.4382   9.4418
     9.4538   9.4629   9.4768   9.4797   9.4883   9.5023   9.5241   9.5258
     9.5296   9.5341   9.5467   9.5472   9.5633   9.5672   9.5804   9.5820
     9.5978   9.6082   9.6979   9.6979   9.7868   9.8123   9.8190   9.8308
     9.8324   9.8334   9.8345   9.8496   9.8531   9.8689  10.0333  10.0563
    10.0765  10.0819  10.1124  10.1275  10.1426  10.1477  10.1562  10.1623
    10.1770  10.1886  10.2021  10.2191  10.2200  10.2299  10.2309  10.2328
    10.2392  10.2439  10.2573  10.2579  10.4576  10.4651  10.4693  10.4803
    10.4876  10.4971  10.5070  10.5347  10.6147  10.6264  10.6646  10.6654
    10.6697  10.6741  10.6758  10.6808  10.6833  10.6862  10.6958  10.7101
    10.7391  10.7415  10.8027  10.8190  10.8291  10.8474  10.8613  10.8659
    10.8997  10.9154  11.1991  11.2132  11.2167  11.2176  11.2906  11.3172
    11.3203  11.3268  11.3699  11.3841  11.3984  11.4056  11.5490  11.5702
    11.6008  11.6242  11.6387  11.6388  11.6411  11.6454  11.6469  11.6553
    11.6574  11.6606  11.6769  11.7051  11.7156  11.7241  11.7406  11.8758
    11.8784  11.8807  11.8841  11.8870  11.8908  11.9458  12.0075  12.0492
    12.0513  12.0640  12.0855  12.0963  12.1042  12.1052  12.1058  12.1069
    12.1131  12.1133  12.1242  12.1300  12.1300  12.1419  12.1463  12.1533
    12.1839  12.1997  12.2349  12.2401  12.2454  12.2514  12.2676  12.2705
    12.2720  12.2752  12.2764  12.2882  12.2887  12.2971  12.3104  12.3287
    12.3331  12.3357  12.3619  12.3970  12.4187  12.4332  12.4753  12.4821
    12.5057  12.5601  12.5870  12.6334  12.6466  12.6705  12.6847  12.6865
    12.7207  12.7215  12.7476  12.8694  12.8837  12.9123  12.9223  12.9496
    12.9777  13.0048  13.0266  13.0504  13.0716  13.5728  13.6746  13.6753
    13.6929  13.7975  13.8144  13.9356  14.0651  14.0707  14.0725  14.0907
    14.0950  14.2404  14.2772  14.3644  14.4077  14.5299  14.8262  14.8836
    15.0208  15.1549  15.2460  15.2783  15.2820  15.5618  15.6134  15.7445
    15.7852  15.7949  15.8074  15.8218  15.8618  15.8951  15.9177  15.9186
    15.9300  15.9908  16.0367  16.0803  16.1139  16.1674  16.1803  16.1897
    16.2231  16.2535  16.3122  16.3209  16.3910  16.4494  16.5199  16.5299
    16.5547  16.5698  16.5775  16.5882  16.6270  16.6422  16.6507  16.7821
    16.7868  16.8655  16.9522  16.9640  17.3796  17.3980  17.4251  18.0825
    18.1321  18.1735  18.1984  18.2429  18.3201  18.4221  18.4757  18.5422
    18.5766  18.6099  18.6288  18.6543  18.7364  18.7644  18.7917  18.8203

          k =-0.5000-0.5000-0.5734 ( 31672 PWs)   bands (ev):

   -66.7859 -66.7240 -66.6877 -66.6876 -66.6496 -66.6496 -66.6242 -66.6241
   -66.5795 -62.4243 -62.3768 -62.3768 -62.3470 -62.3470 -62.3457 -62.3457
   -62.3278 -62.2745 -35.5511 -35.5225 -35.5093 -35.5075 -35.4496 -35.4494
   -35.4461 -35.4460 -35.4370 -35.4369 -35.4119 -35.4118 -35.4038 -35.4037
   -35.4019 -35.4019 -35.3799 -35.3798 -35.3777 -35.3776 -35.3753 -35.3752
   -35.3488 -35.3479 -35.3477 -35.3235 -35.3034 -31.2672 -31.2521 -31.2268
   -31.2191 -31.2191 -31.2062 -31.2062 -31.1927 -31.1926 -31.1852 -31.1851
   -31.1818 -31.1817 -31.1817 -31.1816 -31.1747 -31.1746 -31.1691 -31.1530
   -31.1505 -31.1505 -31.1451 -31.1450 -31.1440 -31.1251 -31.0973 -31.0826
     6.8745   6.8920   6.9481   6.9624   6.9853   6.9965   7.0436   7.0534
     8.4467   8.4651   8.4740   8.4821   8.4859   8.4898   8.4910   8.4958
     8.4973   8.5032   8.5059   8.5155   8.5325   8.5422   8.5488   8.5662
     8.5668   8.5769   8.5900   8.6467   8.8747   8.8838   8.8849   8.8971
     8.9033   8.9273   8.9331   8.9490   9.0759   9.0901   9.1181   9.1228
     9.1274   9.1354   9.1399   9.1455   9.1560   9.1581   9.1587   9.1590
     9.1608   9.1730   9.1737   9.1796   9.1802   9.1802   9.1809   9.1824
     9.1829   9.1857   9.1868   9.1911   9.1919   9.2046   9.2049   9.2156
     9.2195   9.2382   9.2523   9.2575   9.2595   9.2603   9.2785   9.2891
     9.5416   9.5508   9.5546   9.5573   9.5996   9.6017   9.6103   9.6275
     9.6419   9.6490   9.6685   9.7053   9.7148   9.7391   9.7849   9.7892
     9.8088   9.8090   9.8555   9.8606   9.8715   9.8849   9.8964   9.9105
    10.1183  10.1206  10.1478  10.1491  10.1719  10.1734  10.2004  10.2013
    10.2705  10.3354  10.4326  10.4334  10.4591  10.4617  10.4806  10.4820
    10.4884  10.4902  10.4982  10.4993  10.5054  10.5118  10.5214  10.5216
    10.5283  10.5300  10.5418  10.5466  10.5845  10.5964  10.5968  10.6152
    10.6206  10.6250  10.6406  10.6418  10.6471  10.6510  10.6646  10.6727
    10.6735  10.6832  10.6836  10.6955  10.7345  10.7479  11.0031  11.0473
    11.0513  11.0821  11.0892  11.1055  11.1418  11.1481  11.3798  11.3853
    11.3872  11.3953  11.4328  11.4349  11.4378  11.4460  11.4522  11.4595
    11.4877  11.4929  11.4986  11.5166  11.5348  11.5669  11.5729  11.6116
    11.6136  11.6393  11.6449  11.6580  11.6657  11.6721  11.6955  11.7092
    11.7193  11.7300  11.7394  11.7687  11.7735  11.7781  11.7859  11.7903
    11.7961  11.8023  11.8229  11.8349  11.8397  11.9377  11.9821  11.9967
    12.0240  12.0625  12.0922  12.1098  12.1162  12.1321  12.1441  12.1598
    12.1900  12.1938  12.1986  12.2224  12.2336  12.2593  12.2608  12.3439
    12.3447  12.3471  12.3784  12.3937  12.4303  12.4316  12.4545  12.4671
    12.4674  12.4888  12.4939  12.5186  12.5443  12.5983  12.6127  12.6447
    12.6551  12.6786  12.6843  12.7016  12.7681  12.8034  12.9005  12.9248
    12.9660  12.9750  12.9786  13.0116  13.0738  13.1410  13.1494  13.1967
    13.2022  13.2232  13.2287  13.2525  13.3518  13.4968  13.5011  13.5172
    13.5435  13.5578  13.6541  13.8664  13.8809  13.9413  14.1008  14.1594
    14.1961  14.2052  14.3314  14.4985  14.8127  14.8911  14.9061  14.9937
    15.0327  15.2313  15.3860  15.3926  15.4221  15.5150  15.6407  15.6411
    15.6976  15.7999  15.8120  15.8364  15.8513  15.8529  15.8970  15.9207
    15.9314  16.0193  16.0452  16.0526  16.1152  16.1189  16.1490  16.2109
    16.2384  16.3161  16.3245  16.4195  16.4534  16.4600  16.4651  16.4842
    16.5249  16.5327  16.5522  16.6484  16.6997  16.7211  16.7622  16.7824
    16.7871  16.8127  16.8364  16.9007  16.9154  16.9234  16.9676  16.9836
    17.1159  17.1274  17.4113  17.6914  17.9580  18.0453  18.9960  19.0004
    19.0357  19.0961  19.1058  19.1127  19.2100  19.2187  19.2194  19.2905

          k =-0.5000 0.0000 0.0000 ( 31722 PWs)   bands (ev):

   -66.7859 -66.7240 -66.6877 -66.6876 -66.6496 -66.6496 -66.6242 -66.6241
   -66.5795 -62.4243 -62.3768 -62.3768 -62.3470 -62.3470 -62.3457 -62.3457
   -62.3278 -62.2745 -35.5511 -35.5225 -35.5093 -35.5075 -35.4496 -35.4494
   -35.4461 -35.4460 -35.4370 -35.4369 -35.4119 -35.4118 -35.4038 -35.4037
   -35.4019 -35.4019 -35.3799 -35.3798 -35.3777 -35.3776 -35.3754 -35.3752
   -35.3488 -35.3479 -35.3477 -35.3235 -35.3034 -31.2672 -31.2521 -31.2268
   -31.2192 -31.2191 -31.2063 -31.2062 -31.1927 -31.1926 -31.1852 -31.1852
   -31.1818 -31.1817 -31.1817 -31.1816 -31.1747 -31.1746 -31.1691 -31.1530
   -31.1505 -31.1504 -31.1451 -31.1450 -31.1440 -31.1251 -31.0973 -31.0826
     6.0317   6.0534   7.4092   7.4350   7.4540   7.4911   7.6717   7.6817
     8.1011   8.1219   8.1436   8.1654   8.1865   8.2397   8.2654   8.2789
     8.3996   8.4192   8.4473   8.4788   8.5936   8.6320   8.6453   8.6581
     8.6711   8.6832   8.7013   8.7030   8.7367   8.8138   8.8218   8.8377
     8.8468   8.8640   8.8692   8.8996   8.9060   8.9101   8.9107   8.9229
     8.9246   8.9283   8.9351   8.9552   9.0448   9.0551   9.1595   9.1719
     9.1916   9.1941   9.2087   9.2266   9.2506   9.2539   9.3164   9.3229
     9.3454   9.3673   9.4033   9.4135   9.4727   9.4794   9.4956   9.5000
     9.5283   9.5465   9.5514   9.5693   9.5761   9.5977   9.6047   9.6092
     9.6196   9.6256   9.6260   9.6306   9.6335   9.6407   9.6516   9.6611
     9.6671   9.6709   9.6756   9.6825   9.6874   9.7218   9.7240   9.7393
     9.7604   9.7638   9.7678   9.7852   9.8907   9.8967   9.9029  10.0038
    10.0146  10.0306  10.1561  10.1838  10.2110  10.2283  10.2518  10.2549
    10.2613  10.2728  10.2751  10.2757  10.2851  10.2890  10.3355  10.3563
    10.3722  10.3794  10.3860  10.3927  10.4200  10.4390  10.4617  10.4732
    10.5000  10.5048  10.5165  10.5313  10.5422  10.5787  10.5794  10.5986
    10.6180  10.6388  10.6694  10.7021  10.7135  10.7303  10.7377  10.7631
    10.8049  10.8306  10.8343  10.8473  10.8611  10.8743  10.9109  10.9439
    10.9519  11.0145  11.0191  11.0234  11.0345  11.1086  11.1614  11.1916
    11.2915  11.3200  11.3451  11.3528  11.3714  11.3830  11.4092  11.4140
    11.4236  11.4508  11.4642  11.4778  11.5118  11.5458  11.5556  11.5678
    11.5793  11.6145  11.6170  11.6389  11.6434  11.6449  11.6610  11.7324
    11.7625  11.7699  11.7960  11.8107  11.8197  11.8281  11.8403  11.8414
    11.8817  11.8932  11.9008  11.9281  11.9458  11.9462  11.9540  11.9648
    11.9680  11.9860  12.0137  12.0190  12.0911  12.1262  12.1520  12.1698
    12.1903  12.2126  12.2286  12.2539  12.2689  12.2717  12.2784  12.2874
    12.2946  12.3050  12.3147  12.3242  12.3584  12.3644  12.3972  12.4156
    12.4169  12.4504  12.4823  12.4969  12.5024  12.5139  12.5286  12.5677
    12.5711  12.6051  12.6121  12.6402  12.6424  12.6600  12.7116  12.7559
    12.8336  12.8835  13.0246  13.0617  13.0824  13.0891  13.1217  13.1294
    13.1671  13.2063  13.2117  13.2196  13.2477  13.2709  13.3401  13.3492
    13.4301  13.4603  13.4844  13.7219  13.7867  14.2614  14.5321  14.5430
    14.6594  14.7026  14.7534  14.7834  14.8365  14.8639  14.9194  14.9605
    15.0542  15.1391  15.1673  15.3324  15.3624  15.4594  15.5102  15.6438
    15.6617  15.7236  15.7893  15.8307  15.8538  15.8721  15.9266  15.9953
    16.0297  16.0402  16.0767  16.0875  16.1080  16.1603  16.1717  16.1825
    16.2078  16.2170  16.2191  16.2317  16.2839  16.2909  16.3297  16.3971
    16.4359  16.4411  16.5630  16.6504  16.7275  16.7700  17.0204  17.1038
    17.1426  17.1841  17.2114  17.3711  17.4386  17.5015  17.6329  17.6419
    17.6890  17.7559  17.7793  17.8020  17.8320  17.8517  17.9614  17.9652
    18.0462  18.0928  18.1587  18.2474  19.2435  19.2891  19.3099  19.3361

          k =-0.5000 0.0000 0.5734 ( 31696 PWs)   bands (ev):

   -66.7859 -66.7240 -66.6877 -66.6876 -66.6496 -66.6496 -66.6242 -66.6241
   -66.5795 -62.4243 -62.3768 -62.3768 -62.3470 -62.3470 -62.3457 -62.3457
   -62.3278 -62.2745 -35.5511 -35.5225 -35.5093 -35.5075 -35.4496 -35.4494
   -35.4461 -35.4460 -35.4370 -35.4369 -35.4119 -35.4118 -35.4038 -35.4037
   -35.4019 -35.4019 -35.3799 -35.3798 -35.3777 -35.3776 -35.3754 -35.3752
   -35.3488 -35.3479 -35.3477 -35.3235 -35.3034 -31.2672 -31.2521 -31.2268
   -31.2192 -31.2191 -31.2063 -31.2062 -31.1927 -31.1926 -31.1852 -31.1852
   -31.1818 -31.1817 -31.1817 -31.1816 -31.1747 -31.1746 -31.1691 -31.1530
   -31.1505 -31.1504 -31.1451 -31.1450 -31.1440 -31.1251 -31.0973 -31.0826
     6.5144   6.5636   6.6146   6.6450   7.8253   7.8299   7.8706   7.8884
     7.8917   7.9110   7.9479   7.9538   8.2635   8.2829   8.2981   8.3043
     8.5133   8.5286   8.5331   8.5335   8.6511   8.6660   8.6725   8.6859
     8.6909   8.7020   8.7078   8.7110   8.7132   8.7219   8.7426   8.7454
     8.7619   8.7860   8.8001   8.8215   8.9377   8.9861   9.0244   9.0331
     9.0405   9.0586   9.0605   9.0772   9.1760   9.2013   9.2070   9.2203
     9.2243   9.2251   9.2297   9.2322   9.2428   9.2508   9.2534   9.2603
     9.2661   9.2770   9.2800   9.2847   9.3129   9.3585   9.3800   9.3866
     9.4192   9.4274   9.4338   9.4506   9.4591   9.4703   9.4764   9.4817
     9.4839   9.4860   9.4901   9.5134   9.5350   9.5451   9.5527   9.5806
     9.5893   9.6273   9.7516   9.7635   9.7801   9.7847   9.8029   9.8180
     9.8376   9.8437   9.8443   9.8494   9.8551   9.8612   9.8886   9.8923
     9.9456   9.9722   9.9865  10.0073  10.0305  10.0469  10.0582  10.0684
    10.3638  10.3812  10.4003  10.4094  10.4119  10.4164  10.4171  10.4274
    10.4458  10.4657  10.4839  10.4862  10.4881  10.4952  10.5095  10.5390
    10.5586  10.5636  10.5713  10.5756  10.5851  10.6028  10.6035  10.6242
    10.6381  10.6438  10.6711  10.6777  10.6827  10.6966  10.6982  10.7054
    10.7379  10.8706  10.8723  10.9127  10.9826  11.0123  11.0270  11.0894
    11.1152  11.1233  11.1503  11.1598  11.1693  11.1864  11.1977  11.2110
    11.2131  11.2146  11.2861  11.3045  11.3378  11.3420  11.3511  11.3667
    11.3723  11.3780  11.3828  11.4301  11.4437  11.4737  11.4968  11.5152
    11.5421  11.5547  11.5701  11.5744  11.5801  11.5897  11.5924  11.5995
    11.6134  11.6368  11.6934  11.7214  11.7389  11.7651  11.8009  11.8093
    11.8891  11.9030  11.9076  11.9353  11.9645  11.9657  11.9852  11.9928
    12.0095  12.0192  12.0283  12.0386  12.0394  12.0432  12.1137  12.1156
    12.1175  12.1298  12.1417  12.2427  12.2636  12.2848  12.2905  12.2982
    12.3847  12.4022  12.4158  12.4388  12.4421  12.4683  12.4800  12.4860
    12.4952  12.5047  12.5197  12.5491  12.5515  12.5584  12.5980  12.6325
    12.6405  12.6620  12.6721  12.7311  12.7727  12.7991  12.8215  12.8439
    12.8782  12.9022  12.9686  12.9878  13.0083  13.0481  13.0621  13.0682
    13.1694  13.2355  13.2969  13.3954  13.5845  13.6467  13.7239  13.8265
    13.8416  13.8732  13.8736  13.9870  14.0390  14.2518  14.2800  14.3058
    14.3198  14.4610  14.5276  14.5721  14.5958  14.6906  14.7349  15.1708
    15.1746  15.1982  15.2515  15.3385  15.3761  15.4755  15.5853  15.6283
    15.6384  15.6517  15.7173  15.7688  15.8344  16.0136  16.0396  16.0784
    16.1070  16.1107  16.1214  16.1503  16.1909  16.2179  16.2445  16.2643
    16.2773  16.2806  16.2943  16.3172  16.3680  16.3683  16.3824  16.4428
    16.5242  16.5457  16.5629  16.5953  16.5987  16.6071  16.6326  16.6613
    16.7107  16.7505  16.7927  16.8164  16.8753  16.9180  16.9950  17.0148
    17.0596  17.1136  17.1897  17.2354  18.5923  18.6838  18.7423  18.7870
    18.7916  18.8108  18.8207  18.8499  18.8658  18.9181  18.9619  19.0182

 ------ SPIN DOWN ----------


          k = 0.0000 0.0000 0.0000 ( 31747 PWs)   bands (ev):

   -66.7860 -66.7240 -66.6876 -66.6876 -66.6496 -66.6496 -66.6241 -66.6241
   -66.5795 -62.4243 -62.3768 -62.3768 -62.3470 -62.3470 -62.3458 -62.3457
   -62.3278 -62.2745 -35.5511 -35.5225 -35.5093 -35.5074 -35.4496 -35.4494
   -35.4460 -35.4459 -35.4369 -35.4368 -35.4119 -35.4118 -35.4038 -35.4038
   -35.4019 -35.4019 -35.3798 -35.3797 -35.3776 -35.3775 -35.3754 -35.3752
   -35.3489 -35.3478 -35.3477 -35.3236 -35.3034 -31.2671 -31.2520 -31.2268
   -31.2192 -31.2192 -31.2064 -31.2063 -31.1926 -31.1926 -31.1853 -31.1851
   -31.1818 -31.1817 -31.1816 -31.1816 -31.1746 -31.1746 -31.1691 -31.1530
   -31.1505 -31.1504 -31.1451 -31.1450 -31.1440 -31.1251 -31.0973 -31.0826
     5.6149   7.1494   7.1690   7.1886   7.2025   7.3652   7.8641   7.9012
     7.9032   7.9363   8.0854   8.1244   8.1300   8.1601   8.1786   8.2585
     8.2595   8.2923   8.2974   8.5302   8.5571   8.5628   8.5727   8.5814
     8.6083   8.8551   8.8675   8.8690   8.8903   8.8945   8.8987   8.8990
     8.9037   8.9084   8.9128   8.9209   8.9367   8.9393   8.9434   8.9565
     8.9879   9.0852   9.1189   9.1259   9.1287   9.1360   9.1578   9.1690
     9.1835   9.1957   9.2073   9.2641   9.2865   9.2944   9.3006   9.3570
     9.3616   9.3635   9.3793   9.3860   9.3897   9.3947   9.3997   9.4317
     9.4448   9.4481   9.4512   9.4658   9.4683   9.4734   9.4824   9.5821
     9.5826   9.5889   9.5954   9.6096   9.6100   9.6557   9.6668   9.6675
     9.6723   9.6737   9.6785   9.7527   9.7599   9.7614   9.7862   9.8499
     9.8516   9.9261   9.9290   9.9490   9.9510   9.9527   9.9963  10.0216
    10.0997  10.1362  10.1534  10.1711  10.2881  10.2957  10.2982  10.2998
    10.3061  10.3078  10.3104  10.3136  10.3226  10.3338  10.3341  10.3456
    10.3476  10.3526  10.3584  10.3594  10.3614  10.3662  10.3745  10.3857
    10.3958  10.5123  10.5149  10.5343  10.5533  10.6380  10.6400  10.6583
    10.7657  10.7758  10.7863  10.7881  10.8102  10.8149  10.8380  10.8433
    10.8493  10.8534  10.8718  10.8753  10.8772  10.8895  10.8899  10.9125
    10.9181  10.9551  11.0326  11.0395  11.0779  11.0793  11.2057  11.2210
    11.2232  11.2310  11.2406  11.2565  11.2915  11.3461  11.3655  11.3677
    11.3726  11.3806  11.3839  11.3931  11.4019  11.4130  11.4131  11.4290
    11.4427  11.4821  11.5700  11.5731  11.5769  11.5908  11.5946  11.5952
    11.6010  11.6451  11.6507  11.6654  11.7287  11.7373  11.7385  11.7494
    11.8247  11.8286  11.8393  11.8423  11.8725  11.8847  11.9224  11.9262
    11.9508  11.9631  12.0995  12.1024  12.1034  12.1081  12.1190  12.1392
    12.1458  12.1470  12.1473  12.1498  12.1580  12.1739  12.2117  12.2366
    12.3107  12.3183  12.3190  12.3336  12.3436  12.3553  12.3712  12.3841
    12.4235  12.4353  12.4354  12.4710  12.4825  12.4978  12.5068  12.5110
    12.5181  12.5260  12.5627  12.5653  12.6042  12.6380  12.6744  12.7170
    12.7190  12.7426  12.8961  12.9335  12.9953  13.0241  13.0768  13.1009
    13.1163  13.1269  13.1497  13.1743  13.4025  13.4862  13.7463  13.7592
    13.8631  13.9255  14.0068  14.2334  14.2554  14.2930  14.3409  14.3566
    14.8773  14.9066  15.0020  15.0141  15.1342  15.2020  15.2021  15.2385
    15.3274  15.3281  15.3363  15.3880  15.4196  15.4517  15.4908  15.5233
    15.5743  15.6059  15.7287  15.7983  15.8488  15.9281  15.9728  16.0289
    16.0495  16.0662  16.0877  16.1262  16.1448  16.1557  16.1561  16.1671
    16.2177  16.2894  16.3050  16.3245  16.3298  16.3432  16.3831  16.3925
    16.4387  16.4995  16.5316  16.5821  16.6567  16.7599  16.8171  16.8222
    16.9159  17.0340  17.1810  17.2160  17.2304  17.2330  17.2541  17.3985
    17.4800  17.4942  17.8608  17.9141  17.9317  17.9408  17.9502  17.9667
    18.0384  18.3192  18.3465  19.0045  19.0595  19.0945  19.1467  19.1695

          k = 0.0000 0.0000-0.5734 ( 31692 PWs)   bands (ev):

   -66.7860 -66.7240 -66.6876 -66.6876 -66.6496 -66.6496 -66.6241 -66.6241
   -66.5795 -62.4243 -62.3768 -62.3768 -62.3470 -62.3470 -62.3458 -62.3457
   -62.3278 -62.2745 -35.5511 -35.5225 -35.5093 -35.5074 -35.4496 -35.4494
   -35.4460 -35.4459 -35.4369 -35.4368 -35.4119 -35.4118 -35.4038 -35.4038
   -35.4019 -35.4019 -35.3798 -35.3797 -35.3776 -35.3775 -35.3754 -35.3752
   -35.3489 -35.3478 -35.3477 -35.3236 -35.3034 -31.2671 -31.2520 -31.2268
   -31.2192 -31.2192 -31.2064 -31.2063 -31.1926 -31.1926 -31.1853 -31.1851
   -31.1818 -31.1817 -31.1816 -31.1816 -31.1746 -31.1746 -31.1691 -31.1530
   -31.1505 -31.1504 -31.1451 -31.1450 -31.1440 -31.1251 -31.0973 -31.0826
     6.1378   6.2343   7.5196   7.5405   7.5498   7.5629   7.5984   7.6106
     7.6296   7.6476   8.2982   8.3006   8.3439   8.3461   8.3463   8.3723
     8.4036   8.4073   8.4634   8.4638   8.4734   8.4761   8.4868   8.4877
     8.5141   8.5183   8.6857   8.7256   8.7294   8.8192   8.9324   8.9352
     8.9676   8.9691   8.9775   8.9823   9.0028   9.0045   9.0154   9.0181
     9.0367   9.0471   9.0493   9.0568   9.0912   9.1016   9.1910   9.1963
     9.2174   9.2235   9.2606   9.2653   9.2653   9.2705   9.2748   9.2800
     9.2889   9.2945   9.2967   9.3066   9.3114   9.3137   9.4123   9.4152
     9.4237   9.4256   9.4325   9.4328   9.4341   9.4477   9.4506   9.4683
     9.4689   9.5019   9.5129   9.5208   9.5502   9.5576   9.5885   9.7225
     9.7705   9.7919   9.7952   9.7953   9.8211   9.8287   9.8456   9.8507
     9.8740   9.8747   9.8804   9.8840   9.8851   9.8882   9.8903   9.8907
    10.0550  10.0562  10.0666  10.0667  10.1303  10.1326  10.1385  10.1559
    10.1660  10.1711  10.1996  10.2125  10.2215  10.2227  10.3473  10.3740
    10.3784  10.3967  10.4011  10.4035  10.4160  10.4344  10.4390  10.5495
    10.5897  10.5901  10.6024  10.6093  10.6177  10.6301  10.6398  10.6399
    10.6728  10.6935  10.7189  10.7536  10.7661  10.8182  10.8596  10.8999
    10.9478  10.9507  10.9867  11.0033  11.0257  11.0263  11.0392  11.0657
    11.0843  11.0919  11.1008  11.1100  11.1696  11.1838  11.1838  11.2063
    11.2331  11.2341  11.2469  11.2547  11.2582  11.2601  11.2654  11.2675
[...]
    11.6134  11.6368  11.6934  11.7214  11.7389  11.7651  11.8009  11.8093
    11.8891  11.9030  11.9076  11.9353  11.9645  11.9657  11.9852  11.9928
    12.0095  12.0193  12.0283  12.0386  12.0394  12.0432  12.1137  12.1156
    12.1175  12.1298  12.1417  12.2427  12.2636  12.2848  12.2905  12.2982
    12.3847  12.4023  12.4158  12.4389  12.4421  12.4683  12.4800  12.4861
    12.4952  12.5047  12.5197  12.5491  12.5515  12.5584  12.5980  12.6325
    12.6405  12.6620  12.6722  12.7311  12.7728  12.7991  12.8216  12.8440
    12.8782  12.9022  12.9686  12.9878  13.0083  13.0481  13.0621  13.0682
    13.1694  13.2355  13.2969  13.3954  13.5845  13.6467  13.7239  13.8265
    13.8416  13.8732  13.8736  13.9870  14.0390  14.2518  14.2800  14.3058
    14.3198  14.4610  14.5276  14.5721  14.5958  14.6906  14.7349  15.1708
    15.1746  15.1982  15.2515  15.3385  15.3761  15.4755  15.5853  15.6283
    15.6384  15.6517  15.7173  15.7687  15.8344  16.0136  16.0396  16.0784
    16.1070  16.1107  16.1214  16.1503  16.1908  16.2178  16.2445  16.2642
    16.2772  16.2806  16.2943  16.3171  16.3680  16.3683  16.3824  16.4428
    16.5242  16.5456  16.5629  16.5953  16.5987  16.6071  16.6325  16.6613
    16.7107  16.7505  16.7927  16.8164  16.8753  16.9180  16.9951  17.0148
    17.0597  17.1136  17.1897  17.2354  18.5923  18.6838  18.7423  18.7870
    18.7916  18.8108  18.8207  18.8499  18.8658  18.9181  18.9619  19.0182

          k =-0.5000-0.5000 0.0000 ( 31612 PWs)   bands (ev):

   -66.7860 -66.7240 -66.6876 -66.6876 -66.6496 -66.6496 -66.6241 -66.6241
   -66.5795 -62.4243 -62.3768 -62.3768 -62.3470 -62.3470 -62.3458 -62.3457
   -62.3278 -62.2745 -35.5511 -35.5225 -35.5093 -35.5074 -35.4496 -35.4494
   -35.4460 -35.4459 -35.4369 -35.4368 -35.4119 -35.4118 -35.4038 -35.4038
   -35.4019 -35.4019 -35.3798 -35.3797 -35.3776 -35.3775 -35.3753 -35.3753
   -35.3489 -35.3478 -35.3477 -35.3236 -35.3034 -31.2671 -31.2521 -31.2268
   -31.2192 -31.2191 -31.2062 -31.2062 -31.1927 -31.1926 -31.1853 -31.1851
   -31.1818 -31.1817 -31.1817 -31.1816 -31.1747 -31.1746 -31.1691 -31.1530
   -31.1505 -31.1504 -31.1451 -31.1450 -31.1440 -31.1251 -31.0973 -31.0826
     6.4074   6.4406   6.4453   6.4669   8.0041   8.0196   8.0207   8.0265
     8.0781   8.1400   8.2981   8.3233   8.3272   8.3329   8.3401   8.3482
     8.3502   8.3534   8.3643   8.3647   8.3742   8.3804   8.5640   8.5858
     8.6041   8.6650   8.6911   8.7145   8.7228   8.7244   8.7363   8.7482
     8.7601   8.7856   8.9136   8.9153   8.9590   8.9603   8.9761   8.9765
     8.9784   9.0023   9.0094   9.0133   9.0171   9.0256   9.0494   9.0504
     9.1024   9.1463   9.3044   9.3170   9.3184   9.3231   9.4038   9.4044
     9.4115   9.4141   9.4170   9.4229   9.4253   9.4304   9.4382   9.4418
     9.4538   9.4629   9.4768   9.4797   9.4883   9.5023   9.5241   9.5258
     9.5296   9.5340   9.5466   9.5472   9.5633   9.5672   9.5804   9.5820
     9.5978   9.6082   9.6979   9.6979   9.7868   9.8123   9.8190   9.8308
     9.8324   9.8334   9.8345   9.8496   9.8531   9.8689  10.0333  10.0563
    10.0765  10.0819  10.1124  10.1275  10.1426  10.1477  10.1562  10.1623
    10.1770  10.1886  10.2021  10.2191  10.2200  10.2299  10.2309  10.2328
    10.2392  10.2439  10.2573  10.2579  10.4575  10.4652  10.4693  10.4803
    10.4876  10.4972  10.5070  10.5347  10.6147  10.6265  10.6646  10.6654
    10.6697  10.6741  10.6758  10.6808  10.6833  10.6862  10.6958  10.7101
    10.7392  10.7415  10.8027  10.8190  10.8292  10.8474  10.8613  10.8658
    10.8997  10.9154  11.1991  11.2133  11.2167  11.2176  11.2906  11.3172
    11.3203  11.3268  11.3699  11.3841  11.3984  11.4056  11.5490  11.5703
    11.6009  11.6243  11.6387  11.6388  11.6411  11.6454  11.6469  11.6553
    11.6574  11.6606  11.6769  11.7051  11.7156  11.7241  11.7406  11.8758
    11.8784  11.8807  11.8841  11.8870  11.8908  11.9458  12.0075  12.0491
    12.0513  12.0640  12.0855  12.0963  12.1042  12.1052  12.1058  12.1069
    12.1131  12.1133  12.1242  12.1300  12.1301  12.1419  12.1463  12.1533
    12.1839  12.1997  12.2349  12.2401  12.2454  12.2514  12.2676  12.2705
    12.2720  12.2752  12.2765  12.2882  12.2887  12.2971  12.3104  12.3287
    12.3331  12.3357  12.3619  12.3970  12.4186  12.4333  12.4754  12.4821
    12.5057  12.5601  12.5870  12.6334  12.6466  12.6705  12.6847  12.6866
    12.7207  12.7215  12.7477  12.8694  12.8837  12.9124  12.9224  12.9496
    12.9777  13.0048  13.0266  13.0504  13.0716  13.5728  13.6746  13.6753
    13.6930  13.7975  13.8144  13.9356  14.0651  14.0707  14.0726  14.0907
    14.0950  14.2404  14.2772  14.3644  14.4077  14.5299  14.8262  14.8836
    15.0208  15.1549  15.2460  15.2783  15.2820  15.5618  15.6133  15.7445
    15.7852  15.7948  15.8075  15.8218  15.8619  15.8951  15.9177  15.9186
    15.9300  15.9908  16.0367  16.0803  16.1139  16.1674  16.1802  16.1897
    16.2230  16.2535  16.3123  16.3209  16.3910  16.4494  16.5199  16.5299
    16.5548  16.5697  16.5775  16.5881  16.6270  16.6421  16.6508  16.7821
    16.7868  16.8655  16.9522  16.9640  17.3796  17.3980  17.4251  18.0825
    18.1321  18.1735  18.1984  18.2429  18.3201  18.4221  18.4757  18.5422
    18.5766  18.6099  18.6288  18.6543  18.7364  18.7644  18.7917  18.8203

          k =-0.5000-0.5000-0.5734 ( 31672 PWs)   bands (ev):

   -66.7860 -66.7240 -66.6876 -66.6876 -66.6496 -66.6496 -66.6241 -66.6241
   -66.5795 -62.4243 -62.3768 -62.3768 -62.3470 -62.3470 -62.3458 -62.3457
   -62.3278 -62.2745 -35.5511 -35.5225 -35.5093 -35.5074 -35.4496 -35.4494
   -35.4460 -35.4459 -35.4369 -35.4368 -35.4119 -35.4118 -35.4038 -35.4038
   -35.4019 -35.4019 -35.3798 -35.3797 -35.3776 -35.3775 -35.3753 -35.3753
   -35.3489 -35.3478 -35.3477 -35.3236 -35.3034 -31.2671 -31.2521 -31.2268
   -31.2192 -31.2191 -31.2062 -31.2062 -31.1927 -31.1926 -31.1853 -31.1851
   -31.1818 -31.1817 -31.1817 -31.1816 -31.1747 -31.1746 -31.1691 -31.1530
   -31.1505 -31.1504 -31.1451 -31.1450 -31.1440 -31.1251 -31.0973 -31.0826
     6.8745   6.8920   6.9481   6.9624   6.9853   6.9965   7.0436   7.0534
     8.4467   8.4651   8.4740   8.4821   8.4859   8.4899   8.4910   8.4958
     8.4973   8.5032   8.5059   8.5155   8.5325   8.5422   8.5488   8.5662
     8.5668   8.5769   8.5900   8.6467   8.8747   8.8838   8.8849   8.8971
     8.9033   8.9273   8.9331   8.9490   9.0760   9.0901   9.1181   9.1228
     9.1274   9.1354   9.1399   9.1455   9.1560   9.1581   9.1587   9.1590
     9.1608   9.1730   9.1737   9.1796   9.1802   9.1802   9.1809   9.1824
     9.1830   9.1857   9.1868   9.1911   9.1919   9.2046   9.2049   9.2156
     9.2195   9.2382   9.2523   9.2574   9.2595   9.2603   9.2785   9.2891
     9.5416   9.5508   9.5546   9.5573   9.5997   9.6017   9.6103   9.6275
     9.6419   9.6490   9.6685   9.7053   9.7147   9.7391   9.7849   9.7892
     9.8088   9.8090   9.8555   9.8606   9.8715   9.8849   9.8964   9.9105
    10.1183  10.1206  10.1478  10.1491  10.1719  10.1734  10.2004  10.2013
    10.2705  10.3354  10.4327  10.4334  10.4591  10.4617  10.4806  10.4820
    10.4884  10.4902  10.4982  10.4992  10.5054  10.5118  10.5214  10.5217
    10.5283  10.5300  10.5418  10.5466  10.5845  10.5964  10.5968  10.6152
    10.6206  10.6250  10.6406  10.6418  10.6471  10.6510  10.6646  10.6727
    10.6735  10.6832  10.6836  10.6955  10.7345  10.7479  11.0031  11.0473
    11.0513  11.0821  11.0892  11.1055  11.1418  11.1480  11.3798  11.3853
    11.3873  11.3953  11.4328  11.4349  11.4378  11.4460  11.4522  11.4595
    11.4877  11.4929  11.4986  11.5166  11.5348  11.5669  11.5729  11.6116
    11.6136  11.6393  11.6449  11.6580  11.6657  11.6721  11.6955  11.7092
    11.7193  11.7300  11.7394  11.7687  11.7735  11.7781  11.7859  11.7903
    11.7961  11.8023  11.8229  11.8349  11.8397  11.9376  11.9821  11.9968
    12.0241  12.0625  12.0922  12.1098  12.1162  12.1322  12.1441  12.1598
    12.1900  12.1938  12.1986  12.2224  12.2336  12.2593  12.2608  12.3439
    12.3447  12.3471  12.3784  12.3938  12.4303  12.4316  12.4545  12.4672
    12.4674  12.4888  12.4939  12.5187  12.5442  12.5983  12.6127  12.6448
    12.6551  12.6786  12.6843  12.7016  12.7682  12.8034  12.9005  12.9248
    12.9660  12.9750  12.9786  13.0116  13.0738  13.1410  13.1494  13.1967
    13.2023  13.2232  13.2287  13.2525  13.3518  13.4968  13.5011  13.5172
    13.5436  13.5578  13.6541  13.8664  13.8809  13.9413  14.1008  14.1594
    14.1961  14.2052  14.3314  14.4985  14.8127  14.8911  14.9061  14.9938
    15.0327  15.2313  15.3860  15.3926  15.4221  15.5150  15.6407  15.6411
    15.6976  15.7999  15.8120  15.8364  15.8512  15.8528  15.8970  15.9206
    15.9314  16.0193  16.0452  16.0526  16.1153  16.1188  16.1490  16.2109
    16.2383  16.3161  16.3245  16.4195  16.4534  16.4600  16.4651  16.4842
    16.5248  16.5326  16.5521  16.6484  16.6997  16.7211  16.7622  16.7824
    16.7871  16.8127  16.8364  16.9007  16.9154  16.9233  16.9676  16.9837
    17.1159  17.1274  17.4113  17.6914  17.9580  18.0453  18.9960  19.0004
    19.0357  19.0961  19.1057  19.1127  19.2100  19.2187  19.2194  19.2905

          k =-0.5000 0.0000 0.0000 ( 31722 PWs)   bands (ev):

   -66.7860 -66.7240 -66.6876 -66.6876 -66.6496 -66.6496 -66.6241 -66.6241
   -66.5795 -62.4243 -62.3768 -62.3768 -62.3470 -62.3470 -62.3458 -62.3457
   -62.3278 -62.2745 -35.5511 -35.5225 -35.5093 -35.5074 -35.4496 -35.4494
   -35.4460 -35.4459 -35.4369 -35.4368 -35.4119 -35.4118 -35.4038 -35.4038
   -35.4019 -35.4019 -35.3798 -35.3798 -35.3776 -35.3775 -35.3753 -35.3753
   -35.3489 -35.3478 -35.3477 -35.3236 -35.3034 -31.2671 -31.2521 -31.2268
   -31.2192 -31.2192 -31.2063 -31.2062 -31.1927 -31.1926 -31.1852 -31.1852
   -31.1818 -31.1817 -31.1817 -31.1816 -31.1747 -31.1746 -31.1691 -31.1530
   -31.1505 -31.1504 -31.1451 -31.1450 -31.1440 -31.1251 -31.0973 -31.0826
     6.0317   6.0534   7.4092   7.4349   7.4540   7.4912   7.6717   7.6817
     8.1011   8.1219   8.1436   8.1654   8.1864   8.2397   8.2654   8.2789
     8.3996   8.4191   8.4473   8.4788   8.5936   8.6320   8.6454   8.6581
     8.6710   8.6832   8.7012   8.7029   8.7367   8.8138   8.8218   8.8377
     8.8468   8.8640   8.8692   8.8996   8.9060   8.9101   8.9107   8.9229
     8.9246   8.9283   8.9351   8.9552   9.0448   9.0551   9.1595   9.1719
     9.1916   9.1941   9.2087   9.2266   9.2506   9.2539   9.3164   9.3229
     9.3455   9.3672   9.4033   9.4135   9.4727   9.4794   9.4956   9.5000
     9.5283   9.5465   9.5514   9.5693   9.5761   9.5977   9.6047   9.6092
     9.6196   9.6255   9.6260   9.6307   9.6335   9.6406   9.6516   9.6611
     9.6670   9.6709   9.6756   9.6825   9.6873   9.7218   9.7240   9.7393
     9.7605   9.7638   9.7678   9.7853   9.8907   9.8967   9.9029  10.0038
    10.0146  10.0307  10.1561  10.1838  10.2110  10.2282  10.2518  10.2549
    10.2613  10.2729  10.2751  10.2758  10.2851  10.2890  10.3355  10.3564
    10.3722  10.3794  10.3860  10.3927  10.4200  10.4390  10.4617  10.4732
    10.5000  10.5048  10.5165  10.5314  10.5422  10.5787  10.5794  10.5986
    10.6179  10.6388  10.6695  10.7021  10.7135  10.7303  10.7377  10.7631
    10.8049  10.8306  10.8343  10.8473  10.8611  10.8743  10.9109  10.9440
    10.9519  11.0144  11.0190  11.0234  11.0345  11.1086  11.1614  11.1916
    11.2915  11.3200  11.3451  11.3528  11.3714  11.3830  11.4092  11.4141
    11.4236  11.4508  11.4642  11.4779  11.5119  11.5458  11.5556  11.5678
    11.5793  11.6145  11.6171  11.6389  11.6434  11.6449  11.6610  11.7324
    11.7625  11.7699  11.7960  11.8107  11.8197  11.8281  11.8403  11.8414
    11.8817  11.8932  11.9008  11.9281  11.9458  11.9462  11.9540  11.9649
    11.9680  11.9860  12.0136  12.0190  12.0912  12.1261  12.1520  12.1698
    12.1903  12.2126  12.2286  12.2538  12.2690  12.2717  12.2784  12.2874
    12.2946  12.3050  12.3146  12.3243  12.3584  12.3644  12.3972  12.4156
    12.4170  12.4504  12.4824  12.4969  12.5023  12.5139  12.5286  12.5677
    12.5711  12.6050  12.6121  12.6402  12.6424  12.6601  12.7116  12.7560
    12.8337  12.8835  13.0246  13.0618  13.0824  13.0891  13.1217  13.1294
    13.1672  13.2062  13.2118  13.2196  13.2476  13.2709  13.3402  13.3493
    13.4301  13.4603  13.4845  13.7219  13.7867  14.2613  14.5320  14.5431
    14.6594  14.7026  14.7534  14.7834  14.8365  14.8639  14.9194  14.9604
    15.0542  15.1391  15.1672  15.3324  15.3624  15.4593  15.5102  15.6437
    15.6617  15.7236  15.7893  15.8307  15.8538  15.8721  15.9265  15.9952
    16.0297  16.0401  16.0767  16.0876  16.1081  16.1603  16.1717  16.1825
    16.2077  16.2170  16.2191  16.2317  16.2839  16.2909  16.3296  16.3971
    16.4359  16.4411  16.5630  16.6504  16.7274  16.7699  17.0204  17.1038
    17.1426  17.1841  17.2114  17.3711  17.4387  17.5015  17.6329  17.6419
    17.6891  17.7559  17.7793  17.8020  17.8320  17.8517  17.9614  17.9652
    18.0462  18.0928  18.1587  18.2474  19.2434  19.2890  19.3099  19.3362

          k =-0.5000 0.0000 0.5734 ( 31696 PWs)   bands (ev):

   -66.7860 -66.7240 -66.6876 -66.6876 -66.6496 -66.6496 -66.6241 -66.6241
   -66.5795 -62.4243 -62.3768 -62.3768 -62.3470 -62.3470 -62.3458 -62.3457
   -62.3278 -62.2745 -35.5511 -35.5225 -35.5093 -35.5074 -35.4496 -35.4494
   -35.4460 -35.4459 -35.4369 -35.4368 -35.4119 -35.4118 -35.4038 -35.4038
   -35.4019 -35.4019 -35.3798 -35.3798 -35.3776 -35.3775 -35.3753 -35.3753
   -35.3489 -35.3478 -35.3477 -35.3236 -35.3034 -31.2671 -31.2521 -31.2268
   -31.2192 -31.2192 -31.2063 -31.2062 -31.1927 -31.1926 -31.1852 -31.1852
   -31.1818 -31.1817 -31.1817 -31.1816 -31.1747 -31.1746 -31.1691 -31.1530
   -31.1505 -31.1504 -31.1451 -31.1450 -31.1440 -31.1251 -31.0973 -31.0826
     6.5144   6.5636   6.6145   6.6450   7.8254   7.8298   7.8706   7.8883
     7.8918   7.9110   7.9480   7.9538   8.2635   8.2829   8.2981   8.3043
     8.5133   8.5285   8.5331   8.5335   8.6511   8.6659   8.6726   8.6859
     8.6909   8.7019   8.7079   8.7110   8.7131   8.7219   8.7426   8.7454
     8.7619   8.7860   8.8001   8.8214   8.9377   8.9861   9.0245   9.0330
     9.0405   9.0586   9.0604   9.0773   9.1760   9.2013   9.2070   9.2203
     9.2242   9.2250   9.2298   9.2322   9.2428   9.2508   9.2535   9.2604
     9.2662   9.2770   9.2799   9.2846   9.3129   9.3584   9.3801   9.3866
     9.4192   9.4274   9.4339   9.4506   9.4591   9.4703   9.4764   9.4818
     9.4839   9.4859   9.4902   9.5134   9.5350   9.5451   9.5527   9.5806
     9.5893   9.6273   9.7516   9.7635   9.7800   9.7847   9.8029   9.8181
     9.8375   9.8438   9.8444   9.8493   9.8551   9.8610   9.8887   9.8923
     9.9456   9.9722   9.9865  10.0073  10.0305  10.0470  10.0582  10.0683
    10.3638  10.3812  10.4003  10.4094  10.4119  10.4164  10.4171  10.4274
    10.4458  10.4657  10.4839  10.4862  10.4881  10.4952  10.5096  10.5390
    10.5587  10.5636  10.5713  10.5756  10.5850  10.6028  10.6035  10.6242
    10.6381  10.6439  10.6711  10.6777  10.6826  10.6966  10.6982  10.7054
    10.7378  10.8706  10.8724  10.9127  10.9825  11.0124  11.0269  11.0894
    11.1152  11.1232  11.1503  11.1599  11.1693  11.1864  11.1978  11.2110
    11.2131  11.2146  11.2861  11.3045  11.3378  11.3420  11.3511  11.3667
    11.3722  11.3780  11.3828  11.4301  11.4437  11.4737  11.4968  11.5152
    11.5421  11.5547  11.5701  11.5744  11.5800  11.5897  11.5924  11.5995
    11.6134  11.6367  11.6934  11.7214  11.7390  11.7651  11.8010  11.8093
    11.8891  11.9030  11.9076  11.9353  11.9645  11.9657  11.9852  11.9927
    12.0095  12.0193  12.0284  12.0386  12.0395  12.0432  12.1137  12.1156
    12.1175  12.1298  12.1417  12.2428  12.2636  12.2848  12.2905  12.2982
    12.3847  12.4022  12.4158  12.4388  12.4421  12.4683  12.4800  12.4861
    12.4952  12.5048  12.5197  12.5491  12.5515  12.5584  12.5980  12.6325
    12.6406  12.6620  12.6722  12.7311  12.7727  12.7992  12.8216  12.8440
    12.8782  12.9022  12.9686  12.9877  13.0083  13.0481  13.0621  13.0682
    13.1693  13.2355  13.2969  13.3954  13.5844  13.6468  13.7239  13.8265
    13.8416  13.8732  13.8736  13.9869  14.0390  14.2518  14.2800  14.3058
    14.3197  14.4610  14.5276  14.5721  14.5958  14.6906  14.7350  15.1707
    15.1746  15.1982  15.2515  15.3385  15.3761  15.4755  15.5853  15.6284
    15.6384  15.6517  15.7173  15.7688  15.8344  16.0136  16.0396  16.0784
    16.1070  16.1107  16.1214  16.1503  16.1908  16.2179  16.2445  16.2642
    16.2772  16.2806  16.2943  16.3171  16.3680  16.3683  16.3823  16.4428
    16.5242  16.5456  16.5629  16.5953  16.5987  16.6071  16.6325  16.6613
    16.7107  16.7505  16.7927  16.8164  16.8753  16.9180  16.9950  17.0148
    17.0597  17.1135  17.1897  17.2354  18.5923  18.6837  18.7423  18.7871
    18.7917  18.8109  18.8208  18.8497  18.8658  18.9181  18.9617  19.0182

     the Fermi energy is    14.8239 ev

!    total energy              =  -33062.61852471 Ry
     Harris-Foulkes estimate   =  -33062.61852472 Ry
     estimated scf accuracy    <       0.00000073 Ry

     total all-electron energy =  -1410574.708899 Ry

     The total energy is the sum of the following terms:

     one-electron contribution =   -1645.90831665 Ry
     hartree contribution      =    1490.12551604 Ry
     xc contribution           =   -1658.77740980 Ry
     ewald contribution        =   -4919.25534656 Ry
     one-center paw contrib.   =  -26328.80296775 Ry

     total magnetization       =    -0.00 Bohr mag/cell
     absolute magnetization    =    78.74 Bohr mag/cell

     convergence has been achieved in  59 iterations

     Writing output data file mnau2.save
 
     init_run     :     52.28s CPU     52.99s WALL (       1 calls)
     electrons    :   7987.82s CPU   8138.20s WALL (       1 calls)

     Called by init_run:
     wfcinit      :     46.38s CPU     46.84s WALL (       1 calls)
     potinit      :      2.45s CPU      2.51s WALL (       1 calls)

     Called by electrons:
     c_bands      :   7029.15s CPU   7147.43s WALL (      59 calls)
     sum_band     :    802.97s CPU    819.35s WALL (      59 calls)
     v_of_rho     :     15.40s CPU     15.85s WALL (      60 calls)
     newd         :     48.71s CPU     55.39s WALL (      60 calls)
     PAW_pot      :     88.85s CPU     90.19s WALL (      60 calls)
     mix_rho      :      3.47s CPU      3.61s WALL (      59 calls)

     Called by c_bands:
     init_us_2    :     28.94s CPU     29.07s WALL (    1904 calls)
     cegterg      :   6845.93s CPU   6962.47s WALL (     944 calls)

     Called by sum_band:
     sum_band:bec :      4.59s CPU      4.60s WALL (     944 calls)
     addusdens    :     89.12s CPU     96.88s WALL (      59 calls)

     Called by *egterg:
     h_psi        :   2559.62s CPU   2587.31s WALL (    3093 calls)
     s_psi        :    624.57s CPU    625.07s WALL (    3093 calls)
     g_psi        :      9.65s CPU      9.68s WALL (    2133 calls)
     cdiaghg      :   2145.13s CPU   2146.38s WALL (    3077 calls)

     Called by h_psi:
     h_psi:pot    :   2535.62s CPU   2563.18s WALL (    3093 calls)
     h_psi:calbec :    625.22s CPU    631.33s WALL (    3093 calls)
     vloc_psi     :   1282.27s CPU   1303.27s WALL (    3093 calls)
     add_vuspsi   :    628.09s CPU    628.54s WALL (    3093 calls)

     General routines
     calbec       :    908.96s CPU    917.94s WALL (    4037 calls)
     fft          :     13.44s CPU     14.39s WALL (    1850 calls)
     ffts         :      0.34s CPU      0.35s WALL (     238 calls)
     fftw         :   1233.46s CPU   1253.41s WALL ( 2028868 calls)
     interpolate  :      2.28s CPU      2.41s WALL (     238 calls)
 
     Parallel routines
     fft_scatt_xy :    154.91s CPU    156.96s WALL ( 2030956 calls)
     fft_scatt_yz :    321.77s CPU    331.00s WALL ( 2030956 calls)
 
     PWSCF        :     2h14m CPU        2h17m WALL

 
   This run was terminated on:  19:27:25   6Mar2019            

=------------------------------------------------------------------------------=
   JOB DONE.
=------------------------------------------------------------------------------=
