
     Program PWSCF v.6.2 (svn rev. 14038) starts on  6Mar2019 at 19:27:26 

     This program is part of the open-source Quantum ESPRESSO suite
     for quantum simulation of materials; please cite
         "P. Giannozzi et al., J. Phys.:Condens. Matter 21 395502 (2009);
         "P. Giannozzi et al., J. Phys.:Condens. Matter 29 465901 (2017);
          URL http://www.quantum-espresso.org", 
     in publications or presentations arising from this work. More details at
     http://www.quantum-espresso.org/quote

     Parallel version (MPI), running on    16 processors

     MPI processes distributed on     1 nodes
     R & G space division:  proc/nbgrp/npool/nimage =      16
     Waiting for input...
     Reading input from standard input

     Current dimensions of program PWSCF are:
     Max number of different atomic species (ntypx) = 10
     Max number of k-points (npk) =  40000
     Max angular momentum in pseudopotentials (lmaxx) =  3
               file Mn.pbe-spn-kjpaw_psl.0.3.1.UPF: wavefunction(s)  3P 3D renormalized
               file Mn.pbe-spn-kjpaw_psl.0.3.1.UPF: wavefunction(s)  3P 3D renormalized
               file Au.pbe-dn-kjpaw_psl.0.1.UPF: wavefunction(s)  6S 6P 5D renormalized

     Subspace diagonalization in iterative solution of the eigenvalue problem:
     a serial algorithm will be used

 
     Parallelization info
     --------------------
     sticks:   dense  smooth     PW     G-vecs:    dense   smooth      PW
     Min         736     331     90                52486    15847    2256
     Max         737     332     91                52489    15850    2259
     Sum       11785    5297   1449               839803   253559   36125
 


     bravais-lattice index     =            0
     lattice parameter (alat)  =      19.2459  a.u.
     unit-cell volume          =    6216.1497 (a.u.)^3
     number of atoms/cell      =           54
     number of atomic types    =            3
     number of electrons       =       666.00
     number of Kohn-Sham states=          400
     kinetic-energy cutoff     =      45.0000  Ry
     charge density cutoff     =     400.0000  Ry
     convergence threshold     =      1.0E-06
     mixing beta               =       0.1000
     number of iterations used =            8  plain     mixing
     Exchange-correlation      = SLA PW PBX PBC ( 1  4  3  4 0 0)

     celldm(1)=  19.245946  celldm(2)=   0.000000  celldm(3)=   0.000000
     celldm(4)=   0.000000  celldm(5)=   0.000000  celldm(6)=   0.000000

     crystal axes: (cart. coord. in units of alat)
               a(1) = (   1.000000   0.000000   0.000000 )  
               a(2) = (   0.000000   1.000000   0.000000 )  
               a(3) = (   0.000000   0.000000   0.871974 )  

     reciprocal axes: (cart. coord. in units 2 pi/alat)
               b(1) = (  1.000000  0.000000  0.000000 )  
               b(2) = (  0.000000  1.000000  0.000000 )  
               b(3) = (  0.000000  0.000000  1.146823 )  


     PseudoPot. # 1 for Mn read from file:
     ./pseudo/Mn.pbe-spn-kjpaw_psl.0.3.1.UPF
     MD5 check sum: 7eef95dd2aae66803482eea66ebeebf1
     Pseudo is Projector augmented-wave + core cor, Zval = 15.0
     Generated using "atomic" code by A. Dal Corso v.5.0.99 svn rev. 10869
     Shape of augmentation charge: PSQ
     Using radial grid of 1187 points,  6 beta functions with: 
                l(1) =   0
                l(2) =   0
                l(3) =   1
                l(4) =   1
                l(5) =   2
                l(6) =   2
     Q(r) pseudized with 0 coefficients 


     PseudoPot. # 2 for Mn read from file:
     ./pseudo/Mn.pbe-spn-kjpaw_psl.0.3.1.UPF
     MD5 check sum: 7eef95dd2aae66803482eea66ebeebf1
     Pseudo is Projector augmented-wave + core cor, Zval = 15.0
     Generated using "atomic" code by A. Dal Corso v.5.0.99 svn rev. 10869
     Shape of augmentation charge: PSQ
     Using radial grid of 1187 points,  6 beta functions with: 
                l(1) =   0
                l(2) =   0
                l(3) =   1
                l(4) =   1
                l(5) =   2
                l(6) =   2
     Q(r) pseudized with 0 coefficients 


     PseudoPot. # 3 for Au read from file:
     ./pseudo/Au.pbe-dn-kjpaw_psl.0.1.UPF
     MD5 check sum: 5c9b92683623e7ae2ab3f8e525febab6
     Pseudo is Projector augmented-wave + core cor, Zval = 11.0
     Generated using "atomic" code by A. Dal Corso v.5.0.2 svn rev. 9415
     Shape of augmentation charge: PSQ
     Using radial grid of 1279 points,  6 beta functions with: 
                l(1) =   0
                l(2) =   0
                l(3) =   1
                l(4) =   1
                l(5) =   2
                l(6) =   2
     Q(r) pseudized with 0 coefficients 


     atomic species   valence    mass     pseudopotential
        Mn1           15.00    54.93800     Mn( 1.00)
        Mn2           15.00    54.93800     Mn( 1.00)
        Au            11.00   196.96600     Au( 1.00)

     Starting magnetic structure 
     atomic species   magnetization
        Mn1          0.800
        Mn2         -0.800
        Au           0.000

      2 Sym. Ops. (no inversion) found



   Cartesian axes

     site n.     atom                  positions (alat units)
         1           Mn1 tau(   1) = (   0.0000000   0.0000000   0.0000000  )
         2           Mn1 tau(   2) = (   0.0000000   0.3333300   0.0000000  )
         3           Mn2 tau(   3) = (   0.0000000   0.6666700   0.0000000  )
         4           Mn1 tau(   4) = (   0.3333300   0.0000000   0.0000000  )
         5           Mn1 tau(   5) = (   0.3333300   0.3333300   0.0000000  )
         6           Mn1 tau(   6) = (   0.3333300   0.6666700   0.0000000  )
         7           Mn1 tau(   7) = (   0.6666700   0.0000000   0.0000000  )
         8           Mn2 tau(   8) = (   0.6666700   0.3333300   0.0000000  )
         9           Mn2 tau(   9) = (   0.6666700   0.6666700   0.0000000  )
        10           Mn2 tau(  10) = (   0.1666700   0.1666700   0.4359871  )
        11           Mn2 tau(  11) = (   0.1666700   0.5000000   0.4359871  )
        12           Mn1 tau(  12) = (   0.1666700   0.8333300   0.4359871  )
        13           Mn2 tau(  13) = (   0.5000000   0.1666700   0.4359871  )
        14           Mn2 tau(  14) = (   0.5000000   0.5000000   0.4359871  )
        15           Mn2 tau(  15) = (   0.5000000   0.8333300   0.4359871  )
        16           Mn2 tau(  16) = (   0.8333300   0.1666700   0.4359871  )
        17           Mn1 tau(  17) = (   0.8333300   0.5000000   0.4359871  )
        18           Mn1 tau(  18) = (   0.8333300   0.8333300   0.4359871  )
        19           Au  tau(  19) = (   0.1666700   0.1666700   0.7327374  )
        20           Au  tau(  20) = (   0.1666700   0.5000000   0.7327374  )
        21           Au  tau(  21) = (   0.1666700   0.8333300   0.7327374  )
        22           Au  tau(  22) = (   0.5000000   0.1666700   0.7327374  )
        23           Au  tau(  23) = (   0.5000000   0.5000000   0.7327374  )
        24           Au  tau(  24) = (   0.5000000   0.8333300   0.7327374  )
        25           Au  tau(  25) = (   0.8333300   0.1666700   0.7327374  )
        26           Au  tau(  26) = (   0.8333300   0.5000000   0.7327374  )
        27           Au  tau(  27) = (   0.8333300   0.8333300   0.7327374  )
        28           Au  tau(  28) = (   0.1666700   0.1666700   0.1392369  )
        29           Au  tau(  29) = (   0.1666700   0.5000000   0.1392369  )
        30           Au  tau(  30) = (   0.1666700   0.8333300   0.1392369  )
        31           Au  tau(  31) = (   0.5000000   0.1666700   0.1392369  )
        32           Au  tau(  32) = (   0.5000000   0.5000000   0.1392369  )
        33           Au  tau(  33) = (   0.5000000   0.8333300   0.1392369  )
        34           Au  tau(  34) = (   0.8333300   0.1666700   0.1392369  )
        35           Au  tau(  35) = (   0.8333300   0.5000000   0.1392369  )
        36           Au  tau(  36) = (   0.8333300   0.8333300   0.1392369  )
        37           Au  tau(  37) = (   0.0000000   0.0000000   0.2967503  )
        38           Au  tau(  38) = (   0.0000000   0.3333300   0.2967503  )
        39           Au  tau(  39) = (   0.0000000   0.6666700   0.2967503  )
        40           Au  tau(  40) = (   0.3333300   0.0000000   0.2967503  )
        41           Au  tau(  41) = (   0.3333300   0.3333300   0.2967503  )
        42           Au  tau(  42) = (   0.3333300   0.6666700   0.2967503  )
        43           Au  tau(  43) = (   0.6666700   0.0000000   0.2967503  )
        44           Au  tau(  44) = (   0.6666700   0.3333300   0.2967503  )
        45           Au  tau(  45) = (   0.6666700   0.6666700   0.2967503  )
        46           Au  tau(  46) = (   0.0000000   0.0000000   0.5752240  )
        47           Au  tau(  47) = (   0.0000000   0.3333300   0.5752240  )
        48           Au  tau(  48) = (   0.0000000   0.6666700   0.5752240  )
        49           Au  tau(  49) = (   0.3333300   0.0000000   0.5752240  )
        50           Au  tau(  50) = (   0.3333300   0.3333300   0.5752240  )
        51           Au  tau(  51) = (   0.3333300   0.6666700   0.5752240  )
        52           Au  tau(  52) = (   0.6666700   0.0000000   0.5752240  )
        53           Au  tau(  53) = (   0.6666700   0.3333300   0.5752240  )
        54           Au  tau(  54) = (   0.6666700   0.6666700   0.5752240  )

     number of k points=     8 (tetrahedron method)
                       cart. coord. in units 2pi/alat
        k(    1) = (   0.0000000   0.0000000   0.0000000), wk =   0.1250000
        k(    2) = (   0.0000000   0.0000000  -0.5734114), wk =   0.1250000
        k(    3) = (   0.0000000  -0.5000000   0.0000000), wk =   0.1250000
        k(    4) = (   0.0000000  -0.5000000  -0.5734114), wk =   0.1250000
        k(    5) = (  -0.5000000  -0.5000000   0.0000000), wk =   0.1250000
        k(    6) = (  -0.5000000  -0.5000000  -0.5734114), wk =   0.1250000
        k(    7) = (  -0.5000000   0.0000000   0.0000000), wk =   0.1250000
        k(    8) = (  -0.5000000   0.0000000   0.5734114), wk =   0.1250000

     Dense  grid:   839803 G-vectors     FFT dimensions: ( 125, 125, 108)

     Smooth grid:   253559 G-vectors     FFT dimensions: (  90,  90,  72)

     Estimated max dynamical RAM per process >     570.13 MB

     Estimated total dynamical RAM >       8.91 GB
     Generating pointlists ...
     new r_m :   0.1129 (alat units)  2.1733 (a.u.) for type    1
     new r_m :   0.1129 (alat units)  2.1733 (a.u.) for type    2
     new r_m :   0.1129 (alat units)  2.1733 (a.u.) for type    3

     Check: negative/imaginary core charge=   -0.000006    0.000000

     Initial potential from superposition of free atoms

     starting charge  665.98709, renormalised to  666.00000
     Starting wfc are  504 randomized atomic wfcs
     Checking if some PAW data can be deallocated... 

     total cpu time spent up to now is       57.3 secs

     Self-consistent Calculation

     iteration #  1     ecut=    45.00 Ry     beta= 0.10
     Davidson diagonalization with overlap
     ethr =  1.00E-02,  avg # of iterations =  3.1

     total cpu time spent up to now is      216.2 secs

     total energy              =  -33047.19096092 Ry
     Harris-Foulkes estimate   =  -33044.03838656 Ry
     estimated scf accuracy    <      27.03679488 Ry

     total magnetization       =    -0.00 Bohr mag/cell
     absolute magnetization    =    92.08 Bohr mag/cell

     iteration #  2     ecut=    45.00 Ry     beta= 0.10
     Davidson diagonalization with overlap
     ethr =  4.06E-03,  avg # of iterations =  1.0

     total cpu time spent up to now is      324.5 secs

     total energy              =  -33058.56286816 Ry
     Harris-Foulkes estimate   =  -33047.36969434 Ry
     estimated scf accuracy    <      21.37637641 Ry

     total magnetization       =    -0.00 Bohr mag/cell
     absolute magnetization    =    91.65 Bohr mag/cell

     iteration #  3     ecut=    45.00 Ry     beta= 0.10
     Davidson diagonalization with overlap
     ethr =  3.21E-03,  avg # of iterations =  2.1

     total cpu time spent up to now is      457.9 secs

     total energy              =  -33065.73118823 Ry
     Harris-Foulkes estimate   =  -33061.35024814 Ry
     estimated scf accuracy    <       8.78501061 Ry

     total magnetization       =     0.00 Bohr mag/cell
     absolute magnetization    =    85.54 Bohr mag/cell

     iteration #  4     ecut=    45.00 Ry     beta= 0.10
     Davidson diagonalization with overlap
     ethr =  1.32E-03,  avg # of iterations =  4.1

     total cpu time spent up to now is      649.6 secs

     total energy              =  -33059.27528706 Ry
     Harris-Foulkes estimate   =  -33067.94118518 Ry
     estimated scf accuracy    <      45.88553957 Ry

     total magnetization       =     0.07 Bohr mag/cell
     absolute magnetization    =    73.54 Bohr mag/cell

     iteration #  5     ecut=    45.00 Ry     beta= 0.10
     Davidson diagonalization with overlap
     ethr =  1.32E-03,  avg # of iterations =  5.1

     total cpu time spent up to now is      883.2 secs

     total energy              =  -33062.07474228 Ry
     Harris-Foulkes estimate   =  -33062.56686511 Ry
     estimated scf accuracy    <       3.36350009 Ry

     total magnetization       =    -0.03 Bohr mag/cell
     absolute magnetization    =    83.38 Bohr mag/cell

     iteration #  6     ecut=    45.00 Ry     beta= 0.10
     Davidson diagonalization with overlap
     ethr =  5.05E-04,  avg # of iterations =  3.8

     total cpu time spent up to now is     1041.0 secs

     total energy              =  -33062.57001368 Ry
     Harris-Foulkes estimate   =  -33062.56525517 Ry
     estimated scf accuracy    <       0.19672468 Ry

     total magnetization       =    -0.06 Bohr mag/cell
     absolute magnetization    =    79.77 Bohr mag/cell

     iteration #  7     ecut=    45.00 Ry     beta= 0.10
     Davidson diagonalization with overlap
     ethr =  2.95E-05,  avg # of iterations =  4.8

     total cpu time spent up to now is     1238.7 secs

     total energy              =  -33062.60366327 Ry
     Harris-Foulkes estimate   =  -33062.60044992 Ry
     estimated scf accuracy    <       0.06746033 Ry

     total magnetization       =    -0.00 Bohr mag/cell
     absolute magnetization    =    78.76 Bohr mag/cell

     iteration #  8     ecut=    45.00 Ry     beta= 0.10
     Davidson diagonalization with overlap
     ethr =  1.01E-05,  avg # of iterations =  2.2

     total cpu time spent up to now is     1364.9 secs

     total energy              =  -33062.58172669 Ry
     Harris-Foulkes estimate   =  -33062.61200352 Ry
     estimated scf accuracy    <       0.13797974 Ry

     total magnetization       =    -0.01 Bohr mag/cell
     absolute magnetization    =    78.38 Bohr mag/cell

     iteration #  9     ecut=    45.00 Ry     beta= 0.10
     Davidson diagonalization with overlap
     ethr =  1.01E-05,  avg # of iterations =  2.2

     total cpu time spent up to now is     1498.6 secs

     total energy              =  -33062.60142360 Ry
     Harris-Foulkes estimate   =  -33062.59634288 Ry
     estimated scf accuracy    <       0.01336563 Ry

     total magnetization       =    -0.01 Bohr mag/cell
     absolute magnetization    =    78.53 Bohr mag/cell

     iteration # 10     ecut=    45.00 Ry     beta= 0.10
     Davidson diagonalization with overlap
     ethr =  2.01E-06,  avg # of iterations =  3.9

     total cpu time spent up to now is     1679.7 secs

     total energy              =  -33062.60194016 Ry
     Harris-Foulkes estimate   =  -33062.60395154 Ry
     estimated scf accuracy    <       0.00756790 Ry

     total magnetization       =    -0.00 Bohr mag/cell
     absolute magnetization    =    78.73 Bohr mag/cell

     iteration # 11     ecut=    45.00 Ry     beta= 0.10
     Davidson diagonalization with overlap
     ethr =  1.14E-06,  avg # of iterations =  2.1

     total cpu time spent up to now is     1802.4 secs

     total energy              =  -33062.60469400 Ry
     Harris-Foulkes estimate   =  -33062.60311932 Ry
     estimated scf accuracy    <       0.00342824 Ry

     total magnetization       =    -0.01 Bohr mag/cell
     absolute magnetization    =    78.98 Bohr mag/cell

     iteration # 12     ecut=    45.00 Ry     beta= 0.10
     Davidson diagonalization with overlap
     ethr =  5.15E-07,  avg # of iterations =  2.9

     total cpu time spent up to now is     1937.4 secs

     total energy              =  -33062.60499171 Ry
     Harris-Foulkes estimate   =  -33062.60474057 Ry
     estimated scf accuracy    <       0.00175129 Ry

     total magnetization       =    -0.00 Bohr mag/cell
     absolute magnetization    =    78.83 Bohr mag/cell

     iteration # 13     ecut=    45.00 Ry     beta= 0.10
     Davidson diagonalization with overlap
     ethr =  2.63E-07,  avg # of iterations =  2.1

     total cpu time spent up to now is     2070.1 secs

     total energy              =  -33062.60508188 Ry
     Harris-Foulkes estimate   =  -33062.60499345 Ry
     estimated scf accuracy    <       0.00027828 Ry

     total magnetization       =    -0.00 Bohr mag/cell
     absolute magnetization    =    78.72 Bohr mag/cell

     iteration # 14     ecut=    45.00 Ry     beta= 0.10
     Davidson diagonalization with overlap
     ethr =  4.18E-08,  avg # of iterations =  4.0

     total cpu time spent up to now is     2235.1 secs

     total energy              =  -33062.60540305 Ry
     Harris-Foulkes estimate   =  -33062.60516345 Ry
     estimated scf accuracy    <       0.00025388 Ry

     total magnetization       =    -0.00 Bohr mag/cell
     absolute magnetization    =    78.71 Bohr mag/cell

     iteration # 15     ecut=    45.00 Ry     beta= 0.10
     Davidson diagonalization with overlap
     ethr =  3.81E-08,  avg # of iterations =  2.0

     total cpu time spent up to now is     2357.9 secs

     total energy              =  -33062.60545118 Ry
     Harris-Foulkes estimate   =  -33062.60536475 Ry
     estimated scf accuracy    <       0.00009225 Ry

     total magnetization       =    -0.00 Bohr mag/cell
     absolute magnetization    =    78.69 Bohr mag/cell

     iteration # 16     ecut=    45.00 Ry     beta= 0.10
     Davidson diagonalization with overlap
     ethr =  1.39E-08,  avg # of iterations =  2.6

     total cpu time spent up to now is     2493.8 secs

     total energy              =  -33062.60548676 Ry
     Harris-Foulkes estimate   =  -33062.60542552 Ry
     estimated scf accuracy    <       0.00003467 Ry

     total magnetization       =    -0.00 Bohr mag/cell
     absolute magnetization    =    78.68 Bohr mag/cell

     iteration # 17     ecut=    45.00 Ry     beta= 0.10
     Davidson diagonalization with overlap
     ethr =  5.21E-09,  avg # of iterations =  2.6

     total cpu time spent up to now is     2633.3 secs

     total energy              =  -33062.60548391 Ry
     Harris-Foulkes estimate   =  -33062.60545288 Ry
     estimated scf accuracy    <       0.00001395 Ry

     total magnetization       =    -0.00 Bohr mag/cell
     absolute magnetization    =    78.66 Bohr mag/cell

     iteration # 18     ecut=    45.00 Ry     beta= 0.10
     Davidson diagonalization with overlap
     ethr =  2.09E-09,  avg # of iterations =  3.0

     total cpu time spent up to now is     2798.0 secs

     total energy              =  -33062.60547015 Ry
     Harris-Foulkes estimate   =  -33062.60545834 Ry
     estimated scf accuracy    <       0.00000535 Ry

     total magnetization       =    -0.00 Bohr mag/cell
     absolute magnetization    =    78.65 Bohr mag/cell

     iteration # 19     ecut=    45.00 Ry     beta= 0.10
     Davidson diagonalization with overlap
     ethr =  8.03E-10,  avg # of iterations =  2.2

     total cpu time spent up to now is     2929.1 secs

     total energy              =  -33062.60546492 Ry
     Harris-Foulkes estimate   =  -33062.60545780 Ry
     estimated scf accuracy    <       0.00000284 Ry

     total magnetization       =    -0.00 Bohr mag/cell
     absolute magnetization    =    78.65 Bohr mag/cell

     iteration # 20     ecut=    45.00 Ry     beta= 0.10
     Davidson diagonalization with overlap
     ethr =  4.26E-10,  avg # of iterations =  2.6

     total cpu time spent up to now is     3086.2 secs

     total energy              =  -33062.60546212 Ry
     Harris-Foulkes estimate   =  -33062.60545680 Ry
     estimated scf accuracy    <       0.00000101 Ry

     total magnetization       =    -0.00 Bohr mag/cell
     absolute magnetization    =    78.64 Bohr mag/cell

     iteration # 21     ecut=    45.00 Ry     beta= 0.10
     Davidson diagonalization with overlap
     ethr =  1.51E-10,  avg # of iterations =  2.8
 
     Magnetic moment per site:
     atom:    1    charge:   13.5816    magn:    3.9538    constr:    0.0000
     atom:    2    charge:   13.5774    magn:    4.0141    constr:    0.0000
     atom:    3    charge:   13.5698    magn:   -4.0802    constr:    0.0000
     atom:    4    charge:   13.5718    magn:    4.0200    constr:    0.0000
     atom:    5    charge:   13.5684    magn:    4.0518    constr:    0.0000
     atom:    6    charge:   13.5779    magn:    3.9883    constr:    0.0000
     atom:    7    charge:   13.5800    magn:    3.9769    constr:    0.0000
     atom:    8    charge:   13.5850    magn:   -3.9628    constr:    0.0000
     atom:    9    charge:   13.5747    magn:   -4.0107    constr:    0.0000
     atom:   10    charge:   13.5685    magn:   -4.0519    constr:    0.0000
     atom:   11    charge:   13.5774    magn:   -4.0141    constr:    0.0000
     atom:   12    charge:   13.5852    magn:    3.9629    constr:    0.0000
     atom:   13    charge:   13.5718    magn:   -4.0200    constr:    0.0000
     atom:   14    charge:   13.5815    magn:   -3.9537    constr:    0.0000
     atom:   15    charge:   13.5800    magn:   -3.9769    constr:    0.0000
     atom:   16    charge:   13.5779    magn:   -3.9884    constr:    0.0000
     atom:   17    charge:   13.5697    magn:    4.0802    constr:    0.0000
     atom:   18    charge:   13.5748    magn:    4.0107    constr:    0.0000
     atom:   19    charge:    9.1202    magn:    0.0480    constr:    0.0000
     atom:   20    charge:    9.1213    magn:    0.0206    constr:    0.0000
     atom:   21    charge:    9.1202    magn:    0.0379    constr:    0.0000
     atom:   22    charge:    9.1212    magn:    0.0132    constr:    0.0000
     atom:   23    charge:    9.1202    magn:   -0.0076    constr:    0.0000
     atom:   24    charge:    9.1198    magn:    0.0199    constr:    0.0000
     atom:   25    charge:    9.1201    magn:    0.0178    constr:    0.0000
     atom:   26    charge:    9.1225    magn:   -0.0155    constr:    0.0000
     atom:   27    charge:    9.1214    magn:    0.0116    constr:    0.0000
     atom:   28    charge:    9.1202    magn:    0.0480    constr:    0.0000
     atom:   29    charge:    9.1213    magn:    0.0206    constr:    0.0000
     atom:   30    charge:    9.1202    magn:    0.0379    constr:    0.0000
     atom:   31    charge:    9.1212    magn:    0.0132    constr:    0.0000
     atom:   32    charge:    9.1202    magn:   -0.0076    constr:    0.0000
     atom:   33    charge:    9.1198    magn:    0.0199    constr:    0.0000
     atom:   34    charge:    9.1201    magn:    0.0178    constr:    0.0000
     atom:   35    charge:    9.1225    magn:   -0.0155    constr:    0.0000
     atom:   36    charge:    9.1214    magn:    0.0116    constr:    0.0000
     atom:   37    charge:    9.1204    magn:    0.0076    constr:    0.0000
     atom:   38    charge:    9.1214    magn:   -0.0206    constr:    0.0000
     atom:   39    charge:    9.1226    magn:    0.0155    constr:    0.0000
     atom:   40    charge:    9.1213    magn:   -0.0132    constr:    0.0000
     atom:   41    charge:    9.1201    magn:   -0.0480    constr:    0.0000
     atom:   42    charge:    9.1200    magn:   -0.0178    constr:    0.0000
     atom:   43    charge:    9.1199    magn:   -0.0199    constr:    0.0000
     atom:   44    charge:    9.1201    magn:   -0.0379    constr:    0.0000
     atom:   45    charge:    9.1213    magn:   -0.0116    constr:    0.0000
     atom:   46    charge:    9.1204    magn:    0.0076    constr:    0.0000
     atom:   47    charge:    9.1214    magn:   -0.0206    constr:    0.0000
     atom:   48    charge:    9.1226    magn:    0.0155    constr:    0.0000
     atom:   49    charge:    9.1213    magn:   -0.0132    constr:    0.0000
     atom:   50    charge:    9.1201    magn:   -0.0480    constr:    0.0000
     atom:   51    charge:    9.1200    magn:   -0.0178    constr:    0.0000
     atom:   52    charge:    9.1199    magn:   -0.0199    constr:    0.0000
     atom:   53    charge:    9.1201    magn:   -0.0379    constr:    0.0000
     atom:   54    charge:    9.1213    magn:   -0.0116    constr:    0.0000

     total cpu time spent up to now is     3241.4 secs

     End of self-consistent calculation

 ------ SPIN UP ------------


          k = 0.0000 0.0000 0.0000 ( 31747 PWs)   bands (ev):

   -66.7869 -66.7460 -66.7443 -66.6839 -66.6691 -66.6638 -66.6369 -66.6030
   -66.5529 -62.4204 -62.4094 -62.3735 -62.3648 -62.3579 -62.3527 -62.3411
   -62.3394 -62.2867 -35.5462 -35.5240 -35.5175 -35.5079 -35.4990 -35.4960
   -35.4948 -35.4685 -35.4624 -35.4437 -35.4262 -35.4257 -35.4232 -35.4206
   -35.4125 -35.4115 -35.3984 -35.3927 -35.3922 -35.3881 -35.3597 -35.3518
   -35.3471 -35.3339 -35.3136 -35.2951 -35.2874 -31.2584 -31.2528 -31.2478
   -31.2331 -31.2268 -31.2263 -31.2173 -31.2049 -31.1980 -31.1955 -31.1943
   -31.1931 -31.1810 -31.1803 -31.1785 -31.1784 -31.1770 -31.1736 -31.1726
   -31.1673 -31.1632 -31.1589 -31.1566 -31.1448 -31.1366 -31.1117 -31.0920
     5.6148   7.1545   7.1563   7.1979   7.2010   7.3643   7.8573   7.8870
     7.9157   7.9394   8.0867   8.1004   8.1408   8.1606   8.1906   8.2468
     8.2520   8.3032   8.3064   8.5183   8.5565   8.5600   8.5690   8.5950
     8.5994   8.8543   8.8600   8.8603   8.8817   8.8919   8.8946   8.8987
     8.9019   8.9042   8.9105   8.9229   8.9345   8.9605   8.9639   8.9730
     8.9832   9.0837   9.1200   9.1214   9.1283   9.1358   9.1550   9.1572
     9.1863   9.1973   9.2084   9.2655   9.2859   9.2965   9.3086   9.3586
     9.3626   9.3668   9.3699   9.3732   9.3755   9.3822   9.3934   9.4311
     9.4396   9.4459   9.4493   9.4535   9.4670   9.4706   9.4851   9.5789
     9.5814   9.5886   9.5899   9.5935   9.6016   9.6665   9.6688   9.6734
     9.6760   9.6768   9.6853   9.7393   9.7623   9.7710   9.8006   9.8497
     9.8503   9.9079   9.9093   9.9489   9.9518   9.9532  10.0075  10.0292
    10.1136  10.1308  10.1396  10.1505  10.2896  10.2918  10.2959  10.3000
    10.3027  10.3032  10.3066  10.3086  10.3092  10.3277  10.3428  10.3444
    10.3450  10.3463  10.3516  10.3561  10.3596  10.3686  10.3829  10.3838
    10.4006  10.5100  10.5199  10.5775  10.5979  10.6303  10.6383  10.6537
    10.6751  10.7849  10.7869  10.8132  10.8164  10.8191  10.8276  10.8417
    10.8449  10.8535  10.8578  10.8725  10.8741  10.8785  10.8854  10.8906
    10.9023  10.9222  11.0180  11.0216  11.0904  11.0923  11.2120  11.2221
    11.2239  11.2253  11.2759  11.2845  11.3002  11.3282  11.3538  11.3544
    11.3568  11.3740  11.3818  11.3835  11.3924  11.3941  11.4032  11.4103
    11.4161  11.4461  11.5505  11.5894  11.5918  11.5955  11.5980  11.6011
    11.6301  11.6786  11.7010  11.7022  11.7268  11.7301  11.7446  11.7483
    11.8326  11.8356  11.8463  11.8650  11.8706  11.9158  11.9272  11.9502
    11.9602  12.0151  12.0891  12.0994  12.1014  12.1016  12.1060  12.1427
    12.1449  12.1471  12.1483  12.1634  12.1693  12.1713  12.1847  12.2191
    12.2368  12.2440  12.3118  12.3197  12.3443  12.3692  12.3816  12.4079
    12.4312  12.4341  12.4393  12.4789  12.4910  12.4958  12.5039  12.5058
    12.5238  12.5253  12.5367  12.5571  12.5724  12.6168  12.6291  12.7008
    12.7104  12.7470  12.7487  12.7594  12.9767  13.0000  13.0631  13.0784
    13.1310  13.1368  13.1774  13.1926  13.3376  13.7692  13.7823  13.7884
    13.8218  13.9411  13.9601  14.2460  14.2776  14.3159  14.3380  14.5090
    14.8018  14.8627  14.9346  14.9889  15.0022  15.1158  15.1635  15.2474
    15.2772  15.3538  15.3551  15.3720  15.4779  15.4939  15.5208  15.5805
    15.6265  15.6468  15.6803  15.7889  15.8373  15.8447  15.9512  15.9802
    16.0448  16.0781  16.0917  16.1044  16.1294  16.1550  16.1841  16.1872
    16.2198  16.2602  16.2976  16.2999  16.3203  16.3534  16.3643  16.3809
    16.4304  16.5372  16.5579  16.6167  16.6554  16.6564  16.7274  16.8573
    16.9957  17.0309  17.1737  17.1987  17.2044  17.2301  17.2377  17.2551
    17.4970  17.5244  17.8666  17.9171  17.9245  17.9314  17.9671  18.1147
    18.2286  18.2793  18.3607  18.9754  19.0044  19.0319  19.1784  19.2187

          k = 0.0000 0.0000-0.5734 ( 31692 PWs)   bands (ev):

   -66.7869 -66.7460 -66.7443 -66.6839 -66.6691 -66.6638 -66.6369 -66.6030
   -66.5529 -62.4204 -62.4094 -62.3735 -62.3648 -62.3579 -62.3527 -62.3411
   -62.3394 -62.2867 -35.5462 -35.5240 -35.5175 -35.5079 -35.4990 -35.4960
   -35.4948 -35.4685 -35.4624 -35.4437 -35.4262 -35.4257 -35.4232 -35.4206
   -35.4125 -35.4115 -35.3984 -35.3927 -35.3922 -35.3881 -35.3597 -35.3518
   -35.3471 -35.3339 -35.3136 -35.2951 -35.2874 -31.2584 -31.2528 -31.2478
   -31.2331 -31.2268 -31.2263 -31.2173 -31.2049 -31.1980 -31.1955 -31.1943
   -31.1931 -31.1810 -31.1803 -31.1785 -31.1784 -31.1770 -31.1736 -31.1726
   -31.1673 -31.1632 -31.1589 -31.1566 -31.1448 -31.1366 -31.1117 -31.0920
     6.1552   6.2137   7.5329   7.5405   7.5663   7.5814   7.5841   7.6005
     7.6136   7.6393   8.3075   8.3174   8.3291   8.3404   8.3633   8.3747
     8.3798   8.3945   8.4570   8.4658   8.4665   8.4734   8.4960   8.4984
     8.5103   8.5122   8.6925   8.7175   8.7442   8.7987   8.9428   8.9522
     8.9717   8.9724   8.9728   8.9767   8.9794   9.0022   9.0065   9.0268
     9.0277   9.0415   9.0458   9.0664   9.0785   9.0976   9.1889   9.1963
     9.2315   9.2365   9.2387   9.2458   9.2669   9.2780   9.2821   9.2833
     9.2858   9.2926   9.2937   9.2971   9.3075   9.3167   9.4135   9.4154
     9.4205   9.4229   9.4283   9.4304   9.4511   9.4596   9.4678   9.4778
     9.4833   9.4850   9.4881   9.4973   9.5445   9.5480   9.6200   9.7018
     9.7829   9.7887   9.7968   9.8032   9.8046   9.8192   9.8296   9.8468
     9.8708   9.8778   9.8793   9.8832   9.8847   9.8883   9.8908   9.8912
    10.0553  10.0580  10.0627  10.0655  10.1340  10.1471  10.1503  10.1533
    10.1619  10.1928  10.1943  10.1985  10.2031  10.2196  10.3398  10.3643
    10.3828  10.3873  10.3974  10.4003  10.4096  10.4321  10.4539  10.5283
    10.5908  10.5912  10.6048  10.6082  10.6308  10.6396  10.6547  10.6630
    10.6738  10.6955  10.7125  10.7211  10.7610  10.7772  10.8159  10.8794
    10.9209  10.9715  10.9955  11.0060  11.0436  11.0522  11.0584  11.0728
    11.0754  11.0873  11.1056  11.1356  11.1437  11.1609  11.1837  11.1942
    11.2137  11.2369  11.2513  11.2527  11.2556  11.2560  11.2569  11.2671
    11.2679  11.2716  11.2778  11.2842  11.2962  11.3007  11.3009  11.3011
    11.3126  11.3161  11.3245  11.3263  11.5279  11.5992  11.7050  11.7140
    11.7145  11.7160  11.7181  11.7242  11.7270  11.7302  11.7360  11.7624
    11.7642  11.7662  11.7714  11.8071  11.8110  11.8129  11.8459  11.9348
    11.9366  11.9668  11.9691  12.0048  12.0383  12.0436  12.0553  12.0682
    12.1523  12.1540  12.2118  12.2450  12.2519  12.2769  12.3158  12.3812
    12.4106  12.4161  12.4337  12.4404  12.4521  12.4778  12.4894  12.4989
    12.5063  12.5091  12.5302  12.5368  12.5421  12.5626  12.5718  12.6231
    12.6232  12.6763  12.7442  12.7787  12.7809  12.8074  12.8671  12.8710
    12.9587  13.0049  13.0389  13.0987  13.1461  13.1578  13.1754  13.2087
    13.2159  13.2247  13.3051  13.4257  13.4849  13.5157  13.6331  13.7065
    13.9644  13.9717  13.9755  14.0745  14.1192  14.1402  14.2824  14.3105
    14.5729  14.8967  14.9132  14.9358  14.9580  15.0349  15.0966  15.1093
    15.1659  15.1694  15.2251  15.2532  15.3342  15.3545  15.3665  15.5374
    15.6172  15.6875  15.7167  15.7463  15.8134  15.9068  15.9168  16.0556
    16.0849  16.0902  16.1152  16.1368  16.1658  16.1841  16.1970  16.2027
    16.2124  16.2263  16.2416  16.2702  16.2727  16.2925  16.2989  16.3369
    16.3584  16.4589  16.4776  16.5281  16.6653  16.7136  16.7396  16.7586
    16.8827  16.8894  17.2165  17.2973  17.3391  17.3931  17.5177  17.5617
    17.5637  17.5844  17.6424  17.6762  17.7318  17.7380  17.8416  17.8720
    17.9157  17.9722  18.1036  18.1986  18.2136  18.2620  18.3103  18.3566

          k = 0.0000-0.5000 0.0000 ( 31722 PWs)   bands (ev):

   -66.7869 -66.7460 -66.7443 -66.6839 -66.6691 -66.6638 -66.6369 -66.6030
   -66.5529 -62.4204 -62.4094 -62.3735 -62.3648 -62.3579 -62.3527 -62.3411
   -62.3394 -62.2867 -35.5462 -35.5240 -35.5176 -35.5079 -35.4989 -35.4960
   -35.4948 -35.4685 -35.4624 -35.4437 -35.4262 -35.4257 -35.4232 -35.4206
   -35.4125 -35.4115 -35.3984 -35.3927 -35.3922 -35.3881 -35.3597 -35.3518
   -35.3471 -35.3339 -35.3136 -35.2951 -35.2874 -31.2584 -31.2528 -31.2478
   -31.2331 -31.2268 -31.2263 -31.2173 -31.2049 -31.1980 -31.1955 -31.1943
   -31.1931 -31.1810 -31.1803 -31.1785 -31.1784 -31.1768 -31.1733 -31.1726
   -31.1676 -31.1632 -31.1589 -31.1566 -31.1448 -31.1366 -31.1117 -31.0920
     6.0277   6.0576   7.4069   7.4320   7.4474   7.5006   7.6718   7.6799
     8.1019   8.1158   8.1424   8.1742   8.1934   8.2343   8.2524   8.2754
     8.3929   8.4114   8.4482   8.4948   8.6110   8.6290   8.6393   8.6513
     8.6685   8.6794   8.6842   8.7146   8.7554   8.8033   8.8242   8.8381
     8.8529   8.8644   8.8698   8.8775   8.9026   8.9066   8.9150   8.9191
     8.9269   8.9345   8.9378   8.9576   9.0461   9.0527   9.1562   9.1708
     9.1826   9.2036   9.2127   9.2235   9.2404   9.2442   9.3145   9.3341
     9.3450   9.3668   9.3865   9.4193   9.4709   9.4773   9.4875   9.4990
     9.5318   9.5356   9.5580   9.5733   9.5848   9.6052   9.6121   9.6159
     9.6192   9.6219   9.6269   9.6309   9.6318   9.6372   9.6467   9.6475
     9.6558   9.6599   9.6710   9.6793   9.7052   9.7114   9.7117   9.7356
     9.7366   9.7417   9.7715   9.7797   9.8928   9.9052   9.9151   9.9824
    10.0174  10.0333  10.1499  10.1972  10.2098  10.2243  10.2487  10.2551
    10.2677  10.2686  10.2694  10.2722  10.2861  10.2902  10.3358  10.3517
    10.3691  10.3785  10.3842  10.3915  10.4208  10.4412  10.4555  10.4772
    10.4945  10.5125  10.5261  10.5290  10.5579  10.5688  10.5786  10.5961
    10.6043  10.6515  10.6858  10.6883  10.7179  10.7363  10.7459  10.7624
    10.8069  10.8241  10.8270  10.8495  10.8531  10.8722  10.8849  10.9331
    10.9519  11.0070  11.0145  11.0197  11.0483  11.0944  11.1674  11.1881
    11.2840  11.3457  11.3495  11.3595  11.3746  11.3915  11.4060  11.4079
    11.4219  11.4571  11.4637  11.4725  11.4904  11.5175  11.5495  11.5503
    11.5689  11.5904  11.6030  11.6301  11.6423  11.6679  11.6883  11.7352
    11.7416  11.7663  11.7849  11.8065  11.8190  11.8471  11.8518  11.8697
    11.8756  11.8829  11.9098  11.9283  11.9344  11.9526  11.9552  11.9634
    11.9783  11.9789  11.9907  12.0120  12.0767  12.1144  12.1565  12.1698
    12.1937  12.1995  12.2126  12.2307  12.2414  12.2477  12.2652  12.2770
    12.2873  12.2915  12.3017  12.3410  12.3419  12.3910  12.4010  12.4165
    12.4364  12.4604  12.4625  12.4836  12.4923  12.5104  12.5224  12.5596
    12.5888  12.6051  12.6155  12.6159  12.6393  12.7116  12.7448  12.7613
    12.8298  12.9301  12.9777  13.0101  13.0536  13.0595  13.1375  13.1547
    13.1600  13.1890  13.2036  13.2292  13.2488  13.2859  13.3182  13.3362
    13.4531  13.4619  13.4969  13.6667  13.6732  14.3141  14.5350  14.5841
    14.6580  14.7334  14.7720  14.7737  14.8290  14.8834  14.9185  14.9587
    15.0440  15.0745  15.1589  15.3053  15.4305  15.4625  15.5460  15.5646
    15.6890  15.7157  15.7505  15.7737  15.8367  15.8645  15.9242  16.0013
    16.0349  16.0439  16.0605  16.0701  16.0918  16.1352  16.1677  16.1835
    16.1900  16.2125  16.2207  16.2344  16.2393  16.2481  16.3694  16.4268
    16.4575  16.4840  16.5323  16.6580  16.7193  16.8348  16.9639  17.0471
    17.1580  17.2064  17.2442  17.3203  17.4390  17.5268  17.6130  17.6258
    17.7091  17.7764  17.7876  17.8042  17.8161  17.8303  17.9305  17.9527
    18.0217  18.0367  18.1581  18.2456  19.2414  19.3203  19.3244  19.3400

          k = 0.0000-0.5000-0.5734 ( 31696 PWs)   bands (ev):

   -66.7869 -66.7460 -66.7443 -66.6839 -66.6691 -66.6638 -66.6369 -66.6030
   -66.5529 -62.4204 -62.4094 -62.3735 -62.3648 -62.3579 -62.3527 -62.3411
   -62.3394 -62.2867 -35.5462 -35.5240 -35.5176 -35.5079 -35.4989 -35.4960
   -35.4948 -35.4685 -35.4624 -35.4437 -35.4262 -35.4257 -35.4232 -35.4206
   -35.4125 -35.4115 -35.3984 -35.3927 -35.3922 -35.3881 -35.3597 -35.3518
   -35.3471 -35.3339 -35.3136 -35.2951 -35.2874 -31.2584 -31.2528 -31.2478
   -31.2331 -31.2268 -31.2263 -31.2173 -31.2049 -31.1980 -31.1955 -31.1943
   -31.1931 -31.1810 -31.1803 -31.1785 -31.1784 -31.1768 -31.1733 -31.1726
   -31.1676 -31.1632 -31.1589 -31.1566 -31.1448 -31.1366 -31.1117 -31.0920
     6.5233   6.5831   6.5885   6.6392   7.8313   7.8521   7.8605   7.8694
     7.9093   7.9193   7.9300   7.9438   8.2663   8.2801   8.2985   8.3030
     8.5103   8.5244   8.5343   8.5359   8.6532   8.6750   8.6754   8.6843
     8.6909   8.6975   8.6997   8.7113   8.7163   8.7367   8.7372   8.7512
     8.7579   8.7786   8.7814   8.8176   8.9471   9.0040   9.0052   9.0339
     9.0368   9.0507   9.0543   9.0686   9.1866   9.2016   9.2122   9.2165
     9.2217   9.2218   9.2330   9.2342   9.2426   9.2431   9.2537   9.2556
     9.2617   9.2783   9.2808   9.2861   9.2898   9.3450   9.3807   9.4022
     9.4083   9.4221   9.4512   9.4576   9.4650   9.4663   9.4679   9.4788
     9.4881   9.5041   9.5095   9.5158   9.5276   9.5458   9.5544   9.5556
     9.5669   9.6071   9.7529   9.7586   9.7882   9.7926   9.8083   9.8150
     9.8303   9.8391   9.8479   9.8563   9.8589   9.8604   9.8722   9.8881
     9.9437   9.9677   9.9865  10.0013  10.0299  10.0461  10.0546  10.0687
    10.3650  10.3826  10.3993  10.3997  10.4111  10.4208  10.4264  10.4322
    10.4473  10.4721  10.4820  10.4832  10.4853  10.4894  10.4965  10.5039
    10.5308  10.5402  10.5731  10.5752  10.5832  10.5899  10.6227  10.6385
    10.6599  10.6611  10.6712  10.6721  10.6749  10.6907  10.7181  10.7212
    10.7406  10.8210  10.8498  10.8786  10.9677  10.9889  11.0331  11.0907
    11.1128  11.1287  11.1306  11.1532  11.1849  11.1909  11.1916  11.2026
    11.2104  11.2127  11.2838  11.3166  11.3318  11.3420  11.3632  11.3722
    11.3776  11.4000  11.4072  11.4231  11.4424  11.4778  11.4859  11.5161
    11.5259  11.5545  11.5719  11.5778  11.5804  11.5883  11.6006  11.6221
    11.6281  11.6316  11.7160  11.7265  11.7503  11.7607  11.8007  11.8389
    11.8830  11.9113  11.9293  11.9409  11.9504  11.9603  11.9996  12.0034
    12.0131  12.0278  12.0329  12.0366  12.0408  12.0440  12.0997  12.1133
    12.1545  12.1721  12.1883  12.2341  12.2499  12.2912  12.3031  12.3325
    12.3534  12.3618  12.3956  12.4016  12.4358  12.4513  12.4591  12.4632
    12.4894  12.5031  12.5269  12.5399  12.5586  12.5902  12.5921  12.6078
    12.6153  12.6380  12.6526  12.6556  12.6674  12.6888  12.8045  12.8114
    12.8338  12.8474  12.8937  12.9360  13.0147  13.0194  13.0217  13.0262
    13.2000  13.2087  13.3928  13.4415  13.5206  13.6261  13.7529  13.7638
    13.9517  13.9609  14.0327  14.1092  14.1557  14.2117  14.2549  14.3279
    14.4645  14.4734  14.5413  14.5695  14.6107  14.6124  14.6879  15.0210
    15.1010  15.1908  15.2839  15.3736  15.3855  15.4281  15.5397  15.5601
    15.6274  15.6813  15.7051  15.7523  15.7682  15.9679  16.0179  16.0573
    16.0773  16.0942  16.1347  16.1478  16.1705  16.1819  16.1882  16.2193
    16.2620  16.2697  16.2848  16.3132  16.3314  16.3780  16.4021  16.4869
    16.4875  16.5240  16.5419  16.5521  16.5807  16.6440  16.6969  16.7059
    16.7318  16.7826  16.8322  16.8616  16.8951  16.9767  16.9878  17.0148
    17.1011  17.1282  17.1410  17.2038  18.6032  18.6920  18.7035  18.7350
    18.7614  18.7805  18.8209  18.8485  18.8802  18.9028  18.9435  18.9688

          k =-0.5000-0.5000 0.0000 ( 31612 PWs)   bands (ev):

   -66.7869 -66.7460 -66.7443 -66.6839 -66.6691 -66.6638 -66.6369 -66.6030
   -66.5529 -62.4204 -62.4094 -62.3735 -62.3648 -62.3579 -62.3527 -62.3411
   -62.3394 -62.2867 -35.5462 -35.5240 -35.5176 -35.5079 -35.4989 -35.4960
   -35.4948 -35.4685 -35.4624 -35.4437 -35.4262 -35.4257 -35.4232 -35.4206
   -35.4125 -35.4115 -35.3984 -35.3927 -35.3922 -35.3881 -35.3596 -35.3519
   -35.3471 -35.3339 -35.3136 -35.2951 -35.2874 -31.2586 -31.2531 -31.2472
   -31.2331 -31.2268 -31.2264 -31.2173 -31.2049 -31.1980 -31.1955 -31.1944
   -31.1931 -31.1810 -31.1803 -31.1785 -31.1784 -31.1768 -31.1733 -31.1726
   -31.1676 -31.1632 -31.1589 -31.1566 -31.1448 -31.1366 -31.1117 -31.0920
     6.4141   6.4329   6.4380   6.4750   8.0082   8.0153   8.0208   8.0224
     8.0886   8.1230   8.2960   8.3218   8.3271   8.3334   8.3402   8.3460
     8.3508   8.3534   8.3539   8.3595   8.3649   8.3862   8.5680   8.5994
     8.6493   8.6652   8.6767   8.6960   8.7152   8.7236   8.7351   8.7440
     8.7493   8.7962   8.9164   8.9202   8.9746   8.9751   8.9773   8.9780
     8.9834   8.9906   8.9937   9.0024   9.0039   9.0335   9.0411   9.0471
     9.1100   9.1346   9.3060   9.3127   9.3167   9.3227   9.4013   9.4087
     9.4155   9.4172   9.4197   9.4263   9.4275   9.4318   9.4472   9.4558
     9.4613   9.4757   9.4757   9.4811   9.4840   9.4853   9.4927   9.5047
     9.5162   9.5192   9.5299   9.5399   9.5425   9.5676   9.5753   9.5958
     9.5984   9.6101   9.6972   9.6996   9.7684   9.8174   9.8248   9.8254
     9.8318   9.8334   9.8347   9.8394   9.8443   9.8677  10.0444  10.0619
    10.0736  10.1046  10.1116  10.1284  10.1383  10.1405  10.1562  10.1729
    10.1789  10.1923  10.2022  10.2040  10.2153  10.2201  10.2262  10.2285
    10.2318  10.2371  10.2487  10.2533  10.4561  10.4701  10.4882  10.4919
    10.4959  10.4996  10.5044  10.5367  10.6297  10.6369  10.6399  10.6480
    10.6637  10.6686  10.6724  10.6769  10.6908  10.6926  10.6948  10.7037
    10.7141  10.7327  10.7895  10.8114  10.8298  10.8420  10.8631  10.8802
    10.9233  10.9362  11.1967  11.2093  11.2127  11.2227  11.3072  11.3119
    11.3366  11.3410  11.3475  11.3587  11.3970  11.3994  11.5437  11.5517
    11.5867  11.6241  11.6339  11.6404  11.6406  11.6432  11.6465  11.6486
    11.6522  11.6525  11.6958  11.7224  11.7347  11.7528  11.7604  11.8520
    11.8727  11.8764  11.8784  11.8803  11.8833  11.8884  11.9897  12.0136
    12.0212  12.0262  12.0767  12.0898  12.0912  12.1055  12.1092  12.1099
    12.1110  12.1142  12.1154  12.1194  12.1379  12.1506  12.1706  12.1795
    12.1872  12.1872  12.2021  12.2060  12.2192  12.2240  12.2334  12.2443
    12.2542  12.2633  12.2776  12.2833  12.2850  12.2930  12.3025  12.3214
    12.3769  12.4282  12.4402  12.4466  12.4695  12.4770  12.4843  12.4943
    12.5113  12.5355  12.5727  12.5812  12.5989  12.6187  12.6377  12.6825
    12.7139  12.7457  12.7982  12.8814  12.8877  12.9144  12.9539  12.9557
    12.9617  12.9636  12.9885  13.0278  13.0725  13.5527  13.6722  13.6743
    13.7218  13.7975  13.8133  13.8276  13.8826  13.9299  14.0341  14.0971
    14.1821  14.2777  14.2955  14.3433  14.5237  14.6606  14.8653  14.8899
    15.0979  15.1948  15.1981  15.2950  15.3745  15.5126  15.5671  15.7353
    15.7951  15.7977  15.8467  15.8708  15.8862  15.8891  15.9177  15.9374
    15.9448  15.9565  15.9927  16.0073  16.0902  16.1273  16.1331  16.1629
    16.1888  16.2544  16.3161  16.3551  16.3603  16.3870  16.4008  16.4135
    16.4658  16.4693  16.5005  16.6648  16.6841  16.7088  16.7254  16.7501
    16.7846  16.8228  16.9194  16.9726  17.3836  17.3923  17.6339  18.0224
    18.1459  18.1982  18.2045  18.2373  18.2803  18.4480  18.4687  18.5371
    18.5927  18.6202  18.6559  18.6725  18.7710  18.7859  18.7939  18.8029

          k =-0.5000-0.5000-0.5734 ( 31672 PWs)   bands (ev):

   -66.7869 -66.7460 -66.7443 -66.6839 -66.6691 -66.6638 -66.6369 -66.6030
   -66.5529 -62.4204 -62.4094 -62.3735 -62.3648 -62.3579 -62.3527 -62.3411
   -62.3394 -62.2867 -35.5462 -35.5240 -35.5176 -35.5079 -35.4989 -35.4960
   -35.4948 -35.4685 -35.4624 -35.4437 -35.4262 -35.4257 -35.4232 -35.4206
   -35.4125 -35.4115 -35.3984 -35.3927 -35.3922 -35.3881 -35.3596 -35.3519
   -35.3471 -35.3339 -35.3136 -35.2951 -35.2874 -31.2586 -31.2531 -31.2472
   -31.2331 -31.2268 -31.2264 -31.2173 -31.2049 -31.1980 -31.1955 -31.1944
   -31.1931 -31.1810 -31.1803 -31.1785 -31.1784 -31.1768 -31.1733 -31.1726
   -31.1676 -31.1632 -31.1589 -31.1566 -31.1448 -31.1366 -31.1117 -31.0920
     6.8808   6.9143   6.9230   6.9467   6.9973   7.0156   7.0262   7.0474
     8.4446   8.4669   8.4705   8.4814   8.4872   8.4919   8.4924   8.4953
     8.4982   8.5009   8.5129   8.5159   8.5373   8.5415   8.5441   8.5708
     8.5740   8.5781   8.5834   8.6215   8.8744   8.8745   8.8896   8.8920
     8.8975   8.9199   8.9368   8.9413   9.0824   9.1026   9.1162   9.1228
     9.1243   9.1419   9.1466   9.1491   9.1543   9.1564   9.1600   9.1630
     9.1661   9.1679   9.1708   9.1726   9.1728   9.1749   9.1767   9.1793
     9.1797   9.1821   9.1944   9.1993   9.2005   9.2054   9.2097   9.2137
     9.2268   9.2320   9.2430   9.2450   9.2574   9.2612   9.2651   9.2832
     9.5453   9.5491   9.5579   9.5703   9.5769   9.5960   9.6036   9.6264
     9.6421   9.6638   9.6752   9.6755   9.7298   9.7401   9.7530   9.7870
     9.8131   9.8260   9.8425   9.8568   9.8798   9.8841   9.8909   9.8974
    10.1133  10.1208  10.1494  10.1539  10.1650  10.1721  10.1902  10.1985
    10.2834  10.3222  10.4368  10.4577  10.4588  10.4680  10.4805  10.4815
    10.4865  10.4868  10.4940  10.4994  10.5032  10.5114  10.5131  10.5192
    10.5233  10.5247  10.5414  10.5461  10.5696  10.5702  10.5864  10.6012
    10.6014  10.6266  10.6384  10.6385  10.6522  10.6550  10.6661  10.6843
    10.6865  10.6879  10.6990  10.7108  10.7147  10.7278  11.0189  11.0419
    11.0710  11.0793  11.0803  11.0858  11.1272  11.1432  11.3788  11.3872
    11.3905  11.3995  11.4021  11.4327  11.4384  11.4440  11.4553  11.4792
    11.4795  11.4904  11.5009  11.5042  11.5168  11.5450  11.6058  11.6211
    11.6411  11.6479  11.6526  11.6685  11.6733  11.6954  11.6971  11.7181
    11.7214  11.7274  11.7342  11.7606  11.7648  11.7671  11.7790  11.7833
    11.8028  11.8082  11.8183  11.8330  11.8368  11.9421  11.9637  12.0014
    12.0176  12.0261  12.0885  12.1036  12.1205  12.1305  12.1366  12.1482
    12.1585  12.2037  12.2084  12.2206  12.2391  12.2480  12.2704  12.3190
    12.3566  12.3735  12.4051  12.4267  12.4354  12.4464  12.4470  12.4504
    12.4776  12.4975  12.5073  12.5330  12.5435  12.5533  12.5871  12.6232
    12.6447  12.6714  12.6740  12.6780  12.7012  12.7623  12.7905  12.8042
    12.9121  12.9506  12.9650  12.9730  13.0556  13.1274  13.1501  13.1866
    13.2476  13.2747  13.2918  13.3317  13.3591  13.4959  13.4985  13.5032
    13.5163  13.6037  13.7629  13.7882  13.9129  14.0538  14.0837  14.1608
    14.1873  14.2087  14.4153  14.5532  14.6916  14.7529  14.8626  14.9607
    14.9734  15.3059  15.3161  15.3650  15.4302  15.6224  15.6509  15.6557
    15.7038  15.7218  15.7609  15.8393  15.8621  15.8681  15.9104  15.9482
    15.9620  15.9921  16.0844  16.1186  16.1391  16.1545  16.1624  16.2117
    16.2181  16.2509  16.2814  16.3596  16.4131  16.4419  16.4600  16.4900
    16.5221  16.5464  16.5778  16.6101  16.6474  16.6830  16.6894  16.7306
    16.7402  16.8209  16.8474  16.8876  16.9047  16.9487  16.9935  17.0239
    17.0881  17.1185  17.5903  17.7492  17.9082  17.9586  18.9988  19.0091
    19.0201  19.0633  19.0679  19.1068  19.1732  19.2039  19.2708  19.2861

          k =-0.5000 0.0000 0.0000 ( 31722 PWs)   bands (ev):

   -66.7869 -66.7460 -66.7443 -66.6839 -66.6691 -66.6638 -66.6369 -66.6030
   -66.5529 -62.4204 -62.4094 -62.3735 -62.3648 -62.3579 -62.3527 -62.3411
   -62.3394 -62.2867 -35.5462 -35.5240 -35.5175 -35.5079 -35.4990 -35.4960
   -35.4948 -35.4685 -35.4624 -35.4437 -35.4262 -35.4257 -35.4232 -35.4206
   -35.4125 -35.4115 -35.3984 -35.3927 -35.3922 -35.3881 -35.3596 -35.3519
   -35.3471 -35.3339 -35.3136 -35.2951 -35.2874 -31.2586 -31.2531 -31.2472
   -31.2330 -31.2268 -31.2264 -31.2173 -31.2049 -31.1980 -31.1955 -31.1944
   -31.1931 -31.1810 -31.1803 -31.1785 -31.1784 -31.1770 -31.1736 -31.1726
   -31.1673 -31.1632 -31.1589 -31.1566 -31.1448 -31.1366 -31.1117 -31.0920
     6.0268   6.0582   7.4016   7.4406   7.4546   7.4913   7.6706   7.6805
     8.1028   8.1177   8.1434   8.1693   8.1991   8.2346   8.2441   8.2741
     8.3850   8.4296   8.4492   8.4852   8.6130   8.6223   8.6490   8.6515
     8.6722   8.6776   8.6888   8.7044   8.7532   8.8038   8.8163   8.8300
     8.8554   8.8660   8.8712   8.8919   8.9057   8.9099   8.9176   8.9204
     8.9268   8.9293   8.9357   8.9531   9.0426   9.0551   9.1550   9.1752
     9.1941   9.2017   9.2083   9.2294   9.2340   9.2406   9.3125   9.3339
     9.3562   9.3719   9.3774   9.4138   9.4732   9.4749   9.4892   9.5083
     9.5279   9.5377   9.5603   9.5738   9.5780   9.5951   9.6092   9.6153
     9.6177   9.6219   9.6290   9.6361   9.6366   9.6390   9.6416   9.6459
     9.6533   9.6646   9.6708   9.6799   9.6988   9.7080   9.7171   9.7355
     9.7498   9.7539   9.7564   9.7744   9.8962   9.9021   9.9154   9.9850
    10.0071  10.0436  10.1526  10.1936  10.2093  10.2248  10.2491  10.2537
    10.2669  10.2705  10.2730  10.2746  10.2840  10.2853  10.3318  10.3555
    10.3599  10.3786  10.3839  10.3936  10.4216  10.4408  10.4512  10.4822
    10.4871  10.5095  10.5268  10.5459  10.5555  10.5775  10.5861  10.5885
    10.5981  10.6578  10.6727  10.6916  10.7089  10.7231  10.7546  10.7664
    10.8007  10.8171  10.8302  10.8488  10.8540  10.8747  10.8907  10.9318
    10.9576  10.9977  11.0213  11.0333  11.0444  11.0950  11.1651  11.1830
    11.2941  11.3452  11.3492  11.3668  11.3713  11.3824  11.4040  11.4066
    11.4179  11.4456  11.4630  11.4844  11.4910  11.5310  11.5367  11.5559
    11.5713  11.6041  11.6106  11.6188  11.6338  11.6475  11.6939  11.7453
    11.7510  11.7714  11.7887  11.7939  11.8158  11.8325  11.8479  11.8635
    11.8654  11.8910  11.9068  11.9166  11.9403  11.9570  11.9600  11.9709
    11.9758  11.9801  11.9829  12.0138  12.0943  12.1411  12.1469  12.1582
    12.1882  12.1923  12.2007  12.2337  12.2400  12.2483  12.2673  12.2753
    12.2797  12.2907  12.3469  12.3478  12.3607  12.3953  12.4017  12.4198
    12.4346  12.4462  12.4564  12.4616  12.4799  12.4951  12.5542  12.5721
    12.5888  12.5935  12.6054  12.6353  12.6442  12.6803  12.7020  12.7967
    12.8844  12.9453  12.9719  13.0073  13.0443  13.0685  13.1036  13.1302
    13.1377  13.1995  13.2199  13.2248  13.2752  13.2805  13.3147  13.3296
    13.4424  13.4646  13.5127  13.6699  13.6775  14.3218  14.4529  14.5462
    14.6320  14.7404  14.8222  14.8323  14.8476  14.9000  14.9413  14.9659
    14.9980  15.1523  15.2177  15.3215  15.3235  15.4414  15.5076  15.5214
    15.6531  15.7146  15.7682  15.8114  15.8450  15.8648  15.8956  15.9596
    16.0181  16.0359  16.0509  16.1065  16.1216  16.1276  16.1601  16.1795
    16.2026  16.2171  16.2205  16.2712  16.2951  16.3026  16.3788  16.3913
    16.3960  16.5068  16.5534  16.6416  16.6937  16.8128  17.0180  17.0632
    17.1641  17.2161  17.2350  17.3325  17.3790  17.5037  17.6071  17.6304
    17.6621  17.7364  17.8003  17.8270  17.8428  17.8554  17.9497  17.9517
    18.0114  18.0694  18.1539  18.2257  19.2526  19.3162  19.3166  19.3413

          k =-0.5000 0.0000 0.5734 ( 31696 PWs)   bands (ev):

   -66.7869 -66.7460 -66.7443 -66.6839 -66.6691 -66.6638 -66.6369 -66.6030
   -66.5529 -62.4204 -62.4094 -62.3735 -62.3648 -62.3579 -62.3527 -62.3411
   -62.3394 -62.2867 -35.5462 -35.5240 -35.5175 -35.5079 -35.4990 -35.4960
   -35.4948 -35.4685 -35.4624 -35.4437 -35.4262 -35.4257 -35.4232 -35.4206
   -35.4125 -35.4115 -35.3984 -35.3927 -35.3922 -35.3881 -35.3596 -35.3519
   -35.3471 -35.3339 -35.3136 -35.2951 -35.2874 -31.2586 -31.2531 -31.2472
   -31.2330 -31.2268 -31.2264 -31.2173 -31.2049 -31.1980 -31.1955 -31.1944
   -31.1931 -31.1810 -31.1803 -31.1785 -31.1784 -31.1770 -31.1736 -31.1726
   -31.1673 -31.1632 -31.1589 -31.1566 -31.1448 -31.1366 -31.1117 -31.0920
     6.5187   6.5782   6.5937   6.6443   7.8329   7.8434   7.8567   7.8722
     7.9104   7.9222   7.9321   7.9462   8.2666   8.2780   8.2977   8.3042
     8.5098   8.5227   8.5353   8.5374   8.6571   8.6742   8.6799   8.6868
     8.6882   8.6905   8.7014   8.7114   8.7186   8.7397   8.7424   8.7498
     8.7534   8.7735   8.7813   8.8167   8.9431   9.0048   9.0075   9.0313
     9.0387   9.0518   9.0554   9.0694   9.1745   9.2029   9.2127   9.2155
     9.2219   9.2225   9.2294   9.2331   9.2452   9.2459   9.2508   9.2520
     9.2650   9.2726   9.2815   9.2857   9.2957   9.3578   9.3810   9.4043
     9.4072   9.4225   9.4517   9.4589   9.4624   9.4673   9.4676   9.4790
     9.4824   9.4969   9.5125   9.5233   9.5241   9.5506   9.5539   9.5577
     9.5674   9.6117   9.7525   9.7588   9.7879   9.7932   9.8084   9.8151
     9.8344   9.8352   9.8522   9.8531   9.8571   9.8614   9.8635   9.8855
     9.9468   9.9633   9.9974  10.0027  10.0331  10.0408  10.0558  10.0629
    10.3556  10.3770  10.3879  10.3918  10.4041  10.4174  10.4297  10.4315
    10.4650  10.4770  10.4784  10.4796  10.4824  10.4907  10.4962  10.5127
    10.5397  10.5582  10.5637  10.5794  10.5914  10.5956  10.6176  10.6257
    10.6651  10.6660  10.6745  10.6763  10.6767  10.6846  10.7118  10.7186
    10.7386  10.8211  10.8485  10.8712  10.9728  10.9907  11.0254  11.0813
    11.1139  11.1301  11.1365  11.1555  11.1811  11.1861  11.1914  11.2028
    11.2099  11.2129  11.2785  11.3384  11.3437  11.3448  11.3621  11.3740
    11.3784  11.3920  11.4099  11.4142  11.4438  11.4799  11.4882  11.5152
    11.5188  11.5543  11.5666  11.5686  11.5760  11.5781  11.6085  11.6144
    11.6384  11.6415  11.7152  11.7203  11.7536  11.7606  11.7950  11.8393
    11.8842  11.9115  11.9134  11.9471  11.9633  11.9684  12.0026  12.0033
    12.0149  12.0208  12.0291  12.0350  12.0379  12.0420  12.1099  12.1190
    12.1596  12.1722  12.1985  12.2200  12.2549  12.2960  12.2967  12.3516
    12.3619  12.3685  12.3869  12.4007  12.4417  12.4500  12.4567  12.4902
    12.5010  12.5083  12.5129  12.5130  12.5202  12.5527  12.5804  12.5810
    12.6358  12.6382  12.6444  12.6556  12.7069  12.7081  12.7611  12.7939
    12.8439  12.8499  12.9384  12.9438  12.9822  12.9976  13.0261  13.0393
    13.1890  13.2566  13.4130  13.5200  13.5314  13.6697  13.7097  13.7527
    13.9028  14.0164  14.0192  14.0948  14.1058  14.1439  14.2184  14.3103
    14.3353  14.5391  14.5675  14.5795  14.5825  14.7053  14.7571  15.0150
    15.0795  15.2716  15.3016  15.3358  15.3644  15.4495  15.5241  15.5573
    15.6284  15.6650  15.7610  15.7694  15.8638  15.8698  15.9220  16.0146
    16.0569  16.1020  16.1073  16.1584  16.1638  16.1775  16.2215  16.2329
    16.2593  16.2850  16.3049  16.3128  16.3282  16.3641  16.3642  16.4633
    16.5033  16.5651  16.5668  16.5945  16.6306  16.6461  16.6954  16.7008
    16.7632  16.7690  16.8160  16.8716  16.8784  16.8998  16.9873  16.9876
    17.0820  17.1541  17.1555  17.2205  18.6001  18.6936  18.7112  18.7373
    18.7467  18.7784  18.7896  18.8489  18.8929  18.9089  18.9532  19.0051

 ------ SPIN DOWN ----------


          k = 0.0000 0.0000 0.0000 ( 31747 PWs)   bands (ev):

   -66.7869 -66.7461 -66.7443 -66.6839 -66.6690 -66.6639 -66.6370 -66.6030
   -66.5528 -62.4205 -62.4095 -62.3737 -62.3647 -62.3579 -62.3526 -62.3410
   -62.3394 -62.2868 -35.5462 -35.5240 -35.5175 -35.5080 -35.4990 -35.4961
   -35.4948 -35.4685 -35.4625 -35.4437 -35.4262 -35.4257 -35.4231 -35.4207
   -35.4125 -35.4116 -35.3985 -35.3928 -35.3923 -35.3880 -35.3597 -35.3519
   -35.3471 -35.3339 -35.3135 -35.2950 -35.2873 -31.2584 -31.2529 -31.2479
   -31.2332 -31.2268 -31.2264 -31.2174 -31.2049 -31.1979 -31.1955 -31.1945
   -31.1931 -31.1809 -31.1802 -31.1784 -31.1783 -31.1770 -31.1735 -31.1728
   -31.1673 -31.1631 -31.1588 -31.1565 -31.1448 -31.1367 -31.1118 -31.0922
     5.6148   7.1545   7.1563   7.1979   7.2010   7.3643   7.8573   7.8870
     7.9157   7.9394   8.0867   8.1004   8.1408   8.1606   8.1906   8.2467
     8.2520   8.3032   8.3064   8.5183   8.5565   8.5600   8.5690   8.5950
     8.5994   8.8543   8.8600   8.8603   8.8817   8.8920   8.8946   8.8987
     8.9019   8.9042   8.9105   8.9229   8.9345   8.9605   8.9639   8.9730
     8.9832   9.0837   9.1200   9.1214   9.1283   9.1358   9.1550   9.1572
     9.1863   9.1973   9.2084   9.2655   9.2859   9.2965   9.3086   9.3586
     9.3626   9.3668   9.3699   9.3732   9.3756   9.3822   9.3934   9.4311
     9.4396   9.4459   9.4493   9.4535   9.4670   9.4706   9.4851   9.5789
     9.5814   9.5886   9.5899   9.5935   9.6016   9.6665   9.6688   9.6734
     9.6760   9.6768   9.6853   9.7393   9.7623   9.7710   9.8006   9.8497
     9.8503   9.9079   9.9093   9.9489   9.9518   9.9532  10.0075  10.0292
    10.1136  10.1308  10.1396  10.1505  10.2896  10.2918  10.2959  10.3000
    10.3027  10.3032  10.3066  10.3086  10.3092  10.3277  10.3428  10.3444
    10.3450  10.3463  10.3516  10.3561  10.3596  10.3686  10.3829  10.3838
    10.4006  10.5100  10.5199  10.5775  10.5979  10.6303  10.6383  10.6537
    10.6751  10.7849  10.7869  10.8132  10.8164  10.8191  10.8276  10.8417
    10.8449  10.8535  10.8578  10.8725  10.8741  10.8785  10.8855  10.8906
    10.9022  10.9222  11.0180  11.0216  11.0904  11.0923  11.2120  11.2221
    11.2239  11.2253  11.2759  11.2845  11.3002  11.3282  11.3538  11.3544
    11.3568  11.3740  11.3817  11.3835  11.3924  11.3941  11.4032  11.4103
    11.4161  11.4461  11.5505  11.5894  11.5918  11.5955  11.5980  11.6011
    11.6300  11.6786  11.7011  11.7022  11.7268  11.7301  11.7446  11.7483
    11.8326  11.8356  11.8463  11.8650  11.8706  11.9158  11.9272  11.9502
    11.9602  12.0151  12.0891  12.0994  12.1014  12.1016  12.1060  12.1427
    12.1449  12.1471  12.1483  12.1634  12.1692  12.1713  12.1847  12.2191
    12.2368  12.2440  12.3118  12.3197  12.3443  12.3692  12.3816  12.4079
    12.4312  12.4341  12.4393  12.4789  12.4910  12.4958  12.5039  12.5058
    12.5238  12.5253  12.5367  12.5571  12.5724  12.6168  12.6291  12.7008
    12.7104  12.7470  12.7487  12.7593  12.9767  13.0000  13.0631  13.0784
    13.1310  13.1369  13.1774  13.1926  13.3376  13.7692  13.7823  13.7884
    13.8218  13.9411  13.9601  14.2460  14.2776  14.3159  14.3380  14.5089
    14.8018  14.8627  14.9346  14.9889  15.0022  15.1158  15.1635  15.2474
    15.2772  15.3538  15.3551  15.3720  15.4779  15.4939  15.5208  15.5805
    15.6265  15.6468  15.6803  15.7889  15.8373  15.8447  15.9512  15.9802
    16.0448  16.0781  16.0917  16.1044  16.1294  16.1550  16.1841  16.1872
    16.2197  16.2602  16.2976  16.2998  16.3203  16.3534  16.3643  16.3809
    16.4304  16.5372  16.5579  16.6167  16.6554  16.6563  16.7274  16.8573
    16.9957  17.0308  17.1737  17.1987  17.2044  17.2301  17.2377  17.2551
    17.4970  17.5244  17.8666  17.9171  17.9244  17.9314  17.9672  18.1147
    18.2286  18.2793  18.3607  18.9754  19.0044  19.0319  19.1784  19.2187

          k = 0.0000 0.0000-0.5734 ( 31692 PWs)   bands (ev):

   -66.7869 -66.7461 -66.7443 -66.6839 -66.6690 -66.6639 -66.6370 -66.6030
   -66.5528 -62.4205 -62.4095 -62.3737 -62.3647 -62.3579 -62.3526 -62.3410
   -62.3394 -62.2868 -35.5462 -35.5240 -35.5175 -35.5080 -35.4990 -35.4961
   -35.4948 -35.4685 -35.4625 -35.4437 -35.4262 -35.4257 -35.4231 -35.4207
   -35.4125 -35.4116 -35.3985 -35.3928 -35.3923 -35.3880 -35.3597 -35.3519
   -35.3471 -35.3339 -35.3135 -35.2950 -35.2873 -31.2584 -31.2529 -31.2479
   -31.2332 -31.2268 -31.2264 -31.2174 -31.2049 -31.1979 -31.1955 -31.1945
   -31.1931 -31.1809 -31.1802 -31.1784 -31.1783 -31.1770 -31.1735 -31.1728
   -31.1673 -31.1631 -31.1588 -31.1565 -31.1448 -31.1367 -31.1118 -31.0922
     6.1552   6.2137   7.5329   7.5405   7.5663   7.5814   7.5840   7.6005
     7.6136   7.6393   8.3075   8.3175   8.3290   8.3405   8.3633   8.3747
     8.3798   8.3945   8.4570   8.4659   8.4664   8.4734   8.4960   8.4984
     8.5103   8.5122   8.6925   8.7175   8.7442   8.7986   8.9428   8.9522
     8.9717   8.9724   8.9728   8.9767   8.9794   9.0022   9.0065   9.0268
     9.0278   9.0415   9.0458   9.0663   9.0785   9.0976   9.1889   9.1963
     9.2315   9.2365   9.2387   9.2458   9.2669   9.2780   9.2821   9.2833
     9.2858   9.2925   9.2938   9.2971   9.3075   9.3167   9.4135   9.4154
     9.4205   9.4229   9.4284   9.4304   9.4511   9.4597   9.4678   9.4778
     9.4832   9.4849   9.4881   9.4973   9.5445   9.5480   9.6200   9.7018
     9.7829   9.7887   9.7968   9.8033   9.8045   9.8192   9.8296   9.8468
     9.8708   9.8778   9.8793   9.8832   9.8847   9.8883   9.8908   9.8912
    10.0553  10.0580  10.0627  10.0655  10.1340  10.1471  10.1503  10.1533
    10.1619  10.1928  10.1943  10.1985  10.2031  10.2196  10.3398  10.3643
    10.3828  10.3873  10.3974  10.4003  10.4096  10.4321  10.4539  10.5283
    10.5908  10.5912  10.6048  10.6082  10.6308  10.6396  10.6547  10.6630
    10.6738  10.6955  10.7125  10.7211  10.7610  10.7772  10.8159  10.8794
    10.9210  10.9715  10.9955  11.0060  11.0435  11.0522  11.0584  11.0728
    11.0754  11.0873  11.1056  11.1356  11.1437  11.1609  11.1837  11.1942
    11.2138  11.2369  11.2513  11.2527  11.2556  11.2560  11.2569  11.2671
    11.2679  11.2716  11.2778  11.2842  11.2962  11.3007  11.3009  11.3011
    11.3126  11.3161  11.3245  11.3264  11.5279  11.5993  11.7050  11.7140
    11.7145  11.7160  11.7181  11.7242  11.7270  11.7302  11.7360  11.7624
    11.7642  11.7662  11.7714  11.8071  11.8110  11.8129  11.8459  11.9348
    11.9366  11.9668  11.9691  12.0048  12.0383  12.0436  12.0553  12.0682
    12.1523  12.1540  12.2118  12.2450  12.2519  12.2769  12.3158  12.3812
    12.4106  12.4161  12.4337  12.4404  12.4521  12.4778  12.4895  12.4989
    12.5063  12.5091  12.5301  12.5368  12.5421  12.5626  12.5718  12.6231
    12.6232  12.6764  12.7442  12.7787  12.7809  12.8074  12.8671  12.8710
    12.9587  13.0049  13.0389  13.0987  13.1461  13.1578  13.1754  13.2087
    13.2159  13.2247  13.3051  13.4257  13.4849  13.5156  13.6331  13.7065
    13.9644  13.9717  13.9755  14.0745  14.1192  14.1402  14.2824  14.3105
    14.5729  14.8967  14.9131  14.9358  14.9580  15.0349  15.0966  15.1093
    15.1659  15.1694  15.2250  15.2532  15.3342  15.3544  15.3665  15.5374
    15.6172  15.6875  15.7167  15.7463  15.8134  15.9068  15.9168  16.0556
    16.0848  16.0902  16.1152  16.1368  16.1658  16.1841  16.1970  16.2027
    16.2123  16.2263  16.2416  16.2701  16.2727  16.2925  16.2989  16.3368
    16.3584  16.4589  16.4776  16.5281  16.6653  16.7136  16.7396  16.7586
    16.8826  16.8893  17.2165  17.2973  17.3391  17.3931  17.5177  17.5617
    17.5637  17.5844  17.6424  17.6762  17.7318  17.7380  17.8416  17.8720
    17.9157  17.9722  18.1036  18.1986  18.2136  18.2620  18.3103  18.3563

          k = 0.0000-0.5000 0.0000 ( 31722 PWs)   bands (ev):

   -66.7869 -66.7461 -66.7443 -66.6839 -66.6690 -66.6639 -66.6370 -66.6030
   -66.5528 -62.4205 -62.4095 -62.3737 -62.3647 -62.3579 -62.3526 -62.3410
   -62.3394 -62.2868 -35.5462 -35.5240 -35.5175 -35.5080 -35.4990 -35.4961
   -35.4948 -35.4685 -35.4625 -35.4437 -35.4262 -35.4257 -35.4231 -35.4207
   -35.4125 -35.4116 -35.3985 -35.3928 -35.3923 -35.3880 -35.3597 -35.3519
   -35.3471 -35.3339 -35.3135 -35.2950 -35.2873 -31.2586 -31.2532 -31.2473
   -31.2331 -31.2268 -31.2265 -31.2174 -31.2049 -31.1979 -31.1955 -31.1945
   -31.1931 -31.1809 -31.1802 -31.1784 -31.1783 -31.1770 -31.1735 -31.1728
   -31.1673 -31.1631 -31.1588 -31.1565 -31.1448 -31.1367 -31.1118 -31.0922
     6.0268   6.0582   7.4016   7.4406   7.4546   7.4913   7.6706   7.6805
     8.1028   8.1177   8.1434   8.1693   8.1991   8.2346   8.2441   8.2741
     8.3850   8.4296   8.4492   8.4852   8.6130   8.6223   8.6490   8.6515
     8.6722   8.6776   8.6888   8.7044   8.7532   8.8038   8.8163   8.8300
     8.8554   8.8660   8.8712   8.8919   8.9057   8.9099   8.9176   8.9204
     8.9268   8.9293   8.9357   8.9531   9.0426   9.0551   9.1550   9.1752
     9.1941   9.2017   9.2083   9.2294   9.2339   9.2406   9.3125   9.3339
     9.3562   9.3719   9.3773   9.4138   9.4732   9.4749   9.4892   9.5083
     9.5279   9.5377   9.5603   9.5738   9.5780   9.5950   9.6092   9.6153
     9.6177   9.6219   9.6290   9.6361   9.6366   9.6390   9.6416   9.6459
     9.6533   9.6646   9.6708   9.6799   9.6988   9.7080   9.7171   9.7354
     9.7499   9.7539   9.7564   9.7744   9.8962   9.9021   9.9154   9.9850
    10.0071  10.0436  10.1526  10.1936  10.2093  10.2248  10.2491  10.2537
    10.2669  10.2705  10.2730  10.2746  10.2840  10.2853  10.3318  10.3555
    10.3599  10.3786  10.3839  10.3936  10.4216  10.4408  10.4512  10.4822
    10.4871  10.5095  10.5268  10.5460  10.5555  10.5775  10.5861  10.5885
    10.5981  10.6578  10.6727  10.6916  10.7089  10.7231  10.7546  10.7664
    10.8007  10.8171  10.8302  10.8488  10.8540  10.8747  10.8907  10.9318
    10.9576  10.9976  11.0213  11.0333  11.0444  11.0950  11.1651  11.1830
    11.2941  11.3452  11.3492  11.3668  11.3713  11.3824  11.4040  11.4066
    11.4179  11.4456  11.4630  11.4844  11.4910  11.5310  11.5367  11.5559
    11.5713  11.6040  11.6106  11.6188  11.6338  11.6475  11.6939  11.7453
    11.7510  11.7714  11.7888  11.7939  11.8158  11.8325  11.8479  11.8635
    11.8653  11.8910  11.9068  11.9166  11.9403  11.9570  11.9600  11.9709
    11.9758  11.9801  11.9829  12.0138  12.0943  12.1411  12.1469  12.1582
    12.1882  12.1923  12.2007  12.2337  12.2400  12.2483  12.2673  12.2753
    12.2797  12.2907  12.3469  12.3478  12.3606  12.3953  12.4017  12.4197
    12.4346  12.4462  12.4564  12.4616  12.4799  12.4950  12.5542  12.5720
    12.5888  12.5935  12.6054  12.6353  12.6442  12.6803  12.7020  12.7967
    12.8844  12.9453  12.9719  13.0073  13.0443  13.0685  13.1036  13.1302
    13.1377  13.1995  13.2199  13.2248  13.2752  13.2805  13.3147  13.3296
    13.4424  13.4646  13.5127  13.6699  13.6775  14.3218  14.4529  14.5462
    14.6320  14.7404  14.8222  14.8323  14.8476  14.9000  14.9413  14.9659
    14.9980  15.1523  15.2177  15.3215  15.3235  15.4414  15.5076  15.5214
    15.6530  15.7146  15.7682  15.8113  15.8450  15.8648  15.8956  15.9595
    16.0181  16.0359  16.0509  16.1065  16.1216  16.1276  16.1601  16.1795
    16.2026  16.2171  16.2205  16.2712  16.2950  16.3026  16.3788  16.3913
    16.3960  16.5068  16.5534  16.6416  16.6937  16.8128  17.0180  17.0633
    17.1641  17.2161  17.2350  17.3325  17.3789  17.5037  17.6071  17.6305
    17.6621  17.7364  17.8004  17.8270  17.8428  17.8554  17.9497  17.9517
    18.0114  18.0694  18.1539  18.2256  19.2526  19.3161  19.3163  19.3413

          k = 0.0000-0.5000-0.5734 ( 31696 PWs)   bands (ev):

   -66.7869 -66.7461 -66.7443 -66.6839 -66.6690 -66.6639 -66.6370 -66.6030
   -66.5528 -62.4205 -62.4095 -62.3737 -62.3647 -62.3579 -62.3526 -62.3410
   -62.3394 -62.2868 -35.5462 -35.5240 -35.5175 -35.5080 -35.4990 -35.4961
   -35.4948 -35.4685 -35.4625 -35.4437 -35.4262 -35.4257 -35.4231 -35.4207
   -35.4125 -35.4116 -35.3985 -35.3928 -35.3923 -35.3880 -35.3597 -35.3519
   -35.3471 -35.3339 -35.3135 -35.2950 -35.2873 -31.2586 -31.2532 -31.2473
   -31.2331 -31.2268 -31.2265 -31.2174 -31.2049 -31.1979 -31.1955 -31.1945
   -31.1931 -31.1809 -31.1802 -31.1784 -31.1783 -31.1770 -31.1735 -31.1728
   -31.1673 -31.1631 -31.1588 -31.1565 -31.1448 -31.1367 -31.1118 -31.0922
     6.5187   6.5782   6.5937   6.6443   7.8329   7.8434   7.8566   7.8722
     7.9104   7.9222   7.9321   7.9462   8.2667   8.2780   8.2977   8.3042
     8.5098   8.5227   8.5353   8.5374   8.6571   8.6742   8.6799   8.6868
     8.6882   8.6905   8.7013   8.7114   8.7186   8.7397   8.7424   8.7498
     8.7534   8.7735   8.7813   8.8167   8.9431   9.0047   9.0075   9.0313
     9.0387   9.0518   9.0554   9.0694   9.1745   9.2029   9.2127   9.2154
     9.2218   9.2225   9.2295   9.2331   9.2452   9.2459   9.2508   9.2519
     9.2650   9.2726   9.2815   9.2857   9.2957   9.3578   9.3810   9.4043
     9.4072   9.4225   9.4517   9.4589   9.4624   9.4673   9.4676   9.4790
     9.4824   9.4969   9.5125   9.5233   9.5241   9.5506   9.5539   9.5577
     9.5674   9.6117   9.7525   9.7587   9.7879   9.7932   9.8084   9.8151
     9.8344   9.8351   9.8522   9.8531   9.8571   9.8614   9.8635   9.8855
     9.9468   9.9633   9.9974  10.0026  10.0331  10.0408  10.0558  10.0629
    10.3556  10.3770  10.3879  10.3918  10.4041  10.4174  10.4297  10.4315
    10.4649  10.4770  10.4784  10.4796  10.4824  10.4907  10.4961  10.5127
    10.5397  10.5582  10.5636  10.5794  10.5914  10.5956  10.6176  10.6257
    10.6651  10.6660  10.6745  10.6763  10.6767  10.6846  10.7118  10.7185
    10.7386  10.8211  10.8485  10.8712  10.9728  10.9907  11.0254  11.0813
    11.1139  11.1301  11.1365  11.1556  11.1810  11.1861  11.1914  11.2028
    11.2099  11.2129  11.2785  11.3384  11.3437  11.3448  11.3621  11.3740
    11.3784  11.3920  11.4099  11.4142  11.4438  11.4799  11.4882  11.5152
    11.5188  11.5543  11.5666  11.5686  11.5760  11.5781  11.6085  11.6144
    11.6384  11.6415  11.7152  11.7203  11.7536  11.7605  11.7950  11.8393
    11.8841  11.9115  11.9134  11.9471  11.9633  11.9683  12.0026  12.0033
    12.0149  12.0208  12.0291  12.0350  12.0379  12.0420  12.1099  12.1190
    12.1596  12.1722  12.1985  12.2200  12.2549  12.2960  12.2967  12.3516
    12.3619  12.3685  12.3868  12.4007  12.4417  12.4500  12.4567  12.4902
    12.5010  12.5083  12.5129  12.5130  12.5201  12.5526  12.5803  12.5810
    12.6358  12.6382  12.6444  12.6555  12.7069  12.7081  12.7611  12.7939
    12.8439  12.8500  12.9384  12.9438  12.9822  12.9976  13.0261  13.0393
    13.1890  13.2566  13.4130  13.5200  13.5314  13.6697  13.7097  13.7527
    13.9028  14.0164  14.0192  14.0948  14.1057  14.1439  14.2184  14.3103
    14.3353  14.5391  14.5675  14.5795  14.5825  14.7053  14.7571  15.0150
    15.0795  15.2716  15.3016  15.3358  15.3644  15.4495  15.5241  15.5573
    15.6284  15.6650  15.7610  15.7694  15.8638  15.8698  15.9220  16.0146
    16.0569  16.1020  16.1073  16.1584  16.1638  16.1775  16.2214  16.2328
    16.2593  16.2850  16.3049  16.3128  16.3282  16.3641  16.3642  16.4633
    16.5032  16.5651  16.5667  16.5945  16.6305  16.6461  16.6954  16.7008
    16.7632  16.7690  16.8160  16.8716  16.8784  16.8997  16.9873  16.9875
    17.0820  17.1541  17.1555  17.2205  18.6000  18.6936  18.7112  18.7374
    18.7467  18.7783  18.7896  18.8489  18.8929  18.9089  18.9532  19.0051

          k =-0.5000-0.5000 0.0000 ( 31612 PWs)   bands (ev):

   -66.7869 -66.7461 -66.7443 -66.6839 -66.6690 -66.6639 -66.6370 -66.6030
   -66.5528 -62.4205 -62.4095 -62.3737 -62.3647 -62.3579 -62.3526 -62.3410
   -62.3394 -62.2868 -35.5462 -35.5240 -35.5176 -35.5080 -35.4990 -35.4961
   -35.4948 -35.4685 -35.4625 -35.4437 -35.4262 -35.4257 -35.4231 -35.4207
   -35.4125 -35.4116 -35.3985 -35.3928 -35.3923 -35.3880 -35.3597 -35.3519
   -35.3471 -35.3339 -35.3135 -35.2950 -35.2873 -31.2586 -31.2532 -31.2473
   -31.2332 -31.2268 -31.2265 -31.2174 -31.2048 -31.1979 -31.1955 -31.1945
   -31.1931 -31.1809 -31.1802 -31.1784 -31.1783 -31.1768 -31.1733 -31.1728
   -31.1676 -31.1631 -31.1588 -31.1565 -31.1448 -31.1367 -31.1118 -31.0922
     6.4140   6.4329   6.4380   6.4750   8.0082   8.0153   8.0208   8.0224
     8.0886   8.1230   8.2960   8.3218   8.3271   8.3334   8.3402   8.3460
     8.3508   8.3534   8.3539   8.3595   8.3649   8.3862   8.5680   8.5994
     8.6493   8.6652   8.6767   8.6960   8.7152   8.7236   8.7351   8.7440
     8.7493   8.7963   8.9164   8.9202   8.9746   8.9751   8.9773   8.9780
     8.9834   8.9906   8.9937   9.0024   9.0039   9.0335   9.0411   9.0471
     9.1100   9.1346   9.3060   9.3127   9.3167   9.3227   9.4013   9.4087
     9.4155   9.4172   9.4197   9.4263   9.4275   9.4318   9.4472   9.4558
     9.4613   9.4757   9.4757   9.4811   9.4840   9.4854   9.4927   9.5047
     9.5162   9.5192   9.5299   9.5399   9.5424   9.5676   9.5753   9.5958
     9.5984   9.6101   9.6972   9.6996   9.7684   9.8174   9.8248   9.8254
     9.8318   9.8334   9.8347   9.8394   9.8443   9.8677  10.0444  10.0619
    10.0736  10.1046  10.1116  10.1284  10.1383  10.1405  10.1562  10.1729
    10.1789  10.1923  10.2022  10.2040  10.2153  10.2201  10.2262  10.2285
    10.2318  10.2371  10.2487  10.2533  10.4561  10.4701  10.4882  10.4920
    10.4960  10.4996  10.5044  10.5366  10.6297  10.6368  10.6399  10.6480
    10.6637  10.6686  10.6724  10.6769  10.6908  10.6926  10.6948  10.7037
    10.7141  10.7327  10.7895  10.8114  10.8298  10.8419  10.8630  10.8802
    10.9233  10.9362  11.1967  11.2093  11.2127  11.2227  11.3072  11.3119
    11.3366  11.3410  11.3475  11.3587  11.3971  11.3994  11.5437  11.5517
    11.5867  11.6241  11.6339  11.6404  11.6407  11.6432  11.6465  11.6486
    11.6521  11.6525  11.6958  11.7225  11.7346  11.7528  11.7604  11.8520
    11.8727  11.8764  11.8784  11.8803  11.8834  11.8883  11.9897  12.0135
    12.0212  12.0262  12.0766  12.0898  12.0912  12.1055  12.1092  12.1099
    12.1110  12.1142  12.1154  12.1194  12.1378  12.1506  12.1706  12.1795
    12.1872  12.1872  12.2021  12.2060  12.2192  12.2240  12.2333  12.2443
    12.2543  12.2633  12.2776  12.2833  12.2850  12.2930  12.3025  12.3214
    12.3769  12.4282  12.4402  12.4467  12.4695  12.4770  12.4843  12.4943
    12.5113  12.5355  12.5727  12.5812  12.5989  12.6187  12.6377  12.6825
    12.7139  12.7457  12.7982  12.8814  12.8877  12.9144  12.9539  12.9557
    12.9617  12.9636  12.9885  13.0278  13.0725  13.5527  13.6722  13.6743
    13.7218  13.7974  13.8133  13.8276  13.8826  13.9299  14.0341  14.0971
    14.1821  14.2777  14.2955  14.3433  14.5237  14.6606  14.8653  14.8898
    15.0979  15.1948  15.1981  15.2950  15.3745  15.5126  15.5671  15.7353
    15.7951  15.7976  15.8467  15.8708  15.8862  15.8891  15.9177  15.9374
    15.9448  15.9565  15.9927  16.0073  16.0902  16.1272  16.1332  16.1629
    16.1888  16.2544  16.3161  16.3551  16.3603  16.3870  16.4008  16.4135
    16.4658  16.4693  16.5005  16.6648  16.6840  16.7088  16.7254  16.7501
    16.7846  16.8227  16.9194  16.9726  17.3836  17.3923  17.6339  18.0223
    18.1459  18.1981  18.2045  18.2373  18.2803  18.4480  18.4688  18.5371
    18.5927  18.6202  18.6559  18.6725  18.7710  18.7860  18.7939  18.8029

          k =-0.5000-0.5000-0.5734 ( 31672 PWs)   bands (ev):

   -66.7869 -66.7461 -66.7443 -66.6839 -66.6690 -66.6639 -66.6370 -66.6030
   -66.5528 -62.4205 -62.4095 -62.3737 -62.3647 -62.3579 -62.3526 -62.3410
   -62.3394 -62.2868 -35.5462 -35.5240 -35.5176 -35.5080 -35.4990 -35.4961
   -35.4948 -35.4685 -35.4625 -35.4437 -35.4262 -35.4257 -35.4231 -35.4207
   -35.4125 -35.4116 -35.3985 -35.3928 -35.3923 -35.3880 -35.3597 -35.3519
   -35.3471 -35.3339 -35.3135 -35.2950 -35.2873 -31.2586 -31.2532 -31.2473
   -31.2332 -31.2268 -31.2265 -31.2174 -31.2048 -31.1979 -31.1955 -31.1945
   -31.1931 -31.1809 -31.1802 -31.1784 -31.1783 -31.1768 -31.1733 -31.1728
   -31.1676 -31.1631 -31.1588 -31.1565 -31.1448 -31.1367 -31.1118 -31.0922
     6.8808   6.9143   6.9230   6.9467   6.9973   7.0156   7.0262   7.0474
     8.4447   8.4669   8.4705   8.4815   8.4872   8.4919   8.4924   8.4953
     8.4982   8.5008   8.5129   8.5159   8.5373   8.5415   8.5441   8.5708
     8.5740   8.5781   8.5834   8.6215   8.8744   8.8745   8.8896   8.8920
     8.8975   8.9198   8.9368   8.9412   9.0824   9.1026   9.1162   9.1228
     9.1243   9.1419   9.1466   9.1491   9.1543   9.1564   9.1600   9.1630
     9.1661   9.1679   9.1708   9.1726   9.1728   9.1748   9.1767   9.1793
     9.1797   9.1821   9.1944   9.1993   9.2005   9.2054   9.2097   9.2137
     9.2268   9.2320   9.2430   9.2450   9.2574   9.2612   9.2651   9.2832
     9.5453   9.5492   9.5579   9.5703   9.5769   9.5960   9.6036   9.6263
     9.6421   9.6638   9.6752   9.6755   9.7298   9.7401   9.7529   9.7870
     9.8131   9.8260   9.8425   9.8568   9.8798   9.8841   9.8909   9.8973
    10.1133  10.1208  10.1494  10.1539  10.1650  10.1721  10.1902  10.1985
    10.2834  10.3222  10.4368  10.4577  10.4588  10.4680  10.4805  10.4815
    10.4865  10.4868  10.4940  10.4995  10.5032  10.5114  10.5131  10.5192
    10.5233  10.5247  10.5415  10.5461  10.5696  10.5702  10.5864  10.6012
    10.6014  10.6266  10.6384  10.6385  10.6522  10.6550  10.6661  10.6844
    10.6864  10.6879  10.6990  10.7108  10.7146  10.7278  11.0189  11.0419
    11.0710  11.0793  11.0803  11.0858  11.1272  11.1432  11.3788  11.3872
    11.3905  11.3995  11.4021  11.4327  11.4384  11.4440  11.4553  11.4792
    11.4795  11.4905  11.5009  11.5042  11.5168  11.5450  11.6058  11.6211
    11.6411  11.6479  11.6526  11.6685  11.6733  11.6954  11.6971  11.7181
    11.7215  11.7274  11.7342  11.7606  11.7648  11.7671  11.7790  11.7833
    11.8028  11.8082  11.8183  11.8330  11.8368  11.9421  11.9637  12.0014
    12.0176  12.0261  12.0885  12.1036  12.1205  12.1304  12.1366  12.1482
    12.1585  12.2037  12.2084  12.2206  12.2391  12.2480  12.2704  12.3190
    12.3566  12.3735  12.4051  12.4267  12.4354  12.4465  12.4470  12.4504
    12.4776  12.4975  12.5073  12.5330  12.5435  12.5534  12.5870  12.6232
    12.6447  12.6714  12.6740  12.6780  12.7012  12.7623  12.7905  12.8041
    12.9120  12.9506  12.9650  12.9729  13.0556  13.1273  13.1501  13.1866
    13.2476  13.2747  13.2918  13.3317  13.3591  13.4959  13.4985  13.5032
    13.5163  13.6037  13.7629  13.7882  13.9129  14.0538  14.0837  14.1608
    14.1872  14.2087  14.4153  14.5532  14.6916  14.7528  14.8626  14.9607
    14.9734  15.3059  15.3161  15.3650  15.4302  15.6224  15.6509  15.6557
    15.7038  15.7218  15.7609  15.8393  15.8620  15.8681  15.9104  15.9482
    15.9620  15.9921  16.0844  16.1186  16.1391  16.1545  16.1624  16.2117
    16.2181  16.2508  16.2814  16.3596  16.4130  16.4419  16.4601  16.4900
    16.5220  16.5464  16.5777  16.6101  16.6474  16.6830  16.6894  16.7306
    16.7402  16.8208  16.8474  16.8876  16.9047  16.9487  16.9935  17.0239
    17.0881  17.1184  17.5903  17.7492  17.9082  17.9586  18.9988  19.0091
    19.0201  19.0633  19.0679  19.1068  19.1732  19.2039  19.2708  19.2860

          k =-0.5000 0.0000 0.0000 ( 31722 PWs)   bands (ev):

   -66.7869 -66.7461 -66.7443 -66.6839 -66.6690 -66.6639 -66.6370 -66.6030
   -66.5528 -62.4205 -62.4095 -62.3737 -62.3647 -62.3579 -62.3526 -62.3410
   -62.3394 -62.2868 -35.5462 -35.5240 -35.5176 -35.5080 -35.4990 -35.4961
   -35.4948 -35.4685 -35.4625 -35.4437 -35.4262 -35.4257 -35.4231 -35.4207
   -35.4125 -35.4116 -35.3985 -35.3928 -35.3923 -35.3880 -35.3597 -35.3519
   -35.3471 -35.3339 -35.3135 -35.2950 -35.2873 -31.2584 -31.2529 -31.2479
   -31.2333 -31.2268 -31.2264 -31.2174 -31.2049 -31.1979 -31.1955 -31.1945
   -31.1931 -31.1809 -31.1802 -31.1784 -31.1783 -31.1768 -31.1733 -31.1728
   -31.1676 -31.1631 -31.1588 -31.1565 -31.1448 -31.1367 -31.1118 -31.0922
     6.0277   6.0576   7.4069   7.4320   7.4474   7.5006   7.6718   7.6799
     8.1019   8.1158   8.1424   8.1742   8.1934   8.2343   8.2524   8.2754
     8.3929   8.4114   8.4482   8.4948   8.6110   8.6290   8.6393   8.6513
     8.6685   8.6794   8.6843   8.7146   8.7554   8.8033   8.8242   8.8381
     8.8529   8.8644   8.8698   8.8775   8.9026   8.9066   8.9150   8.9191
     8.9269   8.9345   8.9378   8.9576   9.0461   9.0527   9.1562   9.1708
     9.1826   9.2036   9.2127   9.2235   9.2404   9.2442   9.3145   9.3341
     9.3450   9.3667   9.3865   9.4193   9.4709   9.4773   9.4875   9.4990
     9.5318   9.5356   9.5580   9.5733   9.5848   9.6052   9.6121   9.6159
     9.6191   9.6219   9.6269   9.6309   9.6318   9.6372   9.6467   9.6475
     9.6558   9.6599   9.6710   9.6793   9.7052   9.7114   9.7117   9.7356
     9.7366   9.7417   9.7715   9.7797   9.8928   9.9052   9.9151   9.9824
    10.0174  10.0333  10.1499  10.1972  10.2098  10.2243  10.2487  10.2551
    10.2677  10.2686  10.2694  10.2722  10.2861  10.2902  10.3358  10.3517
    10.3691  10.3785  10.3842  10.3915  10.4209  10.4412  10.4554  10.4772
    10.4945  10.5125  10.5261  10.5290  10.5579  10.5688  10.5786  10.5961
    10.6043  10.6515  10.6858  10.6883  10.7179  10.7363  10.7459  10.7624
    10.8069  10.8241  10.8270  10.8495  10.8531  10.8722  10.8849  10.9331
    10.9520  11.0070  11.0145  11.0196  11.0483  11.0944  11.1674  11.1881
    11.2840  11.3457  11.3495  11.3595  11.3746  11.3915  11.4060  11.4079
    11.4219  11.4571  11.4637  11.4725  11.4904  11.5175  11.5495  11.5502
    11.5689  11.5903  11.6030  11.6301  11.6423  11.6679  11.6883  11.7352
    11.7416  11.7663  11.7849  11.8065  11.8190  11.8471  11.8518  11.8697
    11.8756  11.8829  11.9098  11.9283  11.9344  11.9526  11.9552  11.9634
    11.9783  11.9789  11.9907  12.0120  12.0767  12.1144  12.1565  12.1698
    12.1937  12.1995  12.2125  12.2307  12.2414  12.2477  12.2652  12.2770
    12.2873  12.2915  12.3017  12.3410  12.3419  12.3910  12.4010  12.4165
    12.4364  12.4604  12.4624  12.4836  12.4923  12.5103  12.5224  12.5596
    12.5888  12.6051  12.6155  12.6159  12.6393  12.7116  12.7448  12.7613
    12.8297  12.9301  12.9777  13.0101  13.0536  13.0594  13.1375  13.1547
    13.1600  13.1890  13.2036  13.2292  13.2488  13.2859  13.3182  13.3363
    13.4531  13.4619  13.4969  13.6667  13.6732  14.3141  14.5350  14.5841
    14.6580  14.7334  14.7720  14.7737  14.8290  14.8834  14.9185  14.9587
    15.0440  15.0745  15.1589  15.3053  15.4305  15.4625  15.5460  15.5646
    15.6889  15.7157  15.7504  15.7736  15.8367  15.8645  15.9242  16.0013
    16.0350  16.0439  16.0605  16.0701  16.0918  16.1352  16.1676  16.1835
    16.1900  16.2125  16.2207  16.2344  16.2393  16.2481  16.3693  16.4268
    16.4575  16.4840  16.5323  16.6579  16.7193  16.8348  16.9639  17.0471
    17.1580  17.2064  17.2442  17.3203  17.4389  17.5268  17.6130  17.6258
    17.7091  17.7764  17.7876  17.8042  17.8161  17.8304  17.9305  17.9527
    18.0216  18.0367  18.1581  18.2456  19.2415  19.3203  19.3244  19.3400

          k =-0.5000 0.0000 0.5734 ( 31696 PWs)   bands (ev):

   -66.7869 -66.7461 -66.7443 -66.6839 -66.6690 -66.6639 -66.6370 -66.6030
   -66.5528 -62.4205 -62.4095 -62.3737 -62.3647 -62.3579 -62.3526 -62.3410
   -62.3394 -62.2868 -35.5462 -35.5240 -35.5176 -35.5080 -35.4990 -35.4961
   -35.4948 -35.4685 -35.4625 -35.4437 -35.4262 -35.4257 -35.4231 -35.4207
   -35.4125 -35.4116 -35.3985 -35.3928 -35.3923 -35.3880 -35.3597 -35.3519
   -35.3471 -35.3339 -35.3135 -35.2950 -35.2873 -31.2584 -31.2529 -31.2479
   -31.2333 -31.2268 -31.2264 -31.2174 -31.2049 -31.1979 -31.1955 -31.1945
   -31.1931 -31.1809 -31.1802 -31.1784 -31.1783 -31.1768 -31.1733 -31.1728
   -31.1676 -31.1631 -31.1588 -31.1565 -31.1448 -31.1367 -31.1118 -31.0922
     6.5233   6.5831   6.5885   6.6392   7.8313   7.8521   7.8604   7.8694
     7.9093   7.9193   7.9300   7.9438   8.2663   8.2800   8.2985   8.3030
     8.5103   8.5244   8.5343   8.5359   8.6532   8.6750   8.6754   8.6843
     8.6909   8.6975   8.6997   8.7113   8.7163   8.7367   8.7371   8.7512
     8.7579   8.7786   8.7814   8.8175   8.9471   9.0040   9.0051   9.0339
     9.0368   9.0507   9.0543   9.0686   9.1867   9.2016   9.2123   9.2165
     9.2217   9.2218   9.2330   9.2342   9.2426   9.2431   9.2537   9.2556
     9.2617   9.2783   9.2808   9.2861   9.2898   9.3450   9.3807   9.4022
     9.4082   9.4221   9.4512   9.4576   9.4650   9.4663   9.4680   9.4788
     9.4881   9.5042   9.5096   9.5158   9.5276   9.5458   9.5544   9.5556
     9.5669   9.6071   9.7529   9.7586   9.7882   9.7926   9.8083   9.8150
     9.8303   9.8391   9.8479   9.8563   9.8589   9.8604   9.8722   9.8881
     9.9437   9.9677   9.9865  10.0013  10.0299  10.0461  10.0546  10.0687
    10.3650  10.3826  10.3993  10.3997  10.4111  10.4208  10.4264  10.4322
    10.4473  10.4721  10.4820  10.4832  10.4853  10.4894  10.4965  10.5038
    10.5308  10.5402  10.5731  10.5752  10.5832  10.5899  10.6227  10.6385
    10.6599  10.6611  10.6712  10.6721  10.6749  10.6907  10.7181  10.7212
    10.7406  10.8210  10.8498  10.8785  10.9677  10.9889  11.0331  11.0907
    11.1128  11.1287  11.1305  11.1532  11.1849  11.1909  11.1916  11.2026
    11.2104  11.2127  11.2838  11.3166  11.3317  11.3420  11.3632  11.3722
    11.3776  11.4000  11.4072  11.4231  11.4425  11.4778  11.4859  11.5161
    11.5259  11.5545  11.5719  11.5778  11.5804  11.5883  11.6007  11.6221
    11.6281  11.6316  11.7160  11.7265  11.7503  11.7607  11.8007  11.8389
    11.8830  11.9113  11.9293  11.9409  11.9503  11.9603  11.9996  12.0034
    12.0132  12.0278  12.0329  12.0366  12.0408  12.0440  12.0997  12.1133
    12.1545  12.1721  12.1883  12.2341  12.2499  12.2912  12.3031  12.3325
    12.3534  12.3618  12.3956  12.4016  12.4358  12.4512  12.4591  12.4632
    12.4894  12.5031  12.5269  12.5399  12.5585  12.5902  12.5921  12.6078
    12.6153  12.6380  12.6526  12.6556  12.6674  12.6888  12.8045  12.8114
    12.8339  12.8474  12.8937  12.9360  13.0147  13.0194  13.0216  13.0262
    13.2000  13.2087  13.3928  13.4415  13.5206  13.6261  13.7529  13.7638
    13.9517  13.9609  14.0327  14.1092  14.1557  14.2117  14.2549  14.3279
    14.4645  14.4734  14.5413  14.5695  14.6107  14.6124  14.6879  15.0210
    15.1010  15.1907  15.2839  15.3736  15.3855  15.4281  15.5397  15.5601
    15.6274  15.6813  15.7051  15.7523  15.7682  15.9679  16.0179  16.0573
    16.0773  16.0941  16.1347  16.1478  16.1704  16.1819  16.1881  16.2193
    16.2620  16.2697  16.2848  16.3132  16.3314  16.3780  16.4021  16.4868
    16.4875  16.5240  16.5419  16.5521  16.5807  16.6440  16.6969  16.7059
    16.7318  16.7826  16.8322  16.8616  16.8951  16.9767  16.9877  17.0148
    17.1011  17.1281  17.1409  17.2038  18.6032  18.6920  18.7036  18.7349
    18.7614  18.7804  18.8209  18.8485  18.8802  18.9028  18.9435  18.9688

     the Fermi energy is    14.8165 ev

!    total energy              =  -33062.60547759 Ry
     Harris-Foulkes estimate   =  -33062.60545730 Ry
     estimated scf accuracy    <       0.00000057 Ry

     total all-electron energy =  -1410574.695852 Ry

     The total energy is the sum of the following terms:

     one-electron contribution =   -1645.74145187 Ry
     hartree contribution      =    1489.94452842 Ry
     xc contribution           =   -1658.74432131 Ry
     ewald contribution        =   -4919.25534656 Ry
     one-center paw contrib.   =  -26328.80888627 Ry

     total magnetization       =    -0.00 Bohr mag/cell
     absolute magnetization    =    78.64 Bohr mag/cell

     convergence has been achieved in  21 iterations

     Writing output data file mnau2.save
 
     init_run     :     52.30s CPU     53.09s WALL (       1 calls)
     electrons    :   3130.04s CPU   3184.48s WALL (       1 calls)

     Called by init_run:
     wfcinit      :     46.40s CPU     46.91s WALL (       1 calls)
     potinit      :      2.47s CPU      2.53s WALL (       1 calls)

     Called by electrons:
     c_bands      :   2789.69s CPU   2833.99s WALL (      21 calls)
     sum_band     :    285.06s CPU    291.56s WALL (      21 calls)
     v_of_rho     :      5.66s CPU      5.85s WALL (      22 calls)
     newd         :     17.86s CPU     20.32s WALL (      22 calls)
     PAW_pot      :     32.55s CPU     33.02s WALL (      22 calls)
     mix_rho      :      1.14s CPU      1.21s WALL (      21 calls)

     Called by c_bands:
     init_us_2    :     10.36s CPU     10.42s WALL (     688 calls)
     cegterg      :   2724.41s CPU   2767.71s WALL (     336 calls)

     Called by sum_band:
     sum_band:bec :      1.65s CPU      1.65s WALL (     336 calls)
     addusdens    :     31.40s CPU     34.42s WALL (      21 calls)

     Called by *egterg:
     h_psi        :    961.73s CPU    972.84s WALL (    1332 calls)
     s_psi        :    235.59s CPU    235.79s WALL (    1332 calls)
     g_psi        :      3.64s CPU      3.65s WALL (     980 calls)
     cdiaghg      :    974.56s CPU    975.14s WALL (    1316 calls)

     Called by h_psi:
     h_psi:pot    :    953.10s CPU    964.16s WALL (    1332 calls)
     h_psi:calbec :    235.31s CPU    237.71s WALL (    1332 calls)
     vloc_psi     :    481.45s CPU    489.90s WALL (    1332 calls)
     add_vuspsi   :    236.32s CPU    236.54s WALL (    1332 calls)

     General routines
     calbec       :    336.05s CPU    339.53s WALL (    1668 calls)
     fft          :      4.65s CPU      4.97s WALL (     672 calls)
     ffts         :      0.11s CPU      0.12s WALL (      86 calls)
     fftw         :    457.12s CPU    464.83s WALL (  753156 calls)
     interpolate  :      0.83s CPU      0.87s WALL (      86 calls)
 
     Parallel routines
     fft_scatt_xy :     57.61s CPU     58.44s WALL (  753914 calls)
     fft_scatt_yz :    114.51s CPU    117.87s WALL (  753914 calls)
 
     PWSCF        : 53m 8.57s CPU    54m37.19s WALL

 
   This run was terminated on:  20:22: 3   6Mar2019            

=------------------------------------------------------------------------------=
   JOB DONE.
=------------------------------------------------------------------------------=
