
     Program PWSCF v.6.2 (svn rev. 14038) starts on  7Mar2019 at  0:16: 4 

     This program is part of the open-source Quantum ESPRESSO suite
     for quantum simulation of materials; please cite
         "P. Giannozzi et al., J. Phys.:Condens. Matter 21 395502 (2009);
         "P. Giannozzi et al., J. Phys.:Condens. Matter 29 465901 (2017);
          URL http://www.quantum-espresso.org", 
     in publications or presentations arising from this work. More details at
     http://www.quantum-espresso.org/quote

     Parallel version (MPI), running on    16 processors

     MPI processes distributed on     1 nodes
     R & G space division:  proc/nbgrp/npool/nimage =      16
     Waiting for input...
     Reading input from standard input

     Current dimensions of program PWSCF are:
     Max number of different atomic species (ntypx) = 10
     Max number of k-points (npk) =  40000
     Max angular momentum in pseudopotentials (lmaxx) =  3
               file Mn.pbe-spn-kjpaw_psl.0.3.1.UPF: wavefunction(s)  3P 3D renormalized
               file Mn.pbe-spn-kjpaw_psl.0.3.1.UPF: wavefunction(s)  3P 3D renormalized
               file Au.pbe-dn-kjpaw_psl.0.1.UPF: wavefunction(s)  6S 6P 5D renormalized

     Subspace diagonalization in iterative solution of the eigenvalue problem:
     a serial algorithm will be used

 
     Parallelization info
     --------------------
     sticks:   dense  smooth     PW     G-vecs:    dense   smooth      PW
     Min         736     331     90                52486    15847    2256
     Max         737     332     91                52489    15850    2259
     Sum       11785    5297   1449               839803   253559   36125
 


     bravais-lattice index     =            0
     lattice parameter (alat)  =      19.2459  a.u.
     unit-cell volume          =    6216.1497 (a.u.)^3
     number of atoms/cell      =           54
     number of atomic types    =            3
     number of electrons       =       666.00
     number of Kohn-Sham states=          400
     kinetic-energy cutoff     =      45.0000  Ry
     charge density cutoff     =     400.0000  Ry
     convergence threshold     =      1.0E-06
     mixing beta               =       0.1000
     number of iterations used =            8  plain     mixing
     Exchange-correlation      = SLA PW PBX PBC ( 1  4  3  4 0 0)

     celldm(1)=  19.245946  celldm(2)=   0.000000  celldm(3)=   0.000000
     celldm(4)=   0.000000  celldm(5)=   0.000000  celldm(6)=   0.000000

     crystal axes: (cart. coord. in units of alat)
               a(1) = (   1.000000   0.000000   0.000000 )  
               a(2) = (   0.000000   1.000000   0.000000 )  
               a(3) = (   0.000000   0.000000   0.871974 )  

     reciprocal axes: (cart. coord. in units 2 pi/alat)
               b(1) = (  1.000000  0.000000  0.000000 )  
               b(2) = (  0.000000  1.000000  0.000000 )  
               b(3) = (  0.000000  0.000000  1.146823 )  


     PseudoPot. # 1 for Mn read from file:
     ./pseudo/Mn.pbe-spn-kjpaw_psl.0.3.1.UPF
     MD5 check sum: 7eef95dd2aae66803482eea66ebeebf1
     Pseudo is Projector augmented-wave + core cor, Zval = 15.0
     Generated using "atomic" code by A. Dal Corso v.5.0.99 svn rev. 10869
     Shape of augmentation charge: PSQ
     Using radial grid of 1187 points,  6 beta functions with: 
                l(1) =   0
                l(2) =   0
                l(3) =   1
                l(4) =   1
                l(5) =   2
                l(6) =   2
     Q(r) pseudized with 0 coefficients 


     PseudoPot. # 2 for Mn read from file:
     ./pseudo/Mn.pbe-spn-kjpaw_psl.0.3.1.UPF
     MD5 check sum: 7eef95dd2aae66803482eea66ebeebf1
     Pseudo is Projector augmented-wave + core cor, Zval = 15.0
     Generated using "atomic" code by A. Dal Corso v.5.0.99 svn rev. 10869
     Shape of augmentation charge: PSQ
     Using radial grid of 1187 points,  6 beta functions with: 
                l(1) =   0
                l(2) =   0
                l(3) =   1
                l(4) =   1
                l(5) =   2
                l(6) =   2
     Q(r) pseudized with 0 coefficients 


     PseudoPot. # 3 for Au read from file:
     ./pseudo/Au.pbe-dn-kjpaw_psl.0.1.UPF
     MD5 check sum: 5c9b92683623e7ae2ab3f8e525febab6
     Pseudo is Projector augmented-wave + core cor, Zval = 11.0
     Generated using "atomic" code by A. Dal Corso v.5.0.2 svn rev. 9415
     Shape of augmentation charge: PSQ
     Using radial grid of 1279 points,  6 beta functions with: 
                l(1) =   0
                l(2) =   0
                l(3) =   1
                l(4) =   1
                l(5) =   2
                l(6) =   2
     Q(r) pseudized with 0 coefficients 


     atomic species   valence    mass     pseudopotential
        Mn1           15.00    54.93800     Mn( 1.00)
        Mn2           15.00    54.93800     Mn( 1.00)
        Au            11.00   196.96600     Au( 1.00)

     Starting magnetic structure 
     atomic species   magnetization
        Mn1          0.800
        Mn2         -0.800
        Au           0.000

      2 Sym. Ops. (no inversion) found



   Cartesian axes

     site n.     atom                  positions (alat units)
         1           Mn1 tau(   1) = (   0.0000000   0.0000000   0.0000000  )
         2           Mn1 tau(   2) = (   0.0000000   0.3333300   0.0000000  )
         3           Mn2 tau(   3) = (   0.0000000   0.6666700   0.0000000  )
         4           Mn1 tau(   4) = (   0.3333300   0.0000000   0.0000000  )
         5           Mn1 tau(   5) = (   0.3333300   0.3333300   0.0000000  )
         6           Mn2 tau(   6) = (   0.3333300   0.6666700   0.0000000  )
         7           Mn1 tau(   7) = (   0.6666700   0.0000000   0.0000000  )
         8           Mn1 tau(   8) = (   0.6666700   0.3333300   0.0000000  )
         9           Mn1 tau(   9) = (   0.6666700   0.6666700   0.0000000  )
        10           Mn2 tau(  10) = (   0.1666700   0.1666700   0.4359871  )
        11           Mn2 tau(  11) = (   0.1666700   0.5000000   0.4359871  )
        12           Mn1 tau(  12) = (   0.1666700   0.8333300   0.4359871  )
        13           Mn2 tau(  13) = (   0.5000000   0.1666700   0.4359871  )
        14           Mn2 tau(  14) = (   0.5000000   0.5000000   0.4359871  )
        15           Mn1 tau(  15) = (   0.5000000   0.8333300   0.4359871  )
        16           Mn2 tau(  16) = (   0.8333300   0.1666700   0.4359871  )
        17           Mn2 tau(  17) = (   0.8333300   0.5000000   0.4359871  )
        18           Mn2 tau(  18) = (   0.8333300   0.8333300   0.4359871  )
        19           Au  tau(  19) = (   0.1666700   0.1666700   0.7327374  )
        20           Au  tau(  20) = (   0.1666700   0.5000000   0.7327374  )
        21           Au  tau(  21) = (   0.1666700   0.8333300   0.7327374  )
        22           Au  tau(  22) = (   0.5000000   0.1666700   0.7327374  )
        23           Au  tau(  23) = (   0.5000000   0.5000000   0.7327374  )
        24           Au  tau(  24) = (   0.5000000   0.8333300   0.7327374  )
        25           Au  tau(  25) = (   0.8333300   0.1666700   0.7327374  )
        26           Au  tau(  26) = (   0.8333300   0.5000000   0.7327374  )
        27           Au  tau(  27) = (   0.8333300   0.8333300   0.7327374  )
        28           Au  tau(  28) = (   0.1666700   0.1666700   0.1392369  )
        29           Au  tau(  29) = (   0.1666700   0.5000000   0.1392369  )
        30           Au  tau(  30) = (   0.1666700   0.8333300   0.1392369  )
        31           Au  tau(  31) = (   0.5000000   0.1666700   0.1392369  )
        32           Au  tau(  32) = (   0.5000000   0.5000000   0.1392369  )
        33           Au  tau(  33) = (   0.5000000   0.8333300   0.1392369  )
        34           Au  tau(  34) = (   0.8333300   0.1666700   0.1392369  )
        35           Au  tau(  35) = (   0.8333300   0.5000000   0.1392369  )
        36           Au  tau(  36) = (   0.8333300   0.8333300   0.1392369  )
        37           Au  tau(  37) = (   0.0000000   0.0000000   0.2967503  )
        38           Au  tau(  38) = (   0.0000000   0.3333300   0.2967503  )
        39           Au  tau(  39) = (   0.0000000   0.6666700   0.2967503  )
        40           Au  tau(  40) = (   0.3333300   0.0000000   0.2967503  )
        41           Au  tau(  41) = (   0.3333300   0.3333300   0.2967503  )
        42           Au  tau(  42) = (   0.3333300   0.6666700   0.2967503  )
        43           Au  tau(  43) = (   0.6666700   0.0000000   0.2967503  )
        44           Au  tau(  44) = (   0.6666700   0.3333300   0.2967503  )
        45           Au  tau(  45) = (   0.6666700   0.6666700   0.2967503  )
        46           Au  tau(  46) = (   0.0000000   0.0000000   0.5752240  )
        47           Au  tau(  47) = (   0.0000000   0.3333300   0.5752240  )
        48           Au  tau(  48) = (   0.0000000   0.6666700   0.5752240  )
        49           Au  tau(  49) = (   0.3333300   0.0000000   0.5752240  )
        50           Au  tau(  50) = (   0.3333300   0.3333300   0.5752240  )
        51           Au  tau(  51) = (   0.3333300   0.6666700   0.5752240  )
        52           Au  tau(  52) = (   0.6666700   0.0000000   0.5752240  )
        53           Au  tau(  53) = (   0.6666700   0.3333300   0.5752240  )
        54           Au  tau(  54) = (   0.6666700   0.6666700   0.5752240  )

     number of k points=     8 (tetrahedron method)
                       cart. coord. in units 2pi/alat
        k(    1) = (   0.0000000   0.0000000   0.0000000), wk =   0.1250000
        k(    2) = (   0.0000000   0.0000000  -0.5734114), wk =   0.1250000
        k(    3) = (   0.0000000  -0.5000000   0.0000000), wk =   0.1250000
        k(    4) = (   0.0000000  -0.5000000  -0.5734114), wk =   0.1250000
        k(    5) = (  -0.5000000  -0.5000000   0.0000000), wk =   0.1250000
        k(    6) = (  -0.5000000  -0.5000000  -0.5734114), wk =   0.1250000
        k(    7) = (  -0.5000000   0.0000000   0.0000000), wk =   0.1250000
        k(    8) = (  -0.5000000   0.0000000   0.5734114), wk =   0.1250000

     Dense  grid:   839803 G-vectors     FFT dimensions: ( 125, 125, 108)

     Smooth grid:   253559 G-vectors     FFT dimensions: (  90,  90,  72)

     Estimated max dynamical RAM per process >     570.13 MB

     Estimated total dynamical RAM >       8.91 GB
     Generating pointlists ...
     new r_m :   0.1129 (alat units)  2.1733 (a.u.) for type    1
     new r_m :   0.1129 (alat units)  2.1733 (a.u.) for type    2
     new r_m :   0.1129 (alat units)  2.1733 (a.u.) for type    3

     Check: negative/imaginary core charge=   -0.000006    0.000000

     Initial potential from superposition of free atoms

     starting charge  665.98709, renormalised to  666.00000
     Starting wfc are  504 randomized atomic wfcs
     Checking if some PAW data can be deallocated... 

     total cpu time spent up to now is       56.3 secs

     Self-consistent Calculation

     iteration #  1     ecut=    45.00 Ry     beta= 0.10
     Davidson diagonalization with overlap
     ethr =  1.00E-02,  avg # of iterations =  3.2

     total cpu time spent up to now is      217.0 secs

     total energy              =  -33047.16601093 Ry
     Harris-Foulkes estimate   =  -33044.00290280 Ry
     estimated scf accuracy    <      27.02981411 Ry

     total magnetization       =     0.01 Bohr mag/cell
     absolute magnetization    =    92.12 Bohr mag/cell

     iteration #  2     ecut=    45.00 Ry     beta= 0.10
     Davidson diagonalization with overlap
     ethr =  4.06E-03,  avg # of iterations =  1.0

     total cpu time spent up to now is      326.0 secs

     total energy              =  -33058.59713194 Ry
     Harris-Foulkes estimate   =  -33047.34652068 Ry
     estimated scf accuracy    <      21.38620570 Ry

     total magnetization       =     0.01 Bohr mag/cell
     absolute magnetization    =    91.68 Bohr mag/cell

     iteration #  3     ecut=    45.00 Ry     beta= 0.10
     Davidson diagonalization with overlap
     ethr =  3.21E-03,  avg # of iterations =  2.1

     total cpu time spent up to now is      459.2 secs

     total energy              =  -33065.98609073 Ry
     Harris-Foulkes estimate   =  -33061.40723808 Ry
     estimated scf accuracy    <       8.79867984 Ry

     total magnetization       =    -0.03 Bohr mag/cell
     absolute magnetization    =    85.50 Bohr mag/cell

     iteration #  4     ecut=    45.00 Ry     beta= 0.10
     Davidson diagonalization with overlap
     ethr =  1.32E-03,  avg # of iterations =  4.0

     total cpu time spent up to now is      653.9 secs

     total energy              =  -33060.17665144 Ry
     Harris-Foulkes estimate   =  -33068.36027546 Ry
     estimated scf accuracy    <      48.31638753 Ry

     total magnetization       =    -0.43 Bohr mag/cell
     absolute magnetization    =    72.86 Bohr mag/cell

     iteration #  5     ecut=    45.00 Ry     beta= 0.10
     Davidson diagonalization with overlap
     ethr =  1.32E-03,  avg # of iterations =  5.5

     total cpu time spent up to now is      882.7 secs

     total energy              =  -33061.45743648 Ry
     Harris-Foulkes estimate   =  -33062.93511260 Ry
     estimated scf accuracy    <       5.50543616 Ry

     total magnetization       =    -0.08 Bohr mag/cell
     absolute magnetization    =    83.05 Bohr mag/cell

     iteration #  6     ecut=    45.00 Ry     beta= 0.10
     Davidson diagonalization with overlap
     ethr =  8.27E-04,  avg # of iterations =  4.0

     total cpu time spent up to now is     1066.3 secs

     total energy              =  -33062.51490162 Ry
     Harris-Foulkes estimate   =  -33062.62984442 Ry
     estimated scf accuracy    <       0.92633318 Ry

     total magnetization       =     0.20 Bohr mag/cell
     absolute magnetization    =    79.66 Bohr mag/cell

     iteration #  7     ecut=    45.00 Ry     beta= 0.10
     Davidson diagonalization with overlap
     ethr =  1.39E-04,  avg # of iterations =  2.0

     total cpu time spent up to now is     1191.8 secs

     total energy              =  -33062.61489753 Ry
     Harris-Foulkes estimate   =  -33062.60308666 Ry
     estimated scf accuracy    <       0.08968205 Ry

     total magnetization       =    -0.01 Bohr mag/cell
     absolute magnetization    =    79.43 Bohr mag/cell

     iteration #  8     ecut=    45.00 Ry     beta= 0.10
     Davidson diagonalization with overlap
     ethr =  1.35E-05,  avg # of iterations =  3.9

     total cpu time spent up to now is     1363.7 secs

     total energy              =  -33062.58764611 Ry
     Harris-Foulkes estimate   =  -33062.63224645 Ry
     estimated scf accuracy    <       0.25177812 Ry

     total magnetization       =     0.06 Bohr mag/cell
     absolute magnetization    =    78.74 Bohr mag/cell

     iteration #  9     ecut=    45.00 Ry     beta= 0.10
     Davidson diagonalization with overlap
     ethr =  1.35E-05,  avg # of iterations =  2.6

     total cpu time spent up to now is     1503.0 secs

     total energy              =  -33062.60486645 Ry
     Harris-Foulkes estimate   =  -33062.60135337 Ry
     estimated scf accuracy    <       0.04590315 Ry

     total magnetization       =    -0.01 Bohr mag/cell
     absolute magnetization    =    78.54 Bohr mag/cell

     iteration # 10     ecut=    45.00 Ry     beta= 0.10
     Davidson diagonalization with overlap
     ethr =  6.89E-06,  avg # of iterations =  1.9

     total cpu time spent up to now is     1623.0 secs

     total energy              =  -33062.60437601 Ry
     Harris-Foulkes estimate   =  -33062.60730409 Ry
     estimated scf accuracy    <       0.01765192 Ry

     total magnetization       =     0.02 Bohr mag/cell
     absolute magnetization    =    78.87 Bohr mag/cell

     iteration # 11     ecut=    45.00 Ry     beta= 0.10
     Davidson diagonalization with overlap
     ethr =  2.65E-06,  avg # of iterations =  5.9

     total cpu time spent up to now is     1822.9 secs

     total energy              =  -33062.60863312 Ry
     Harris-Foulkes estimate   =  -33062.60846335 Ry
     estimated scf accuracy    <       0.00438640 Ry

     total magnetization       =     0.02 Bohr mag/cell
     absolute magnetization    =    79.28 Bohr mag/cell

     iteration # 12     ecut=    45.00 Ry     beta= 0.10
     Davidson diagonalization with overlap
     ethr =  6.59E-07,  avg # of iterations =  2.1

     total cpu time spent up to now is     1946.6 secs

     total energy              =  -33062.60975699 Ry
     Harris-Foulkes estimate   =  -33062.60899522 Ry
     estimated scf accuracy    <       0.00244017 Ry

     total magnetization       =     0.01 Bohr mag/cell
     absolute magnetization    =    79.22 Bohr mag/cell

     iteration # 13     ecut=    45.00 Ry     beta= 0.10
     Davidson diagonalization with overlap
     ethr =  3.66E-07,  avg # of iterations =  1.3

     total cpu time spent up to now is     2058.7 secs

     total energy              =  -33062.61029379 Ry
     Harris-Foulkes estimate   =  -33062.60975074 Ry
     estimated scf accuracy    <       0.00128549 Ry

     total magnetization       =     0.01 Bohr mag/cell
     absolute magnetization    =    79.16 Bohr mag/cell

     iteration # 14     ecut=    45.00 Ry     beta= 0.10
     Davidson diagonalization with overlap
     ethr =  1.93E-07,  avg # of iterations =  2.9

     total cpu time spent up to now is     2200.2 secs

     total energy              =  -33062.61043334 Ry
     Harris-Foulkes estimate   =  -33062.61027445 Ry
     estimated scf accuracy    <       0.00015627 Ry

     total magnetization       =     0.00 Bohr mag/cell
     absolute magnetization    =    79.03 Bohr mag/cell

     iteration # 15     ecut=    45.00 Ry     beta= 0.10
     Davidson diagonalization with overlap
     ethr =  2.35E-08,  avg # of iterations =  4.0

     total cpu time spent up to now is     2357.5 secs

     total energy              =  -33062.61039878 Ry
     Harris-Foulkes estimate   =  -33062.61041468 Ry
     estimated scf accuracy    <       0.00016226 Ry

     total magnetization       =     0.00 Bohr mag/cell
     absolute magnetization    =    79.01 Bohr mag/cell

     iteration # 16     ecut=    45.00 Ry     beta= 0.10
     Davidson diagonalization with overlap
     ethr =  2.35E-08,  avg # of iterations =  1.0

     total cpu time spent up to now is     2465.1 secs

     total energy              =  -33062.61055999 Ry
     Harris-Foulkes estimate   =  -33062.61040209 Ry
     estimated scf accuracy    <       0.00010189 Ry

     total magnetization       =     0.00 Bohr mag/cell
     absolute magnetization    =    79.02 Bohr mag/cell

     iteration # 17     ecut=    45.00 Ry     beta= 0.10
     Davidson diagonalization with overlap
     ethr =  1.53E-08,  avg # of iterations =  2.0

     total cpu time spent up to now is     2591.1 secs

     total energy              =  -33062.61062959 Ry
     Harris-Foulkes estimate   =  -33062.61054137 Ry
     estimated scf accuracy    <       0.00006892 Ry

     total magnetization       =     0.00 Bohr mag/cell
     absolute magnetization    =    78.99 Bohr mag/cell

     iteration # 18     ecut=    45.00 Ry     beta= 0.10
     Davidson diagonalization with overlap
     ethr =  1.03E-08,  avg # of iterations =  2.0

     total cpu time spent up to now is     2718.1 secs

     total energy              =  -33062.61063596 Ry
     Harris-Foulkes estimate   =  -33062.61059648 Ry
     estimated scf accuracy    <       0.00002533 Ry

     total magnetization       =     0.00 Bohr mag/cell
     absolute magnetization    =    78.98 Bohr mag/cell

     iteration # 19     ecut=    45.00 Ry     beta= 0.10
     Davidson diagonalization with overlap
     ethr =  3.80E-09,  avg # of iterations =  3.0

     total cpu time spent up to now is     2870.0 secs

     total energy              =  -33062.61061753 Ry
     Harris-Foulkes estimate   =  -33062.61060254 Ry
     estimated scf accuracy    <       0.00001090 Ry

     total magnetization       =     0.00 Bohr mag/cell
     absolute magnetization    =    78.96 Bohr mag/cell

     iteration # 20     ecut=    45.00 Ry     beta= 0.10
     Davidson diagonalization with overlap
     ethr =  1.64E-09,  avg # of iterations =  2.0

     total cpu time spent up to now is     2994.5 secs

     total energy              =  -33062.61060180 Ry
     Harris-Foulkes estimate   =  -33062.61059413 Ry
     estimated scf accuracy    <       0.00000631 Ry

     total magnetization       =     0.00 Bohr mag/cell
     absolute magnetization    =    78.95 Bohr mag/cell

     iteration # 21     ecut=    45.00 Ry     beta= 0.10
     Davidson diagonalization with overlap
     ethr =  9.47E-10,  avg # of iterations =  2.1

     total cpu time spent up to now is     3118.6 secs

     total energy              =  -33062.61058886 Ry
     Harris-Foulkes estimate   =  -33062.61058422 Ry
     estimated scf accuracy    <       0.00000435 Ry

     total magnetization       =     0.00 Bohr mag/cell
     absolute magnetization    =    78.95 Bohr mag/cell

     iteration # 22     ecut=    45.00 Ry     beta= 0.10
     Davidson diagonalization with overlap
     ethr =  6.53E-10,  avg # of iterations =  1.6

     total cpu time spent up to now is     3233.7 secs

     total energy              =  -33062.61059033 Ry
     Harris-Foulkes estimate   =  -33062.61058572 Ry
     estimated scf accuracy    <       0.00000359 Ry

     total magnetization       =     0.00 Bohr mag/cell
     absolute magnetization    =    78.95 Bohr mag/cell

     iteration # 23     ecut=    45.00 Ry     beta= 0.10
     Davidson diagonalization with overlap
     ethr =  5.39E-10,  avg # of iterations =  2.0

     total cpu time spent up to now is     3355.5 secs

     total energy              =  -33062.61059008 Ry
     Harris-Foulkes estimate   =  -33062.61058660 Ry
     estimated scf accuracy    <       0.00000192 Ry

     total magnetization       =     0.00 Bohr mag/cell
     absolute magnetization    =    78.95 Bohr mag/cell

     iteration # 24     ecut=    45.00 Ry     beta= 0.10
     Davidson diagonalization with overlap
     ethr =  2.89E-10,  avg # of iterations =  2.8
 
     Magnetic moment per site:
     atom:    1    charge:   13.5798    magn:    3.9771    constr:    0.0000
     atom:    2    charge:   13.5692    magn:    4.0604    constr:    0.0000
     atom:    3    charge:   13.5764    magn:   -4.0267    constr:    0.0000
     atom:    4    charge:   13.5810    magn:    3.9645    constr:    0.0000
     atom:    5    charge:   13.5749    magn:    4.0124    constr:    0.0000
     atom:    6    charge:   13.5728    magn:   -4.0532    constr:    0.0000
     atom:    7    charge:   13.5783    magn:    3.9713    constr:    0.0000
     atom:    8    charge:   13.5707    magn:    4.0457    constr:    0.0000
     atom:    9    charge:   13.5802    magn:    3.9785    constr:    0.0000
     atom:   10    charge:   13.5749    magn:   -4.0125    constr:    0.0000
     atom:   11    charge:   13.5810    magn:   -3.9645    constr:    0.0000
     atom:   12    charge:   13.5729    magn:    4.0533    constr:    0.0000
     atom:   13    charge:   13.5691    magn:   -4.0604    constr:    0.0000
     atom:   14    charge:   13.5796    magn:   -3.9770    constr:    0.0000
     atom:   15    charge:   13.5763    magn:    4.0267    constr:    0.0000
     atom:   16    charge:   13.5708    magn:   -4.0458    constr:    0.0000
     atom:   17    charge:   13.5784    magn:   -3.9713    constr:    0.0000
     atom:   18    charge:   13.5802    magn:   -3.9786    constr:    0.0000
     atom:   19    charge:    9.1209    magn:    0.0526    constr:    0.0000
     atom:   20    charge:    9.1218    magn:   -0.0080    constr:    0.0000
     atom:   21    charge:    9.1214    magn:    0.0090    constr:    0.0000
     atom:   22    charge:    9.1203    magn:    0.0472    constr:    0.0000
     atom:   23    charge:    9.1217    magn:    0.0180    constr:    0.0000
     atom:   24    charge:    9.1200    magn:    0.0409    constr:    0.0000
     atom:   25    charge:    9.1207    magn:    0.0461    constr:    0.0000
     atom:   26    charge:    9.1213    magn:    0.0185    constr:    0.0000
     atom:   27    charge:    9.1198    magn:    0.0166    constr:    0.0000
     atom:   28    charge:    9.1209    magn:    0.0526    constr:    0.0000
     atom:   29    charge:    9.1218    magn:   -0.0080    constr:    0.0000
     atom:   30    charge:    9.1214    magn:    0.0090    constr:    0.0000
     atom:   31    charge:    9.1203    magn:    0.0472    constr:    0.0000
     atom:   32    charge:    9.1217    magn:    0.0180    constr:    0.0000
     atom:   33    charge:    9.1200    magn:    0.0409    constr:    0.0000
     atom:   34    charge:    9.1207    magn:    0.0461    constr:    0.0000
     atom:   35    charge:    9.1213    magn:    0.0185    constr:    0.0000
     atom:   36    charge:    9.1198    magn:    0.0166    constr:    0.0000
     atom:   37    charge:    9.1218    magn:   -0.0180    constr:    0.0000
     atom:   38    charge:    9.1204    magn:   -0.0472    constr:    0.0000
     atom:   39    charge:    9.1202    magn:   -0.0409    constr:    0.0000
     atom:   40    charge:    9.1219    magn:    0.0080    constr:    0.0000
     atom:   41    charge:    9.1208    magn:   -0.0526    constr:    0.0000
     atom:   42    charge:    9.1213    magn:   -0.0090    constr:    0.0000
     atom:   43    charge:    9.1214    magn:   -0.0185    constr:    0.0000
     atom:   44    charge:    9.1206    magn:   -0.0461    constr:    0.0000
     atom:   45    charge:    9.1197    magn:   -0.0166    constr:    0.0000
     atom:   46    charge:    9.1218    magn:   -0.0180    constr:    0.0000
     atom:   47    charge:    9.1204    magn:   -0.0472    constr:    0.0000
     atom:   48    charge:    9.1202    magn:   -0.0409    constr:    0.0000
     atom:   49    charge:    9.1219    magn:    0.0080    constr:    0.0000
     atom:   50    charge:    9.1208    magn:   -0.0526    constr:    0.0000
     atom:   51    charge:    9.1213    magn:   -0.0090    constr:    0.0000
     atom:   52    charge:    9.1214    magn:   -0.0185    constr:    0.0000
     atom:   53    charge:    9.1206    magn:   -0.0461    constr:    0.0000
     atom:   54    charge:    9.1197    magn:   -0.0166    constr:    0.0000

     total cpu time spent up to now is     3517.2 secs

     End of self-consistent calculation

 ------ SPIN UP ------------


          k = 0.0000 0.0000 0.0000 ( 31747 PWs)   bands (ev):

   -66.7878 -66.7542 -66.7086 -66.7067 -66.6635 -66.6461 -66.6388 -66.6339
   -66.6168 -62.4138 -62.3919 -62.3850 -62.3592 -62.3506 -62.3493 -62.3478
   -62.3414 -62.3337 -35.5419 -35.5303 -35.5179 -35.5142 -35.4959 -35.4791
   -35.4633 -35.4606 -35.4581 -35.4563 -35.4392 -35.4356 -35.4329 -35.4097
   -35.4047 -35.4009 -35.3960 -35.3913 -35.3882 -35.3828 -35.3794 -35.3766
   -35.3757 -35.3708 -35.3548 -35.3533 -35.3335 -31.2502 -31.2475 -31.2310
   -31.2202 -31.2186 -31.2179 -31.2132 -31.2077 -31.2013 -31.1997 -31.1959
   -31.1958 -31.1854 -31.1818 -31.1798 -31.1756 -31.1745 -31.1727 -31.1694
   -31.1685 -31.1678 -31.1650 -31.1574 -31.1533 -31.1508 -31.1498 -31.1458
     5.6143   7.1507   7.1597   7.1943   7.2059   7.3658   7.8592   7.8884
     7.9118   7.9428   8.0843   8.1088   8.1348   8.1530   8.1908   8.2440
     8.2619   8.2922   8.3104   8.5238   8.5494   8.5641   8.5693   8.5945
     8.6035   8.8571   8.8676   8.8687   8.8789   8.8852   8.8932   8.9016
     8.9031   8.9059   8.9139   8.9168   8.9309   8.9409   8.9623   8.9637
     8.9866   9.0852   9.1194   9.1267   9.1286   9.1312   9.1594   9.1602
     9.1885   9.2010   9.2121   9.2690   9.2781   9.2936   9.3061   9.3526
     9.3556   9.3620   9.3720   9.3764   9.3822   9.3852   9.4126   9.4259
     9.4461   9.4481   9.4556   9.4664   9.4672   9.4727   9.4956   9.5813
     9.5839   9.5840   9.5887   9.5913   9.6138   9.6583   9.6684   9.6725
     9.6736   9.6766   9.6809   9.7403   9.7585   9.7731   9.7931   9.8493
     9.8506   9.9121   9.9207   9.9505   9.9550   9.9637  10.0164  10.0375
    10.0967  10.1286  10.1364  10.1583  10.2923  10.2931  10.2954  10.2997
    10.3009  10.3064  10.3064  10.3117  10.3117  10.3250  10.3342  10.3454
    10.3497  10.3512  10.3546  10.3565  10.3616  10.3658  10.3809  10.3854
    10.4009  10.5135  10.5167  10.5533  10.5706  10.6180  10.6220  10.6426
    10.6916  10.7846  10.7870  10.8140  10.8198  10.8267  10.8322  10.8492
    10.8540  10.8596  10.8629  10.8746  10.8780  10.8825  10.8989  10.9139
    10.9172  10.9180  11.0144  11.0351  11.0757  11.0979  11.2208  11.2227
    11.2265  11.2290  11.2571  11.2752  11.3070  11.3283  11.3339  11.3460
    11.3548  11.3670  11.3881  11.3916  11.4015  11.4091  11.4153  11.4217
    11.4399  11.4651  11.5323  11.5551  11.5911  11.5940  11.5968  11.5980
    11.5987  11.6680  11.7049  11.7271  11.7316  11.7318  11.7442  11.7494
    11.8302  11.8332  11.8364  11.8720  11.8732  11.9096  11.9273  11.9454
    11.9495  12.0144  12.0811  12.1013  12.1022  12.1035  12.1061  12.1443
    12.1459  12.1479  12.1494  12.1618  12.1741  12.1814  12.1915  12.2319
    12.2451  12.2464  12.3229  12.3359  12.3423  12.3619  12.3684  12.4259
    12.4292  12.4346  12.4430  12.4735  12.4883  12.5002  12.5034  12.5144
    12.5169  12.5417  12.5420  12.5553  12.5628  12.5768  12.5872  12.6516
    12.7004  12.7082  12.7438  12.7542  12.9975  13.0301  13.0915  13.1062
    13.1301  13.1312  13.1783  13.1887  13.3759  13.4665  13.6750  13.8221
    13.8390  13.9612  14.0070  14.2394  14.2436  14.3452  14.3520  14.5018
    14.7791  14.8898  14.9449  15.0460  15.0523  15.1535  15.1835  15.2345
    15.2953  15.3344  15.3729  15.3933  15.4473  15.4662  15.5182  15.5773
    15.6579  15.6584  15.7346  15.7560  15.7846  15.7980  15.9150  15.9224
    16.0064  16.0821  16.1080  16.1099  16.1147  16.1454  16.1791  16.2119
    16.2215  16.2445  16.2787  16.3404  16.3623  16.3668  16.3780  16.4386
    16.4471  16.4671  16.4737  16.5807  16.6417  16.6509  16.7560  16.8495
    16.9771  17.0302  17.1653  17.1908  17.2029  17.2472  17.2638  17.3294
    17.5022  17.5524  17.8674  17.9114  17.9335  17.9475  17.9713  18.0366
    18.1153  18.2167  18.3698  18.9817  19.0338  19.0341  19.1562  19.2290

          k = 0.0000 0.0000-0.5734 ( 31692 PWs)   bands (ev):

   -66.7878 -66.7542 -66.7086 -66.7067 -66.6635 -66.6461 -66.6388 -66.6339
   -66.6168 -62.4138 -62.3919 -62.3850 -62.3592 -62.3506 -62.3493 -62.3478
   -62.3414 -62.3337 -35.5419 -35.5303 -35.5179 -35.5142 -35.4959 -35.4791
   -35.4633 -35.4606 -35.4581 -35.4563 -35.4392 -35.4356 -35.4329 -35.4097
   -35.4047 -35.4009 -35.3960 -35.3913 -35.3882 -35.3828 -35.3794 -35.3766
   -35.3757 -35.3708 -35.3548 -35.3533 -35.3335 -31.2502 -31.2475 -31.2310
   -31.2202 -31.2186 -31.2179 -31.2132 -31.2077 -31.2013 -31.1997 -31.1959
   -31.1958 -31.1854 -31.1818 -31.1798 -31.1756 -31.1745 -31.1727 -31.1694
   -31.1685 -31.1678 -31.1650 -31.1574 -31.1533 -31.1508 -31.1498 -31.1458
     6.1372   6.2332   7.5248   7.5343   7.5621   7.5806   7.5857   7.6015
     7.6316   7.6384   8.3042   8.3074   8.3203   8.3434   8.3492   8.3832
     8.3904   8.4083   8.4559   8.4671   8.4689   8.4867   8.4896   8.4951
     8.5090   8.5113   8.6861   8.7253   8.7293   8.8163   8.9398   8.9463
     8.9505   8.9706   8.9813   8.9833   8.9901   8.9946   9.0095   9.0266
     9.0329   9.0467   9.0496   9.0608   9.0945   9.1012   9.1762   9.1878
     9.2192   9.2323   9.2456   9.2595   9.2616   9.2704   9.2792   9.2822
     9.2855   9.2985   9.2993   9.3047   9.3150   9.3272   9.4074   9.4119
     9.4119   9.4259   9.4296   9.4315   9.4421   9.4532   9.4611   9.4660
     9.4744   9.4878   9.4959   9.5149   9.5540   9.5752   9.5899   9.7288
     9.7783   9.7941   9.7991   9.8008   9.8092   9.8221   9.8453   9.8464
     9.8746   9.8780   9.8803   9.8830   9.8836   9.8857   9.8890   9.8907
    10.0538  10.0557  10.0662  10.0675  10.1292  10.1322  10.1352  10.1467
    10.1740  10.1816  10.1979  10.2150  10.2177  10.2225  10.3478  10.3780
    10.3787  10.3893  10.3955  10.4000  10.4006  10.4290  10.4323  10.5529
    10.5918  10.5979  10.6030  10.6095  10.6140  10.6329  10.6403  10.6696
    10.6725  10.6815  10.6939  10.7197  10.7623  10.8112  10.8717  10.8983
    10.9209  10.9431  10.9928  11.0088  11.0372  11.0606  11.0666  11.0818
    11.0849  11.0872  11.1141  11.1327  11.1420  11.1692  11.1720  11.1861
    11.1954  11.2316  11.2506  11.2510  11.2527  11.2547  11.2649  11.2659
    11.2686  11.2697  11.2780  11.2793  11.2874  11.3008  11.3036  11.3054
    11.3217  11.3283  11.3294  11.3315  11.5136  11.6243  11.7075  11.7114
    11.7115  11.7149  11.7178  11.7235  11.7264  11.7335  11.7359  11.7396
    11.7549  11.7742  11.7949  11.7971  11.8136  11.8324  11.8354  11.8407
    11.9497  11.9681  11.9873  11.9987  12.0350  12.0389  12.0815  12.0882
    12.1340  12.1744  12.2152  12.2422  12.2482  12.2695  12.3073  12.3730
    12.3829  12.4080  12.4212  12.4383  12.4528  12.4800  12.4895  12.4900
    12.4930  12.5298  12.5355  12.5458  12.5481  12.5701  12.5784  12.5907
    12.6203  12.6335  12.7349  12.7914  12.8196  12.8704  12.8791  12.9146
    12.9791  13.0340  13.0370  13.0740  13.1239  13.1250  13.1450  13.1455
    13.1961  13.2166  13.2508  13.4281  13.5026  13.5317  13.5358  13.7480
    13.8792  13.9535  14.0170  14.0720  14.1241  14.1688  14.2659  14.4351
    14.4911  14.8857  14.9222  14.9551  14.9759  15.0335  15.0578  15.0716
    15.1488  15.1879  15.2030  15.2092  15.2519  15.2744  15.3641  15.6302
    15.6558  15.7189  15.7435  15.7690  15.8491  15.8856  15.9578  16.0230
    16.1025  16.1244  16.1252  16.1319  16.1354  16.1724  16.1812  16.2126
    16.2346  16.2387  16.2440  16.2601  16.2640  16.2698  16.2868  16.3456
    16.3833  16.4394  16.4480  16.5158  16.6023  16.6902  16.7246  16.7597
    16.8893  16.9578  17.2467  17.3443  17.4171  17.4704  17.5392  17.5483
    17.5705  17.5724  17.6119  17.6434  17.6511  17.7257  17.7890  17.8373
    17.9058  17.9304  18.0794  18.1223  18.1773  18.2584  18.3470  18.3613

          k = 0.0000-0.5000 0.0000 ( 31722 PWs)   bands (ev):

   -66.7878 -66.7542 -66.7086 -66.7067 -66.6635 -66.6461 -66.6388 -66.6339
   -66.6168 -62.4138 -62.3919 -62.3850 -62.3592 -62.3506 -62.3493 -62.3478
   -62.3414 -62.3337 -35.5419 -35.5303 -35.5179 -35.5142 -35.4959 -35.4791
   -35.4633 -35.4606 -35.4581 -35.4563 -35.4392 -35.4356 -35.4329 -35.4097
   -35.4047 -35.4009 -35.3960 -35.3913 -35.3882 -35.3828 -35.3794 -35.3766
   -35.3757 -35.3708 -35.3548 -35.3533 -35.3335 -31.2502 -31.2475 -31.2310
   -31.2204 -31.2186 -31.2179 -31.2132 -31.2074 -31.2014 -31.1997 -31.1959
   -31.1958 -31.1853 -31.1818 -31.1798 -31.1756 -31.1745 -31.1727 -31.1696
   -31.1685 -31.1678 -31.1650 -31.1574 -31.1533 -31.1508 -31.1498 -31.1458
     6.0235   6.0608   7.4183   7.4372   7.4494   7.4840   7.6720   7.6819
     8.0994   8.1176   8.1374   8.1800   8.2118   8.2171   8.2422   8.2818
     8.4026   8.4270   8.4357   8.4770   8.5947   8.6361   8.6473   8.6548
     8.6602   8.6928   8.6973   8.7022   8.7352   8.7998   8.8265   8.8444
     8.8500   8.8603   8.8807   8.8914   8.9044   8.9090   8.9146   8.9201
     8.9262   8.9296   8.9356   8.9465   9.0476   9.0546   9.1616   9.1827
     9.1924   9.1958   9.2023   9.2317   9.2385   9.2532   9.3155   9.3388
     9.3537   9.3647   9.3778   9.4126   9.4752   9.4849   9.4941   9.5107
     9.5157   9.5375   9.5381   9.5557   9.5935   9.5948   9.6045   9.6180
     9.6214   9.6256   9.6311   9.6326   9.6348   9.6379   9.6419   9.6520
     9.6561   9.6637   9.6739   9.6787   9.6920   9.7171   9.7351   9.7519
     9.7594   9.7633   9.7658   9.7686   9.8956   9.8969   9.9061  10.0089
    10.0091  10.0427  10.1416  10.1914  10.2102  10.2377  10.2468  10.2554
    10.2639  10.2687  10.2704  10.2706  10.2842  10.2887  10.3437  10.3556
    10.3632  10.3794  10.3820  10.3851  10.4221  10.4452  10.4459  10.4729
    10.4808  10.5204  10.5240  10.5330  10.5454  10.5770  10.5795  10.5933
    10.6110  10.6593  10.6779  10.6810  10.7028  10.7244  10.7456  10.7620
    10.7969  10.8172  10.8267  10.8521  10.8659  10.8957  10.9144  10.9288
    10.9533  11.0121  11.0181  11.0219  11.0313  11.1259  11.1579  11.1912
    11.2857  11.3461  11.3524  11.3668  11.3842  11.3907  11.4067  11.4168
    11.4397  11.4429  11.4503  11.4634  11.5005  11.5292  11.5345  11.5573
    11.5719  11.5783  11.6022  11.6236  11.6454  11.6572  11.6861  11.7229
    11.7351  11.7769  11.7842  11.7901  11.7951  11.8329  11.8442  11.8449
    11.8525  11.8755  11.9096  11.9192  11.9382  11.9558  11.9579  11.9817
    11.9836  11.9916  12.0103  12.0120  12.1066  12.1518  12.1560  12.1877
    12.1972  12.2129  12.2134  12.2217  12.2431  12.2587  12.2777  12.2843
    12.2880  12.2948  12.3232  12.3358  12.3545  12.3740  12.4012  12.4158
    12.4309  12.4467  12.4643  12.4746  12.4825  12.5230  12.5323  12.5607
    12.5662  12.5742  12.6090  12.6175  12.6530  12.6531  12.6699  12.7488
    12.8822  12.9168  13.0207  13.0605  13.0673  13.1205  13.1376  13.1476
    13.1481  13.1871  13.1892  13.1966  13.2328  13.2866  13.2938  13.3193
    13.3475  13.3902  13.4221  13.7178  13.7469  14.2840  14.4766  14.4989
    14.6296  14.7493  14.7621  14.7935  14.8210  14.8647  14.8979  14.9709
    15.0459  15.2282  15.2405  15.3482  15.4232  15.4591  15.5153  15.6035
    15.6048  15.6980  15.7317  15.7725  15.8162  15.8190  15.8657  16.0447
    16.0501  16.0944  16.1011  16.1272  16.1459  16.1497  16.1665  16.1728
    16.2073  16.2084  16.2294  16.2541  16.2624  16.2761  16.2922  16.3429
    16.4214  16.4705  16.5126  16.5810  16.7144  16.7898  17.0011  17.0955
    17.1545  17.1911  17.1944  17.3112  17.4017  17.5335  17.6235  17.6291
    17.7148  17.7167  17.7835  17.8130  17.8764  17.8801  17.9221  17.9247
    18.0381  18.1043  18.1523  18.2309  19.2681  19.2827  19.2928  19.3323

          k = 0.0000-0.5000-0.5734 ( 31696 PWs)   bands (ev):

   -66.7878 -66.7542 -66.7086 -66.7067 -66.6635 -66.6461 -66.6388 -66.6339
   -66.6168 -62.4138 -62.3919 -62.3850 -62.3592 -62.3506 -62.3493 -62.3478
   -62.3414 -62.3337 -35.5419 -35.5303 -35.5179 -35.5142 -35.4959 -35.4791
   -35.4633 -35.4606 -35.4581 -35.4563 -35.4392 -35.4356 -35.4329 -35.4097
   -35.4047 -35.4009 -35.3960 -35.3913 -35.3882 -35.3828 -35.3794 -35.3766
   -35.3757 -35.3708 -35.3548 -35.3533 -35.3335 -31.2502 -31.2475 -31.2310
   -31.2204 -31.2186 -31.2179 -31.2132 -31.2074 -31.2014 -31.1997 -31.1959
   -31.1958 -31.1853 -31.1818 -31.1798 -31.1756 -31.1745 -31.1727 -31.1696
   -31.1685 -31.1678 -31.1650 -31.1574 -31.1533 -31.1508 -31.1498 -31.1458
     6.4979   6.5809   6.5921   6.6682   7.8214   7.8260   7.8605   7.8743
     7.9055   7.9273   7.9427   7.9548   8.2618   8.2844   8.2961   8.3029
     8.5151   8.5234   8.5274   8.5391   8.6562   8.6674   8.6735   8.6825
     8.6890   8.6966   8.7008   8.7149   8.7283   8.7301   8.7490   8.7498
     8.7681   8.7688   8.7805   8.8258   8.9264   8.9951   9.0173   9.0236
     9.0335   9.0650   9.0700   9.0778   9.1555   9.1980   9.2061   9.2205
     9.2301   9.2305   9.2330   9.2379   9.2405   9.2453   9.2560   9.2593
     9.2608   9.2655   9.2732   9.2760   9.2866   9.3808   9.3859   9.3927
     9.4054   9.4264   9.4534   9.4551   9.4704   9.4713   9.4759   9.4782
     9.4822   9.4844   9.5072   9.5101   9.5275   9.5445   9.5633   9.5708
     9.5870   9.6310   9.7520   9.7615   9.7832   9.7884   9.7921   9.8199
     9.8281   9.8300   9.8443   9.8500   9.8623   9.8720   9.8846   9.8893
     9.9443   9.9709  10.0054  10.0104  10.0322  10.0377  10.0556  10.0615
    10.3540  10.3754  10.3758  10.3862  10.4079  10.4190  10.4253  10.4284
    10.4332  10.4587  10.4714  10.4843  10.4862  10.4919  10.4962  10.5371
    10.5463  10.5606  10.5777  10.5838  10.5915  10.6036  10.6161  10.6258
    10.6546  10.6582  10.6726  10.6732  10.6814  10.6953  10.7139  10.7185
    10.7286  10.8559  10.8578  10.8947  10.9738  11.0032  11.0121  11.0854
    11.1146  11.1202  11.1268  11.1796  11.1865  11.1949  11.1954  11.2033
    11.2111  11.2145  11.2726  11.3309  11.3338  11.3355  11.3641  11.3698
    11.3706  11.3827  11.4054  11.4422  11.4503  11.4634  11.4754  11.5355
    11.5367  11.5658  11.5681  11.5713  11.5782  11.5825  11.5921  11.6025
    11.6321  11.6356  11.7217  11.7240  11.7371  11.7513  11.7724  11.8021
    11.8870  11.8980  11.9101  11.9568  11.9600  11.9657  11.9794  12.0051
    12.0123  12.0212  12.0217  12.0319  12.0354  12.0399  12.0956  12.1269
    12.1577  12.1801  12.1924  12.2033  12.2240  12.2443  12.3212  12.3384
    12.3828  12.3891  12.4050  12.4258  12.4464  12.4478  12.4555  12.4692
    12.4796  12.4909  12.5095  12.5139  12.5568  12.5615  12.5861  12.5869
    12.6328  12.6464  12.6479  12.6630  12.7055  12.7540  12.8498  12.8545
    12.8652  12.8866  12.9464  12.9984  13.0181  13.0319  13.0347  13.0734
    13.1575  13.1879  13.2639  13.3492  13.5221  13.5361  13.6820  13.7723
    13.7779  13.9307  14.0268  14.0457  14.1397  14.1410  14.1756  14.3733
    14.4168  14.5328  14.5758  14.6091  14.6284  14.7431  14.8177  15.0486
    15.1411  15.1901  15.2852  15.3881  15.4627  15.4725  15.5213  15.5565
    15.6334  15.6474  15.6955  15.7213  15.7278  15.7955  15.8941  16.0907
    16.1016  16.1090  16.1355  16.1533  16.1564  16.1812  16.2096  16.2097
    16.2549  16.2793  16.2892  16.2936  16.3281  16.3953  16.4680  16.4723
    16.5054  16.5364  16.5555  16.6111  16.6133  16.6352  16.6909  16.6944
    16.7001  16.7561  16.7760  16.8489  16.8753  16.9194  16.9699  16.9842
    17.0828  17.1010  17.2076  17.2921  18.6125  18.6674  18.7585  18.7622
    18.7839  18.7887  18.7944  18.8455  18.8795  18.8929  18.9456  18.9906

          k =-0.5000-0.5000 0.0000 ( 31612 PWs)   bands (ev):

   -66.7878 -66.7542 -66.7086 -66.7067 -66.6635 -66.6461 -66.6388 -66.6339
   -66.6168 -62.4138 -62.3919 -62.3850 -62.3592 -62.3506 -62.3493 -62.3478
   -62.3414 -62.3337 -35.5419 -35.5303 -35.5179 -35.5142 -35.4958 -35.4791
   -35.4633 -35.4606 -35.4581 -35.4563 -35.4392 -35.4356 -35.4329 -35.4097
   -35.4047 -35.4009 -35.3960 -35.3913 -35.3882 -35.3828 -35.3800 -35.3766
   -35.3742 -35.3717 -35.3548 -35.3534 -35.3335 -31.2505 -31.2475 -31.2302
   -31.2204 -31.2186 -31.2184 -31.2132 -31.2074 -31.2018 -31.1997 -31.1958
   -31.1957 -31.1856 -31.1818 -31.1787 -31.1756 -31.1745 -31.1728 -31.1695
   -31.1692 -31.1678 -31.1650 -31.1574 -31.1533 -31.1508 -31.1498 -31.1458
     6.4080   6.4307   6.4450   6.4752   8.0109   8.0169   8.0208   8.0237
     8.0807   8.1341   8.2893   8.3223   8.3252   8.3394   8.3402   8.3448
     8.3467   8.3578   8.3616   8.3639   8.3696   8.3885   8.5533   8.5724
     8.6416   8.6663   8.6779   8.6982   8.7122   8.7335   8.7394   8.7499
     8.7565   8.7943   8.9005   8.9196   8.9544   8.9755   8.9773   8.9780
     8.9827   8.9887   8.9955   9.0091   9.0113   9.0329   9.0528   9.0728
     9.1044   9.1440   9.3109   9.3154   9.3168   9.3211   9.4013   9.4071
     9.4094   9.4163   9.4176   9.4223   9.4272   9.4280   9.4404   9.4538
     9.4589   9.4669   9.4765   9.4808   9.4851   9.4912   9.4993   9.5026
     9.5120   9.5218   9.5423   9.5573   9.5665   9.5687   9.5737   9.5810
     9.5995   9.6101   9.6976   9.7000   9.7665   9.8213   9.8220   9.8329
     9.8332   9.8353   9.8361   9.8450   9.8596   9.8723  10.0324  10.0597
    10.0675  10.0886  10.1007  10.1210  10.1357  10.1407  10.1542  10.1599
    10.1805  10.1933  10.2018  10.2097  10.2217  10.2282  10.2307  10.2359
    10.2371  10.2380  10.2585  10.2731  10.4472  10.4705  10.4735  10.4884
    10.4949  10.5005  10.5249  10.5334  10.6226  10.6365  10.6505  10.6569
    10.6625  10.6639  10.6700  10.6725  10.6920  10.6970  10.7021  10.7040
    10.7162  10.7422  10.7638  10.7930  10.8162  10.8671  10.8781  10.8931
    10.9125  10.9286  11.1993  11.2070  11.2141  11.2234  11.2865  11.3014
    11.3202  11.3452  11.3583  11.3662  11.4037  11.4193  11.5524  11.5678
    11.5814  11.5952  11.6139  11.6386  11.6408  11.6453  11.6493  11.6501
    11.6573  11.6773  11.6847  11.7199  11.7400  11.7445  11.7557  11.8738
    11.8747  11.8780  11.8793  11.8802  11.8828  11.8908  11.9959  12.0154
    12.0188  12.0205  12.0932  12.0987  12.1031  12.1090  12.1096  12.1116
    12.1189  12.1190  12.1252  12.1298  12.1368  12.1430  12.1683  12.1754
    12.1945  12.2022  12.2109  12.2121  12.2184  12.2271  12.2273  12.2533
    12.2716  12.2784  12.2809  12.2844  12.2921  12.3007  12.3228  12.3339
    12.3493  12.3988  12.4329  12.4405  12.4545  12.4652  12.4848  12.5238
    12.5296  12.5523  12.5829  12.5971  12.6035  12.6261  12.6441  12.6818
    12.6979  12.7127  12.7535  12.7804  12.8160  12.8738  12.9380  12.9507
    12.9524  12.9767  12.9837  13.0073  13.0326  13.4382  13.6681  13.6721
    13.6773  13.7550  13.8351  13.8492  13.9253  13.9260  13.9839  14.2035
    14.2743  14.2814  14.3233  14.3888  14.4586  14.7785  14.8025  14.8619
    15.1068  15.1424  15.1743  15.3056  15.4094  15.5085  15.6147  15.7407
    15.7800  15.8015  15.8141  15.8402  15.8616  15.8899  15.8974  15.9306
    15.9425  15.9789  15.9865  16.0063  16.0318  16.0661  16.0911  16.1652
    16.1905  16.2392  16.2777  16.2996  16.3143  16.3661  16.3723  16.4162
    16.4864  16.5185  16.5776  16.6653  16.6654  16.7188  16.7406  16.7972
    16.8085  16.8770  16.9808  17.0155  17.3815  17.3974  17.4793  18.1375
    18.1637  18.2021  18.2081  18.2391  18.2448  18.4164  18.4986  18.5532
    18.5674  18.6166  18.6422  18.6532  18.7312  18.7924  18.7977  18.8047

          k =-0.5000-0.5000-0.5734 ( 31672 PWs)   bands (ev):

   -66.7878 -66.7542 -66.7086 -66.7067 -66.6635 -66.6461 -66.6388 -66.6339
   -66.6168 -62.4138 -62.3919 -62.3850 -62.3592 -62.3506 -62.3493 -62.3478
   -62.3414 -62.3337 -35.5419 -35.5303 -35.5179 -35.5142 -35.4958 -35.4791
   -35.4633 -35.4606 -35.4581 -35.4563 -35.4392 -35.4356 -35.4329 -35.4097
   -35.4047 -35.4009 -35.3960 -35.3913 -35.3882 -35.3828 -35.3800 -35.3766
   -35.3742 -35.3717 -35.3548 -35.3534 -35.3335 -31.2505 -31.2475 -31.2302
   -31.2204 -31.2186 -31.2184 -31.2132 -31.2074 -31.2018 -31.1997 -31.1958
   -31.1957 -31.1856 -31.1818 -31.1787 -31.1756 -31.1745 -31.1728 -31.1695
   -31.1692 -31.1678 -31.1650 -31.1574 -31.1533 -31.1508 -31.1498 -31.1458
     6.8810   6.8876   6.9313   6.9398   6.9989   7.0169   7.0474   7.0521
     8.4394   8.4705   8.4731   8.4788   8.4846   8.4900   8.4933   8.4952
     8.5011   8.5037   8.5062   8.5135   8.5236   8.5439   8.5443   8.5572
     8.5767   8.5770   8.5878   8.6453   8.8775   8.8789   8.8902   8.8985
     8.9166   8.9222   8.9291   8.9358   9.0836   9.0874   9.1152   9.1212
     9.1267   9.1273   9.1400   9.1473   9.1547   9.1571   9.1588   9.1628
     9.1629   9.1656   9.1692   9.1756   9.1774   9.1791   9.1792   9.1821
     9.1838   9.1849   9.1924   9.1950   9.1981   9.2047   9.2138   9.2155
     9.2346   9.2376   9.2404   9.2493   9.2609   9.2642   9.2711   9.2835
     9.5429   9.5473   9.5627   9.5662   9.5807   9.5883   9.6191   9.6267
     9.6349   9.6427   9.6683   9.6928   9.7097   9.7501   9.7865   9.7967
     9.8109   9.8193   9.8391   9.8587   9.8800   9.8924   9.8953   9.9010
    10.0978  10.1186  10.1501  10.1590  10.1602  10.1744  10.1996  10.2098
    10.2678  10.3355  10.4309  10.4413  10.4571  10.4658  10.4785  10.4830
    10.4883  10.4937  10.4978  10.5010  10.5038  10.5122  10.5193  10.5232
    10.5256  10.5359  10.5437  10.5499  10.5512  10.5591  10.6081  10.6156
    10.6263  10.6345  10.6359  10.6371  10.6468  10.6606  10.6637  10.6705
    10.6854  10.6893  10.6943  10.6963  10.7128  10.7190  11.0305  11.0578
    11.0675  11.0775  11.0849  11.0980  11.1081  11.1325  11.3776  11.3811
    11.3910  11.4012  11.4097  11.4204  11.4412  11.4553  11.4562  11.4656
    11.4867  11.4917  11.4979  11.5078  11.5382  11.5466  11.5898  11.6356
    11.6372  11.6389  11.6578  11.6652  11.6733  11.6992  11.7047  11.7148
    11.7161  11.7195  11.7232  11.7395  11.7634  11.7659  11.7703  11.7869
    11.8025  11.8152  11.8267  11.8334  11.8433  11.9567  11.9721  11.9796
    11.9936  12.0200  12.0540  12.0895  12.1050  12.1106  12.1200  12.1390
    12.1731  12.1852  12.2152  12.2250  12.2770  12.2826  12.2906  12.3021
    12.3087  12.3478  12.3745  12.3911  12.4387  12.4461  12.4646  12.4790
    12.4889  12.5060  12.5293  12.5357  12.5459  12.5656  12.5907  12.6006
    12.6583  12.6903  12.7101  12.7362  12.7418  12.7814  12.8073  12.8932
    12.9605  12.9773  12.9920  13.0034  13.1165  13.1201  13.1394  13.1695
    13.1874  13.2067  13.2500  13.2992  13.3389  13.3545  13.3742  13.5091
    13.5486  13.5769  13.6907  13.7555  13.9651  13.9688  14.0248  14.0979
    14.1743  14.2473  14.3578  14.3975  14.7718  14.7813  14.9781  15.0518
    15.1339  15.2834  15.3555  15.4223  15.4384  15.6361  15.7049  15.7253
    15.7265  15.7646  15.8117  15.8257  15.8325  15.8764  15.9099  15.9249
    15.9358  15.9628  15.9916  16.0432  16.0549  16.1073  16.1302  16.1940
    16.2147  16.2409  16.2498  16.2508  16.2939  16.3709  16.4443  16.5230
    16.5408  16.5819  16.6158  16.6193  16.6401  16.6746  16.7343  16.7598
    16.7827  16.8507  16.8544  16.9071  16.9207  16.9688  17.0002  17.0284
    17.1059  17.1331  17.4406  17.6900  17.9608  18.0630  19.0017  19.0362
    19.0385  19.0646  19.1104  19.1300  19.1740  19.2308  19.2327  19.3082

          k =-0.5000 0.0000 0.0000 ( 31722 PWs)   bands (ev):

   -66.7878 -66.7542 -66.7086 -66.7067 -66.6635 -66.6461 -66.6388 -66.6339
   -66.6168 -62.4138 -62.3919 -62.3850 -62.3592 -62.3506 -62.3493 -62.3478
   -62.3414 -62.3337 -35.5419 -35.5303 -35.5179 -35.5142 -35.4958 -35.4791
   -35.4633 -35.4606 -35.4581 -35.4563 -35.4392 -35.4356 -35.4329 -35.4097
   -35.4047 -35.4010 -35.3960 -35.3913 -35.3882 -35.3828 -35.3800 -35.3766
   -35.3742 -35.3717 -35.3548 -35.3534 -35.3335 -31.2505 -31.2475 -31.2302
   -31.2201 -31.2186 -31.2184 -31.2132 -31.2078 -31.2017 -31.1997 -31.1958
   -31.1957 -31.1857 -31.1818 -31.1787 -31.1756 -31.1745 -31.1728 -31.1694
   -31.1692 -31.1678 -31.1650 -31.1574 -31.1533 -31.1508 -31.1498 -31.1458
     6.0330   6.0514   7.4068   7.4394   7.4548   7.4860   7.6752   7.6795
     8.1014   8.1222   8.1506   8.1733   8.1777   8.2333   8.2452   8.2890
     8.3900   8.4162   8.4546   8.4857   8.5959   8.6228   8.6438   8.6543
     8.6777   8.6788   8.6988   8.7064   8.7381   8.8126   8.8212   8.8370
     8.8428   8.8735   8.8756   8.8817   8.9065   8.9092   8.9123   8.9203
     8.9263   8.9309   8.9389   8.9504   9.0501   9.0532   9.1580   9.1769
     9.1875   9.1989   9.2120   9.2246   9.2429   9.2504   9.3159   9.3234
     9.3376   9.3839   9.4016   9.4027   9.4740   9.4775   9.4839   9.4971
     9.5369   9.5406   9.5419   9.5728   9.5757   9.6025   9.6041   9.6158
     9.6180   9.6197   9.6283   9.6286   9.6332   9.6408   9.6467   9.6566
     9.6657   9.6673   9.6674   9.6800   9.6912   9.7151   9.7248   9.7493
     9.7565   9.7623   9.7703   9.7745   9.8896   9.8972   9.9034  10.0053
    10.0161  10.0320  10.1562  10.1856  10.2136  10.2250  10.2469  10.2523
    10.2695  10.2721  10.2777  10.2795  10.2812  10.2877  10.3461  10.3606
    10.3650  10.3815  10.3838  10.3901  10.4302  10.4411  10.4432  10.4497
    10.4890  10.5148  10.5183  10.5320  10.5633  10.5655  10.5853  10.5936
    10.6076  10.6572  10.6910  10.6989  10.7043  10.7062  10.7396  10.7806
    10.8056  10.8130  10.8343  10.8479  10.8698  10.8860  10.9063  10.9242
    10.9305  10.9962  11.0049  11.0274  11.0515  11.1237  11.1629  11.1935
    11.2744  11.3444  11.3510  11.3612  11.3662  11.3968  11.4002  11.4044
    11.4188  11.4453  11.4824  11.4920  11.4936  11.5469  11.5515  11.5759
    11.5838  11.5944  11.6004  11.6100  11.6152  11.6576  11.6578  11.7223
    11.7458  11.7830  11.8019  11.8115  11.8138  11.8388  11.8429  11.8611
    11.8648  11.8842  11.8978  11.9180  11.9258  11.9470  11.9678  11.9720
    11.9830  12.0053  12.0174  12.0183  12.0390  12.1304  12.1454  12.1880
    12.1952  12.2097  12.2294  12.2411  12.2429  12.2607  12.2631  12.2787
    12.2854  12.2957  12.2986  12.3011  12.3795  12.3962  12.4056  12.4068
    12.4494  12.4584  12.4642  12.4758  12.4816  12.5153  12.5195  12.5516
    12.5726  12.5780  12.6078  12.6635  12.6658  12.7043  12.7248  12.7722
    12.7973  12.8593  12.9273  12.9766  13.0586  13.0763  13.1360  13.1426
    13.1507  13.2023  13.2204  13.2280  13.2667  13.2694  13.3130  13.3253
    13.3676  13.4340  13.4582  13.7216  13.7454  14.1263  14.5109  14.5736
    14.6267  14.7448  14.7879  14.8569  14.8652  14.8836  14.9321  14.9546
    15.0782  15.1066  15.2298  15.3328  15.3781  15.3960  15.5117  15.5673
    15.6855  15.7469  15.7488  15.7886  15.8371  15.8622  15.9307  16.0249
    16.0251  16.0543  16.0553  16.0702  16.1017  16.1306  16.1427  16.1563
    16.1780  16.1975  16.2380  16.2478  16.2608  16.2959  16.3482  16.3644
    16.4211  16.4243  16.5502  16.5878  16.7162  16.8010  16.9979  17.0326
    17.1183  17.2072  17.2529  17.3930  17.4388  17.5601  17.6107  17.6247
    17.7090  17.7461  17.7705  17.8228  17.8322  17.8591  17.9188  18.0033
    18.0452  18.0620  18.1306  18.2137  19.2645  19.2911  19.3109  19.3633

          k =-0.5000 0.0000 0.5734 ( 31696 PWs)   bands (ev):

   -66.7878 -66.7542 -66.7086 -66.7067 -66.6635 -66.6461 -66.6388 -66.6339
   -66.6168 -62.4138 -62.3919 -62.3850 -62.3592 -62.3506 -62.3493 -62.3478
   -62.3414 -62.3337 -35.5419 -35.5303 -35.5179 -35.5142 -35.4958 -35.4791
   -35.4633 -35.4606 -35.4581 -35.4563 -35.4392 -35.4356 -35.4329 -35.4097
   -35.4047 -35.4010 -35.3960 -35.3913 -35.3882 -35.3828 -35.3800 -35.3766
   -35.3742 -35.3717 -35.3548 -35.3534 -35.3335 -31.2505 -31.2475 -31.2302
   -31.2201 -31.2186 -31.2184 -31.2132 -31.2078 -31.2017 -31.1997 -31.1958
   -31.1957 -31.1857 -31.1818 -31.1787 -31.1756 -31.1745 -31.1728 -31.1694
   -31.1692 -31.1678 -31.1650 -31.1574 -31.1533 -31.1508 -31.1498 -31.1458
     6.5232   6.5535   6.6066   6.6519   7.8323   7.8399   7.8455   7.8790
     7.8988   7.9314   7.9451   7.9496   8.2642   8.2822   8.2928   8.3049
     8.5040   8.5251   8.5356   8.5411   8.6376   8.6659   8.6735   8.6867
     8.6918   8.6960   8.7128   8.7166   8.7209   8.7239   8.7444   8.7582
     8.7588   8.7637   8.7838   8.8430   8.9457   8.9715   9.0245   9.0264
     9.0306   9.0607   9.0650   9.0808   9.1815   9.1990   9.2015   9.2117
     9.2177   9.2215   9.2234   9.2298   9.2358   9.2465   9.2551   9.2654
     9.2720   9.2811   9.2884   9.2914   9.3052   9.3622   9.3807   9.3830
     9.4066   9.4260   9.4528   9.4567   9.4637   9.4650   9.4715   9.4854
     9.4877   9.4928   9.5000   9.5019   9.5149   9.5452   9.5506   9.5740
     9.5826   9.6198   9.7520   9.7630   9.7742   9.7776   9.8046   9.8242
     9.8249   9.8388   9.8487   9.8544   9.8578   9.8610   9.8934   9.8948
     9.9595   9.9855   9.9889   9.9985  10.0302  10.0308  10.0547  10.0695
    10.3572  10.3861  10.3924  10.4060  10.4119  10.4176  10.4236  10.4304
    10.4490  10.4610  10.4729  10.4789  10.4884  10.4942  10.4987  10.5179
    10.5275  10.5635  10.5758  10.5793  10.5982  10.6103  10.6150  10.6171
    10.6408  10.6495  10.6676  10.6701  10.6781  10.6928  10.7165  10.7171
    10.7300  10.8554  10.8614  10.9049  10.9633  10.9951  11.0353  11.1086
    11.1149  11.1310  11.1347  11.1498  11.1607  11.1892  11.1977  11.2100
    11.2114  11.2144  11.2557  11.3169  11.3436  11.3523  11.3653  11.3705
    11.3784  11.3816  11.4105  11.4260  11.4399  11.4852  11.4887  11.5110
    11.5197  11.5573  11.5740  11.5789  11.5811  11.5960  11.6028  11.6205
    11.6228  11.6419  11.6430  11.7110  11.7562  11.7651  11.8162  11.8243
    11.8927  11.8978  11.9037  11.9531  11.9615  11.9621  11.9822  12.0092
    12.0219  12.0273  12.0274  12.0333  12.0367  12.0391  12.0784  12.1337
    12.1435  12.1598  12.1823  12.2215  12.2324  12.2579  12.2918  12.3371
    12.3705  12.4113  12.4166  12.4233  12.4447  12.4469  12.4743  12.4887
    12.4994  12.5126  12.5154  12.5308  12.5452  12.5622  12.6269  12.6281
    12.6309  12.6406  12.6587  12.6611  12.7310  12.7573  12.7670  12.7790
    12.8677  12.8811  12.9119  12.9768  13.0106  13.0255  13.0438  13.0630
    13.0811  13.1954  13.2597  13.3549  13.4468  13.5347  13.5654  13.7997
    13.8733  13.9810  14.0569  14.1162  14.1499  14.2426  14.2699  14.3974
    14.4216  14.4621  14.5295  14.5801  14.6946  14.7051  14.7918  15.0323
    15.0920  15.2020  15.2684  15.3117  15.3447  15.3833  15.5590  15.5874
    15.6073  15.6836  15.7820  15.7983  15.8608  15.9213  15.9392  15.9684
    16.0359  16.0726  16.0875  16.1242  16.1496  16.1743  16.2146  16.2294
    16.2426  16.2693  16.2783  16.2787  16.2912  16.3348  16.3667  16.4838
    16.4863  16.5334  16.5463  16.5950  16.6135  16.6488  16.6876  16.7445
    16.7468  16.8059  16.8321  16.8995  16.9136  16.9526  16.9590  16.9950
    17.0806  17.1207  17.2060  17.2828  18.5593  18.6773  18.7113  18.7181
    18.7459  18.7992  18.8345  18.8552  18.8646  18.9201  18.9659  18.9889

 ------ SPIN DOWN ----------


          k = 0.0000 0.0000 0.0000 ( 31747 PWs)   bands (ev):

   -66.7876 -66.7541 -66.7085 -66.7069 -66.6637 -66.6461 -66.6388 -66.6338
   -66.6168 -62.4139 -62.3920 -62.3851 -62.3591 -62.3506 -62.3495 -62.3477
   -62.3413 -62.3336 -35.5417 -35.5301 -35.5177 -35.5140 -35.4958 -35.4790
   -35.4631 -35.4607 -35.4580 -35.4565 -35.4393 -35.4358 -35.4327 -35.4098
   -35.4045 -35.4009 -35.3959 -35.3914 -35.3882 -35.3829 -35.3795 -35.3768
   -35.3758 -35.3708 -35.3548 -35.3534 -35.3333 -31.2504 -31.2476 -31.2312
   -31.2203 -31.2187 -31.2180 -31.2134 -31.2079 -31.2013 -31.1999 -31.1959
   -31.1959 -31.1854 -31.1817 -31.1797 -31.1754 -31.1744 -31.1727 -31.1696
   -31.1685 -31.1677 -31.1649 -31.1573 -31.1531 -31.1507 -31.1497 -31.1460
     5.6143   7.1507   7.1597   7.1943   7.2059   7.3658   7.8592   7.8884
     7.9118   7.9428   8.0843   8.1088   8.1348   8.1530   8.1909   8.2440
     8.2619   8.2923   8.3104   8.5238   8.5494   8.5641   8.5693   8.5945
     8.6035   8.8571   8.8676   8.8687   8.8789   8.8852   8.8932   8.9016
     8.9031   8.9059   8.9140   8.9168   8.9309   8.9409   8.9623   8.9637
     8.9867   9.0852   9.1194   9.1267   9.1286   9.1312   9.1594   9.1603
     9.1885   9.2010   9.2121   9.2690   9.2781   9.2936   9.3061   9.3526
     9.3556   9.3620   9.3720   9.3764   9.3822   9.3852   9.4126   9.4259
     9.4461   9.4481   9.4556   9.4664   9.4672   9.4727   9.4956   9.5813
     9.5839   9.5840   9.5887   9.5913   9.6138   9.6583   9.6684   9.6725
     9.6736   9.6766   9.6810   9.7404   9.7585   9.7731   9.7931   9.8493
     9.8506   9.9121   9.9207   9.9505   9.9550   9.9637  10.0164  10.0375
    10.0967  10.1286  10.1364  10.1583  10.2923  10.2931  10.2954  10.2997
    10.3009  10.3064  10.3064  10.3117  10.3117  10.3249  10.3342  10.3454
    10.3497  10.3512  10.3546  10.3565  10.3616  10.3658  10.3809  10.3854
    10.4009  10.5135  10.5167  10.5533  10.5706  10.6181  10.6220  10.6426
    10.6916  10.7846  10.7870  10.8140  10.8198  10.8266  10.8321  10.8492
    10.8540  10.8597  10.8629  10.8747  10.8780  10.8825  10.8989  10.9139
    10.9172  10.9180  11.0144  11.0351  11.0757  11.0979  11.2208  11.2227
    11.2265  11.2290  11.2571  11.2752  11.3070  11.3283  11.3339  11.3461
    11.3548  11.3670  11.3881  11.3916  11.4015  11.4091  11.4153  11.4217
    11.4399  11.4651  11.5323  11.5551  11.5911  11.5940  11.5968  11.5980
    11.5987  11.6680  11.7049  11.7271  11.7316  11.7318  11.7442  11.7494
    11.8302  11.8332  11.8364  11.8720  11.8732  11.9096  11.9273  11.9454
    11.9495  12.0144  12.0810  12.1013  12.1022  12.1035  12.1061  12.1443
    12.1459  12.1479  12.1494  12.1618  12.1741  12.1814  12.1915  12.2320
    12.2451  12.2464  12.3230  12.3359  12.3424  12.3619  12.3684  12.4260
    12.4293  12.4346  12.4430  12.4736  12.4883  12.5003  12.5034  12.5145
    12.5169  12.5417  12.5419  12.5553  12.5627  12.5767  12.5872  12.6516
    12.7003  12.7083  12.7438  12.7541  12.9975  13.0301  13.0915  13.1063
    13.1301  13.1312  13.1783  13.1887  13.3759  13.4665  13.6750  13.8221
    13.8390  13.9612  14.0070  14.2395  14.2436  14.3452  14.3520  14.5018
    14.7792  14.8898  14.9449  15.0460  15.0523  15.1534  15.1835  15.2345
    15.2952  15.3343  15.3729  15.3933  15.4473  15.4662  15.5182  15.5773
    15.6578  15.6584  15.7346  15.7559  15.7846  15.7980  15.9150  15.9224
    16.0064  16.0821  16.1080  16.1099  16.1147  16.1455  16.1791  16.2120
    16.2215  16.2445  16.2787  16.3404  16.3622  16.3668  16.3780  16.4386
    16.4471  16.4671  16.4737  16.5807  16.6417  16.6509  16.7560  16.8495
    16.9771  17.0302  17.1653  17.1908  17.2029  17.2472  17.2638  17.3294
    17.5022  17.5523  17.8674  17.9114  17.9335  17.9475  17.9713  18.0366
    18.1154  18.2167  18.3698  18.9817  19.0337  19.0341  19.1562  19.2290

          k = 0.0000 0.0000-0.5734 ( 31692 PWs)   bands (ev):

   -66.7876 -66.7541 -66.7085 -66.7069 -66.6637 -66.6461 -66.6388 -66.6338
   -66.6168 -62.4139 -62.3920 -62.3851 -62.3591 -62.3506 -62.3495 -62.3477
   -62.3413 -62.3336 -35.5417 -35.5301 -35.5177 -35.5140 -35.4958 -35.4790
   -35.4631 -35.4607 -35.4580 -35.4565 -35.4393 -35.4358 -35.4327 -35.4098
   -35.4045 -35.4009 -35.3959 -35.3914 -35.3882 -35.3829 -35.3795 -35.3768
   -35.3758 -35.3708 -35.3548 -35.3534 -35.3333 -31.2504 -31.2476 -31.2312
   -31.2203 -31.2187 -31.2180 -31.2134 -31.2079 -31.2013 -31.1999 -31.1959
   -31.1959 -31.1854 -31.1817 -31.1797 -31.1754 -31.1744 -31.1727 -31.1696
   -31.1685 -31.1677 -31.1649 -31.1573 -31.1531 -31.1507 -31.1497 -31.1460
     6.1373   6.2332   7.5248   7.5344   7.5621   7.5806   7.5857   7.6015
     7.6315   7.6384   8.3042   8.3074   8.3203   8.3434   8.3492   8.3832
     8.3904   8.4083   8.4559   8.4671   8.4689   8.4867   8.4896   8.4951
     8.5090   8.5113   8.6861   8.7253   8.7293   8.8162   8.9398   8.9463
     8.9505   8.9706   8.9813   8.9833   8.9901   8.9946   9.0094   9.0266
     9.0329   9.0467   9.0497   9.0608   9.0945   9.1012   9.1762   9.1879
     9.2192   9.2323   9.2455   9.2595   9.2616   9.2704   9.2792   9.2822
     9.2855   9.2985   9.2993   9.3047   9.3150   9.3271   9.4074   9.4118
     9.4119   9.4259   9.4296   9.4315   9.4422   9.4533   9.4611   9.4660
     9.4745   9.4878   9.4959   9.5149   9.5540   9.5752   9.5899   9.7288
     9.7783   9.7941   9.7991   9.8008   9.8092   9.8221   9.8453   9.8464
     9.8746   9.8780   9.8803   9.8830   9.8836   9.8857   9.8890   9.8907
    10.0538  10.0557  10.0662  10.0675  10.1293  10.1323  10.1352  10.1467
    10.1740  10.1816  10.1979  10.2150  10.2177  10.2225  10.3478  10.3780
    10.3787  10.3893  10.3955  10.4000  10.4006  10.4290  10.4323  10.5529
    10.5918  10.5979  10.6030  10.6095  10.6140  10.6329  10.6403  10.6696
    10.6725  10.6815  10.6940  10.7197  10.7622  10.8112  10.8717  10.8982
    10.9209  10.9431  10.9928  11.0088  11.0372  11.0606  11.0666  11.0818
    11.0850  11.0872  11.1141  11.1327  11.1420  11.1692  11.1720  11.1861
    11.1954  11.2316  11.2506  11.2510  11.2527  11.2547  11.2649  11.2659
    11.2686  11.2697  11.2780  11.2793  11.2874  11.3009  11.3036  11.3054
    11.3217  11.3283  11.3294  11.3315  11.5136  11.6243  11.7075  11.7113
    11.7115  11.7149  11.7178  11.7235  11.7264  11.7335  11.7359  11.7396
    11.7549  11.7743  11.7949  11.7971  11.8136  11.8324  11.8354  11.8407
    11.9497  11.9681  11.9873  11.9987  12.0349  12.0389  12.0815  12.0882
    12.1340  12.1744  12.2152  12.2423  12.2482  12.2695  12.3073  12.3730
    12.3830  12.4081  12.4212  12.4383  12.4529  12.4799  12.4896  12.4900
    12.4930  12.5298  12.5356  12.5458  12.5481  12.5701  12.5784  12.5907
    12.6203  12.6335  12.7349  12.7914  12.8197  12.8703  12.8791  12.9146
    12.9791  13.0339  13.0370  13.0741  13.1239  13.1250  13.1450  13.1456
    13.1962  13.2166  13.2508  13.4281  13.5026  13.5317  13.5358  13.7480
    13.8792  13.9535  14.0170  14.0721  14.1240  14.1688  14.2659  14.4351
    14.4911  14.8857  14.9222  14.9552  14.9759  15.0335  15.0578  15.0716
    15.1487  15.1879  15.2030  15.2092  15.2519  15.2744  15.3641  15.6302
    15.6558  15.7189  15.7435  15.7690  15.8491  15.8856  15.9578  16.0229
    16.1025  16.1245  16.1252  16.1318  16.1353  16.1723  16.1812  16.2125
    16.2345  16.2387  16.2440  16.2601  16.2640  16.2698  16.2869  16.3455
    16.3833  16.4394  16.4480  16.5157  16.6023  16.6903  16.7245  16.7596
    16.8892  16.9578  17.2467  17.3443  17.4171  17.4704  17.5392  17.5483
    17.5705  17.5724  17.6119  17.6434  17.6511  17.7257  17.7891  17.8373
    17.9058  17.9304  18.0795  18.1223  18.1774  18.2584  18.3470  18.3613

          k = 0.0000-0.5000 0.0000 ( 31722 PWs)   bands (ev):

   -66.7876 -66.7541 -66.7085 -66.7069 -66.6637 -66.6461 -66.6388 -66.6338
   -66.6169 -62.4139 -62.3920 -62.3851 -62.3591 -62.3506 -62.3495 -62.3477
   -62.3413 -62.3336 -35.5417 -35.5301 -35.5177 -35.5140 -35.4958 -35.4790
   -35.4631 -35.4607 -35.4580 -35.4565 -35.4393 -35.4358 -35.4327 -35.4098
   -35.4045 -35.4009 -35.3959 -35.3914 -35.3882 -35.3829 -35.3795 -35.3768
   -35.3758 -35.3708 -35.3548 -35.3534 -35.3333 -31.2504 -31.2476 -31.2312
   -31.2205 -31.2187 -31.2180 -31.2134 -31.2076 -31.2013 -31.1999 -31.1959
   -31.1959 -31.1853 -31.1817 -31.1797 -31.1754 -31.1744 -31.1727 -31.1698
   -31.1685 -31.1677 -31.1649 -31.1573 -31.1531 -31.1507 -31.1497 -31.1460
     6.0234   6.0608   7.4183   7.4372   7.4494   7.4840   7.6720   7.6819
     8.0994   8.1176   8.1374   8.1800   8.2118   8.2172   8.2422   8.2818
     8.4026   8.4270   8.4357   8.4770   8.5947   8.6361   8.6473   8.6548
     8.6602   8.6929   8.6973   8.7022   8.7353   8.7998   8.8265   8.8444
     8.8500   8.8604   8.8807   8.8914   8.9044   8.9090   8.9146   8.9201
     8.9262   8.9296   8.9356   8.9466   9.0476   9.0546   9.1615   9.1826
     9.1924   9.1958   9.2023   9.2317   9.2385   9.2532   9.3155   9.3388
     9.3537   9.3647   9.3778   9.4126   9.4752   9.4849   9.4941   9.5107
     9.5157   9.5374   9.5381   9.5557   9.5935   9.5948   9.6045   9.6180
     9.6214   9.6256   9.6311   9.6326   9.6348   9.6379   9.6419   9.6520
     9.6561   9.6637   9.6739   9.6787   9.6920   9.7171   9.7351   9.7518
     9.7594   9.7634   9.7658   9.7686   9.8956   9.8969   9.9061  10.0089
    10.0091  10.0427  10.1416  10.1914  10.2102  10.2377  10.2468  10.2554
    10.2639  10.2687  10.2703  10.2706  10.2842  10.2888  10.3437  10.3556
    10.3633  10.3794  10.3820  10.3851  10.4221  10.4452  10.4459  10.4729
    10.4808  10.5204  10.5241  10.5330  10.5454  10.5770  10.5795  10.5933
    10.6110  10.6593  10.6778  10.6810  10.7028  10.7243  10.7456  10.7620
    10.7969  10.8172  10.8267  10.8521  10.8659  10.8957  10.9144  10.9288
    10.9533  11.0121  11.0181  11.0219  11.0313  11.1259  11.1579  11.1912
    11.2857  11.3461  11.3524  11.3668  11.3842  11.3906  11.4067  11.4168
    11.4397  11.4429  11.4502  11.4634  11.5005  11.5292  11.5345  11.5573
    11.5719  11.5783  11.6023  11.6236  11.6454  11.6572  11.6861  11.7229
    11.7351  11.7769  11.7842  11.7901  11.7952  11.8329  11.8442  11.8449
    11.8525  11.8755  11.9096  11.9192  11.9382  11.9557  11.9579  11.9817
    11.9836  11.9916  12.0103  12.0119  12.1066  12.1517  12.1560  12.1877
    12.1972  12.2129  12.2135  12.2217  12.2431  12.2587  12.2777  12.2844
    12.2880  12.2948  12.3232  12.3359  12.3545  12.3740  12.4012  12.4158
    12.4309  12.4468  12.4644  12.4745  12.4825  12.5230  12.5322  12.5607
    12.5662  12.5742  12.6090  12.6175  12.6530  12.6530  12.6699  12.7488
    12.8821  12.9169  13.0207  13.0605  13.0674  13.1205  13.1376  13.1476
    13.1481  13.1870  13.1892  13.1966  13.2328  13.2866  13.2938  13.3193
    13.3475  13.3902  13.4221  13.7178  13.7469  14.2840  14.4766  14.4989
    14.6296  14.7493  14.7621  14.7935  14.8210  14.8647  14.8979  14.9709
    15.0460  15.2282  15.2405  15.3482  15.4232  15.4591  15.5152  15.6035
    15.6048  15.6980  15.7316  15.7726  15.8161  15.8190  15.8657  16.0446
    16.0502  16.0944  16.1011  16.1272  16.1459  16.1498  16.1664  16.1728
    16.2072  16.2084  16.2294  16.2541  16.2624  16.2762  16.2922  16.3429
    16.4214  16.4705  16.5126  16.5809  16.7144  16.7899  17.0011  17.0955
    17.1545  17.1911  17.1944  17.3112  17.4017  17.5335  17.6235  17.6291
    17.7148  17.7167  17.7835  17.8130  17.8764  17.8801  17.9221  17.9247
    18.0381  18.1043  18.1523  18.2309  19.2680  19.2828  19.2927  19.3323

          k = 0.0000-0.5000-0.5734 ( 31696 PWs)   bands (ev):

   -66.7876 -66.7541 -66.7085 -66.7069 -66.6637 -66.6461 -66.6388 -66.6338
   -66.6168 -62.4139 -62.3920 -62.3851 -62.3591 -62.3506 -62.3495 -62.3477
   -62.3413 -62.3336 -35.5417 -35.5301 -35.5177 -35.5140 -35.4958 -35.4790
   -35.4631 -35.4607 -35.4580 -35.4565 -35.4393 -35.4358 -35.4327 -35.4098
   -35.4045 -35.4009 -35.3959 -35.3914 -35.3882 -35.3829 -35.3795 -35.3768
   -35.3758 -35.3708 -35.3548 -35.3534 -35.3333 -31.2504 -31.2476 -31.2312
   -31.2205 -31.2187 -31.2180 -31.2134 -31.2076 -31.2013 -31.1999 -31.1959
   -31.1959 -31.1853 -31.1817 -31.1797 -31.1754 -31.1744 -31.1727 -31.1698
   -31.1685 -31.1677 -31.1649 -31.1573 -31.1531 -31.1507 -31.1497 -31.1460
     6.4980   6.5809   6.5920   6.6682   7.8214   7.8261   7.8605   7.8743
     7.9056   7.9273   7.9427   7.9548   8.2618   8.2844   8.2961   8.3029
     8.5151   8.5234   8.5274   8.5391   8.6562   8.6674   8.6735   8.6825
     8.6890   8.6966   8.7008   8.7149   8.7283   8.7301   8.7490   8.7498
     8.7681   8.7688   8.7805   8.8258   8.9264   8.9951   9.0173   9.0236
     9.0335   9.0650   9.0700   9.0779   9.1555   9.1980   9.2061   9.2205
     9.2301   9.2305   9.2330   9.2379   9.2405   9.2453   9.2560   9.2593
     9.2608   9.2655   9.2732   9.2760   9.2866   9.3808   9.3859   9.3927
     9.4055   9.4264   9.4534   9.4551   9.4704   9.4713   9.4759   9.4782
     9.4822   9.4844   9.5072   9.5101   9.5275   9.5445   9.5633   9.5708
     9.5870   9.6310   9.7520   9.7615   9.7832   9.7885   9.7921   9.8199
     9.8281   9.8300   9.8443   9.8500   9.8623   9.8720   9.8846   9.8893
     9.9443   9.9709  10.0054  10.0104  10.0322  10.0377  10.0556  10.0615
    10.3540  10.3754  10.3758  10.3861  10.4079  10.4190  10.4253  10.4284
    10.4332  10.4587  10.4714  10.4843  10.4862  10.4919  10.4962  10.5371
    10.5463  10.5606  10.5777  10.5838  10.5915  10.6036  10.6161  10.6258
    10.6546  10.6582  10.6726  10.6732  10.6814  10.6953  10.7139  10.7185
    10.7286  10.8559  10.8578  10.8947  10.9738  11.0032  11.0121  11.0853
    11.1146  11.1202  11.1269  11.1797  11.1865  11.1949  11.1954  11.2033
    11.2111  11.2145  11.2727  11.3309  11.3338  11.3355  11.3641  11.3698
    11.3706  11.3827  11.4054  11.4422  11.4503  11.4634  11.4754  11.5355
    11.5367  11.5658  11.5681  11.5713  11.5782  11.5825  11.5921  11.6025
    11.6321  11.6356  11.7217  11.7240  11.7371  11.7513  11.7724  11.8021
    11.8871  11.8980  11.9101  11.9569  11.9600  11.9656  11.9794  12.0051
    12.0123  12.0212  12.0217  12.0318  12.0354  12.0399  12.0956  12.1270
    12.1577  12.1800  12.1924  12.2034  12.2240  12.2443  12.3212  12.3384
    12.3829  12.3891  12.4050  12.4258  12.4464  12.4479  12.4555  12.4692
    12.4797  12.4908  12.5095  12.5139  12.5568  12.5615  12.5861  12.5869
    12.6328  12.6465  12.6479  12.6630  12.7055  12.7541  12.8498  12.8545
    12.8652  12.8866  12.9464  12.9984  13.0182  13.0319  13.0347  13.0734
    13.1575  13.1879  13.2639  13.3492  13.5221  13.5361  13.6820  13.7723
    13.7779  13.9307  14.0268  14.0456  14.1397  14.1410  14.1756  14.3733
    14.4168  14.5328  14.5758  14.6091  14.6284  14.7431  14.8177  15.0486
    15.1411  15.1901  15.2852  15.3881  15.4627  15.4725  15.5213  15.5564
    15.6334  15.6474  15.6954  15.7213  15.7278  15.7955  15.8941  16.0907
    16.1016  16.1090  16.1355  16.1533  16.1564  16.1812  16.2096  16.2096
    16.2549  16.2793  16.2892  16.2936  16.3281  16.3954  16.4681  16.4723
    16.5055  16.5364  16.5555  16.6111  16.6133  16.6352  16.6909  16.6945
    16.7002  16.7561  16.7760  16.8489  16.8753  16.9194  16.9699  16.9841
    17.0827  17.1010  17.2076  17.2922  18.6125  18.6674  18.7585  18.7622
    18.7839  18.7888  18.7943  18.8455  18.8794  18.8929  18.9456  18.9906

          k =-0.5000-0.5000 0.0000 ( 31612 PWs)   bands (ev):

   -66.7876 -66.7541 -66.7085 -66.7069 -66.6637 -66.6461 -66.6388 -66.6338
   -66.6169 -62.4139 -62.3920 -62.3851 -62.3591 -62.3506 -62.3495 -62.3477
   -62.3413 -62.3336 -35.5417 -35.5302 -35.5177 -35.5140 -35.4957 -35.4790
   -35.4632 -35.4607 -35.4580 -35.4565 -35.4393 -35.4358 -35.4327 -35.4098
   -35.4045 -35.4010 -35.3959 -35.3913 -35.3882 -35.3829 -35.3801 -35.3768
   -35.3742 -35.3717 -35.3548 -35.3534 -35.3333 -31.2507 -31.2477 -31.2303
   -31.2205 -31.2187 -31.2185 -31.2134 -31.2076 -31.2017 -31.1999 -31.1959
   -31.1956 -31.1856 -31.1817 -31.1786 -31.1754 -31.1744 -31.1727 -31.1697
   -31.1691 -31.1677 -31.1649 -31.1573 -31.1531 -31.1507 -31.1497 -31.1460
     6.4080   6.4307   6.4450   6.4753   8.0109   8.0169   8.0208   8.0237
     8.0807   8.1341   8.2893   8.3223   8.3252   8.3394   8.3402   8.3448
     8.3467   8.3578   8.3616   8.3639   8.3697   8.3885   8.5533   8.5724
     8.6416   8.6663   8.6779   8.6982   8.7121   8.7335   8.7394   8.7499
     8.7565   8.7943   8.9006   8.9196   8.9544   8.9755   8.9773   8.9780
     8.9827   8.9887   8.9955   9.0091   9.0113   9.0329   9.0528   9.0728
     9.1044   9.1440   9.3109   9.3154   9.3168   9.3211   9.4013   9.4071
     9.4094   9.4163   9.4176   9.4223   9.4272   9.4280   9.4404   9.4538
     9.4589   9.4669   9.4765   9.4808   9.4851   9.4912   9.4993   9.5026
     9.5120   9.5217   9.5423   9.5573   9.5665   9.5687   9.5737   9.5810
     9.5995   9.6101   9.6976   9.7000   9.7665   9.8212   9.8220   9.8329
     9.8332   9.8353   9.8361   9.8450   9.8596   9.8723  10.0324  10.0597
    10.0675  10.0886  10.1007  10.1210  10.1357  10.1407  10.1542  10.1599
    10.1805  10.1933  10.2019  10.2097  10.2217  10.2282  10.2307  10.2359
    10.2371  10.2380  10.2585  10.2731  10.4472  10.4705  10.4735  10.4884
    10.4949  10.5005  10.5249  10.5334  10.6226  10.6365  10.6504  10.6569
    10.6625  10.6639  10.6700  10.6725  10.6920  10.6970  10.7021  10.7040
    10.7163  10.7422  10.7638  10.7930  10.8162  10.8672  10.8781  10.8931
    10.9125  10.9286  11.1993  11.2070  11.2141  11.2234  11.2865  11.3014
    11.3202  11.3452  11.3583  11.3662  11.4037  11.4193  11.5524  11.5678
    11.5814  11.5952  11.6139  11.6386  11.6408  11.6453  11.6493  11.6501
    11.6573  11.6773  11.6847  11.7199  11.7400  11.7445  11.7558  11.8738
    11.8747  11.8780  11.8793  11.8803  11.8828  11.8908  11.9959  12.0154
    12.0188  12.0205  12.0932  12.0987  12.1031  12.1090  12.1096  12.1116
    12.1189  12.1190  12.1252  12.1298  12.1369  12.1431  12.1683  12.1754
    12.1945  12.2022  12.2109  12.2121  12.2184  12.2271  12.2273  12.2533
    12.2717  12.2784  12.2809  12.2844  12.2922  12.3007  12.3228  12.3340
    12.3493  12.3988  12.4330  12.4405  12.4545  12.4652  12.4848  12.5238
    12.5296  12.5523  12.5829  12.5971  12.6034  12.6261  12.6441  12.6818
    12.6979  12.7127  12.7535  12.7804  12.8160  12.8738  12.9380  12.9507
    12.9524  12.9767  12.9837  13.0073  13.0326  13.4382  13.6681  13.6721
    13.6773  13.7550  13.8351  13.8492  13.9253  13.9260  13.9839  14.2035
    14.2743  14.2814  14.3233  14.3888  14.4587  14.7784  14.8025  14.8619
    15.1068  15.1424  15.1742  15.3055  15.4093  15.5085  15.6147  15.7407
    15.7800  15.8015  15.8140  15.8402  15.8616  15.8898  15.8973  15.9305
    15.9424  15.9790  15.9865  16.0063  16.0318  16.0661  16.0911  16.1653
    16.1905  16.2392  16.2777  16.2995  16.3142  16.3661  16.3723  16.4163
    16.4865  16.5185  16.5776  16.6653  16.6654  16.7188  16.7406  16.7972
    16.8084  16.8769  16.9807  17.0155  17.3815  17.3974  17.4793  18.1375
    18.1637  18.2021  18.2081  18.2391  18.2448  18.4164  18.4986  18.5532
    18.5674  18.6167  18.6423  18.6532  18.7312  18.7924  18.7977  18.8047

          k =-0.5000-0.5000-0.5734 ( 31672 PWs)   bands (ev):

   -66.7876 -66.7541 -66.7085 -66.7069 -66.6637 -66.6461 -66.6388 -66.6338
   -66.6168 -62.4139 -62.3920 -62.3851 -62.3591 -62.3506 -62.3495 -62.3477
   -62.3413 -62.3336 -35.5417 -35.5302 -35.5177 -35.5140 -35.4957 -35.4790
   -35.4632 -35.4607 -35.4580 -35.4565 -35.4393 -35.4358 -35.4327 -35.4098
   -35.4045 -35.4010 -35.3959 -35.3913 -35.3882 -35.3829 -35.3801 -35.3768
   -35.3742 -35.3717 -35.3548 -35.3534 -35.3333 -31.2507 -31.2476 -31.2303
   -31.2205 -31.2187 -31.2185 -31.2134 -31.2076 -31.2017 -31.1999 -31.1959
   -31.1956 -31.1856 -31.1817 -31.1786 -31.1754 -31.1744 -31.1727 -31.1697
   -31.1691 -31.1677 -31.1649 -31.1573 -31.1531 -31.1507 -31.1497 -31.1460
     6.8810   6.8876   6.9313   6.9397   6.9989   7.0168   7.0474   7.0521
     8.4394   8.4705   8.4731   8.4788   8.4847   8.4900   8.4933   8.4952
     8.5011   8.5037   8.5062   8.5135   8.5236   8.5438   8.5443   8.5572
     8.5767   8.5770   8.5878   8.6452   8.8775   8.8789   8.8902   8.8985
     8.9166   8.9222   8.9291   8.9358   9.0836   9.0874   9.1152   9.1212
     9.1267   9.1273   9.1400   9.1474   9.1547   9.1571   9.1588   9.1628
     9.1628   9.1656   9.1692   9.1756   9.1774   9.1791   9.1792   9.1821
     9.1838   9.1849   9.1924   9.1950   9.1981   9.2047   9.2139   9.2155
     9.2347   9.2376   9.2404   9.2493   9.2610   9.2642   9.2711   9.2835
     9.5429   9.5473   9.5627   9.5662   9.5807   9.5883   9.6191   9.6266
     9.6349   9.6427   9.6683   9.6928   9.7097   9.7501   9.7865   9.7967
     9.8109   9.8193   9.8391   9.8586   9.8801   9.8924   9.8953   9.9010
    10.0978  10.1186  10.1501  10.1591  10.1602  10.1744  10.1996  10.2098
    10.2678  10.3355  10.4309  10.4413  10.4571  10.4658  10.4785  10.4830
    10.4884  10.4937  10.4978  10.5010  10.5038  10.5122  10.5194  10.5231
    10.5256  10.5359  10.5437  10.5499  10.5512  10.5591  10.6081  10.6156
    10.6263  10.6346  10.6359  10.6371  10.6468  10.6606  10.6637  10.6705
    10.6854  10.6893  10.6944  10.6963  10.7128  10.7190  11.0306  11.0579
    11.0675  11.0775  11.0849  11.0980  11.1081  11.1325  11.3776  11.3811
    11.3910  11.4012  11.4097  11.4204  11.4412  11.4553  11.4562  11.4657
    11.4867  11.4917  11.4979  11.5078  11.5382  11.5466  11.5899  11.6356
    11.6373  11.6389  11.6578  11.6652  11.6733  11.6992  11.7047  11.7148
    11.7161  11.7195  11.7232  11.7395  11.7634  11.7659  11.7703  11.7869
    11.8025  11.8152  11.8267  11.8335  11.8433  11.9567  11.9721  11.9796
    11.9937  12.0200  12.0540  12.0894  12.1051  12.1106  12.1200  12.1389
    12.1731  12.1852  12.2151  12.2250  12.2770  12.2826  12.2906  12.3021
    12.3086  12.3478  12.3745  12.3911  12.4388  12.4461  12.4645  12.4790
    12.4889  12.5059  12.5293  12.5357  12.5459  12.5656  12.5908  12.6007
    12.6582  12.6903  12.7101  12.7363  12.7418  12.7814  12.8073  12.8933
    12.9605  12.9773  12.9921  13.0034  13.1166  13.1201  13.1395  13.1695
    13.1874  13.2068  13.2500  13.2992  13.3389  13.3545  13.3742  13.5091
    13.5486  13.5768  13.6907  13.7555  13.9651  13.9688  14.0247  14.0979
    14.1744  14.2473  14.3578  14.3975  14.7718  14.7813  14.9781  15.0518
    15.1339  15.2834  15.3555  15.4223  15.4384  15.6361  15.7048  15.7253
    15.7265  15.7646  15.8116  15.8257  15.8325  15.8764  15.9099  15.9249
    15.9358  15.9628  15.9916  16.0432  16.0549  16.1073  16.1302  16.1940
    16.2147  16.2410  16.2498  16.2509  16.2940  16.3708  16.4443  16.5229
    16.5409  16.5819  16.6157  16.6194  16.6401  16.6746  16.7343  16.7599
    16.7827  16.8506  16.8543  16.9071  16.9207  16.9688  17.0002  17.0284
    17.1059  17.1331  17.4406  17.6901  17.9608  18.0630  19.0017  19.0362
    19.0384  19.0646  19.1104  19.1300  19.1740  19.2308  19.2327  19.3083

          k =-0.5000 0.0000 0.0000 ( 31722 PWs)   bands (ev):

   -66.7876 -66.7541 -66.7085 -66.7069 -66.6637 -66.6461 -66.6388 -66.6338
   -66.6169 -62.4139 -62.3920 -62.3851 -62.3591 -62.3506 -62.3495 -62.3477
   -62.3413 -62.3336 -35.5417 -35.5302 -35.5177 -35.5140 -35.4957 -35.4790
   -35.4632 -35.4607 -35.4580 -35.4565 -35.4393 -35.4358 -35.4327 -35.4098
   -35.4045 -35.4010 -35.3959 -35.3913 -35.3882 -35.3829 -35.3801 -35.3768
   -35.3742 -35.3717 -35.3548 -35.3534 -35.3333 -31.2507 -31.2477 -31.2303
   -31.2203 -31.2187 -31.2185 -31.2134 -31.2079 -31.2017 -31.1999 -31.1959
   -31.1957 -31.1857 -31.1817 -31.1786 -31.1754 -31.1744 -31.1727 -31.1695
   -31.1691 -31.1677 -31.1649 -31.1573 -31.1531 -31.1507 -31.1497 -31.1460
     6.0330   6.0514   7.4068   7.4394   7.4548   7.4860   7.6752   7.6795
     8.1014   8.1222   8.1506   8.1733   8.1777   8.2333   8.2452   8.2890
     8.3900   8.4162   8.4546   8.4857   8.5959   8.6228   8.6438   8.6543
     8.6777   8.6788   8.6988   8.7064   8.7381   8.8126   8.8212   8.8371
     8.8428   8.8735   8.8756   8.8817   8.9065   8.9092   8.9123   8.9203
     8.9263   8.9309   8.9389   8.9504   9.0501   9.0532   9.1580   9.1769
     9.1875   9.1989   9.2120   9.2246   9.2429   9.2503   9.3159   9.3234
     9.3376   9.3839   9.4016   9.4027   9.4740   9.4775   9.4839   9.4971
     9.5369   9.5406   9.5419   9.5728   9.5757   9.6025   9.6041   9.6158
     9.6180   9.6197   9.6283   9.6286   9.6332   9.6408   9.6467   9.6566
     9.6657   9.6673   9.6674   9.6800   9.6912   9.7151   9.7248   9.7493
     9.7565   9.7622   9.7703   9.7746   9.8896   9.8971   9.9034  10.0053
    10.0161  10.0320  10.1562  10.1856  10.2136  10.2250  10.2469  10.2523
    10.2695  10.2721  10.2777  10.2795  10.2812  10.2877  10.3461  10.3606
    10.3650  10.3815  10.3838  10.3901  10.4302  10.4411  10.4432  10.4497
    10.4890  10.5148  10.5183  10.5320  10.5633  10.5655  10.5853  10.5936
    10.6076  10.6572  10.6910  10.6989  10.7043  10.7062  10.7396  10.7806
    10.8056  10.8130  10.8343  10.8479  10.8698  10.8860  10.9063  10.9242
    10.9305  10.9962  11.0049  11.0274  11.0515  11.1237  11.1629  11.1935
    11.2744  11.3444  11.3510  11.3612  11.3662  11.3968  11.4002  11.4044
    11.4188  11.4453  11.4824  11.4920  11.4936  11.5469  11.5515  11.5759
    11.5838  11.5944  11.6004  11.6100  11.6152  11.6576  11.6578  11.7224
    11.7458  11.7831  11.8019  11.8115  11.8138  11.8388  11.8429  11.8611
    11.8648  11.8841  11.8977  11.9181  11.9259  11.9470  11.9678  11.9720
    11.9830  12.0053  12.0174  12.0183  12.0390  12.1303  12.1454  12.1879
    12.1952  12.2096  12.2294  12.2411  12.2430  12.2607  12.2632  12.2788
    12.2854  12.2957  12.2986  12.3011  12.3796  12.3963  12.4056  12.4069
    12.4494  12.4584  12.4643  12.4758  12.4816  12.5154  12.5194  12.5515
    12.5726  12.5780  12.6078  12.6634  12.6658  12.7043  12.7248  12.7721
    12.7973  12.8593  12.9273  12.9766  13.0586  13.0764  13.1360  13.1427
    13.1507  13.2023  13.2204  13.2280  13.2668  13.2694  13.3130  13.3253
    13.3676  13.4340  13.4582  13.7216  13.7454  14.1263  14.5109  14.5736
    14.6267  14.7448  14.7879  14.8569  14.8652  14.8836  14.9321  14.9546
    15.0782  15.1066  15.2298  15.3328  15.3781  15.3960  15.5116  15.5673
    15.6856  15.7469  15.7488  15.7886  15.8371  15.8622  15.9306  16.0250
    16.0251  16.0543  16.0554  16.0702  16.1017  16.1306  16.1426  16.1563
    16.1780  16.1975  16.2380  16.2478  16.2608  16.2959  16.3481  16.3644
    16.4212  16.4243  16.5501  16.5879  16.7162  16.8010  16.9979  17.0326
    17.1183  17.2072  17.2530  17.3929  17.4388  17.5601  17.6107  17.6247
    17.7090  17.7461  17.7705  17.8228  17.8322  17.8591  17.9188  18.0033
    18.0452  18.0620  18.1306  18.2138  19.2645  19.2911  19.3109  19.3633

          k =-0.5000 0.0000 0.5734 ( 31696 PWs)   bands (ev):

   -66.7876 -66.7541 -66.7085 -66.7069 -66.6637 -66.6461 -66.6388 -66.6338
   -66.6168 -62.4139 -62.3920 -62.3851 -62.3591 -62.3506 -62.3495 -62.3477
   -62.3413 -62.3336 -35.5417 -35.5302 -35.5177 -35.5140 -35.4957 -35.4790
   -35.4632 -35.4607 -35.4580 -35.4565 -35.4393 -35.4358 -35.4327 -35.4098
   -35.4045 -35.4010 -35.3959 -35.3913 -35.3882 -35.3829 -35.3801 -35.3768
   -35.3742 -35.3717 -35.3548 -35.3534 -35.3333 -31.2507 -31.2477 -31.2303
   -31.2203 -31.2187 -31.2185 -31.2134 -31.2079 -31.2017 -31.1999 -31.1959
   -31.1957 -31.1857 -31.1817 -31.1786 -31.1754 -31.1744 -31.1727 -31.1695
   -31.1691 -31.1677 -31.1649 -31.1573 -31.1531 -31.1507 -31.1497 -31.1460
     6.5232   6.5535   6.6066   6.6519   7.8323   7.8399   7.8455   7.8790
     7.8988   7.9314   7.9451   7.9496   8.2642   8.2822   8.2928   8.3049
     8.5040   8.5251   8.5356   8.5411   8.6376   8.6659   8.6735   8.6867
     8.6918   8.6960   8.7128   8.7166   8.7210   8.7239   8.7444   8.7582
     8.7588   8.7637   8.7838   8.8430   8.9457   8.9715   9.0245   9.0264
     9.0306   9.0607   9.0650   9.0807   9.1816   9.1990   9.2015   9.2117
     9.2177   9.2215   9.2234   9.2298   9.2358   9.2466   9.2551   9.2654
     9.2720   9.2811   9.2884   9.2915   9.3052   9.3622   9.3807   9.3830
     9.4067   9.4260   9.4528   9.4567   9.4637   9.4650   9.4715   9.4854
     9.4877   9.4928   9.5000   9.5019   9.5150   9.5452   9.5506   9.5740
     9.5826   9.6198   9.7520   9.7630   9.7742   9.7776   9.8046   9.8242
     9.8249   9.8388   9.8487   9.8544   9.8578   9.8610   9.8934   9.8948
     9.9595   9.9855   9.9889   9.9985  10.0302  10.0308  10.0547  10.0695
    10.3572  10.3861  10.3925  10.4060  10.4118  10.4176  10.4236  10.4304
    10.4489  10.4610  10.4729  10.4789  10.4884  10.4942  10.4986  10.5179
    10.5275  10.5635  10.5758  10.5793  10.5982  10.6103  10.6150  10.6171
    10.6408  10.6495  10.6676  10.6701  10.6781  10.6928  10.7165  10.7171
    10.7300  10.8554  10.8614  10.9049  10.9633  10.9951  11.0353  11.1086
    11.1149  11.1310  11.1346  11.1498  11.1607  11.1892  11.1977  11.2100
    11.2114  11.2144  11.2557  11.3169  11.3436  11.3523  11.3653  11.3705
    11.3784  11.3816  11.4106  11.4260  11.4399  11.4852  11.4887  11.5110
    11.5197  11.5573  11.5740  11.5789  11.5811  11.5960  11.6028  11.6205
    11.6228  11.6419  11.6430  11.7110  11.7562  11.7650  11.8162  11.8244
    11.8927  11.8978  11.9037  11.9531  11.9614  11.9621  11.9822  12.0092
    12.0220  12.0273  12.0275  12.0333  12.0367  12.0391  12.0784  12.1337
    12.1435  12.1598  12.1822  12.2215  12.2324  12.2579  12.2918  12.3372
    12.3704  12.4114  12.4167  12.4233  12.4448  12.4468  12.4742  12.4886
    12.4994  12.5127  12.5153  12.5308  12.5451  12.5622  12.6270  12.6282
    12.6310  12.6405  12.6588  12.6611  12.7310  12.7573  12.7670  12.7789
    12.8677  12.8811  12.9119  12.9768  13.0107  13.0255  13.0439  13.0630
    13.0811  13.1954  13.2596  13.3549  13.4468  13.5347  13.5654  13.7997
    13.8733  13.9811  14.0569  14.1162  14.1498  14.2425  14.2700  14.3974
    14.4216  14.4621  14.5295  14.5801  14.6946  14.7051  14.7918  15.0323
    15.0920  15.2019  15.2684  15.3117  15.3447  15.3834  15.5590  15.5874
    15.6073  15.6836  15.7820  15.7983  15.8608  15.9213  15.9393  15.9684
    16.0359  16.0725  16.0875  16.1242  16.1496  16.1742  16.2146  16.2294
    16.2426  16.2693  16.2782  16.2787  16.2912  16.3348  16.3667  16.4838
    16.4862  16.5334  16.5463  16.5949  16.6135  16.6488  16.6877  16.7445
    16.7469  16.8059  16.8320  16.8995  16.9136  16.9526  16.9590  16.9950
    17.0806  17.1206  17.2060  17.2828  18.5592  18.6772  18.7113  18.7181
    18.7459  18.7992  18.8345  18.8552  18.8646  18.9201  18.9659  18.9889

     the Fermi energy is    14.8423 ev

!    total energy              =  -33062.61060072 Ry
     Harris-Foulkes estimate   =  -33062.61058751 Ry
     estimated scf accuracy    <       0.00000038 Ry

     total all-electron energy =  -1410574.700975 Ry

     The total energy is the sum of the following terms:

     one-electron contribution =   -1645.67263175 Ry
     hartree contribution      =    1489.88376006 Ry
     xc contribution           =   -1658.75155421 Ry
     ewald contribution        =   -4919.25534656 Ry
     one-center paw contrib.   =  -26328.81482826 Ry

     total magnetization       =     0.00 Bohr mag/cell
     absolute magnetization    =    78.95 Bohr mag/cell

     convergence has been achieved in  24 iterations

     Writing output data file mnau2.save
 
     init_run     :     52.20s CPU     53.06s WALL (       1 calls)
     electrons    :   3400.68s CPU   3461.72s WALL (       1 calls)

     Called by init_run:
     wfcinit      :     46.37s CPU     46.96s WALL (       1 calls)
     potinit      :      2.48s CPU      2.53s WALL (       1 calls)

     Called by electrons:
     c_bands      :   3008.92s CPU   3058.47s WALL (      24 calls)
     sum_band     :    328.60s CPU    335.60s WALL (      24 calls)
     v_of_rho     :      6.40s CPU      6.62s WALL (      25 calls)
     newd         :     20.23s CPU     23.07s WALL (      25 calls)
     PAW_pot      :     36.98s CPU     37.54s WALL (      25 calls)
     mix_rho      :      1.32s CPU      1.38s WALL (      24 calls)

     Called by c_bands:
     init_us_2    :     11.76s CPU     11.81s WALL (     784 calls)
     cegterg      :   2933.73s CPU   2982.26s WALL (     384 calls)

     Called by sum_band:
     sum_band:bec :      1.87s CPU      1.87s WALL (     384 calls)
     addusdens    :     36.21s CPU     39.49s WALL (      24 calls)

     Called by *egterg:
     h_psi        :   1071.08s CPU   1082.20s WALL (    1437 calls)
     s_psi        :    259.18s CPU    259.59s WALL (    1437 calls)
     g_psi        :      3.93s CPU      3.94s WALL (    1037 calls)
     cdiaghg      :   1003.83s CPU   1004.83s WALL (    1421 calls)

     Called by h_psi:
     h_psi:pot    :   1061.24s CPU   1072.29s WALL (    1437 calls)
     h_psi:calbec :    260.01s CPU    262.56s WALL (    1437 calls)
     vloc_psi     :    539.92s CPU    548.16s WALL (    1437 calls)
     add_vuspsi   :    261.28s CPU    261.56s WALL (    1437 calls)

     General routines
     calbec       :    374.61s CPU    378.33s WALL (    1821 calls)
     fft          :      5.36s CPU      5.75s WALL (     765 calls)
     ffts         :      0.12s CPU      0.13s WALL (      98 calls)
     fftw         :    511.94s CPU    519.72s WALL (  837478 calls)
     interpolate  :      0.94s CPU      1.01s WALL (      98 calls)
 
     Parallel routines
     fft_scatt_xy :     64.18s CPU     64.91s WALL (  838341 calls)
     fft_scatt_yz :    124.85s CPU    128.35s WALL (  838341 calls)
 
     PWSCF        : 57m38.26s CPU    59m31.71s WALL

 
   This run was terminated on:   1:15:36   7Mar2019            

=------------------------------------------------------------------------------=
   JOB DONE.
=------------------------------------------------------------------------------=
