
     Program PWSCF v.6.2 (svn rev. 14038) starts on  3Mar2019 at 23:49: 9 

     This program is part of the open-source Quantum ESPRESSO suite
     for quantum simulation of materials; please cite
         "P. Giannozzi et al., J. Phys.:Condens. Matter 21 395502 (2009);
         "P. Giannozzi et al., J. Phys.:Condens. Matter 29 465901 (2017);
          URL http://www.quantum-espresso.org", 
     in publications or presentations arising from this work. More details at
     http://www.quantum-espresso.org/quote

     Parallel version (MPI), running on    16 processors

     MPI processes distributed on     1 nodes
     R & G space division:  proc/nbgrp/npool/nimage =      16
     Waiting for input...
     Reading input from standard input

     Current dimensions of program PWSCF are:
     Max number of different atomic species (ntypx) = 10
     Max number of k-points (npk) =  40000
     Max angular momentum in pseudopotentials (lmaxx) =  3
               file Mn.pbe-spn-kjpaw_psl.0.3.1.UPF: wavefunction(s)  3P 3D renormalized
               file Mn.pbe-spn-kjpaw_psl.0.3.1.UPF: wavefunction(s)  3P 3D renormalized
               file Au.pbe-dn-kjpaw_psl.0.1.UPF: wavefunction(s)  6S 6P 5D renormalized

     Subspace diagonalization in iterative solution of the eigenvalue problem:
     a serial algorithm will be used

     Found symmetry operation: I + (  0.0000 -0.3333  0.0000)
     This is a supercell, fractional translations are disabled
 
     Parallelization info
     --------------------
     sticks:   dense  smooth     PW     G-vecs:    dense   smooth      PW
     Min         736     331     90                52486    15847    2256
     Max         737     332     91                52489    15850    2259
     Sum       11785    5297   1449               839803   253559   36125
 


     bravais-lattice index     =            0
     lattice parameter (alat)  =      19.2459  a.u.
     unit-cell volume          =    6216.1497 (a.u.)^3
     number of atoms/cell      =           54
     number of atomic types    =            3
     number of electrons       =       666.00
     number of Kohn-Sham states=          400
     kinetic-energy cutoff     =      45.0000  Ry
     charge density cutoff     =     400.0000  Ry
     convergence threshold     =      1.0E-06
     mixing beta               =       0.1000
     number of iterations used =            8  plain     mixing
     Exchange-correlation      = SLA PW PBX PBC ( 1  4  3  4 0 0)

     celldm(1)=  19.245946  celldm(2)=   0.000000  celldm(3)=   0.000000
     celldm(4)=   0.000000  celldm(5)=   0.000000  celldm(6)=   0.000000

     crystal axes: (cart. coord. in units of alat)
               a(1) = (   1.000000   0.000000   0.000000 )  
               a(2) = (   0.000000   1.000000   0.000000 )  
               a(3) = (   0.000000   0.000000   0.871974 )  

     reciprocal axes: (cart. coord. in units 2 pi/alat)
               b(1) = (  1.000000  0.000000  0.000000 )  
               b(2) = (  0.000000  1.000000  0.000000 )  
               b(3) = (  0.000000  0.000000  1.146823 )  


     PseudoPot. # 1 for Mn read from file:
     ./pseudo/Mn.pbe-spn-kjpaw_psl.0.3.1.UPF
     MD5 check sum: 7eef95dd2aae66803482eea66ebeebf1
     Pseudo is Projector augmented-wave + core cor, Zval = 15.0
     Generated using "atomic" code by A. Dal Corso v.5.0.99 svn rev. 10869
     Shape of augmentation charge: PSQ
     Using radial grid of 1187 points,  6 beta functions with: 
                l(1) =   0
                l(2) =   0
                l(3) =   1
                l(4) =   1
                l(5) =   2
                l(6) =   2
     Q(r) pseudized with 0 coefficients 


     PseudoPot. # 2 for Mn read from file:
     ./pseudo/Mn.pbe-spn-kjpaw_psl.0.3.1.UPF
     MD5 check sum: 7eef95dd2aae66803482eea66ebeebf1
     Pseudo is Projector augmented-wave + core cor, Zval = 15.0
     Generated using "atomic" code by A. Dal Corso v.5.0.99 svn rev. 10869
     Shape of augmentation charge: PSQ
     Using radial grid of 1187 points,  6 beta functions with: 
                l(1) =   0
                l(2) =   0
                l(3) =   1
                l(4) =   1
                l(5) =   2
                l(6) =   2
     Q(r) pseudized with 0 coefficients 


     PseudoPot. # 3 for Au read from file:
     ./pseudo/Au.pbe-dn-kjpaw_psl.0.1.UPF
     MD5 check sum: 5c9b92683623e7ae2ab3f8e525febab6
     Pseudo is Projector augmented-wave + core cor, Zval = 11.0
     Generated using "atomic" code by A. Dal Corso v.5.0.2 svn rev. 9415
     Shape of augmentation charge: PSQ
     Using radial grid of 1279 points,  6 beta functions with: 
                l(1) =   0
                l(2) =   0
                l(3) =   1
                l(4) =   1
                l(5) =   2
                l(6) =   2
     Q(r) pseudized with 0 coefficients 


     atomic species   valence    mass     pseudopotential
        Mn1           15.00    54.93800     Mn( 1.00)
        Mn2           15.00    54.93800     Mn( 1.00)
        Au            11.00   196.96600     Au( 1.00)

     Starting magnetic structure 
     atomic species   magnetization
        Mn1          0.800
        Mn2         -0.800
        Au           0.000

      4 Sym. Ops. (no inversion) found



   Cartesian axes

     site n.     atom                  positions (alat units)
         1           Mn1 tau(   1) = (   0.0000000   0.0000000   0.0000000  )
         2           Mn1 tau(   2) = (   0.0000000   0.3333300   0.0000000  )
         3           Mn1 tau(   3) = (   0.0000000   0.6666700   0.0000000  )
         4           Mn1 tau(   4) = (   0.3333300   0.0000000   0.0000000  )
         5           Mn1 tau(   5) = (   0.3333300   0.3333300   0.0000000  )
         6           Mn1 tau(   6) = (   0.3333300   0.6666700   0.0000000  )
         7           Mn2 tau(   7) = (   0.6666700   0.0000000   0.0000000  )
         8           Mn2 tau(   8) = (   0.6666700   0.3333300   0.0000000  )
         9           Mn2 tau(   9) = (   0.6666700   0.6666700   0.0000000  )
        10           Mn2 tau(  10) = (   0.1666700   0.1666700   0.4359871  )
        11           Mn2 tau(  11) = (   0.1666700   0.5000000   0.4359871  )
        12           Mn2 tau(  12) = (   0.1666700   0.8333300   0.4359871  )
        13           Mn2 tau(  13) = (   0.5000000   0.1666700   0.4359871  )
        14           Mn2 tau(  14) = (   0.5000000   0.5000000   0.4359871  )
        15           Mn2 tau(  15) = (   0.5000000   0.8333300   0.4359871  )
        16           Mn1 tau(  16) = (   0.8333300   0.1666700   0.4359871  )
        17           Mn1 tau(  17) = (   0.8333300   0.5000000   0.4359871  )
        18           Mn1 tau(  18) = (   0.8333300   0.8333300   0.4359871  )
        19           Au  tau(  19) = (   0.1666700   0.1666700   0.7327374  )
        20           Au  tau(  20) = (   0.1666700   0.5000000   0.7327374  )
        21           Au  tau(  21) = (   0.1666700   0.8333300   0.7327374  )
        22           Au  tau(  22) = (   0.5000000   0.1666700   0.7327374  )
        23           Au  tau(  23) = (   0.5000000   0.5000000   0.7327374  )
        24           Au  tau(  24) = (   0.5000000   0.8333300   0.7327374  )
        25           Au  tau(  25) = (   0.8333300   0.1666700   0.7327374  )
        26           Au  tau(  26) = (   0.8333300   0.5000000   0.7327374  )
        27           Au  tau(  27) = (   0.8333300   0.8333300   0.7327374  )
        28           Au  tau(  28) = (   0.1666700   0.1666700   0.1392369  )
        29           Au  tau(  29) = (   0.1666700   0.5000000   0.1392369  )
        30           Au  tau(  30) = (   0.1666700   0.8333300   0.1392369  )
        31           Au  tau(  31) = (   0.5000000   0.1666700   0.1392369  )
        32           Au  tau(  32) = (   0.5000000   0.5000000   0.1392369  )
        33           Au  tau(  33) = (   0.5000000   0.8333300   0.1392369  )
        34           Au  tau(  34) = (   0.8333300   0.1666700   0.1392369  )
        35           Au  tau(  35) = (   0.8333300   0.5000000   0.1392369  )
        36           Au  tau(  36) = (   0.8333300   0.8333300   0.1392369  )
        37           Au  tau(  37) = (   0.0000000   0.0000000   0.2967503  )
        38           Au  tau(  38) = (   0.0000000   0.3333300   0.2967503  )
        39           Au  tau(  39) = (   0.0000000   0.6666700   0.2967503  )
        40           Au  tau(  40) = (   0.3333300   0.0000000   0.2967503  )
        41           Au  tau(  41) = (   0.3333300   0.3333300   0.2967503  )
        42           Au  tau(  42) = (   0.3333300   0.6666700   0.2967503  )
        43           Au  tau(  43) = (   0.6666700   0.0000000   0.2967503  )
        44           Au  tau(  44) = (   0.6666700   0.3333300   0.2967503  )
        45           Au  tau(  45) = (   0.6666700   0.6666700   0.2967503  )
        46           Au  tau(  46) = (   0.0000000   0.0000000   0.5752240  )
        47           Au  tau(  47) = (   0.0000000   0.3333300   0.5752240  )
        48           Au  tau(  48) = (   0.0000000   0.6666700   0.5752240  )
        49           Au  tau(  49) = (   0.3333300   0.0000000   0.5752240  )
        50           Au  tau(  50) = (   0.3333300   0.3333300   0.5752240  )
        51           Au  tau(  51) = (   0.3333300   0.6666700   0.5752240  )
        52           Au  tau(  52) = (   0.6666700   0.0000000   0.5752240  )
        53           Au  tau(  53) = (   0.6666700   0.3333300   0.5752240  )
        54           Au  tau(  54) = (   0.6666700   0.6666700   0.5752240  )

     number of k points=     8 (tetrahedron method)
                       cart. coord. in units 2pi/alat
        k(    1) = (   0.0000000   0.0000000   0.0000000), wk =   0.1250000
        k(    2) = (   0.0000000   0.0000000  -0.5734114), wk =   0.1250000
        k(    3) = (   0.0000000  -0.5000000   0.0000000), wk =   0.1250000
        k(    4) = (   0.0000000  -0.5000000  -0.5734114), wk =   0.1250000
        k(    5) = (  -0.5000000  -0.5000000   0.0000000), wk =   0.1250000
        k(    6) = (  -0.5000000  -0.5000000  -0.5734114), wk =   0.1250000
        k(    7) = (  -0.5000000   0.0000000   0.0000000), wk =   0.1250000
        k(    8) = (  -0.5000000   0.0000000   0.5734114), wk =   0.1250000

     Dense  grid:   839803 G-vectors     FFT dimensions: ( 125, 125, 108)

     Smooth grid:   253559 G-vectors     FFT dimensions: (  90,  90,  72)

     Estimated max dynamical RAM per process >     570.13 MB

     Estimated total dynamical RAM >       8.91 GB
     Generating pointlists ...
     new r_m :   0.1129 (alat units)  2.1733 (a.u.) for type    1
     new r_m :   0.1129 (alat units)  2.1733 (a.u.) for type    2
     new r_m :   0.1129 (alat units)  2.1733 (a.u.) for type    3

     Check: negative/imaginary core charge=   -0.000006    0.000000

     Initial potential from superposition of free atoms

     starting charge  665.98709, renormalised to  666.00000
     Starting wfc are  504 randomized atomic wfcs
     Checking if some PAW data can be deallocated... 

     total cpu time spent up to now is       56.3 secs

     Self-consistent Calculation

     iteration #  1     ecut=    45.00 Ry     beta= 0.10
     Davidson diagonalization with overlap
     ethr =  1.00E-02,  avg # of iterations =  3.6

     total cpu time spent up to now is      223.9 secs

     total energy              =  -33047.16401810 Ry
     Harris-Foulkes estimate   =  -33044.00721210 Ry
     estimated scf accuracy    <      27.06489333 Ry

     total magnetization       =    -0.01 Bohr mag/cell
     absolute magnetization    =    92.15 Bohr mag/cell

     iteration #  2     ecut=    45.00 Ry     beta= 0.10
     Davidson diagonalization with overlap
     ethr =  4.06E-03,  avg # of iterations =  1.0

     total cpu time spent up to now is      331.5 secs

     total energy              =  -33058.52043691 Ry
     Harris-Foulkes estimate   =  -33047.34268774 Ry
     estimated scf accuracy    <      21.38457054 Ry

     total magnetization       =    -0.00 Bohr mag/cell
     absolute magnetization    =    91.70 Bohr mag/cell

     iteration #  3     ecut=    45.00 Ry     beta= 0.10
     Davidson diagonalization with overlap
     ethr =  3.21E-03,  avg # of iterations =  2.2

     total cpu time spent up to now is      464.8 secs

     total energy              =  -33064.71525877 Ry
     Harris-Foulkes estimate   =  -33061.26825304 Ry
     estimated scf accuracy    <       8.70754556 Ry

     total magnetization       =     0.01 Bohr mag/cell
     absolute magnetization    =    85.63 Bohr mag/cell

     iteration #  4     ecut=    45.00 Ry     beta= 0.10
     Davidson diagonalization with overlap
     ethr =  1.31E-03,  avg # of iterations =  3.9

     total cpu time spent up to now is      630.9 secs

     total energy              =  -33059.99227196 Ry
     Harris-Foulkes estimate   =  -33066.14461605 Ry
     estimated scf accuracy    <      33.89910607 Ry

     total magnetization       =     0.11 Bohr mag/cell
     absolute magnetization    =    77.40 Bohr mag/cell

     iteration #  5     ecut=    45.00 Ry     beta= 0.10
     Davidson diagonalization with overlap
     ethr =  1.31E-03,  avg # of iterations =  4.8

     total cpu time spent up to now is      843.2 secs

     total energy              =  -33062.05839260 Ry
     Harris-Foulkes estimate   =  -33062.48035093 Ry
     estimated scf accuracy    <       2.35322092 Ry

     total magnetization       =    -0.01 Bohr mag/cell
     absolute magnetization    =    83.29 Bohr mag/cell

     iteration #  6     ecut=    45.00 Ry     beta= 0.10
     Davidson diagonalization with overlap
     ethr =  3.53E-04,  avg # of iterations =  4.0

     total cpu time spent up to now is     1028.7 secs

     total energy              =  -33062.69589720 Ry
     Harris-Foulkes estimate   =  -33062.69330680 Ry
     estimated scf accuracy    <       0.88484021 Ry

     total magnetization       =    -0.05 Bohr mag/cell
     absolute magnetization    =    78.34 Bohr mag/cell

     iteration #  7     ecut=    45.00 Ry     beta= 0.10
     Davidson diagonalization with overlap
     ethr =  1.33E-04,  avg # of iterations =  1.2

     total cpu time spent up to now is     1139.7 secs

     total energy              =  -33062.58678546 Ry
     Harris-Foulkes estimate   =  -33062.69993480 Ry
     estimated scf accuracy    <       0.90740657 Ry

     total magnetization       =    -0.05 Bohr mag/cell
     absolute magnetization    =    78.35 Bohr mag/cell

     iteration #  8     ecut=    45.00 Ry     beta= 0.10
     Davidson diagonalization with overlap
     ethr =  1.33E-04,  avg # of iterations =  1.0

     total cpu time spent up to now is     1247.5 secs

     total energy              =  -33062.58146027 Ry
     Harris-Foulkes estimate   =  -33062.61802935 Ry
     estimated scf accuracy    <       0.27035832 Ry

     total magnetization       =    -0.06 Bohr mag/cell
     absolute magnetization    =    79.00 Bohr mag/cell

     iteration #  9     ecut=    45.00 Ry     beta= 0.10
     Davidson diagonalization with overlap
     ethr =  4.06E-05,  avg # of iterations =  2.8

     total cpu time spent up to now is     1385.4 secs

     total energy              =  -33062.59900966 Ry
     Harris-Foulkes estimate   =  -33062.60167727 Ry
     estimated scf accuracy    <       0.05815041 Ry

     total magnetization       =    -0.05 Bohr mag/cell
     absolute magnetization    =    78.89 Bohr mag/cell

     iteration # 10     ecut=    45.00 Ry     beta= 0.10
     Davidson diagonalization with overlap
     ethr =  8.73E-06,  avg # of iterations =  4.4

     total cpu time spent up to now is     1603.1 secs

     total energy              =  -33062.58479672 Ry
     Harris-Foulkes estimate   =  -33062.61866642 Ry
     estimated scf accuracy    <       0.22806222 Ry

     total magnetization       =    -0.06 Bohr mag/cell
     absolute magnetization    =    78.96 Bohr mag/cell

     iteration # 11     ecut=    45.00 Ry     beta= 0.10
     Davidson diagonalization with overlap
     ethr =  8.73E-06,  avg # of iterations =  3.2

     total cpu time spent up to now is     1754.1 secs

     total energy              =  -33062.59930191 Ry
     Harris-Foulkes estimate   =  -33062.59880157 Ry
     estimated scf accuracy    <       0.03787305 Ry

     total magnetization       =    -0.04 Bohr mag/cell
     absolute magnetization    =    79.25 Bohr mag/cell

     iteration # 12     ecut=    45.00 Ry     beta= 0.10
     Davidson diagonalization with overlap
     ethr =  5.69E-06,  avg # of iterations =  1.1

     total cpu time spent up to now is     1862.4 secs

     total energy              =  -33062.60019341 Ry
     Harris-Foulkes estimate   =  -33062.59966379 Ry
     estimated scf accuracy    <       0.02480740 Ry

     total magnetization       =    -0.04 Bohr mag/cell
     absolute magnetization    =    79.19 Bohr mag/cell

     iteration # 13     ecut=    45.00 Ry     beta= 0.10
     Davidson diagonalization with overlap
     ethr =  3.72E-06,  avg # of iterations =  1.1

     total cpu time spent up to now is     1970.7 secs

     total energy              =  -33062.60106451 Ry
     Harris-Foulkes estimate   =  -33062.60072703 Ry
     estimated scf accuracy    <       0.01481960 Ry

     total magnetization       =    -0.04 Bohr mag/cell
     absolute magnetization    =    79.10 Bohr mag/cell

     iteration # 14     ecut=    45.00 Ry     beta= 0.10
     Davidson diagonalization with overlap
     ethr =  2.23E-06,  avg # of iterations =  2.7

     total cpu time spent up to now is     2102.1 secs

     total energy              =  -33062.60166136 Ry
     Harris-Foulkes estimate   =  -33062.60185780 Ry
     estimated scf accuracy    <       0.01113125 Ry

     total magnetization       =    -0.03 Bohr mag/cell
     absolute magnetization    =    78.90 Bohr mag/cell

     iteration # 15     ecut=    45.00 Ry     beta= 0.10
     Davidson diagonalization with overlap
     ethr =  1.67E-06,  avg # of iterations =  1.0

     total cpu time spent up to now is     2210.0 secs

     total energy              =  -33062.59911224 Ry
     Harris-Foulkes estimate   =  -33062.60172579 Ry
     estimated scf accuracy    <       0.00988488 Ry

     total magnetization       =    -0.03 Bohr mag/cell
     absolute magnetization    =    78.89 Bohr mag/cell

     iteration # 16     ecut=    45.00 Ry     beta= 0.10
     Davidson diagonalization with overlap
     ethr =  1.48E-06,  avg # of iterations =  2.4

     total cpu time spent up to now is     2339.6 secs

     total energy              =  -33062.59986278 Ry
     Harris-Foulkes estimate   =  -33062.60009441 Ry
     estimated scf accuracy    <       0.00333009 Ry

     total magnetization       =    -0.02 Bohr mag/cell
     absolute magnetization    =    78.73 Bohr mag/cell

     iteration # 17     ecut=    45.00 Ry     beta= 0.10
     Davidson diagonalization with overlap
     ethr =  5.00E-07,  avg # of iterations =  1.6

     total cpu time spent up to now is     2455.3 secs

     total energy              =  -33062.60028942 Ry
     Harris-Foulkes estimate   =  -33062.60003240 Ry
     estimated scf accuracy    <       0.00133481 Ry

     total magnetization       =    -0.02 Bohr mag/cell
     absolute magnetization    =    78.75 Bohr mag/cell

     iteration # 18     ecut=    45.00 Ry     beta= 0.10
     Davidson diagonalization with overlap
     ethr =  2.00E-07,  avg # of iterations =  2.4

     total cpu time spent up to now is     2581.9 secs

     total energy              =  -33062.60054310 Ry
     Harris-Foulkes estimate   =  -33062.60043702 Ry
     estimated scf accuracy    <       0.00057374 Ry

     total magnetization       =    -0.01 Bohr mag/cell
     absolute magnetization    =    78.78 Bohr mag/cell

     iteration # 19     ecut=    45.00 Ry     beta= 0.10
     Davidson diagonalization with overlap
     ethr =  8.61E-08,  avg # of iterations =  2.9

     total cpu time spent up to now is     2716.3 secs

     total energy              =  -33062.60067303 Ry
     Harris-Foulkes estimate   =  -33062.60059210 Ry
     estimated scf accuracy    <       0.00039121 Ry

     total magnetization       =    -0.01 Bohr mag/cell
     absolute magnetization    =    78.80 Bohr mag/cell

     iteration # 20     ecut=    45.00 Ry     beta= 0.10
     Davidson diagonalization with overlap
     ethr =  5.87E-08,  avg # of iterations =  1.2

     total cpu time spent up to now is     2827.6 secs

     total energy              =  -33062.60078323 Ry
     Harris-Foulkes estimate   =  -33062.60072957 Ry
     estimated scf accuracy    <       0.00014704 Ry

     total magnetization       =    -0.01 Bohr mag/cell
     absolute magnetization    =    78.82 Bohr mag/cell

     iteration # 21     ecut=    45.00 Ry     beta= 0.10
     Davidson diagonalization with overlap
     ethr =  2.21E-08,  avg # of iterations =  3.0

     total cpu time spent up to now is     2963.1 secs

     total energy              =  -33062.60082484 Ry
     Harris-Foulkes estimate   =  -33062.60080021 Ry
     estimated scf accuracy    <       0.00010894 Ry

     total magnetization       =    -0.00 Bohr mag/cell
     absolute magnetization    =    78.83 Bohr mag/cell

     iteration # 22     ecut=    45.00 Ry     beta= 0.10
     Davidson diagonalization with overlap
     ethr =  1.64E-08,  avg # of iterations =  1.3

     total cpu time spent up to now is     3075.0 secs

     total energy              =  -33062.60086074 Ry
     Harris-Foulkes estimate   =  -33062.60084365 Ry
     estimated scf accuracy    <       0.00004714 Ry

     total magnetization       =    -0.00 Bohr mag/cell
     absolute magnetization    =    78.84 Bohr mag/cell

     iteration # 23     ecut=    45.00 Ry     beta= 0.10
     Davidson diagonalization with overlap
     ethr =  7.08E-09,  avg # of iterations =  2.8

     total cpu time spent up to now is     3207.9 secs

     total energy              =  -33062.60087539 Ry
     Harris-Foulkes estimate   =  -33062.60086795 Ry
     estimated scf accuracy    <       0.00002365 Ry

     total magnetization       =    -0.00 Bohr mag/cell
     absolute magnetization    =    78.85 Bohr mag/cell

     iteration # 24     ecut=    45.00 Ry     beta= 0.10
     Davidson diagonalization with overlap
     ethr =  3.55E-09,  avg # of iterations =  2.6

     total cpu time spent up to now is     3338.9 secs

     total energy              =  -33062.60087814 Ry
     Harris-Foulkes estimate   =  -33062.60087417 Ry
     estimated scf accuracy    <       0.00004469 Ry

     total magnetization       =    -0.00 Bohr mag/cell
     absolute magnetization    =    78.85 Bohr mag/cell

     iteration # 25     ecut=    45.00 Ry     beta= 0.10
     Davidson diagonalization with overlap
     ethr =  3.55E-09,  avg # of iterations =  1.0

     total cpu time spent up to now is     3446.9 secs

     total energy              =  -33062.60088614 Ry
     Harris-Foulkes estimate   =  -33062.60088102 Ry
     estimated scf accuracy    <       0.00001699 Ry

     total magnetization       =    -0.00 Bohr mag/cell
     absolute magnetization    =    78.85 Bohr mag/cell

     iteration # 26     ecut=    45.00 Ry     beta= 0.10
     Davidson diagonalization with overlap
     ethr =  2.55E-09,  avg # of iterations =  1.1

     total cpu time spent up to now is     3555.8 secs

     total energy              =  -33062.60089252 Ry
     Harris-Foulkes estimate   =  -33062.60088584 Ry
     estimated scf accuracy    <       0.00001334 Ry

     total magnetization       =    -0.00 Bohr mag/cell
     absolute magnetization    =    78.85 Bohr mag/cell

     iteration # 27     ecut=    45.00 Ry     beta= 0.10
     Davidson diagonalization with overlap
     ethr =  2.00E-09,  avg # of iterations =  2.0

     total cpu time spent up to now is     3677.4 secs

     total energy              =  -33062.60089717 Ry
     Harris-Foulkes estimate   =  -33062.60089320 Ry
     estimated scf accuracy    <       0.00000607 Ry

     total magnetization       =    -0.00 Bohr mag/cell
     absolute magnetization    =    78.86 Bohr mag/cell

     iteration # 28     ecut=    45.00 Ry     beta= 0.10
     Davidson diagonalization with overlap
     ethr =  9.11E-10,  avg # of iterations =  1.8

     total cpu time spent up to now is     3796.3 secs

     total energy              =  -33062.60090221 Ry
     Harris-Foulkes estimate   =  -33062.60089844 Ry
     estimated scf accuracy    <       0.00000494 Ry

     total magnetization       =    -0.00 Bohr mag/cell
     absolute magnetization    =    78.86 Bohr mag/cell

     iteration # 29     ecut=    45.00 Ry     beta= 0.10
     Davidson diagonalization with overlap
     ethr =  7.42E-10,  avg # of iterations =  2.3

     total cpu time spent up to now is     3924.1 secs

     total energy              =  -33062.60090458 Ry
     Harris-Foulkes estimate   =  -33062.60090318 Ry
     estimated scf accuracy    <       0.00001172 Ry

     total magnetization       =    -0.00 Bohr mag/cell
     absolute magnetization    =    78.87 Bohr mag/cell

     iteration # 30     ecut=    45.00 Ry     beta= 0.10
     Davidson diagonalization with overlap
     ethr =  7.42E-10,  avg # of iterations =  1.0

     total cpu time spent up to now is     4032.1 secs

     total energy              =  -33062.60090597 Ry
     Harris-Foulkes estimate   =  -33062.60090545 Ry
     estimated scf accuracy    <       0.00001211 Ry

     total magnetization       =    -0.00 Bohr mag/cell
     absolute magnetization    =    78.87 Bohr mag/cell

     iteration # 31     ecut=    45.00 Ry     beta= 0.10
     Davidson diagonalization with overlap
     ethr =  7.42E-10,  avg # of iterations =  1.0

     total cpu time spent up to now is     4139.7 secs

     total energy              =  -33062.60090530 Ry
     Harris-Foulkes estimate   =  -33062.60090455 Ry
     estimated scf accuracy    <       0.00001120 Ry

     total magnetization       =    -0.00 Bohr mag/cell
     absolute magnetization    =    78.87 Bohr mag/cell

     iteration # 32     ecut=    45.00 Ry     beta= 0.10
     Davidson diagonalization with overlap
     ethr =  7.42E-10,  avg # of iterations =  1.0

     total cpu time spent up to now is     4247.8 secs

     total energy              =  -33062.60090434 Ry
     Harris-Foulkes estimate   =  -33062.60090491 Ry
     estimated scf accuracy    <       0.00001082 Ry

     total magnetization       =    -0.00 Bohr mag/cell
     absolute magnetization    =    78.87 Bohr mag/cell

     iteration # 33     ecut=    45.00 Ry     beta= 0.10
     Davidson diagonalization with overlap
     ethr =  7.42E-10,  avg # of iterations =  1.0

     total cpu time spent up to now is     4355.6 secs

     total energy              =  -33062.60090681 Ry
     Harris-Foulkes estimate   =  -33062.60090417 Ry
     estimated scf accuracy    <       0.00000254 Ry

     total magnetization       =    -0.00 Bohr mag/cell
     absolute magnetization    =    78.86 Bohr mag/cell

     iteration # 34     ecut=    45.00 Ry     beta= 0.10
     Davidson diagonalization with overlap
     ethr =  3.82E-10,  avg # of iterations =  2.0

     total cpu time spent up to now is     4481.8 secs

     total energy              =  -33062.60090841 Ry
     Harris-Foulkes estimate   =  -33062.60090838 Ry
     estimated scf accuracy    <       0.00001799 Ry

     total magnetization       =    -0.00 Bohr mag/cell
     absolute magnetization    =    78.87 Bohr mag/cell

     iteration # 35     ecut=    45.00 Ry     beta= 0.10
     Davidson diagonalization with overlap
     ethr =  3.82E-10,  avg # of iterations =  1.1

     total cpu time spent up to now is     4591.3 secs

     total energy              =  -33062.60090974 Ry
     Harris-Foulkes estimate   =  -33062.60090836 Ry
     estimated scf accuracy    <       0.00001826 Ry

     total magnetization       =    -0.00 Bohr mag/cell
     absolute magnetization    =    78.87 Bohr mag/cell

     iteration # 36     ecut=    45.00 Ry     beta= 0.10
     Davidson diagonalization with overlap
     ethr =  3.82E-10,  avg # of iterations =  1.1

     total cpu time spent up to now is     4700.7 secs

     total energy              =  -33062.60090940 Ry
     Harris-Foulkes estimate   =  -33062.60090893 Ry
     estimated scf accuracy    <       0.00001678 Ry

     total magnetization       =    -0.00 Bohr mag/cell
     absolute magnetization    =    78.87 Bohr mag/cell

     iteration # 37     ecut=    45.00 Ry     beta= 0.10
     Davidson diagonalization with overlap
     ethr =  3.82E-10,  avg # of iterations =  1.0

     total cpu time spent up to now is     4808.4 secs

     total energy              =  -33062.60090839 Ry
     Harris-Foulkes estimate   =  -33062.60090804 Ry
     estimated scf accuracy    <       0.00001457 Ry

     total magnetization       =    -0.00 Bohr mag/cell
     absolute magnetization    =    78.87 Bohr mag/cell

     iteration # 38     ecut=    45.00 Ry     beta= 0.10
     Davidson diagonalization with overlap
     ethr =  3.82E-10,  avg # of iterations =  1.1

     total cpu time spent up to now is     4916.8 secs

     total energy              =  -33062.60090890 Ry
     Harris-Foulkes estimate   =  -33062.60090815 Ry
     estimated scf accuracy    <       0.00001559 Ry

     total magnetization       =    -0.00 Bohr mag/cell
     absolute magnetization    =    78.87 Bohr mag/cell

     iteration # 39     ecut=    45.00 Ry     beta= 0.10
     Davidson diagonalization with overlap
     ethr =  3.82E-10,  avg # of iterations =  1.0

     total cpu time spent up to now is     5025.0 secs

     total energy              =  -33062.60091076 Ry
     Harris-Foulkes estimate   =  -33062.60091043 Ry
     estimated scf accuracy    <       0.00001596 Ry

     total magnetization       =    -0.00 Bohr mag/cell
     absolute magnetization    =    78.87 Bohr mag/cell

     iteration # 40     ecut=    45.00 Ry     beta= 0.10
     Davidson diagonalization with overlap
     ethr =  3.82E-10,  avg # of iterations =  1.0

     total cpu time spent up to now is     5132.9 secs

     total energy              =  -33062.60091026 Ry
     Harris-Foulkes estimate   =  -33062.60091009 Ry
     estimated scf accuracy    <       0.00001663 Ry

     total magnetization       =    -0.00 Bohr mag/cell
     absolute magnetization    =    78.87 Bohr mag/cell

     iteration # 41     ecut=    45.00 Ry     beta= 0.10
     Davidson diagonalization with overlap
     ethr =  3.82E-10,  avg # of iterations =  1.0

     total cpu time spent up to now is     5240.8 secs

     total energy              =  -33062.60091096 Ry
     Harris-Foulkes estimate   =  -33062.60091111 Ry
     estimated scf accuracy    <       0.00001554 Ry

     total magnetization       =    -0.00 Bohr mag/cell
     absolute magnetization    =    78.87 Bohr mag/cell

     iteration # 42     ecut=    45.00 Ry     beta= 0.10
     Davidson diagonalization with overlap
     ethr =  3.82E-10,  avg # of iterations =  1.0

     total cpu time spent up to now is     5348.8 secs

     total energy              =  -33062.60091016 Ry
     Harris-Foulkes estimate   =  -33062.60091169 Ry
     estimated scf accuracy    <       0.00001508 Ry

     total magnetization       =    -0.00 Bohr mag/cell
     absolute magnetization    =    78.87 Bohr mag/cell

     iteration # 43     ecut=    45.00 Ry     beta= 0.10
     Davidson diagonalization with overlap
     ethr =  3.82E-10,  avg # of iterations =  3.3

     total cpu time spent up to now is     5544.1 secs

     total energy              =  -33062.60090881 Ry
     Harris-Foulkes estimate   =  -33062.60091025 Ry
     estimated scf accuracy    <       0.00001622 Ry

     total magnetization       =    -0.00 Bohr mag/cell
     absolute magnetization    =    78.87 Bohr mag/cell

     iteration # 44     ecut=    45.00 Ry     beta= 0.10
     Davidson diagonalization with overlap
     ethr =  3.82E-10,  avg # of iterations =  3.0

     total cpu time spent up to now is     5708.8 secs

     total energy              =  -33062.60091105 Ry
     Harris-Foulkes estimate   =  -33062.60091183 Ry
     estimated scf accuracy    <       0.00001558 Ry

     total magnetization       =    -0.00 Bohr mag/cell
     absolute magnetization    =    78.88 Bohr mag/cell

     iteration # 45     ecut=    45.00 Ry     beta= 0.10
     Davidson diagonalization with overlap
     ethr =  3.82E-10,  avg # of iterations =  2.0

     total cpu time spent up to now is     5830.0 secs

     total energy              =  -33062.60091268 Ry
     Harris-Foulkes estimate   =  -33062.60091220 Ry
     estimated scf accuracy    <       0.00000733 Ry

     total magnetization       =    -0.00 Bohr mag/cell
     absolute magnetization    =    78.88 Bohr mag/cell

     iteration # 46     ecut=    45.00 Ry     beta= 0.10
     Davidson diagonalization with overlap
     ethr =  3.82E-10,  avg # of iterations =  1.3

     total cpu time spent up to now is     5941.9 secs

     total energy              =  -33062.60091161 Ry
     Harris-Foulkes estimate   =  -33062.60091156 Ry
     estimated scf accuracy    <       0.00000482 Ry

     total magnetization       =    -0.00 Bohr mag/cell
     absolute magnetization    =    78.88 Bohr mag/cell

     iteration # 47     ecut=    45.00 Ry     beta= 0.10
     Davidson diagonalization with overlap
     ethr =  3.82E-10,  avg # of iterations =  2.1

     total cpu time spent up to now is     6064.2 secs

     total energy              =  -33062.60090991 Ry
     Harris-Foulkes estimate   =  -33062.60090977 Ry
     estimated scf accuracy    <       0.00000140 Ry

     total magnetization       =     0.00 Bohr mag/cell
     absolute magnetization    =    78.88 Bohr mag/cell

     iteration # 48     ecut=    45.00 Ry     beta= 0.10
     Davidson diagonalization with overlap
     ethr =  2.11E-10,  avg # of iterations =  2.1

     total cpu time spent up to now is     6187.4 secs

     total energy              =  -33062.60090896 Ry
     Harris-Foulkes estimate   =  -33062.60090892 Ry
     estimated scf accuracy    <       0.00000447 Ry

     total magnetization       =     0.00 Bohr mag/cell
     absolute magnetization    =    78.88 Bohr mag/cell

     iteration # 49     ecut=    45.00 Ry     beta= 0.10
     Davidson diagonalization with overlap
     ethr =  2.11E-10,  avg # of iterations =  1.0

     total cpu time spent up to now is     6295.1 secs

     total energy              =  -33062.60090969 Ry
     Harris-Foulkes estimate   =  -33062.60090964 Ry
     estimated scf accuracy    <       0.00000303 Ry

     total magnetization       =     0.00 Bohr mag/cell
     absolute magnetization    =    78.88 Bohr mag/cell

     iteration # 50     ecut=    45.00 Ry     beta= 0.10
     Davidson diagonalization with overlap
     ethr =  2.11E-10,  avg # of iterations =  1.2

     total cpu time spent up to now is     6405.8 secs

     total energy              =  -33062.60091161 Ry
     Harris-Foulkes estimate   =  -33062.60091139 Ry
     estimated scf accuracy    <       0.00000121 Ry

     total magnetization       =     0.00 Bohr mag/cell
     absolute magnetization    =    78.88 Bohr mag/cell

     iteration # 51     ecut=    45.00 Ry     beta= 0.10
     Davidson diagonalization with overlap
     ethr =  1.82E-10,  avg # of iterations =  1.1
 
     Magnetic moment per site:
     atom:    1    charge:   13.5813    magn:    3.9564    constr:    0.0000
     atom:    2    charge:   13.5810    magn:    3.9559    constr:    0.0000
     atom:    3    charge:   13.5810    magn:    3.9559    constr:    0.0000
     atom:    4    charge:   13.5703    magn:    4.0613    constr:    0.0000
     atom:    5    charge:   13.5688    magn:    4.0703    constr:    0.0000
     atom:    6    charge:   13.5688    magn:    4.0703    constr:    0.0000
     atom:    7    charge:   13.5755    magn:   -4.0169    constr:    0.0000
     atom:    8    charge:   13.5763    magn:   -4.0074    constr:    0.0000
     atom:    9    charge:   13.5763    magn:   -4.0074    constr:    0.0000
     atom:   10    charge:   13.5700    magn:   -4.0643    constr:    0.0000
     atom:   11    charge:   13.5681    magn:   -4.0733    constr:    0.0000
     atom:   12    charge:   13.5700    magn:   -4.0643    constr:    0.0000
     atom:   13    charge:   13.5810    magn:   -3.9569    constr:    0.0000
     atom:   14    charge:   13.5808    magn:   -3.9544    constr:    0.0000
     atom:   15    charge:   13.5810    magn:   -3.9569    constr:    0.0000
     atom:   16    charge:   13.5758    magn:    4.0137    constr:    0.0000
     atom:   17    charge:   13.5762    magn:    4.0046    constr:    0.0000
     atom:   18    charge:   13.5758    magn:    4.0137    constr:    0.0000
     atom:   19    charge:    9.1209    magn:    0.0469    constr:    0.0000
     atom:   20    charge:    9.1209    magn:    0.0480    constr:    0.0000
     atom:   21    charge:    9.1209    magn:    0.0469    constr:    0.0000
     atom:   22    charge:    9.1220    magn:   -0.0071    constr:    0.0000
     atom:   23    charge:    9.1218    magn:   -0.0046    constr:    0.0000
     atom:   24    charge:    9.1220    magn:   -0.0071    constr:    0.0000
     atom:   25    charge:    9.1201    magn:    0.0083    constr:    0.0000
     atom:   26    charge:    9.1199    magn:    0.0102    constr:    0.0000
     atom:   27    charge:    9.1201    magn:    0.0083    constr:    0.0000
     atom:   28    charge:    9.1209    magn:    0.0469    constr:    0.0000
     atom:   29    charge:    9.1209    magn:    0.0480    constr:    0.0000
     atom:   30    charge:    9.1209    magn:    0.0469    constr:    0.0000
     atom:   31    charge:    9.1220    magn:   -0.0071    constr:    0.0000
     atom:   32    charge:    9.1218    magn:   -0.0046    constr:    0.0000
     atom:   33    charge:    9.1220    magn:   -0.0071    constr:    0.0000
     atom:   34    charge:    9.1201    magn:    0.0083    constr:    0.0000
     atom:   35    charge:    9.1199    magn:    0.0102    constr:    0.0000
     atom:   36    charge:    9.1201    magn:    0.0083    constr:    0.0000
     atom:   37    charge:    9.1222    magn:    0.0072    constr:    0.0000
     atom:   38    charge:    9.1220    magn:    0.0058    constr:    0.0000
     atom:   39    charge:    9.1220    magn:    0.0058    constr:    0.0000
     atom:   40    charge:    9.1210    magn:   -0.0468    constr:    0.0000
     atom:   41    charge:    9.1208    magn:   -0.0475    constr:    0.0000
     atom:   42    charge:    9.1208    magn:   -0.0475    constr:    0.0000
     atom:   43    charge:    9.1203    magn:   -0.0079    constr:    0.0000
     atom:   44    charge:    9.1199    magn:   -0.0095    constr:    0.0000
     atom:   45    charge:    9.1199    magn:   -0.0095    constr:    0.0000
     atom:   46    charge:    9.1222    magn:    0.0072    constr:    0.0000
     atom:   47    charge:    9.1220    magn:    0.0058    constr:    0.0000
     atom:   48    charge:    9.1220    magn:    0.0058    constr:    0.0000
     atom:   49    charge:    9.1210    magn:   -0.0468    constr:    0.0000
     atom:   50    charge:    9.1208    magn:   -0.0475    constr:    0.0000
     atom:   51    charge:    9.1208    magn:   -0.0475    constr:    0.0000
     atom:   52    charge:    9.1203    magn:   -0.0079    constr:    0.0000
     atom:   53    charge:    9.1199    magn:   -0.0095    constr:    0.0000
     atom:   54    charge:    9.1199    magn:   -0.0095    constr:    0.0000

     total cpu time spent up to now is     6514.6 secs

     End of self-consistent calculation

 ------ SPIN UP ------------


          k = 0.0000 0.0000 0.0000 ( 31747 PWs)   bands (ev):

   -66.7842 -66.7839 -66.7723 -66.6755 -66.6752 -66.6649 -66.6120 -66.6113
   -66.6111 -62.4002 -62.3997 -62.3996 -62.3566 -62.3562 -62.3547 -62.3438
   -62.3435 -62.3415 -35.5409 -35.5405 -35.5371 -35.5370 -35.5323 -35.5156
   -35.5042 -35.5037 -35.4906 -35.4430 -35.4425 -35.4398 -35.4133 -35.4089
   -35.4046 -35.4039 -35.3929 -35.3920 -35.3617 -35.3612 -35.3569 -35.3547
   -35.3543 -35.3531 -35.3523 -35.3517 -35.3511 -31.2372 -31.2370 -31.2263
   -31.2261 -31.2254 -31.2252 -31.2164 -31.2150 -31.2146 -31.1885 -31.1877
   -31.1860 -31.1857 -31.1844 -31.1818 -31.1803 -31.1765 -31.1760 -31.1753
   -31.1744 -31.1744 -31.1739 -31.1739 -31.1696 -31.1514 -31.1507 -31.1495
     5.6143   7.1418   7.1786   7.1793   7.2118   7.3645   7.8639   7.8646
     7.9356   7.9366   8.0635   8.1331   8.1388   8.1392   8.2024   8.2294
     8.2766   8.2770   8.3265   8.5267   8.5279   8.5604   8.5924   8.5931
     8.5985   8.8440   8.8655   8.8779   8.8786   8.8860   8.8867   8.8894
     8.9125   8.9131   8.9153   8.9240   8.9242   8.9485   8.9491   8.9830
     9.0153   9.0846   9.1199   9.1204   9.1319   9.1324   9.1604   9.1697
     9.1698   9.2116   9.2125   9.2704   9.2712   9.3069   9.3072   9.3366
     9.3502   9.3613   9.3617   9.3770   9.3771   9.4126   9.4137   9.4279
     9.4281   9.4471   9.4474   9.4546   9.4579   9.4582   9.5151   9.5599
     9.5789   9.5853   9.5858   9.5909   9.6441   9.6441   9.6700   9.6708
     9.6759   9.6760   9.7038   9.7449   9.7454   9.7974   9.7978   9.8503
     9.8514   9.8982   9.9253   9.9254   9.9565   9.9691  10.0331  10.0479
    10.1117  10.1135  10.1366  10.1370  10.2947  10.2957  10.2965  10.2974
    10.3023  10.3028  10.3031  10.3082  10.3087  10.3161  10.3163  10.3478
    10.3533  10.3542  10.3577  10.3595  10.3602  10.3654  10.3848  10.3971
    10.3976  10.5212  10.5215  10.5844  10.6132  10.6139  10.6210  10.6217
    10.7344  10.7368  10.7861  10.7878  10.8257  10.8260  10.8291  10.8474
    10.8482  10.8501  10.8616  10.8624  10.8776  10.8840  10.8852  10.8858
    10.9152  10.9153  10.9927  11.0560  11.0563  11.1171  11.2198  11.2245
    11.2254  11.2274  11.2633  11.3163  11.3169  11.3403  11.3407  11.3505
    11.3572  11.3582  11.3762  11.3769  11.3943  11.3948  11.4034  11.4126
    11.4197  11.4679  11.4708  11.5376  11.5926  11.5933  11.5965  11.5972
    11.6601  11.6604  11.7244  11.7378  11.7379  11.7551  11.7813  11.8320
    11.8329  11.8716  11.8745  11.8752  11.9024  11.9365  11.9378  11.9480
    11.9852  11.9870  12.0623  12.1015  12.1043  12.1046  12.1052  12.1449
    12.1451  12.1495  12.1497  12.1641  12.1653  12.1744  12.1800  12.2034
    12.2422  12.2471  12.2479  12.3242  12.3254  12.3522  12.4116  12.4118
    12.4300  12.4354  12.4430  12.4483  12.4900  12.4913  12.4997  12.5199
    12.5241  12.5300  12.5321  12.5653  12.5663  12.5853  12.5863  12.6504
    12.6949  12.6972  12.7578  12.7629  12.7633  12.8014  13.0874  13.1216
    13.1220  13.1760  13.2286  13.3769  13.3771  13.3798  13.7246  13.7257
    13.9357  13.9360  14.2231  14.2920  14.3191  14.3204  14.4498  14.4552
    14.7411  14.7417  14.9512  14.9548  15.1556  15.1621  15.1637  15.1884
    15.1908  15.2659  15.2682  15.4488  15.4496  15.4818  15.4830  15.6124
    15.6938  15.6949  15.7086  15.7935  15.7953  15.8396  15.8733  15.9476
    16.0127  16.0658  16.1098  16.1121  16.1435  16.1438  16.1786  16.1802
    16.2901  16.3093  16.3109  16.3443  16.3475  16.3574  16.3856  16.3868
    16.4445  16.4480  16.4506  16.5208  16.5216  16.7240  16.7256  16.9620
    16.9641  17.0251  17.0616  17.1332  17.2338  17.2355  17.2572  17.4031
    17.4054  17.5740  17.8899  17.9129  17.9144  17.9534  17.9545  18.2016
    18.2029  18.3408  18.3432  18.9279  19.0692  19.0723  19.0880  19.0891

          k = 0.0000 0.0000-0.5734 ( 31692 PWs)   bands (ev):

   -66.7842 -66.7839 -66.7723 -66.6755 -66.6752 -66.6649 -66.6120 -66.6113
   -66.6111 -62.4002 -62.3997 -62.3996 -62.3566 -62.3562 -62.3547 -62.3438
   -62.3435 -62.3415 -35.5409 -35.5405 -35.5371 -35.5370 -35.5323 -35.5156
   -35.5042 -35.5037 -35.4906 -35.4430 -35.4425 -35.4398 -35.4133 -35.4089
   -35.4046 -35.4039 -35.3929 -35.3920 -35.3617 -35.3612 -35.3569 -35.3547
   -35.3543 -35.3531 -35.3523 -35.3517 -35.3511 -31.2372 -31.2370 -31.2263
   -31.2261 -31.2254 -31.2252 -31.2164 -31.2150 -31.2146 -31.1885 -31.1877
   -31.1860 -31.1857 -31.1844 -31.1818 -31.1803 -31.1765 -31.1760 -31.1753
   -31.1744 -31.1744 -31.1739 -31.1739 -31.1696 -31.1514 -31.1507 -31.1495
     6.1538   6.2133   7.5344   7.5618   7.5620   7.5743   7.5959   7.5992
     7.6001   7.6335   8.3141   8.3146   8.3451   8.3460   8.3471   8.3473
     8.3941   8.3956   8.4513   8.4570   8.4846   8.4856   8.4945   8.4948
     8.5084   8.5101   8.6939   8.7183   8.7442   8.7974   8.9463   8.9474
     8.9662   8.9672   8.9878   8.9881   8.9955   8.9965   9.0059   9.0064
     9.0368   9.0370   9.0449   9.0457   9.0996   9.0998   9.1732   9.2148
     9.2159   9.2160   9.2560   9.2566   9.2660   9.2686   9.2688   9.2906
     9.2913   9.2983   9.2989   9.3047   9.3053   9.3285   9.4067   9.4086
     9.4105   9.4422   9.4436   9.4489   9.4490   9.4594   9.4612   9.4621
     9.4666   9.4683   9.5139   9.5142   9.5149   9.5747   9.6262   9.7066
     9.7932   9.7966   9.7978   9.7991   9.8068   9.8214   9.8215   9.8434
     9.8771   9.8779   9.8805   9.8808   9.8887   9.8889   9.8904   9.8909
    10.0565  10.0590  10.0656  10.0662  10.1333  10.1336  10.1538  10.1692
    10.1703  10.1860  10.1862  10.2050  10.2147  10.2152  10.3578  10.3592
    10.3721  10.3723  10.4040  10.4044  10.4131  10.4137  10.4513  10.5251
    10.5985  10.6068  10.6074  10.6148  10.6243  10.6256  10.6697  10.6705
    10.6855  10.6887  10.7138  10.7140  10.7625  10.7627  10.8159  10.8176
    10.9772  10.9782  10.9985  11.0181  11.0435  11.0439  11.0728  11.0804
    11.0809  11.1166  11.1289  11.1300  11.1592  11.1594  11.1608  11.1608
    11.1798  11.2401  11.2491  11.2516  11.2626  11.2628  11.2634  11.2670
    11.2674  11.2699  11.2718  11.2854  11.2862  11.2931  11.2941  11.3051
    11.3055  11.3129  11.3242  11.3297  11.5540  11.6218  11.7096  11.7104
    11.7165  11.7174  11.7184  11.7205  11.7245  11.7264  11.7365  11.7374
    11.7696  11.7711  11.7964  11.7976  11.8042  11.8139  11.8459  11.8617
    11.9729  12.0011  12.0027  12.0154  12.0156  12.0169  12.0177  12.0891
    12.1552  12.1553  12.2257  12.2774  12.2796  12.2895  12.2917  12.3713
    12.3874  12.3883  12.4028  12.4180  12.4195  12.4635  12.4672  12.4773
    12.4968  12.5097  12.5126  12.5129  12.5522  12.5814  12.5815  12.5823
    12.5828  12.7487  12.7491  12.7532  12.8382  12.8408  12.9528  12.9847
    12.9857  13.0712  13.0717  13.1101  13.1184  13.1189  13.1266  13.1424
    13.2080  13.2306  13.2559  13.2708  13.2718  13.4784  13.7345  13.7360
    13.8932  13.8943  14.0263  14.1527  14.1542  14.1549  14.1637  14.4965
    14.4994  14.8682  14.9060  14.9092  14.9449  14.9523  14.9540  15.1423
    15.2181  15.2193  15.2262  15.2472  15.2493  15.4407  15.4423  15.6448
    15.6467  15.7621  15.7699  15.7714  15.7808  15.7821  15.7982  16.0554
    16.0584  16.0797  16.1347  16.1460  16.2010  16.2060  16.2073  16.2380
    16.2406  16.2420  16.2543  16.2569  16.2788  16.2829  16.2842  16.3114
    16.3327  16.3481  16.4533  16.5968  16.5992  16.6768  16.7373  16.7396
    16.8398  16.9755  17.2676  17.2693  17.3592  17.3615  17.5004  17.5017
    17.5245  17.5258  17.6933  17.6950  17.7481  17.7499  17.8851  17.8871
    17.9118  17.9132  18.1575  18.1590  18.2539  18.2548  18.3401  18.3419

          k = 0.0000-0.5000 0.0000 ( 31722 PWs)   bands (ev):

   -66.7842 -66.7839 -66.7723 -66.6755 -66.6752 -66.6649 -66.6120 -66.6114
   -66.6110 -62.4001 -62.3999 -62.3995 -62.3565 -62.3562 -62.3547 -62.3438
   -62.3435 -62.3415 -35.5409 -35.5405 -35.5378 -35.5370 -35.5313 -35.5159
   -35.5042 -35.5037 -35.4906 -35.4430 -35.4426 -35.4398 -35.4141 -35.4079
   -35.4046 -35.4037 -35.3932 -35.3920 -35.3644 -35.3569 -35.3561 -35.3554
   -35.3547 -35.3542 -35.3522 -35.3519 -35.3512 -31.2408 -31.2299 -31.2296
   -31.2260 -31.2259 -31.2250 -31.2164 -31.2152 -31.2145 -31.1889 -31.1883
   -31.1879 -31.1859 -31.1847 -31.1784 -31.1769 -31.1766 -31.1763 -31.1750
   -31.1750 -31.1741 -31.1741 -31.1738 -31.1725 -31.1513 -31.1509 -31.1495
     6.0421   6.0429   7.4102   7.4108   7.4813   7.4823   7.6758   7.6767
     8.1065   8.1211   8.1714   8.1733   8.1735   8.2018   8.2529   8.2908
     8.3894   8.3899   8.4887   8.4894   8.6150   8.6202   8.6213   8.6622
     8.6631   8.6759   8.7063   8.7071   8.7677   8.8152   8.8158   8.8359
     8.8364   8.8470   8.8848   8.8852   8.9056   8.9071   8.9077   8.9210
     8.9372   8.9422   8.9495   8.9498   9.0517   9.0523   9.1600   9.1610
     9.1909   9.2096   9.2240   9.2248   9.2256   9.2355   9.3162   9.3167
     9.3468   9.3864   9.4030   9.4036   9.4744   9.4751   9.4778   9.4787
     9.5448   9.5450   9.5571   9.5742   9.5749   9.6046   9.6049   9.6096
     9.6204   9.6271   9.6324   9.6363   9.6420   9.6451   9.6508   9.6516
     9.6572   9.6589   9.6679   9.6681   9.7010   9.7010   9.7161   9.7169
     9.7612   9.7619   9.7661   9.7666   9.9003   9.9010   9.9093   9.9806
    10.0261  10.0266  10.1813  10.1817  10.2150  10.2151  10.2470  10.2493
    10.2757  10.2764  10.2790  10.2858  10.2863  10.2873  10.3507  10.3513
    10.3828  10.3834  10.3871  10.3876  10.4365  10.4367  10.4380  10.4748
    10.4749  10.5066  10.5067  10.5409  10.5411  10.5655  10.5858  10.5866
    10.6668  10.6672  10.6942  10.7011  10.7014  10.7347  10.7354  10.7852
    10.8084  10.8087  10.8438  10.8439  10.8741  10.8744  10.8927  10.8933
    10.9268  10.9643  11.0018  11.0298  11.0724  11.1092  11.1745  11.1910
    11.2695  11.3390  11.3458  11.3556  11.3639  11.3646  11.4122  11.4132
    11.4636  11.4636  11.4686  11.4935  11.4937  11.5380  11.5385  11.5783
    11.5784  11.5858  11.5968  11.6110  11.6114  11.6524  11.6529  11.7495
    11.7504  11.8074  11.8075  11.8393  11.8428  11.8586  11.8614  11.8620
    11.8752  11.8757  11.8914  11.8972  11.8974  11.9027  11.9647  11.9651
    11.9767  12.0059  12.0127  12.0199  12.0780  12.1319  12.1338  12.1386
    12.1598  12.2136  12.2137  12.2434  12.2450  12.2474  12.2550  12.2551
    12.2633  12.2947  12.2956  12.3626  12.3896  12.3924  12.4321  12.4323
    12.4441  12.4614  12.4629  12.4638  12.4859  12.5387  12.5399  12.5635
    12.5651  12.5758  12.6028  12.6943  12.7027  12.7048  12.7589  12.7767
    12.7768  12.8475  12.9069  12.9077  12.9691  12.9707  13.1325  13.1577
    13.1590  13.2049  13.2064  13.2310  13.2616  13.2976  13.2977  13.3754
    13.4483  13.4497  13.5315  13.5664  13.7129  14.1321  14.4916  14.5238
    14.6518  14.7462  14.7467  14.8313  14.8318  15.0737  15.0739  15.1099
    15.1104  15.1201  15.1379  15.1931  15.3785  15.3787  15.5379  15.5380
    15.7141  15.7147  15.7776  15.7781  15.8524  15.8534  15.9387  15.9680
    15.9684  16.0334  16.0338  16.0561  16.0739  16.1036  16.1506  16.1511
    16.1551  16.1557  16.2242  16.2457  16.2487  16.3184  16.3196  16.3214
    16.3901  16.3908  16.7132  16.7271  16.7275  16.7871  16.9611  16.9892
    17.1038  17.2781  17.3167  17.3197  17.5568  17.6000  17.6002  17.6007
    17.7373  17.7383  17.7437  17.7440  17.8813  17.8816  17.9100  17.9102
    18.0305  18.0309  18.1552  18.1552  19.2928  19.3434  19.3448  19.3599

          k = 0.0000-0.5000-0.5734 ( 31696 PWs)   bands (ev):

   -66.7842 -66.7839 -66.7723 -66.6755 -66.6752 -66.6649 -66.6120 -66.6114
   -66.6110 -62.4001 -62.3999 -62.3995 -62.3565 -62.3562 -62.3547 -62.3438
   -62.3435 -62.3415 -35.5409 -35.5405 -35.5378 -35.5370 -35.5313 -35.5159
   -35.5042 -35.5037 -35.4906 -35.4430 -35.4426 -35.4398 -35.4141 -35.4079
   -35.4046 -35.4037 -35.3932 -35.3920 -35.3644 -35.3569 -35.3561 -35.3554
   -35.3547 -35.3542 -35.3522 -35.3519 -35.3512 -31.2408 -31.2299 -31.2296
   -31.2260 -31.2259 -31.2250 -31.2164 -31.2152 -31.2145 -31.1889 -31.1883
   -31.1879 -31.1859 -31.1847 -31.1784 -31.1769 -31.1766 -31.1763 -31.1750
   -31.1750 -31.1741 -31.1741 -31.1738 -31.1725 -31.1513 -31.1509 -31.1495
     6.5538   6.5544   6.6098   6.6109   7.8385   7.8387   7.8833   7.8844
     7.8983   7.8992   7.9437   7.9446   8.2681   8.2786   8.2939   8.3033
     8.5027   8.5199   8.5419   8.5442   8.6358   8.6733   8.6733   8.6830
     8.6845   8.6982   8.7151   8.7153   8.7210   8.7223   8.7565   8.7568
     8.7624   8.7632   8.7704   8.8442   8.9723   8.9728   9.0251   9.0262
     9.0299   9.0432   9.0510   9.0775   9.2035   9.2048   9.2066   9.2118
     9.2121   9.2200   9.2204   9.2221   9.2223   9.2619   9.2621   9.2708
     9.2709   9.2824   9.2947   9.3080   9.3086   9.3154   9.3816   9.3816
     9.4245   9.4251   9.4585   9.4588   9.4598   9.4695   9.4907   9.4909
     9.5014   9.5015   9.5056   9.5057   9.5074   9.5427   9.5430   9.5521
     9.5524   9.5813   9.7546   9.7618   9.7759   9.7763   9.8186   9.8190
     9.8376   9.8377   9.8523   9.8529   9.8563   9.8564   9.8946   9.8948
     9.9841   9.9853   9.9855  10.0076  10.0095  10.0104  10.0600  10.0718
    10.3559  10.4024  10.4026  10.4057  10.4060  10.4279  10.4281  10.4579
    10.4668  10.4672  10.4724  10.4840  10.4873  10.4894  10.4896  10.4929
    10.5234  10.5246  10.5612  10.5862  10.6008  10.6009  10.6149  10.6152
    10.6595  10.6597  10.6672  10.6676  10.6993  10.7042  10.7047  10.7316
    10.7319  10.8071  10.8415  10.8757  10.9478  10.9681  11.0824  11.1088
    11.1090  11.1287  11.1293  11.1438  11.1647  11.1650  11.2010  11.2021
    11.2103  11.2142  11.2557  11.3620  11.3623  11.3711  11.3725  11.3756
    11.3756  11.3903  11.3908  11.3917  11.4836  11.4836  11.4894  11.5110
    11.5111  11.5267  11.5802  11.5808  11.5985  11.5985  11.6160  11.6395
    11.6401  11.6442  11.6442  11.7085  11.7534  11.8020  11.8188  11.8883
    11.8913  11.8913  11.9145  11.9384  11.9682  11.9683  11.9818  11.9819
    12.0374  12.0381  12.0383  12.0391  12.0766  12.0766  12.1254  12.1492
    12.1790  12.1807  12.1808  12.1971  12.2392  12.2402  12.2769  12.4029
    12.4106  12.4107  12.4155  12.4184  12.4368  12.4381  12.4418  12.4853
    12.4893  12.5040  12.5051  12.5235  12.5236  12.5641  12.6199  12.6317
    12.6321  12.6363  12.6390  12.6430  12.6559  12.7200  12.7737  12.7772
    12.7816  12.8126  12.8127  12.9050  12.9053  12.9259  12.9510  13.0489
    13.0875  13.0900  13.3382  13.3389  13.4255  13.5248  13.8133  13.8143
    13.9429  14.1412  14.1416  14.2729  14.2736  14.2836  14.3157  14.4095
    14.4256  14.4282  14.5348  14.5747  14.6787  14.6808  14.8255  14.8971
    14.9174  15.2818  15.2821  15.2902  15.2913  15.3925  15.3928  15.5738
    15.5744  15.8370  15.8381  15.8541  15.8885  15.8961  15.8970  15.9021
    15.9981  16.0003  16.0134  16.0154  16.1104  16.1377  16.1743  16.2097
    16.2101  16.2705  16.2718  16.2850  16.2973  16.3049  16.3071  16.4058
    16.4064  16.5338  16.5352  16.6278  16.6812  16.7455  16.7456  16.8204
    16.8268  16.8281  16.9460  16.9466  16.9670  16.9847  17.0077  17.0086
    17.0740  17.0748  17.2349  17.2355  18.5457  18.5926  18.6352  18.6598
    18.7712  18.8479  18.8483  18.8584  18.8904  18.9178  18.9183  18.9423

          k =-0.5000-0.5000 0.0000 ( 31612 PWs)   bands (ev):

   -66.7842 -66.7839 -66.7723 -66.6755 -66.6752 -66.6649 -66.6120 -66.6114
   -66.6110 -62.4001 -62.3999 -62.3995 -62.3565 -62.3562 -62.3547 -62.3438
   -62.3435 -62.3415 -35.5409 -35.5405 -35.5378 -35.5370 -35.5313 -35.5159
   -35.5042 -35.5037 -35.4906 -35.4430 -35.4426 -35.4398 -35.4141 -35.4079
   -35.4046 -35.4037 -35.3932 -35.3920 -35.3644 -35.3569 -35.3561 -35.3554
   -35.3547 -35.3542 -35.3522 -35.3519 -35.3512 -31.2408 -31.2299 -31.2296
   -31.2260 -31.2259 -31.2250 -31.2164 -31.2152 -31.2145 -31.1889 -31.1883
   -31.1879 -31.1859 -31.1847 -31.1784 -31.1769 -31.1766 -31.1763 -31.1750
   -31.1750 -31.1741 -31.1741 -31.1738 -31.1725 -31.1513 -31.1509 -31.1495
     6.4143   6.4150   6.4645   6.4654   8.0118   8.0130   8.0208   8.0215
     8.0898   8.1219   8.3045   8.3051   8.3224   8.3402   8.3409   8.3442
     8.3463   8.3472   8.3616   8.3630   8.3793   8.3793   8.5530   8.6342
     8.6449   8.6450   8.6998   8.7010   8.7016   8.7164   8.7173   8.7505
     8.7844   8.7851   8.8979   8.9499   8.9544   8.9555   8.9769   8.9788
     8.9856   8.9861   9.0110   9.0116   9.0220   9.0258   9.0264   9.0740
     9.1107   9.1354   9.3121   9.3130   9.3188   9.3193   9.4061   9.4061
     9.4087   9.4141   9.4272   9.4272   9.4436   9.4440   9.4536   9.4539
     9.4549   9.4599   9.4749   9.4754   9.4917   9.4928   9.4931   9.5053
     9.5065   9.5097   9.5100   9.5189   9.5528   9.5768   9.5774   9.5812
     9.6099   9.6103   9.6997   9.7020   9.7793   9.7799   9.8327   9.8330
     9.8330   9.8358   9.8383   9.8393   9.8664   9.8666  10.0494  10.0504
    10.0912  10.0945  10.1103  10.1111  10.1442  10.1501  10.1504  10.1673
    10.1753  10.1757  10.2119  10.2121  10.2195  10.2284  10.2285  10.2315
    10.2317  10.2373  10.2378  10.2728  10.4679  10.4681  10.4938  10.4943
    10.4989  10.4992  10.5374  10.5378  10.6314  10.6322  10.6486  10.6489
    10.6628  10.6634  10.6807  10.6858  10.6861  10.6884  10.6965  10.6987
    10.6990  10.7003  10.7667  10.8188  10.8189  10.8736  10.8743  10.8992
    10.9117  10.9609  11.2010  11.2013  11.2217  11.2221  11.2921  11.3186
    11.3200  11.3396  11.3655  11.3657  11.3849  11.4156  11.5591  11.5605
    11.5692  11.5701  11.6192  11.6425  11.6437  11.6442  11.6488  11.6492
    11.6533  11.7238  11.7359  11.7397  11.7401  11.7504  11.7510  11.7679
    11.8781  11.8781  11.8798  11.8799  11.8845  11.8894  11.9400  11.9404
    11.9852  12.0686  12.0699  12.1001  12.1069  12.1070  12.1116  12.1118
    12.1132  12.1172  12.1234  12.1305  12.1336  12.1349  12.1736  12.1744
    12.1924  12.2024  12.2367  12.2371  12.2407  12.2715  12.2769  12.2777
    12.2905  12.2925  12.2933  12.2937  12.3039  12.3042  12.3072  12.3088
    12.3290  12.3302  12.3788  12.3818  12.4638  12.4657  12.4923  12.5635
    12.5714  12.5718  12.5889  12.5897  12.6019  12.6038  12.6586  12.6721
    12.6789  12.6977  12.7447  12.7482  12.8620  12.9183  12.9200  12.9757
    12.9759  12.9869  12.9870  13.0057  13.0071  13.4944  13.5743  13.5775
    13.6422  13.6633  13.6819  13.8768  14.0283  14.0299  14.0873  14.0883
    14.2375  14.2391  14.3883  14.4444  14.4833  14.4847  14.9239  15.1952
    15.1956  15.2395  15.2398  15.2415  15.4867  15.4977  15.4985  15.7743
    15.7746  15.7829  15.7837  15.8024  15.8048  15.9257  15.9659  15.9671
    15.9673  15.9682  16.0058  16.0064  16.0092  16.0096  16.0517  16.0981
    16.0990  16.1280  16.1876  16.2747  16.2763  16.2785  16.4296  16.4950
    16.4968  16.5506  16.5514  16.6633  16.6643  16.7065  16.7068  16.7684
    16.7972  16.9039  16.9452  17.0136  17.3843  17.3940  17.6897  18.0791
    18.1888  18.1894  18.2431  18.2437  18.2947  18.2955  18.5297  18.5297
    18.6328  18.6328  18.6644  18.6644  18.7845  18.7890  18.7898  18.7902

          k =-0.5000-0.5000-0.5734 ( 31672 PWs)   bands (ev):

   -66.7842 -66.7839 -66.7723 -66.6755 -66.6752 -66.6649 -66.6120 -66.6114
   -66.6110 -62.4001 -62.3999 -62.3995 -62.3565 -62.3562 -62.3547 -62.3438
   -62.3435 -62.3415 -35.5409 -35.5405 -35.5378 -35.5370 -35.5313 -35.5159
   -35.5042 -35.5037 -35.4906 -35.4430 -35.4426 -35.4398 -35.4141 -35.4079
   -35.4046 -35.4037 -35.3932 -35.3920 -35.3644 -35.3569 -35.3561 -35.3554
   -35.3547 -35.3542 -35.3522 -35.3519 -35.3512 -31.2408 -31.2299 -31.2296
   -31.2260 -31.2259 -31.2250 -31.2164 -31.2152 -31.2145 -31.1889 -31.1883
   -31.1879 -31.1859 -31.1847 -31.1784 -31.1769 -31.1766 -31.1763 -31.1750
   -31.1750 -31.1741 -31.1741 -31.1738 -31.1725 -31.1513 -31.1509 -31.1495
     6.8823   6.8828   6.9435   6.9450   7.0001   7.0007   7.0485   7.0493
     8.4385   8.4664   8.4825   8.4827   8.4832   8.4883   8.4957   8.4966
     8.5015   8.5032   8.5047   8.5246   8.5279   8.5437   8.5439   8.5618
     8.5634   8.5834   8.5935   8.6275   8.8845   8.8847   8.8856   8.8865
     8.9113   8.9115   8.9325   8.9333   9.0862   9.0866   9.1244   9.1244
     9.1267   9.1275   9.1406   9.1558   9.1561   9.1599   9.1637   9.1643
     9.1697   9.1731   9.1735   9.1785   9.1786   9.1787   9.1789   9.1796
     9.1797   9.1948   9.1949   9.2013   9.2018   9.2019   9.2072   9.2140
     9.2375   9.2375   9.2382   9.2383   9.2419   9.2706   9.2713   9.2743
     9.5464   9.5614   9.5617   9.5619   9.5855   9.5860   9.5987   9.6289
     9.6412   9.6420   9.6869   9.6879   9.7181   9.7182   9.7874   9.7875
     9.8173   9.8176   9.8617   9.8625   9.8770   9.8773   9.8944   9.8953
    10.0904  10.1309  10.1495  10.1495  10.1756  10.1788  10.1795  10.2040
    10.2797  10.3233  10.4355  10.4629  10.4725  10.4731  10.4733  10.4810
    10.4812  10.4869  10.4871  10.5043  10.5045  10.5154  10.5157  10.5311
    10.5356  10.5358  10.5424  10.5424  10.5439  10.5664  10.5669  10.6171
    10.6208  10.6307  10.6308  10.6527  10.6529  10.6542  10.6548  10.6812
    10.6814  10.6915  10.7038  10.7067  10.7144  10.7199  11.0568  11.0570
    11.0703  11.0707  11.0928  11.0929  11.1038  11.1041  11.3743  11.3773
    11.4009  11.4043  11.4054  11.4206  11.4207  11.4597  11.4770  11.4772
    11.4912  11.4916  11.4971  11.4976  11.5228  11.5229  11.6417  11.6537
    11.6569  11.6573  11.6591  11.6601  11.6909  11.7096  11.7099  11.7183
    11.7191  11.7230  11.7262  11.7352  11.7481  11.7621  11.7849  11.7851
    11.8066  11.8066  11.8273  11.8378  11.8424  11.9044  11.9660  11.9667
    11.9843  12.0345  12.0346  12.1028  12.1031  12.1050  12.1175  12.1787
    12.1789  12.1952  12.2651  12.2654  12.2741  12.2756  12.2891  12.2928
    12.3078  12.3081  12.3690  12.3698  12.4171  12.4206  12.4696  12.4722
    12.4795  12.5403  12.5410  12.5560  12.5568  12.5723  12.5788  12.6574
    12.6595  12.6921  12.6970  12.6994  12.7202  12.7230  12.7564  12.8246
    12.8254  12.9747  12.9783  12.9979  13.0729  13.0762  13.0763  13.1021
    13.2039  13.2923  13.3124  13.3125  13.3356  13.3367  13.4818  13.4824
    13.6681  13.7135  13.7151  13.8625  13.9806  13.9819  14.0046  14.0052
    14.0894  14.2221  14.2229  14.5815  14.8272  14.8458  15.0561  15.0645
    15.0647  15.1423  15.1427  15.3232  15.4149  15.6640  15.6645  15.7134
    15.7153  15.7925  15.8740  15.8747  15.9031  15.9031  15.9286  16.0201
    16.0320  16.0328  16.0360  16.0452  16.1155  16.1183  16.1248  16.1991
    16.2002  16.2318  16.2346  16.2540  16.2556  16.2575  16.2594  16.4397
    16.5728  16.5741  16.6089  16.6095  16.6199  16.6905  16.6919  16.7577
    16.7581  16.8575  16.8933  16.8937  16.9007  16.9952  16.9955  17.0089
    17.1231  17.1357  17.6093  17.7569  17.9092  17.9800  19.0301  19.0369
    19.0372  19.0513  19.0800  19.0808  19.1651  19.1658  19.3231  19.3684

          k =-0.5000 0.0000 0.0000 ( 31722 PWs)   bands (ev):

   -66.7842 -66.7839 -66.7723 -66.6755 -66.6752 -66.6649 -66.6120 -66.6113
   -66.6111 -62.4002 -62.3997 -62.3996 -62.3566 -62.3562 -62.3547 -62.3438
   -62.3435 -62.3415 -35.5409 -35.5405 -35.5371 -35.5370 -35.5323 -35.5156
   -35.5042 -35.5037 -35.4906 -35.4430 -35.4425 -35.4398 -35.4133 -35.4089
   -35.4046 -35.4039 -35.3929 -35.3920 -35.3617 -35.3612 -35.3569 -35.3547
   -35.3543 -35.3531 -35.3523 -35.3517 -35.3511 -31.2372 -31.2370 -31.2263
   -31.2261 -31.2254 -31.2252 -31.2164 -31.2150 -31.2146 -31.1885 -31.1877
   -31.1860 -31.1857 -31.1844 -31.1818 -31.1803 -31.1765 -31.1760 -31.1753
   -31.1744 -31.1744 -31.1739 -31.1739 -31.1696 -31.1514 -31.1507 -31.1495
     6.0163   6.0681   7.4274   7.4282   7.4667   7.4675   7.6680   7.6825
     8.0979   8.1111   8.1349   8.2119   8.2134   8.2135   8.2471   8.2472
     8.4121   8.4124   8.4607   8.4609   8.6144   8.6397   8.6420   8.6423
     8.6802   8.6806   8.6807   8.7061   8.7519   8.7848   8.8314   8.8325
     8.8521   8.8773   8.8779   8.8961   8.8965   8.9188   8.9193   8.9278
     8.9280   8.9342   8.9346   8.9351   9.0459   9.0566   9.1716   9.1725
     9.1979   9.1989   9.2182   9.2187   9.2373   9.2376   9.3346   9.3463
     9.3476   9.3769   9.3808   9.3821   9.4762   9.4896   9.5023   9.5027
     9.5314   9.5348   9.5351   9.5499   9.6049   9.6051   9.6073   9.6151
     9.6161   9.6226   9.6287   9.6297   9.6350   9.6377   9.6378   9.6480
     9.6482   9.6755   9.6760   9.6775   9.7004   9.7007   9.7273   9.7274
     9.7590   9.7598   9.7610   9.7610   9.8950   9.9099   9.9309   9.9948
    10.0041  10.0599  10.1339  10.1934  10.2199  10.2452  10.2533  10.2534
    10.2599  10.2612  10.2639  10.2646  10.2866  10.2875  10.3503  10.3511
    10.3607  10.3617  10.3791  10.3853  10.4329  10.4345  10.4562  10.4566
    10.5205  10.5208  10.5431  10.5435  10.5686  10.5687  10.5811  10.5983
    10.6164  10.6166  10.6476  10.7077  10.7079  10.7204  10.7672  10.7673
    10.7774  10.8104  10.8192  10.8579  10.8757  10.8769  10.9087  10.9100
    10.9954  11.0152  11.0158  11.0239  11.0248  11.1253  11.1620  11.1841
    11.3473  11.3523  11.3601  11.3614  11.3883  11.3900  11.4046  11.4058
    11.4353  11.4445  11.4572  11.4585  11.4874  11.5420  11.5428  11.5452
    11.5648  11.5648  11.5715  11.6048  11.6048  11.6274  11.7002  11.7034
    11.7281  11.7767  11.7776  11.7968  11.7980  11.8511  11.8743  11.8777
    11.8778  11.9151  11.9169  11.9214  11.9224  11.9469  11.9580  11.9588
    11.9706  11.9838  11.9842  11.9887  12.0937  12.1451  12.1950  12.1956
    12.1957  12.1965  12.1990  12.2123  12.2139  12.2519  12.2903  12.2977
    12.2984  12.3072  12.3086  12.3587  12.3597  12.3623  12.3911  12.3911
    12.4073  12.4266  12.4319  12.4866  12.4897  12.4985  12.5551  12.5553
    12.5572  12.6034  12.6196  12.6400  12.6427  12.6530  12.6536  12.9029
    12.9277  12.9285  13.0238  13.0446  13.1072  13.1238  13.1275  13.1511
    13.1629  13.1647  13.1737  13.1766  13.2287  13.2842  13.2921  13.2925
    13.3431  13.3452  13.4122  13.6231  13.6633  14.4670  14.4695  14.5620
    14.5623  14.7350  14.7361  14.8194  14.8215  14.9168  14.9182  14.9897
    15.0659  15.0689  15.2858  15.2878  15.3749  15.3780  15.4597  15.5400
    15.7254  15.7817  15.7835  15.8014  15.8128  15.8138  15.9184  16.0262
    16.0268  16.1017  16.1199  16.1218  16.1240  16.1253  16.1382  16.1616
    16.1634  16.2008  16.2521  16.2545  16.3087  16.3100  16.3108  16.3113
    16.4679  16.5320  16.5377  16.5416  16.7354  16.7383  17.0878  17.0886
    17.1226  17.1239  17.2467  17.2492  17.4112  17.4133  17.6099  17.6344
    17.7189  17.7369  17.7385  17.8635  17.8751  17.9098  17.9119  17.9422
    17.9447  18.1051  18.1070  18.2730  19.2669  19.2679  19.3593  19.3649

          k =-0.5000 0.0000 0.5734 ( 31696 PWs)   bands (ev):

   -66.7842 -66.7839 -66.7723 -66.6755 -66.6752 -66.6649 -66.6120 -66.6113
   -66.6111 -62.4002 -62.3997 -62.3996 -62.3566 -62.3562 -62.3547 -62.3438
   -62.3435 -62.3415 -35.5409 -35.5405 -35.5371 -35.5370 -35.5323 -35.5156
   -35.5042 -35.5037 -35.4906 -35.4430 -35.4425 -35.4398 -35.4133 -35.4089
   -35.4046 -35.4039 -35.3929 -35.3920 -35.3617 -35.3612 -35.3569 -35.3547
   -35.3543 -35.3531 -35.3523 -35.3517 -35.3511 -31.2372 -31.2370 -31.2263
   -31.2261 -31.2254 -31.2252 -31.2164 -31.2150 -31.2146 -31.1885 -31.1877
   -31.1860 -31.1857 -31.1844 -31.1818 -31.1803 -31.1765 -31.1760 -31.1753
   -31.1744 -31.1744 -31.1739 -31.1739 -31.1696 -31.1514 -31.1507 -31.1495
     6.4954   6.5579   6.6185   6.6680   7.8237   7.8237   7.8745   7.8754
     7.9081   7.9087   7.9450   7.9461   8.2650   8.2812   8.2989   8.3027
     8.5208   8.5212   8.5310   8.5330   8.6730   8.6737   8.6830   8.6836
     8.6840   8.6847   8.7247   8.7268   8.7273   8.7310   8.7463   8.7474
     8.7659   8.7726   8.7830   8.7831   8.9281   8.9799   9.0239   9.0359
     9.0362   9.0584   9.0598   9.0779   9.1511   9.2079   9.2080   9.2088
     9.2346   9.2351   9.2354   9.2356   9.2417   9.2429   9.2512   9.2513
     9.2607   9.2647   9.2651   9.2655   9.2855   9.3836   9.3842   9.3946
     9.4296   9.4299   9.4524   9.4535   9.4590   9.4674   9.4799   9.4809
     9.5031   9.5032   9.5204   9.5213   9.5411   9.5419   9.5664   9.5675
     9.5687   9.6204   9.7524   9.7582   9.7931   9.7939   9.8189   9.8297
     9.8300   9.8304   9.8313   9.8378   9.8523   9.8659   9.8801   9.8804
     9.9419   9.9570  10.0234  10.0245  10.0315  10.0396  10.0406  10.0617
    10.3545  10.3548  10.3766  10.3840  10.3850  10.3974  10.4351  10.4358
    10.4454  10.4558  10.4584  10.4591  10.4753  10.4764  10.5413  10.5421
    10.5431  10.5436  10.5551  10.5702  10.6028  10.6029  10.6345  10.6591
    10.6758  10.6759  10.6782  10.6793  10.7069  10.7077  10.7078  10.7288
    10.7295  10.8138  10.8166  10.8509  10.9866  10.9868  11.0141  11.0143
    11.1169  11.1175  11.1818  11.1828  11.1895  11.1899  11.1945  11.1953
    11.2120  11.2140  11.3234  11.3263  11.3285  11.3461  11.3686  11.3697
    11.3783  11.3860  11.4444  11.4455  11.4492  11.4528  11.4637  11.5081
    11.5686  11.5698  11.5701  11.5709  11.5850  11.5853  11.6146  11.6310
    11.6318  11.6352  11.7331  11.7339  11.7527  11.7549  11.7774  11.7777
    11.8977  11.9025  11.9531  11.9714  11.9728  11.9975  11.9993  12.0114
    12.0127  12.0129  12.0138  12.0357  12.0385  12.0390  12.0405  12.1131
    12.1952  12.1975  12.2357  12.2394  12.2676  12.2911  12.2912  12.3339
    12.3340  12.3959  12.3964  12.4007  12.4197  12.4242  12.4249  12.4415
    12.4471  12.4746  12.4749  12.4974  12.5097  12.5282  12.5320  12.6337
    12.6344  12.6403  12.6560  12.6567  12.6579  12.6736  12.7146  12.8359
    12.8732  12.8739  12.9320  12.9321  12.9462  13.0167  13.0393  13.1964
    13.2074  13.2093  13.2940  13.3327  13.5666  13.5682  13.6207  13.9117
    13.9308  13.9317  14.0141  14.0142  14.1413  14.1858  14.1872  14.3627
    14.3634  14.5436  14.5659  14.7348  14.7380  14.7386  14.7415  15.1227
    15.1251  15.2048  15.2069  15.4075  15.4097  15.4667  15.4689  15.4697
    15.4951  15.6433  15.6726  15.6737  15.7761  15.8664  15.8673  16.0145
    16.0637  16.0911  16.0974  16.1835  16.1859  16.1891  16.1918  16.2236
    16.3050  16.3071  16.3103  16.3443  16.3460  16.3828  16.3844  16.4333
    16.4529  16.5630  16.6025  16.6115  16.6131  16.6513  16.6521  16.6669
    16.8098  16.8120  16.8496  16.8512  16.8784  16.8806  16.9567  16.9593
    17.0774  17.0793  17.2463  17.2482  18.6627  18.6888  18.6903  18.7327
    18.7778  18.7783  18.8320  18.8339  18.8565  18.8585  18.9439  18.9711

 ------ SPIN DOWN ----------


          k = 0.0000 0.0000 0.0000 ( 31747 PWs)   bands (ev):

   -66.7880 -66.7762 -66.7759 -66.6792 -66.6689 -66.6686 -66.6129 -66.6126
   -66.6086 -62.4002 -62.3997 -62.3996 -62.3566 -62.3550 -62.3546 -62.3435
   -62.3428 -62.3426 -35.5421 -35.5411 -35.5385 -35.5381 -35.5251 -35.5185
   -35.5082 -35.4951 -35.4947 -35.4439 -35.4413 -35.4409 -35.4167 -35.4091
   -35.4031 -35.3979 -35.3966 -35.3947 -35.3619 -35.3609 -35.3574 -35.3569
   -35.3538 -35.3536 -35.3519 -35.3515 -35.3485 -31.2374 -31.2369 -31.2264
   -31.2262 -31.2254 -31.2253 -31.2161 -31.2154 -31.2141 -31.1883 -31.1865
   -31.1860 -31.1855 -31.1838 -31.1814 -31.1807 -31.1764 -31.1752 -31.1751
   -31.1750 -31.1742 -31.1742 -31.1734 -31.1698 -31.1512 -31.1505 -31.1501
     5.6143   7.1418   7.1787   7.1793   7.2118   7.3645   7.8639   7.8646
     7.9354   7.9367   8.0635   8.1331   8.1388   8.1393   8.2024   8.2294
     8.2768   8.2769   8.3265   8.5266   8.5280   8.5603   8.5924   8.5932
     8.5985   8.8440   8.8655   8.8781   8.8784   8.8859   8.8868   8.8894
     8.9124   8.9132   8.9153   8.9241   8.9241   8.9486   8.9491   8.9829
     9.0154   9.0846   9.1201   9.1203   9.1318   9.1325   9.1603   9.1696
     9.1698   9.2117   9.2125   9.2701   9.2716   9.3066   9.3075   9.3366
     9.3502   9.3610   9.3619   9.3769   9.3771   9.4127   9.4136   9.4279
     9.4281   9.4471   9.4475   9.4547   9.4579   9.4581   9.5151   9.5599
     9.5788   9.5853   9.5859   9.5909   9.6439   9.6444   9.6701   9.6707
     9.6759   9.6760   9.7038   9.7449   9.7454   9.7974   9.7979   9.8503
     9.8514   9.8981   9.9253   9.9254   9.9565   9.9691  10.0331  10.0479
    10.1115  10.1137  10.1366  10.1370  10.2948  10.2956  10.2966  10.2973
    10.3024  10.3029  10.3030  10.3083  10.3086  10.3161  10.3163  10.3478
    10.3533  10.3542  10.3577  10.3596  10.3601  10.3654  10.3848  10.3973
    10.3974  10.5212  10.5216  10.5844  10.6132  10.6140  10.6212  10.6215
    10.7345  10.7366  10.7861  10.7878  10.8257  10.8261  10.8292  10.8475
    10.8480  10.8501  10.8615  10.8624  10.8776  10.8840  10.8851  10.8857
    10.9152  10.9153  10.9927  11.0561  11.0562  11.1171  11.2198  11.2246
    11.2252  11.2274  11.2632  11.3163  11.3168  11.3403  11.3407  11.3505
    11.3573  11.3581  11.3761  11.3769  11.3942  11.3950  11.4034  11.4126
    11.4197  11.4681  11.4707  11.5376  11.5929  11.5930  11.5968  11.5970
    11.6601  11.6605  11.7244  11.7376  11.7381  11.7551  11.7813  11.8323
    11.8327  11.8716  11.8748  11.8749  11.9024  11.9367  11.9376  11.9480
    11.9854  11.9869  12.0623  12.1015  12.1045  12.1047  12.1049  12.1449
    12.1451  12.1495  12.1497  12.1643  12.1650  12.1740  12.1803  12.2033
    12.2421  12.2472  12.2478  12.3242  12.3254  12.3521  12.4115  12.4117
    12.4299  12.4354  12.4437  12.4479  12.4900  12.4911  12.4998  12.5198
    12.5237  12.5297  12.5322  12.5650  12.5662  12.5854  12.5865  12.6503
    12.6942  12.6980  12.7577  12.7629  12.7633  12.8013  13.0874  13.1213
    13.1223  13.1762  13.2285  13.3763  13.3780  13.3793  13.7244  13.7258
    13.9358  13.9359  14.2231  14.2919  14.3189  14.3205  14.4498  14.4550
    14.7411  14.7417  14.9513  14.9549  15.1557  15.1623  15.1636  15.1884
    15.1908  15.2659  15.2683  15.4487  15.4498  15.4818  15.4830  15.6123
    15.6938  15.6950  15.7086  15.7937  15.7952  15.8397  15.8734  15.9476
    16.0128  16.0659  16.1099  16.1121  16.1431  16.1441  16.1787  16.1800
    16.2901  16.3093  16.3109  16.3442  16.3478  16.3576  16.3857  16.3870
    16.4446  16.4481  16.4505  16.5205  16.5220  16.7240  16.7257  16.9620
    16.9642  17.0251  17.0616  17.1332  17.2337  17.2356  17.2572  17.4031
    17.4055  17.5740  17.8900  17.9131  17.9142  17.9536  17.9543  18.2016
    18.2030  18.3407  18.3434  18.9279  19.0693  19.0722  19.0881  19.0890

          k = 0.0000 0.0000-0.5734 ( 31692 PWs)   bands (ev):

   -66.7880 -66.7762 -66.7759 -66.6792 -66.6689 -66.6686 -66.6129 -66.6126
   -66.6086 -62.4002 -62.3997 -62.3996 -62.3566 -62.3550 -62.3546 -62.3435
   -62.3428 -62.3426 -35.5421 -35.5411 -35.5385 -35.5381 -35.5251 -35.5185
   -35.5082 -35.4951 -35.4947 -35.4439 -35.4413 -35.4409 -35.4167 -35.4091
   -35.4031 -35.3979 -35.3966 -35.3947 -35.3619 -35.3609 -35.3574 -35.3569
   -35.3538 -35.3536 -35.3519 -35.3515 -35.3485 -31.2374 -31.2369 -31.2264
   -31.2262 -31.2254 -31.2253 -31.2161 -31.2154 -31.2141 -31.1883 -31.1865
   -31.1860 -31.1855 -31.1838 -31.1814 -31.1807 -31.1764 -31.1752 -31.1751
   -31.1750 -31.1742 -31.1742 -31.1734 -31.1698 -31.1512 -31.1505 -31.1501
     6.1539   6.2132   7.5345   7.5619   7.5621   7.5742   7.5959   7.5990
     7.6001   7.6334   8.3142   8.3148   8.3449   8.3460   8.3472   8.3474
     8.3938   8.3957   8.4514   8.4570   8.4846   8.4858   8.4943   8.4949
     8.5084   8.5101   8.6940   8.7183   8.7442   8.7974   8.9460   8.9478
     8.9663   8.9673   8.9877   8.9881   8.9954   8.9964   9.0061   9.0063
     9.0367   9.0369   9.0447   9.0460   9.0996   9.0997   9.1733   9.2147
     9.2159   9.2162   9.2559   9.2565   9.2661   9.2687   9.2688   9.2907
     9.2913   9.2984   9.2988   9.3046   9.3053   9.3284   9.4067   9.4087
     9.4106   9.4421   9.4436   9.4490   9.4491   9.4593   9.4613   9.4622
     9.4665   9.4683   9.5139   9.5143   9.5147   9.5746   9.6263   9.7065
     9.7932   9.7965   9.7981   9.7990   9.8069   9.8214   9.8214   9.8434
     9.8772   9.8778   9.8806   9.8807   9.8888   9.8888   9.8904   9.8909
    10.0566  10.0591  10.0655  10.0661  10.1335  10.1336  10.1538  10.1692
    10.1702  10.1861  10.1862  10.2050  10.2147  10.2152  10.3575  10.3594
    10.3720  10.3725  10.4037  10.4046  10.4132  10.4137  10.4513  10.5251
    10.5985  10.6069  10.6074  10.6148  10.6242  10.6256  10.6700  10.6703
    10.6854  10.6887  10.7139  10.7141  10.7624  10.7626  10.8159  10.8174
    10.9772  10.9783  10.9985  11.0181  11.0436  11.0439  11.0728  11.0805
    11.0808  11.1166  11.1289  11.1299  11.1592  11.1594  11.1607  11.1608
    11.1799  11.2401  11.2490  11.2517  11.2623  11.2633  11.2633  11.2670
    11.2673  11.2699  11.2718  11.2855  11.2860  11.2931  11.2941  11.3053
    11.3054  11.3128  11.3242  11.3297  11.5540  11.6218  11.7098  11.7101
    11.7168  11.7171  11.7186  11.7204  11.7249  11.7262  11.7368  11.7371
    11.7696  11.7710  11.7965  11.7975  11.8041  11.8139  11.8460  11.8617
    11.9729  12.0011  12.0027  12.0155  12.0156  12.0166  12.0179  12.0889
    12.1551  12.1553  12.2257  12.2776  12.2794  12.2895  12.2918  12.3714
    12.3874  12.3882  12.4029  12.4184  12.4192  12.4636  12.4672  12.4769
    12.4966  12.5096  12.5122  12.5130  12.5522  12.5805  12.5822  12.5826
    12.5827  12.7487  12.7489  12.7535  12.8377  12.8411  12.9526  12.9843
    12.9862  13.0712  13.0715  13.1100  13.1177  13.1195  13.1266  13.1424
    13.2077  13.2308  13.2559  13.2709  13.2716  13.4783  13.7343  13.7360
    13.8932  13.8943  14.0263  14.1527  14.1540  14.1549  14.1636  14.4967
    14.4996  14.8682  14.9059  14.9092  14.9449  14.9522  14.9541  15.1423
    15.2183  15.2192  15.2262  15.2472  15.2493  15.4404  15.4427  15.6449
    15.6467  15.7621  15.7698  15.7716  15.7808  15.7823  15.7983  16.0554
    16.0586  16.0796  16.1346  16.1460  16.2011  16.2061  16.2072  16.2384
    16.2406  16.2419  16.2543  16.2569  16.2789  16.2827  16.2846  16.3114
    16.3328  16.3481  16.4533  16.5968  16.5996  16.6768  16.7373  16.7396
    16.8400  16.9754  17.2678  17.2692  17.3590  17.3615  17.5003  17.5020
    17.5245  17.5257  17.6933  17.6952  17.7481  17.7500  17.8851  17.8874
    17.9118  17.9132  18.1575  18.1592  18.2539  18.2548  18.3415  18.3431

          k = 0.0000-0.5000 0.0000 ( 31722 PWs)   bands (ev):

   -66.7880 -66.7762 -66.7759 -66.6792 -66.6689 -66.6686 -66.6129 -66.6126
   -66.6086 -62.4001 -62.4000 -62.3995 -62.3566 -62.3550 -62.3546 -62.3435
   -62.3429 -62.3425 -35.5421 -35.5414 -35.5385 -35.5380 -35.5241 -35.5193
   -35.5082 -35.4951 -35.4947 -35.4439 -35.4413 -35.4408 -35.4171 -35.4091
   -35.4020 -35.3983 -35.3965 -35.3951 -35.3643 -35.3573 -35.3569 -35.3564
   -35.3551 -35.3534 -35.3529 -35.3515 -35.3485 -31.2408 -31.2300 -31.2295
   -31.2261 -31.2261 -31.2251 -31.2160 -31.2156 -31.2141 -31.1884 -31.1883
   -31.1866 -31.1859 -31.1848 -31.1779 -31.1764 -31.1764 -31.1756 -31.1751
   -31.1748 -31.1748 -31.1739 -31.1738 -31.1729 -31.1511 -31.1508 -31.1499
     6.0418   6.0432   7.4100   7.4110   7.4811   7.4825   7.6755   7.6770
     8.1065   8.1211   8.1714   8.1730   8.1738   8.2019   8.2528   8.2909
     8.3891   8.3901   8.4886   8.4896   8.6150   8.6200   8.6215   8.6621
     8.6633   8.6759   8.7061   8.7073   8.7677   8.8152   8.8158   8.8357
     8.8366   8.8470   8.8846   8.8853   8.9056   8.9069   8.9078   8.9209
     8.9373   8.9422   8.9494   8.9499   9.0515   9.0525   9.1599   9.1610
     9.1909   9.2097   9.2239   9.2249   9.2255   9.2355   9.3162   9.3167
     9.3469   9.3863   9.4031   9.4036   9.4743   9.4753   9.4777   9.4788
     9.5447   9.5451   9.5572   9.5742   9.5750   9.6047   9.6049   9.6096
     9.6205   9.6272   9.6323   9.6364   9.6419   9.6451   9.6507   9.6517
     9.6571   9.6589   9.6679   9.6680   9.7008   9.7013   9.7161   9.7169
     9.7611   9.7619   9.7661   9.7665   9.9003   9.9010   9.9093   9.9807
    10.0261  10.0266  10.1813  10.1818  10.2150  10.2151  10.2471  10.2493
    10.2755  10.2765  10.2790  10.2856  10.2865  10.2871  10.3506  10.3514
    10.3827  10.3835  10.3870  10.3877  10.4364  10.4366  10.4381  10.4747
    10.4750  10.5066  10.5067  10.5410  10.5410  10.5653  10.5858  10.5866
    10.6666  10.6674  10.6943  10.7010  10.7016  10.7347  10.7354  10.7851
    10.8083  10.8088  10.8438  10.8439  10.8740  10.8744  10.8926  10.8933
[...]
    11.6401  11.6440  11.6445  11.7085  11.7535  11.8019  11.8189  11.8881
    11.8912  11.8914  11.9146  11.9384  11.9682  11.9684  11.9818  11.9819
    12.0377  12.0379  12.0383  12.0390  12.0764  12.0767  12.1253  12.1492
    12.1789  12.1807  12.1808  12.1970  12.2390  12.2405  12.2768  12.4029
    12.4107  12.4108  12.4156  12.4184  12.4366  12.4380  12.4415  12.4850
    12.4891  12.5042  12.5049  12.5226  12.5247  12.5642  12.6200  12.6316
    12.6322  12.6364  12.6389  12.6429  12.6558  12.7199  12.7735  12.7774
    12.7813  12.8122  12.8130  12.9049  12.9054  12.9259  12.9508  13.0488
    13.0876  13.0900  13.3380  13.3391  13.4255  13.5248  13.8131  13.8145
    13.9430  14.1409  14.1418  14.2730  14.2737  14.2836  14.3156  14.4095
    14.4256  14.4279  14.5347  14.5747  14.6786  14.6810  14.8255  14.8973
    14.9175  15.2818  15.2822  15.2906  15.2909  15.3926  15.3927  15.5737
    15.5745  15.8370  15.8380  15.8541  15.8886  15.8962  15.8972  15.9021
    15.9983  16.0005  16.0136  16.0153  16.1106  16.1377  16.1743  16.2099
    16.2100  16.2708  16.2714  16.2850  16.2973  16.3051  16.3068  16.4056
    16.4067  16.5338  16.5352  16.6279  16.6813  16.7455  16.7457  16.8203
    16.8268  16.8284  16.9459  16.9469  16.9673  16.9847  17.0078  17.0086
    17.0741  17.0750  17.2350  17.2353  18.5457  18.5927  18.6352  18.6597
    18.7712  18.8478  18.8485  18.8585  18.8904  18.9177  18.9182  18.9424

          k =-0.5000-0.5000 0.0000 ( 31612 PWs)   bands (ev):

   -66.7880 -66.7762 -66.7759 -66.6792 -66.6689 -66.6686 -66.6129 -66.6126
   -66.6086 -62.4001 -62.4000 -62.3995 -62.3566 -62.3550 -62.3546 -62.3435
   -62.3429 -62.3425 -35.5421 -35.5414 -35.5385 -35.5380 -35.5241 -35.5193
   -35.5082 -35.4951 -35.4947 -35.4439 -35.4413 -35.4408 -35.4170 -35.4091
   -35.4020 -35.3983 -35.3965 -35.3951 -35.3643 -35.3573 -35.3569 -35.3564
   -35.3551 -35.3534 -35.3529 -35.3515 -35.3485 -31.2408 -31.2300 -31.2295
   -31.2261 -31.2261 -31.2251 -31.2160 -31.2156 -31.2141 -31.1884 -31.1883
   -31.1866 -31.1859 -31.1848 -31.1779 -31.1764 -31.1764 -31.1756 -31.1751
   -31.1748 -31.1748 -31.1739 -31.1738 -31.1729 -31.1511 -31.1508 -31.1499
     6.4139   6.4155   6.4643   6.4655   8.0115   8.0132   8.0205   8.0217
     8.0897   8.1219   8.3042   8.3054   8.3224   8.3400   8.3409   8.3443
     8.3462   8.3474   8.3616   8.3629   8.3792   8.3794   8.5531   8.6342
     8.6447   8.6453   8.6998   8.7010   8.7016   8.7162   8.7177   8.7505
     8.7844   8.7850   8.8979   8.9499   8.9541   8.9558   8.9769   8.9788
     8.9853   8.9865   9.0110   9.0116   9.0219   9.0256   9.0265   9.0740
     9.1107   9.1353   9.3120   9.3130   9.3187   9.3196   9.4061   9.4061
     9.4088   9.4141   9.4272   9.4272   9.4434   9.4442   9.4538   9.4539
     9.4548   9.4599   9.4747   9.4757   9.4917   9.4928   9.4931   9.5053
     9.5063   9.5098   9.5099   9.5190   9.5528   9.5769   9.5773   9.5811
     9.6098   9.6104   9.6997   9.7020   9.7791   9.7800   9.8326   9.8330
     9.8330   9.8358   9.8383   9.8393   9.8663   9.8665  10.0495  10.0503
    10.0912  10.0946  10.1103  10.1110  10.1442  10.1500  10.1505  10.1673
    10.1752  10.1757  10.2119  10.2123  10.2195  10.2284  10.2285  10.2316
    10.2317  10.2371  10.2379  10.2728  10.4678  10.4682  10.4940  10.4943
    10.4988  10.4994  10.5372  10.5379  10.6314  10.6321  10.6485  10.6488
    10.6628  10.6634  10.6807  10.6858  10.6861  10.6884  10.6966  10.6987
    10.6990  10.7002  10.7668  10.8188  10.8191  10.8735  10.8743  10.8992
    10.9116  10.9610  11.2010  11.2013  11.2216  11.2222  11.2920  11.3186
    11.3200  11.3396  11.3654  11.3658  11.3849  11.4156  11.5592  11.5603
    11.5694  11.5698  11.6194  11.6426  11.6438  11.6442  11.6488  11.6492
    11.6532  11.7239  11.7358  11.7398  11.7401  11.7506  11.7508  11.7677
    11.8781  11.8781  11.8797  11.8800  11.8846  11.8893  11.9399  11.9404
    11.9852  12.0680  12.0703  12.1001  12.1069  12.1069  12.1117  12.1118
    12.1132  12.1172  12.1235  12.1305  12.1335  12.1352  12.1738  12.1742
    12.1923  12.2024  12.2368  12.2369  12.2407  12.2715  12.2768  12.2778
    12.2904  12.2924  12.2933  12.2937  12.3040  12.3042  12.3072  12.3089
    12.3291  12.3300  12.3788  12.3816  12.4645  12.4651  12.4924  12.5634
    12.5713  12.5718  12.5889  12.5896  12.6015  12.6040  12.6586  12.6721
    12.6788  12.6977  12.7444  12.7484  12.8619  12.9187  12.9195  12.9757
    12.9759  12.9868  12.9870  13.0060  13.0068  13.4943  13.5743  13.5776
    13.6422  13.6633  13.6818  13.8768  14.0284  14.0298  14.0876  14.0880
    14.2378  14.2387  14.3883  14.4444  14.4833  14.4848  14.9239  15.1953
    15.1955  15.2396  15.2399  15.2413  15.4868  15.4979  15.4983  15.7744
    15.7746  15.7831  15.7837  15.8024  15.8045  15.9257  15.9660  15.9671
    15.9672  15.9685  16.0056  16.0068  16.0094  16.0096  16.0520  16.0983
    16.0989  16.1280  16.1875  16.2747  16.2766  16.2785  16.4296  16.4953
    16.4965  16.5509  16.5512  16.6635  16.6642  16.7066  16.7066  16.7685
    16.7972  16.9039  16.9455  17.0135  17.3843  17.3940  17.6899  18.0791
    18.1887  18.1896  18.2431  18.2437  18.2944  18.2959  18.5297  18.5298
    18.6328  18.6328  18.6642  18.6646  18.7845  18.7889  18.7898  18.7904

          k =-0.5000-0.5000-0.5734 ( 31672 PWs)   bands (ev):

   -66.7880 -66.7762 -66.7759 -66.6792 -66.6689 -66.6686 -66.6129 -66.6126
   -66.6086 -62.4001 -62.4000 -62.3995 -62.3566 -62.3550 -62.3546 -62.3435
   -62.3429 -62.3425 -35.5421 -35.5414 -35.5385 -35.5380 -35.5241 -35.5193
   -35.5082 -35.4951 -35.4947 -35.4439 -35.4413 -35.4408 -35.4170 -35.4091
   -35.4020 -35.3983 -35.3965 -35.3951 -35.3643 -35.3573 -35.3569 -35.3564
   -35.3551 -35.3534 -35.3529 -35.3515 -35.3485 -31.2408 -31.2300 -31.2295
   -31.2261 -31.2261 -31.2251 -31.2160 -31.2156 -31.2141 -31.1884 -31.1883
   -31.1866 -31.1859 -31.1848 -31.1779 -31.1764 -31.1764 -31.1756 -31.1751
   -31.1748 -31.1748 -31.1739 -31.1738 -31.1729 -31.1511 -31.1508 -31.1499
     6.8819   6.8834   6.9433   6.9450   6.9998   7.0011   7.0484   7.0492
     8.4386   8.4664   8.4822   8.4828   8.4835   8.4881   8.4957   8.4964
     8.5016   8.5033   8.5046   8.5247   8.5278   8.5437   8.5442   8.5616
     8.5634   8.5833   8.5936   8.6274   8.8845   8.8848   8.8853   8.8866
     8.9112   8.9117   8.9324   8.9334   9.0859   9.0869   9.1242   9.1248
     9.1266   9.1276   9.1407   9.1555   9.1564   9.1600   9.1637   9.1642
     9.1697   9.1731   9.1735   9.1784   9.1786   9.1787   9.1790   9.1795
     9.1797   9.1947   9.1948   9.2013   9.2019   9.2019   9.2072   9.2140
     9.2375   9.2377   9.2380   9.2384   9.2419   9.2707   9.2710   9.2742
     9.5465   9.5614   9.5616   9.5621   9.5854   9.5858   9.5989   9.6288
     9.6415   9.6419   9.6869   9.6876   9.7180   9.7186   9.7873   9.7874
     9.8171   9.8178   9.8617   9.8624   9.8769   9.8774   9.8944   9.8952
    10.0904  10.1308  10.1493  10.1497  10.1756  10.1787  10.1796  10.2039
    10.2797  10.3232  10.4355  10.4628  10.4726  10.4729  10.4735  10.4810
    10.4812  10.4870  10.4870  10.5043  10.5044  10.5153  10.5159  10.5311
    10.5357  10.5358  10.5424  10.5424  10.5439  10.5662  10.5669  10.6172
    10.6208  10.6308  10.6308  10.6529  10.6529  10.6541  10.6547  10.6811
    10.6814  10.6915  10.7038  10.7066  10.7144  10.7200  11.0568  11.0570
    11.0702  11.0708  11.0928  11.0929  11.1038  11.1040  11.3743  11.3773
    11.4009  11.4042  11.4054  11.4205  11.4208  11.4598  11.4770  11.4772
    11.4911  11.4918  11.4971  11.4976  11.5227  11.5229  11.6418  11.6536
    11.6570  11.6571  11.6595  11.6599  11.6910  11.7097  11.7098  11.7184
    11.7190  11.7231  11.7261  11.7351  11.7481  11.7621  11.7849  11.7849
    11.8063  11.8070  11.8274  11.8378  11.8423  11.9042  11.9656  11.9672
    11.9843  12.0345  12.0345  12.1025  12.1033  12.1051  12.1175  12.1785
    12.1790  12.1951  12.2650  12.2653  12.2739  12.2758  12.2891  12.2928
    12.3076  12.3083  12.3692  12.3697  12.4174  12.4204  12.4687  12.4729
    12.4790  12.5403  12.5409  12.5552  12.5576  12.5725  12.5789  12.6574
    12.6593  12.6920  12.6969  12.6994  12.7202  12.7229  12.7564  12.8250
    12.8251  12.9746  12.9785  12.9978  13.0729  13.0760  13.0765  13.1020
    13.2039  13.2924  13.3124  13.3124  13.3356  13.3367  13.4820  13.4821
    13.6681  13.7134  13.7150  13.8623  13.9806  13.9819  14.0045  14.0053
    14.0895  14.2218  14.2232  14.5815  14.8273  14.8458  15.0561  15.0644
    15.0648  15.1422  15.1429  15.3232  15.4149  15.6639  15.6647  15.7136
    15.7153  15.7925  15.8740  15.8745  15.9028  15.9034  15.9285  16.0200
    16.0318  16.0330  16.0360  16.0453  16.1156  16.1182  16.1248  16.1994
    16.1998  16.2319  16.2350  16.2542  16.2556  16.2575  16.2598  16.4397
    16.5729  16.5744  16.6090  16.6095  16.6200  16.6906  16.6917  16.7576
    16.7580  16.8578  16.8934  16.8935  16.9007  16.9953  16.9954  17.0090
    17.1231  17.1359  17.6095  17.7569  17.9092  17.9799  19.0301  19.0369
    19.0374  19.0514  19.0797  19.0809  19.1651  19.1660  19.3231  19.3684

          k =-0.5000 0.0000 0.0000 ( 31722 PWs)   bands (ev):

   -66.7880 -66.7762 -66.7759 -66.6792 -66.6689 -66.6686 -66.6129 -66.6126
   -66.6086 -62.4002 -62.3997 -62.3996 -62.3566 -62.3550 -62.3546 -62.3435
   -62.3428 -62.3426 -35.5421 -35.5411 -35.5385 -35.5381 -35.5251 -35.5185
   -35.5082 -35.4951 -35.4947 -35.4439 -35.4413 -35.4409 -35.4167 -35.4091
   -35.4031 -35.3979 -35.3966 -35.3947 -35.3619 -35.3609 -35.3574 -35.3569
   -35.3538 -35.3536 -35.3519 -35.3515 -35.3485 -31.2374 -31.2369 -31.2264
   -31.2262 -31.2254 -31.2253 -31.2161 -31.2154 -31.2141 -31.1883 -31.1865
   -31.1860 -31.1855 -31.1838 -31.1814 -31.1807 -31.1764 -31.1752 -31.1751
   -31.1750 -31.1742 -31.1742 -31.1734 -31.1698 -31.1512 -31.1505 -31.1501
     6.0163   6.0680   7.4275   7.4282   7.4666   7.4674   7.6680   7.6826
     8.0979   8.1111   8.1349   8.2115   8.2133   8.2137   8.2472   8.2472
     8.4120   8.4126   8.4606   8.4609   8.6144   8.6397   8.6422   8.6422
     8.6803   8.6803   8.6807   8.7061   8.7519   8.7848   8.8315   8.8325
     8.8521   8.8773   8.8779   8.8961   8.8966   8.9189   8.9192   8.9278
     8.9281   8.9343   8.9344   8.9351   9.0459   9.0567   9.1717   9.1724
     9.1978   9.1991   9.2181   9.2188   9.2374   9.2375   9.3347   9.3465
     9.3475   9.3769   9.3809   9.3819   9.4763   9.4896   9.5021   9.5030
     9.5314   9.5346   9.5352   9.5499   9.6049   9.6052   9.6073   9.6150
     9.6162   9.6226   9.6287   9.6296   9.6350   9.6376   9.6379   9.6480
     9.6481   9.6754   9.6760   9.6775   9.7005   9.7007   9.7272   9.7275
     9.7590   9.7597   9.7609   9.7610   9.8950   9.9099   9.9309   9.9948
    10.0041  10.0599  10.1339  10.1934  10.2200  10.2451  10.2533  10.2535
    10.2597  10.2613  10.2639  10.2646  10.2866  10.2875  10.3506  10.3509
    10.3608  10.3615  10.3791  10.3853  10.4327  10.4345  10.4562  10.4565
    10.5204  10.5211  10.5430  10.5437  10.5686  10.5687  10.5812  10.5983
    10.6164  10.6165  10.6476  10.7077  10.7081  10.7204  10.7672  10.7673
    10.7773  10.8104  10.8192  10.8579  10.8758  10.8767  10.9088  10.9099
    10.9954  11.0154  11.0156  11.0240  11.0246  11.1253  11.1620  11.1840
    11.3473  11.3523  11.3603  11.3612  11.3884  11.3899  11.4048  11.4056
    11.4353  11.4445  11.4574  11.4583  11.4874  11.5420  11.5430  11.5450
    11.5648  11.5648  11.5716  11.6048  11.6048  11.6274  11.7004  11.7034
    11.7280  11.7769  11.7775  11.7970  11.7977  11.8511  11.8743  11.8777
    11.8778  11.9153  11.9167  11.9215  11.9223  11.9469  11.9580  11.9588
    11.9705  11.9840  11.9840  11.9888  12.0937  12.1451  12.1953  12.1954
    12.1959  12.1961  12.1991  12.2124  12.2139  12.2518  12.2903  12.2980
    12.2981  12.3072  12.3086  12.3588  12.3597  12.3623  12.3910  12.3911
    12.4073  12.4269  12.4318  12.4861  12.4899  12.4982  12.5545  12.5559
    12.5572  12.6034  12.6196  12.6401  12.6427  12.6525  12.6541  12.9029
    12.9277  12.9283  13.0236  13.0447  13.1071  13.1240  13.1273  13.1512
    13.1629  13.1647  13.1737  13.1766  13.2287  13.2841  13.2922  13.2923
    13.3433  13.3450  13.4122  13.6231  13.6632  14.4672  14.4692  14.5619
    14.5624  14.7349  14.7362  14.8193  14.8216  14.9166  14.9185  14.9897
    15.0661  15.0688  15.2858  15.2878  15.3751  15.3779  15.4597  15.5400
    15.7253  15.7817  15.7835  15.8014  15.8128  15.8141  15.9186  16.0261
    16.0271  16.1018  16.1199  16.1220  16.1239  16.1253  16.1383  16.1617
    16.1632  16.2009  16.2520  16.2547  16.3089  16.3097  16.3108  16.3116
    16.4679  16.5321  16.5376  16.5416  16.7354  16.7386  17.0878  17.0886
    17.1225  17.1239  17.2467  17.2493  17.4113  17.4131  17.6099  17.6344
    17.7189  17.7368  17.7387  17.8635  17.8751  17.9099  17.9118  17.9423
    17.9447  18.1050  18.1070  18.2730  19.2670  19.2679  19.3578  19.3596

          k =-0.5000 0.0000 0.5734 ( 31696 PWs)   bands (ev):

   -66.7880 -66.7762 -66.7759 -66.6792 -66.6689 -66.6686 -66.6129 -66.6126
   -66.6086 -62.4002 -62.3997 -62.3996 -62.3566 -62.3550 -62.3546 -62.3435
   -62.3428 -62.3426 -35.5421 -35.5411 -35.5385 -35.5381 -35.5251 -35.5185
   -35.5082 -35.4951 -35.4947 -35.4439 -35.4413 -35.4409 -35.4167 -35.4091
   -35.4031 -35.3979 -35.3966 -35.3947 -35.3619 -35.3609 -35.3574 -35.3569
   -35.3538 -35.3536 -35.3519 -35.3515 -35.3485 -31.2374 -31.2369 -31.2264
   -31.2262 -31.2254 -31.2253 -31.2161 -31.2154 -31.2141 -31.1883 -31.1865
   -31.1860 -31.1855 -31.1838 -31.1814 -31.1807 -31.1764 -31.1752 -31.1751
   -31.1750 -31.1742 -31.1742 -31.1734 -31.1698 -31.1512 -31.1505 -31.1501
     6.4955   6.5578   6.6185   6.6679   7.8236   7.8240   7.8742   7.8755
     7.9083   7.9087   7.9448   7.9461   8.2651   8.2812   8.2990   8.3027
     8.5210   8.5212   8.5308   8.5331   8.6728   8.6742   8.6827   8.6838
     8.6838   8.6849   8.7248   8.7267   8.7272   8.7310   8.7462   8.7476
     8.7659   8.7726   8.7829   8.7831   8.9281   8.9799   9.0240   9.0360
     9.0362   9.0584   9.0597   9.0778   9.1512   9.2077   9.2080   9.2090
     9.2345   9.2351   9.2355   9.2356   9.2416   9.2429   9.2511   9.2516
     9.2607   9.2647   9.2650   9.2656   9.2856   9.3836   9.3843   9.3945
     9.4295   9.4299   9.4524   9.4537   9.4589   9.4675   9.4798   9.4808
     9.5031   9.5034   9.5206   9.5213   9.5410   9.5418   9.5664   9.5674
     9.5686   9.6204   9.7524   9.7582   9.7930   9.7941   9.8190   9.8297
     9.8299   9.8303   9.8315   9.8378   9.8524   9.8658   9.8800   9.8804
     9.9419   9.9570  10.0236  10.0243  10.0316  10.0397  10.0406  10.0617
    10.3544  10.3550  10.3767  10.3840  10.3848  10.3973  10.4349  10.4361
    10.4454  10.4558  10.4583  10.4592  10.4750  10.4766  10.5412  10.5422
    10.5434  10.5434  10.5550  10.5703  10.6028  10.6029  10.6345  10.6592
    10.6758  10.6759  10.6782  10.6794  10.7071  10.7076  10.7078  10.7289
    10.7293  10.8138  10.8167  10.8508  10.9866  10.9867  11.0141  11.0142
    11.1169  11.1176  11.1818  11.1827  11.1896  11.1900  11.1944  11.1953
    11.2120  11.2139  11.3235  11.3262  11.3285  11.3460  11.3689  11.3694
    11.3784  11.3860  11.4446  11.4453  11.4492  11.4529  11.4637  11.5081
    11.5687  11.5700  11.5700  11.5707  11.5850  11.5853  11.6146  11.6311
    11.6317  11.6353  11.7331  11.7338  11.7529  11.7548  11.7771  11.7781
    11.8977  11.9025  11.9530  11.9714  11.9726  11.9974  11.9992  12.0114
    12.0126  12.0127  12.0138  12.0357  12.0385  12.0391  12.0403  12.1130
    12.1953  12.1974  12.2359  12.2391  12.2676  12.2911  12.2912  12.3336
    12.3343  12.3958  12.3963  12.4006  12.4198  12.4241  12.4249  12.4420
    12.4469  12.4747  12.4749  12.4973  12.5096  12.5280  12.5316  12.6338
    12.6341  12.6404  12.6560  12.6568  12.6578  12.6735  12.7145  12.8359
    12.8729  12.8742  12.9318  12.9323  12.9462  13.0166  13.0394  13.1965
    13.2076  13.2090  13.2939  13.3325  13.5667  13.5683  13.6207  13.9117
    13.9310  13.9315  14.0141  14.0141  14.1413  14.1860  14.1871  14.3626
    14.3635  14.5435  14.5659  14.7347  14.7379  14.7387  14.7415  15.1227
    15.1251  15.2049  15.2070  15.4074  15.4099  15.4667  15.4689  15.4698
    15.4952  15.6432  15.6724  15.6740  15.7760  15.8662  15.8674  16.0146
    16.0637  16.0913  16.0974  16.1836  16.1857  16.1892  16.1919  16.2236
    16.3049  16.3071  16.3104  16.3444  16.3459  16.3829  16.3847  16.4334
    16.4530  16.5632  16.6025  16.6115  16.6131  16.6510  16.6524  16.6668
    16.8098  16.8122  16.8497  16.8513  16.8784  16.8810  16.9567  16.9593
    17.0772  17.0797  17.2462  17.2482  18.6629  18.6890  18.6900  18.7326
    18.7781  18.7781  18.8318  18.8340  18.8564  18.8587  18.9440  18.9711

     the Fermi energy is    14.8446 ev

!    total energy              =  -33062.60091128 Ry
     Harris-Foulkes estimate   =  -33062.60091115 Ry
     estimated scf accuracy    <       0.00000076 Ry

     total all-electron energy =  -1410574.691286 Ry

     The total energy is the sum of the following terms:

     one-electron contribution =   -1645.62210795 Ry
     hartree contribution      =    1489.84823193 Ry
     xc contribution           =   -1658.75179146 Ry
     ewald contribution        =   -4919.25534656 Ry
     one-center paw contrib.   =  -26328.81989724 Ry

     total magnetization       =     0.00 Bohr mag/cell
     absolute magnetization    =    78.88 Bohr mag/cell

     convergence has been achieved in  51 iterations

     Writing output data file mnau2.save
 
     init_run     :     52.09s CPU     52.89s WALL (       1 calls)
     electrons    :   6334.28s CPU   6462.19s WALL (       1 calls)

     Called by init_run:
     wfcinit      :     46.21s CPU     46.76s WALL (       1 calls)
     potinit      :      2.51s CPU      2.55s WALL (       1 calls)

     Called by electrons:
     c_bands      :   5501.95s CPU   5602.94s WALL (      51 calls)
     sum_band     :    697.81s CPU    713.41s WALL (      51 calls)
     v_of_rho     :     13.36s CPU     13.78s WALL (      52 calls)
     newd         :     42.09s CPU     48.02s WALL (      52 calls)
     PAW_pot      :     77.04s CPU     77.95s WALL (      52 calls)
     mix_rho      :      2.98s CPU      3.08s WALL (      51 calls)

     Called by c_bands:
     init_us_2    :     24.82s CPU     24.91s WALL (    1648 calls)
     cegterg      :   5342.13s CPU   5441.39s WALL (     816 calls)

     Called by sum_band:
     sum_band:bec :      3.98s CPU      3.99s WALL (     816 calls)
     addusdens    :     76.43s CPU     83.34s WALL (      51 calls)

     Called by *egterg:
     h_psi        :   2135.26s CPU   2157.45s WALL (    2396 calls)
     s_psi        :    526.23s CPU    526.57s WALL (    2396 calls)
     g_psi        :      7.93s CPU      7.94s WALL (    1564 calls)
     cdiaghg      :   1467.70s CPU   1468.62s WALL (    2380 calls)

     Called by h_psi:
     h_psi:pot    :   2116.79s CPU   2138.87s WALL (    2396 calls)
     h_psi:calbec :    522.30s CPU    527.78s WALL (    2396 calls)
     vloc_psi     :   1067.84s CPU   1084.04s WALL (    2396 calls)
     add_vuspsi   :    526.60s CPU    527.02s WALL (    2396 calls)

     General routines
     calbec       :    768.21s CPU    776.31s WALL (    3212 calls)
     fft          :     11.48s CPU     12.30s WALL (    1602 calls)
     ffts         :      0.25s CPU      0.25s WALL (     206 calls)
     fftw         :   1040.01s CPU   1056.01s WALL ( 1705468 calls)
     interpolate  :      2.00s CPU      2.11s WALL (     206 calls)
 
     Parallel routines
     fft_scatt_xy :    130.74s CPU    132.47s WALL ( 1707276 calls)
     fft_scatt_yz :    275.21s CPU    282.35s WALL ( 1707276 calls)
 
     PWSCF        :     1h46m CPU        1h49m WALL

 
   This run was terminated on:   1:38:13   4Mar2019            

=------------------------------------------------------------------------------=
   JOB DONE.
=------------------------------------------------------------------------------=
