
     Program PWSCF v.6.2 (svn rev. 14038) starts on  7Mar2019 at 16:50:16 

     This program is part of the open-source Quantum ESPRESSO suite
     for quantum simulation of materials; please cite
         "P. Giannozzi et al., J. Phys.:Condens. Matter 21 395502 (2009);
         "P. Giannozzi et al., J. Phys.:Condens. Matter 29 465901 (2017);
          URL http://www.quantum-espresso.org", 
     in publications or presentations arising from this work. More details at
     http://www.quantum-espresso.org/quote

     Parallel version (MPI), running on    16 processors

     MPI processes distributed on     1 nodes
     R & G space division:  proc/nbgrp/npool/nimage =      16
     Waiting for input...
     Reading input from standard input

     Current dimensions of program PWSCF are:
     Max number of different atomic species (ntypx) = 10
     Max number of k-points (npk) =  40000
     Max angular momentum in pseudopotentials (lmaxx) =  3
               file Mn.pbe-spn-kjpaw_psl.0.3.1.UPF: wavefunction(s)  3P 3D renormalized
               file Mn.pbe-spn-kjpaw_psl.0.3.1.UPF: wavefunction(s)  3P 3D renormalized
               file Au.pbe-dn-kjpaw_psl.0.1.UPF: wavefunction(s)  6S 6P 5D renormalized

     Subspace diagonalization in iterative solution of the eigenvalue problem:
     a serial algorithm will be used

 
     Parallelization info
     --------------------
     sticks:   dense  smooth     PW     G-vecs:    dense   smooth      PW
     Min         736     331     90                52486    15847    2256
     Max         737     332     91                52489    15850    2259
     Sum       11785    5297   1449               839803   253559   36125
 


     bravais-lattice index     =            0
     lattice parameter (alat)  =      19.2459  a.u.
     unit-cell volume          =    6216.1497 (a.u.)^3
     number of atoms/cell      =           54
     number of atomic types    =            3
     number of electrons       =       666.00
     number of Kohn-Sham states=          400
     kinetic-energy cutoff     =      45.0000  Ry
     charge density cutoff     =     400.0000  Ry
     convergence threshold     =      1.0E-06
     mixing beta               =       0.1000
     number of iterations used =            8  plain     mixing
     Exchange-correlation      = SLA PW PBX PBC ( 1  4  3  4 0 0)

     celldm(1)=  19.245946  celldm(2)=   0.000000  celldm(3)=   0.000000
     celldm(4)=   0.000000  celldm(5)=   0.000000  celldm(6)=   0.000000

     crystal axes: (cart. coord. in units of alat)
               a(1) = (   1.000000   0.000000   0.000000 )  
               a(2) = (   0.000000   1.000000   0.000000 )  
               a(3) = (   0.000000   0.000000   0.871974 )  

     reciprocal axes: (cart. coord. in units 2 pi/alat)
               b(1) = (  1.000000  0.000000  0.000000 )  
               b(2) = (  0.000000  1.000000  0.000000 )  
               b(3) = (  0.000000  0.000000  1.146823 )  


     PseudoPot. # 1 for Mn read from file:
     ./pseudo/Mn.pbe-spn-kjpaw_psl.0.3.1.UPF
     MD5 check sum: 7eef95dd2aae66803482eea66ebeebf1
     Pseudo is Projector augmented-wave + core cor, Zval = 15.0
     Generated using "atomic" code by A. Dal Corso v.5.0.99 svn rev. 10869
     Shape of augmentation charge: PSQ
     Using radial grid of 1187 points,  6 beta functions with: 
                l(1) =   0
                l(2) =   0
                l(3) =   1
                l(4) =   1
                l(5) =   2
                l(6) =   2
     Q(r) pseudized with 0 coefficients 


     PseudoPot. # 2 for Mn read from file:
     ./pseudo/Mn.pbe-spn-kjpaw_psl.0.3.1.UPF
     MD5 check sum: 7eef95dd2aae66803482eea66ebeebf1
     Pseudo is Projector augmented-wave + core cor, Zval = 15.0
     Generated using "atomic" code by A. Dal Corso v.5.0.99 svn rev. 10869
     Shape of augmentation charge: PSQ
     Using radial grid of 1187 points,  6 beta functions with: 
                l(1) =   0
                l(2) =   0
                l(3) =   1
                l(4) =   1
                l(5) =   2
                l(6) =   2
     Q(r) pseudized with 0 coefficients 


     PseudoPot. # 3 for Au read from file:
     ./pseudo/Au.pbe-dn-kjpaw_psl.0.1.UPF
     MD5 check sum: 5c9b92683623e7ae2ab3f8e525febab6
     Pseudo is Projector augmented-wave + core cor, Zval = 11.0
     Generated using "atomic" code by A. Dal Corso v.5.0.2 svn rev. 9415
     Shape of augmentation charge: PSQ
     Using radial grid of 1279 points,  6 beta functions with: 
                l(1) =   0
                l(2) =   0
                l(3) =   1
                l(4) =   1
                l(5) =   2
                l(6) =   2
     Q(r) pseudized with 0 coefficients 


     atomic species   valence    mass     pseudopotential
        Mn1           15.00    54.93800     Mn( 1.00)
        Mn2           15.00    54.93800     Mn( 1.00)
        Au            11.00   196.96600     Au( 1.00)

     Starting magnetic structure 
     atomic species   magnetization
        Mn1          0.800
        Mn2         -0.800
        Au           0.000

      2 Sym. Ops. (no inversion) found



   Cartesian axes

     site n.     atom                  positions (alat units)
         1           Mn1 tau(   1) = (   0.0000000   0.0000000   0.0000000  )
         2           Mn1 tau(   2) = (   0.0000000   0.3333300   0.0000000  )
         3           Mn2 tau(   3) = (   0.0000000   0.6666700   0.0000000  )
         4           Mn1 tau(   4) = (   0.3333300   0.0000000   0.0000000  )
         5           Mn2 tau(   5) = (   0.3333300   0.3333300   0.0000000  )
         6           Mn1 tau(   6) = (   0.3333300   0.6666700   0.0000000  )
         7           Mn2 tau(   7) = (   0.6666700   0.0000000   0.0000000  )
         8           Mn2 tau(   8) = (   0.6666700   0.3333300   0.0000000  )
         9           Mn1 tau(   9) = (   0.6666700   0.6666700   0.0000000  )
        10           Mn2 tau(  10) = (   0.1666700   0.1666700   0.4359871  )
        11           Mn2 tau(  11) = (   0.1666700   0.5000000   0.4359871  )
        12           Mn1 tau(  12) = (   0.1666700   0.8333300   0.4359871  )
        13           Mn2 tau(  13) = (   0.5000000   0.1666700   0.4359871  )
        14           Mn1 tau(  14) = (   0.5000000   0.5000000   0.4359871  )
        15           Mn2 tau(  15) = (   0.5000000   0.8333300   0.4359871  )
        16           Mn1 tau(  16) = (   0.8333300   0.1666700   0.4359871  )
        17           Mn1 tau(  17) = (   0.8333300   0.5000000   0.4359871  )
        18           Mn2 tau(  18) = (   0.8333300   0.8333300   0.4359871  )
        19           Au  tau(  19) = (   0.1666700   0.1666700   0.7327374  )
        20           Au  tau(  20) = (   0.1666700   0.5000000   0.7327374  )
        21           Au  tau(  21) = (   0.1666700   0.8333300   0.7327374  )
        22           Au  tau(  22) = (   0.5000000   0.1666700   0.7327374  )
        23           Au  tau(  23) = (   0.5000000   0.5000000   0.7327374  )
        24           Au  tau(  24) = (   0.5000000   0.8333300   0.7327374  )
        25           Au  tau(  25) = (   0.8333300   0.1666700   0.7327374  )
        26           Au  tau(  26) = (   0.8333300   0.5000000   0.7327374  )
        27           Au  tau(  27) = (   0.8333300   0.8333300   0.7327374  )
        28           Au  tau(  28) = (   0.1666700   0.1666700   0.1392369  )
        29           Au  tau(  29) = (   0.1666700   0.5000000   0.1392369  )
        30           Au  tau(  30) = (   0.1666700   0.8333300   0.1392369  )
        31           Au  tau(  31) = (   0.5000000   0.1666700   0.1392369  )
        32           Au  tau(  32) = (   0.5000000   0.5000000   0.1392369  )
        33           Au  tau(  33) = (   0.5000000   0.8333300   0.1392369  )
        34           Au  tau(  34) = (   0.8333300   0.1666700   0.1392369  )
        35           Au  tau(  35) = (   0.8333300   0.5000000   0.1392369  )
        36           Au  tau(  36) = (   0.8333300   0.8333300   0.1392369  )
        37           Au  tau(  37) = (   0.0000000   0.0000000   0.2967503  )
        38           Au  tau(  38) = (   0.0000000   0.3333300   0.2967503  )
        39           Au  tau(  39) = (   0.0000000   0.6666700   0.2967503  )
        40           Au  tau(  40) = (   0.3333300   0.0000000   0.2967503  )
        41           Au  tau(  41) = (   0.3333300   0.3333300   0.2967503  )
        42           Au  tau(  42) = (   0.3333300   0.6666700   0.2967503  )
        43           Au  tau(  43) = (   0.6666700   0.0000000   0.2967503  )
        44           Au  tau(  44) = (   0.6666700   0.3333300   0.2967503  )
        45           Au  tau(  45) = (   0.6666700   0.6666700   0.2967503  )
        46           Au  tau(  46) = (   0.0000000   0.0000000   0.5752240  )
        47           Au  tau(  47) = (   0.0000000   0.3333300   0.5752240  )
        48           Au  tau(  48) = (   0.0000000   0.6666700   0.5752240  )
        49           Au  tau(  49) = (   0.3333300   0.0000000   0.5752240  )
        50           Au  tau(  50) = (   0.3333300   0.3333300   0.5752240  )
        51           Au  tau(  51) = (   0.3333300   0.6666700   0.5752240  )
        52           Au  tau(  52) = (   0.6666700   0.0000000   0.5752240  )
        53           Au  tau(  53) = (   0.6666700   0.3333300   0.5752240  )
        54           Au  tau(  54) = (   0.6666700   0.6666700   0.5752240  )

     number of k points=     8 (tetrahedron method)
                       cart. coord. in units 2pi/alat
        k(    1) = (   0.0000000   0.0000000   0.0000000), wk =   0.1250000
        k(    2) = (   0.0000000   0.0000000  -0.5734114), wk =   0.1250000
        k(    3) = (   0.0000000  -0.5000000   0.0000000), wk =   0.1250000
        k(    4) = (   0.0000000  -0.5000000  -0.5734114), wk =   0.1250000
        k(    5) = (  -0.5000000  -0.5000000   0.0000000), wk =   0.1250000
        k(    6) = (  -0.5000000  -0.5000000  -0.5734114), wk =   0.1250000
        k(    7) = (  -0.5000000   0.0000000   0.0000000), wk =   0.1250000
        k(    8) = (  -0.5000000   0.0000000   0.5734114), wk =   0.1250000

     Dense  grid:   839803 G-vectors     FFT dimensions: ( 125, 125, 108)

     Smooth grid:   253559 G-vectors     FFT dimensions: (  90,  90,  72)

     Estimated max dynamical RAM per process >     570.13 MB

     Estimated total dynamical RAM >       8.91 GB
     Generating pointlists ...
     new r_m :   0.1129 (alat units)  2.1733 (a.u.) for type    1
     new r_m :   0.1129 (alat units)  2.1733 (a.u.) for type    2
     new r_m :   0.1129 (alat units)  2.1733 (a.u.) for type    3

     Check: negative/imaginary core charge=   -0.000006    0.000000

     Initial potential from superposition of free atoms

     starting charge  665.98709, renormalised to  666.00000
     Starting wfc are  504 randomized atomic wfcs
     Checking if some PAW data can be deallocated... 

     total cpu time spent up to now is       56.5 secs

     Self-consistent Calculation

     iteration #  1     ecut=    45.00 Ry     beta= 0.10
     Davidson diagonalization with overlap
     ethr =  1.00E-02,  avg # of iterations =  3.2

     total cpu time spent up to now is      217.6 secs

     total energy              =  -33047.22421416 Ry
     Harris-Foulkes estimate   =  -33044.08456397 Ry
     estimated scf accuracy    <      26.94949059 Ry

     total magnetization       =    -0.05 Bohr mag/cell
     absolute magnetization    =    92.06 Bohr mag/cell

     iteration #  2     ecut=    45.00 Ry     beta= 0.10
     Davidson diagonalization with overlap
     ethr =  4.05E-03,  avg # of iterations =  1.0

     total cpu time spent up to now is      326.1 secs

     total energy              =  -33058.55975433 Ry
     Harris-Foulkes estimate   =  -33047.40238887 Ry
     estimated scf accuracy    <      21.31474924 Ry

     total magnetization       =    -0.04 Bohr mag/cell
     absolute magnetization    =    91.70 Bohr mag/cell

     iteration #  3     ecut=    45.00 Ry     beta= 0.10
     Davidson diagonalization with overlap
     ethr =  3.20E-03,  avg # of iterations =  2.3

     total cpu time spent up to now is      462.1 secs

     total energy              =  -33066.18832205 Ry
     Harris-Foulkes estimate   =  -33061.34110790 Ry
     estimated scf accuracy    <       8.85922124 Ry

     total magnetization       =     0.00 Bohr mag/cell
     absolute magnetization    =    85.72 Bohr mag/cell

     iteration #  4     ecut=    45.00 Ry     beta= 0.10
     Davidson diagonalization with overlap
     ethr =  1.33E-03,  avg # of iterations =  4.2

     total cpu time spent up to now is      667.5 secs

     total energy              =  -33058.59659671 Ry
     Harris-Foulkes estimate   =  -33068.85085186 Ry
     estimated scf accuracy    <      51.75862659 Ry

     total magnetization       =     0.07 Bohr mag/cell
     absolute magnetization    =    72.06 Bohr mag/cell

     iteration #  5     ecut=    45.00 Ry     beta= 0.10
     Davidson diagonalization with overlap
     ethr =  1.33E-03,  avg # of iterations =  4.4

     total cpu time spent up to now is      901.9 secs

     total energy              =  -33061.93774584 Ry
     Harris-Foulkes estimate   =  -33062.49817851 Ry
     estimated scf accuracy    <       3.28925874 Ry

     total magnetization       =    -0.08 Bohr mag/cell
     absolute magnetization    =    83.53 Bohr mag/cell

     iteration #  6     ecut=    45.00 Ry     beta= 0.10
     Davidson diagonalization with overlap
     ethr =  4.94E-04,  avg # of iterations =  3.6

     total cpu time spent up to now is     1066.8 secs

     total energy              =  -33062.56890137 Ry
     Harris-Foulkes estimate   =  -33062.58211268 Ry
     estimated scf accuracy    <       0.47190235 Ry

     total magnetization       =    -0.46 Bohr mag/cell
     absolute magnetization    =    78.66 Bohr mag/cell

     iteration #  7     ecut=    45.00 Ry     beta= 0.10
     Davidson diagonalization with overlap
     ethr =  7.09E-05,  avg # of iterations =  2.4

     total cpu time spent up to now is     1195.8 secs

     total energy              =  -33062.60020977 Ry
     Harris-Foulkes estimate   =  -33062.58083278 Ry
     estimated scf accuracy    <       0.32260313 Ry

     total magnetization       =    -0.46 Bohr mag/cell
     absolute magnetization    =    78.68 Bohr mag/cell

     iteration #  8     ecut=    45.00 Ry     beta= 0.10
     Davidson diagonalization with overlap
     ethr =  4.84E-05,  avg # of iterations =  1.0

     total cpu time spent up to now is     1303.4 secs

     total energy              =  -33062.57470820 Ry
     Harris-Foulkes estimate   =  -33062.60487664 Ry
     estimated scf accuracy    <       0.42221711 Ry

     total magnetization       =    -0.45 Bohr mag/cell
     absolute magnetization    =    78.04 Bohr mag/cell

     iteration #  9     ecut=    45.00 Ry     beta= 0.10
     Davidson diagonalization with overlap
     ethr =  4.84E-05,  avg # of iterations =  1.0

     total cpu time spent up to now is     1411.0 secs

     total energy              =  -33062.55039635 Ry
     Harris-Foulkes estimate   =  -33062.58135581 Ry
     estimated scf accuracy    <       0.22645235 Ry

     total magnetization       =    -0.50 Bohr mag/cell
     absolute magnetization    =    78.45 Bohr mag/cell

     iteration # 10     ecut=    45.00 Ry     beta= 0.10
     Davidson diagonalization with overlap
     ethr =  3.40E-05,  avg # of iterations =  1.8

     total cpu time spent up to now is     1529.5 secs

     total energy              =  -33062.55883347 Ry
     Harris-Foulkes estimate   =  -33062.56352821 Ry
     estimated scf accuracy    <       0.02858016 Ry

     total magnetization       =    -0.54 Bohr mag/cell
     absolute magnetization    =    78.54 Bohr mag/cell

     iteration # 11     ecut=    45.00 Ry     beta= 0.10
     Davidson diagonalization with overlap
     ethr =  4.29E-06,  avg # of iterations =  4.8

     total cpu time spent up to now is     1696.5 secs

     total energy              =  -33062.56240143 Ry
     Harris-Foulkes estimate   =  -33062.56108881 Ry
     estimated scf accuracy    <       0.00759709 Ry

     total magnetization       =    -0.55 Bohr mag/cell
     absolute magnetization    =    78.72 Bohr mag/cell

     iteration # 12     ecut=    45.00 Ry     beta= 0.10
     Davidson diagonalization with overlap
     ethr =  1.14E-06,  avg # of iterations =  3.8

     total cpu time spent up to now is     1843.8 secs

     total energy              =  -33062.56384707 Ry
     Harris-Foulkes estimate   =  -33062.56276801 Ry
     estimated scf accuracy    <       0.00428810 Ry

     total magnetization       =    -0.57 Bohr mag/cell
     absolute magnetization    =    78.60 Bohr mag/cell

     iteration # 13     ecut=    45.00 Ry     beta= 0.10
     Davidson diagonalization with overlap
     ethr =  6.44E-07,  avg # of iterations =  2.9

     total cpu time spent up to now is     1985.7 secs

     total energy              =  -33062.56476584 Ry
     Harris-Foulkes estimate   =  -33062.56418043 Ry
     estimated scf accuracy    <       0.00070076 Ry

     total magnetization       =    -0.58 Bohr mag/cell
     absolute magnetization    =    78.44 Bohr mag/cell

     iteration # 14     ecut=    45.00 Ry     beta= 0.10
     Davidson diagonalization with overlap
     ethr =  1.05E-07,  avg # of iterations =  3.8

     total cpu time spent up to now is     2140.0 secs

     total energy              =  -33062.56509980 Ry
     Harris-Foulkes estimate   =  -33062.56482174 Ry
     estimated scf accuracy    <       0.00036336 Ry

     total magnetization       =    -0.59 Bohr mag/cell
     absolute magnetization    =    78.37 Bohr mag/cell

     iteration # 15     ecut=    45.00 Ry     beta= 0.10
     Davidson diagonalization with overlap
     ethr =  5.46E-08,  avg # of iterations =  2.0

     total cpu time spent up to now is     2261.3 secs

     total energy              =  -33062.56546139 Ry
     Harris-Foulkes estimate   =  -33062.56511847 Ry
     estimated scf accuracy    <       0.00024389 Ry

     total magnetization       =    -0.60 Bohr mag/cell
     absolute magnetization    =    78.34 Bohr mag/cell

     iteration # 16     ecut=    45.00 Ry     beta= 0.10
     Davidson diagonalization with overlap
     ethr =  3.66E-08,  avg # of iterations =  2.2

     total cpu time spent up to now is     2390.7 secs

     total energy              =  -33062.56557946 Ry
     Harris-Foulkes estimate   =  -33062.56547653 Ry
     estimated scf accuracy    <       0.00010208 Ry

     total magnetization       =    -0.60 Bohr mag/cell
     absolute magnetization    =    78.32 Bohr mag/cell

     iteration # 17     ecut=    45.00 Ry     beta= 0.10
     Davidson diagonalization with overlap
     ethr =  1.53E-08,  avg # of iterations =  2.3

     total cpu time spent up to now is     2519.9 secs

     total energy              =  -33062.56562930 Ry
     Harris-Foulkes estimate   =  -33062.56557148 Ry
     estimated scf accuracy    <       0.00004233 Ry

     total magnetization       =    -0.61 Bohr mag/cell
     absolute magnetization    =    78.30 Bohr mag/cell

     iteration # 18     ecut=    45.00 Ry     beta= 0.10
     Davidson diagonalization with overlap
     ethr =  6.36E-09,  avg # of iterations =  3.1

     total cpu time spent up to now is     2680.8 secs

     total energy              =  -33062.56563308 Ry
     Harris-Foulkes estimate   =  -33062.56561720 Ry
     estimated scf accuracy    <       0.00001160 Ry

     total magnetization       =    -0.62 Bohr mag/cell
     absolute magnetization    =    78.26 Bohr mag/cell

     iteration # 19     ecut=    45.00 Ry     beta= 0.10
     Davidson diagonalization with overlap
     ethr =  1.74E-09,  avg # of iterations =  2.6

     total cpu time spent up to now is     2819.9 secs

     total energy              =  -33062.56563034 Ry
     Harris-Foulkes estimate   =  -33062.56562281 Ry
     estimated scf accuracy    <       0.00000412 Ry

     total magnetization       =    -0.62 Bohr mag/cell
     absolute magnetization    =    78.25 Bohr mag/cell

     iteration # 20     ecut=    45.00 Ry     beta= 0.10
     Davidson diagonalization with overlap
     ethr =  6.18E-10,  avg # of iterations =  2.4

     total cpu time spent up to now is     2948.4 secs

     total energy              =  -33062.56563547 Ry
     Harris-Foulkes estimate   =  -33062.56562949 Ry
     estimated scf accuracy    <       0.00000281 Ry

     total magnetization       =    -0.62 Bohr mag/cell
     absolute magnetization    =    78.25 Bohr mag/cell

     iteration # 21     ecut=    45.00 Ry     beta= 0.10
     Davidson diagonalization with overlap
     ethr =  4.22E-10,  avg # of iterations =  2.1

     total cpu time spent up to now is     3080.5 secs

     total energy              =  -33062.56563975 Ry
     Harris-Foulkes estimate   =  -33062.56563556 Ry
     estimated scf accuracy    <       0.00000128 Ry

     total magnetization       =    -0.62 Bohr mag/cell
     absolute magnetization    =    78.24 Bohr mag/cell

     iteration # 22     ecut=    45.00 Ry     beta= 0.10
     Davidson diagonalization with overlap
     ethr =  1.93E-10,  avg # of iterations =  2.7
 
     Magnetic moment per site:
     atom:    1    charge:   13.5778    magn:    3.9826    constr:    0.0000
     atom:    2    charge:   13.5829    magn:    3.9472    constr:    0.0000
     atom:    3    charge:   13.5721    magn:   -4.0810    constr:    0.0000
     atom:    4    charge:   13.5695    magn:    4.0240    constr:    0.0000
     atom:    5    charge:   13.5741    magn:   -4.0429    constr:    0.0000
     atom:    6    charge:   13.5778    magn:    3.9826    constr:    0.0000
     atom:    7    charge:   13.5741    magn:   -4.0430    constr:    0.0000
     atom:    8    charge:   13.5801    magn:   -3.9768    constr:    0.0000
     atom:    9    charge:   13.5829    magn:    3.9470    constr:    0.0000
     atom:   10    charge:   13.5801    magn:   -3.9688    constr:    0.0000
     atom:   11    charge:   13.5727    magn:   -4.0482    constr:    0.0000
     atom:   12    charge:   13.5812    magn:    3.9693    constr:    0.0000
     atom:   13    charge:   13.5746    magn:   -4.0157    constr:    0.0000
     atom:   14    charge:   13.5740    magn:    4.0352    constr:    0.0000
     atom:   15    charge:   13.5800    magn:   -3.9688    constr:    0.0000
     atom:   16    charge:   13.5742    magn:    4.0352    constr:    0.0000
     atom:   17    charge:   13.5807    magn:    3.9512    constr:    0.0000
     atom:   18    charge:   13.5728    magn:   -4.0483    constr:    0.0000
     atom:   19    charge:    9.1200    magn:    0.0150    constr:    0.0000
     atom:   20    charge:    9.1208    magn:   -0.0154    constr:    0.0000
     atom:   21    charge:    9.1195    magn:    0.0291    constr:    0.0000
     atom:   22    charge:    9.1212    magn:   -0.0473    constr:    0.0000
     atom:   23    charge:    9.1208    magn:    0.0062    constr:    0.0000
     atom:   24    charge:    9.1200    magn:    0.0150    constr:    0.0000
     atom:   25    charge:    9.1209    magn:    0.0062    constr:    0.0000
     atom:   26    charge:    9.1217    magn:    0.0081    constr:    0.0000
     atom:   27    charge:    9.1208    magn:   -0.0154    constr:    0.0000
     atom:   28    charge:    9.1200    magn:    0.0150    constr:    0.0000
     atom:   29    charge:    9.1208    magn:   -0.0154    constr:    0.0000
     atom:   30    charge:    9.1195    magn:    0.0291    constr:    0.0000
     atom:   31    charge:    9.1212    magn:   -0.0473    constr:    0.0000
     atom:   32    charge:    9.1208    magn:    0.0062    constr:    0.0000
     atom:   33    charge:    9.1200    magn:    0.0150    constr:    0.0000
     atom:   34    charge:    9.1209    magn:    0.0062    constr:    0.0000
     atom:   35    charge:    9.1217    magn:    0.0081    constr:    0.0000
     atom:   36    charge:    9.1208    magn:   -0.0154    constr:    0.0000
     atom:   37    charge:    9.1212    magn:    0.0112    constr:    0.0000
     atom:   38    charge:    9.1196    magn:    0.0000    constr:    0.0000
     atom:   39    charge:    9.1214    magn:   -0.0143    constr:    0.0000
     atom:   40    charge:    9.1207    magn:   -0.0182    constr:    0.0000
     atom:   41    charge:    9.1207    magn:   -0.0448    constr:    0.0000
     atom:   42    charge:    9.1210    magn:    0.0112    constr:    0.0000
     atom:   43    charge:    9.1208    magn:   -0.0447    constr:    0.0000
     atom:   44    charge:    9.1211    magn:    0.0137    constr:    0.0000
     atom:   45    charge:    9.1195    magn:    0.0000    constr:    0.0000
     atom:   46    charge:    9.1212    magn:    0.0112    constr:    0.0000
     atom:   47    charge:    9.1196    magn:    0.0000    constr:    0.0000
     atom:   48    charge:    9.1214    magn:   -0.0143    constr:    0.0000
     atom:   49    charge:    9.1207    magn:   -0.0182    constr:    0.0000
     atom:   50    charge:    9.1207    magn:   -0.0448    constr:    0.0000
     atom:   51    charge:    9.1210    magn:    0.0112    constr:    0.0000
     atom:   52    charge:    9.1208    magn:   -0.0447    constr:    0.0000
     atom:   53    charge:    9.1211    magn:    0.0137    constr:    0.0000
     atom:   54    charge:    9.1195    magn:    0.0000    constr:    0.0000

     total cpu time spent up to now is     3231.5 secs

     End of self-consistent calculation

 ------ SPIN UP ------------


          k = 0.0000 0.0000 0.0000 ( 31747 PWs)   bands (ev):

   -66.7853 -66.6984 -66.6983 -66.6586 -66.6583 -66.6188 -66.5911 -66.5907
   -66.5902 -62.3808 -62.3729 -62.3726 -62.3630 -62.3629 -62.3567 -62.3565
   -62.3515 -62.3158 -35.5473 -35.5231 -35.5103 -35.4670 -35.4669 -35.4580
   -35.4579 -35.4330 -35.4327 -35.4058 -35.4055 -35.4034 -35.4031 -35.3883
   -35.3770 -35.3741 -35.3665 -35.3661 -35.3483 -35.3479 -35.3461 -35.3456
   -35.3335 -35.3229 -35.3103 -35.3098 -35.2996 -31.2285 -31.2282 -31.2266
   -31.2056 -31.2049 -31.2018 -31.2014 -31.1991 -31.1949 -31.1932 -31.1918
   -31.1909 -31.1866 -31.1863 -31.1798 -31.1795 -31.1793 -31.1744 -31.1733
   -31.1730 -31.1727 -31.1635 -31.1634 -31.1611 -31.1543 -31.1388 -31.1369
     5.6185   7.1433   7.1457   7.2188   7.2213   7.3657   7.8408   7.8970
     7.9064   7.9677   8.0879   8.0881   8.1473   8.1855   8.1876   8.2605
     8.2640   8.2938   8.2962   8.5200   8.5563   8.5606   8.5729   8.5764
     8.6503   8.8619   8.8633   8.8646   8.8815   8.8881   8.8893   8.8952
     8.8975   8.9013   8.9138   8.9207   8.9483   8.9591   8.9617   8.9789
     8.9830   9.0843   9.1235   9.1277   9.1286   9.1371   9.1541   9.1584
     9.1970   9.1978   9.2233   9.2710   9.2925   9.3015   9.3065   9.3340
     9.3512   9.3549   9.3690   9.3719   9.3964   9.3965   9.4091   9.4433
     9.4508   9.4531   9.4630   9.4666   9.4696   9.4701   9.4775   9.5793
     9.5814   9.5913   9.5916   9.6178   9.6304   9.6682   9.6700   9.6716
     9.6738   9.6747   9.6775   9.7498   9.7588   9.7727   9.7879   9.8514
     9.8526   9.9098   9.9147   9.9431   9.9444   9.9494  10.0001  10.0388
    10.0770  10.1185  10.1446  10.2041  10.2833  10.2834  10.2951  10.2977
    10.3073  10.3102  10.3198  10.3252  10.3333  10.3366  10.3401  10.3414
    10.3450  10.3471  10.3632  10.3645  10.3653  10.3744  10.3843  10.3850
    10.3889  10.4959  10.5244  10.5425  10.6195  10.6227  10.6335  10.6354
    10.6774  10.7830  10.7901  10.8073  10.8129  10.8174  10.8478  10.8512
    10.8636  10.8677  10.8694  10.8722  10.8767  10.8915  10.8937  10.9023
    10.9097  10.9101  11.0328  11.0352  11.0769  11.0786  11.1509  11.1946
    11.2137  11.2142  11.2276  11.2369  11.2558  11.2906  11.3002  11.3301
    11.3338  11.3925  11.3997  11.4042  11.4072  11.4121  11.4378  11.4393
    11.4618  11.5884  11.5913  11.5935  11.5975  11.5986  11.6127  11.6364
    11.6415  11.6443  11.7263  11.7280  11.7509  11.7537  11.7695  11.8104
    11.8149  11.8401  11.8415  11.8708  11.9018  11.9188  11.9319  11.9530
    11.9574  12.0147  12.0665  12.1009  12.1024  12.1048  12.1065  12.1089
    12.1415  12.1465  12.1475  12.1476  12.1517  12.1532  12.1716  12.1869
    12.2509  12.2947  12.3502  12.3533  12.3554  12.3876  12.4362  12.4373
    12.4472  12.4771  12.4796  12.4942  12.4946  12.5135  12.5363  12.5427
    12.5631  12.5641  12.5701  12.6063  12.6151  12.6170  12.6544  12.6917
    12.7110  12.7531  12.7655  12.7871  12.8311  12.8666  13.0319  13.0556
    13.1249  13.1293  13.1729  13.1786  13.4652  13.6477  13.8327  13.8581
    13.8669  14.0894  14.1764  14.2007  14.2578  14.4365  14.4503  14.6008
    14.7712  14.8427  14.9206  14.9913  15.0614  15.0983  15.1083  15.1809
    15.2019  15.2606  15.3004  15.3082  15.3616  15.4459  15.5235  15.5338
    15.6952  15.7342  15.7648  15.8006  15.8665  15.9594  16.0107  16.0201
    16.0259  16.0754  16.1018  16.1178  16.1209  16.1678  16.1724  16.1883
    16.1900  16.1994  16.2469  16.2814  16.3203  16.3532  16.3574  16.3974
    16.4735  16.4803  16.4999  16.6146  16.6311  16.6404  16.8148  16.8999
    16.9535  17.0386  17.1758  17.1988  17.2202  17.2414  17.3419  17.3430
    17.4309  17.4781  17.7938  17.8838  17.9358  17.9423  17.9854  18.0122
    18.2961  18.3379  18.4861  18.8631  19.0376  19.0597  19.1576  19.1865

          k = 0.0000 0.0000-0.5734 ( 31692 PWs)   bands (ev):

   -66.7853 -66.6984 -66.6983 -66.6586 -66.6583 -66.6188 -66.5911 -66.5907
   -66.5902 -62.3808 -62.3729 -62.3726 -62.3630 -62.3629 -62.3567 -62.3565
   -62.3515 -62.3158 -35.5473 -35.5231 -35.5103 -35.4670 -35.4669 -35.4580
   -35.4579 -35.4330 -35.4327 -35.4058 -35.4055 -35.4034 -35.4031 -35.3883
   -35.3770 -35.3741 -35.3665 -35.3661 -35.3483 -35.3479 -35.3461 -35.3456
   -35.3335 -35.3229 -35.3103 -35.3098 -35.2996 -31.2285 -31.2282 -31.2266
   -31.2056 -31.2049 -31.2018 -31.2014 -31.1991 -31.1949 -31.1932 -31.1918
   -31.1909 -31.1865 -31.1863 -31.1798 -31.1795 -31.1793 -31.1744 -31.1733
   -31.1730 -31.1727 -31.1635 -31.1634 -31.1611 -31.1543 -31.1388 -31.1369
     6.1791   6.1968   7.5287   7.5441   7.5609   7.5671   7.6070   7.6151
     7.6229   7.6357   8.3054   8.3157   8.3297   8.3462   8.3607   8.3656
     8.3961   8.4020   8.4544   8.4588   8.4766   8.4833   8.5114   8.5127
     8.5128   8.5128   8.6977   8.7058   8.7659   8.7829   8.9460   8.9555
     8.9783   8.9803   8.9805   8.9959   9.0028   9.0054   9.0141   9.0286
     9.0295   9.0414   9.0423   9.0470   9.0719   9.0810   9.2151   9.2256
     9.2302   9.2405   9.2546   9.2559   9.2687   9.2701   9.2747   9.2839
     9.2846   9.2876   9.2918   9.2937   9.2968   9.2985   9.4054   9.4100
     9.4318   9.4341   9.4547   9.4557   9.4588   9.4746   9.4791   9.4813
     9.4916   9.4974   9.5023   9.5062   9.5129   9.5210   9.6423   9.6668
     9.7723   9.7781   9.7982   9.8025   9.8252   9.8293   9.8366   9.8468
     9.8774   9.8781   9.8782   9.8801   9.8885   9.8900   9.8953   9.8959
    10.0610  10.0620  10.0623  10.0640  10.1539  10.1617  10.1620  10.1657
    10.1659  10.1661  10.1792  10.1951  10.2023  10.2048  10.3716  10.3725
    10.3778  10.3817  10.4008  10.4011  10.4126  10.4287  10.4852  10.5082
    10.5734  10.5803  10.5897  10.6032  10.6290  10.6469  10.6674  10.6763
    10.6834  10.6889  10.7315  10.7418  10.7562  10.8014  10.8083  10.8712
    10.9292  10.9334  10.9411  10.9835  11.0291  11.0356  11.0368  11.0453
    11.0751  11.0790  11.0856  11.1584  11.2063  11.2151  11.2176  11.2238
    11.2476  11.2484  11.2526  11.2534  11.2642  11.2693  11.2768  11.2826
    11.2839  11.2841  11.2914  11.2946  11.2948  11.2959  11.3057  11.3092
    11.3125  11.3167  11.3185  11.3193  11.5355  11.5444  11.7135  11.7137
    11.7150  11.7168  11.7186  11.7244  11.7337  11.7351  11.7381  11.7541
    11.7665  11.7702  11.7741  11.7825  11.7868  11.8501  11.8952  11.9418
    11.9511  11.9706  12.0078  12.0106  12.0571  12.0614  12.0861  12.1165
    12.1406  12.1678  12.1708  12.2419  12.2466  12.2516  12.2677  12.4147
    12.4250  12.4423  12.4463  12.4644  12.4917  12.5046  12.5066  12.5333
    12.5376  12.5593  12.5595  12.6094  12.6104  12.6159  12.6377  12.6504
    12.6581  12.6952  12.7106  12.7153  12.7485  12.7646  12.7787  12.8097
    12.8633  12.9197  12.9832  13.0638  13.1361  13.2058  13.2162  13.2365
    13.2851  13.2872  13.3447  13.5072  13.5172  13.5220  13.7361  13.7678
    13.7760  13.9129  13.9509  14.0817  14.1342  14.3013  14.3650  14.4707
    14.7365  14.9010  14.9464  14.9509  14.9530  14.9828  14.9844  15.1206
    15.2149  15.2322  15.2591  15.3336  15.3338  15.3705  15.3999  15.4308
    15.4579  15.6211  15.7395  15.7747  15.8314  15.9396  16.0116  16.0547
    16.0671  16.1174  16.1179  16.1302  16.1403  16.1512  16.1945  16.1957
    16.2022  16.2245  16.2250  16.2343  16.2380  16.2448  16.2469  16.2487
    16.3911  16.4223  16.6122  16.6210  16.6502  16.6783  16.7005  16.7233
    16.7326  16.7645  17.4220  17.4492  17.4599  17.4916  17.5344  17.5507
    17.5669  17.5830  17.6597  17.6600  17.7227  17.7623  17.8247  17.8691
    17.8773  17.8792  18.1049  18.1394  18.1869  18.2497  18.3058  18.3453

          k = 0.0000-0.5000 0.0000 ( 31722 PWs)   bands (ev):

   -66.7853 -66.6984 -66.6983 -66.6586 -66.6583 -66.6188 -66.5911 -66.5907
   -66.5902 -62.3808 -62.3729 -62.3726 -62.3630 -62.3629 -62.3567 -62.3565
   -62.3515 -62.3158 -35.5473 -35.5231 -35.5103 -35.4670 -35.4669 -35.4580
   -35.4579 -35.4330 -35.4327 -35.4058 -35.4055 -35.4034 -35.4031 -35.3883
   -35.3770 -35.3741 -35.3665 -35.3661 -35.3483 -35.3479 -35.3461 -35.3456
   -35.3335 -35.3229 -35.3103 -35.3098 -35.2996 -31.2285 -31.2282 -31.2266
   -31.2056 -31.2049 -31.2018 -31.2014 -31.1991 -31.1949 -31.1932 -31.1918
   -31.1909 -31.1865 -31.1863 -31.1798 -31.1795 -31.1793 -31.1744 -31.1733
   -31.1730 -31.1727 -31.1635 -31.1634 -31.1611 -31.1543 -31.1388 -31.1369
     6.0419   6.0499   7.4222   7.4386   7.4613   7.4835   7.6715   7.6830
     8.1111   8.1140   8.1297   8.1639   8.2230   8.2356   8.2436   8.2753
     8.4115   8.4291   8.4566   8.4795   8.6311   8.6399   8.6498   8.6571
     8.6697   8.6732   8.6779   8.6955   8.7804   8.8062   8.8308   8.8411
     8.8573   8.8587   8.8782   8.8853   8.8964   8.9022   8.9093   8.9295
     8.9317   8.9368   8.9427   8.9545   9.0447   9.0538   9.1592   9.1679
     9.1765   9.2105   9.2155   9.2268   9.2394   9.2483   9.3036   9.3367
     9.3509   9.3767   9.4017   9.4176   9.4774   9.4816   9.4991   9.5071
     9.5413   9.5418   9.5588   9.5634   9.5899   9.6075   9.6091   9.6192
     9.6283   9.6297   9.6323   9.6343   9.6377   9.6377   9.6439   9.6575
     9.6665   9.6776   9.6815   9.6848   9.6928   9.7105   9.7207   9.7280
     9.7434   9.7470   9.7505   9.7733   9.8973   9.8994   9.9354   9.9565
    10.0135  10.0347  10.1628  10.1844  10.2059  10.2181  10.2542  10.2569
    10.2592  10.2657  10.2751  10.2795  10.2824  10.2857  10.3425  10.3594
    10.3729  10.3810  10.3844  10.3887  10.4300  10.4416  10.4632  10.4830
    10.5078  10.5293  10.5309  10.5491  10.5601  10.5672  10.5692  10.5984
    10.6097  10.6567  10.6655  10.7023  10.7109  10.7212  10.7330  10.7480
    10.8064  10.8175  10.8338  10.8504  10.8682  10.9038  10.9178  10.9308
    10.9940  11.0033  11.0200  11.0225  11.0386  11.0567  11.1743  11.1812
    11.2964  11.3399  11.3480  11.3496  11.3760  11.3807  11.3813  11.4024
    11.4081  11.4308  11.4359  11.4850  11.5082  11.5224  11.5483  11.5774
    11.6018  11.6044  11.6315  11.6318  11.6611  11.6746  11.7138  11.7457
    11.7681  11.7737  11.8126  11.8368  11.8375  11.8453  11.8523  11.8610
    11.8755  11.8906  11.9015  11.9122  11.9158  11.9429  11.9462  11.9643
    11.9794  11.9880  11.9909  11.9991  12.0334  12.1075  12.1332  12.1380
    12.1654  12.1908  12.1950  12.2052  12.2108  12.2358  12.2461  12.2810
    12.2965  12.3412  12.3613  12.3859  12.3886  12.4158  12.4283  12.4551
    12.4642  12.4961  12.5003  12.5292  12.5303  12.5523  12.5640  12.5723
    12.5753  12.6011  12.6055  12.6182  12.6778  12.6926  12.7370  12.8161
    12.8813  12.9306  13.0631  13.0742  13.0802  13.0874  13.1178  13.1507
    13.1808  13.2018  13.2224  13.2434  13.2533  13.2967  13.3149  13.3762
    13.4211  13.5532  13.5542  13.6214  13.7094  14.4305  14.4623  14.5358
    14.5905  14.6860  14.7529  14.7966  14.8043  14.8626  14.8739  14.9936
    15.0394  15.1431  15.1485  15.3227  15.3615  15.4367  15.5278  15.6004
    15.6961  15.7327  15.7521  15.8204  15.8663  15.8990  15.9447  16.0446
    16.0633  16.0947  16.1106  16.1338  16.1353  16.1676  16.1680  16.1736
    16.2035  16.2086  16.2270  16.2407  16.2841  16.3062  16.3334  16.3569
    16.4054  16.4308  16.5062  16.5977  16.6695  16.7457  16.9923  17.0745
    17.1520  17.2171  17.2738  17.3231  17.4043  17.4806  17.6361  17.6432
    17.7635  17.7978  17.8006  17.8187  17.8638  17.8740  17.8827  17.9281
    17.9336  18.0943  18.1791  18.1993  19.2564  19.2724  19.3567  19.3691

          k = 0.0000-0.5000-0.5734 ( 31696 PWs)   bands (ev):

   -66.7853 -66.6984 -66.6983 -66.6586 -66.6583 -66.6188 -66.5911 -66.5907
   -66.5902 -62.3808 -62.3729 -62.3726 -62.3630 -62.3629 -62.3567 -62.3565
   -62.3515 -62.3158 -35.5473 -35.5231 -35.5103 -35.4670 -35.4669 -35.4580
   -35.4579 -35.4330 -35.4327 -35.4058 -35.4055 -35.4034 -35.4031 -35.3883
   -35.3770 -35.3741 -35.3664 -35.3661 -35.3483 -35.3479 -35.3461 -35.3456
   -35.3335 -35.3229 -35.3103 -35.3098 -35.2996 -31.2285 -31.2282 -31.2266
   -31.2056 -31.2049 -31.2018 -31.2014 -31.1991 -31.1949 -31.1932 -31.1918
   -31.1909 -31.1865 -31.1863 -31.1798 -31.1795 -31.1793 -31.1744 -31.1733
   -31.1730 -31.1727 -31.1635 -31.1634 -31.1611 -31.1543 -31.1388 -31.1369
     6.5580   6.5744   6.5978   6.6146   7.8405   7.8517   7.8794   7.8901
     7.8977   7.9098   7.9267   7.9437   8.2735   8.2764   8.3060   8.3069
     8.5226   8.5247   8.5331   8.5331   8.6541   8.6569   8.6798   8.6874
     8.6918   8.6928   8.7073   8.7204   8.7321   8.7441   8.7567   8.7575
     8.7686   8.7699   8.7879   8.8025   8.9822   8.9980   9.0148   9.0346
     9.0385   9.0465   9.0484   9.0555   9.2132   9.2172   9.2209   9.2215
     9.2224   9.2316   9.2330   9.2460   9.2485   9.2523   9.2558   9.2566
     9.2615   9.2692   9.2845   9.2897   9.2912   9.3174   9.3952   9.4025
     9.4316   9.4356   9.4372   9.4556   9.4623   9.4664   9.4676   9.4816
     9.4834   9.5014   9.5175   9.5260   9.5276   9.5514   9.5608   9.5681
     9.5739   9.5896   9.7563   9.7584   9.7940   9.8017   9.8077   9.8288
     9.8291   9.8298   9.8503   9.8545   9.8565   9.8611   9.8615   9.8743
     9.9728   9.9801   9.9925   9.9963  10.0216  10.0260  10.0636  10.0663
    10.3715  10.3779  10.3983  10.4013  10.4030  10.4094  10.4145  10.4512
    10.4652  10.4672  10.4761  10.4772  10.4964  10.4969  10.5137  10.5143
    10.5354  10.5514  10.5632  10.5760  10.5924  10.6100  10.6183  10.6203
    10.6297  10.6330  10.6622  10.6727  10.6801  10.6812  10.6869  10.6966
    10.7728  10.7909  10.9532  10.9597  10.9843  10.9935  11.0409  11.0478
    11.1193  11.1235  11.1360  11.1562  11.1692  11.1856  11.2123  11.2130
    11.2184  11.2282  11.2900  11.3286  11.3353  11.3376  11.3648  11.3677
    11.3745  11.3771  11.4237  11.4248  11.4349  11.4408  11.5067  11.5133
    11.5304  11.5593  11.5684  11.5732  11.5870  11.6114  11.6242  11.6306
    11.6363  11.6367  11.7343  11.7507  11.7558  11.7656  11.8255  11.8850
    11.8900  11.9227  11.9273  11.9386  11.9485  11.9851  12.0182  12.0194
    12.0318  12.0370  12.0405  12.0444  12.0445  12.0739  12.0914  12.1330
    12.1466  12.1741  12.1928  12.2225  12.2611  12.2680  12.2733  12.3044
    12.3722  12.3822  12.4039  12.4082  12.4391  12.4543  12.4695  12.5055
    12.5059  12.5410  12.5462  12.5613  12.5670  12.5999  12.6028  12.6103
    12.6170  12.6459  12.6461  12.6516  12.6677  12.7039  12.7164  12.7691
    12.7737  12.8567  12.8694  12.9227  13.0118  13.0431  13.0474  13.0714
    13.0875  13.3770  13.5033  13.5163  13.6350  13.7219  13.7446  13.7878
    13.8056  13.9853  14.0257  14.0872  14.0982  14.2640  14.3447  14.3592
    14.4008  14.5195  14.5535  14.5571  14.6261  14.8604  14.8652  15.1085
    15.2068  15.2284  15.2493  15.2709  15.2951  15.3517  15.3943  15.5104
    15.5918  15.6389  15.6838  15.8751  15.8873  15.9733  15.9820  16.0212
    16.0501  16.0753  16.1093  16.1281  16.1547  16.1864  16.2166  16.2356
    16.2679  16.3054  16.3443  16.3535  16.3811  16.3911  16.4127  16.4418
    16.4764  16.4995  16.5347  16.5607  16.5965  16.6218  16.6616  16.6803
    16.6939  16.7056  16.7253  16.7691  16.8840  16.8845  16.9982  17.0497
    17.0835  17.1317  17.2697  17.3198  18.6749  18.7054  18.7298  18.7521
    18.7793  18.7841  18.8526  18.8727  18.9113  18.9199  18.9394  18.9617

          k =-0.5000-0.5000 0.0000 ( 31612 PWs)   bands (ev):

   -66.7853 -66.6984 -66.6983 -66.6586 -66.6583 -66.6188 -66.5911 -66.5907
   -66.5902 -62.3808 -62.3729 -62.3726 -62.3630 -62.3629 -62.3567 -62.3565
   -62.3515 -62.3158 -35.5473 -35.5231 -35.5103 -35.4670 -35.4669 -35.4580
   -35.4579 -35.4330 -35.4327 -35.4058 -35.4055 -35.4034 -35.4031 -35.3883
   -35.3770 -35.3741 -35.3664 -35.3661 -35.3483 -35.3479 -35.3461 -35.3456
   -35.3335 -35.3229 -35.3103 -35.3098 -35.2996 -31.2285 -31.2282 -31.2266
   -31.2056 -31.2049 -31.2018 -31.2014 -31.1991 -31.1949 -31.1932 -31.1918
   -31.1909 -31.1866 -31.1863 -31.1798 -31.1795 -31.1793 -31.1744 -31.1733
   -31.1730 -31.1727 -31.1635 -31.1634 -31.1611 -31.1543 -31.1388 -31.1369
     6.3975   6.4425   6.4433   6.4934   8.0028   8.0176   8.0221   8.0303
     8.1007   8.1174   8.2819   8.3148   8.3165   8.3300   8.3314   8.3358
     8.3420   8.3593   8.3607   8.3782   8.3804   8.4428   8.5951   8.6269
     8.6368   8.6447   8.6958   8.7003   8.7043   8.7118   8.7257   8.7543
     8.7575   8.8132   8.9414   8.9455   8.9541   8.9564   8.9739   8.9773
     8.9813   9.0097   9.0100   9.0104   9.0107   9.0203   9.0223   9.0418
     9.1199   9.1275   9.3030   9.3144   9.3194   9.3243   9.3997   9.4117
     9.4130   9.4207   9.4297   9.4335   9.4369   9.4370   9.4457   9.4508
     9.4659   9.4719   9.4746   9.4833   9.4858   9.4977   9.5009   9.5110
     9.5195   9.5276   9.5362   9.5385   9.5551   9.5767   9.5900   9.6024
     9.6034   9.6178   9.6976   9.6997   9.7565   9.8023   9.8028   9.8072
     9.8365   9.8390   9.8440   9.8459   9.8628   9.8822  10.0152  10.0420
    10.0772  10.1025  10.1145  10.1343  10.1571  10.1640  10.1719  10.1751
    10.1864  10.1909  10.1939  10.2029  10.2196  10.2225  10.2227  10.2263
    10.2323  10.2340  10.2370  10.3051  10.4265  10.4659  10.4764  10.4826
    10.4950  10.4986  10.5115  10.5703  10.5789  10.6191  10.6287  10.6327
    10.6497  10.6560  10.6640  10.6670  10.7105  10.7116  10.7199  10.7204
    10.7481  10.8014  10.8074  10.8188  10.8455  10.8532  10.8688  10.8716
    10.8895  10.9423  11.2013  11.2105  11.2121  11.2282  11.3195  11.3210
    11.3423  11.3540  11.3637  11.3648  11.3743  11.3827  11.4970  11.5752
    11.6270  11.6279  11.6357  11.6452  11.6483  11.6487  11.6495  11.6549
    11.6641  11.6741  11.7274  11.7309  11.7511  11.7716  11.8004  11.8279
    11.8677  11.8771  11.8787  11.8829  11.8864  11.8890  11.9661  11.9782
    12.0074  12.0278  12.0641  12.0679  12.0744  12.0787  12.0837  12.0841
    12.1087  12.1087  12.1145  12.1215  12.1461  12.1526  12.1534  12.1557
    12.1601  12.1613  12.1663  12.1764  12.1769  12.2037  12.2220  12.2649
    12.2800  12.2867  12.2882  12.2891  12.2912  12.2972  12.3145  12.4335
    12.4463  12.4502  12.4681  12.5077  12.5212  12.5237  12.5422  12.5698
    12.5700  12.5736  12.5773  12.5811  12.6142  12.6372  12.6418  12.6860
    12.7082  12.8034  12.8364  12.8644  12.8740  12.8895  12.9121  12.9303
    12.9683  13.0269  13.0411  13.0615  13.1524  13.6616  13.6632  13.6764
    13.6786  13.6816  13.6998  13.7750  13.8185  14.0166  14.2589  14.3493
    14.4146  14.4152  14.4318  14.4685  14.5138  14.5707  14.7716  14.8268
    14.8302  14.8888  15.1385  15.1387  15.3313  15.3641  15.6761  15.7354
    15.7357  15.8106  15.8241  15.8334  15.9152  15.9331  15.9945  16.0458
    16.0460  16.0533  16.0941  16.1459  16.1606  16.1686  16.1739  16.1967
    16.2162  16.2395  16.2961  16.3113  16.3410  16.3736  16.3743  16.3802
    16.4666  16.4684  16.5213  16.5954  16.6488  16.6644  16.7751  16.8023
    16.8242  16.8371  16.8866  16.8965  17.3869  17.3905  17.7056  17.8801
    18.0869  18.1949  18.2164  18.2178  18.2582  18.4276  18.4427  18.5761
    18.5847  18.6285  18.6309  18.6382  18.7394  18.7922  18.8052  18.8259

          k =-0.5000-0.5000-0.5734 ( 31672 PWs)   bands (ev):

   -66.7853 -66.6984 -66.6983 -66.6586 -66.6583 -66.6188 -66.5911 -66.5907
   -66.5902 -62.3808 -62.3729 -62.3726 -62.3630 -62.3629 -62.3567 -62.3565
   -62.3515 -62.3158 -35.5473 -35.5231 -35.5103 -35.4670 -35.4669 -35.4580
   -35.4579 -35.4330 -35.4327 -35.4058 -35.4055 -35.4034 -35.4031 -35.3883
   -35.3770 -35.3741 -35.3664 -35.3661 -35.3483 -35.3479 -35.3461 -35.3456
   -35.3335 -35.3229 -35.3103 -35.3098 -35.2996 -31.2285 -31.2282 -31.2266
   -31.2056 -31.2049 -31.2018 -31.2014 -31.1991 -31.1949 -31.1932 -31.1918
   -31.1909 -31.1866 -31.1863 -31.1798 -31.1795 -31.1793 -31.1744 -31.1733
   -31.1730 -31.1727 -31.1635 -31.1634 -31.1611 -31.1543 -31.1388 -31.1369
     6.9007   6.9122   6.9452   6.9766   6.9902   6.9956   7.0178   7.0345
     8.4615   8.4637   8.4700   8.4775   8.4867   8.4899   8.4950   8.4959
     8.4970   8.4991   8.5329   8.5378   8.5402   8.5476   8.5665   8.5672
     8.5679   8.5821   8.5839   8.5985   8.8818   8.8870   8.8969   8.9041
     8.9136   8.9142   8.9350   8.9385   9.0958   9.1063   9.1201   9.1251
     9.1377   9.1403   9.1454   9.1489   9.1519   9.1545   9.1619   9.1629
     9.1650   9.1680   9.1701   9.1715   9.1738   9.1742   9.1748   9.1788
     9.1802   9.1927   9.1930   9.1959   9.1996   9.2039   9.2182   9.2188
     9.2285   9.2424   9.2433   9.2492   9.2629   9.2747   9.2775   9.2808
     9.5371   9.5440   9.5589   9.5621   9.6087   9.6127   9.6221   9.6332
     9.6657   9.6777   9.6933   9.7125   9.7131   9.7249   9.7373   9.7634
     9.8224   9.8272   9.8419   9.8531   9.8711   9.8850   9.8896   9.8964
    10.1355  10.1418  10.1483  10.1521  10.1545  10.1643  10.1748  10.1785
    10.2947  10.3082  10.4432  10.4512  10.4535  10.4591  10.4857  10.4884
    10.4888  10.4895  10.5009  10.5058  10.5061  10.5106  10.5164  10.5184
    10.5214  10.5241  10.5297  10.5356  10.5381  10.5629  10.5930  10.6041
    10.6384  10.6409  10.6421  10.6514  10.6577  10.6596  10.6669  10.6710
    10.6769  10.6862  10.6960  10.7081  10.7315  10.7342  11.0339  11.0449
    11.0837  11.0891  11.1091  11.1221  11.1244  11.1359  11.3759  11.3834
    11.3947  11.3980  11.4332  11.4376  11.4415  11.4550  11.4604  11.4645
    11.4792  11.4876  11.5071  11.5219  11.5286  11.5436  11.5814  11.5868
    11.6457  11.6488  11.6534  11.6634  11.6690  11.6994  11.7136  11.7187
    11.7268  11.7299  11.7467  11.7601  11.7783  11.7850  11.7855  11.7959
    11.8083  11.8133  11.8223  11.8346  11.8602  11.9141  12.0179  12.0302
    12.0396  12.0661  12.0691  12.0850  12.1056  12.1353  12.1366  12.1514
    12.2031  12.2307  12.2438  12.2713  12.2770  12.2808  12.2944  12.3335
    12.3660  12.3671  12.3713  12.3956  12.4165  12.4494  12.4625  12.4704
    12.4729  12.4823  12.5112  12.5256  12.5317  12.5539  12.5568  12.5740
    12.5906  12.6003  12.6256  12.6883  12.7379  12.7649  12.7886  12.8357
    12.8638  12.8681  13.0980  13.1015  13.1688  13.2305  13.2437  13.2468
    13.2507  13.2854  13.2870  13.3346  13.3578  13.4269  13.5111  13.5656
    13.6135  13.6154  13.6185  13.8929  13.9362  13.9414  14.0973  14.1255
    14.1924  14.5517  14.5903  14.6392  14.7397  14.7583  14.8415  14.8743
    15.0103  15.0897  15.1419  15.2181  15.3045  15.4767  15.4892  15.6587
    15.7247  15.7582  15.7784  15.8269  15.8661  16.0103  16.0536  16.0886
    16.1429  16.1585  16.1734  16.1834  16.1937  16.2205  16.2406  16.2428
    16.2738  16.2919  16.3048  16.3464  16.3494  16.4165  16.4325  16.4694
    16.5033  16.5611  16.5718  16.5861  16.6428  16.6672  16.6791  16.6819
    16.6963  16.7041  16.7625  16.8308  16.9105  16.9197  16.9602  17.0174
    17.0224  17.0257  17.6990  17.8029  17.8095  17.8548  19.0518  19.0643
    19.0754  19.1242  19.1268  19.1396  19.1899  19.2152  19.2180  19.2783

          k =-0.5000 0.0000 0.0000 ( 31722 PWs)   bands (ev):

   -66.7853 -66.6984 -66.6983 -66.6586 -66.6583 -66.6188 -66.5911 -66.5907
   -66.5902 -62.3808 -62.3729 -62.3726 -62.3630 -62.3629 -62.3567 -62.3565
   -62.3515 -62.3158 -35.5473 -35.5231 -35.5103 -35.4670 -35.4669 -35.4580
   -35.4579 -35.4330 -35.4327 -35.4058 -35.4055 -35.4034 -35.4031 -35.3883
   -35.3770 -35.3741 -35.3665 -35.3661 -35.3483 -35.3479 -35.3461 -35.3456
   -35.3335 -35.3229 -35.3103 -35.3098 -35.2996 -31.2285 -31.2282 -31.2266
   -31.2056 -31.2049 -31.2018 -31.2014 -31.1991 -31.1949 -31.1932 -31.1918
   -31.1909 -31.1865 -31.1863 -31.1798 -31.1795 -31.1793 -31.1744 -31.1733
   -31.1730 -31.1727 -31.1635 -31.1634 -31.1611 -31.1543 -31.1388 -31.1369
     6.0419   6.0499   7.4222   7.4388   7.4612   7.4835   7.6715   7.6830
     8.1110   8.1140   8.1297   8.1640   8.2231   8.2356   8.2436   8.2752
     8.4115   8.4291   8.4566   8.4795   8.6311   8.6399   8.6497   8.6571
     8.6697   8.6733   8.6779   8.6955   8.7804   8.8062   8.8307   8.8411
     8.8573   8.8587   8.8781   8.8853   8.8964   8.9023   8.9093   8.9295
     8.9317   8.9367   8.9427   8.9545   9.0447   9.0538   9.1592   9.1678
     9.1766   9.2105   9.2155   9.2268   9.2394   9.2483   9.3036   9.3367
     9.3509   9.3767   9.4017   9.4177   9.4774   9.4816   9.4991   9.5071
     9.5413   9.5418   9.5588   9.5634   9.5899   9.6075   9.6091   9.6192
     9.6284   9.6298   9.6322   9.6343   9.6377   9.6377   9.6440   9.6575
     9.6664   9.6776   9.6815   9.6848   9.6928   9.7105   9.7207   9.7280
     9.7434   9.7470   9.7505   9.7733   9.8973   9.8994   9.9354   9.9565
    10.0136  10.0347  10.1628  10.1844  10.2059  10.2182  10.2542  10.2569
    10.2592  10.2657  10.2750  10.2796  10.2824  10.2857  10.3425  10.3594
    10.3729  10.3810  10.3844  10.3887  10.4300  10.4416  10.4632  10.4830
    10.5078  10.5294  10.5309  10.5490  10.5601  10.5672  10.5691  10.5984
    10.6097  10.6566  10.6655  10.7023  10.7109  10.7212  10.7330  10.7480
    10.8064  10.8174  10.8338  10.8504  10.8682  10.9038  10.9178  10.9308
    10.9940  11.0032  11.0200  11.0225  11.0386  11.0568  11.1743  11.1812
    11.2964  11.3398  11.3480  11.3496  11.3760  11.3808  11.3813  11.4023
    11.4081  11.4308  11.4359  11.4850  11.5082  11.5225  11.5483  11.5774
    11.6018  11.6044  11.6315  11.6318  11.6611  11.6746  11.7138  11.7457
    11.7681  11.7737  11.8126  11.8369  11.8375  11.8453  11.8524  11.8610
    11.8754  11.8906  11.9015  11.9122  11.9158  11.9428  11.9462  11.9643
    11.9794  11.9880  11.9909  11.9991  12.0335  12.1076  12.1332  12.1380
    12.1654  12.1907  12.1950  12.2052  12.2108  12.2358  12.2461  12.2810
    12.2965  12.3412  12.3613  12.3859  12.3886  12.4159  12.4283  12.4551
    12.4641  12.4961  12.5003  12.5292  12.5302  12.5523  12.5641  12.5723
    12.5753  12.6012  12.6055  12.6181  12.6778  12.6927  12.7370  12.8161
    12.8812  12.9307  13.0631  13.0742  13.0803  13.0873  13.1178  13.1506
    13.1808  13.2019  13.2224  13.2434  13.2533  13.2967  13.3149  13.3763
    13.4211  13.5532  13.5542  13.6214  13.7094  14.4305  14.4624  14.5358
    14.5905  14.6860  14.7530  14.7966  14.8044  14.8626  14.8739  14.9936
    15.0394  15.1431  15.1485  15.3227  15.3615  15.4367  15.5278  15.6004
    15.6961  15.7327  15.7521  15.8204  15.8662  15.8990  15.9447  16.0446
    16.0633  16.0946  16.1106  16.1338  16.1353  16.1677  16.1681  16.1736
    16.2035  16.2086  16.2270  16.2407  16.2841  16.3062  16.3334  16.3569
    16.4054  16.4308  16.5062  16.5977  16.6694  16.7457  16.9923  17.0745
    17.1520  17.2171  17.2738  17.3230  17.4043  17.4807  17.6361  17.6432
    17.7635  17.7978  17.8006  17.8187  17.8638  17.8739  17.8827  17.9281
    17.9336  18.0943  18.1792  18.1992  19.2564  19.2724  19.3568  19.3691

          k =-0.5000 0.0000 0.5734 ( 31696 PWs)   bands (ev):

   -66.7853 -66.6984 -66.6983 -66.6586 -66.6583 -66.6188 -66.5911 -66.5907
   -66.5902 -62.3808 -62.3729 -62.3726 -62.3630 -62.3629 -62.3567 -62.3565
   -62.3515 -62.3158 -35.5473 -35.5231 -35.5103 -35.4670 -35.4669 -35.4580
   -35.4579 -35.4330 -35.4327 -35.4058 -35.4055 -35.4034 -35.4031 -35.3883
   -35.3770 -35.3741 -35.3665 -35.3661 -35.3483 -35.3479 -35.3461 -35.3456
   -35.3335 -35.3229 -35.3103 -35.3098 -35.2996 -31.2285 -31.2282 -31.2266
   -31.2056 -31.2049 -31.2018 -31.2014 -31.1991 -31.1949 -31.1932 -31.1918
   -31.1909 -31.1865 -31.1863 -31.1798 -31.1795 -31.1793 -31.1744 -31.1733
   -31.1730 -31.1727 -31.1635 -31.1634 -31.1611 -31.1543 -31.1388 -31.1369
     6.5580   6.5745   6.5978   6.6146   7.8405   7.8517   7.8794   7.8901
     7.8976   7.9098   7.9268   7.9436   8.2735   8.2764   8.3060   8.3069
     8.5226   8.5247   8.5331   8.5331   8.6541   8.6569   8.6799   8.6874
     8.6918   8.6928   8.7073   8.7204   8.7321   8.7441   8.7568   8.7574
     8.7686   8.7699   8.7879   8.8025   8.9822   8.9981   9.0148   9.0346
     9.0385   9.0466   9.0484   9.0554   9.2132   9.2173   9.2208   9.2215
     9.2224   9.2315   9.2330   9.2460   9.2485   9.2523   9.2558   9.2566
     9.2615   9.2692   9.2845   9.2897   9.2912   9.3175   9.3952   9.4025
     9.4316   9.4356   9.4371   9.4556   9.4623   9.4664   9.4676   9.4816
     9.4835   9.5014   9.5175   9.5260   9.5276   9.5514   9.5608   9.5681
     9.5739   9.5896   9.7563   9.7584   9.7940   9.8017   9.8077   9.8288
     9.8291   9.8297   9.8503   9.8545   9.8564   9.8612   9.8616   9.8742
     9.9728   9.9802   9.9925   9.9962  10.0216  10.0260  10.0636  10.0663
    10.3715  10.3778  10.3983  10.4013  10.4030  10.4094  10.4145  10.4512
    10.4652  10.4672  10.4761  10.4772  10.4964  10.4969  10.5137  10.5143
    10.5354  10.5514  10.5631  10.5760  10.5924  10.6100  10.6183  10.6203
    10.6297  10.6329  10.6621  10.6727  10.6801  10.6813  10.6869  10.6967
    10.7728  10.7909  10.9532  10.9597  10.9844  10.9935  11.0409  11.0478
    11.1193  11.1235  11.1360  11.1562  11.1692  11.1856  11.2123  11.2130
    11.2184  11.2282  11.2901  11.3286  11.3352  11.3375  11.3648  11.3677
    11.3745  11.3771  11.4236  11.4248  11.4349  11.4408  11.5067  11.5133
    11.5304  11.5593  11.5684  11.5733  11.5870  11.6114  11.6242  11.6306
    11.6363  11.6367  11.7344  11.7507  11.7558  11.7656  11.8255  11.8849
    11.8900  11.9227  11.9272  11.9386  11.9485  11.9851  12.0182  12.0194
    12.0318  12.0370  12.0404  12.0444  12.0445  12.0739  12.0914  12.1331
    12.1467  12.1741  12.1928  12.2224  12.2611  12.2680  12.2733  12.3044
    12.3722  12.3822  12.4039  12.4083  12.4392  12.4543  12.4694  12.5055
    12.5059  12.5410  12.5461  12.5613  12.5670  12.6000  12.6029  12.6102
    12.6170  12.6459  12.6461  12.6516  12.6676  12.7040  12.7164  12.7691
    12.7738  12.8567  12.8694  12.9226  13.0118  13.0431  13.0473  13.0714
    13.0875  13.3771  13.5032  13.5164  13.6350  13.7219  13.7445  13.7878
    13.8056  13.9852  14.0257  14.0872  14.0982  14.2641  14.3448  14.3592
    14.4008  14.5195  14.5535  14.5571  14.6261  14.8604  14.8652  15.1085
    15.2069  15.2284  15.2493  15.2709  15.2951  15.3516  15.3943  15.5104
    15.5919  15.6388  15.6838  15.8751  15.8873  15.9733  15.9820  16.0213
    16.0500  16.0753  16.1094  16.1281  16.1547  16.1865  16.2166  16.2357
    16.2679  16.3055  16.3443  16.3535  16.3811  16.3912  16.4128  16.4417
    16.4764  16.4994  16.5348  16.5607  16.5964  16.6218  16.6616  16.6802
    16.6939  16.7056  16.7253  16.7690  16.8840  16.8845  16.9982  17.0498
    17.0835  17.1317  17.2698  17.3198  18.6749  18.7053  18.7299  18.7521
    18.7793  18.7840  18.8527  18.8727  18.9114  18.9199  18.9394  18.9617

 ------ SPIN DOWN ----------


          k = 0.0000 0.0000 0.0000 ( 31747 PWs)   bands (ev):

   -66.7231 -66.7230 -66.7054 -66.7039 -66.7037 -66.6991 -66.6364 -66.6363
   -66.6347 -62.4504 -62.3716 -62.3716 -62.3644 -62.3579 -62.3577 -62.3425
   -62.3422 -62.3231 -35.5155 -35.5154 -35.4919 -35.4917 -35.4890 -35.4756
   -35.4685 -35.4684 -35.4659 -35.4416 -35.4414 -35.4414 -35.4299 -35.4164
   -35.4162 -35.4114 -35.4112 -35.4017 -35.3929 -35.3927 -35.3919 -35.3918
   -35.3832 -35.3776 -35.3542 -35.3541 -35.3506 -31.2917 -31.2768 -31.2533
   -31.2346 -31.2345 -31.2246 -31.1958 -31.1949 -31.1870 -31.1868 -31.1841
   -31.1836 -31.1804 -31.1803 -31.1778 -31.1731 -31.1729 -31.1727 -31.1725
   -31.1697 -31.1683 -31.1681 -31.1641 -31.1474 -31.1461 -31.1459 -31.1281
     5.6113   7.1307   7.1383   7.2126   7.2201   7.3604   7.8487   7.8832
     7.8889   7.9612   8.0794   8.0800   8.1506   8.1731   8.1814   8.2572
     8.2600   8.2844   8.2872   8.5150   8.5424   8.5560   8.5722   8.5922
     8.6284   8.8584   8.8616   8.8681   8.8797   8.8815   8.8817   8.8826
     8.8865   8.8956   8.9114   8.9151   8.9310   8.9436   8.9681   8.9727
     8.9789   9.0810   9.1183   9.1247   9.1249   9.1345   9.1531   9.1637
     9.1800   9.1955   9.2169   9.2711   9.2869   9.2883   9.3076   9.3260
     9.3436   9.3544   9.3650   9.3697   9.3909   9.4008   9.4039   9.4376
     9.4467   9.4495   9.4502   9.4565   9.4661   9.4672   9.4707   9.5754
     9.5768   9.5876   9.5913   9.6197   9.6220   9.6533   9.6665   9.6681
     9.6690   9.6731   9.6745   9.7396   9.7502   9.7687   9.7826   9.8459
     9.8499   9.9127   9.9191   9.9284   9.9391   9.9439  10.0105  10.0377
    10.0523  10.1087  10.1148  10.2112  10.2698  10.2840  10.2916  10.2936
    10.3037  10.3070  10.3127  10.3205  10.3236  10.3266  10.3270  10.3351
    10.3423  10.3435  10.3638  10.3647  10.3670  10.3693  10.3781  10.3815
    10.4000  10.5046  10.5150  10.5170  10.6011  10.6156  10.6216  10.6341
    10.6947  10.7764  10.7875  10.8050  10.8097  10.8133  10.8431  10.8445
    10.8556  10.8637  10.8682  10.8741  10.8768  10.8828  10.8846  10.8974
    10.9089  10.9090  11.0268  11.0283  11.0346  11.0684  11.0732  11.1331
    11.2090  11.2157  11.2281  11.2334  11.2649  11.2748  11.3202  11.3249
    11.3919  11.3938  11.3960  11.3982  11.4077  11.4302  11.4387  11.4392
    11.4858  11.5603  11.5637  11.5874  11.5904  11.5921  11.5977  11.6010
    11.6392  11.6528  11.6857  11.7224  11.7232  11.7483  11.7508  11.7536
    11.8190  11.8534  11.8555  11.8684  11.8784  11.9337  11.9347  11.9427
    11.9453  11.9700  12.0974  12.0982  12.1031  12.1032  12.1352  12.1432
    12.1449  12.1476  12.1483  12.1548  12.1628  12.1719  12.1974  12.1979
    12.2182  12.2438  12.2562  12.2781  12.3094  12.3364  12.3768  12.4236
    12.4275  12.4334  12.4363  12.4485  12.4934  12.5185  12.5260  12.5343
    12.5382  12.5573  12.5627  12.5674  12.5726  12.6240  12.6638  12.6986
    12.7274  12.7283  12.7304  12.8392  12.8418  12.8649  12.9414  13.0052
    13.0416  13.0753  13.1402  13.1858  13.4814  13.5435  13.7531  13.7859
    14.0678  14.1762  14.1805  14.1916  14.2675  14.4108  14.4319  14.4438
    14.6737  14.8432  14.8868  15.0105  15.0123  15.0978  15.2412  15.2696
    15.2907  15.2939  15.3435  15.3447  15.3564  15.3804  15.4798  15.5445
    15.5540  15.5700  15.6638  15.7996  15.8430  15.9018  15.9848  15.9984
    16.0208  16.0359  16.1041  16.1144  16.1368  16.1796  16.1969  16.2237
    16.2312  16.2627  16.2750  16.2829  16.3357  16.3455  16.3667  16.3940
    16.4278  16.5083  16.5533  16.6634  16.6887  16.6891  16.7092  16.9250
    16.9543  17.0269  17.1505  17.1693  17.1940  17.2097  17.2781  17.3221
    17.4608  17.5012  17.7849  17.8827  17.9330  17.9448  17.9756  17.9949
    18.2879  18.2993  18.4934  18.9013  19.0319  19.0332  19.1582  19.1961

          k = 0.0000 0.0000-0.5734 ( 31692 PWs)   bands (ev):

   -66.7231 -66.7230 -66.7054 -66.7039 -66.7037 -66.6991 -66.6364 -66.6363
   -66.6347 -62.4504 -62.3716 -62.3716 -62.3644 -62.3579 -62.3577 -62.3425
   -62.3422 -62.3231 -35.5155 -35.5154 -35.4919 -35.4917 -35.4890 -35.4756
   -35.4685 -35.4684 -35.4659 -35.4416 -35.4414 -35.4414 -35.4299 -35.4164
   -35.4162 -35.4114 -35.4112 -35.4017 -35.3929 -35.3927 -35.3919 -35.3918
   -35.3832 -35.3776 -35.3542 -35.3541 -35.3506 -31.2917 -31.2768 -31.2533
   -31.2346 -31.2345 -31.2246 -31.1958 -31.1949 -31.1870 -31.1868 -31.1841
   -31.1836 -31.1804 -31.1803 -31.1778 -31.1731 -31.1729 -31.1727 -31.1726
   -31.1697 -31.1683 -31.1681 -31.1641 -31.1474 -31.1461 -31.1459 -31.1281
     6.1718   6.1904   7.5223   7.5423   7.5453   7.5522   7.6013   7.6071
     7.6215   7.6360   8.3015   8.3169   8.3249   8.3365   8.3409   8.3499
     8.3904   8.3978   8.4583   8.4655   8.4704   8.4704   8.4872   8.4941
     8.5213   8.5237   8.6911   8.6989   8.7611   8.7785   8.9404   8.9531
     8.9675   8.9695   8.9719   8.9901   8.9939   9.0121   9.0141   9.0184
     9.0228   9.0368   9.0380   9.0387   9.0690   9.0768   9.2157   9.2183
     9.2326   9.2381   9.2476   9.2499   9.2581   9.2660   9.2706   9.2770
     9.2791   9.2807   9.2865   9.2928   9.2941   9.2946   9.4122   9.4203
     9.4229   9.4244   9.4394   9.4399   9.4622   9.4631   9.4741   9.4773
     9.4783   9.4805   9.4986   9.5112   9.5156   9.5223   9.6332   9.6596
     9.7729   9.7798   9.7854   9.7903   9.8240   9.8256   9.8304   9.8406
     9.8719   9.8724   9.8814   9.8825   9.8832   9.8833   9.8889   9.8909
    10.0562  10.0583  10.0586  10.0612  10.1483  10.1572  10.1572  10.1631
    10.1657  10.1706  10.1739  10.1886  10.1906  10.1966  10.3550  10.3558
    10.3725  10.3781  10.3968  10.4051  10.4071  10.4199  10.4822  10.5069
    10.5806  10.5830  10.6001  10.6018  10.6182  10.6254  10.6276  10.6512
    10.6577  10.6666  10.7352  10.7545  10.7701  10.8066  10.8166  10.8605
    10.9166  10.9327  10.9375  10.9490  10.9517  10.9605  11.0431  11.0883
    11.0892  11.1091  11.1349  11.1423  11.1719  11.1849  11.1987  11.2272
    11.2430  11.2442  11.2453  11.2569  11.2659  11.2669  11.2700  11.2779
    11.2799  11.2818  11.2823  11.2890  11.2935  11.2965  11.2974  11.3033
    11.3035  11.3174  11.3183  11.3245  11.5192  11.5297  11.7105  11.7123
    11.7136  11.7142  11.7145  11.7186  11.7320  11.7338  11.7382  11.7466
    11.7483  11.7522  11.7624  11.7755  11.7863  11.8502  11.8879  11.9209
    11.9736  11.9852  12.0088  12.0146  12.0246  12.0352  12.0668  12.0828
    12.0837  12.1445  12.1543  12.2289  12.2570  12.2578  12.2683  12.4224
    12.4400  12.4427  12.4560  12.4659  12.4745  12.4759  12.4879  12.4982
    12.5128  12.5155  12.5313  12.5421  12.5523  12.6111  12.6117  12.6200
    12.6246  12.6506  12.6513  12.6994  12.7604  12.7685  12.7937  12.8175
    12.8338  12.8631  12.9681  13.0238  13.1213  13.1785  13.1926  13.2467
    13.2565  13.3186  13.4059  13.4535  13.4635  13.5056  13.7158  13.7317
    13.7609  13.8984  14.0134  14.0667  14.0787  14.2551  14.3819  14.5451
    14.7195  14.8353  14.8600  14.9760  15.0021  15.0116  15.0324  15.0681
    15.0941  15.1672  15.1808  15.2093  15.2331  15.3567  15.4399  15.5842
    15.7250  15.7372  15.7376  15.7498  15.8013  15.9230  15.9322  15.9766
    16.0467  16.0586  16.1275  16.1346  16.1365  16.1446  16.1718  16.1792
    16.1907  16.2079  16.2234  16.2308  16.2429  16.2539  16.2826  16.2884
    16.4203  16.4501  16.5547  16.5875  16.6082  16.6289  16.7425  16.7606
    16.7685  16.7970  17.3529  17.4010  17.4046  17.4412  17.5591  17.5614
    17.5831  17.6086  17.7279  17.7454  17.7637  17.7660  17.7733  17.8159
    17.8289  17.8464  18.0940  18.1325  18.1827  18.2367  18.2898  18.3403

          k = 0.0000-0.5000 0.0000 ( 31722 PWs)   bands (ev):

   -66.7231 -66.7230 -66.7054 -66.7039 -66.7037 -66.6991 -66.6364 -66.6363
   -66.6347 -62.4504 -62.3716 -62.3716 -62.3644 -62.3579 -62.3577 -62.3425
   -62.3422 -62.3231 -35.5155 -35.5154 -35.4919 -35.4917 -35.4890 -35.4756
   -35.4685 -35.4684 -35.4659 -35.4416 -35.4414 -35.4414 -35.4299 -35.4164
   -35.4162 -35.4114 -35.4112 -35.4017 -35.3929 -35.3927 -35.3919 -35.3918
   -35.3832 -35.3776 -35.3542 -35.3541 -35.3506 -31.2917 -31.2768 -31.2533
   -31.2346 -31.2345 -31.2246 -31.1958 -31.1949 -31.1870 -31.1868 -31.1841
   -31.1836 -31.1804 -31.1803 -31.1778 -31.1731 -31.1729 -31.1727 -31.1726
   -31.1697 -31.1683 -31.1681 -31.1641 -31.1474 -31.1461 -31.1459 -31.1281
     6.0261   6.0513   7.4037   7.4336   7.4673   7.4756   7.6701   7.6733
     8.1032   8.1096   8.1231   8.1319   8.2140   8.2255   8.2553   8.2807
     8.3992   8.4343   8.4524   8.4656   8.6256   8.6289   8.6496   8.6529
     8.6535   8.6739   8.6771   8.6856   8.7826   8.8048   8.8164   8.8230
     8.8459   8.8627   8.8745   8.8885   8.8918   8.9007   8.9025   8.9213
     8.9289   8.9341   8.9359   8.9507   9.0434   9.0467   9.1524   9.1631
     9.1742   9.2002   9.2148   9.2195   9.2326   9.2508   9.3072   9.3211
     9.3411   9.3622   9.3925   9.4276   9.4680   9.4773   9.4920   9.5179
     9.5327   9.5387   9.5441   9.5613   9.5893   9.5991   9.6100   9.6177
     9.6231   9.6235   9.6273   9.6318   9.6320   9.6343   9.6345   9.6373
     9.6635   9.6685   9.6734   9.6870   9.6991   9.7089   9.7120   9.7256
     9.7334   9.7359   9.7566   9.7757   9.8877   9.8988   9.9286   9.9499
    10.0154  10.0238  10.1562  10.1795  10.2003  10.2044  10.2358  10.2449
    10.2514  10.2664  10.2709  10.2775  10.2803  10.2875  10.3382  10.3575
    10.3739  10.3767  10.3824  10.3824  10.4235  10.4364  10.4562  10.4656
    10.5102  10.5139  10.5271  10.5536  10.5542  10.5601  10.5710  10.5720
    10.6117  10.6463  10.6686  10.6954  10.7019  10.7211  10.7216  10.7261
    10.8128  10.8314  10.8337  10.8419  10.8592  10.8691  10.9247  10.9368
    10.9854  10.9998  11.0089  11.0192  11.0398  11.0480  11.1701  11.1779
    11.2817  11.3424  11.3443  11.3533  11.3603  11.3669  11.3729  11.3920
    11.3930  11.4072  11.4268  11.4578  11.4831  11.5139  11.5489  11.5856
    11.5970  11.5987  11.6372  11.6534  11.6578  11.6679  11.6777  11.7408
    11.7626  11.7819  11.7873  11.8180  11.8318  11.8382  11.8465  11.8545
    11.8691  11.8787  11.8999  11.9010  11.9190  11.9201  11.9344  11.9467
    11.9554  11.9693  11.9784  11.9854  12.0619  12.0936  12.1210  12.1473
    12.1858  12.1955  12.2050  12.2080  12.2216  12.2282  12.2516  12.2715
    12.2813  12.3037  12.3086  12.3656  12.3750  12.3885  12.3946  12.4279
    12.4604  12.4682  12.4834  12.4888  12.5111  12.5231  12.5311  12.5620
    12.5728  12.5783  12.5984  12.6267  12.6752  12.6957  12.7299  12.8350
    12.8549  12.8747  12.9805  13.0282  13.0325  13.0807  13.0851  13.1139
    13.1705  13.1772  13.1898  13.2410  13.2644  13.2817  13.3235  13.3389
    13.4374  13.5344  13.5579  13.6075  13.6353  14.4441  14.4751  14.5828
    14.6562  14.6725  14.6843  14.7742  14.8270  14.8581  14.8757  14.9798
    15.0563  15.1086  15.1708  15.2400  15.2700  15.4097  15.4916  15.5601
    15.7046  15.7076  15.8043  15.8159  15.8869  15.9370  15.9573  16.0269
    16.0537  16.0809  16.0809  16.1055  16.1194  16.1367  16.1507  16.1858
    16.2300  16.2414  16.2545  16.2582  16.2685  16.2822  16.3024  16.3842
    16.4530  16.4921  16.5306  16.6113  16.6449  16.7281  16.9759  17.0469
    17.1586  17.2166  17.2440  17.3274  17.4022  17.4415  17.6170  17.6302
    17.7058  17.7450  17.8100  17.8197  17.8656  17.8893  17.9038  17.9297
    17.9398  18.1074  18.1505  18.2051  19.2523  19.2733  19.3396  19.3539

          k = 0.0000-0.5000-0.5734 ( 31696 PWs)   bands (ev):

   -66.7231 -66.7230 -66.7054 -66.7039 -66.7037 -66.6991 -66.6364 -66.6363
   -66.6347 -62.4504 -62.3716 -62.3716 -62.3644 -62.3579 -62.3577 -62.3425
   -62.3422 -62.3231 -35.5155 -35.5154 -35.4919 -35.4917 -35.4890 -35.4756
   -35.4685 -35.4684 -35.4659 -35.4416 -35.4414 -35.4414 -35.4299 -35.4164
   -35.4162 -35.4114 -35.4112 -35.4017 -35.3929 -35.3927 -35.3919 -35.3918
   -35.3832 -35.3776 -35.3542 -35.3541 -35.3506 -31.2917 -31.2768 -31.2533
   -31.2346 -31.2345 -31.2246 -31.1958 -31.1949 -31.1870 -31.1868 -31.1841
   -31.1836 -31.1804 -31.1803 -31.1778 -31.1731 -31.1729 -31.1727 -31.1726
   -31.1697 -31.1683 -31.1681 -31.1641 -31.1474 -31.1461 -31.1459 -31.1281
     6.5532   6.5689   6.5874   6.6071   7.8352   7.8423   7.8633   7.8803
     7.8933   7.9127   7.9236   7.9364   8.2678   8.2718   8.2991   8.3005
     8.5143   8.5169   8.5253   8.5280   8.6406   8.6447   8.6774   8.6807
     8.6919   8.6937   8.6964   8.7094   8.7315   8.7395   8.7477   8.7507
     8.7646   8.7733   8.7888   8.7992   8.9773   8.9927   9.0111   9.0302
     9.0323   9.0404   9.0444   9.0515   9.2073   9.2100   9.2105   9.2162
     9.2163   9.2222   9.2251   9.2370   9.2449   9.2525   9.2542   9.2586
     9.2608   9.2748   9.2806   9.2826   9.2878   9.3092   9.3871   9.3949
     9.4217   9.4221   9.4276   9.4527   9.4620   9.4669   9.4685   9.4784
     9.4878   9.5045   9.5137   9.5157   9.5240   9.5460   9.5487   9.5529
     9.5696   9.5849   9.7535   9.7557   9.7894   9.7955   9.8014   9.8167
     9.8188   9.8262   9.8452   9.8495   9.8532   9.8619   9.8641   9.8721
     9.9562   9.9590   9.9998  10.0080  10.0340  10.0347  10.0410  10.0469
    10.3766  10.3798  10.3845  10.3861  10.4018  10.4056  10.4098  10.4430
    10.4559  10.4639  10.4709  10.4751  10.4809  10.4817  10.5048  10.5092
    10.5195  10.5271  10.5389  10.5671  10.5776  10.5825  10.6068  10.6077
    10.6268  10.6294  10.6671  10.6673  10.6734  10.6759  10.7215  10.7478
    10.7930  10.7935  10.9185  10.9270  10.9895  10.9934  11.0193  11.0297
    11.1210  11.1304  11.1350  11.1444  11.1554  11.1819  11.2026  11.2057
    11.2113  11.2158  11.2685  11.3047  11.3306  11.3328  11.3577  11.3611
    11.3739  11.3785  11.4192  11.4244  11.4324  11.4354  11.5021  11.5141
    11.5315  11.5525  11.5643  11.5723  11.5793  11.6004  11.6210  11.6292
    11.6381  11.6411  11.7282  11.7424  11.7502  11.7598  11.8116  11.8673
    11.8719  11.9236  11.9318  11.9463  11.9510  11.9782  11.9975  11.9977
    12.0219  12.0233  12.0345  12.0371  12.0382  12.0594  12.0866  12.1354
    12.1412  12.1570  12.1889  12.2121  12.2506  12.2711  12.2902  12.2956
    12.3275  12.3406  12.3621  12.3938  12.4123  12.4610  12.4633  12.4717
    12.4838  12.4914  12.5138  12.5205  12.5254  12.5393  12.5635  12.5918
    12.5984  12.6111  12.6259  12.6391  12.6415  12.6487  12.6491  12.7618
    12.8707  12.9091  12.9109  12.9741  12.9746  13.0439  13.0524  13.0754
    13.0775  13.3640  13.3671  13.3709  13.5611  13.6342  13.7339  13.8666
    13.9262  13.9807  13.9963  14.0435  14.1234  14.2390  14.3172  14.4752
    14.4862  14.5433  14.5452  14.5552  14.5825  14.7248  14.7409  14.9383
    15.0603  15.1445  15.2331  15.3177  15.3543  15.4720  15.4923  15.5977
    15.6249  15.7459  15.8210  15.8551  15.8798  15.9103  15.9109  15.9617
    15.9636  16.0258  16.0737  16.1526  16.1581  16.1845  16.1974  16.2472
    16.2772  16.2866  16.3037  16.3473  16.3489  16.3874  16.4252  16.4322
    16.4622  16.4659  16.4844  16.5807  16.6051  16.6147  16.6630  16.6768
    16.7181  16.7505  16.7943  16.8031  16.8705  16.8747  16.9922  17.0631
    17.0919  17.1232  17.2256  17.2836  18.6389  18.6647  18.7438  18.7738
    18.8043  18.8145  18.8400  18.8467  18.8737  18.9073  18.9505  18.9628

          k =-0.5000-0.5000 0.0000 ( 31612 PWs)   bands (ev):

   -66.7231 -66.7230 -66.7054 -66.7039 -66.7037 -66.6991 -66.6364 -66.6363
   -66.6347 -62.4504 -62.3716 -62.3716 -62.3644 -62.3579 -62.3577 -62.3425
   -62.3422 -62.3231 -35.5155 -35.5154 -35.4919 -35.4917 -35.4890 -35.4756
   -35.4685 -35.4684 -35.4659 -35.4416 -35.4414 -35.4414 -35.4299 -35.4164
   -35.4162 -35.4114 -35.4112 -35.4017 -35.3929 -35.3927 -35.3919 -35.3918
   -35.3832 -35.3776 -35.3542 -35.3541 -35.3506 -31.2917 -31.2768 -31.2533
   -31.2346 -31.2345 -31.2246 -31.1958 -31.1949 -31.1870 -31.1868 -31.1841
   -31.1836 -31.1804 -31.1803 -31.1778 -31.1731 -31.1729 -31.1727 -31.1726
   -31.1697 -31.1683 -31.1681 -31.1641 -31.1474 -31.1461 -31.1459 -31.1281
     6.3760   6.4357   6.4456   6.4920   8.0041   8.0094   8.0121   8.0241
     8.0855   8.1106   8.2673   8.3074   8.3135   8.3186   8.3274   8.3316
     8.3455   8.3503   8.3513   8.3781   8.3826   8.4273   8.5829   8.6233
     8.6349   8.6420   8.6846   8.6929   8.6945   8.7089   8.7261   8.7535
     8.7657   8.8066   8.9355   8.9388   8.9491   8.9499   8.9605   8.9724
     8.9752   9.0014   9.0029   9.0061   9.0144   9.0166   9.0171   9.0395
     9.1158   9.1234   9.3040   9.3103   9.3114   9.3207   9.3895   9.4013
     9.4049   9.4125   9.4282   9.4307   9.4309   9.4326   9.4424   9.4478
     9.4496   9.4658   9.4699   9.4783   9.4789   9.4877   9.4951   9.5141
     9.5176   9.5236   9.5377   9.5485   9.5517   9.5751   9.5869   9.5967
     9.6044   9.6089   9.6913   9.6962   9.7347   9.7970   9.8022   9.8157
     9.8272   9.8309   9.8322   9.8404   9.8611   9.8877   9.9628  10.0443
    10.0937  10.1053  10.1109  10.1389  10.1446  10.1464  10.1568  10.1620
    10.1825  10.1892  10.1926  10.2081  10.2128  10.2133  10.2261  10.2288
    10.2296  10.2313  10.2396  10.2605  10.4219  10.4673  10.4677  10.4852
    10.4898  10.4933  10.5063  10.5133  10.5654  10.6120  10.6126  10.6440
    10.6588  10.6599  10.6734  10.7006  10.7054  10.7096  10.7128  10.7167
    10.7746  10.7917  10.7953  10.8121  10.8145  10.8347  10.8626  10.8662
    10.8692  10.9383  11.1913  11.2069  11.2139  11.2245  11.3128  11.3132
    11.3339  11.3381  11.3604  11.3644  11.3686  11.3742  11.5591  11.5837
    11.6184  11.6243  11.6289  11.6424  11.6437  11.6453  11.6466  11.6490
    11.6545  11.6640  11.7015  11.7247  11.7288  11.7363  11.7568  11.7904
    11.8431  11.8745  11.8774  11.8801  11.8826  11.8860  11.9000  11.9588
    11.9972  12.0269  12.0450  12.0586  12.0595  12.0754  12.0931  12.1014
    12.1033  12.1067  12.1091  12.1158  12.1364  12.1526  12.1539  12.1565
    12.1569  12.1594  12.1640  12.1714  12.1859  12.1997  12.2071  12.2393
    12.2610  12.2718  12.2786  12.2828  12.2847  12.2941  12.3045  12.3593
    12.4099  12.4264  12.4313  12.4599  12.4957  12.5171  12.5370  12.5500
    12.5503  12.5541  12.5748  12.5878  12.5958  12.6618  12.6658  12.7169
    12.7318  12.7420  12.7695  12.8085  12.8320  12.8436  12.8476  12.9414
    12.9588  12.9648  13.0223  13.0334  13.1841  13.6506  13.6603  13.6688
    13.6722  13.6848  13.7023  13.8411  13.8553  13.9533  14.1874  14.2846
    14.2913  14.4250  14.4256  14.4585  14.4980  14.5009  14.7141  14.8363
    14.8710  15.0292  15.0922  15.1939  15.3001  15.3486  15.7231  15.7501
    15.7740  15.7819  15.8023  15.8150  15.8966  15.9684  16.0189  16.0450
    16.0629  16.0801  16.0814  16.1017  16.1503  16.1516  16.1568  16.1818
    16.2057  16.2381  16.2538  16.2718  16.2812  16.2962  16.3610  16.3752
    16.3928  16.5563  16.6181  16.6228  16.6637  16.7051  16.7639  16.7702
    16.8326  16.8481  16.8745  16.8923  17.3836  17.3862  17.6942  17.8615
    18.1077  18.1078  18.1804  18.1898  18.2516  18.4321  18.5002  18.5718
    18.6012  18.6172  18.6202  18.6500  18.7560  18.7925  18.7965  18.7984

          k =-0.5000-0.5000-0.5734 ( 31672 PWs)   bands (ev):

   -66.7231 -66.7230 -66.7054 -66.7039 -66.7037 -66.6991 -66.6364 -66.6363
   -66.6347 -62.4504 -62.3716 -62.3716 -62.3644 -62.3579 -62.3577 -62.3425
   -62.3422 -62.3231 -35.5155 -35.5154 -35.4919 -35.4917 -35.4890 -35.4756
   -35.4685 -35.4684 -35.4659 -35.4416 -35.4414 -35.4414 -35.4299 -35.4164
   -35.4162 -35.4114 -35.4112 -35.4017 -35.3929 -35.3927 -35.3919 -35.3918
   -35.3832 -35.3776 -35.3542 -35.3541 -35.3506 -31.2917 -31.2768 -31.2533
   -31.2346 -31.2345 -31.2246 -31.1958 -31.1949 -31.1870 -31.1868 -31.1841
   -31.1836 -31.1804 -31.1803 -31.1778 -31.1731 -31.1729 -31.1727 -31.1726
   -31.1697 -31.1683 -31.1681 -31.1641 -31.1474 -31.1461 -31.1459 -31.1281
     6.8940   6.9072   6.9380   6.9632   6.9737   6.9882   7.0182   7.0350
     8.4522   8.4563   8.4689   8.4765   8.4769   8.4783   8.4864   8.4868
     8.4896   8.4959   8.5233   8.5274   8.5328   8.5388   8.5570   8.5596
     8.5625   8.5908   8.5913   8.5951   8.8657   8.8691   8.8800   8.9025
     8.9194   8.9238   8.9347   8.9384   9.0907   9.1015   9.1144   9.1206
     9.1297   9.1351   9.1374   9.1401   9.1409   9.1442   9.1458   9.1460
     9.1568   9.1649   9.1649   9.1678   9.1692   9.1712   9.1743   9.1754
     9.1791   9.1793   9.1873   9.1933   9.2027   9.2133   9.2143   9.2147
     9.2277   9.2465   9.2482   9.2502   9.2521   9.2572   9.2776   9.2834
     9.5337   9.5458   9.5494   9.5518   9.5998   9.6024   9.6195   9.6310
     9.6661   9.6726   9.6805   9.7058   9.7113   9.7270   9.7375   9.7566
     9.8191   9.8241   9.8469   9.8570   9.8590   9.8681   9.8772   9.8899
    10.1270  10.1336  10.1368  10.1473  10.1588  10.1603  10.1670  10.1694
    10.2852  10.2982  10.4418  10.4462  10.4545  10.4629  10.4673  10.4722
    10.4850  10.4893  10.4948  10.4992  10.5013  10.5016  10.5140  10.5153
    10.5311  10.5319  10.5322  10.5373  10.5445  10.5578  10.5618  10.5655
    10.5783  10.6068  10.6306  10.6400  10.6455  10.6515  10.6544  10.6848
    10.6868  10.6886  10.6988  10.7010  10.7574  10.7641  11.0293  11.0401
    11.0589  11.0599  11.1086  11.1093  11.1325  11.1382  11.3665  11.3718
    11.3862  11.3923  11.4314  11.4360  11.4420  11.4467  11.4602  11.4628
    11.4769  11.4775  11.5001  11.5159  11.5230  11.5369  11.5985  11.6021
    11.6297  11.6317  11.6428  11.6471  11.6555  11.6816  11.6935  11.6972
    11.7239  11.7279  11.7481  11.7549  11.7724  11.7814  11.7833  11.7864
    11.7958  11.8064  11.8237  11.8363  11.8680  11.9126  12.0084  12.0183
    12.0417  12.0466  12.0839  12.1013  12.1175  12.1241  12.1281  12.1565
    12.1612  12.1892  12.1895  12.2051  12.2239  12.2406  12.2561  12.2849
    12.3276  12.3499  12.4211  12.4283  12.4297  12.4397  12.4480  12.4633
    12.4654  12.4910  12.4919  12.4966  12.5006  12.5349  12.5645  12.5677
    12.5776  12.6412  12.6423  12.6885  12.6966  12.7225  12.7611  12.7909
    12.8027  12.8208  13.0168  13.0614  13.0720  13.1727  13.2026  13.2060
    13.2849  13.3676  13.3892  13.3941  13.4063  13.4668  13.4740  13.5346
    13.5482  13.5581  13.6138  13.8051  13.8903  14.0094  14.0367  14.1098
    14.2310  14.5532  14.5710  14.5785  14.6398  14.7178  14.8646  14.8829
    14.9539  15.0640  15.0643  15.2994  15.4313  15.4329  15.4823  15.7917
    15.8101  15.8129  15.8441  15.8519  15.8608  15.9480  15.9736  16.0271
    16.0533  16.0799  16.0989  16.1661  16.1877  16.2189  16.2204  16.2415
    16.2563  16.2838  16.2842  16.3738  16.3776  16.3975  16.3993  16.4417
    16.5430  16.5490  16.6055  16.6090  16.6410  16.6479  16.6702  16.7053
    16.7149  16.7251  16.7721  16.8706  16.8884  16.8905  16.9456  16.9657
    17.0426  17.0515  17.6803  17.7956  17.7994  17.8499  19.0136  19.0300
    19.0317  19.0913  19.0981  19.1789  19.1849  19.2162  19.2540  19.3377

          k =-0.5000 0.0000 0.0000 ( 31722 PWs)   bands (ev):

   -66.7231 -66.7230 -66.7054 -66.7039 -66.7037 -66.6991 -66.6364 -66.6363
   -66.6347 -62.4504 -62.3716 -62.3716 -62.3644 -62.3579 -62.3577 -62.3425
   -62.3422 -62.3231 -35.5155 -35.5154 -35.4919 -35.4917 -35.4890 -35.4756
   -35.4685 -35.4684 -35.4659 -35.4416 -35.4414 -35.4414 -35.4299 -35.4164
   -35.4162 -35.4114 -35.4112 -35.4017 -35.3929 -35.3927 -35.3919 -35.3918
   -35.3832 -35.3776 -35.3542 -35.3541 -35.3506 -31.2917 -31.2768 -31.2533
   -31.2346 -31.2345 -31.2246 -31.1958 -31.1949 -31.1870 -31.1868 -31.1841
   -31.1836 -31.1804 -31.1803 -31.1778 -31.1731 -31.1729 -31.1727 -31.1726
   -31.1697 -31.1683 -31.1681 -31.1641 -31.1474 -31.1461 -31.1459 -31.1281
     6.0261   6.0513   7.4037   7.4334   7.4673   7.4756   7.6701   7.6732
     8.1033   8.1096   8.1231   8.1319   8.2140   8.2255   8.2553   8.2807
     8.3992   8.4342   8.4524   8.4657   8.6256   8.6289   8.6496   8.6530
     8.6535   8.6738   8.6770   8.6856   8.7826   8.8048   8.8164   8.8231
     8.8458   8.8627   8.8745   8.8884   8.8918   8.9007   8.9026   8.9213
     8.9289   8.9341   8.9360   8.9507   9.0434   9.0467   9.1524   9.1632
     9.1742   9.2002   9.2148   9.2195   9.2326   9.2508   9.3072   9.3211
     9.3411   9.3622   9.3925   9.4276   9.4680   9.4773   9.4920   9.5178
     9.5327   9.5387   9.5441   9.5613   9.5893   9.5991   9.6101   9.6178
     9.6230   9.6235   9.6273   9.6317   9.6320   9.6344   9.6346   9.6373
     9.6635   9.6685   9.6734   9.6870   9.6991   9.7089   9.7120   9.7257
     9.7334   9.7359   9.7566   9.7757   9.8877   9.8988   9.9286   9.9499
    10.0154  10.0238  10.1562  10.1795  10.2003  10.2044  10.2358  10.2449
    10.2515  10.2665  10.2708  10.2775  10.2802  10.2876  10.3382  10.3575
    10.3739  10.3767  10.3824  10.3824  10.4236  10.4364  10.4562  10.4655
    10.5102  10.5139  10.5270  10.5536  10.5542  10.5600  10.5711  10.5720
    10.6117  10.6463  10.6686  10.6954  10.7019  10.7211  10.7217  10.7261
    10.8128  10.8314  10.8337  10.8419  10.8592  10.8691  10.9247  10.9368
    10.9855  10.9998  11.0089  11.0191  11.0397  11.0480  11.1701  11.1779
    11.2817  11.3424  11.3443  11.3533  11.3603  11.3669  11.3729  11.3920
    11.3930  11.4072  11.4267  11.4578  11.4831  11.5139  11.5489  11.5856
    11.5970  11.5987  11.6372  11.6533  11.6578  11.6679  11.6777  11.7408
    11.7626  11.7819  11.7873  11.8181  11.8318  11.8382  11.8465  11.8545
    11.8690  11.8786  11.8999  11.9010  11.9190  11.9201  11.9344  11.9467
    11.9554  11.9693  11.9784  11.9854  12.0619  12.0936  12.1209  12.1473
    12.1858  12.1955  12.2050  12.2080  12.2217  12.2282  12.2517  12.2715
    12.2813  12.3037  12.3086  12.3656  12.3750  12.3885  12.3946  12.4279
    12.4604  12.4682  12.4835  12.4888  12.5111  12.5231  12.5311  12.5620
    12.5728  12.5783  12.5984  12.6267  12.6752  12.6957  12.7299  12.8350
    12.8549  12.8747  12.9805  13.0282  13.0325  13.0807  13.0851  13.1139
    13.1705  13.1773  13.1897  13.2410  13.2644  13.2817  13.3235  13.3390
    13.4374  13.5344  13.5579  13.6075  13.6353  14.4440  14.4751  14.5828
    14.6562  14.6725  14.6843  14.7742  14.8271  14.8581  14.8757  14.9798
    15.0563  15.1087  15.1708  15.2400  15.2700  15.4097  15.4917  15.5601
    15.7046  15.7076  15.8043  15.8159  15.8870  15.9370  15.9574  16.0269
    16.0537  16.0809  16.0809  16.1055  16.1194  16.1367  16.1507  16.1858
    16.2301  16.2414  16.2545  16.2582  16.2685  16.2821  16.3024  16.3842
    16.4530  16.4921  16.5305  16.6113  16.6449  16.7282  16.9759  17.0469
    17.1586  17.2166  17.2440  17.3273  17.4021  17.4415  17.6171  17.6302
    17.7058  17.7450  17.8100  17.8197  17.8656  17.8892  17.9038  17.9296
    17.9398  18.1074  18.1505  18.2051  19.2523  19.2734  19.3403  19.3540

          k =-0.5000 0.0000 0.5734 ( 31696 PWs)   bands (ev):

   -66.7231 -66.7230 -66.7054 -66.7039 -66.7037 -66.6991 -66.6364 -66.6363
   -66.6347 -62.4504 -62.3716 -62.3716 -62.3644 -62.3579 -62.3577 -62.3425
   -62.3422 -62.3231 -35.5155 -35.5154 -35.4919 -35.4917 -35.4890 -35.4756
   -35.4685 -35.4684 -35.4659 -35.4416 -35.4414 -35.4414 -35.4299 -35.4164
   -35.4162 -35.4114 -35.4112 -35.4017 -35.3929 -35.3927 -35.3919 -35.3918
   -35.3832 -35.3776 -35.3542 -35.3541 -35.3506 -31.2917 -31.2768 -31.2533
   -31.2346 -31.2345 -31.2246 -31.1958 -31.1949 -31.1870 -31.1868 -31.1841
   -31.1836 -31.1804 -31.1803 -31.1778 -31.1731 -31.1729 -31.1727 -31.1726
   -31.1697 -31.1683 -31.1681 -31.1641 -31.1474 -31.1461 -31.1459 -31.1281
     6.5531   6.5689   6.5874   6.6071   7.8351   7.8424   7.8633   7.8802
     7.8933   7.9127   7.9236   7.9364   8.2678   8.2718   8.2991   8.3005
     8.5143   8.5169   8.5252   8.5280   8.6405   8.6447   8.6774   8.6807
     8.6919   8.6937   8.6964   8.7094   8.7315   8.7395   8.7477   8.7507
     8.7646   8.7733   8.7888   8.7992   8.9772   8.9927   9.0111   9.0302
     9.0323   9.0403   9.0443   9.0516   9.2073   9.2100   9.2105   9.2161
     9.2164   9.2222   9.2251   9.2369   9.2449   9.2525   9.2542   9.2585
     9.2609   9.2749   9.2807   9.2826   9.2877   9.3091   9.3872   9.3949
     9.4217   9.4222   9.4275   9.4527   9.4620   9.4669   9.4685   9.4784
     9.4878   9.5045   9.5137   9.5158   9.5240   9.5460   9.5487   9.5529
     9.5696   9.5849   9.7535   9.7557   9.7894   9.7955   9.8014   9.8168
     9.8187   9.8262   9.8452   9.8496   9.8532   9.8620   9.8640   9.8721
     9.9561   9.9590   9.9999  10.0080  10.0340  10.0347  10.0410  10.0469
    10.3766  10.3798  10.3844  10.3861  10.4019  10.4056  10.4098  10.4430
    10.4559  10.4639  10.4709  10.4751  10.4810  10.4817  10.5047  10.5092
    10.5195  10.5271  10.5389  10.5671  10.5776  10.5826  10.6068  10.6077
    10.6268  10.6294  10.6672  10.6674  10.6734  10.6759  10.7215  10.7478
    10.7930  10.7934  10.9185  10.9271  10.9894  10.9934  11.0193  11.0297
    11.1210  11.1304  11.1350  11.1444  11.1555  11.1819  11.2026  11.2057
    11.2113  11.2159  11.2685  11.3048  11.3306  11.3328  11.3576  11.3611
    11.3739  11.3785  11.4192  11.4244  11.4324  11.4354  11.5021  11.5140
    11.5315  11.5525  11.5643  11.5722  11.5793  11.6004  11.6210  11.6293
    11.6381  11.6410  11.7282  11.7423  11.7503  11.7598  11.8117  11.8673
    11.8719  11.9236  11.9318  11.9462  11.9510  11.9782  11.9976  11.9977
    12.0219  12.0233  12.0345  12.0371  12.0382  12.0594  12.0865  12.1354
    12.1412  12.1570  12.1889  12.2121  12.2506  12.2710  12.2902  12.2956
    12.3275  12.3407  12.3621  12.3939  12.4123  12.4610  12.4633  12.4717
    12.4838  12.4914  12.5138  12.5204  12.5254  12.5393  12.5635  12.5918
    12.5984  12.6111  12.6259  12.6391  12.6415  12.6487  12.6491  12.7618
    12.8707  12.9091  12.9109  12.9741  12.9746  13.0439  13.0524  13.0754
    13.0775  13.3640  13.3670  13.3709  13.5611  13.6342  13.7339  13.8666
    13.9261  13.9807  13.9962  14.0435  14.1235  14.2390  14.3171  14.4752
    14.4862  14.5433  14.5452  14.5552  14.5825  14.7249  14.7409  14.9383
    15.0603  15.1445  15.2331  15.3177  15.3543  15.4720  15.4924  15.5977
    15.6249  15.7459  15.8210  15.8550  15.8798  15.9103  15.9108  15.9617
    15.9636  16.0257  16.0737  16.1527  16.1580  16.1845  16.1974  16.2471
    16.2771  16.2866  16.3037  16.3473  16.3488  16.3874  16.4252  16.4322
    16.4622  16.4659  16.4845  16.5807  16.6051  16.6147  16.6630  16.6768
    16.7181  16.7505  16.7943  16.8031  16.8705  16.8747  16.9922  17.0630
    17.0919  17.1232  17.2256  17.2836  18.6390  18.6647  18.7438  18.7737
    18.8044  18.8146  18.8400  18.8466  18.8736  18.9073  18.9505  18.9628

     the Fermi energy is    14.8164 ev

!    total energy              =  -33062.56565480 Ry
     Harris-Foulkes estimate   =  -33062.56564066 Ry
     estimated scf accuracy    <       0.00000067 Ry

     total all-electron energy =  -1410574.656029 Ry

     The total energy is the sum of the following terms:

     one-electron contribution =   -1645.76682128 Ry
     hartree contribution      =    1490.00936429 Ry
     xc contribution           =   -1658.74087708 Ry
     ewald contribution        =   -4919.25534656 Ry
     one-center paw contrib.   =  -26328.81197417 Ry

     total magnetization       =    -0.62 Bohr mag/cell
     absolute magnetization    =    78.24 Bohr mag/cell

     convergence has been achieved in  22 iterations

     Writing output data file mnau2.save
 
     init_run     :     52.28s CPU     53.03s WALL (       1 calls)
     electrons    :   3116.84s CPU   3175.33s WALL (       1 calls)

     Called by init_run:
     wfcinit      :     46.37s CPU     46.88s WALL (       1 calls)
     potinit      :      2.50s CPU      2.55s WALL (       1 calls)

     Called by electrons:
     c_bands      :   2756.88s CPU   2804.19s WALL (      22 calls)
     sum_band     :    302.01s CPU    309.36s WALL (      22 calls)
     v_of_rho     :      5.91s CPU      6.08s WALL (      23 calls)
     newd         :     18.65s CPU     21.40s WALL (      23 calls)
     PAW_pot      :     34.04s CPU     34.54s WALL (      23 calls)
     mix_rho      :      1.20s CPU      1.25s WALL (      22 calls)

     Called by c_bands:
     init_us_2    :     10.67s CPU     10.73s WALL (     720 calls)
     cegterg      :   2688.12s CPU   2734.59s WALL (     352 calls)

     Called by sum_band:
     sum_band:bec :      1.70s CPU      1.70s WALL (     352 calls)
     addusdens    :     33.18s CPU     36.23s WALL (      22 calls)

     Called by *egterg:
     h_psi        :    979.11s CPU    991.31s WALL (    1325 calls)
     s_psi        :    239.60s CPU    239.96s WALL (    1325 calls)
     g_psi        :      3.62s CPU      3.63s WALL (     957 calls)
     cdiaghg      :    918.88s CPU    919.69s WALL (    1309 calls)

     Called by h_psi:
     h_psi:pot    :    970.83s CPU    982.96s WALL (    1325 calls)
     h_psi:calbec :    239.47s CPU    242.09s WALL (    1325 calls)
     vloc_psi     :    491.71s CPU    500.89s WALL (    1325 calls)
     add_vuspsi   :    239.62s CPU    239.96s WALL (    1325 calls)

     General routines
     calbec       :    344.42s CPU    348.23s WALL (    1677 calls)
     fft          :      5.29s CPU      5.65s WALL (     703 calls)
     ffts         :      0.12s CPU      0.13s WALL (      90 calls)
     fftw         :    478.42s CPU    487.56s WALL (  770590 calls)
     interpolate  :      0.87s CPU      0.92s WALL (      90 calls)
 
     Parallel routines
     fft_scatt_xy :     58.76s CPU     59.73s WALL (  771383 calls)
     fft_scatt_yz :    130.22s CPU    134.46s WALL (  771383 calls)
 
     PWSCF        : 52m54.70s CPU    54m14.38s WALL

 
   This run was terminated on:  17:44:30   7Mar2019            

=------------------------------------------------------------------------------=
   JOB DONE.
=------------------------------------------------------------------------------=
