
     Program PWSCF v.6.2 (svn rev. 14038) starts on  7Mar2019 at 21:30:26 

     This program is part of the open-source Quantum ESPRESSO suite
     for quantum simulation of materials; please cite
         "P. Giannozzi et al., J. Phys.:Condens. Matter 21 395502 (2009);
         "P. Giannozzi et al., J. Phys.:Condens. Matter 29 465901 (2017);
          URL http://www.quantum-espresso.org", 
     in publications or presentations arising from this work. More details at
     http://www.quantum-espresso.org/quote

     Parallel version (MPI), running on    16 processors

     MPI processes distributed on     1 nodes
     R & G space division:  proc/nbgrp/npool/nimage =      16
     Waiting for input...
     Reading input from standard input

     Current dimensions of program PWSCF are:
     Max number of different atomic species (ntypx) = 10
     Max number of k-points (npk) =  40000
     Max angular momentum in pseudopotentials (lmaxx) =  3
               file Mn.pbe-spn-kjpaw_psl.0.3.1.UPF: wavefunction(s)  3P 3D renormalized
               file Mn.pbe-spn-kjpaw_psl.0.3.1.UPF: wavefunction(s)  3P 3D renormalized
               file Au.pbe-dn-kjpaw_psl.0.1.UPF: wavefunction(s)  6S 6P 5D renormalized

     Subspace diagonalization in iterative solution of the eigenvalue problem:
     a serial algorithm will be used

 
     Parallelization info
     --------------------
     sticks:   dense  smooth     PW     G-vecs:    dense   smooth      PW
     Min         736     331     90                52486    15847    2256
     Max         737     332     91                52489    15850    2259
     Sum       11785    5297   1449               839803   253559   36125
 


     bravais-lattice index     =            0
     lattice parameter (alat)  =      19.2459  a.u.
     unit-cell volume          =    6216.1497 (a.u.)^3
     number of atoms/cell      =           54
     number of atomic types    =            3
     number of electrons       =       666.00
     number of Kohn-Sham states=          400
     kinetic-energy cutoff     =      45.0000  Ry
     charge density cutoff     =     400.0000  Ry
     convergence threshold     =      1.0E-06
     mixing beta               =       0.1000
     number of iterations used =            8  plain     mixing
     Exchange-correlation      = SLA PW PBX PBC ( 1  4  3  4 0 0)

     celldm(1)=  19.245946  celldm(2)=   0.000000  celldm(3)=   0.000000
     celldm(4)=   0.000000  celldm(5)=   0.000000  celldm(6)=   0.000000

     crystal axes: (cart. coord. in units of alat)
               a(1) = (   1.000000   0.000000   0.000000 )  
               a(2) = (   0.000000   1.000000   0.000000 )  
               a(3) = (   0.000000   0.000000   0.871974 )  

     reciprocal axes: (cart. coord. in units 2 pi/alat)
               b(1) = (  1.000000  0.000000  0.000000 )  
               b(2) = (  0.000000  1.000000  0.000000 )  
               b(3) = (  0.000000  0.000000  1.146823 )  


     PseudoPot. # 1 for Mn read from file:
     ./pseudo/Mn.pbe-spn-kjpaw_psl.0.3.1.UPF
     MD5 check sum: 7eef95dd2aae66803482eea66ebeebf1
     Pseudo is Projector augmented-wave + core cor, Zval = 15.0
     Generated using "atomic" code by A. Dal Corso v.5.0.99 svn rev. 10869
     Shape of augmentation charge: PSQ
     Using radial grid of 1187 points,  6 beta functions with: 
                l(1) =   0
                l(2) =   0
                l(3) =   1
                l(4) =   1
                l(5) =   2
                l(6) =   2
     Q(r) pseudized with 0 coefficients 


     PseudoPot. # 2 for Mn read from file:
     ./pseudo/Mn.pbe-spn-kjpaw_psl.0.3.1.UPF
     MD5 check sum: 7eef95dd2aae66803482eea66ebeebf1
     Pseudo is Projector augmented-wave + core cor, Zval = 15.0
     Generated using "atomic" code by A. Dal Corso v.5.0.99 svn rev. 10869
     Shape of augmentation charge: PSQ
     Using radial grid of 1187 points,  6 beta functions with: 
                l(1) =   0
                l(2) =   0
                l(3) =   1
                l(4) =   1
                l(5) =   2
                l(6) =   2
     Q(r) pseudized with 0 coefficients 


     PseudoPot. # 3 for Au read from file:
     ./pseudo/Au.pbe-dn-kjpaw_psl.0.1.UPF
     MD5 check sum: 5c9b92683623e7ae2ab3f8e525febab6
     Pseudo is Projector augmented-wave + core cor, Zval = 11.0
     Generated using "atomic" code by A. Dal Corso v.5.0.2 svn rev. 9415
     Shape of augmentation charge: PSQ
     Using radial grid of 1279 points,  6 beta functions with: 
                l(1) =   0
                l(2) =   0
                l(3) =   1
                l(4) =   1
                l(5) =   2
                l(6) =   2
     Q(r) pseudized with 0 coefficients 


     atomic species   valence    mass     pseudopotential
        Mn1           15.00    54.93800     Mn( 1.00)
        Mn2           15.00    54.93800     Mn( 1.00)
        Au            11.00   196.96600     Au( 1.00)

     Starting magnetic structure 
     atomic species   magnetization
        Mn1          0.800
        Mn2         -0.800
        Au           0.000

      2 Sym. Ops. (no inversion) found



   Cartesian axes

     site n.     atom                  positions (alat units)
         1           Mn1 tau(   1) = (   0.0000000   0.0000000   0.0000000  )
         2           Mn1 tau(   2) = (   0.0000000   0.3333300   0.0000000  )
         3           Mn2 tau(   3) = (   0.0000000   0.6666700   0.0000000  )
         4           Mn1 tau(   4) = (   0.3333300   0.0000000   0.0000000  )
         5           Mn2 tau(   5) = (   0.3333300   0.3333300   0.0000000  )
         6           Mn2 tau(   6) = (   0.3333300   0.6666700   0.0000000  )
         7           Mn1 tau(   7) = (   0.6666700   0.0000000   0.0000000  )
         8           Mn2 tau(   8) = (   0.6666700   0.3333300   0.0000000  )
         9           Mn2 tau(   9) = (   0.6666700   0.6666700   0.0000000  )
        10           Mn2 tau(  10) = (   0.1666700   0.1666700   0.4359871  )
        11           Mn2 tau(  11) = (   0.1666700   0.5000000   0.4359871  )
        12           Mn1 tau(  12) = (   0.1666700   0.8333300   0.4359871  )
        13           Mn2 tau(  13) = (   0.5000000   0.1666700   0.4359871  )
        14           Mn1 tau(  14) = (   0.5000000   0.5000000   0.4359871  )
        15           Mn1 tau(  15) = (   0.5000000   0.8333300   0.4359871  )
        16           Mn2 tau(  16) = (   0.8333300   0.1666700   0.4359871  )
        17           Mn1 tau(  17) = (   0.8333300   0.5000000   0.4359871  )
        18           Mn1 tau(  18) = (   0.8333300   0.8333300   0.4359871  )
        19           Au  tau(  19) = (   0.1666700   0.1666700   0.7327374  )
        20           Au  tau(  20) = (   0.1666700   0.5000000   0.7327374  )
        21           Au  tau(  21) = (   0.1666700   0.8333300   0.7327374  )
        22           Au  tau(  22) = (   0.5000000   0.1666700   0.7327374  )
        23           Au  tau(  23) = (   0.5000000   0.5000000   0.7327374  )
        24           Au  tau(  24) = (   0.5000000   0.8333300   0.7327374  )
        25           Au  tau(  25) = (   0.8333300   0.1666700   0.7327374  )
        26           Au  tau(  26) = (   0.8333300   0.5000000   0.7327374  )
        27           Au  tau(  27) = (   0.8333300   0.8333300   0.7327374  )
        28           Au  tau(  28) = (   0.1666700   0.1666700   0.1392369  )
        29           Au  tau(  29) = (   0.1666700   0.5000000   0.1392369  )
        30           Au  tau(  30) = (   0.1666700   0.8333300   0.1392369  )
        31           Au  tau(  31) = (   0.5000000   0.1666700   0.1392369  )
        32           Au  tau(  32) = (   0.5000000   0.5000000   0.1392369  )
        33           Au  tau(  33) = (   0.5000000   0.8333300   0.1392369  )
        34           Au  tau(  34) = (   0.8333300   0.1666700   0.1392369  )
        35           Au  tau(  35) = (   0.8333300   0.5000000   0.1392369  )
        36           Au  tau(  36) = (   0.8333300   0.8333300   0.1392369  )
        37           Au  tau(  37) = (   0.0000000   0.0000000   0.2967503  )
        38           Au  tau(  38) = (   0.0000000   0.3333300   0.2967503  )
        39           Au  tau(  39) = (   0.0000000   0.6666700   0.2967503  )
        40           Au  tau(  40) = (   0.3333300   0.0000000   0.2967503  )
        41           Au  tau(  41) = (   0.3333300   0.3333300   0.2967503  )
        42           Au  tau(  42) = (   0.3333300   0.6666700   0.2967503  )
        43           Au  tau(  43) = (   0.6666700   0.0000000   0.2967503  )
        44           Au  tau(  44) = (   0.6666700   0.3333300   0.2967503  )
        45           Au  tau(  45) = (   0.6666700   0.6666700   0.2967503  )
        46           Au  tau(  46) = (   0.0000000   0.0000000   0.5752240  )
        47           Au  tau(  47) = (   0.0000000   0.3333300   0.5752240  )
        48           Au  tau(  48) = (   0.0000000   0.6666700   0.5752240  )
        49           Au  tau(  49) = (   0.3333300   0.0000000   0.5752240  )
        50           Au  tau(  50) = (   0.3333300   0.3333300   0.5752240  )
        51           Au  tau(  51) = (   0.3333300   0.6666700   0.5752240  )
        52           Au  tau(  52) = (   0.6666700   0.0000000   0.5752240  )
        53           Au  tau(  53) = (   0.6666700   0.3333300   0.5752240  )
        54           Au  tau(  54) = (   0.6666700   0.6666700   0.5752240  )

     number of k points=     8 (tetrahedron method)
                       cart. coord. in units 2pi/alat
        k(    1) = (   0.0000000   0.0000000   0.0000000), wk =   0.1250000
        k(    2) = (   0.0000000   0.0000000  -0.5734114), wk =   0.1250000
        k(    3) = (   0.0000000  -0.5000000   0.0000000), wk =   0.1250000
        k(    4) = (   0.0000000  -0.5000000  -0.5734114), wk =   0.1250000
        k(    5) = (  -0.5000000  -0.5000000   0.0000000), wk =   0.1250000
        k(    6) = (  -0.5000000  -0.5000000  -0.5734114), wk =   0.1250000
        k(    7) = (  -0.5000000   0.0000000   0.0000000), wk =   0.1250000
        k(    8) = (  -0.5000000   0.0000000   0.5734114), wk =   0.1250000

     Dense  grid:   839803 G-vectors     FFT dimensions: ( 125, 125, 108)

     Smooth grid:   253559 G-vectors     FFT dimensions: (  90,  90,  72)

     Estimated max dynamical RAM per process >     570.13 MB

     Estimated total dynamical RAM >       8.91 GB
     Generating pointlists ...
     new r_m :   0.1129 (alat units)  2.1733 (a.u.) for type    1
     new r_m :   0.1129 (alat units)  2.1733 (a.u.) for type    2
     new r_m :   0.1129 (alat units)  2.1733 (a.u.) for type    3

     Check: negative/imaginary core charge=   -0.000006    0.000000

     Initial potential from superposition of free atoms

     starting charge  665.98709, renormalised to  666.00000
     Starting wfc are  504 randomized atomic wfcs
     Checking if some PAW data can be deallocated... 

     total cpu time spent up to now is       56.7 secs

     Self-consistent Calculation

     iteration #  1     ecut=    45.00 Ry     beta= 0.10
     Davidson diagonalization with overlap
     ethr =  1.00E-02,  avg # of iterations =  3.6

     total cpu time spent up to now is      223.8 secs

     total energy              =  -33047.18385628 Ry
     Harris-Foulkes estimate   =  -33044.03302760 Ry
     estimated scf accuracy    <      27.02868081 Ry

     total magnetization       =     0.02 Bohr mag/cell
     absolute magnetization    =    92.12 Bohr mag/cell

     iteration #  2     ecut=    45.00 Ry     beta= 0.10
     Davidson diagonalization with overlap
     ethr =  4.06E-03,  avg # of iterations =  1.0

     total cpu time spent up to now is      332.4 secs

     total energy              =  -33058.56513206 Ry
     Harris-Foulkes estimate   =  -33047.36246522 Ry
     estimated scf accuracy    <      21.37091070 Ry

     total magnetization       =     0.02 Bohr mag/cell
     absolute magnetization    =    91.70 Bohr mag/cell

     iteration #  3     ecut=    45.00 Ry     beta= 0.10
     Davidson diagonalization with overlap
     ethr =  3.21E-03,  avg # of iterations =  2.1

     total cpu time spent up to now is      465.5 secs

     total energy              =  -33066.62952278 Ry
     Harris-Foulkes estimate   =  -33061.36662887 Ry
     estimated scf accuracy    <       8.80533225 Ry

     total magnetization       =    -0.16 Bohr mag/cell
     absolute magnetization    =    85.58 Bohr mag/cell

     iteration #  4     ecut=    45.00 Ry     beta= 0.10
     Davidson diagonalization with overlap
     ethr =  1.32E-03,  avg # of iterations =  4.2

     total cpu time spent up to now is      688.0 secs

     total energy              =  -33058.80320432 Ry
     Harris-Foulkes estimate   =  -33069.78317755 Ry
     estimated scf accuracy    <      59.23859576 Ry

     total magnetization       =    -0.68 Bohr mag/cell
     absolute magnetization    =    69.72 Bohr mag/cell

     iteration #  5     ecut=    45.00 Ry     beta= 0.10
     Davidson diagonalization with overlap
     ethr =  1.32E-03,  avg # of iterations =  4.9

     total cpu time spent up to now is      929.3 secs

     total energy              =  -33061.85434202 Ry
     Harris-Foulkes estimate   =  -33062.75747962 Ry
     estimated scf accuracy    <       4.83021484 Ry

     total magnetization       =    -0.22 Bohr mag/cell
     absolute magnetization    =    83.28 Bohr mag/cell

     iteration #  6     ecut=    45.00 Ry     beta= 0.10
     Davidson diagonalization with overlap
     ethr =  7.25E-04,  avg # of iterations =  3.6

     total cpu time spent up to now is     1081.3 secs

     total energy              =  -33062.53731945 Ry
     Harris-Foulkes estimate   =  -33062.50889667 Ry
     estimated scf accuracy    <       0.23636844 Ry

     total magnetization       =    -0.21 Bohr mag/cell
     absolute magnetization    =    80.23 Bohr mag/cell

     iteration #  7     ecut=    45.00 Ry     beta= 0.10
     Davidson diagonalization with overlap
     ethr =  3.55E-05,  avg # of iterations =  5.5

     total cpu time spent up to now is     1321.4 secs

     total energy              =  -33062.58039872 Ry
     Harris-Foulkes estimate   =  -33062.58588263 Ry
     estimated scf accuracy    <       0.05888452 Ry

     total magnetization       =    -0.36 Bohr mag/cell
     absolute magnetization    =    79.08 Bohr mag/cell

     iteration #  8     ecut=    45.00 Ry     beta= 0.10
     Davidson diagonalization with overlap
     ethr =  8.84E-06,  avg # of iterations =  3.2

     total cpu time spent up to now is     1468.4 secs

     total energy              =  -33062.57893585 Ry
     Harris-Foulkes estimate   =  -33062.59125563 Ry
     estimated scf accuracy    <       0.10428427 Ry

     total magnetization       =    -0.36 Bohr mag/cell
     absolute magnetization    =    78.46 Bohr mag/cell

     iteration #  9     ecut=    45.00 Ry     beta= 0.10
     Davidson diagonalization with overlap
     ethr =  8.84E-06,  avg # of iterations =  1.1

     total cpu time spent up to now is     1578.4 secs

     total energy              =  -33062.58606246 Ry
     Harris-Foulkes estimate   =  -33062.58182880 Ry
     estimated scf accuracy    <       0.04009796 Ry

     total magnetization       =    -0.43 Bohr mag/cell
     absolute magnetization    =    78.33 Bohr mag/cell

     iteration # 10     ecut=    45.00 Ry     beta= 0.10
     Davidson diagonalization with overlap
     ethr =  6.02E-06,  avg # of iterations =  2.1

     total cpu time spent up to now is     1701.2 secs

     total energy              =  -33062.58696403 Ry
     Harris-Foulkes estimate   =  -33062.58902578 Ry
     estimated scf accuracy    <       0.01242607 Ry

     total magnetization       =    -0.44 Bohr mag/cell
     absolute magnetization    =    78.56 Bohr mag/cell

     iteration # 11     ecut=    45.00 Ry     beta= 0.10
     Davidson diagonalization with overlap
     ethr =  1.87E-06,  avg # of iterations =  4.0

     total cpu time spent up to now is     1866.9 secs

     total energy              =  -33062.58984327 Ry
     Harris-Foulkes estimate   =  -33062.58993433 Ry
     estimated scf accuracy    <       0.00261219 Ry

     total magnetization       =    -0.45 Bohr mag/cell
     absolute magnetization    =    78.91 Bohr mag/cell

     iteration # 12     ecut=    45.00 Ry     beta= 0.10
     Davidson diagonalization with overlap
     ethr =  3.92E-07,  avg # of iterations =  3.1

     total cpu time spent up to now is     2019.8 secs

     total energy              =  -33062.59104459 Ry
     Harris-Foulkes estimate   =  -33062.59058369 Ry
     estimated scf accuracy    <       0.00318991 Ry

     total magnetization       =    -0.43 Bohr mag/cell
     absolute magnetization    =    78.86 Bohr mag/cell

     iteration # 13     ecut=    45.00 Ry     beta= 0.10
     Davidson diagonalization with overlap
     ethr =  3.92E-07,  avg # of iterations =  2.4

     total cpu time spent up to now is     2156.6 secs

     total energy              =  -33062.59146222 Ry
     Harris-Foulkes estimate   =  -33062.59118351 Ry
     estimated scf accuracy    <       0.00043705 Ry

     total magnetization       =    -0.46 Bohr mag/cell
     absolute magnetization    =    78.72 Bohr mag/cell

     iteration # 14     ecut=    45.00 Ry     beta= 0.10
     Davidson diagonalization with overlap
     ethr =  6.56E-08,  avg # of iterations =  3.7

     total cpu time spent up to now is     2308.2 secs

     total energy              =  -33062.59169278 Ry
     Harris-Foulkes estimate   =  -33062.59152957 Ry
     estimated scf accuracy    <       0.00015787 Ry

     total magnetization       =    -0.46 Bohr mag/cell
     absolute magnetization    =    78.68 Bohr mag/cell

     iteration # 15     ecut=    45.00 Ry     beta= 0.10
     Davidson diagonalization with overlap
     ethr =  2.37E-08,  avg # of iterations =  2.0

     total cpu time spent up to now is     2430.5 secs

     total energy              =  -33062.59182099 Ry
     Harris-Foulkes estimate   =  -33062.59168232 Ry
     estimated scf accuracy    <       0.00008890 Ry

     total magnetization       =    -0.47 Bohr mag/cell
     absolute magnetization    =    78.67 Bohr mag/cell

     iteration # 16     ecut=    45.00 Ry     beta= 0.10
     Davidson diagonalization with overlap
     ethr =  1.33E-08,  avg # of iterations =  2.1

     total cpu time spent up to now is     2558.5 secs

     total energy              =  -33062.59189457 Ry
     Harris-Foulkes estimate   =  -33062.59181729 Ry
     estimated scf accuracy    <       0.00004333 Ry

     total magnetization       =    -0.47 Bohr mag/cell
     absolute magnetization    =    78.65 Bohr mag/cell

     iteration # 17     ecut=    45.00 Ry     beta= 0.10
     Davidson diagonalization with overlap
     ethr =  6.51E-09,  avg # of iterations =  2.9

     total cpu time spent up to now is     2707.3 secs

     total energy              =  -33062.59191141 Ry
     Harris-Foulkes estimate   =  -33062.59187965 Ry
     estimated scf accuracy    <       0.00001736 Ry

     total magnetization       =    -0.48 Bohr mag/cell
     absolute magnetization    =    78.63 Bohr mag/cell

     iteration # 18     ecut=    45.00 Ry     beta= 0.10
     Davidson diagonalization with overlap
     ethr =  2.61E-09,  avg # of iterations =  3.1

     total cpu time spent up to now is     2887.2 secs

     total energy              =  -33062.59189172 Ry
     Harris-Foulkes estimate   =  -33062.59188237 Ry
     estimated scf accuracy    <       0.00000341 Ry

     total magnetization       =    -0.48 Bohr mag/cell
     absolute magnetization    =    78.61 Bohr mag/cell

     iteration # 19     ecut=    45.00 Ry     beta= 0.10
     Davidson diagonalization with overlap
     ethr =  5.12E-10,  avg # of iterations =  3.0

     total cpu time spent up to now is     3032.1 secs

     total energy              =  -33062.59189024 Ry
     Harris-Foulkes estimate   =  -33062.59188367 Ry
     estimated scf accuracy    <       0.00000191 Ry

     total magnetization       =    -0.48 Bohr mag/cell
     absolute magnetization    =    78.61 Bohr mag/cell

     iteration # 20     ecut=    45.00 Ry     beta= 0.10
     Davidson diagonalization with overlap
     ethr =  2.87E-10,  avg # of iterations =  2.4
 
     Magnetic moment per site:
     atom:    1    charge:   13.5791    magn:    3.9559    constr:    0.0000
     atom:    2    charge:   13.5727    magn:    4.0718    constr:    0.0000
     atom:    3    charge:   13.5725    magn:   -4.0417    constr:    0.0000
     atom:    4    charge:   13.5767    magn:    3.9928    constr:    0.0000
     atom:    5    charge:   13.5836    magn:   -3.9542    constr:    0.0000
     atom:    6    charge:   13.5705    magn:   -4.0500    constr:    0.0000
     atom:    7    charge:   13.5818    magn:    3.9518    constr:    0.0000
     atom:    8    charge:   13.5805    magn:   -3.9869    constr:    0.0000
     atom:    9    charge:   13.5685    magn:   -4.0632    constr:    0.0000
     atom:   10    charge:   13.5715    magn:   -4.0342    constr:    0.0000
     atom:   11    charge:   13.5825    magn:   -3.9790    constr:    0.0000
     atom:   12    charge:   13.5836    magn:    3.9336    constr:    0.0000
     atom:   13    charge:   13.5732    magn:   -4.0316    constr:    0.0000
     atom:   14    charge:   13.5690    magn:    4.0570    constr:    0.0000
     atom:   15    charge:   13.5755    magn:    3.9983    constr:    0.0000
     atom:   16    charge:   13.5726    magn:   -4.0431    constr:    0.0000
     atom:   17    charge:   13.5726    magn:    4.0464    constr:    0.0000
     atom:   18    charge:   13.5828    magn:    3.9384    constr:    0.0000
     atom:   19    charge:    9.1212    magn:    0.0125    constr:    0.0000
     atom:   20    charge:    9.1200    magn:   -0.0372    constr:    0.0000
     atom:   21    charge:    9.1202    magn:    0.0014    constr:    0.0000
     atom:   22    charge:    9.1195    magn:   -0.0146    constr:    0.0000
     atom:   23    charge:    9.1211    magn:   -0.0516    constr:    0.0000
     atom:   24    charge:    9.1210    magn:    0.0092    constr:    0.0000
     atom:   25    charge:    9.1213    magn:    0.0123    constr:    0.0000
     atom:   26    charge:    9.1218    magn:   -0.0202    constr:    0.0000
     atom:   27    charge:    9.1206    magn:    0.0047    constr:    0.0000
     atom:   28    charge:    9.1212    magn:    0.0125    constr:    0.0000
     atom:   29    charge:    9.1200    magn:   -0.0372    constr:    0.0000
     atom:   30    charge:    9.1202    magn:    0.0014    constr:    0.0000
     atom:   31    charge:    9.1195    magn:   -0.0146    constr:    0.0000
     atom:   32    charge:    9.1211    magn:   -0.0516    constr:    0.0000
     atom:   33    charge:    9.1210    magn:    0.0092    constr:    0.0000
     atom:   34    charge:    9.1213    magn:    0.0123    constr:    0.0000
     atom:   35    charge:    9.1218    magn:   -0.0202    constr:    0.0000
     atom:   36    charge:    9.1206    magn:    0.0047    constr:    0.0000
     atom:   37    charge:    9.1208    magn:    0.0083    constr:    0.0000
     atom:   38    charge:    9.1218    magn:   -0.0200    constr:    0.0000
     atom:   39    charge:    9.1205    magn:    0.0106    constr:    0.0000
     atom:   40    charge:    9.1204    magn:    0.0088    constr:    0.0000
     atom:   41    charge:    9.1201    magn:   -0.0404    constr:    0.0000
     atom:   42    charge:    9.1202    magn:    0.0117    constr:    0.0000
     atom:   43    charge:    9.1205    magn:    0.0046    constr:    0.0000
     atom:   44    charge:    9.1208    magn:   -0.0104    constr:    0.0000
     atom:   45    charge:    9.1216    magn:    0.0461    constr:    0.0000
     atom:   46    charge:    9.1208    magn:    0.0083    constr:    0.0000
     atom:   47    charge:    9.1218    magn:   -0.0200    constr:    0.0000
     atom:   48    charge:    9.1205    magn:    0.0106    constr:    0.0000
     atom:   49    charge:    9.1204    magn:    0.0088    constr:    0.0000
     atom:   50    charge:    9.1201    magn:   -0.0404    constr:    0.0000
     atom:   51    charge:    9.1202    magn:    0.0117    constr:    0.0000
     atom:   52    charge:    9.1205    magn:    0.0046    constr:    0.0000
     atom:   53    charge:    9.1208    magn:   -0.0104    constr:    0.0000
     atom:   54    charge:    9.1216    magn:    0.0461    constr:    0.0000

     total cpu time spent up to now is     3178.7 secs

     End of self-consistent calculation

 ------ SPIN UP ------------


          k = 0.0000 0.0000 0.0000 ( 31747 PWs)   bands (ev):

   -66.7683 -66.7220 -66.7001 -66.6934 -66.6718 -66.6353 -66.6177 -66.5964
   -66.5929 -62.4089 -62.4015 -62.3969 -62.3933 -62.3897 -62.3817 -62.3170
   -62.3000 -62.2947 -35.5287 -35.5120 -35.4931 -35.4880 -35.4712 -35.4710
   -35.4630 -35.4431 -35.4376 -35.4371 -35.4352 -35.4286 -35.4147 -35.4045
   -35.4016 -35.3969 -35.3743 -35.3737 -35.3627 -35.3577 -35.3481 -35.3472
   -35.3415 -35.3413 -35.3403 -35.3319 -35.3293 -31.2453 -31.2427 -31.2374
   -31.2336 -31.2328 -31.2273 -31.2264 -31.2261 -31.2249 -31.2208 -31.2167
   -31.2138 -31.2134 -31.2076 -31.2025 -31.1994 -31.1954 -31.1945 -31.1534
   -31.1524 -31.1480 -31.1439 -31.1282 -31.1254 -31.1160 -31.1016 -31.1009
     5.6173   7.1410   7.1649   7.1967   7.2200   7.3667   7.8487   7.8920
     7.9292   7.9404   8.0610   8.1209   8.1375   8.1764   8.1919   8.2403
     8.2626   8.2968   8.3200   8.5110   8.5455   8.5691   8.5806   8.5971
     8.6107   8.8505   8.8556   8.8657   8.8847   8.8875   8.8901   8.8910
     8.9062   8.9084   8.9138   8.9258   8.9324   8.9623   8.9703   8.9862
     9.0085   9.0851   9.1204   9.1246   9.1311   9.1401   9.1521   9.1597
     9.1846   9.2079   9.2104   9.2677   9.2895   9.3029   9.3055   9.3498
     9.3579   9.3648   9.3704   9.3723   9.3911   9.3964   9.4009   9.4295
     9.4411   9.4487   9.4542   9.4558   9.4580   9.4611   9.4930   9.5796
     9.5813   9.5823   9.5897   9.5949   9.6260   9.6675   9.6707   9.6720
     9.6773   9.6788   9.6958   9.7389   9.7534   9.7883   9.8077   9.8505
     9.8524   9.9039   9.9145   9.9397   9.9549   9.9607  10.0257  10.0430
    10.0938  10.1206  10.1340  10.1610  10.2873  10.2885  10.2929  10.2955
    10.3056  10.3069  10.3076  10.3083  10.3186  10.3298  10.3394  10.3420
    10.3436  10.3548  10.3612  10.3648  10.3661  10.3697  10.3851  10.3964
    10.4014  10.5193  10.5206  10.5720  10.6165  10.6225  10.6397  10.6723
    10.6996  10.7860  10.7888  10.7909  10.8122  10.8151  10.8268  10.8311
    10.8448  10.8541  10.8573  10.8755  10.8768  10.8786  10.8799  10.8893
    10.9093  10.9230  11.0035  11.0329  11.0770  11.1093  11.2130  11.2208
    11.2255  11.2272  11.2342  11.2647  11.3237  11.3247  11.3352  11.3503
    11.3614  11.3816  11.3897  11.3910  11.3938  11.4023  11.4113  11.4176
    11.4456  11.4486  11.5151  11.5912  11.5927  11.5952  11.5991  11.5997
    11.6445  11.6687  11.7265  11.7324  11.7440  11.7539  11.7742  11.8333
    11.8447  11.8681  11.8725  11.8771  11.9223  11.9287  11.9426  11.9553
    11.9767  11.9900  12.0609  12.1015  12.1024  12.1050  12.1062  12.1306
    12.1416  12.1441  12.1486  12.1494  12.1562  12.1797  12.2209  12.2343
    12.2508  12.2583  12.2639  12.2642  12.3337  12.3523  12.3943  12.4081
    12.4364  12.4365  12.4504  12.4918  12.5103  12.5120  12.5216  12.5276
    12.5495  12.5653  12.5824  12.5906  12.5926  12.6004  12.6622  12.7084
    12.7170  12.7232  12.7309  12.7509  12.7666  12.8607  13.0922  13.0985
    13.1170  13.1348  13.1999  13.2199  13.3909  13.6439  13.8128  13.8345
    13.8739  14.0330  14.1390  14.1925  14.2790  14.3553  14.3894  14.6829
    14.7608  14.8151  14.8228  14.9800  15.0247  15.0404  15.1558  15.1645
    15.2102  15.3631  15.3672  15.3977  15.4290  15.4565  15.5653  15.6237
    15.6270  15.7254  15.7305  15.7662  15.7672  15.8733  15.8841  16.0145
    16.0240  16.0481  16.1110  16.1114  16.1196  16.1676  16.1828  16.2086
    16.2604  16.2784  16.3091  16.3176  16.3384  16.3511  16.3726  16.3931
    16.4275  16.4681  16.4754  16.6073  16.6212  16.6978  16.7749  16.7973
    16.9673  17.0324  17.0790  17.1651  17.2151  17.2371  17.2910  17.3167
    17.4498  17.5894  17.8499  17.9087  17.9243  17.9325  17.9714  18.1764
    18.2840  18.3300  18.4245  18.9236  18.9493  19.0540  19.1277  19.1753

          k = 0.0000 0.0000-0.5734 ( 31692 PWs)   bands (ev):

   -66.7683 -66.7220 -66.7001 -66.6934 -66.6718 -66.6353 -66.6177 -66.5964
   -66.5929 -62.4089 -62.4014 -62.3969 -62.3933 -62.3897 -62.3817 -62.3170
   -62.3000 -62.2947 -35.5287 -35.5120 -35.4931 -35.4880 -35.4712 -35.4710
   -35.4630 -35.4431 -35.4376 -35.4371 -35.4352 -35.4286 -35.4147 -35.4045
   -35.4016 -35.3969 -35.3743 -35.3737 -35.3627 -35.3577 -35.3481 -35.3472
   -35.3415 -35.3413 -35.3403 -35.3319 -35.3293 -31.2453 -31.2427 -31.2374
   -31.2336 -31.2328 -31.2273 -31.2264 -31.2261 -31.2249 -31.2208 -31.2167
   -31.2138 -31.2134 -31.2076 -31.2025 -31.1994 -31.1954 -31.1945 -31.1534
   -31.1524 -31.1480 -31.1439 -31.1282 -31.1254 -31.1160 -31.1016 -31.1009
     6.1757   6.1972   7.5394   7.5532   7.5665   7.5841   7.5868   7.6021
     7.6192   7.6301   8.3085   8.3251   8.3391   8.3490   8.3616   8.3694
     8.3783   8.3867   8.4525   8.4557   8.4781   8.4784   8.4900   8.5001
     8.5249   8.5254   8.7010   8.7099   8.7618   8.7805   8.9447   8.9647
     8.9660   8.9806   8.9812   8.9871   8.9873   8.9945   9.0087   9.0179
     9.0284   9.0420   9.0440   9.0571   9.0818   9.1067   9.1946   9.2116
     9.2175   9.2326   9.2465   9.2594   9.2730   9.2746   9.2808   9.2853
     9.2898   9.2904   9.2950   9.3046   9.3078   9.3098   9.4104   9.4105
     9.4300   9.4306   9.4374   9.4482   9.4516   9.4552   9.4629   9.4755
     9.4886   9.4955   9.5021   9.5166   9.5277   9.5470   9.6509   9.6794
     9.7885   9.7934   9.7991   9.8052   9.8060   9.8192   9.8275   9.8354
     9.8791   9.8812   9.8815   9.8833   9.8884   9.8908   9.8922   9.8935
    10.0592  10.0612  10.0636  10.0655  10.1394  10.1569  10.1588  10.1696
    10.1719  10.1864  10.1880  10.1933  10.2047  10.2159  10.3594  10.3610
    10.3761  10.3793  10.3930  10.4044  10.4180  10.4209  10.4789  10.5035
    10.5960  10.5971  10.6133  10.6169  10.6228  10.6357  10.6677  10.6722
    10.6724  10.6888  10.7097  10.7445  10.7526  10.7999  10.8014  10.8161
    10.9808  10.9991  10.9991  11.0073  11.0144  11.0199  11.0387  11.0828
    11.0872  11.0996  11.1073  11.1290  11.1503  11.1654  11.2045  11.2166
    11.2379  11.2435  11.2512  11.2513  11.2620  11.2624  11.2719  11.2728
    11.2742  11.2804  11.2814  11.2835  11.2905  11.2906  11.2970  11.2999
    11.3069  11.3089  11.3251  11.3260  11.5592  11.5743  11.7143  11.7149
    11.7159  11.7204  11.7237  11.7245  11.7265  11.7275  11.7347  11.7660
    11.7765  11.7813  11.7883  11.7965  11.8068  11.8227  11.8291  11.9291
    11.9815  11.9887  11.9946  12.0156  12.0276  12.0328  12.0498  12.0719
    12.1314  12.1710  12.1963  12.2343  12.2582  12.3342  12.3480  12.3686
    12.3758  12.4298  12.4361  12.4771  12.4801  12.4821  12.4850  12.4898
    12.4982  12.5047  12.5351  12.5394  12.5455  12.5541  12.5784  12.6452
    12.6570  12.6792  12.6851  12.7712  12.7831  12.8133  12.9221  12.9692
    12.9825  13.0338  13.0518  13.0747  13.1359  13.1608  13.2271  13.2273
    13.2442  13.2742  13.2870  13.3097  13.3229  13.5417  13.6245  13.7276
    13.9082  13.9619  13.9877  14.1181  14.1542  14.1630  14.2981  14.4737
    14.5214  14.8611  14.9011  14.9136  14.9830  14.9985  15.0060  15.1176
    15.1633  15.1670  15.1732  15.3287  15.3649  15.4143  15.4668  15.5492
    15.6577  15.6634  15.6813  15.7685  15.8003  15.8764  15.9509  15.9789
    16.0824  16.0860  16.1156  16.1489  16.1725  16.1847  16.2062  16.2163
    16.2301  16.2455  16.2537  16.2620  16.2725  16.2879  16.2966  16.2998
    16.3238  16.3522  16.5123  16.5874  16.5930  16.6734  16.7100  16.7408
    16.8471  16.8928  17.3219  17.3278  17.3529  17.4030  17.4816  17.5442
    17.5537  17.5650  17.6637  17.6936  17.7116  17.7436  17.8861  17.9057
    17.9177  17.9203  18.1662  18.2337  18.2337  18.2732  18.2985  18.3286

          k = 0.0000-0.5000 0.0000 ( 31722 PWs)   bands (ev):

   -66.7683 -66.7220 -66.7001 -66.6934 -66.6718 -66.6353 -66.6177 -66.5964
   -66.5929 -62.4089 -62.4015 -62.3969 -62.3933 -62.3897 -62.3817 -62.3170
   -62.3000 -62.2947 -35.5287 -35.5120 -35.4931 -35.4880 -35.4712 -35.4710
   -35.4630 -35.4431 -35.4376 -35.4371 -35.4352 -35.4286 -35.4147 -35.4045
   -35.4016 -35.3969 -35.3743 -35.3737 -35.3627 -35.3577 -35.3481 -35.3472
   -35.3415 -35.3413 -35.3403 -35.3319 -35.3293 -31.2453 -31.2427 -31.2374
   -31.2336 -31.2328 -31.2273 -31.2264 -31.2261 -31.2249 -31.2208 -31.2167
   -31.2138 -31.2134 -31.2076 -31.2025 -31.1994 -31.1954 -31.1945 -31.1534
   -31.1524 -31.1480 -31.1439 -31.1282 -31.1254 -31.1160 -31.1016 -31.1009
     6.0185   6.0720   7.4249   7.4310   7.4443   7.5002   7.6761   7.6794
     8.0920   8.1137   8.1459   8.1820   8.2092   8.2353   8.2512   8.2642
     8.4057   8.4213   8.4375   8.4940   8.6336   8.6396   8.6413   8.6469
     8.6580   8.6635   8.7055   8.7127   8.7543   8.8072   8.8322   8.8412
     8.8473   8.8693   8.8840   8.8901   8.8971   8.9102   8.9165   8.9213
     8.9248   8.9305   8.9415   8.9629   9.0462   9.0559   9.1661   9.1687
     9.1831   9.2083   9.2220   9.2269   9.2306   9.2496   9.3382   9.3415
     9.3458   9.3545   9.3835   9.4161   9.4717   9.4868   9.4968   9.5048
     9.5220   9.5337   9.5780   9.5807   9.5866   9.6031   9.6103   9.6129
     9.6212   9.6281   9.6300   9.6317   9.6371   9.6391   9.6441   9.6471
     9.6564   9.6624   9.6780   9.6893   9.6971   9.7051   9.7197   9.7230
     9.7303   9.7456   9.7775   9.7857   9.8878   9.9137   9.9448   9.9669
    10.0219  10.0413  10.1379  10.2002  10.2184  10.2300  10.2517  10.2566
    10.2594  10.2611  10.2615  10.2641  10.2928  10.2983  10.3375  10.3515
    10.3614  10.3761  10.3893  10.3941  10.4314  10.4445  10.4511  10.4723
    10.5261  10.5313  10.5372  10.5544  10.5634  10.5703  10.5735  10.5875
    10.6058  10.6527  10.6566  10.6943  10.7041  10.7403  10.7502  10.7757
    10.7859  10.8192  10.8202  10.8575  10.8603  10.8707  10.9016  10.9428
    10.9992  11.0091  11.0156  11.0251  11.0399  11.0824  11.1722  11.1816
    11.3483  11.3505  11.3527  11.3786  11.3791  11.4009  11.4012  11.4136
    11.4215  11.4346  11.4573  11.4790  11.4793  11.5351  11.5414  11.5422
    11.5610  11.5728  11.5833  11.6178  11.6233  11.6479  11.6703  11.7379
    11.7655  11.7846  11.7915  11.8190  11.8526  11.8680  11.8686  11.8728
    11.8939  11.9001  11.9209  11.9250  11.9410  11.9425  11.9551  11.9600
    11.9696  11.9724  11.9878  11.9955  12.0535  12.0921  12.1689  12.1698
    12.1958  12.2074  12.2098  12.2147  12.2290  12.2527  12.2727  12.2830
    12.2880  12.2943  12.3190  12.3220  12.3444  12.4043  12.4108  12.4456
    12.4489  12.4845  12.4869  12.4927  12.5132  12.5401  12.5482  12.5608
    12.5729  12.6094  12.6185  12.6438  12.6555  12.6638  12.7289  12.7987
    12.8667  13.0076  13.0336  13.0678  13.0986  13.1025  13.1148  13.1442
    13.1649  13.1786  13.2023  13.2329  13.2528  13.2832  13.3414  13.3430
    13.3479  13.4664  13.4992  13.5814  13.6340  14.4528  14.4786  14.5742
    14.6433  14.7361  14.7641  14.7690  14.7981  14.9030  14.9486  14.9912
    15.0503  15.0682  15.1129  15.2526  15.4265  15.4642  15.5376  15.6293
    15.7023  15.7675  15.7885  15.7926  15.8008  15.8106  15.8477  16.0173
    16.0196  16.0594  16.0737  16.0839  16.1201  16.1349  16.1578  16.1759
    16.1902  16.2047  16.2438  16.2526  16.2960  16.3192  16.3701  16.4212
    16.4302  16.4974  16.5576  16.6005  16.6560  16.7785  17.0449  17.0722
    17.1381  17.1887  17.2183  17.3241  17.4050  17.4346  17.6160  17.6353
    17.7213  17.7674  17.7709  17.8255  17.8507  17.8708  17.8747  17.9747
    17.9879  18.0020  18.1760  18.2749  19.2293  19.2937  19.3410  19.3844

          k = 0.0000-0.5000-0.5734 ( 31696 PWs)   bands (ev):

   -66.7683 -66.7220 -66.7001 -66.6934 -66.6718 -66.6353 -66.6177 -66.5964
   -66.5929 -62.4089 -62.4015 -62.3969 -62.3933 -62.3897 -62.3817 -62.3170
   -62.3000 -62.2947 -35.5287 -35.5120 -35.4931 -35.4880 -35.4712 -35.4710
   -35.4630 -35.4431 -35.4376 -35.4371 -35.4352 -35.4286 -35.4147 -35.4045
   -35.4016 -35.3969 -35.3743 -35.3737 -35.3627 -35.3577 -35.3481 -35.3472
   -35.3415 -35.3413 -35.3403 -35.3319 -35.3293 -31.2453 -31.2427 -31.2374
   -31.2336 -31.2328 -31.2273 -31.2264 -31.2261 -31.2249 -31.2208 -31.2167
   -31.2138 -31.2134 -31.2076 -31.2025 -31.1994 -31.1954 -31.1945 -31.1534
   -31.1524 -31.1480 -31.1439 -31.1282 -31.1254 -31.1160 -31.1016 -31.1009
     6.5271   6.5491   6.6260   6.6448   7.8342   7.8603   7.8628   7.8689
     7.9093   7.9159   7.9283   7.9511   8.2714   8.2781   8.3020   8.3049
     8.5173   8.5255   8.5328   8.5359   8.6663   8.6725   8.6746   8.6756
     8.6860   8.7014   8.7122   8.7263   8.7311   8.7368   8.7503   8.7536
     8.7564   8.7848   8.7876   8.7901   8.9534   8.9692   9.0371   9.0427
     9.0433   9.0481   9.0569   9.0595   9.1911   9.2063   9.2140   9.2169
     9.2225   9.2293   9.2358   9.2390   9.2438   9.2472   9.2500   9.2577
     9.2605   9.2653   9.2762   9.2795   9.3035   9.3447   9.3830   9.4064
     9.4169   9.4279   9.4521   9.4566   9.4653   9.4671   9.4692   9.4891
     9.5054   9.5192   9.5209   9.5314   9.5317   9.5460   9.5547   9.5603
     9.5819   9.5977   9.7551   9.7572   9.7954   9.8135   9.8177   9.8213
     9.8229   9.8408   9.8462   9.8505   9.8568   9.8618   9.8673   9.8807
     9.9389   9.9452  10.0169  10.0272  10.0334  10.0471  10.0526  10.0534
    10.3602  10.3764  10.3895  10.3918  10.4070  10.4139  10.4317  10.4403
    10.4515  10.4521  10.4723  10.4759  10.4778  10.4814  10.4912  10.5150
    10.5310  10.5637  10.5690  10.5782  10.5798  10.5910  10.6424  10.6498
    10.6561  10.6589  10.6803  10.6828  10.6922  10.7011  10.7138  10.7269
    10.7700  10.7904  10.8617  10.8795  10.9767  10.9876  11.0303  11.0327
    11.1134  11.1206  11.1476  11.1857  11.1922  11.1938  11.1956  11.2071
    11.2124  11.2137  11.2966  11.2987  11.3427  11.3479  11.3689  11.3811
    11.3847  11.3978  11.4219  11.4479  11.4495  11.4527  11.4874  11.4985
    11.5671  11.5706  11.5823  11.5836  11.5920  11.6126  11.6184  11.6215
    11.6239  11.6274  11.7326  11.7462  11.7463  11.7713  11.7832  11.8813
    11.8892  11.9091  11.9268  11.9378  11.9669  11.9951  12.0046  12.0137
    12.0216  12.0269  12.0300  12.0401  12.0419  12.0431  12.0571  12.0903
    12.2248  12.2354  12.2620  12.2747  12.2793  12.2933  12.3067  12.3298
    12.3431  12.3477  12.3663  12.3724  12.4096  12.4405  12.4426  12.4751
    12.4849  12.4967  12.5005  12.5174  12.5528  12.5617  12.5724  12.6108
    12.6159  12.6399  12.6450  12.6538  12.6541  12.7015  12.7390  12.7666
    12.7790  12.8443  12.9323  12.9835  12.9997  13.0424  13.0856  13.1309
    13.2210  13.2587  13.3593  13.4552  13.4720  13.5561  13.6084  13.9165
    13.9578  13.9769  14.0491  14.0788  14.1539  14.2795  14.3091  14.4160
    14.4226  14.5511  14.5606  14.5758  14.6305  14.7531  14.7699  15.0730
    15.0854  15.1355  15.2009  15.3824  15.3940  15.4213  15.4325  15.4732
    15.4817  15.6646  15.7159  15.7298  15.8365  15.9379  15.9687  16.0250
    16.0475  16.0639  16.1043  16.1498  16.1559  16.2205  16.2262  16.2450
    16.2871  16.3087  16.3507  16.3909  16.3931  16.4063  16.4101  16.4240
    16.4278  16.4450  16.4842  16.5696  16.5704  16.6165  16.6942  16.7416
    16.7864  16.8037  16.8395  16.8595  16.9098  16.9660  16.9772  17.0034
    17.0482  17.0710  17.1619  17.2664  18.6655  18.6958  18.7175  18.7534
    18.7810  18.7875  18.8002  18.8457  18.8773  18.8996  18.9162  18.9170

          k =-0.5000-0.5000 0.0000 ( 31612 PWs)   bands (ev):

   -66.7683 -66.7220 -66.7001 -66.6934 -66.6718 -66.6353 -66.6177 -66.5964
   -66.5929 -62.4089 -62.4015 -62.3969 -62.3933 -62.3897 -62.3817 -62.3170
   -62.3000 -62.2947 -35.5287 -35.5120 -35.4931 -35.4880 -35.4712 -35.4710
   -35.4630 -35.4431 -35.4376 -35.4371 -35.4352 -35.4286 -35.4147 -35.4045
   -35.4016 -35.3970 -35.3741 -35.3737 -35.3628 -35.3579 -35.3481 -35.3472
   -35.3414 -35.3413 -35.3403 -35.3320 -35.3293 -31.2470 -31.2403 -31.2377
   -31.2338 -31.2333 -31.2269 -31.2262 -31.2261 -31.2250 -31.2209 -31.2170
   -31.2134 -31.2132 -31.2076 -31.2025 -31.1998 -31.1954 -31.1945 -31.1534
   -31.1524 -31.1480 -31.1439 -31.1282 -31.1254 -31.1160 -31.1016 -31.1009
     6.4068   6.4211   6.4501   6.4943   8.0125   8.0149   8.0227   8.0262
     8.1001   8.1115   8.2963   8.3081   8.3214   8.3293   8.3369   8.3399
     8.3481   8.3521   8.3582   8.3720   8.3757   8.4151   8.5905   8.6166
     8.6403   8.6605   8.6782   8.7008   8.7138   8.7178   8.7274   8.7377
     8.7668   8.8162   8.9227   8.9385   8.9538   8.9723   8.9779   8.9787
     8.9797   8.9883   8.9976   9.0130   9.0181   9.0337   9.0470   9.0491
     9.1195   9.1278   9.3100   9.3109   9.3209   9.3228   9.4051   9.4087
     9.4136   9.4232   9.4276   9.4310   9.4372   9.4422   9.4479   9.4532
     9.4595   9.4715   9.4765   9.4776   9.4830   9.4918   9.4959   9.5044
     9.5119   9.5158   9.5352   9.5415   9.5469   9.5663   9.5811   9.5938
     9.6043   9.6135   9.7003   9.7012   9.7753   9.7793   9.8211   9.8271
     9.8286   9.8361   9.8442   9.8492   9.8519   9.8874  10.0397  10.0599
    10.0801  10.1071  10.1244  10.1283  10.1419  10.1501  10.1527  10.1639
    10.1748  10.1802  10.2063  10.2150  10.2246  10.2272  10.2292  10.2354
    10.2379  10.2384  10.2418  10.2562  10.4609  10.4753  10.4901  10.4947
    10.4990  10.5034  10.5084  10.5558  10.5940  10.6216  10.6451  10.6499
    10.6585  10.6649  10.6798  10.6868  10.6951  10.7013  10.7081  10.7104
    10.7143  10.7495  10.7857  10.8225  10.8331  10.8410  10.8685  10.8804
    10.9367  10.9509  11.1962  11.2010  11.2196  11.2321  11.3073  11.3234
    11.3325  11.3423  11.3609  11.3683  11.3857  11.3924  11.5309  11.5472
    11.6045  11.6332  11.6374  11.6433  11.6446  11.6499  11.6525  11.6544
    11.7002  11.7022  11.7265  11.7325  11.7339  11.7475  11.7546  11.7593
    11.8701  11.8771  11.8791  11.8817  11.8856  11.8886  11.9425  11.9456
    12.0022  12.0418  12.0664  12.0842  12.0972  12.1048  12.1072  12.1107
    12.1117  12.1154  12.1202  12.1216  12.1453  12.1465  12.1658  12.1731
    12.1978  12.2007  12.2111  12.2271  12.2274  12.2384  12.2577  12.2736
    12.2748  12.2797  12.2905  12.2968  12.2980  12.3072  12.3129  12.3423
    12.3662  12.3818  12.4162  12.4396  12.4819  12.4929  12.5174  12.5299
    12.5398  12.5701  12.5823  12.6063  12.6090  12.6362  12.6631  12.6635
    12.7058  12.8076  12.8446  12.8736  12.8921  12.9288  12.9439  12.9537
    12.9745  12.9989  13.0000  13.0057  13.0289  13.5633  13.5747  13.6762
    13.6781  13.6790  13.7013  13.8623  13.8796  14.0037  14.0568  14.1794
    14.1993  14.2075  14.3457  14.4528  14.5413  14.6870  14.8084  15.0705
    15.1975  15.2164  15.2311  15.2353  15.3767  15.4867  15.5467  15.7183
    15.7420  15.7979  15.7984  15.8797  15.8851  15.9016  15.9185  15.9493
    15.9773  15.9937  16.0137  16.0177  16.0192  16.0794  16.1060  16.1404
    16.1707  16.1795  16.2548  16.2952  16.3305  16.3466  16.4166  16.4461
    16.4715  16.4926  16.5070  16.6648  16.6676  16.6974  16.7093  16.7218
    16.8568  16.8937  16.9110  16.9226  17.3890  17.3914  17.8092  17.9380
    18.1704  18.1953  18.2216  18.2426  18.2952  18.3147  18.4946  18.5716
    18.5758  18.6443  18.6752  18.7139  18.7477  18.7960  18.7976  18.8083

          k =-0.5000-0.5000-0.5734 ( 31672 PWs)   bands (ev):

   -66.7683 -66.7220 -66.7001 -66.6934 -66.6718 -66.6353 -66.6177 -66.5964
   -66.5929 -62.4089 -62.4015 -62.3969 -62.3933 -62.3897 -62.3817 -62.3170
   -62.3000 -62.2947 -35.5287 -35.5120 -35.4931 -35.4880 -35.4712 -35.4710
   -35.4630 -35.4431 -35.4376 -35.4371 -35.4352 -35.4286 -35.4147 -35.4045
   -35.4016 -35.3970 -35.3741 -35.3737 -35.3628 -35.3579 -35.3481 -35.3472
   -35.3414 -35.3413 -35.3403 -35.3320 -35.3293 -31.2470 -31.2403 -31.2377
   -31.2338 -31.2333 -31.2269 -31.2262 -31.2261 -31.2250 -31.2209 -31.2170
   -31.2134 -31.2132 -31.2076 -31.2025 -31.1998 -31.1954 -31.1945 -31.1534
   -31.1524 -31.1480 -31.1439 -31.1282 -31.1254 -31.1160 -31.1016 -31.1009
     6.8832   6.9170   6.9373   6.9457   6.9959   7.0080   7.0297   7.0558
     8.4480   8.4593   8.4792   8.4842   8.4866   8.4898   8.4923   8.4993
     8.5042   8.5086   8.5141   8.5206   8.5393   8.5458   8.5462   8.5666
     8.5761   8.5921   8.5927   8.6015   8.8766   8.8792   8.8864   8.8966
     8.9087   8.9098   8.9372   8.9510   9.0870   9.1073   9.1142   9.1202
     9.1257   9.1467   9.1517   9.1532   9.1607   9.1613   9.1625   9.1650
     9.1662   9.1675   9.1689   9.1728   9.1747   9.1768   9.1791   9.1821
     9.1851   9.1873   9.1906   9.1984   9.2012   9.2122   9.2184   9.2220
     9.2289   9.2344   9.2366   9.2449   9.2535   9.2669   9.2764   9.2901
     9.5444   9.5526   9.5620   9.5737   9.5834   9.5955   9.6157   9.6249
     9.6496   9.6725   9.6779   9.6894   9.7176   9.7372   9.7511   9.7848
     9.8182   9.8375   9.8432   9.8523   9.8769   9.8840   9.8897   9.8981
    10.1060  10.1200  10.1443  10.1546  10.1694  10.1816  10.1939  10.2022
    10.2943  10.3106  10.4494  10.4630  10.4647  10.4665  10.4794  10.4841
    10.4843  10.4909  10.5019  10.5033  10.5107  10.5133  10.5135  10.5141
    10.5204  10.5338  10.5388  10.5634  10.5725  10.5731  10.5814  10.6005
    10.6063  10.6088  10.6176  10.6406  10.6423  10.6638  10.6652  10.6847
    10.6897  10.6932  10.7039  10.7067  10.7326  10.7358  11.0463  11.0519
    11.0658  11.0702  11.0906  11.0999  11.1300  11.1355  11.3836  11.3858
    11.3959  11.3962  11.4059  11.4273  11.4399  11.4447  11.4754  11.4814
    11.4856  11.4921  11.5024  11.5069  11.5199  11.5306  11.6357  11.6412
    11.6450  11.6464  11.6507  11.6519  11.6951  11.7005  11.7053  11.7248
    11.7277  11.7332  11.7389  11.7419  11.7724  11.7788  11.7815  11.8042
    11.8052  11.8187  11.8235  11.8372  11.8453  11.8680  11.9927  12.0171
    12.0334  12.0555  12.0721  12.0799  12.0881  12.1273  12.1512  12.1618
    12.1788  12.2062  12.2278  12.2311  12.2494  12.2872  12.3246  12.3342
    12.3505  12.3988  12.4028  12.4160  12.4193  12.4297  12.4371  12.4669
    12.4783  12.4950  12.5021  12.5318  12.5355  12.5604  12.5753  12.6013
    12.6145  12.6738  12.7004  12.7237  12.7260  12.7589  12.7742  12.8192
    12.9019  12.9273  12.9532  12.9787  13.1041  13.1369  13.1497  13.2436
    13.2639  13.2824  13.2921  13.3320  13.3512  13.3966  13.4845  13.4982
    13.5282  13.7093  13.7909  13.8141  13.8514  13.9739  14.1350  14.1586
    14.2137  14.3015  14.3425  14.6924  14.8091  14.8319  14.8640  14.8925
    14.9602  15.0675  15.1804  15.3139  15.3355  15.6638  15.6767  15.6852
    15.7017  15.7539  15.8005  15.8911  15.9323  15.9626  15.9678  16.0006
    16.0104  16.0210  16.0887  16.1154  16.1436  16.1645  16.1701  16.2209
    16.2212  16.2338  16.2494  16.3175  16.3318  16.3910  16.3937  16.4937
    16.5317  16.5351  16.5597  16.6005  16.6086  16.6378  16.7025  16.7202
    16.7769  16.7846  16.8099  16.8827  16.8900  16.9635  16.9904  17.0004
    17.1256  17.1284  17.7284  17.8082  17.8575  17.8607  19.0055  19.0122
    19.0404  19.0445  19.0797  19.1089  19.1882  19.2237  19.2329  19.3399

          k =-0.5000 0.0000 0.0000 ( 31722 PWs)   bands (ev):

   -66.7683 -66.7220 -66.7001 -66.6934 -66.6718 -66.6353 -66.6177 -66.5964
   -66.5929 -62.4089 -62.4015 -62.3969 -62.3933 -62.3897 -62.3817 -62.3170
   -62.3000 -62.2947 -35.5287 -35.5120 -35.4931 -35.4880 -35.4712 -35.4710
   -35.4630 -35.4431 -35.4376 -35.4371 -35.4352 -35.4286 -35.4147 -35.4045
   -35.4016 -35.3970 -35.3741 -35.3737 -35.3628 -35.3579 -35.3481 -35.3472
   -35.3414 -35.3413 -35.3403 -35.3320 -35.3293 -31.2470 -31.2403 -31.2377
   -31.2338 -31.2333 -31.2269 -31.2262 -31.2261 -31.2250 -31.2209 -31.2170
   -31.2134 -31.2132 -31.2076 -31.2025 -31.1998 -31.1954 -31.1945 -31.1534
   -31.1524 -31.1480 -31.1439 -31.1282 -31.1254 -31.1160 -31.1016 -31.1009
     6.0353   6.0551   7.4024   7.4289   7.4801   7.4878   7.6767   7.6801
     8.1108   8.1166   8.1550   8.1730   8.1907   8.1972   8.2695   8.2818
     8.3841   8.4195   8.4796   8.4872   8.6196   8.6364   8.6374   8.6548
     8.6576   8.6745   8.6982   8.7066   8.7826   8.8011   8.8156   8.8313
     8.8569   8.8599   8.8731   8.8932   8.9021   8.9098   8.9215   8.9248
     8.9313   8.9370   8.9493   8.9526   9.0507   9.0532   9.1533   9.1686
     9.2027   9.2083   9.2194   9.2260   9.2281   9.2340   9.3147   9.3273
     9.3569   9.3778   9.3986   9.4055   9.4699   9.4777   9.4857   9.4981
     9.5381   9.5586   9.5621   9.5669   9.5873   9.5980   9.6030   9.6171
     9.6261   9.6262   9.6355   9.6378   9.6408   9.6423   9.6445   9.6459
     9.6499   9.6721   9.6791   9.6895   9.6990   9.7050   9.7085   9.7315
     9.7385   9.7617   9.7629   9.7720   9.8977   9.9016   9.9341   9.9575
    10.0200  10.0351  10.1714  10.1925  10.2074  10.2173  10.2452  10.2470
    10.2758  10.2773  10.2781  10.2853  10.2855  10.2880  10.3366  10.3502
    10.3822  10.3853  10.3883  10.3928  10.4354  10.4423  10.4688  10.4742
    10.4910  10.5023  10.5104  10.5361  10.5554  10.5634  10.5849  10.5901
    10.6605  10.6620  10.6762  10.7088  10.7097  10.7456  10.7467  10.7673
    10.8027  10.8070  10.8364  10.8499  10.8593  10.8653  10.9031  10.9302
    10.9576  10.9665  11.0232  11.0420  11.0648  11.0784  11.1751  11.1813
    11.3020  11.3267  11.3461  11.3511  11.3623  11.3673  11.4149  11.4208
    11.4382  11.4632  11.4879  11.4887  11.4904  11.5341  11.5361  11.5634
    11.5703  11.5995  11.6097  11.6109  11.6305  11.6645  11.7333  11.7468
    11.7512  11.7910  11.8173  11.8290  11.8294  11.8524  11.8640  11.8682
    11.8728  11.8778  11.8867  11.9015  11.9139  11.9212  11.9468  11.9535
    11.9679  11.9812  12.0119  12.0141  12.1000  12.1164  12.1545  12.1644
    12.1723  12.1788  12.2046  12.2218  12.2435  12.2505  12.2515  12.2667
    12.2904  12.3030  12.3343  12.3948  12.4002  12.4005  12.4228  12.4460
    12.4616  12.4687  12.4808  12.5096  12.5146  12.5396  12.5435  12.5755
    12.5896  12.5975  12.6081  12.6251  12.6580  12.6626  12.7485  12.7852
    12.8533  12.8816  12.9535  13.0191  13.0302  13.0406  13.0943  13.1335
    13.1646  13.2206  13.2269  13.2490  13.2781  13.2845  13.3151  13.3969
    13.4782  13.4946  13.5643  13.5843  13.6452  14.3358  14.3894  14.4942
    14.4942  14.7518  14.7683  14.8294  14.9147  14.9759  15.0642  15.1171
    15.1227  15.1302  15.1620  15.2832  15.3250  15.4203  15.5388  15.6042
    15.6316  15.7076  15.7494  15.7836  15.8347  15.8427  15.9035  15.9766
    15.9940  16.0126  16.0166  16.0757  16.0973  16.1070  16.1199  16.1330
    16.1677  16.2043  16.2455  16.2506  16.2791  16.2815  16.3188  16.4003
    16.4119  16.5593  16.6279  16.6659  16.7294  16.7532  17.0030  17.0321
    17.1996  17.2180  17.2842  17.2879  17.5041  17.5238  17.6029  17.6223
    17.6881  17.7565  17.7902  17.7909  17.8735  17.9060  17.9066  17.9104
    17.9830  18.0519  18.1165  18.2253  19.3003  19.3208  19.3367  19.3821

          k =-0.5000 0.0000 0.5734 ( 31696 PWs)   bands (ev):

   -66.7683 -66.7220 -66.7001 -66.6934 -66.6718 -66.6353 -66.6177 -66.5964
   -66.5929 -62.4089 -62.4015 -62.3969 -62.3933 -62.3897 -62.3817 -62.3170
   -62.3000 -62.2947 -35.5287 -35.5120 -35.4931 -35.4880 -35.4712 -35.4710
   -35.4630 -35.4431 -35.4376 -35.4371 -35.4352 -35.4286 -35.4147 -35.4045
   -35.4016 -35.3970 -35.3741 -35.3737 -35.3628 -35.3579 -35.3481 -35.3472
   -35.3414 -35.3413 -35.3403 -35.3320 -35.3293 -31.2470 -31.2403 -31.2377
   -31.2338 -31.2333 -31.2269 -31.2262 -31.2261 -31.2250 -31.2209 -31.2170
   -31.2134 -31.2132 -31.2076 -31.2025 -31.1998 -31.1954 -31.1945 -31.1534
   -31.1524 -31.1480 -31.1439 -31.1282 -31.1254 -31.1160 -31.1016 -31.1009
     6.5518   6.5761   6.5984   6.6147   7.8345   7.8591   7.8766   7.8852
     7.9039   7.9174   7.9230   7.9450   8.2726   8.2777   8.3008   8.3044
     8.5074   8.5143   8.5445   8.5481   8.6620   8.6666   8.6722   8.6775
     8.6800   8.6841   8.7078   8.7139   8.7397   8.7404   8.7477   8.7531
     8.7579   8.7764   8.8010   8.8202   8.9726   8.9974   9.0107   9.0230
     9.0353   9.0444   9.0542   9.0669   9.2038   9.2055   9.2108   9.2129
     9.2157   9.2220   9.2247   9.2263   9.2467   9.2496   9.2563   9.2690
     9.2734   9.2736   9.2999   9.3004   9.3083   9.3210   9.3825   9.4017
     9.4162   9.4253   9.4609   9.4647   9.4652   9.4657   9.4674   9.4898
     9.4949   9.5081   9.5152   9.5237   9.5401   9.5450   9.5451   9.5531
     9.5554   9.5791   9.7570   9.7597   9.7914   9.7955   9.8083   9.8102
     9.8443   9.8477   9.8510   9.8526   9.8593   9.8626   9.8670   9.8876
     9.9713   9.9748   9.9960  10.0075  10.0251  10.0293  10.0584  10.0624
    10.3619  10.3800  10.4008  10.4029  10.4123  10.4200  10.4317  10.4612
    10.4674  10.4695  10.4797  10.4819  10.4916  10.4922  10.5052  10.5088
    10.5090  10.5197  10.5663  10.5771  10.6053  10.6083  10.6126  10.6172
    10.6514  10.6552  10.6746  10.6750  10.6854  10.7008  10.7057  10.7274
    10.7667  10.7864  10.8695  10.8828  10.9637  10.9750  11.0789  11.0838
    11.1120  11.1281  11.1329  11.1414  11.1671  11.1925  11.1970  11.2019
    11.2112  11.2132  11.3016  11.3208  11.3533  11.3638  11.3690  11.3720
    11.3747  11.3857  11.3994  11.4154  11.4847  11.4864  11.4871  11.5177
    11.5195  11.5275  11.5717  11.5720  11.5862  11.6018  11.6373  11.6394
    11.6430  11.6449  11.7184  11.7265  11.7359  11.8005  11.8043  11.8156
    11.9178  11.9272  11.9342  11.9523  11.9603  11.9635  11.9820  12.0180
    12.0355  12.0363  12.0405  12.0447  12.0801  12.0937  12.1137  12.1415
    12.1866  12.1921  12.2213  12.2313  12.2422  12.2890  12.2967  12.3204
    12.3647  12.3821  12.4021  12.4405  12.4488  12.4681  12.4846  12.4907
    12.5105  12.5270  12.5437  12.5509  12.5567  12.5602  12.5813  12.5816
    12.5936  12.6011  12.6434  12.6519  12.6640  12.7268  12.7281  12.7799
    12.7959  12.8257  12.8488  12.8846  12.9107  12.9447  12.9884  13.0307
    13.0626  13.2146  13.5428  13.6087  13.6153  13.6320  13.6887  13.7593
    13.8562  13.9954  14.0089  14.1487  14.2460  14.2519  14.2886  14.4880
    14.4887  14.5478  14.5526  14.6146  14.6260  14.7475  14.7649  14.9008
    14.9096  15.2597  15.2898  15.3403  15.3752  15.3815  15.3951  15.5357
    15.6333  15.7979  15.8078  15.8198  15.8450  15.8796  15.9430  15.9570
    16.0066  16.0241  16.0346  16.0376  16.0443  16.1492  16.1806  16.1933
    16.2085  16.2571  16.2887  16.3208  16.3534  16.3593  16.3800  16.4133
    16.4306  16.5838  16.6009  16.6387  16.6578  16.6976  16.7330  16.7427
    16.7554  16.8299  16.8947  16.8979  16.9421  16.9813  16.9917  16.9975
    17.0596  17.1002  17.1981  17.2728  18.5797  18.6084  18.6675  18.6853
    18.8040  18.8269  18.8336  18.8614  18.8943  18.9014  18.9452  18.9481

 ------ SPIN DOWN ----------


          k = 0.0000 0.0000 0.0000 ( 31747 PWs)   bands (ev):

   -66.7845 -66.7632 -66.7433 -66.7392 -66.7308 -66.7267 -66.6115 -66.5822
   -66.5562 -62.4029 -62.3834 -62.3731 -62.3696 -62.3683 -62.3587 -62.3563
   -62.3442 -62.3236 -35.5365 -35.5315 -35.5263 -35.5150 -35.5092 -35.5065
   -35.5046 -35.4952 -35.4891 -35.4871 -35.4827 -35.4805 -35.4794 -35.4758
   -35.4615 -35.4554 -35.4507 -35.4432 -35.3659 -35.3559 -35.3541 -35.3482
   -35.3308 -35.3186 -35.3074 -35.2891 -35.2839 -31.2408 -31.2310 -31.2225
   -31.2156 -31.2137 -31.2133 -31.2088 -31.2057 -31.2045 -31.2014 -31.2004
   -31.1971 -31.1919 -31.1866 -31.1855 -31.1844 -31.1836 -31.1812 -31.1800
   -31.1786 -31.1724 -31.1618 -31.1602 -31.1562 -31.1495 -31.1475 -31.1434
     5.6118   7.1369   7.1669   7.1864   7.2103   7.3615   7.8595   7.8617
     7.9137   7.9496   8.0718   8.1039   8.1353   8.1639   8.1961   8.2316
     8.2608   8.2883   8.3191   8.5213   8.5319   8.5593   8.5722   8.5930
     8.6079   8.8405   8.8643   8.8645   8.8797   8.8836   8.8880   8.9033
     8.9066   8.9075   8.9141   8.9177   8.9264   8.9493   8.9541   8.9789
     8.9950   9.0823   9.1172   9.1197   9.1226   9.1309   9.1579   9.1620
     9.1784   9.2010   9.2148   9.2675   9.2740   9.3014   9.3139   9.3338
     9.3461   9.3525   9.3647   9.3673   9.3829   9.3864   9.4020   9.4254
     9.4401   9.4414   9.4459   9.4488   9.4533   9.4651   9.5088   9.5660
     9.5746   9.5812   9.5847   9.5880   9.6211   9.6633   9.6678   9.6716
     9.6727   9.6748   9.7059   9.7369   9.7572   9.7800   9.7983   9.8494
     9.8500   9.8929   9.9098   9.9287   9.9521   9.9579  10.0189  10.0392
    10.0933  10.1201  10.1300  10.1568  10.2908  10.2918  10.2930  10.2950
    10.2974  10.2988  10.3018  10.3084  10.3100  10.3234  10.3280  10.3423
    10.3480  10.3496  10.3527  10.3549  10.3551  10.3725  10.3823  10.3824
    10.3998  10.5187  10.5196  10.5730  10.6085  10.6095  10.6309  10.6357
    10.6915  10.7610  10.7839  10.7853  10.7897  10.8213  10.8292  10.8379
    10.8427  10.8526  10.8629  10.8685  10.8722  10.8758  10.8797  10.8952
    10.9003  10.9202  10.9971  11.0374  11.0728  11.1082  11.2016  11.2179
    11.2224  11.2273  11.2553  11.2573  11.2791  11.2939  11.3357  11.3384
    11.3643  11.3649  11.3834  11.3901  11.3993  11.4034  11.4080  11.4115
    11.4184  11.4529  11.5869  11.5875  11.5891  11.5952  11.5979  11.6070
    11.6280  11.6709  11.7204  11.7270  11.7319  11.7400  11.7553  11.7860
    11.8319  11.8479  11.8598  11.8688  11.8769  11.8989  11.9326  11.9376
    11.9630  12.0576  12.0983  12.1007  12.1016  12.1029  12.1042  12.1389
    12.1415  12.1440  12.1441  12.1485  12.1525  12.1718  12.1917  12.2177
    12.2457  12.2594  12.3194  12.3209  12.3446  12.3483  12.3658  12.4034
    12.4057  12.4229  12.4341  12.4344  12.4586  12.4806  12.4874  12.4891
    12.5027  12.5199  12.5284  12.5483  12.5734  12.5822  12.5975  12.6250
    12.6815  12.7031  12.7789  12.7840  12.7881  12.8936  12.9941  13.0599
    13.1104  13.1372  13.2152  13.3168  13.3543  13.6613  13.7109  13.7311
    13.8825  14.0079  14.2354  14.2474  14.3106  14.3405  14.4337  14.4365
    14.7314  14.7741  14.7822  15.0184  15.1176  15.1619  15.2069  15.2569
    15.2653  15.2863  15.3106  15.3369  15.3797  15.4455  15.4874  15.5644
    15.6561  15.6852  15.7068  15.8169  15.8690  15.8848  15.9151  15.9374
    16.0033  16.0618  16.0789  16.1302  16.1358  16.1545  16.1597  16.1671
    16.2571  16.2710  16.2794  16.2960  16.3258  16.3385  16.3779  16.3901
    16.4431  16.4871  16.5185  16.5725  16.6142  16.6733  16.7796  16.8925
    17.0253  17.0462  17.0919  17.1661  17.1902  17.2432  17.2688  17.2846
    17.4350  17.5289  17.8849  17.8984  17.9191  17.9498  17.9514  18.1914
    18.2445  18.3191  18.4478  18.9461  18.9999  19.0035  19.0686  19.1779

          k = 0.0000 0.0000-0.5734 ( 31692 PWs)   bands (ev):

   -66.7845 -66.7632 -66.7433 -66.7392 -66.7308 -66.7267 -66.6115 -66.5822
   -66.5562 -62.4029 -62.3834 -62.3731 -62.3696 -62.3683 -62.3587 -62.3563
   -62.3442 -62.3236 -35.5365 -35.5315 -35.5263 -35.5150 -35.5092 -35.5065
   -35.5046 -35.4952 -35.4891 -35.4871 -35.4827 -35.4805 -35.4794 -35.4758
   -35.4615 -35.4554 -35.4507 -35.4432 -35.3659 -35.3559 -35.3541 -35.3482
   -35.3308 -35.3186 -35.3074 -35.2891 -35.2839 -31.2408 -31.2310 -31.2225
   -31.2156 -31.2137 -31.2133 -31.2088 -31.2057 -31.2045 -31.2014 -31.2004
   -31.1971 -31.1919 -31.1866 -31.1855 -31.1844 -31.1836 -31.1812 -31.1800
   -31.1786 -31.1724 -31.1618 -31.1602 -31.1562 -31.1495 -31.1475 -31.1434
     6.1713   6.1897   7.5359   7.5444   7.5627   7.5820   7.5841   7.5946
     7.6132   7.6199   8.3120   8.3246   8.3256   8.3305   8.3612   8.3663
     8.3673   8.3891   8.4578   8.4591   8.4788   8.4834   8.4944   8.4949
     8.5021   8.5035   8.6995   8.7076   8.7605   8.7775   8.9460   8.9650
     8.9653   8.9747   8.9749   8.9801   8.9813   8.9856   9.0086   9.0175
     9.0224   9.0347   9.0424   9.0541   9.0770   9.0985   9.1866   9.1990
     9.2152   9.2277   9.2413   9.2518   9.2739   9.2777   9.2795   9.2836
     9.2868   9.2876   9.2903   9.3024   9.3025   9.3088   9.4111   9.4128
     9.4258   9.4358   9.4406   9.4411   9.4543   9.4549   9.4575   9.4588
     9.4618   9.4776   9.4922   9.5085   9.5242   9.5424   9.6503   9.6745
     9.7821   9.7841   9.7978   9.8050   9.8064   9.8167   9.8289   9.8347
     9.8718   9.8723   9.8771   9.8787   9.8880   9.8892   9.8911   9.8922
    10.0584  10.0599  10.0600  10.0612  10.1313  10.1441  10.1537  10.1631
    10.1664  10.1833  10.1884  10.1945  10.1975  10.2099  10.3482  10.3501
    10.3682  10.3757  10.4016  10.4080  10.4138  10.4149  10.4753  10.4989
    10.5818  10.5829  10.6113  10.6190  10.6341  10.6513  10.6736  10.6757
    10.6779  10.7032  10.7084  10.7318  10.7409  10.7632  10.7758  10.7936
    10.9581  10.9643  10.9996  11.0199  11.0248  11.0304  11.0492  11.0658
    11.0945  11.1173  11.1280  11.1398  11.1453  11.1491  11.1518  11.1541
    11.2217  11.2310  11.2477  11.2495  11.2592  11.2603  11.2634  11.2668
    11.2722  11.2725  11.2802  11.2824  11.2881  11.2887  11.2962  11.2977
    11.3063  11.3067  11.3192  11.3202  11.5667  11.5869  11.7060  11.7079
    11.7080  11.7155  11.7191  11.7229  11.7291  11.7302  11.7331  11.7500
    11.7595  11.7601  11.7731  11.7734  11.7942  11.8509  11.8549  11.9120
    11.9648  11.9720  11.9796  11.9986  12.0078  12.0248  12.0467  12.0615
    12.1398  12.1661  12.1800  12.2171  12.2648  12.3477  12.3491  12.3642
    12.3932  12.4048  12.4070  12.4275  12.4323  12.4332  12.4377  12.4720
    12.4766  12.4995  12.5162  12.5364  12.5430  12.5720  12.5816  12.6095
    12.6512  12.7126  12.7344  12.7475  12.7604  12.7718  12.8885  12.9322
    12.9346  12.9658  13.0631  13.1015  13.1339  13.1570  13.1661  13.2131
    13.2153  13.2409  13.2447  13.2861  13.3143  13.5734  13.6670  13.7462
    13.9151  13.9955  14.0428  14.0711  14.0752  14.1397  14.2933  14.3891
    14.4694  14.8756  14.9002  14.9412  14.9789  15.0093  15.0647  15.0758
    15.1147  15.2160  15.2738  15.3193  15.3374  15.4179  15.4793  15.5249
    15.5744  15.7003  15.7098  15.7492  15.7790  15.8305  15.8719  16.0368
    16.0647  16.0707  16.0983  16.1369  16.1841  16.1934  16.2052  16.2262
    16.2325  16.2496  16.2572  16.2661  16.2692  16.2817  16.3197  16.3234
    16.3471  16.3592  16.5020  16.5767  16.6007  16.6344  16.7437  16.7960
    16.8640  16.9012  17.2669  17.2916  17.2958  17.3287  17.4526  17.4702
    17.5560  17.6046  17.7176  17.7255  17.7696  17.7705  17.8701  17.8760
    17.9165  17.9208  18.1885  18.2007  18.2327  18.2622  18.2936  18.3285

          k = 0.0000-0.5000 0.0000 ( 31722 PWs)   bands (ev):

   -66.7845 -66.7632 -66.7433 -66.7392 -66.7308 -66.7267 -66.6115 -66.5822
   -66.5562 -62.4029 -62.3834 -62.3731 -62.3696 -62.3683 -62.3587 -62.3563
   -62.3442 -62.3236 -35.5365 -35.5315 -35.5263 -35.5150 -35.5092 -35.5065
   -35.5046 -35.4952 -35.4891 -35.4871 -35.4827 -35.4805 -35.4794 -35.4758
   -35.4615 -35.4554 -35.4507 -35.4432 -35.3659 -35.3559 -35.3541 -35.3482
   -35.3308 -35.3186 -35.3074 -35.2891 -35.2839 -31.2408 -31.2310 -31.2225
   -31.2156 -31.2137 -31.2133 -31.2088 -31.2057 -31.2045 -31.2014 -31.2004
   -31.1971 -31.1919 -31.1866 -31.1855 -31.1844 -31.1836 -31.1812 -31.1800
   -31.1786 -31.1724 -31.1618 -31.1602 -31.1562 -31.1495 -31.1475 -31.1434
     6.0221   6.0566   7.4104   7.4495   7.4573   7.4608   7.6608   7.6843
     8.1024   8.1059   8.1298   8.1919   8.2070   8.2305   8.2399   8.2462
     8.3924   8.4449   8.4509   8.4540   8.6258   8.6328   8.6462   8.6535
     8.6664   8.6709   8.6724   8.6973   8.7605   8.7835   8.8143   8.8352
     8.8617   8.8647   8.8775   8.8786   8.9141   8.9162   8.9168   8.9182
     8.9248   8.9274   8.9352   8.9355   9.0353   9.0603   9.1596   9.1842
     9.1910   9.1986   9.2171   9.2207   9.2260   9.2273   9.3161   9.3396
     9.3623   9.3724   9.3796   9.3831   9.4770   9.4809   9.4895   9.5228
     9.5308   9.5312   9.5341   9.5755   9.5868   9.5961   9.6019   9.6048
     9.6107   9.6209   9.6281   9.6311   9.6314   9.6342   9.6359   9.6455
     9.6520   9.6626   9.6724   9.6797   9.6967   9.7143   9.7151   9.7329
     9.7400   9.7426   9.7520   9.7571   9.8970   9.9016   9.9454   9.9692
     9.9963  10.0605  10.1446  10.1853  10.2163  10.2305  10.2473  10.2491
    10.2602  10.2647  10.2681  10.2742  10.2771  10.2799  10.3439  10.3502
    10.3549  10.3711  10.3768  10.3828  10.4292  10.4351  10.4453  10.4518
    10.5252  10.5301  10.5459  10.5554  10.5635  10.5687  10.5789  10.5896
    10.5950  10.6065  10.6634  10.6643  10.7136  10.7274  10.7552  10.7735
    10.7969  10.8092  10.8230  10.8513  10.8640  10.8771  10.8861  10.9074
    10.9841  11.0064  11.0128  11.0212  11.0421  11.0981  11.1682  11.1754
    11.3429  11.3471  11.3486  11.3569  11.3741  11.3829  11.3917  11.3952
    11.4020  11.4167  11.4490  11.4809  11.4930  11.5354  11.5411  11.5432
    11.5650  11.5900  11.6066  11.6172  11.6225  11.6297  11.6787  11.6985
    11.7486  11.7673  11.7846  11.7863  11.8014  11.8147  11.8505  11.8505
    11.9033  11.9078  11.9103  11.9238  11.9368  11.9371  11.9450  11.9599
    11.9747  11.9788  11.9844  12.0139  12.0975  12.1026  12.1607  12.1696
    12.1926  12.1977  12.2061  12.2113  12.2389  12.2477  12.2562  12.2660
    12.2803  12.3310  12.3368  12.3613  12.3629  12.3704  12.3865  12.3934
    12.3956  12.4241  12.4383  12.4482  12.4583  12.4786  12.5187  12.5439
    12.5543  12.5853  12.6137  12.6485  12.6561  12.7483  12.7669  12.9004
    12.9057  12.9436  12.9670  12.9906  13.0229  13.0646  13.0836  13.1442
    13.1512  13.1603  13.1920  13.2034  13.2280  13.2404  13.2733  13.3168
    13.4365  13.4578  13.4778  13.5810  13.6236  14.4954  14.5301  14.5639
    14.6299  14.6913  14.7223  14.7798  14.8010  14.8469  14.8676  15.0063
    15.0136  15.1361  15.2988  15.3088  15.4089  15.4105  15.4580  15.5009
    15.5776  15.7313  15.7721  15.8555  15.8797  15.8840  15.9278  15.9997
    16.0148  16.0158  16.0469  16.0966  16.1053  16.1246  16.1887  16.2013
    16.2279  16.2309  16.2316  16.2735  16.2962  16.3179  16.3352  16.3760
    16.4286  16.4427  16.5235  16.6545  16.7088  16.7850  17.0193  17.0657
    17.1436  17.1913  17.2237  17.2954  17.3529  17.4105  17.6184  17.6255
    17.6771  17.7470  17.8258  17.8296  17.8643  17.8769  17.9141  17.9201
    18.0190  18.0538  18.1227  18.2396  19.2536  19.3056  19.3207  19.3820

          k = 0.0000-0.5000-0.5734 ( 31696 PWs)   bands (ev):

   -66.7845 -66.7632 -66.7433 -66.7392 -66.7308 -66.7267 -66.6115 -66.5822
   -66.5562 -62.4029 -62.3834 -62.3731 -62.3696 -62.3683 -62.3587 -62.3563
   -62.3442 -62.3236 -35.5365 -35.5315 -35.5263 -35.5150 -35.5092 -35.5065
   -35.5046 -35.4952 -35.4891 -35.4871 -35.4827 -35.4805 -35.4794 -35.4758
   -35.4615 -35.4554 -35.4507 -35.4432 -35.3659 -35.3559 -35.3541 -35.3482
   -35.3308 -35.3186 -35.3074 -35.2891 -35.2839 -31.2408 -31.2310 -31.2225
   -31.2156 -31.2137 -31.2133 -31.2088 -31.2057 -31.2045 -31.2014 -31.2004
   -31.1971 -31.1919 -31.1866 -31.1855 -31.1844 -31.1836 -31.1812 -31.1800
   -31.1786 -31.1724 -31.1618 -31.1602 -31.1562 -31.1495 -31.1475 -31.1434
     6.5187   6.5380   6.6265   6.6415   7.8338   7.8462   7.8490   7.8624
     7.9042   7.9138   7.9307   7.9425   8.2688   8.2720   8.2992   8.3006
     8.5168   8.5221   8.5276   8.5291   8.6694   8.6723   8.6799   8.6876
     8.6890   8.6939   8.7079   8.7206   8.7303   8.7313   8.7381   8.7421
     8.7510   8.7750   8.7799   8.7815   8.9478   8.9642   9.0348   9.0416
     9.0434   9.0439   9.0520   9.0542   9.1688   9.1865   9.2105   9.2156
     9.2170   9.2232   9.2331   9.2335   9.2394   9.2408   9.2454   9.2550
     9.2569   9.2575   9.2697   9.2729   9.3221   9.3546   9.3856   9.4044
     9.4148   9.4264   9.4480   9.4541   9.4590   9.4628   9.4654   9.4755
     9.5056   9.5114   9.5146   9.5243   9.5328   9.5401   9.5483   9.5546
     9.5789   9.5941   9.7514   9.7532   9.7965   9.8079   9.8097   9.8135
     9.8212   9.8329   9.8333   9.8402   9.8563   9.8607   9.8610   9.8775
     9.9491   9.9541  10.0102  10.0114  10.0284  10.0363  10.0494  10.0547
    10.3576  10.3654  10.3680  10.3712  10.3895  10.3932  10.4342  10.4366
    10.4426  10.4554  10.4615  10.4641  10.4729  10.5030  10.5179  10.5285
    10.5476  10.5501  10.5592  10.5712  10.5888  10.6060  10.6327  10.6411
    10.6515  10.6549  10.6717  10.6753  10.6889  10.6935  10.7292  10.7329
    10.7521  10.7808  10.8305  10.8401  10.9853  10.9904  11.0061  11.0126
    11.1113  11.1276  11.1510  11.1785  11.1833  11.1855  11.1930  11.1931
    11.2109  11.2111  11.3260  11.3261  11.3334  11.3392  11.3696  11.3828
    11.3836  11.3877  11.4139  11.4451  11.4451  11.4488  11.4859  11.4978
    11.5489  11.5492  11.5627  11.5683  11.5723  11.5753  11.6032  11.6277
    11.6405  11.6431  11.7346  11.7423  11.7513  11.7703  11.7837  11.8781
    11.8851  11.9066  11.9145  11.9186  11.9688  11.9751  11.9976  12.0043
    12.0090  12.0293  12.0324  12.0347  12.0351  12.0386  12.0422  12.0605
    12.1971  12.2175  12.2516  12.2569  12.2720  12.2772  12.3088  12.3316
    12.3357  12.3476  12.3694  12.3752  12.3829  12.4105  12.4440  12.4496
    12.4654  12.4742  12.4912  12.4953  12.5274  12.5356  12.5525  12.5816
    12.5963  12.6451  12.6478  12.6555  12.6644  12.6713  12.6882  12.7424
    12.7745  12.8303  12.8531  12.9393  12.9522  12.9698  12.9763  13.1546
    13.2866  13.2989  13.3929  13.4347  13.5368  13.6751  13.7153  13.8926
    13.9630  14.0155  14.0233  14.0801  14.1155  14.1575  14.1645  14.2012
    14.3049  14.5465  14.5558  14.6531  14.6787  14.7339  14.7764  15.0352
    15.0371  15.2938  15.2964  15.4164  15.4405  15.4475  15.5112  15.5726
    15.5888  15.6149  15.6582  15.6985  15.7355  15.8656  15.8847  15.9482
    15.9765  16.0973  16.1221  16.1699  16.1801  16.2015  16.2143  16.2200
    16.2825  16.2832  16.3017  16.3426  16.3885  16.3972  16.4134  16.4301
    16.4640  16.5384  16.5452  16.5816  16.5935  16.6331  16.6671  16.7242
    16.7639  16.7734  16.8362  16.8379  16.8889  16.8903  16.9510  17.0027
    17.1392  17.1610  17.2017  17.2045  18.6735  18.6781  18.6945  18.7120
    18.7432  18.7653  18.8053  18.8067  18.8685  18.8803  18.9862  19.0046

          k =-0.5000-0.5000 0.0000 ( 31612 PWs)   bands (ev):

   -66.7845 -66.7632 -66.7433 -66.7392 -66.7308 -66.7267 -66.6115 -66.5822
   -66.5562 -62.4029 -62.3834 -62.3731 -62.3696 -62.3683 -62.3587 -62.3563
   -62.3442 -62.3236 -35.5365 -35.5319 -35.5258 -35.5150 -35.5093 -35.5065
   -35.5046 -35.4953 -35.4891 -35.4871 -35.4827 -35.4805 -35.4793 -35.4758
   -35.4614 -35.4554 -35.4509 -35.4432 -35.3659 -35.3559 -35.3541 -35.3482
   -35.3308 -35.3186 -35.3074 -35.2891 -35.2839 -31.2408 -31.2310 -31.2225
   -31.2156 -31.2137 -31.2133 -31.2091 -31.2058 -31.2045 -31.2032 -31.2004
   -31.1940 -31.1919 -31.1868 -31.1865 -31.1844 -31.1828 -31.1812 -31.1801
   -31.1786 -31.1729 -31.1618 -31.1602 -31.1562 -31.1495 -31.1475 -31.1434
     6.4069   6.4302   6.4544   6.4565   8.0031   8.0097   8.0158   8.0269
     8.0973   8.1091   8.2830   8.3174   8.3271   8.3353   8.3372   8.3431
     8.3457   8.3501   8.3536   8.3574   8.3680   8.3753   8.5865   8.6083
     8.6404   8.6613   8.6789   8.6975   8.7092   8.7156   8.7285   8.7406
     8.7727   8.7776   8.9155   8.9320   8.9536   8.9707   8.9754   8.9758
     8.9826   8.9892   9.0020   9.0045   9.0155   9.0183   9.0318   9.0475
     9.1170   9.1245   9.3019   9.3059   9.3180   9.3265   9.3965   9.4090
     9.4176   9.4231   9.4240   9.4275   9.4300   9.4420   9.4479   9.4507
     9.4616   9.4685   9.4707   9.4763   9.4802   9.4809   9.4864   9.4962
     9.4988   9.5043   9.5132   9.5309   9.5440   9.5581   9.5790   9.5896
     9.6067   9.6089   9.6980   9.6992   9.7566   9.7985   9.8179   9.8316
     9.8322   9.8339   9.8346   9.8419   9.8498   9.8575  10.0419  10.0608
    10.0795  10.0999  10.1097  10.1107  10.1385  10.1443  10.1518  10.1623
    10.1772  10.1906  10.2015  10.2122  10.2207  10.2214  10.2251  10.2274
    10.2284  10.2304  10.2382  10.2476  10.4409  10.4786  10.4919  10.4948
    10.4980  10.5060  10.5261  10.5460  10.6090  10.6244  10.6389  10.6467
    10.6589  10.6616  10.6777  10.6811  10.6832  10.6865  10.6896  10.6965
    10.7018  10.7054  10.8079  10.8114  10.8304  10.8496  10.8651  10.8804
    10.9342  10.9480  11.1974  11.2080  11.2152  11.2166  11.3075  11.3215
    11.3228  11.3368  11.3497  11.3622  11.3865  11.3947  11.5423  11.5594
    11.5711  11.5800  11.6384  11.6437  11.6444  11.6447  11.6463  11.6476
    11.6724  11.6883  11.6894  11.7152  11.7263  11.7287  11.7736  11.7747
    11.8747  11.8748  11.8771  11.8790  11.8854  11.8860  11.9713  11.9955
    12.0052  12.0067  12.0626  12.0656  12.0658  12.1048  12.1082  12.1089
    12.1128  12.1133  12.1142  12.1196  12.1449  12.1449  12.1499  12.1604
    12.1719  12.1780  12.1933  12.2044  12.2171  12.2564  12.2648  12.2660
    12.2749  12.2808  12.2865  12.2884  12.2896  12.2939  12.2949  12.3220
    12.3604  12.3692  12.4379  12.4441  12.4583  12.5030  12.5265  12.5341
    12.5384  12.5471  12.5630  12.5727  12.5799  12.6132  12.6446  12.6564
    12.6575  12.6974  12.7431  12.8071  12.8488  12.8610  12.8906  12.9246
    12.9717  12.9739  13.0134  13.0227  13.1306  13.5450  13.5960  13.6185
    13.6542  13.6813  13.7027  13.9124  13.9424  13.9500  14.1078  14.1455
    14.1611  14.2207  14.4633  14.4828  14.4995  14.5645  14.7378  15.1095
    15.1252  15.1914  15.2106  15.2685  15.3678  15.4019  15.6633  15.7611
    15.7729  15.7983  15.8088  15.8118  15.8782  15.9015  15.9201  15.9649
    15.9814  15.9896  15.9999  16.0130  16.0366  16.0466  16.0641  16.1622
    16.1842  16.2005  16.2903  16.3116  16.3186  16.3230  16.3463  16.4203
    16.4865  16.4899  16.5386  16.6595  16.6715  16.6888  16.6949  16.7270
    16.7807  16.8881  16.9576  16.9786  17.3846  17.3885  17.7983  17.9273
    18.1634  18.1910  18.2047  18.2093  18.2640  18.4159  18.5293  18.5510
    18.6121  18.6362  18.6429  18.6667  18.7349  18.7901  18.7987  18.8034

          k =-0.5000-0.5000-0.5734 ( 31672 PWs)   bands (ev):

   -66.7845 -66.7632 -66.7433 -66.7392 -66.7308 -66.7267 -66.6115 -66.5822
   -66.5562 -62.4029 -62.3834 -62.3731 -62.3696 -62.3683 -62.3587 -62.3563
   -62.3442 -62.3236 -35.5365 -35.5319 -35.5258 -35.5150 -35.5093 -35.5065
   -35.5046 -35.4953 -35.4891 -35.4871 -35.4827 -35.4805 -35.4793 -35.4758
   -35.4614 -35.4554 -35.4509 -35.4432 -35.3659 -35.3559 -35.3541 -35.3482
   -35.3308 -35.3186 -35.3074 -35.2891 -35.2839 -31.2408 -31.2310 -31.2225
   -31.2156 -31.2137 -31.2133 -31.2091 -31.2058 -31.2045 -31.2032 -31.2004
   -31.1940 -31.1919 -31.1868 -31.1865 -31.1844 -31.1828 -31.1812 -31.1801
   -31.1786 -31.1729 -31.1618 -31.1602 -31.1562 -31.1495 -31.1475 -31.1434
     6.8864   6.9153   6.9199   6.9297   6.9933   7.0044   7.0296   7.0469
     8.4503   8.4581   8.4687   8.4753   8.4825   8.4864   8.4889   8.4916
     8.5014   8.5039   8.5155   8.5218   8.5371   8.5400   8.5419   8.5609
     8.5701   8.5716   8.5945   8.6073   8.8771   8.8807   8.8849   8.8863
     8.9069   8.9120   8.9254   8.9309   9.0897   9.1087   9.1103   9.1179
     9.1237   9.1447   9.1466   9.1494   9.1509   9.1544   9.1545   9.1632
     9.1634   9.1678   9.1685   9.1695   9.1720   9.1746   9.1767   9.1816
     9.1831   9.1841   9.1901   9.1910   9.1966   9.2037   9.2061   9.2187
     9.2328   9.2340   9.2404   9.2417   9.2537   9.2586   9.2613   9.2698
     9.5432   9.5442   9.5602   9.5710   9.5771   9.5830   9.6100   9.6145
     9.6475   9.6602   9.6655   9.6780   9.7190   9.7386   9.7539   9.7778
     9.8168   9.8384   9.8447   9.8504   9.8758   9.8773   9.8846   9.8955
    10.1150  10.1260  10.1398  10.1499  10.1658  10.1713  10.1779  10.1786
    10.2910  10.3052  10.4429  10.4510  10.4669  10.4676  10.4733  10.4745
    10.4843  10.4867  10.4912  10.4957  10.4991  10.5024  10.5152  10.5176
    10.5211  10.5280  10.5375  10.5471  10.5607  10.5608  10.5790  10.5843
    10.5977  10.6185  10.6317  10.6410  10.6490  10.6702  10.6782  10.6836
    10.6904  10.6912  10.7007  10.7054  10.7169  10.7208  11.0430  11.0474
    11.0591  11.0665  11.0930  11.0944  11.1097  11.1098  11.3696  11.3699
    11.3966  11.3985  11.4015  11.4255  11.4411  11.4501  11.4660  11.4711
    11.4769  11.4911  11.5007  11.5068  11.5080  11.5160  11.6380  11.6399
    11.6446  11.6468  11.6696  11.6719  11.6861  11.6878  11.7022  11.7230
    11.7246  11.7275  11.7341  11.7437  11.7753  11.7768  11.7845  11.7877
    11.7983  11.8011  11.8124  11.8284  11.8320  11.8400  11.9900  12.0066
    12.0152  12.0501  12.0578  12.0645  12.1037  12.1230  12.1312  12.1391
    12.1647  12.1862  12.2045  12.2172  12.2431  12.2689  12.2859  12.2919
    12.2951  12.3495  12.4032  12.4220  12.4278  12.4368  12.4557  12.4583
    12.4821  12.4836  12.5396  12.5571  12.5654  12.5783  12.5875  12.5933
    12.6195  12.6508  12.6794  12.6848  12.6921  12.7046  12.7156  12.7619
    12.8102  12.8408  12.9555  12.9588  13.0732  13.0821  13.1133  13.1716
    13.2472  13.2876  13.2970  13.3143  13.4114  13.4718  13.5227  13.5419
    13.6238  13.6928  13.8431  13.8705  13.8778  13.9197  14.0748  14.1133
    14.1443  14.1673  14.2284  14.6475  14.7130  14.7490  14.8454  15.0620
    15.0633  15.1758  15.2154  15.4432  15.4446  15.5817  15.6647  15.7008
    15.7019  15.7824  15.8280  15.8329  15.8691  15.9048  15.9193  15.9384
    15.9486  15.9922  16.0687  16.0710  16.1377  16.1830  16.1865  16.2067
    16.2149  16.2194  16.2343  16.2410  16.3469  16.4202  16.4571  16.4958
    16.5168  16.5226  16.5887  16.5979  16.6431  16.6758  16.6815  16.6862
    16.7725  16.8553  16.8694  16.8902  16.8962  16.9327  16.9838  17.0186
    17.0791  17.1051  17.7317  17.8075  17.8531  17.8574  19.0118  19.0178
    19.0503  19.0510  19.0629  19.0950  19.1689  19.2349  19.3005  19.3037

          k =-0.5000 0.0000 0.0000 ( 31722 PWs)   bands (ev):

   -66.7845 -66.7632 -66.7433 -66.7392 -66.7308 -66.7267 -66.6115 -66.5822
   -66.5562 -62.4029 -62.3834 -62.3731 -62.3696 -62.3683 -62.3587 -62.3563
   -62.3442 -62.3236 -35.5365 -35.5319 -35.5258 -35.5150 -35.5093 -35.5065
   -35.5046 -35.4953 -35.4891 -35.4871 -35.4827 -35.4805 -35.4793 -35.4758
   -35.4614 -35.4554 -35.4509 -35.4432 -35.3659 -35.3559 -35.3541 -35.3482
   -35.3308 -35.3186 -35.3074 -35.2891 -35.2839 -31.2408 -31.2310 -31.2225
   -31.2156 -31.2137 -31.2133 -31.2091 -31.2058 -31.2045 -31.2032 -31.2004
   -31.1940 -31.1919 -31.1868 -31.1866 -31.1844 -31.1828 -31.1812 -31.1801
   -31.1786 -31.1729 -31.1618 -31.1602 -31.1562 -31.1495 -31.1475 -31.1434
     6.0326   6.0473   7.4040   7.4095   7.4705   7.4886   7.6697   7.6768
     8.1081   8.1130   8.1423   8.1728   8.1927   8.2042   8.2612   8.2750
     8.3842   8.3939   8.4760   8.4944   8.6176   8.6239   8.6335   8.6524
     8.6559   8.6718   8.6909   8.7103   8.7876   8.8080   8.8142   8.8217
     8.8324   8.8504   8.8752   8.8860   8.8931   8.8992   8.9096   8.9116
     8.9360   8.9421   8.9471   8.9565   9.0459   9.0505   9.1548   9.1571
     9.1905   9.2057   9.2173   9.2201   9.2280   9.2344   9.3100   9.3150
     9.3508   9.3679   9.3959   9.4172   9.4710   9.4744   9.4793   9.4813
     9.5303   9.5468   9.5623   9.5748   9.5841   9.5940   9.6052   9.6131
     9.6183   9.6282   9.6310   9.6331   9.6377   9.6394   9.6419   9.6461
     9.6468   9.6538   9.6627   9.6645   9.7051   9.7105   9.7112   9.7124
     9.7378   9.7474   9.7625   9.7643   9.8955   9.9004   9.9325   9.9562
    10.0179  10.0329  10.1627  10.1909  10.2085  10.2119  10.2502  10.2536
    10.2699  10.2706  10.2718  10.2758  10.2825  10.2848  10.3460  10.3525
    10.3773  10.3798  10.3813  10.3851  10.4241  10.4305  10.4715  10.4807
    10.4858  10.5066  10.5188  10.5202  10.5256  10.5359  10.5847  10.5899
    10.6593  10.6670  10.6876  10.6977  10.7191  10.7193  10.7399  10.7635
    10.8119  10.8248  10.8344  10.8474  10.8584  10.8624  10.8846  10.8986
    10.9471  10.9569  11.0096  11.0188  11.0706  11.0843  11.1782  11.1847
    11.2787  11.3035  11.3451  11.3468  11.3625  11.3645  11.3997  11.4146
    11.4575  11.4596  11.4695  11.4793  11.4926  11.5122  11.5222  11.5608
    11.5804  11.5894  11.5967  11.6069  11.6607  11.6701  11.6813  11.7361
    11.7508  11.7793  11.7918  11.8017  11.8336  11.8554  11.8622  11.8685
    11.8685  11.8730  11.8810  11.9068  11.9204  11.9224  11.9432  11.9504
    11.9636  11.9823  12.0142  12.0165  12.0840  12.1181  12.1528  12.1555
    12.1601  12.1957  12.2078  12.2172  12.2431  12.2485  12.2505  12.2671
    12.2708  12.2919  12.2986  12.3613  12.3746  12.3818  12.3963  12.4131
    12.4433  12.4454  12.4540  12.4598  12.4752  12.5062  12.5268  12.5505
    12.5819  12.5882  12.6128  12.6738  12.7172  12.7260  12.7465  12.7666
    12.7819  12.8499  12.9029  12.9101  12.9768  13.0292  13.1302  13.1478
    13.1620  13.1698  13.2121  13.2324  13.2573  13.3016  13.3149  13.4150
    13.4347  13.4607  13.5196  13.5678  13.6331  14.3278  14.4989  14.5538
    14.5739  14.7462  14.7715  14.8035  14.8486  14.8667  15.0236  15.0739
    15.0993  15.1006  15.1478  15.2633  15.3224  15.4056  15.4990  15.6701
    15.6838  15.7371  15.7667  15.7855  15.8488  15.8732  15.9404  15.9843
    15.9875  16.0213  16.0415  16.0457  16.0578  16.0718  16.1203  16.1448
    16.1887  16.2006  16.2212  16.2356  16.2502  16.2852  16.3325  16.3666
    16.4284  16.4544  16.7008  16.7118  16.7307  16.8283  16.9208  16.9973
    17.1438  17.2239  17.2772  17.2938  17.5517  17.5667  17.6026  17.6042
    17.7248  17.7485  17.7681  17.7847  17.8028  17.8627  17.9049  17.9269
    17.9925  18.1001  18.1151  18.1791  19.2800  19.3139  19.3465  19.3686

          k =-0.5000 0.0000 0.5734 ( 31696 PWs)   bands (ev):

   -66.7845 -66.7632 -66.7433 -66.7392 -66.7308 -66.7267 -66.6115 -66.5822
   -66.5562 -62.4029 -62.3834 -62.3731 -62.3696 -62.3683 -62.3587 -62.3563
   -62.3442 -62.3236 -35.5365 -35.5319 -35.5258 -35.5150 -35.5093 -35.5065
   -35.5046 -35.4953 -35.4891 -35.4871 -35.4827 -35.4805 -35.4793 -35.4758
   -35.4614 -35.4554 -35.4509 -35.4432 -35.3659 -35.3559 -35.3541 -35.3482
   -35.3308 -35.3186 -35.3074 -35.2891 -35.2839 -31.2408 -31.2310 -31.2225
   -31.2156 -31.2137 -31.2133 -31.2091 -31.2058 -31.2045 -31.2032 -31.2004
   -31.1940 -31.1919 -31.1868 -31.1866 -31.1844 -31.1828 -31.1812 -31.1801
   -31.1786 -31.1729 -31.1618 -31.1602 -31.1562 -31.1495 -31.1475 -31.1434
     6.5525   6.5737   6.5887   6.6020   7.8325   7.8491   7.8646   7.8742
     7.9053   7.9205   7.9219   7.9338   8.2690   8.2719   8.2972   8.2987
     8.5109   8.5153   8.5347   8.5357   8.6564   8.6667   8.6683   8.6810
     8.6918   8.6938   8.7060   8.7068   8.7171   8.7215   8.7499   8.7509
     8.7550   8.7596   8.7957   8.8156   8.9745   8.9959   9.0066   9.0186
     9.0339   9.0392   9.0516   9.0610   9.2005   9.2018   9.2109   9.2167
     9.2175   9.2184   9.2234   9.2289   9.2420   9.2501   9.2561   9.2624
     9.2689   9.2710   9.2816   9.2949   9.3004   9.3023   9.3837   9.3995
     9.4104   9.4210   9.4551   9.4579   9.4643   9.4645   9.4721   9.4849
     9.4979   9.5104   9.5107   9.5181   9.5227   9.5300   9.5391   9.5413
     9.5459   9.5619   9.7546   9.7566   9.7911   9.7928   9.8043   9.8054
     9.8300   9.8377   9.8410   9.8433   9.8637   9.8696   9.8731   9.8901
     9.9661   9.9741   9.9872   9.9984  10.0046  10.0165  10.0661  10.0706
    10.3766  10.3956  10.3991  10.4046  10.4056  10.4072  10.4238  10.4557
    10.4654  10.4655  10.4739  10.4753  10.4883  10.4884  10.4947  10.4985
    10.5088  10.5106  10.5572  10.5594  10.5777  10.6065  10.6280  10.6310
    10.6387  10.6443  10.6635  10.6697  10.6884  10.6913  10.7297  10.7337
    10.7502  10.7769  10.8548  10.8657  10.9527  10.9599  11.0800  11.0906
    11.1099  11.1226  11.1251  11.1320  11.1621  11.1815  11.1965  11.2002
    11.2105  11.2111  11.2917  11.3150  11.3526  11.3605  11.3615  11.3733
    11.3733  11.3762  11.4026  11.4089  11.4791  11.4819  11.4833  11.5054
    11.5119  11.5185  11.5802  11.5830  11.5925  11.5988  11.6163  11.6319
    11.6388  11.6465  11.7243  11.7279  11.7418  11.7951  11.7967  11.8036
    11.9139  11.9169  11.9272  11.9389  11.9453  11.9721  11.9789  12.0080
    12.0310  12.0354  12.0361  12.0383  12.0718  12.0999  12.1066  12.1071
    12.1600  12.1624  12.1740  12.1807  12.2412  12.2574  12.2835  12.2959
    12.3295  12.4023  12.4043  12.4261  12.4275  12.4434  12.4461  12.4541
    12.5034  12.5153  12.5325  12.5618  12.5820  12.6015  12.6015  12.6071
    12.6277  12.6342  12.6427  12.6444  12.6465  12.6669  12.6945  12.7231
    12.7405  12.8048  12.8167  12.8871  12.8975  12.9218  12.9285  12.9488
    13.0526  13.1942  13.4036  13.5389  13.5756  13.6083  13.7839  13.7929
    13.9031  14.0629  14.0910  14.2663  14.2690  14.3179  14.3291  14.4206
    14.4369  14.5247  14.5476  14.5566  14.5774  14.6148  14.6207  14.8972
    14.9004  15.2620  15.2893  15.3399  15.4040  15.4765  15.4815  15.5050
    15.6030  15.7175  15.7821  15.8280  15.8622  15.8746  15.9066  15.9667
    15.9760  16.0626  16.0881  16.1084  16.1227  16.1272  16.1433  16.1813
    16.1854  16.2643  16.2904  16.3136  16.3506  16.3549  16.3935  16.4038
    16.4297  16.5313  16.5530  16.5595  16.6132  16.6230  16.7329  16.7610
    16.8104  16.8227  16.9192  16.9255  16.9726  16.9831  16.9956  17.0328
    17.1065  17.1545  17.1719  17.1933  18.6029  18.6309  18.6590  18.6731
    18.7430  18.7736  18.8525  18.8728  18.8942  18.9156  18.9174  18.9425

     the Fermi energy is    14.8204 ev

!    total energy              =  -33062.59190870 Ry
     Harris-Foulkes estimate   =  -33062.59188602 Ry
     estimated scf accuracy    <       0.00000095 Ry

     total all-electron energy =  -1410574.682283 Ry

     The total energy is the sum of the following terms:

     one-electron contribution =   -1645.67964021 Ry
     hartree contribution      =    1489.89730646 Ry
     xc contribution           =   -1658.74026773 Ry
     ewald contribution        =   -4919.25534656 Ry
     one-center paw contrib.   =  -26328.81396067 Ry

     total magnetization       =    -0.48 Bohr mag/cell
     absolute magnetization    =    78.61 Bohr mag/cell

     convergence has been achieved in  20 iterations

     Writing output data file mnau2.save
 
     init_run     :     52.50s CPU     53.35s WALL (       1 calls)
     electrons    :   3069.55s CPU   3128.95s WALL (       1 calls)

     Called by init_run:
     wfcinit      :     46.63s CPU     47.20s WALL (       1 calls)
     potinit      :      2.50s CPU      2.55s WALL (       1 calls)

     Called by electrons:
     c_bands      :   2741.33s CPU   2784.32s WALL (      20 calls)
     sum_band     :    275.61s CPU    281.73s WALL (      20 calls)
     v_of_rho     :      5.39s CPU      5.56s WALL (      21 calls)
     newd         :     17.13s CPU     19.56s WALL (      21 calls)
     PAW_pot      :     30.96s CPU     31.55s WALL (      21 calls)
     mix_rho      :      1.05s CPU      1.13s WALL (      20 calls)

     Called by c_bands:
     init_us_2    :      9.86s CPU      9.92s WALL (     656 calls)
     cegterg      :   2679.16s CPU   2721.31s WALL (     320 calls)

     Called by sum_band:
     sum_band:bec :      1.55s CPU      1.55s WALL (     320 calls)
     addusdens    :     30.02s CPU     32.79s WALL (      20 calls)

     Called by *egterg:
     h_psi        :    934.10s CPU    945.42s WALL (    1294 calls)
     s_psi        :    226.18s CPU    226.38s WALL (    1294 calls)
     g_psi        :      3.52s CPU      3.53s WALL (     958 calls)
     cdiaghg      :    982.73s CPU    983.57s WALL (    1278 calls)

     Called by h_psi:
     h_psi:pot    :    925.15s CPU    936.42s WALL (    1294 calls)
     h_psi:calbec :    226.97s CPU    229.57s WALL (    1294 calls)
     vloc_psi     :    469.85s CPU    478.05s WALL (    1294 calls)
     add_vuspsi   :    228.30s CPU    228.79s WALL (    1294 calls)

     General routines
     calbec       :    322.52s CPU    325.98s WALL (    1614 calls)
     fft          :      4.69s CPU      5.04s WALL (     641 calls)
     ffts         :      0.10s CPU      0.10s WALL (      82 calls)
     fftw         :    454.98s CPU    462.80s WALL (  723124 calls)
     interpolate  :      0.79s CPU      0.83s WALL (      82 calls)
 
     Parallel routines
     fft_scatt_xy :     54.97s CPU     55.76s WALL (  723847 calls)
     fft_scatt_yz :    127.99s CPU    131.90s WALL (  723847 calls)
 
     PWSCF        : 52m 7.49s CPU    53m20.62s WALL

 
   This run was terminated on:  22:23:47   7Mar2019            

=------------------------------------------------------------------------------=
   JOB DONE.
=------------------------------------------------------------------------------=
