
     Program PWSCF v.6.2 (svn rev. 14038) starts on  7Mar2019 at 23:22:42 

     This program is part of the open-source Quantum ESPRESSO suite
     for quantum simulation of materials; please cite
         "P. Giannozzi et al., J. Phys.:Condens. Matter 21 395502 (2009);
         "P. Giannozzi et al., J. Phys.:Condens. Matter 29 465901 (2017);
          URL http://www.quantum-espresso.org", 
     in publications or presentations arising from this work. More details at
     http://www.quantum-espresso.org/quote

     Parallel version (MPI), running on    16 processors

     MPI processes distributed on     1 nodes
     R & G space division:  proc/nbgrp/npool/nimage =      16
     Waiting for input...
     Reading input from standard input

     Current dimensions of program PWSCF are:
     Max number of different atomic species (ntypx) = 10
     Max number of k-points (npk) =  40000
     Max angular momentum in pseudopotentials (lmaxx) =  3
               file Mn.pbe-spn-kjpaw_psl.0.3.1.UPF: wavefunction(s)  3P 3D renormalized
               file Mn.pbe-spn-kjpaw_psl.0.3.1.UPF: wavefunction(s)  3P 3D renormalized
               file Au.pbe-dn-kjpaw_psl.0.1.UPF: wavefunction(s)  6S 6P 5D renormalized

     Subspace diagonalization in iterative solution of the eigenvalue problem:
     a serial algorithm will be used

 
     Parallelization info
     --------------------
     sticks:   dense  smooth     PW     G-vecs:    dense   smooth      PW
     Min         736     331     90                52486    15847    2256
     Max         737     332     91                52489    15850    2259
     Sum       11785    5297   1449               839803   253559   36125
 


     bravais-lattice index     =            0
     lattice parameter (alat)  =      19.2459  a.u.
     unit-cell volume          =    6216.1497 (a.u.)^3
     number of atoms/cell      =           54
     number of atomic types    =            3
     number of electrons       =       666.00
     number of Kohn-Sham states=          400
     kinetic-energy cutoff     =      45.0000  Ry
     charge density cutoff     =     400.0000  Ry
     convergence threshold     =      1.0E-06
     mixing beta               =       0.1000
     number of iterations used =            8  plain     mixing
     Exchange-correlation      = SLA PW PBX PBC ( 1  4  3  4 0 0)

     celldm(1)=  19.245946  celldm(2)=   0.000000  celldm(3)=   0.000000
     celldm(4)=   0.000000  celldm(5)=   0.000000  celldm(6)=   0.000000

     crystal axes: (cart. coord. in units of alat)
               a(1) = (   1.000000   0.000000   0.000000 )  
               a(2) = (   0.000000   1.000000   0.000000 )  
               a(3) = (   0.000000   0.000000   0.871974 )  

     reciprocal axes: (cart. coord. in units 2 pi/alat)
               b(1) = (  1.000000  0.000000  0.000000 )  
               b(2) = (  0.000000  1.000000  0.000000 )  
               b(3) = (  0.000000  0.000000  1.146823 )  


     PseudoPot. # 1 for Mn read from file:
     ./pseudo/Mn.pbe-spn-kjpaw_psl.0.3.1.UPF
     MD5 check sum: 7eef95dd2aae66803482eea66ebeebf1
     Pseudo is Projector augmented-wave + core cor, Zval = 15.0
     Generated using "atomic" code by A. Dal Corso v.5.0.99 svn rev. 10869
     Shape of augmentation charge: PSQ
     Using radial grid of 1187 points,  6 beta functions with: 
                l(1) =   0
                l(2) =   0
                l(3) =   1
                l(4) =   1
                l(5) =   2
                l(6) =   2
     Q(r) pseudized with 0 coefficients 


     PseudoPot. # 2 for Mn read from file:
     ./pseudo/Mn.pbe-spn-kjpaw_psl.0.3.1.UPF
     MD5 check sum: 7eef95dd2aae66803482eea66ebeebf1
     Pseudo is Projector augmented-wave + core cor, Zval = 15.0
     Generated using "atomic" code by A. Dal Corso v.5.0.99 svn rev. 10869
     Shape of augmentation charge: PSQ
     Using radial grid of 1187 points,  6 beta functions with: 
                l(1) =   0
                l(2) =   0
                l(3) =   1
                l(4) =   1
                l(5) =   2
                l(6) =   2
     Q(r) pseudized with 0 coefficients 


     PseudoPot. # 3 for Au read from file:
     ./pseudo/Au.pbe-dn-kjpaw_psl.0.1.UPF
     MD5 check sum: 5c9b92683623e7ae2ab3f8e525febab6
     Pseudo is Projector augmented-wave + core cor, Zval = 11.0
     Generated using "atomic" code by A. Dal Corso v.5.0.2 svn rev. 9415
     Shape of augmentation charge: PSQ
     Using radial grid of 1279 points,  6 beta functions with: 
                l(1) =   0
                l(2) =   0
                l(3) =   1
                l(4) =   1
                l(5) =   2
                l(6) =   2
     Q(r) pseudized with 0 coefficients 


     atomic species   valence    mass     pseudopotential
        Mn1           15.00    54.93800     Mn( 1.00)
        Mn2           15.00    54.93800     Mn( 1.00)
        Au            11.00   196.96600     Au( 1.00)

     Starting magnetic structure 
     atomic species   magnetization
        Mn1          0.800
        Mn2         -0.800
        Au           0.000

      2 Sym. Ops. (no inversion) found



   Cartesian axes

     site n.     atom                  positions (alat units)
         1           Mn1 tau(   1) = (   0.0000000   0.0000000   0.0000000  )
         2           Mn1 tau(   2) = (   0.0000000   0.3333300   0.0000000  )
         3           Mn2 tau(   3) = (   0.0000000   0.6666700   0.0000000  )
         4           Mn1 tau(   4) = (   0.3333300   0.0000000   0.0000000  )
         5           Mn2 tau(   5) = (   0.3333300   0.3333300   0.0000000  )
         6           Mn2 tau(   6) = (   0.3333300   0.6666700   0.0000000  )
         7           Mn2 tau(   7) = (   0.6666700   0.0000000   0.0000000  )
         8           Mn1 tau(   8) = (   0.6666700   0.3333300   0.0000000  )
         9           Mn2 tau(   9) = (   0.6666700   0.6666700   0.0000000  )
        10           Mn2 tau(  10) = (   0.1666700   0.1666700   0.4359871  )
        11           Mn2 tau(  11) = (   0.1666700   0.5000000   0.4359871  )
        12           Mn1 tau(  12) = (   0.1666700   0.8333300   0.4359871  )
        13           Mn2 tau(  13) = (   0.5000000   0.1666700   0.4359871  )
        14           Mn1 tau(  14) = (   0.5000000   0.5000000   0.4359871  )
        15           Mn1 tau(  15) = (   0.5000000   0.8333300   0.4359871  )
        16           Mn1 tau(  16) = (   0.8333300   0.1666700   0.4359871  )
        17           Mn2 tau(  17) = (   0.8333300   0.5000000   0.4359871  )
        18           Mn1 tau(  18) = (   0.8333300   0.8333300   0.4359871  )
        19           Au  tau(  19) = (   0.1666700   0.1666700   0.7327374  )
        20           Au  tau(  20) = (   0.1666700   0.5000000   0.7327374  )
        21           Au  tau(  21) = (   0.1666700   0.8333300   0.7327374  )
        22           Au  tau(  22) = (   0.5000000   0.1666700   0.7327374  )
        23           Au  tau(  23) = (   0.5000000   0.5000000   0.7327374  )
        24           Au  tau(  24) = (   0.5000000   0.8333300   0.7327374  )
        25           Au  tau(  25) = (   0.8333300   0.1666700   0.7327374  )
        26           Au  tau(  26) = (   0.8333300   0.5000000   0.7327374  )
        27           Au  tau(  27) = (   0.8333300   0.8333300   0.7327374  )
        28           Au  tau(  28) = (   0.1666700   0.1666700   0.1392369  )
        29           Au  tau(  29) = (   0.1666700   0.5000000   0.1392369  )
        30           Au  tau(  30) = (   0.1666700   0.8333300   0.1392369  )
        31           Au  tau(  31) = (   0.5000000   0.1666700   0.1392369  )
        32           Au  tau(  32) = (   0.5000000   0.5000000   0.1392369  )
        33           Au  tau(  33) = (   0.5000000   0.8333300   0.1392369  )
        34           Au  tau(  34) = (   0.8333300   0.1666700   0.1392369  )
        35           Au  tau(  35) = (   0.8333300   0.5000000   0.1392369  )
        36           Au  tau(  36) = (   0.8333300   0.8333300   0.1392369  )
        37           Au  tau(  37) = (   0.0000000   0.0000000   0.2967503  )
        38           Au  tau(  38) = (   0.0000000   0.3333300   0.2967503  )
        39           Au  tau(  39) = (   0.0000000   0.6666700   0.2967503  )
        40           Au  tau(  40) = (   0.3333300   0.0000000   0.2967503  )
        41           Au  tau(  41) = (   0.3333300   0.3333300   0.2967503  )
        42           Au  tau(  42) = (   0.3333300   0.6666700   0.2967503  )
        43           Au  tau(  43) = (   0.6666700   0.0000000   0.2967503  )
        44           Au  tau(  44) = (   0.6666700   0.3333300   0.2967503  )
        45           Au  tau(  45) = (   0.6666700   0.6666700   0.2967503  )
        46           Au  tau(  46) = (   0.0000000   0.0000000   0.5752240  )
        47           Au  tau(  47) = (   0.0000000   0.3333300   0.5752240  )
        48           Au  tau(  48) = (   0.0000000   0.6666700   0.5752240  )
        49           Au  tau(  49) = (   0.3333300   0.0000000   0.5752240  )
        50           Au  tau(  50) = (   0.3333300   0.3333300   0.5752240  )
        51           Au  tau(  51) = (   0.3333300   0.6666700   0.5752240  )
        52           Au  tau(  52) = (   0.6666700   0.0000000   0.5752240  )
        53           Au  tau(  53) = (   0.6666700   0.3333300   0.5752240  )
        54           Au  tau(  54) = (   0.6666700   0.6666700   0.5752240  )

     number of k points=     8 (tetrahedron method)
                       cart. coord. in units 2pi/alat
        k(    1) = (   0.0000000   0.0000000   0.0000000), wk =   0.1250000
        k(    2) = (   0.0000000   0.0000000  -0.5734114), wk =   0.1250000
        k(    3) = (   0.0000000  -0.5000000   0.0000000), wk =   0.1250000
        k(    4) = (   0.0000000  -0.5000000  -0.5734114), wk =   0.1250000
        k(    5) = (  -0.5000000  -0.5000000   0.0000000), wk =   0.1250000
        k(    6) = (  -0.5000000  -0.5000000  -0.5734114), wk =   0.1250000
        k(    7) = (  -0.5000000   0.0000000   0.0000000), wk =   0.1250000
        k(    8) = (  -0.5000000   0.0000000   0.5734114), wk =   0.1250000

     Dense  grid:   839803 G-vectors     FFT dimensions: ( 125, 125, 108)

     Smooth grid:   253559 G-vectors     FFT dimensions: (  90,  90,  72)

     Estimated max dynamical RAM per process >     570.13 MB

     Estimated total dynamical RAM >       8.91 GB
     Generating pointlists ...
     new r_m :   0.1129 (alat units)  2.1733 (a.u.) for type    1
     new r_m :   0.1129 (alat units)  2.1733 (a.u.) for type    2
     new r_m :   0.1129 (alat units)  2.1733 (a.u.) for type    3

     Check: negative/imaginary core charge=   -0.000006    0.000000

     Initial potential from superposition of free atoms

     starting charge  665.98709, renormalised to  666.00000
     Starting wfc are  504 randomized atomic wfcs
     Checking if some PAW data can be deallocated... 

     total cpu time spent up to now is       56.6 secs

     Self-consistent Calculation

     iteration #  1     ecut=    45.00 Ry     beta= 0.10
     Davidson diagonalization with overlap
     ethr =  1.00E-02,  avg # of iterations =  3.1

     total cpu time spent up to now is      215.2 secs

     total energy              =  -33047.20215823 Ry
     Harris-Foulkes estimate   =  -33044.05685256 Ry
     estimated scf accuracy    <      26.99207564 Ry

     total magnetization       =     0.00 Bohr mag/cell
     absolute magnetization    =    92.10 Bohr mag/cell

     iteration #  2     ecut=    45.00 Ry     beta= 0.10
     Davidson diagonalization with overlap
     ethr =  4.05E-03,  avg # of iterations =  1.0

     total cpu time spent up to now is      323.8 secs

     total energy              =  -33058.56554275 Ry
     Harris-Foulkes estimate   =  -33047.38102137 Ry
     estimated scf accuracy    <      21.34479104 Ry

     total magnetization       =     0.00 Bohr mag/cell
     absolute magnetization    =    91.71 Bohr mag/cell

     iteration #  3     ecut=    45.00 Ry     beta= 0.10
     Davidson diagonalization with overlap
     ethr =  3.20E-03,  avg # of iterations =  2.0

     total cpu time spent up to now is      455.2 secs

     total energy              =  -33066.59800853 Ry
     Harris-Foulkes estimate   =  -33061.35988647 Ry
     estimated scf accuracy    <       8.83016739 Ry

     total magnetization       =    -0.01 Bohr mag/cell
     absolute magnetization    =    85.70 Bohr mag/cell

     iteration #  4     ecut=    45.00 Ry     beta= 0.10
     Davidson diagonalization with overlap
     ethr =  1.33E-03,  avg # of iterations =  4.3

     total cpu time spent up to now is      677.5 secs

     total energy              =  -33058.53714778 Ry
     Harris-Foulkes estimate   =  -33069.70636978 Ry
     estimated scf accuracy    <      58.19413941 Ry

     total magnetization       =    -0.07 Bohr mag/cell
     absolute magnetization    =    70.15 Bohr mag/cell

     iteration #  5     ecut=    45.00 Ry     beta= 0.10
     Davidson diagonalization with overlap
     ethr =  1.33E-03,  avg # of iterations =  4.9

     total cpu time spent up to now is      924.7 secs

     total energy              =  -33061.87283701 Ry
     Harris-Foulkes estimate   =  -33062.64878948 Ry
     estimated scf accuracy    <       4.21090069 Ry

     total magnetization       =    -0.03 Bohr mag/cell
     absolute magnetization    =    83.45 Bohr mag/cell

     iteration #  6     ecut=    45.00 Ry     beta= 0.10
     Davidson diagonalization with overlap
     ethr =  6.32E-04,  avg # of iterations =  3.8

     total cpu time spent up to now is     1087.0 secs

     total energy              =  -33062.52592491 Ry
     Harris-Foulkes estimate   =  -33062.53216610 Ry
     estimated scf accuracy    <       0.27769272 Ry

     total magnetization       =     0.02 Bohr mag/cell
     absolute magnetization    =    79.67 Bohr mag/cell

     iteration #  7     ecut=    45.00 Ry     beta= 0.10
     Davidson diagonalization with overlap
     ethr =  4.17E-05,  avg # of iterations =  4.6

     total cpu time spent up to now is     1276.0 secs

     total energy              =  -33062.57292369 Ry
     Harris-Foulkes estimate   =  -33062.57054178 Ry
     estimated scf accuracy    <       0.06201837 Ry

     total magnetization       =     0.01 Bohr mag/cell
     absolute magnetization    =    78.64 Bohr mag/cell

     iteration #  8     ecut=    45.00 Ry     beta= 0.10
     Davidson diagonalization with overlap
     ethr =  9.31E-06,  avg # of iterations =  4.1

     total cpu time spent up to now is     1441.7 secs

     total energy              =  -33062.56116903 Ry
     Harris-Foulkes estimate   =  -33062.58388170 Ry
     estimated scf accuracy    <       0.14079753 Ry

     total magnetization       =    -0.00 Bohr mag/cell
     absolute magnetization    =    78.26 Bohr mag/cell

     iteration #  9     ecut=    45.00 Ry     beta= 0.10
     Davidson diagonalization with overlap
     ethr =  9.31E-06,  avg # of iterations =  2.0

     total cpu time spent up to now is     1569.6 secs

     total energy              =  -33062.57491638 Ry
     Harris-Foulkes estimate   =  -33062.56818754 Ry
     estimated scf accuracy    <       0.03722010 Ry

     total magnetization       =     0.00 Bohr mag/cell
     absolute magnetization    =    78.15 Bohr mag/cell

     iteration # 10     ecut=    45.00 Ry     beta= 0.10
     Davidson diagonalization with overlap
     ethr =  5.59E-06,  avg # of iterations =  2.0

     total cpu time spent up to now is     1691.3 secs

     total energy              =  -33062.57198171 Ry
     Harris-Foulkes estimate   =  -33062.57870214 Ry
     estimated scf accuracy    <       0.02782665 Ry

     total magnetization       =     0.00 Bohr mag/cell
     absolute magnetization    =    78.43 Bohr mag/cell

     iteration # 11     ecut=    45.00 Ry     beta= 0.10
     Davidson diagonalization with overlap
     ethr =  4.18E-06,  avg # of iterations =  3.2

     total cpu time spent up to now is     1840.1 secs

     total energy              =  -33062.57618131 Ry
     Harris-Foulkes estimate   =  -33062.57741644 Ry
     estimated scf accuracy    <       0.00407734 Ry

     total magnetization       =    -0.00 Bohr mag/cell
     absolute magnetization    =    78.68 Bohr mag/cell

     iteration # 12     ecut=    45.00 Ry     beta= 0.10
     Davidson diagonalization with overlap
     ethr =  6.12E-07,  avg # of iterations =  3.2

     total cpu time spent up to now is     1994.4 secs

     total energy              =  -33062.57819272 Ry
     Harris-Foulkes estimate   =  -33062.57728581 Ry
     estimated scf accuracy    <       0.00338680 Ry

     total magnetization       =     0.00 Bohr mag/cell
     absolute magnetization    =    78.72 Bohr mag/cell

     iteration # 13     ecut=    45.00 Ry     beta= 0.10
     Davidson diagonalization with overlap
     ethr =  5.09E-07,  avg # of iterations =  2.0

     total cpu time spent up to now is     2117.3 secs

     total energy              =  -33062.57867862 Ry
     Harris-Foulkes estimate   =  -33062.57830366 Ry
     estimated scf accuracy    <       0.00035857 Ry

     total magnetization       =    -0.00 Bohr mag/cell
     absolute magnetization    =    78.55 Bohr mag/cell

     iteration # 14     ecut=    45.00 Ry     beta= 0.10
     Davidson diagonalization with overlap
     ethr =  5.38E-08,  avg # of iterations =  4.0

     total cpu time spent up to now is     2286.2 secs

     total energy              =  -33062.57890471 Ry
     Harris-Foulkes estimate   =  -33062.57873602 Ry
     estimated scf accuracy    <       0.00020316 Ry

     total magnetization       =     0.00 Bohr mag/cell
     absolute magnetization    =    78.52 Bohr mag/cell

     iteration # 15     ecut=    45.00 Ry     beta= 0.10
     Davidson diagonalization with overlap
     ethr =  3.05E-08,  avg # of iterations =  2.2

     total cpu time spent up to now is     2412.9 secs

     total energy              =  -33062.57898142 Ry
     Harris-Foulkes estimate   =  -33062.57888313 Ry
     estimated scf accuracy    <       0.00011997 Ry

     total magnetization       =     0.00 Bohr mag/cell
     absolute magnetization    =    78.48 Bohr mag/cell

     iteration # 16     ecut=    45.00 Ry     beta= 0.10
     Davidson diagonalization with overlap
     ethr =  1.80E-08,  avg # of iterations =  2.0

     total cpu time spent up to now is     2536.0 secs

     total energy              =  -33062.57911075 Ry
     Harris-Foulkes estimate   =  -33062.57897230 Ry
     estimated scf accuracy    <       0.00006335 Ry

     total magnetization       =     0.00 Bohr mag/cell
     absolute magnetization    =    78.46 Bohr mag/cell

     iteration # 17     ecut=    45.00 Ry     beta= 0.10
     Davidson diagonalization with overlap
     ethr =  9.51E-09,  avg # of iterations =  2.9

     total cpu time spent up to now is     2702.9 secs

     total energy              =  -33062.57915028 Ry
     Harris-Foulkes estimate   =  -33062.57911258 Ry
     estimated scf accuracy    <       0.00001775 Ry

     total magnetization       =     0.00 Bohr mag/cell
     absolute magnetization    =    78.43 Bohr mag/cell

     iteration # 18     ecut=    45.00 Ry     beta= 0.10
     Davidson diagonalization with overlap
     ethr =  2.67E-09,  avg # of iterations =  2.9

     total cpu time spent up to now is     2848.3 secs

     total energy              =  -33062.57915943 Ry
     Harris-Foulkes estimate   =  -33062.57914232 Ry
     estimated scf accuracy    <       0.00000775 Ry

     total magnetization       =    -0.00 Bohr mag/cell
     absolute magnetization    =    78.42 Bohr mag/cell

     iteration # 19     ecut=    45.00 Ry     beta= 0.10
     Davidson diagonalization with overlap
     ethr =  1.16E-09,  avg # of iterations =  2.9

     total cpu time spent up to now is     3002.0 secs

     total energy              =  -33062.57916247 Ry
     Harris-Foulkes estimate   =  -33062.57915345 Ry
     estimated scf accuracy    <       0.00000369 Ry

     total magnetization       =     0.00 Bohr mag/cell
     absolute magnetization    =    78.41 Bohr mag/cell

     iteration # 20     ecut=    45.00 Ry     beta= 0.10
     Davidson diagonalization with overlap
     ethr =  5.54E-10,  avg # of iterations =  2.5

     total cpu time spent up to now is     3142.7 secs

     total energy              =  -33062.57916186 Ry
     Harris-Foulkes estimate   =  -33062.57915639 Ry
     estimated scf accuracy    <       0.00000187 Ry

     total magnetization       =     0.00 Bohr mag/cell
     absolute magnetization    =    78.40 Bohr mag/cell

     iteration # 21     ecut=    45.00 Ry     beta= 0.10
     Davidson diagonalization with overlap
     ethr =  2.81E-10,  avg # of iterations =  2.4
 
     Magnetic moment per site:
     atom:    1    charge:   13.5782    magn:    3.9943    constr:    0.0000
     atom:    2    charge:   13.5719    magn:    4.0216    constr:    0.0000
     atom:    3    charge:   13.5741    magn:   -4.0268    constr:    0.0000
     atom:    4    charge:   13.5832    magn:    3.9768    constr:    0.0000
     atom:    5    charge:   13.5810    magn:   -3.9759    constr:    0.0000
     atom:    6    charge:   13.5812    magn:   -3.9620    constr:    0.0000
     atom:    7    charge:   13.5721    magn:   -4.0603    constr:    0.0000
     atom:    8    charge:   13.5730    magn:    4.0434    constr:    0.0000
     atom:    9    charge:   13.5756    magn:   -3.9895    constr:    0.0000
     atom:   10    charge:   13.5721    magn:   -4.0216    constr:    0.0000
     atom:   11    charge:   13.5781    magn:   -3.9942    constr:    0.0000
     atom:   12    charge:   13.5742    magn:    4.0268    constr:    0.0000
     atom:   13    charge:   13.5730    magn:   -4.0434    constr:    0.0000
     atom:   14    charge:   13.5720    magn:    4.0603    constr:    0.0000
     atom:   15    charge:   13.5756    magn:    3.9895    constr:    0.0000
     atom:   16    charge:   13.5812    magn:    3.9760    constr:    0.0000
     atom:   17    charge:   13.5832    magn:   -3.9767    constr:    0.0000
     atom:   18    charge:   13.5813    magn:    3.9621    constr:    0.0000
     atom:   19    charge:    9.1207    magn:    0.0157    constr:    0.0000
     atom:   20    charge:    9.1203    magn:   -0.0445    constr:    0.0000
     atom:   21    charge:    9.1205    magn:    0.0137    constr:    0.0000
     atom:   22    charge:    9.1211    magn:   -0.0129    constr:    0.0000
     atom:   23    charge:    9.1203    magn:   -0.0159    constr:    0.0000
     atom:   24    charge:    9.1211    magn:   -0.0150    constr:    0.0000
     atom:   25    charge:    9.1203    magn:    0.0344    constr:    0.0000
     atom:   26    charge:    9.1198    magn:   -0.0059    constr:    0.0000
     atom:   27    charge:    9.1218    magn:   -0.0200    constr:    0.0000
     atom:   28    charge:    9.1207    magn:    0.0157    constr:    0.0000
     atom:   29    charge:    9.1203    magn:   -0.0445    constr:    0.0000
     atom:   30    charge:    9.1205    magn:    0.0137    constr:    0.0000
     atom:   31    charge:    9.1211    magn:   -0.0129    constr:    0.0000
     atom:   32    charge:    9.1203    magn:   -0.0159    constr:    0.0000
     atom:   33    charge:    9.1211    magn:   -0.0150    constr:    0.0000
     atom:   34    charge:    9.1203    magn:    0.0344    constr:    0.0000
     atom:   35    charge:    9.1198    magn:   -0.0059    constr:    0.0000
     atom:   36    charge:    9.1218    magn:   -0.0200    constr:    0.0000
     atom:   37    charge:    9.1205    magn:    0.0445    constr:    0.0000
     atom:   38    charge:    9.1207    magn:   -0.0157    constr:    0.0000
     atom:   39    charge:    9.1205    magn:   -0.0137    constr:    0.0000
     atom:   40    charge:    9.1199    magn:    0.0059    constr:    0.0000
     atom:   41    charge:    9.1203    magn:   -0.0344    constr:    0.0000
     atom:   42    charge:    9.1217    magn:    0.0200    constr:    0.0000
     atom:   43    charge:    9.1203    magn:    0.0159    constr:    0.0000
     atom:   44    charge:    9.1211    magn:    0.0129    constr:    0.0000
     atom:   45    charge:    9.1211    magn:    0.0150    constr:    0.0000
     atom:   46    charge:    9.1205    magn:    0.0445    constr:    0.0000
     atom:   47    charge:    9.1207    magn:   -0.0157    constr:    0.0000
     atom:   48    charge:    9.1205    magn:   -0.0137    constr:    0.0000
     atom:   49    charge:    9.1199    magn:    0.0059    constr:    0.0000
     atom:   50    charge:    9.1203    magn:   -0.0344    constr:    0.0000
     atom:   51    charge:    9.1217    magn:    0.0200    constr:    0.0000
     atom:   52    charge:    9.1203    magn:    0.0159    constr:    0.0000
     atom:   53    charge:    9.1211    magn:    0.0129    constr:    0.0000
     atom:   54    charge:    9.1211    magn:    0.0150    constr:    0.0000

     total cpu time spent up to now is     3278.5 secs

     End of self-consistent calculation

 ------ SPIN UP ------------


          k = 0.0000 0.0000 0.0000 ( 31747 PWs)   bands (ev):

   -66.7335 -66.7193 -66.7179 -66.7174 -66.6881 -66.6397 -66.6162 -66.6045
   -66.5825 -62.4044 -62.3888 -62.3863 -62.3715 -62.3547 -62.3437 -62.3383
   -62.3268 -62.3032 -35.5031 -35.4905 -35.4902 -35.4901 -35.4840 -35.4731
   -35.4686 -35.4661 -35.4543 -35.4540 -35.4428 -35.4361 -35.4158 -35.4140
   -35.4110 -35.4030 -35.3854 -35.3808 -35.3762 -35.3659 -35.3562 -35.3399
   -35.3373 -35.3354 -35.3287 -35.3222 -35.3188 -31.2482 -31.2333 -31.2313
   -31.2277 -31.2238 -31.2155 -31.2113 -31.2058 -31.1967 -31.1926 -31.1924
   -31.1896 -31.1871 -31.1847 -31.1819 -31.1789 -31.1731 -31.1720 -31.1637
   -31.1574 -31.1545 -31.1476 -31.1464 -31.1435 -31.1362 -31.1297 -31.1145
     5.6148   7.1354   7.1524   7.2081   7.2177   7.3632   7.8442   7.8867
     7.9114   7.9547   8.0757   8.0944   8.1467   8.1732   8.1914   8.2463
     8.2610   8.2911   8.3068   8.5148   8.5429   8.5635   8.5708   8.5929
     8.6263   8.8523   8.8598   8.8628   8.8788   8.8864   8.8891   8.8973
     8.8980   8.9051   8.9116   8.9206   8.9376   8.9511   8.9663   8.9804
     8.9872   9.0826   9.1198   9.1237   9.1273   9.1338   9.1570   9.1572
     9.1888   9.1976   9.2187   9.2671   9.2876   9.2969   9.3111   9.3392
     9.3449   9.3659   9.3674   9.3693   9.3749   9.4001   9.4039   9.4368
     9.4438   9.4467   9.4534   9.4602   9.4631   9.4647   9.4871   9.5774
     9.5796   9.5871   9.5924   9.5946   9.6229   9.6659   9.6686   9.6706
     9.6722   9.6763   9.6889   9.7430   9.7528   9.7784   9.7943   9.8494
     9.8512   9.9037   9.9126   9.9374   9.9503   9.9512  10.0128  10.0395
    10.0747  10.1178  10.1341  10.1871  10.2829  10.2842  10.2913  10.2982
    10.3040  10.3084  10.3096  10.3130  10.3262  10.3270  10.3380  10.3411
    10.3417  10.3522  10.3527  10.3618  10.3660  10.3708  10.3805  10.3830
    10.4018  10.5120  10.5195  10.5489  10.6048  10.6212  10.6395  10.6445
    10.6920  10.7823  10.7881  10.7945  10.8138  10.8253  10.8312  10.8400
    10.8507  10.8621  10.8638  10.8698  10.8757  10.8790  10.8847  10.8900
    10.9004  10.9177  11.0127  11.0348  11.0741  11.0950  11.1522  11.2098
    11.2198  11.2199  11.2271  11.2328  11.2626  11.3256  11.3284  11.3354
    11.3433  11.3804  11.3865  11.3965  11.4007  11.4093  11.4198  11.4297
    11.4886  11.5039  11.5803  11.5848  11.5940  11.5952  11.5988  11.6116
    11.6619  11.6694  11.7052  11.7240  11.7280  11.7471  11.7533  11.7869
    11.8253  11.8493  11.8580  11.8698  11.8835  11.9156  11.9283  11.9505
    11.9553  12.0265  12.0988  12.0993  12.1048  12.1064  12.1120  12.1360
    12.1416  12.1446  12.1466  12.1491  12.1495  12.1740  12.2056  12.2163
    12.2461  12.2755  12.2868  12.3511  12.3539  12.3599  12.3818  12.4051
    12.4308  12.4346  12.4533  12.4543  12.4992  12.5004  12.5086  12.5226
    12.5504  12.5507  12.5671  12.5845  12.5959  12.6014  12.6372  12.6592
    12.7274  12.7353  12.7735  12.7810  12.8516  12.8874  13.0011  13.0284
    13.1039  13.1367  13.1541  13.1984  13.5489  13.5582  13.7896  13.8513
    13.8584  14.1533  14.1564  14.1858  14.2244  14.3948  14.4139  14.6288
    14.6914  14.7846  14.9236  14.9931  15.0176  15.0874  15.1133  15.2355
    15.2897  15.3017  15.3281  15.4225  15.4308  15.4605  15.4751  15.5394
    15.5996  15.7105  15.7347  15.8027  15.8217  15.8848  15.9110  16.0108
    16.0307  16.0898  16.0980  16.1237  16.1533  16.1636  16.1805  16.1991
    16.2006  16.2249  16.2727  16.2957  16.3359  16.3490  16.4027  16.4205
    16.4398  16.4844  16.5314  16.6294  16.6590  16.6912  16.7584  16.8706
    16.9688  17.0310  17.1352  17.1693  17.2174  17.2476  17.2603  17.3212
    17.4646  17.5269  17.8344  17.8911  17.9302  17.9387  17.9739  18.0909
    18.2607  18.3325  18.4895  18.8839  18.9844  19.0322  19.1670  19.2350

          k = 0.0000 0.0000-0.5734 ( 31692 PWs)   bands (ev):

   -66.7335 -66.7193 -66.7179 -66.7174 -66.6881 -66.6397 -66.6162 -66.6045
   -66.5825 -62.4044 -62.3888 -62.3863 -62.3715 -62.3547 -62.3437 -62.3383
   -62.3268 -62.3032 -35.5031 -35.4905 -35.4902 -35.4901 -35.4840 -35.4731
   -35.4686 -35.4661 -35.4543 -35.4540 -35.4428 -35.4361 -35.4158 -35.4140
   -35.4110 -35.4030 -35.3854 -35.3808 -35.3762 -35.3659 -35.3562 -35.3399
   -35.3373 -35.3354 -35.3287 -35.3222 -35.3188 -31.2482 -31.2333 -31.2313
   -31.2277 -31.2238 -31.2155 -31.2113 -31.2058 -31.1967 -31.1926 -31.1924
   -31.1896 -31.1871 -31.1847 -31.1819 -31.1789 -31.1731 -31.1720 -31.1637
   -31.1574 -31.1545 -31.1476 -31.1464 -31.1435 -31.1362 -31.1297 -31.1145
     6.1739   6.1941   7.5361   7.5381   7.5510   7.5749   7.5946   7.6179
     7.6179   7.6264   8.3118   8.3133   8.3301   8.3362   8.3511   8.3781
     8.3788   8.3949   8.4563   8.4585   8.4745   8.4808   8.4940   8.4961
     8.5170   8.5215   8.6978   8.7047   8.7619   8.7801   8.9507   8.9563
     8.9637   8.9752   8.9796   8.9851   8.9868   9.0067   9.0104   9.0226
     9.0273   9.0306   9.0387   9.0682   9.0756   9.0808   9.2040   9.2133
     9.2184   9.2339   9.2449   9.2641   9.2646   9.2752   9.2757   9.2804
     9.2858   9.2881   9.2908   9.2933   9.3019   9.3044   9.4077   9.4118
     9.4343   9.4369   9.4413   9.4437   9.4478   9.4610   9.4648   9.4781
     9.4847   9.4876   9.4970   9.5167   9.5186   9.5338   9.6422   9.6723
     9.7795   9.7796   9.7959   9.8015   9.8135   9.8280   9.8302   9.8379
     9.8734   9.8762   9.8784   9.8811   9.8864   9.8889   9.8924   9.8945
    10.0584  10.0606  10.0612  10.0624  10.1453  10.1544  10.1572  10.1639
    10.1640  10.1791  10.1811  10.1942  10.1955  10.2122  10.3578  10.3650
    10.3686  10.3836  10.3990  10.4028  10.4136  10.4195  10.4807  10.5053
    10.5806  10.5845  10.6068  10.6123  10.6304  10.6342  10.6519  10.6645
    10.6690  10.7124  10.7157  10.7403  10.7727  10.7810  10.7959  10.8308
    10.9359  10.9438  10.9680  11.0078  11.0190  11.0362  11.0376  11.0664
    11.0756  11.0930  11.1230  11.1448  11.1547  11.1635  11.2137  11.2198
    11.2384  11.2451  11.2487  11.2516  11.2594  11.2664  11.2719  11.2753
    11.2780  11.2803  11.2872  11.2889  11.2897  11.2930  11.2941  11.3020
    11.3098  11.3161  11.3197  11.3204  11.5334  11.5676  11.7087  11.7155
    11.7156  11.7170  11.7174  11.7207  11.7235  11.7334  11.7468  11.7519
    11.7654  11.7661  11.7827  11.7831  11.7937  11.8283  11.9180  11.9205
    11.9361  11.9726  11.9830  12.0155  12.0216  12.0346  12.0500  12.1283
    12.1314  12.1628  12.1642  12.2014  12.2183  12.2999  12.3481  12.4288
    12.4306  12.4456  12.4535  12.4692  12.4704  12.4866  12.4908  12.4940
    12.5034  12.5240  12.5331  12.5504  12.5770  12.5923  12.5934  12.6299
    12.6486  12.6752  12.6838  12.7398  12.7493  12.7778  12.7899  12.8808
    12.8976  12.9719  13.0089  13.1232  13.1414  13.1712  13.1986  13.2516
    13.2722  13.2742  13.2794  13.3710  13.4974  13.5705  13.5750  13.7560
    13.8534  13.9523  14.0496  14.0530  14.1307  14.2642  14.2816  14.4330
    14.5900  14.8492  14.8937  14.9843  14.9870  15.0389  15.0477  15.0922
    15.1110  15.1842  15.2384  15.3229  15.3421  15.3569  15.4570  15.5496
    15.5593  15.6731  15.6852  15.7650  15.8537  15.8948  15.9462  16.0021
    16.0714  16.0836  16.0968  16.1498  16.1653  16.1818  16.2003  16.2009
    16.2088  16.2365  16.2453  16.2484  16.2741  16.2871  16.3028  16.3040
    16.3415  16.4362  16.5499  16.5623  16.6004  16.6648  16.6777  16.7954
    16.8115  16.8765  17.3386  17.3644  17.4149  17.4310  17.4874  17.4979
    17.5694  17.5897  17.6895  17.7181  17.7460  17.7504  17.8437  17.8832
    17.8874  17.9043  18.1243  18.1931  18.2094  18.2399  18.2943  18.3549

          k = 0.0000-0.5000 0.0000 ( 31722 PWs)   bands (ev):

   -66.7335 -66.7193 -66.7179 -66.7174 -66.6881 -66.6397 -66.6162 -66.6045
   -66.5825 -62.4044 -62.3888 -62.3863 -62.3715 -62.3547 -62.3437 -62.3383
   -62.3268 -62.3032 -35.5031 -35.4905 -35.4902 -35.4901 -35.4840 -35.4731
   -35.4686 -35.4661 -35.4543 -35.4540 -35.4428 -35.4361 -35.4158 -35.4140
   -35.4110 -35.4030 -35.3854 -35.3808 -35.3762 -35.3659 -35.3562 -35.3399
   -35.3373 -35.3354 -35.3287 -35.3222 -35.3188 -31.2482 -31.2333 -31.2313
   -31.2277 -31.2238 -31.2155 -31.2113 -31.2058 -31.1967 -31.1926 -31.1924
   -31.1896 -31.1871 -31.1847 -31.1819 -31.1789 -31.1731 -31.1720 -31.1637
   -31.1574 -31.1545 -31.1476 -31.1464 -31.1435 -31.1362 -31.1297 -31.1145
     6.0254   6.0592   7.4166   7.4353   7.4533   7.4856   7.6700   7.6790
     8.1003   8.1113   8.1282   8.1696   8.2213   8.2356   8.2399   8.2655
     8.4070   8.4293   8.4438   8.4787   8.6321   8.6340   8.6472   8.6524
     8.6590   8.6639   8.6918   8.6961   8.7640   8.8108   8.8255   8.8282
     8.8550   8.8616   8.8763   8.8877   8.9021   8.9077   8.9165   8.9167
     8.9267   8.9293   8.9385   8.9541   9.0433   9.0528   9.1573   9.1720
     9.1850   9.1946   9.2204   9.2253   9.2347   9.2427   9.3125   9.3370
     9.3438   9.3763   9.3832   9.4152   9.4741   9.4807   9.4954   9.5125
     9.5262   9.5338   9.5633   9.5745   9.5826   9.6055   9.6065   9.6140
     9.6219   9.6281   9.6284   9.6294   9.6337   9.6350   9.6399   9.6471
     9.6582   9.6683   9.6770   9.6799   9.6949   9.7159   9.7169   9.7249
     9.7401   9.7506   9.7531   9.7721   9.8916   9.9036   9.9372   9.9621
    10.0094  10.0423  10.1482  10.1920  10.2081  10.2197  10.2446  10.2518
    10.2619  10.2650  10.2692  10.2725  10.2818  10.2903  10.3397  10.3529
    10.3715  10.3789  10.3819  10.3832  10.4317  10.4321  10.4521  10.4744
    10.5250  10.5291  10.5324  10.5479  10.5575  10.5671  10.5710  10.5956
    10.6072  10.6288  10.6765  10.6836  10.7005  10.7328  10.7420  10.7596
    10.8023  10.8182  10.8267  10.8523  10.8633  10.8752  10.9090  10.9344
    10.9877  11.0083  11.0137  11.0297  11.0328  11.0703  11.1716  11.1785
    11.3092  11.3466  11.3479  11.3641  11.3699  11.3852  11.3944  11.4060
    11.4174  11.4187  11.4256  11.4673  11.5077  11.5293  11.5461  11.5513
    11.5581  11.6054  11.6170  11.6434  11.6458  11.6677  11.6854  11.7494
    11.7589  11.7677  11.7805  11.8022  11.8137  11.8316  11.8507  11.8871
    11.9014  11.9027  11.9035  11.9103  11.9338  11.9386  11.9448  11.9658
    11.9695  11.9755  11.9804  11.9874  12.0856  12.1148  12.1166  12.1796
    12.1809  12.1876  12.2049  12.2114  12.2337  12.2363  12.2473  12.2789
    12.3016  12.3113  12.3196  12.3583  12.3720  12.3953  12.4022  12.4264
    12.4542  12.4618  12.4860  12.5005  12.5244  12.5248  12.5525  12.5646
    12.5709  12.5854  12.6086  12.6267  12.6643  12.7186  12.7271  12.8394
    12.8800  12.9752  13.0226  13.0277  13.0684  13.0826  13.1197  13.1207
    13.1412  13.1959  13.2204  13.2441  13.2507  13.2732  13.3062  13.3162
    13.4325  13.4993  13.5202  13.6206  13.6461  14.4424  14.5516  14.5605
    14.6285  14.6847  14.6859  14.8143  14.8171  14.8284  14.8401  14.9937
    15.0906  15.0960  15.2507  15.2707  15.4171  15.4344  15.5272  15.5309
    15.6871  15.6910  15.7862  15.8083  15.8337  15.8481  15.9638  15.9988
    16.0545  16.0631  16.1049  16.1248  16.1254  16.1549  16.1672  16.1822
    16.2246  16.2304  16.2460  16.2635  16.2687  16.3317  16.3488  16.3997
    16.4399  16.4465  16.5344  16.5916  16.6738  16.7960  16.9962  17.0939
    17.1254  17.2047  17.2480  17.2954  17.3834  17.4699  17.6254  17.6366
    17.7087  17.7771  17.8155  17.8321  17.8467  17.8622  17.8901  17.9548
    17.9625  18.0744  18.1529  18.2416  19.2446  19.2983  19.3256  19.3701

          k = 0.0000-0.5000-0.5734 ( 31696 PWs)   bands (ev):

   -66.7335 -66.7193 -66.7179 -66.7174 -66.6881 -66.6397 -66.6162 -66.6045
   -66.5825 -62.4044 -62.3888 -62.3863 -62.3715 -62.3547 -62.3437 -62.3383
   -62.3268 -62.3032 -35.5031 -35.4905 -35.4902 -35.4901 -35.4840 -35.4731
   -35.4686 -35.4661 -35.4543 -35.4540 -35.4428 -35.4361 -35.4158 -35.4140
   -35.4110 -35.4030 -35.3854 -35.3808 -35.3762 -35.3659 -35.3562 -35.3399
   -35.3373 -35.3354 -35.3287 -35.3222 -35.3188 -31.2482 -31.2333 -31.2313
   -31.2277 -31.2238 -31.2155 -31.2113 -31.2058 -31.1967 -31.1926 -31.1924
   -31.1896 -31.1871 -31.1847 -31.1819 -31.1789 -31.1731 -31.1720 -31.1637
   -31.1574 -31.1545 -31.1476 -31.1464 -31.1435 -31.1362 -31.1297 -31.1145
     6.5344   6.5577   6.6133   6.6277   7.8440   7.8494   7.8500   7.8808
     7.8981   7.9246   7.9299   7.9331   8.2695   8.2754   8.3025   8.3027
     8.5196   8.5208   8.5285   8.5326   8.6576   8.6586   8.6799   8.6839
     8.6891   8.6984   8.6986   8.7246   8.7313   8.7326   8.7494   8.7542
     8.7649   8.7712   8.7832   8.7964   8.9576   8.9870   9.0321   9.0375
     9.0376   9.0464   9.0467   9.0511   9.1906   9.2144   9.2161   9.2196
     9.2210   9.2260   9.2264   9.2335   9.2403   9.2503   9.2551   9.2563
     9.2589   9.2628   9.2776   9.2820   9.3138   9.3216   9.3971   9.3990
     9.4051   9.4316   9.4424   9.4582   9.4650   9.4659   9.4736   9.4748
     9.4946   9.5093   9.5155   9.5262   9.5285   9.5449   9.5503   9.5678
     9.5736   9.5916   9.7540   9.7557   9.7961   9.8007   9.8038   9.8223
     9.8237   9.8395   9.8419   9.8521   9.8591   9.8620   9.8642   9.8703
     9.9483   9.9591  10.0105  10.0169  10.0253  10.0267  10.0515  10.0611
    10.3698  10.3711  10.3873  10.3922  10.3995  10.4113  10.4249  10.4340
    10.4495  10.4610  10.4695  10.4796  10.4841  10.4934  10.4960  10.5133
    10.5441  10.5479  10.5730  10.5754  10.5832  10.6000  10.6049  10.6230
    10.6397  10.6408  10.6731  10.6750  10.6823  10.6895  10.7221  10.7231
    10.7542  10.7995  10.9042  10.9053  10.9807  10.9949  11.0155  11.0439
    11.1194  11.1250  11.1363  11.1602  11.1848  11.1875  11.2026  11.2041
    11.2124  11.2128  11.3040  11.3053  11.3392  11.3434  11.3577  11.3782
    11.3822  11.3846  11.4214  11.4281  11.4390  11.4482  11.4925  11.5136
    11.5511  11.5599  11.5704  11.5734  11.5829  11.5836  11.6149  11.6189
    11.6385  11.6444  11.7334  11.7413  11.7568  11.7595  11.8500  11.8543
    11.8835  11.9216  11.9357  11.9371  11.9551  11.9721  11.9877  12.0117
    12.0155  12.0263  12.0318  12.0348  12.0412  12.0510  12.0671  12.0913
    12.1516  12.1926  12.2238  12.2483  12.2702  12.2913  12.3104  12.3254
    12.3359  12.3828  12.4008  12.4368  12.4491  12.4632  12.4643  12.4852
    12.4935  12.5156  12.5174  12.5246  12.5430  12.5576  12.5779  12.5914
    12.5921  12.6070  12.6084  12.6427  12.6512  12.6544  12.6659  12.7872
    12.8372  12.8482  12.8776  12.9222  12.9964  13.0501  13.0598  13.0660
    13.2370  13.2808  13.3829  13.5009  13.5723  13.7081  13.7173  13.7677
    13.9194  14.0108  14.0142  14.0293  14.1223  14.2734  14.2800  14.3312
    14.4971  14.5485  14.5543  14.5597  14.5830  14.7648  14.8254  15.0301
    15.0344  15.2293  15.2570  15.3082  15.3953  15.4215  15.5462  15.5529
    15.5971  15.6347  15.6871  15.7938  15.8574  15.8756  15.9248  15.9838
    15.9931  16.0990  16.1197  16.1546  16.1617  16.1817  16.2049  16.2578
    16.2725  16.3190  16.3425  16.3752  16.3840  16.4025  16.4238  16.4361
    16.4669  16.5049  16.5416  16.5638  16.6092  16.6134  16.6599  16.6613
    16.7496  16.8071  16.8175  16.8409  16.8641  16.8971  16.9530  17.0424
    17.0876  17.1244  17.2376  17.2642  18.6612  18.6845  18.7289  18.7629
    18.7809  18.7894  18.8216  18.8222  18.8744  18.9113  18.9388  18.9771

          k =-0.5000-0.5000 0.0000 ( 31612 PWs)   bands (ev):

   -66.7335 -66.7193 -66.7179 -66.7174 -66.6881 -66.6397 -66.6162 -66.6045
   -66.5825 -62.4044 -62.3888 -62.3863 -62.3715 -62.3547 -62.3437 -62.3383
   -62.3268 -62.3032 -35.5031 -35.4905 -35.4902 -35.4901 -35.4840 -35.4731
   -35.4686 -35.4661 -35.4543 -35.4540 -35.4428 -35.4361 -35.4158 -35.4140
   -35.4110 -35.4029 -35.3854 -35.3808 -35.3762 -35.3659 -35.3562 -35.3399
   -35.3373 -35.3354 -35.3287 -35.3222 -35.3188 -31.2482 -31.2333 -31.2315
   -31.2276 -31.2238 -31.2159 -31.2107 -31.2058 -31.1967 -31.1926 -31.1924
   -31.1896 -31.1872 -31.1847 -31.1819 -31.1789 -31.1731 -31.1720 -31.1638
   -31.1574 -31.1545 -31.1476 -31.1464 -31.1435 -31.1362 -31.1297 -31.1145
     6.3956   6.4343   6.4428   6.4890   8.0080   8.0136   8.0171   8.0237
     8.0958   8.1127   8.2777   8.3141   8.3206   8.3269   8.3311   8.3378
     8.3459   8.3541   8.3591   8.3709   8.3742   8.4173   8.6035   8.6140
     8.6212   8.6547   8.6855   8.7024   8.7127   8.7171   8.7200   8.7460
     8.7580   8.8090   8.9276   8.9421   8.9481   8.9626   8.9742   8.9755
     8.9781   8.9972   9.0016   9.0109   9.0144   9.0216   9.0355   9.0401
     9.1174   9.1259   9.3061   9.3119   9.3146   9.3217   9.3962   9.4089
     9.4152   9.4253   9.4283   9.4299   9.4310   9.4346   9.4464   9.4522
     9.4610   9.4633   9.4703   9.4742   9.4833   9.4878   9.4986   9.5041
     9.5109   9.5334   9.5384   9.5389   9.5520   9.5552   9.5844   9.5931
     9.6058   9.6127   9.6963   9.6988   9.7522   9.7991   9.8099   9.8182
     9.8325   9.8339   9.8428   9.8469   9.8561   9.8754  10.0089  10.0693
    10.0807  10.0907  10.1150  10.1310  10.1417  10.1545  10.1571  10.1673
    10.1765  10.1841  10.2060  10.2183  10.2210  10.2223  10.2257  10.2296
    10.2315  10.2356  10.2376  10.2604  10.4345  10.4744  10.4752  10.4927
    10.4976  10.5056  10.5116  10.5566  10.5681  10.6160  10.6383  10.6486
    10.6519  10.6615  10.6698  10.6775  10.6977  10.7083  10.7099  10.7145
    10.7178  10.7860  10.8052  10.8121  10.8245  10.8571  10.8631  10.8642
    10.9169  10.9425  11.1969  11.2073  11.2132  11.2265  11.3094  11.3302
    11.3328  11.3446  11.3498  11.3669  11.3725  11.3898  11.5302  11.5671
    11.5992  11.6354  11.6415  11.6435  11.6450  11.6477  11.6481  11.6525
    11.6802  11.6823  11.7075  11.7258  11.7301  11.7454  11.7627  11.7748
    11.8647  11.8751  11.8788  11.8803  11.8848  11.8881  11.9791  11.9806
    11.9920  12.0197  12.0514  12.0664  12.0686  12.0999  12.1062  12.1079
    12.1107  12.1142  12.1194  12.1339  12.1459  12.1531  12.1552  12.1552
    12.1602  12.1624  12.1770  12.1901  12.2215  12.2278  12.2400  12.2542
    12.2595  12.2763  12.2807  12.2848  12.2925  12.3009  12.3012  12.3619
    12.4375  12.4425  12.4638  12.4692  12.4880  12.5190  12.5216  12.5356
    12.5444  12.5562  12.5588  12.5932  12.6085  12.6233  12.6358  12.6853
    12.6993  12.7902  12.8041  12.8425  12.8521  12.9071  12.9301  12.9496
    12.9653  12.9800  13.0043  13.0217  13.1286  13.6208  13.6258  13.6630
    13.6739  13.6751  13.7750  13.7905  13.8819  13.9774  14.0336  14.2732
    14.2762  14.3285  14.4377  14.4528  14.4905  14.7202  14.7389  14.8238
    15.0781  15.0921  15.1631  15.2051  15.3541  15.3942  15.7221  15.7225
    15.7342  15.8126  15.8406  15.8406  15.8880  15.9195  15.9300  15.9767
    15.9861  16.0401  16.0476  16.0804  16.1040  16.1282  16.1543  16.1677
    16.1929  16.2593  16.2799  16.3078  16.3312  16.3600  16.3921  16.4280
    16.4518  16.4520  16.5346  16.5958  16.6841  16.7340  16.7545  16.7782
    16.7861  16.8670  16.8862  16.9578  17.3859  17.3886  17.7488  17.9084
    18.1314  18.1865  18.1947  18.2058  18.2546  18.4345  18.4944  18.5585
    18.5974  18.6363  18.6468  18.6714  18.7101  18.7964  18.8063  18.8099

          k =-0.5000-0.5000-0.5734 ( 31672 PWs)   bands (ev):

   -66.7335 -66.7193 -66.7179 -66.7174 -66.6881 -66.6397 -66.6162 -66.6045
   -66.5825 -62.4044 -62.3888 -62.3863 -62.3715 -62.3547 -62.3437 -62.3383
   -62.3268 -62.3032 -35.5031 -35.4905 -35.4902 -35.4901 -35.4840 -35.4731
   -35.4686 -35.4661 -35.4543 -35.4540 -35.4428 -35.4361 -35.4158 -35.4140
   -35.4110 -35.4029 -35.3854 -35.3808 -35.3762 -35.3659 -35.3562 -35.3399
   -35.3373 -35.3354 -35.3287 -35.3222 -35.3188 -31.2482 -31.2333 -31.2315
   -31.2276 -31.2238 -31.2159 -31.2107 -31.2058 -31.1967 -31.1926 -31.1924
   -31.1896 -31.1872 -31.1847 -31.1819 -31.1789 -31.1731 -31.1720 -31.1638
   -31.1574 -31.1545 -31.1476 -31.1464 -31.1435 -31.1362 -31.1297 -31.1145
     6.9031   6.9082   6.9210   6.9538   6.9814   7.0195   7.0296   7.0303
     8.4541   8.4613   8.4736   8.4737   8.4817   8.4890   8.4893   8.4934
     8.4985   8.5003   8.5177   8.5308   8.5356   8.5439   8.5539   8.5633
     8.5744   8.5798   8.5895   8.6018   8.8748   8.8805   8.8882   8.8909
     8.9141   8.9234   8.9316   8.9357   9.0995   9.1029   9.1080   9.1262
     9.1332   9.1386   9.1444   9.1447   9.1503   9.1526   9.1594   9.1615
     9.1646   9.1659   9.1694   9.1706   9.1730   9.1730   9.1754   9.1755
     9.1793   9.1799   9.1838   9.1982   9.2028   9.2096   9.2121   9.2232
     9.2271   9.2389   9.2439   9.2507   9.2574   9.2595   9.2747   9.2812
     9.5392   9.5458   9.5545   9.5656   9.5896   9.6119   9.6153   9.6213
     9.6587   9.6692   9.6713   9.7021   9.7150   9.7387   9.7526   9.7599
     9.8281   9.8324   9.8338   9.8505   9.8715   9.8828   9.8880   9.8909
    10.1197  10.1330  10.1369  10.1517  10.1635  10.1729  10.1739  10.1882
    10.2939  10.3041  10.4462  10.4551  10.4615  10.4650  10.4754  10.4795
    10.4818  10.4951  10.4974  10.5018  10.5054  10.5078  10.5131  10.5154
    10.5233  10.5282  10.5318  10.5332  10.5554  10.5607  10.5884  10.5987
    10.6070  10.6139  10.6288  10.6489  10.6508  10.6574  10.6689  10.6703
    10.6880  10.6908  10.7002  10.7096  10.7333  10.7411  11.0462  11.0471
    11.0567  11.0687  11.1005  11.1116  11.1266  11.1316  11.3800  11.3821
    11.3831  11.3942  11.4169  11.4370  11.4432  11.4486  11.4616  11.4747
    11.4749  11.4890  11.5029  11.5137  11.5202  11.5314  11.6030  11.6279
    11.6403  11.6441  11.6481  11.6554  11.6841  11.6904  11.7098  11.7149
    11.7249  11.7293  11.7412  11.7527  11.7746  11.7761  11.7858  11.7929
    11.8083  11.8176  11.8209  11.8356  11.8387  11.8961  12.0110  12.0267
    12.0371  12.0517  12.0601  12.0656  12.1185  12.1210  12.1383  12.1661
    12.1732  12.1821  12.2004  12.2165  12.2484  12.2642  12.3163  12.3313
    12.3524  12.3926  12.4155  12.4214  12.4256  12.4412  12.4604  12.4784
    12.4833  12.4914  12.5163  12.5203  12.5267  12.5529  12.5700  12.5715
    12.6182  12.6328  12.6663  12.6823  12.7019  12.7038  12.7517  12.8076
    12.8631  12.8874  13.0000  13.0994  13.0996  13.1412  13.1725  13.2149
    13.2704  13.2773  13.3159  13.3297  13.3861  13.4551  13.5207  13.5292
    13.5671  13.6244  13.7791  13.7815  13.8954  14.0180  14.0334  14.1797
    14.1940  14.3197  14.5114  14.6286  14.7510  14.7547  14.7947  14.9101
    14.9433  15.1518  15.1941  15.3191  15.4033  15.5792  15.6230  15.6990
    15.7160  15.8126  15.8310  15.8537  15.8578  15.8985  15.9109  15.9647
    16.0500  16.0632  16.1333  16.1454  16.1662  16.2086  16.2090  16.2548
    16.2682  16.2718  16.2967  16.3386  16.3551  16.3691  16.4495  16.5097
    16.5296  16.5617  16.5741  16.6010  16.6321  16.6502  16.6756  16.6954
    16.7274  16.7938  16.7981  16.8654  16.9311  16.9421  16.9592  16.9876
    17.0428  17.1119  17.7105  17.8010  17.8364  17.8590  19.0086  19.0479
    19.0557  19.0591  19.0999  19.1402  19.1917  19.2146  19.2190  19.3151

          k =-0.5000 0.0000 0.0000 ( 31722 PWs)   bands (ev):

   -66.7335 -66.7193 -66.7179 -66.7174 -66.6881 -66.6397 -66.6162 -66.6045
   -66.5825 -62.4044 -62.3888 -62.3863 -62.3715 -62.3547 -62.3437 -62.3383
   -62.3268 -62.3032 -35.5031 -35.4905 -35.4902 -35.4901 -35.4840 -35.4731
   -35.4686 -35.4661 -35.4543 -35.4540 -35.4428 -35.4361 -35.4158 -35.4140
   -35.4110 -35.4029 -35.3854 -35.3808 -35.3762 -35.3659 -35.3562 -35.3399
   -35.3373 -35.3354 -35.3287 -35.3222 -35.3188 -31.2482 -31.2333 -31.2315
   -31.2276 -31.2238 -31.2159 -31.2107 -31.2058 -31.1967 -31.1926 -31.1924
   -31.1896 -31.1872 -31.1847 -31.1819 -31.1789 -31.1731 -31.1720 -31.1638
   -31.1574 -31.1545 -31.1476 -31.1464 -31.1435 -31.1362 -31.1297 -31.1145
     6.0341   6.0507   7.4081   7.4251   7.4750   7.4816   7.6725   7.6770
     8.1089   8.1136   8.1326   8.1629   8.1957   8.2257   8.2613   8.2742
     8.3950   8.4162   8.4697   8.4828   8.6265   8.6314   8.6388   8.6540
     8.6587   8.6777   8.6842   8.6994   8.7824   8.8028   8.8180   8.8301
     8.8507   8.8588   8.8790   8.8867   8.8937   8.9049   8.9129   8.9205
     8.9317   8.9338   8.9451   8.9539   9.0463   9.0503   9.1535   9.1644
     9.1875   9.2067   9.2173   9.2214   9.2308   9.2437   9.3138   9.3186
     9.3510   9.3681   9.4041   9.4141   9.4737   9.4772   9.4867   9.4987
     9.5347   9.5520   9.5589   9.5675   9.5859   9.6006   9.6014   9.6210
     9.6279   9.6286   9.6314   9.6340   9.6361   9.6362   9.6402   9.6451
     9.6511   9.6633   9.6739   9.6862   9.6964   9.7119   9.7152   9.7326
     9.7333   9.7499   9.7584   9.7689   9.8938   9.9001   9.9323   9.9556
    10.0165  10.0320  10.1619  10.1871  10.2074  10.2119  10.2476  10.2521
    10.2639  10.2708  10.2737  10.2764  10.2825  10.2868  10.3452  10.3478
    10.3781  10.3809  10.3820  10.3908  10.4311  10.4367  10.4611  10.4786
    10.5094  10.5130  10.5132  10.5307  10.5505  10.5585  10.5752  10.5901
    10.6402  10.6571  10.6762  10.7081  10.7128  10.7166  10.7425  10.7466
    10.8038  10.8250  10.8346  10.8476  10.8612  10.8725  10.9111  10.9275
    10.9604  10.9897  11.0131  11.0268  11.0529  11.0721  11.1753  11.1796
    11.3038  11.3133  11.3466  11.3475  11.3639  11.3703  11.3928  11.4060
    11.4180  11.4331  11.4736  11.4887  11.4968  11.5086  11.5548  11.5708
    11.5927  11.6038  11.6088  11.6357  11.6580  11.6681  11.6813  11.7423
    11.7626  11.7881  11.7981  11.8139  11.8372  11.8455  11.8550  11.8576
    11.8704  11.8740  11.8873  11.9024  11.9261  11.9434  11.9462  11.9607
    11.9770  11.9872  11.9896  12.0119  12.0431  12.1133  12.1382  12.1613
    12.1752  12.1925  12.2098  12.2219  12.2318  12.2423  12.2531  12.2794
    12.2836  12.2881  12.3112  12.3795  12.3868  12.3991  12.4094  12.4417
    12.4542  12.4707  12.5021  12.5113  12.5369  12.5379  12.5482  12.5571
    12.5817  12.5889  12.5950  12.6169  12.6912  12.7219  12.7244  12.7796
    12.8524  12.9158  12.9465  13.0070  13.0392  13.0702  13.1147  13.1431
    13.1797  13.2065  13.2067  13.2485  13.2506  13.2884  13.3344  13.3680
    13.4573  13.5071  13.5598  13.6173  13.6292  14.4090  14.4191  14.5373
    14.5893  14.7570  14.7812  14.7855  14.8120  14.8452  14.9466  14.9800
    15.1310  15.1316  15.1833  15.3424  15.3704  15.3893  15.5013  15.6478
    15.6596  15.7068  15.7542  15.7583  15.8594  15.9341  15.9659  15.9943
    16.0170  16.0214  16.0799  16.1064  16.1151  16.1310  16.1327  16.1831
    16.1981  16.2118  16.2246  16.2522  16.2683  16.2814  16.3290  16.4000
    16.4140  16.4954  16.5602  16.6627  16.7249  16.7771  16.9614  17.0608
    17.1893  17.2221  17.2561  17.2835  17.4662  17.5097  17.6066  17.6327
    17.7324  17.7683  17.7916  17.8019  17.8385  17.8813  17.8959  17.9282
    17.9902  18.0775  18.1505  18.2071  19.2679  19.3002  19.3480  19.3907

          k =-0.5000 0.0000 0.5734 ( 31696 PWs)   bands (ev):

   -66.7335 -66.7193 -66.7179 -66.7174 -66.6881 -66.6397 -66.6162 -66.6045
   -66.5825 -62.4044 -62.3888 -62.3863 -62.3715 -62.3547 -62.3437 -62.3383
   -62.3268 -62.3032 -35.5031 -35.4905 -35.4902 -35.4901 -35.4840 -35.4731
   -35.4686 -35.4661 -35.4543 -35.4540 -35.4428 -35.4361 -35.4158 -35.4140
   -35.4110 -35.4029 -35.3854 -35.3808 -35.3762 -35.3659 -35.3562 -35.3399
   -35.3373 -35.3354 -35.3287 -35.3222 -35.3188 -31.2482 -31.2333 -31.2315
   -31.2276 -31.2238 -31.2159 -31.2107 -31.2058 -31.1967 -31.1926 -31.1924
   -31.1896 -31.1872 -31.1847 -31.1819 -31.1789 -31.1731 -31.1720 -31.1638
   -31.1574 -31.1545 -31.1476 -31.1464 -31.1435 -31.1362 -31.1297 -31.1145
     6.5568   6.5708   6.5889   6.6134   7.8458   7.8476   7.8532   7.8868
     7.9010   7.9239   7.9291   7.9311   8.2703   8.2744   8.3005   8.3034
     8.5121   8.5200   8.5341   8.5360   8.6561   8.6563   8.6736   8.6786
     8.6892   8.6915   8.7049   8.7165   8.7203   8.7393   8.7501   8.7505
     8.7653   8.7804   8.7978   8.7985   8.9848   8.9910   9.0036   9.0311
     9.0381   9.0403   9.0462   9.0610   9.2042   9.2100   9.2108   9.2181
     9.2187   9.2265   9.2303   9.2317   9.2449   9.2516   9.2527   9.2588
     9.2663   9.2719   9.2833   9.2951   9.2958   9.3160   9.3969   9.3989
     9.4038   9.4288   9.4438   9.4621   9.4623   9.4674   9.4746   9.4796
     9.4934   9.5026   9.5150   9.5196   9.5291   9.5398   9.5469   9.5600
     9.5652   9.5778   9.7554   9.7572   9.7923   9.7963   9.8022   9.8118
     9.8243   9.8435   9.8479   9.8577   9.8636   9.8653   9.8666   9.8685
     9.9635   9.9730   9.9994  10.0028  10.0174  10.0234  10.0609  10.0625
    10.3686  10.3778  10.3976  10.4013  10.4041  10.4051  10.4336  10.4632
    10.4633  10.4669  10.4736  10.4757  10.4844  10.4881  10.5035  10.5123
    10.5144  10.5272  10.5616  10.5889  10.5901  10.5927  10.6169  10.6204
    10.6287  10.6311  10.6668  10.6686  10.6755  10.6869  10.7229  10.7282
    10.7529  10.7964  10.9075  10.9130  10.9732  10.9739  11.0487  11.0784
    11.1177  11.1213  11.1370  11.1443  11.1532  11.1915  11.2032  11.2088
    11.2125  11.2132  11.3106  11.3180  11.3306  11.3489  11.3601  11.3643
    11.3736  11.3767  11.4057  11.4204  11.4370  11.4827  11.5070  11.5071
    11.5211  11.5292  11.5748  11.5752  11.5849  11.6158  11.6260  11.6308
    11.6410  11.6411  11.7284  11.7309  11.7646  11.7738  11.7989  11.8409
    11.9195  11.9241  11.9350  11.9389  11.9597  11.9641  12.0003  12.0098
    12.0161  12.0324  12.0377  12.0392  12.0633  12.0961  12.0965  12.1196
    12.1430  12.1620  12.1699  12.2291  12.2430  12.2519  12.2697  12.3534
    12.3545  12.4046  12.4167  12.4410  12.4574  12.4616  12.4872  12.4959
    12.5079  12.5328  12.5350  12.5479  12.5571  12.5770  12.5799  12.5957
    12.5965  12.6433  12.6448  12.6490  12.6546  12.6635  12.7103  12.7304
    12.7453  12.8343  12.8490  12.9400  12.9513  12.9821  12.9916  13.0497
    13.0676  13.3384  13.4784  13.5265  13.5855  13.6737  13.7083  13.8053
    13.9157  13.9331  14.0219  14.0900  14.2082  14.3210  14.3661  14.3964
    14.4755  14.5057  14.5372  14.5560  14.5825  14.8005  14.8049  14.9070
    14.9469  15.2262  15.2741  15.3074  15.3461  15.4551  15.5575  15.6085
    15.6380  15.6402  15.7363  15.8308  15.8438  15.8672  15.9194  15.9650
    16.0030  16.0781  16.1142  16.1170  16.1550  16.1824  16.1860  16.2203
    16.2260  16.3055  16.3221  16.3490  16.3514  16.3774  16.3817  16.3925
    16.4964  16.5106  16.5488  16.5827  16.5941  16.6467  16.6909  16.7089
    16.7136  16.8237  16.8475  16.8730  16.8905  16.9630  16.9974  17.0340
    17.0843  17.1287  17.2291  17.2793  18.6127  18.6488  18.7172  18.7427
    18.7736  18.7904  18.8379  18.8457  18.9065  18.9235  18.9355  18.9555

 ------ SPIN DOWN ----------


          k = 0.0000 0.0000 0.0000 ( 31747 PWs)   bands (ev):

   -66.7337 -66.7191 -66.7179 -66.7174 -66.6881 -66.6395 -66.6161 -66.6044
   -66.5825 -62.4043 -62.3888 -62.3864 -62.3715 -62.3548 -62.3437 -62.3382
   -62.3268 -62.3033 -35.5032 -35.4907 -35.4900 -35.4899 -35.4842 -35.4730
   -35.4686 -35.4661 -35.4544 -35.4540 -35.4427 -35.4361 -35.4157 -35.4141
   -35.4108 -35.4029 -35.3853 -35.3805 -35.3761 -35.3659 -35.3560 -35.3398
   -35.3373 -35.3354 -35.3286 -35.3221 -35.3189 -31.2481 -31.2331 -31.2314
   -31.2278 -31.2238 -31.2156 -31.2113 -31.2057 -31.1966 -31.1927 -31.1925
   -31.1895 -31.1871 -31.1847 -31.1819 -31.1790 -31.1731 -31.1720 -31.1637
   -31.1573 -31.1545 -31.1476 -31.1464 -31.1435 -31.1362 -31.1298 -31.1146
     5.6148   7.1355   7.1523   7.2082   7.2177   7.3632   7.8442   7.8867
     7.9114   7.9547   8.0757   8.0944   8.1467   8.1732   8.1914   8.2463
     8.2611   8.2910   8.3068   8.5148   8.5430   8.5634   8.5708   8.5929
     8.6262   8.8523   8.8598   8.8628   8.8788   8.8864   8.8891   8.8973
     8.8980   8.9051   8.9116   8.9207   8.9376   8.9512   8.9663   8.9804
     8.9873   9.0826   9.1198   9.1237   9.1273   9.1339   9.1570   9.1571
     9.1888   9.1976   9.2187   9.2671   9.2876   9.2969   9.3111   9.3392
     9.3449   9.3659   9.3674   9.3693   9.3749   9.4000   9.4039   9.4368
     9.4437   9.4467   9.4534   9.4603   9.4631   9.4647   9.4871   9.5774
     9.5795   9.5871   9.5924   9.5946   9.6229   9.6659   9.6686   9.6706
     9.6722   9.6763   9.6889   9.7430   9.7529   9.7783   9.7944   9.8494
     9.8512   9.9037   9.9126   9.9374   9.9503   9.9512  10.0128  10.0395
    10.0747  10.1179  10.1341  10.1871  10.2829  10.2842  10.2913  10.2982
    10.3040  10.3084  10.3096  10.3130  10.3262  10.3270  10.3380  10.3410
    10.3416  10.3522  10.3527  10.3617  10.3661  10.3708  10.3805  10.3830
    10.4019  10.5120  10.5195  10.5490  10.6048  10.6212  10.6395  10.6445
    10.6920  10.7823  10.7881  10.7945  10.8138  10.8253  10.8312  10.8400
    10.8507  10.8621  10.8638  10.8698  10.8757  10.8790  10.8847  10.8900
    10.9004  10.9178  11.0127  11.0348  11.0741  11.0950  11.1522  11.2098
    11.2198  11.2199  11.2271  11.2328  11.2626  11.3256  11.3285  11.3353
    11.3432  11.3804  11.3865  11.3965  11.4007  11.4093  11.4198  11.4297
    11.4887  11.5039  11.5803  11.5848  11.5940  11.5952  11.5988  11.6116
    11.6619  11.6695  11.7052  11.7241  11.7279  11.7472  11.7533  11.7870
    11.8253  11.8493  11.8580  11.8698  11.8835  11.9156  11.9283  11.9505
    11.9553  12.0266  12.0988  12.0993  12.1048  12.1064  12.1120  12.1359
    12.1415  12.1446  12.1466  12.1491  12.1495  12.1740  12.2056  12.2163
    12.2462  12.2756  12.2868  12.3512  12.3540  12.3599  12.3818  12.4052
    12.4308  12.4346  12.4533  12.4544  12.4992  12.5004  12.5086  12.5227
    12.5504  12.5507  12.5671  12.5845  12.5960  12.6014  12.6373  12.6592
    12.7275  12.7354  12.7736  12.7810  12.8517  12.8875  13.0011  13.0284
    13.1039  13.1367  13.1541  13.1984  13.5489  13.5582  13.7896  13.8514
    13.8584  14.1533  14.1564  14.1858  14.2244  14.3948  14.4139  14.6289
    14.6915  14.7846  14.9236  14.9931  15.0176  15.0874  15.1133  15.2354
    15.2897  15.3017  15.3282  15.4225  15.4308  15.4605  15.4751  15.5393
    15.5996  15.7105  15.7347  15.8027  15.8217  15.8847  15.9110  16.0108
    16.0307  16.0898  16.0980  16.1237  16.1533  16.1636  16.1804  16.1991
    16.2006  16.2249  16.2727  16.2957  16.3359  16.3490  16.4027  16.4205
    16.4398  16.4844  16.5314  16.6294  16.6590  16.6912  16.7583  16.8706
    16.9689  17.0310  17.1352  17.1693  17.2174  17.2476  17.2603  17.3212
    17.4647  17.5269  17.8344  17.8910  17.9302  17.9387  17.9739  18.0909
    18.2608  18.3325  18.4895  18.8839  18.9844  19.0322  19.1670  19.2350

          k = 0.0000 0.0000-0.5734 ( 31692 PWs)   bands (ev):

   -66.7337 -66.7191 -66.7179 -66.7174 -66.6881 -66.6395 -66.6161 -66.6044
   -66.5825 -62.4043 -62.3888 -62.3864 -62.3715 -62.3548 -62.3437 -62.3382
   -62.3268 -62.3033 -35.5032 -35.4906 -35.4900 -35.4899 -35.4842 -35.4730
   -35.4686 -35.4661 -35.4544 -35.4540 -35.4427 -35.4361 -35.4157 -35.4141
   -35.4108 -35.4029 -35.3853 -35.3805 -35.3761 -35.3659 -35.3560 -35.3398
   -35.3373 -35.3354 -35.3286 -35.3221 -35.3189 -31.2481 -31.2331 -31.2314
   -31.2278 -31.2238 -31.2156 -31.2113 -31.2057 -31.1966 -31.1927 -31.1925
   -31.1895 -31.1871 -31.1847 -31.1819 -31.1790 -31.1731 -31.1720 -31.1637
   -31.1573 -31.1545 -31.1476 -31.1464 -31.1435 -31.1362 -31.1298 -31.1146
     6.1739   6.1941   7.5362   7.5381   7.5510   7.5748   7.5947   7.6178
     7.6179   7.6265   8.3118   8.3133   8.3301   8.3363   8.3511   8.3781
     8.3788   8.3949   8.4563   8.4585   8.4744   8.4808   8.4940   8.4962
     8.5170   8.5215   8.6978   8.7047   8.7619   8.7801   8.9507   8.9563
     8.9638   8.9752   8.9796   8.9851   8.9868   9.0067   9.0105   9.0226
     9.0273   9.0306   9.0387   9.0682   9.0756   9.0808   9.2040   9.2133
     9.2184   9.2338   9.2450   9.2641   9.2647   9.2753   9.2757   9.2803
     9.2857   9.2881   9.2908   9.2933   9.3019   9.3044   9.4077   9.4118
     9.4343   9.4370   9.4413   9.4437   9.4478   9.4610   9.4648   9.4781
     9.4847   9.4876   9.4971   9.5167   9.5186   9.5338   9.6422   9.6723
     9.7795   9.7796   9.7960   9.8015   9.8135   9.8280   9.8302   9.8379
     9.8734   9.8762   9.8785   9.8811   9.8864   9.8889   9.8924   9.8945
    10.0584  10.0606  10.0612  10.0624  10.1453  10.1543  10.1572  10.1639
    10.1640  10.1791  10.1810  10.1941  10.1956  10.2122  10.3578  10.3649
    10.3686  10.3837  10.3990  10.4028  10.4136  10.4195  10.4807  10.5053
    10.5806  10.5845  10.6069  10.6123  10.6304  10.6342  10.6519  10.6645
    10.6690  10.7124  10.7157  10.7403  10.7726  10.7810  10.7959  10.8308
    10.9359  10.9438  10.9680  11.0078  11.0190  11.0362  11.0376  11.0664
    11.0756  11.0930  11.1230  11.1448  11.1547  11.1635  11.2137  11.2198
    11.2385  11.2451  11.2487  11.2516  11.2594  11.2664  11.2718  11.2753
    11.2780  11.2803  11.2872  11.2889  11.2897  11.2930  11.2941  11.3020
    11.3098  11.3161  11.3197  11.3204  11.5335  11.5676  11.7087  11.7155
    11.7155  11.7170  11.7174  11.7207  11.7235  11.7334  11.7468  11.7520
    11.7654  11.7661  11.7827  11.7832  11.7938  11.8283  11.9180  11.9205
    11.9361  11.9726  11.9830  12.0155  12.0216  12.0347  12.0500  12.1283
    12.1314  12.1629  12.1642  12.2014  12.2184  12.2999  12.3481  12.4288
    12.4306  12.4456  12.4535  12.4692  12.4705  12.4866  12.4909  12.4940
    12.5034  12.5240  12.5332  12.5505  12.5771  12.5923  12.5934  12.6299
    12.6487  12.6752  12.6839  12.7398  12.7493  12.7778  12.7900  12.8808
    12.8977  12.9719  13.0090  13.1233  13.1414  13.1712  13.1986  13.2516
    13.2722  13.2742  13.2794  13.3710  13.4975  13.5705  13.5751  13.7560
    13.8535  13.9522  14.0496  14.0530  14.1307  14.2642  14.2815  14.4331
    14.5900  14.8492  14.8938  14.9843  14.9870  15.0389  15.0477  15.0922
    15.1110  15.1842  15.2384  15.3229  15.3421  15.3569  15.4570  15.5496
    15.5594  15.6731  15.6853  15.7650  15.8537  15.8948  15.9462  16.0020
    16.0714  16.0836  16.0968  16.1498  16.1653  16.1818  16.2003  16.2009
    16.2087  16.2365  16.2453  16.2484  16.2741  16.2871  16.3028  16.3040
    16.3415  16.4362  16.5499  16.5623  16.6003  16.6648  16.6777  16.7954
    16.8115  16.8765  17.3386  17.3644  17.4148  17.4310  17.4873  17.4979
    17.5694  17.5897  17.6895  17.7181  17.7460  17.7504  17.8437  17.8832
    17.8874  17.9043  18.1243  18.1931  18.2094  18.2400  18.2943  18.3549

          k = 0.0000-0.5000 0.0000 ( 31722 PWs)   bands (ev):

   -66.7337 -66.7191 -66.7179 -66.7174 -66.6881 -66.6395 -66.6161 -66.6044
   -66.5825 -62.4043 -62.3888 -62.3864 -62.3715 -62.3548 -62.3437 -62.3382
   -62.3268 -62.3033 -35.5032 -35.4907 -35.4900 -35.4899 -35.4842 -35.4730
   -35.4686 -35.4661 -35.4544 -35.4540 -35.4427 -35.4361 -35.4157 -35.4141
   -35.4108 -35.4029 -35.3853 -35.3805 -35.3761 -35.3659 -35.3560 -35.3398
   -35.3373 -35.3354 -35.3286 -35.3221 -35.3189 -31.2481 -31.2331 -31.2314
   -31.2278 -31.2238 -31.2156 -31.2113 -31.2057 -31.1966 -31.1927 -31.1925
   -31.1895 -31.1871 -31.1847 -31.1819 -31.1790 -31.1731 -31.1720 -31.1637
   -31.1573 -31.1545 -31.1476 -31.1464 -31.1435 -31.1362 -31.1298 -31.1146
     6.0255   6.0592   7.4166   7.4352   7.4533   7.4857   7.6700   7.6790
     8.1004   8.1113   8.1282   8.1696   8.2212   8.2356   8.2399   8.2655
     8.4070   8.4293   8.4438   8.4787   8.6322   8.6341   8.6473   8.6524
     8.6590   8.6638   8.6918   8.6960   8.7640   8.8109   8.8255   8.8281
     8.8550   8.8617   8.8763   8.8878   8.9021   8.9078   8.9166   8.9167
     8.9267   8.9292   8.9385   8.9541   9.0433   9.0528   9.1573   9.1720
     9.1849   9.1946   9.2204   9.2253   9.2347   9.2427   9.3125   9.3371
     9.3438   9.3763   9.3831   9.4152   9.4741   9.4807   9.4955   9.5125
     9.5262   9.5338   9.5633   9.5745   9.5826   9.6055   9.6065   9.6140
     9.6219   9.6281   9.6283   9.6294   9.6338   9.6350   9.6399   9.6471
     9.6582   9.6682   9.6770   9.6799   9.6949   9.7159   9.7169   9.7249
     9.7401   9.7506   9.7532   9.7722   9.8916   9.9036   9.9373   9.9621
    10.0094  10.0423  10.1482  10.1920  10.2081  10.2197  10.2446  10.2518
    10.2619  10.2651  10.2692  10.2723  10.2817  10.2904  10.3397  10.3529
    10.3715  10.3789  10.3819  10.3832  10.4317  10.4321  10.4521  10.4743
    10.5250  10.5290  10.5324  10.5479  10.5575  10.5671  10.5710  10.5956
    10.6072  10.6288  10.6764  10.6836  10.7005  10.7328  10.7420  10.7597
    10.8024  10.8182  10.8267  10.8523  10.8633  10.8752  10.9090  10.9344
    10.9878  11.0084  11.0137  11.0295  11.0328  11.0702  11.1716  11.1785
    11.3092  11.3466  11.3479  11.3641  11.3698  11.3852  11.3944  11.4060
    11.4174  11.4186  11.4256  11.4673  11.5077  11.5293  11.5461  11.5514
    11.5581  11.6054  11.6170  11.6434  11.6458  11.6677  11.6854  11.7494
    11.7589  11.7678  11.7805  11.8022  11.8137  11.8316  11.8507  11.8871
    11.9015  11.9027  11.9035  11.9103  11.9338  11.9387  11.9448  11.9658
    11.9695  11.9756  11.9804  11.9874  12.0856  12.1148  12.1165  12.1796
    12.1809  12.1876  12.2049  12.2114  12.2337  12.2364  12.2473  12.2789
    12.3016  12.3114  12.3196  12.3584  12.3720  12.3953  12.4022  12.4265
    12.4542  12.4619  12.4860  12.5006  12.5244  12.5249  12.5525  12.5646
    12.5709  12.5854  12.6086  12.6267  12.6643  12.7186  12.7271  12.8394
    12.8801  12.9753  13.0226  13.0277  13.0684  13.0827  13.1198  13.1207
    13.1412  13.1959  13.2204  13.2441  13.2507  13.2733  13.3063  13.3163
    13.4326  13.4993  13.5202  13.6207  13.6462  14.4424  14.5516  14.5605
    14.6285  14.6847  14.6859  14.8143  14.8171  14.8284  14.8401  14.9937
    15.0906  15.0960  15.2507  15.2707  15.4171  15.4344  15.5272  15.5309
    15.6871  15.6910  15.7862  15.8083  15.8336  15.8481  15.9638  15.9987
    16.0544  16.0631  16.1049  16.1249  16.1254  16.1549  16.1672  16.1822
    16.2246  16.2304  16.2460  16.2635  16.2687  16.3317  16.3488  16.3997
    16.4399  16.4465  16.5344  16.5915  16.6738  16.7960  16.9962  17.0939
    17.1255  17.2047  17.2480  17.2955  17.3834  17.4698  17.6254  17.6366
    17.7087  17.7771  17.8155  17.8321  17.8467  17.8622  17.8901  17.9548
    17.9625  18.0744  18.1528  18.2416  19.2444  19.2983  19.3256  19.3704

          k = 0.0000-0.5000-0.5734 ( 31696 PWs)   bands (ev):

   -66.7337 -66.7191 -66.7179 -66.7174 -66.6881 -66.6395 -66.6161 -66.6044
   -66.5825 -62.4043 -62.3888 -62.3864 -62.3715 -62.3548 -62.3437 -62.3382
   -62.3268 -62.3033 -35.5032 -35.4906 -35.4900 -35.4899 -35.4842 -35.4730
   -35.4686 -35.4661 -35.4544 -35.4540 -35.4427 -35.4361 -35.4157 -35.4141
   -35.4108 -35.4029 -35.3853 -35.3805 -35.3761 -35.3659 -35.3560 -35.3398
   -35.3373 -35.3354 -35.3286 -35.3221 -35.3189 -31.2481 -31.2331 -31.2314
   -31.2278 -31.2238 -31.2156 -31.2113 -31.2057 -31.1966 -31.1927 -31.1925
   -31.1895 -31.1871 -31.1847 -31.1819 -31.1790 -31.1731 -31.1720 -31.1637
   -31.1573 -31.1545 -31.1476 -31.1464 -31.1435 -31.1362 -31.1298 -31.1146
     6.5344   6.5577   6.6133   6.6277   7.8441   7.8492   7.8499   7.8808
     7.8980   7.9245   7.9300   7.9332   8.2695   8.2754   8.3025   8.3027
     8.5196   8.5208   8.5285   8.5325   8.6576   8.6587   8.6799   8.6839
     8.6891   8.6984   8.6987   8.7246   8.7313   8.7326   8.7494   8.7542
     8.7649   8.7712   8.7832   8.7964   8.9576   8.9870   9.0321   9.0375
     9.0376   9.0464   9.0468   9.0511   9.1906   9.2144   9.2161   9.2196
     9.2210   9.2260   9.2264   9.2335   9.2402   9.2503   9.2552   9.2563
     9.2590   9.2628   9.2776   9.2820   9.3138   9.3216   9.3971   9.3990
     9.4051   9.4316   9.4424   9.4582   9.4650   9.4658   9.4736   9.4748
     9.4946   9.5093   9.5155   9.5262   9.5286   9.5449   9.5502   9.5678
     9.5736   9.5916   9.7540   9.7557   9.7961   9.8007   9.8038   9.8223
     9.8237   9.8395   9.8419   9.8521   9.8591   9.8620   9.8642   9.8704
     9.9483   9.9591  10.0105  10.0169  10.0253  10.0267  10.0514  10.0611
    10.3698  10.3712  10.3872  10.3922  10.3995  10.4113  10.4249  10.4341
    10.4495  10.4610  10.4695  10.4797  10.4841  10.4933  10.4960  10.5133
    10.5441  10.5479  10.5730  10.5754  10.5832  10.6000  10.6049  10.6230
    10.6397  10.6408  10.6731  10.6750  10.6824  10.6895  10.7221  10.7231
    10.7542  10.7995  10.9042  10.9052  10.9807  10.9949  11.0156  11.0439
    11.1194  11.1249  11.1363  11.1603  11.1848  11.1875  11.2026  11.2041
    11.2124  11.2129  11.3040  11.3054  11.3392  11.3434  11.3578  11.3782
    11.3822  11.3846  11.4214  11.4280  11.4390  11.4482  11.4925  11.5136
    11.5511  11.5599  11.5705  11.5734  11.5829  11.5836  11.6150  11.6189
    11.6385  11.6444  11.7334  11.7412  11.7568  11.7595  11.8500  11.8543
    11.8835  11.9216  11.9357  11.9371  11.9551  11.9722  11.9877  12.0117
    12.0155  12.0263  12.0318  12.0348  12.0412  12.0510  12.0671  12.0913
    12.1516  12.1926  12.2238  12.2483  12.2702  12.2913  12.3104  12.3254
    12.3359  12.3828  12.4008  12.4368  12.4491  12.4632  12.4644  12.4852
    12.4935  12.5156  12.5175  12.5247  12.5430  12.5577  12.5780  12.5914
    12.5921  12.6070  12.6085  12.6427  12.6512  12.6545  12.6660  12.7872
    12.8373  12.8482  12.8777  12.9223  12.9964  13.0501  13.0598  13.0661
    13.2371  13.2808  13.3829  13.5009  13.5723  13.7081  13.7173  13.7677
    13.9194  14.0107  14.0142  14.0293  14.1224  14.2733  14.2800  14.3312
    14.4971  14.5485  14.5544  14.5598  14.5831  14.7648  14.8255  15.0301
    15.0344  15.2293  15.2570  15.3082  15.3954  15.4214  15.5462  15.5529
    15.5971  15.6347  15.6872  15.7938  15.8574  15.8756  15.9247  15.9838
    15.9931  16.0990  16.1197  16.1546  16.1617  16.1817  16.2049  16.2578
    16.2725  16.3190  16.3425  16.3752  16.3840  16.4025  16.4238  16.4361
    16.4669  16.5049  16.5416  16.5637  16.6092  16.6134  16.6599  16.6613
    16.7496  16.8071  16.8175  16.8409  16.8641  16.8970  16.9530  17.0424
    17.0876  17.1245  17.2377  17.2641  18.6613  18.6846  18.7288  18.7629
    18.7810  18.7894  18.8217  18.8222  18.8743  18.9112  18.9388  18.9771

          k =-0.5000-0.5000 0.0000 ( 31612 PWs)   bands (ev):

   -66.7337 -66.7191 -66.7179 -66.7174 -66.6881 -66.6395 -66.6161 -66.6044
   -66.5825 -62.4043 -62.3888 -62.3864 -62.3715 -62.3548 -62.3437 -62.3382
   -62.3268 -62.3033 -35.5032 -35.4906 -35.4900 -35.4899 -35.4842 -35.4730
   -35.4686 -35.4661 -35.4544 -35.4540 -35.4428 -35.4360 -35.4157 -35.4141
   -35.4108 -35.4029 -35.3853 -35.3805 -35.3762 -35.3659 -35.3560 -35.3398
   -35.3373 -35.3354 -35.3286 -35.3221 -35.3189 -31.2481 -31.2331 -31.2315
   -31.2277 -31.2238 -31.2159 -31.2107 -31.2057 -31.1966 -31.1927 -31.1925
   -31.1895 -31.1871 -31.1847 -31.1819 -31.1790 -31.1731 -31.1720 -31.1638
   -31.1573 -31.1545 -31.1476 -31.1464 -31.1435 -31.1362 -31.1298 -31.1146
     6.3956   6.4343   6.4428   6.4890   8.0080   8.0135   8.0171   8.0237
     8.0958   8.1127   8.2777   8.3141   8.3206   8.3269   8.3311   8.3378
     8.3459   8.3541   8.3591   8.3709   8.3742   8.4173   8.6035   8.6140
     8.6213   8.6547   8.6855   8.7024   8.7127   8.7171   8.7200   8.7460
     8.7580   8.8090   8.9276   8.9421   8.9480   8.9626   8.9742   8.9755
     8.9781   8.9973   9.0016   9.0109   9.0144   9.0216   9.0354   9.0400
     9.1174   9.1259   9.3061   9.3119   9.3146   9.3217   9.3962   9.4089
     9.4152   9.4253   9.4283   9.4299   9.4310   9.4347   9.4464   9.4522
     9.4610   9.4633   9.4703   9.4742   9.4833   9.4878   9.4985   9.5041
     9.5109   9.5334   9.5384   9.5389   9.5519   9.5552   9.5844   9.5931
     9.6057   9.6126   9.6963   9.6988   9.7522   9.7991   9.8099   9.8183
     9.8325   9.8339   9.8428   9.8469   9.8561   9.8754  10.0090  10.0693
    10.0807  10.0907  10.1150  10.1310  10.1417  10.1545  10.1571  10.1673
    10.1765  10.1841  10.2060  10.2183  10.2210  10.2223  10.2257  10.2296
    10.2315  10.2356  10.2376  10.2604  10.4345  10.4744  10.4752  10.4927
    10.4976  10.5056  10.5116  10.5566  10.5681  10.6160  10.6383  10.6486
    10.6519  10.6615  10.6698  10.6776  10.6977  10.7083  10.7099  10.7145
    10.7178  10.7860  10.8052  10.8120  10.8244  10.8571  10.8631  10.8642
    10.9169  10.9425  11.1969  11.2073  11.2132  11.2265  11.3094  11.3302
    11.3327  11.3446  11.3498  11.3669  11.3725  11.3898  11.5302  11.5671
    11.5992  11.6354  11.6416  11.6435  11.6450  11.6477  11.6481  11.6525
    11.6802  11.6823  11.7075  11.7258  11.7301  11.7455  11.7627  11.7748
    11.8647  11.8751  11.8788  11.8803  11.8848  11.8881  11.9791  11.9806
    11.9920  12.0198  12.0515  12.0664  12.0686  12.0999  12.1062  12.1079
    12.1107  12.1142  12.1194  12.1340  12.1459  12.1531  12.1552  12.1552
    12.1602  12.1624  12.1770  12.1901  12.2216  12.2278  12.2400  12.2543
    12.2595  12.2763  12.2807  12.2848  12.2925  12.3009  12.3012  12.3619
    12.4376  12.4425  12.4638  12.4692  12.4881  12.5191  12.5216  12.5356
    12.5444  12.5563  12.5588  12.5932  12.6085  12.6233  12.6358  12.6853
    12.6993  12.7902  12.8041  12.8426  12.8522  12.9071  12.9301  12.9496
    12.9653  12.9801  13.0043  13.0218  13.1286  13.6208  13.6258  13.6630
    13.6739  13.6752  13.7750  13.7905  13.8819  13.9774  14.0336  14.2732
    14.2762  14.3285  14.4377  14.4528  14.4905  14.7203  14.7389  14.8238
    15.0781  15.0921  15.1632  15.2051  15.3541  15.3941  15.7221  15.7225
    15.7342  15.8126  15.8406  15.8406  15.8879  15.9195  15.9300  15.9766
    15.9861  16.0401  16.0476  16.0804  16.1040  16.1282  16.1543  16.1677
    16.1929  16.2593  16.2799  16.3078  16.3312  16.3600  16.3921  16.4280
    16.4518  16.4520  16.5346  16.5958  16.6841  16.7340  16.7545  16.7782
    16.7860  16.8669  16.8862  16.9577  17.3859  17.3886  17.7488  17.9084
    18.1314  18.1865  18.1946  18.2058  18.2546  18.4345  18.4944  18.5585
    18.5974  18.6363  18.6468  18.6714  18.7101  18.7964  18.8063  18.8102

          k =-0.5000-0.5000-0.5734 ( 31672 PWs)   bands (ev):

   -66.7337 -66.7191 -66.7179 -66.7174 -66.6881 -66.6395 -66.6161 -66.6044
   -66.5825 -62.4043 -62.3888 -62.3864 -62.3715 -62.3548 -62.3437 -62.3382
   -62.3268 -62.3033 -35.5032 -35.4907 -35.4900 -35.4899 -35.4842 -35.4730
   -35.4686 -35.4661 -35.4544 -35.4540 -35.4428 -35.4360 -35.4157 -35.4141
   -35.4108 -35.4029 -35.3853 -35.3805 -35.3762 -35.3659 -35.3560 -35.3398
   -35.3373 -35.3354 -35.3286 -35.3221 -35.3189 -31.2481 -31.2331 -31.2315
   -31.2277 -31.2238 -31.2159 -31.2107 -31.2057 -31.1966 -31.1927 -31.1925
   -31.1895 -31.1871 -31.1847 -31.1819 -31.1790 -31.1731 -31.1720 -31.1638
   -31.1573 -31.1545 -31.1476 -31.1464 -31.1435 -31.1362 -31.1298 -31.1146
     6.9031   6.9082   6.9211   6.9538   6.9814   7.0195   7.0296   7.0303
     8.4541   8.4613   8.4736   8.4737   8.4818   8.4890   8.4893   8.4934
     8.4985   8.5002   8.5177   8.5308   8.5356   8.5439   8.5539   8.5633
     8.5744   8.5797   8.5895   8.6018   8.8748   8.8805   8.8882   8.8909
     8.9141   8.9234   8.9315   8.9357   9.0995   9.1029   9.1080   9.1262
     9.1332   9.1386   9.1444   9.1448   9.1503   9.1526   9.1594   9.1615
     9.1646   9.1660   9.1694   9.1706   9.1730   9.1730   9.1754   9.1754
     9.1793   9.1799   9.1837   9.1982   9.2027   9.2096   9.2121   9.2232
     9.2271   9.2389   9.2439   9.2507   9.2574   9.2595   9.2747   9.2812
     9.5392   9.5458   9.5545   9.5655   9.5896   9.6119   9.6153   9.6213
     9.6587   9.6692   9.6714   9.7021   9.7150   9.7386   9.7527   9.7599
     9.8281   9.8324   9.8339   9.8504   9.8715   9.8827   9.8879   9.8908
    10.1197  10.1330  10.1369  10.1517  10.1635  10.1729  10.1739  10.1882
    10.2939  10.3041  10.4462  10.4551  10.4614  10.4650  10.4754  10.4795
    10.4818  10.4951  10.4974  10.5018  10.5054  10.5078  10.5131  10.5154
    10.5233  10.5282  10.5318  10.5332  10.5554  10.5607  10.5884  10.5987
    10.6070  10.6139  10.6288  10.6489  10.6508  10.6575  10.6689  10.6703
    10.6880  10.6908  10.7002  10.7096  10.7333  10.7411  11.0462  11.0471
    11.0567  11.0687  11.1005  11.1116  11.1266  11.1316  11.3800  11.3821
    11.3831  11.3943  11.4169  11.4370  11.4432  11.4486  11.4616  11.4747
    11.4749  11.4890  11.5029  11.5136  11.5201  11.5314  11.6030  11.6279
    11.6403  11.6441  11.6481  11.6554  11.6841  11.6904  11.7098  11.7149
    11.7249  11.7293  11.7412  11.7527  11.7746  11.7761  11.7858  11.7929
    11.8084  11.8176  11.8209  11.8357  11.8387  11.8961  12.0111  12.0267
    12.0371  12.0517  12.0601  12.0656  12.1185  12.1210  12.1383  12.1662
    12.1732  12.1821  12.2004  12.2165  12.2484  12.2642  12.3163  12.3313
    12.3524  12.3926  12.4156  12.4214  12.4257  12.4412  12.4604  12.4785
    12.4833  12.4915  12.5164  12.5203  12.5267  12.5530  12.5700  12.5715
    12.6182  12.6328  12.6663  12.6824  12.7019  12.7038  12.7517  12.8077
    12.8631  12.8875  13.0001  13.0994  13.0996  13.1412  13.1725  13.2150
    13.2704  13.2773  13.3159  13.3297  13.3861  13.4551  13.5208  13.5293
    13.5672  13.6245  13.7791  13.7815  13.8954  14.0180  14.0334  14.1797
    14.1941  14.3197  14.5115  14.6286  14.7510  14.7548  14.7947  14.9101
    14.9433  15.1518  15.1941  15.3191  15.4033  15.5792  15.6230  15.6990
    15.7160  15.8125  15.8310  15.8537  15.8577  15.8984  15.9109  15.9647
    16.0500  16.0632  16.1333  16.1454  16.1662  16.2086  16.2090  16.2547
    16.2682  16.2718  16.2967  16.3386  16.3551  16.3691  16.4496  16.5097
    16.5295  16.5617  16.5741  16.6010  16.6320  16.6502  16.6757  16.6953
    16.7274  16.7938  16.7981  16.8654  16.9311  16.9421  16.9592  16.9876
    17.0428  17.1119  17.7105  17.8010  17.8364  17.8590  19.0086  19.0478
    19.0556  19.0591  19.0999  19.1402  19.1917  19.2148  19.2191  19.3149

          k =-0.5000 0.0000 0.0000 ( 31722 PWs)   bands (ev):

   -66.7337 -66.7191 -66.7179 -66.7174 -66.6881 -66.6395 -66.6161 -66.6044
   -66.5825 -62.4043 -62.3888 -62.3864 -62.3715 -62.3548 -62.3437 -62.3382
   -62.3268 -62.3033 -35.5032 -35.4907 -35.4900 -35.4899 -35.4842 -35.4730
   -35.4686 -35.4661 -35.4544 -35.4540 -35.4428 -35.4360 -35.4157 -35.4141
   -35.4108 -35.4029 -35.3853 -35.3805 -35.3762 -35.3659 -35.3560 -35.3398
   -35.3373 -35.3354 -35.3286 -35.3221 -35.3189 -31.2481 -31.2331 -31.2315
   -31.2277 -31.2238 -31.2159 -31.2107 -31.2057 -31.1966 -31.1927 -31.1925
   -31.1895 -31.1872 -31.1847 -31.1819 -31.1790 -31.1731 -31.1720 -31.1638
   -31.1573 -31.1545 -31.1476 -31.1464 -31.1435 -31.1362 -31.1298 -31.1146
     6.0341   6.0507   7.4081   7.4251   7.4750   7.4816   7.6725   7.6770
     8.1089   8.1136   8.1327   8.1629   8.1957   8.2257   8.2613   8.2742
     8.3950   8.4162   8.4697   8.4828   8.6265   8.6314   8.6388   8.6540
     8.6587   8.6777   8.6842   8.6994   8.7825   8.8028   8.8180   8.8300
     8.8507   8.8588   8.8790   8.8867   8.8937   8.9049   8.9129   8.9205
     8.9317   8.9338   8.9451   8.9539   9.0463   9.0503   9.1535   9.1644
     9.1875   9.2067   9.2173   9.2214   9.2308   9.2437   9.3138   9.3186
     9.3510   9.3681   9.4041   9.4141   9.4737   9.4772   9.4867   9.4987
     9.5347   9.5520   9.5589   9.5675   9.5859   9.6006   9.6014   9.6210
     9.6279   9.6286   9.6314   9.6340   9.6361   9.6362   9.6402   9.6451
     9.6510   9.6634   9.6738   9.6862   9.6964   9.7119   9.7152   9.7326
     9.7333   9.7499   9.7584   9.7689   9.8938   9.9001   9.9323   9.9556
    10.0165  10.0320  10.1619  10.1870  10.2074  10.2119  10.2476  10.2521
    10.2639  10.2708  10.2737  10.2764  10.2825  10.2868  10.3452  10.3478
    10.3781  10.3809  10.3820  10.3908  10.4311  10.4367  10.4611  10.4786
    10.5094  10.5131  10.5132  10.5307  10.5505  10.5585  10.5752  10.5901
    10.6402  10.6571  10.6762  10.7081  10.7128  10.7166  10.7425  10.7466
    10.8038  10.8250  10.8346  10.8476  10.8612  10.8725  10.9111  10.9275
    10.9604  10.9897  11.0131  11.0268  11.0529  11.0721  11.1753  11.1796
    11.3039  11.3133  11.3466  11.3475  11.3639  11.3704  11.3927  11.4060
    11.4180  11.4331  11.4736  11.4887  11.4968  11.5086  11.5548  11.5708
    11.5927  11.6038  11.6088  11.6357  11.6580  11.6681  11.6813  11.7423
    11.7626  11.7881  11.7981  11.8139  11.8372  11.8455  11.8551  11.8576
    11.8704  11.8740  11.8873  11.9025  11.9261  11.9434  11.9462  11.9607
    11.9770  11.9872  11.9896  12.0119  12.0431  12.1133  12.1382  12.1613
    12.1752  12.1924  12.2098  12.2219  12.2318  12.2423  12.2531  12.2794
    12.2836  12.2881  12.3112  12.3795  12.3869  12.3991  12.4094  12.4417
    12.4542  12.4707  12.5021  12.5114  12.5370  12.5379  12.5483  12.5572
    12.5817  12.5888  12.5950  12.6170  12.6912  12.7219  12.7245  12.7797
    12.8525  12.9159  12.9465  13.0070  13.0392  13.0702  13.1147  13.1432
    13.1797  13.2065  13.2067  13.2485  13.2506  13.2884  13.3344  13.3680
    13.4573  13.5071  13.5599  13.6174  13.6292  14.4090  14.4191  14.5373
    14.5893  14.7570  14.7811  14.7855  14.8120  14.8452  14.9466  14.9801
    15.1310  15.1317  15.1833  15.3424  15.3704  15.3893  15.5013  15.6478
    15.6596  15.7068  15.7542  15.7583  15.8594  15.9341  15.9659  15.9943
    16.0170  16.0213  16.0799  16.1064  16.1151  16.1310  16.1327  16.1831
    16.1981  16.2118  16.2246  16.2522  16.2684  16.2814  16.3290  16.4000
    16.4139  16.4954  16.5602  16.6627  16.7249  16.7771  16.9614  17.0607
    17.1893  17.2222  17.2561  17.2835  17.4662  17.5097  17.6066  17.6327
    17.7324  17.7684  17.7917  17.8019  17.8385  17.8813  17.8959  17.9282
    17.9902  18.0775  18.1505  18.2071  19.2677  19.3005  19.3480  19.3906

          k =-0.5000 0.0000 0.5734 ( 31696 PWs)   bands (ev):

   -66.7337 -66.7191 -66.7179 -66.7174 -66.6881 -66.6395 -66.6161 -66.6044
   -66.5825 -62.4043 -62.3888 -62.3864 -62.3715 -62.3548 -62.3437 -62.3382
   -62.3268 -62.3033 -35.5032 -35.4906 -35.4900 -35.4899 -35.4842 -35.4730
   -35.4686 -35.4661 -35.4544 -35.4540 -35.4428 -35.4360 -35.4157 -35.4141
   -35.4108 -35.4029 -35.3853 -35.3805 -35.3762 -35.3659 -35.3560 -35.3398
   -35.3373 -35.3354 -35.3286 -35.3221 -35.3189 -31.2481 -31.2331 -31.2315
   -31.2277 -31.2238 -31.2159 -31.2107 -31.2057 -31.1966 -31.1927 -31.1925
   -31.1895 -31.1872 -31.1847 -31.1819 -31.1790 -31.1731 -31.1720 -31.1638
   -31.1573 -31.1545 -31.1476 -31.1464 -31.1435 -31.1362 -31.1298 -31.1146
     6.5568   6.5708   6.5889   6.6133   7.8458   7.8476   7.8532   7.8868
     7.9010   7.9239   7.9291   7.9311   8.2703   8.2744   8.3005   8.3034
     8.5121   8.5200   8.5341   8.5360   8.6561   8.6562   8.6736   8.6786
     8.6892   8.6915   8.7049   8.7165   8.7203   8.7393   8.7501   8.7505
     8.7653   8.7804   8.7977   8.7985   8.9848   8.9910   9.0036   9.0311
     9.0381   9.0403   9.0462   9.0610   9.2042   9.2100   9.2108   9.2181
     9.2187   9.2265   9.2303   9.2317   9.2449   9.2516   9.2528   9.2587
     9.2662   9.2720   9.2833   9.2951   9.2958   9.3160   9.3968   9.3990
     9.4037   9.4288   9.4438   9.4621   9.4623   9.4673   9.4747   9.4796
     9.4934   9.5026   9.5150   9.5196   9.5291   9.5398   9.5469   9.5600
     9.5652   9.5778   9.7554   9.7572   9.7923   9.7963   9.8022   9.8118
     9.8243   9.8434   9.8478   9.8577   9.8637   9.8654   9.8666   9.8684
     9.9635   9.9731   9.9994  10.0027  10.0174  10.0234  10.0608  10.0625
    10.3686  10.3778  10.3976  10.4013  10.4041  10.4051  10.4336  10.4632
    10.4633  10.4669  10.4736  10.4757  10.4843  10.4881  10.5035  10.5123
    10.5144  10.5272  10.5616  10.5889  10.5901  10.5928  10.6169  10.6204
    10.6287  10.6311  10.6667  10.6686  10.6755  10.6869  10.7230  10.7282
    10.7529  10.7964  10.9075  10.9130  10.9732  10.9739  11.0488  11.0784
    11.1177  11.1214  11.1370  11.1443  11.1532  11.1915  11.2032  11.2088
    11.2125  11.2132  11.3106  11.3180  11.3306  11.3489  11.3601  11.3643
    11.3736  11.3766  11.4057  11.4204  11.4370  11.4827  11.5070  11.5071
    11.5211  11.5292  11.5748  11.5753  11.5849  11.6158  11.6260  11.6308
    11.6410  11.6411  11.7284  11.7309  11.7646  11.7738  11.7989  11.8409
    11.9195  11.9242  11.9350  11.9389  11.9598  11.9641  12.0004  12.0098
    12.0160  12.0324  12.0377  12.0392  12.0634  12.0961  12.0965  12.1196
    12.1430  12.1621  12.1699  12.2291  12.2430  12.2519  12.2697  12.3535
    12.3546  12.4046  12.4168  12.4409  12.4574  12.4616  12.4872  12.4959
    12.5079  12.5329  12.5351  12.5479  12.5572  12.5771  12.5800  12.5956
    12.5965  12.6433  12.6448  12.6490  12.6546  12.6635  12.7103  12.7304
    12.7453  12.8343  12.8491  12.9401  12.9513  12.9821  12.9916  13.0497
    13.0676  13.3384  13.4785  13.5265  13.5855  13.6736  13.7083  13.8053
    13.9157  13.9332  14.0219  14.0900  14.2082  14.3211  14.3661  14.3964
    14.4755  14.5057  14.5372  14.5560  14.5826  14.8005  14.8049  14.9070
    14.9469  15.2261  15.2741  15.3074  15.3461  15.4551  15.5575  15.6085
    15.6380  15.6402  15.7363  15.8307  15.8438  15.8672  15.9194  15.9650
    16.0030  16.0781  16.1142  16.1170  16.1550  16.1824  16.1859  16.2203
    16.2259  16.3055  16.3221  16.3490  16.3514  16.3774  16.3817  16.3925
    16.4964  16.5107  16.5487  16.5827  16.5941  16.6467  16.6909  16.7089
    16.7136  16.8237  16.8475  16.8730  16.8905  16.9630  16.9974  17.0339
    17.0842  17.1287  17.2291  17.2793  18.6127  18.6488  18.7172  18.7427
    18.7736  18.7905  18.8379  18.8457  18.9065  18.9235  18.9356  18.9555

     the Fermi energy is    14.8177 ev

!    total energy              =  -33062.57917765 Ry
     Harris-Foulkes estimate   =  -33062.57915913 Ry
     estimated scf accuracy    <       0.00000095 Ry

     total all-electron energy =  -1410574.669552 Ry

     The total energy is the sum of the following terms:

     one-electron contribution =   -1645.78814565 Ry
     hartree contribution      =    1490.01817993 Ry
     xc contribution           =   -1658.74642319 Ry
     ewald contribution        =   -4919.25534656 Ry
     one-center paw contrib.   =  -26328.80744219 Ry

     total magnetization       =     0.00 Bohr mag/cell
     absolute magnetization    =    78.40 Bohr mag/cell

     convergence has been achieved in  21 iterations

     Writing output data file mnau2.save
 
     init_run     :     52.37s CPU     53.17s WALL (       1 calls)
     electrons    :   3168.99s CPU   3222.21s WALL (       1 calls)

     Called by init_run:
     wfcinit      :     46.48s CPU     47.02s WALL (       1 calls)
     potinit      :      2.48s CPU      2.55s WALL (       1 calls)

     Called by electrons:
     c_bands      :   2825.48s CPU   2869.17s WALL (      21 calls)
     sum_band     :    288.26s CPU    294.17s WALL (      21 calls)
     v_of_rho     :      5.65s CPU      5.82s WALL (      22 calls)
     newd         :     17.89s CPU     20.41s WALL (      22 calls)
     PAW_pot      :     32.46s CPU     32.97s WALL (      22 calls)
     mix_rho      :      1.13s CPU      1.20s WALL (      21 calls)

     Called by c_bands:
     init_us_2    :     10.38s CPU     10.44s WALL (     688 calls)
     cegterg      :   2759.76s CPU   2802.55s WALL (     336 calls)

     Called by sum_band:
     sum_band:bec :      1.62s CPU      1.63s WALL (     336 calls)
     addusdens    :     31.89s CPU     34.72s WALL (      21 calls)

     Called by *egterg:
     h_psi        :    969.75s CPU    980.60s WALL (    1346 calls)
     s_psi        :    234.76s CPU    234.92s WALL (    1346 calls)
     g_psi        :      3.64s CPU      3.65s WALL (     994 calls)
     cdiaghg      :    998.97s CPU    999.41s WALL (    1330 calls)

     Called by h_psi:
     h_psi:pot    :    961.20s CPU    971.99s WALL (    1346 calls)
     h_psi:calbec :    235.92s CPU    238.45s WALL (    1346 calls)
     vloc_psi     :    489.38s CPU    497.44s WALL (    1346 calls)
     add_vuspsi   :    235.88s CPU    236.08s WALL (    1346 calls)

     General routines
     calbec       :    336.58s CPU    340.10s WALL (    1682 calls)
     fft          :      5.26s CPU      5.62s WALL (     672 calls)
     ffts         :      0.12s CPU      0.13s WALL (      86 calls)
     fftw         :    462.15s CPU    469.59s WALL (  753336 calls)
     interpolate  :      0.82s CPU      0.87s WALL (      86 calls)
 
     Parallel routines
     fft_scatt_xy :     57.41s CPU     58.15s WALL (  754094 calls)
     fft_scatt_yz :    117.37s CPU    120.73s WALL (  754094 calls)
 
     PWSCF        : 53m47.05s CPU    55m 1.62s WALL

 
   This run was terminated on:   0:17:43   8Mar2019            

=------------------------------------------------------------------------------=
   JOB DONE.
=------------------------------------------------------------------------------=
