
     Program PWSCF v.6.2 (svn rev. 14038) starts on  8Mar2019 at  0:17:44 

     This program is part of the open-source Quantum ESPRESSO suite
     for quantum simulation of materials; please cite
         "P. Giannozzi et al., J. Phys.:Condens. Matter 21 395502 (2009);
         "P. Giannozzi et al., J. Phys.:Condens. Matter 29 465901 (2017);
          URL http://www.quantum-espresso.org", 
     in publications or presentations arising from this work. More details at
     http://www.quantum-espresso.org/quote

     Parallel version (MPI), running on    16 processors

     MPI processes distributed on     1 nodes
     R & G space division:  proc/nbgrp/npool/nimage =      16
     Waiting for input...
     Reading input from standard input

     Current dimensions of program PWSCF are:
     Max number of different atomic species (ntypx) = 10
     Max number of k-points (npk) =  40000
     Max angular momentum in pseudopotentials (lmaxx) =  3
               file Mn.pbe-spn-kjpaw_psl.0.3.1.UPF: wavefunction(s)  3P 3D renormalized
               file Mn.pbe-spn-kjpaw_psl.0.3.1.UPF: wavefunction(s)  3P 3D renormalized
               file Au.pbe-dn-kjpaw_psl.0.1.UPF: wavefunction(s)  6S 6P 5D renormalized

     Subspace diagonalization in iterative solution of the eigenvalue problem:
     a serial algorithm will be used

 
     Parallelization info
     --------------------
     sticks:   dense  smooth     PW     G-vecs:    dense   smooth      PW
     Min         736     331     90                52486    15847    2256
     Max         737     332     91                52489    15850    2259
     Sum       11785    5297   1449               839803   253559   36125
 


     bravais-lattice index     =            0
     lattice parameter (alat)  =      19.2459  a.u.
     unit-cell volume          =    6216.1497 (a.u.)^3
     number of atoms/cell      =           54
     number of atomic types    =            3
     number of electrons       =       666.00
     number of Kohn-Sham states=          400
     kinetic-energy cutoff     =      45.0000  Ry
     charge density cutoff     =     400.0000  Ry
     convergence threshold     =      1.0E-06
     mixing beta               =       0.1000
     number of iterations used =            8  plain     mixing
     Exchange-correlation      = SLA PW PBX PBC ( 1  4  3  4 0 0)

     celldm(1)=  19.245946  celldm(2)=   0.000000  celldm(3)=   0.000000
     celldm(4)=   0.000000  celldm(5)=   0.000000  celldm(6)=   0.000000

     crystal axes: (cart. coord. in units of alat)
               a(1) = (   1.000000   0.000000   0.000000 )  
               a(2) = (   0.000000   1.000000   0.000000 )  
               a(3) = (   0.000000   0.000000   0.871974 )  

     reciprocal axes: (cart. coord. in units 2 pi/alat)
               b(1) = (  1.000000  0.000000  0.000000 )  
               b(2) = (  0.000000  1.000000  0.000000 )  
               b(3) = (  0.000000  0.000000  1.146823 )  


     PseudoPot. # 1 for Mn read from file:
     ./pseudo/Mn.pbe-spn-kjpaw_psl.0.3.1.UPF
     MD5 check sum: 7eef95dd2aae66803482eea66ebeebf1
     Pseudo is Projector augmented-wave + core cor, Zval = 15.0
     Generated using "atomic" code by A. Dal Corso v.5.0.99 svn rev. 10869
     Shape of augmentation charge: PSQ
     Using radial grid of 1187 points,  6 beta functions with: 
                l(1) =   0
                l(2) =   0
                l(3) =   1
                l(4) =   1
                l(5) =   2
                l(6) =   2
     Q(r) pseudized with 0 coefficients 


     PseudoPot. # 2 for Mn read from file:
     ./pseudo/Mn.pbe-spn-kjpaw_psl.0.3.1.UPF
     MD5 check sum: 7eef95dd2aae66803482eea66ebeebf1
     Pseudo is Projector augmented-wave + core cor, Zval = 15.0
     Generated using "atomic" code by A. Dal Corso v.5.0.99 svn rev. 10869
     Shape of augmentation charge: PSQ
     Using radial grid of 1187 points,  6 beta functions with: 
                l(1) =   0
                l(2) =   0
                l(3) =   1
                l(4) =   1
                l(5) =   2
                l(6) =   2
     Q(r) pseudized with 0 coefficients 


     PseudoPot. # 3 for Au read from file:
     ./pseudo/Au.pbe-dn-kjpaw_psl.0.1.UPF
     MD5 check sum: 5c9b92683623e7ae2ab3f8e525febab6
     Pseudo is Projector augmented-wave + core cor, Zval = 11.0
     Generated using "atomic" code by A. Dal Corso v.5.0.2 svn rev. 9415
     Shape of augmentation charge: PSQ
     Using radial grid of 1279 points,  6 beta functions with: 
                l(1) =   0
                l(2) =   0
                l(3) =   1
                l(4) =   1
                l(5) =   2
                l(6) =   2
     Q(r) pseudized with 0 coefficients 


     atomic species   valence    mass     pseudopotential
        Mn1           15.00    54.93800     Mn( 1.00)
        Mn2           15.00    54.93800     Mn( 1.00)
        Au            11.00   196.96600     Au( 1.00)

     Starting magnetic structure 
     atomic species   magnetization
        Mn1          0.800
        Mn2         -0.800
        Au           0.000

      4 Sym. Ops. (no inversion) found



   Cartesian axes

     site n.     atom                  positions (alat units)
         1           Mn1 tau(   1) = (   0.0000000   0.0000000   0.0000000  )
         2           Mn1 tau(   2) = (   0.0000000   0.3333300   0.0000000  )
         3           Mn2 tau(   3) = (   0.0000000   0.6666700   0.0000000  )
         4           Mn1 tau(   4) = (   0.3333300   0.0000000   0.0000000  )
         5           Mn2 tau(   5) = (   0.3333300   0.3333300   0.0000000  )
         6           Mn2 tau(   6) = (   0.3333300   0.6666700   0.0000000  )
         7           Mn2 tau(   7) = (   0.6666700   0.0000000   0.0000000  )
         8           Mn2 tau(   8) = (   0.6666700   0.3333300   0.0000000  )
         9           Mn1 tau(   9) = (   0.6666700   0.6666700   0.0000000  )
        10           Mn2 tau(  10) = (   0.1666700   0.1666700   0.4359871  )
        11           Mn2 tau(  11) = (   0.1666700   0.5000000   0.4359871  )
        12           Mn1 tau(  12) = (   0.1666700   0.8333300   0.4359871  )
        13           Mn2 tau(  13) = (   0.5000000   0.1666700   0.4359871  )
        14           Mn1 tau(  14) = (   0.5000000   0.5000000   0.4359871  )
        15           Mn1 tau(  15) = (   0.5000000   0.8333300   0.4359871  )
        16           Mn1 tau(  16) = (   0.8333300   0.1666700   0.4359871  )
        17           Mn1 tau(  17) = (   0.8333300   0.5000000   0.4359871  )
        18           Mn2 tau(  18) = (   0.8333300   0.8333300   0.4359871  )
        19           Au  tau(  19) = (   0.1666700   0.1666700   0.7327374  )
        20           Au  tau(  20) = (   0.1666700   0.5000000   0.7327374  )
        21           Au  tau(  21) = (   0.1666700   0.8333300   0.7327374  )
        22           Au  tau(  22) = (   0.5000000   0.1666700   0.7327374  )
        23           Au  tau(  23) = (   0.5000000   0.5000000   0.7327374  )
        24           Au  tau(  24) = (   0.5000000   0.8333300   0.7327374  )
        25           Au  tau(  25) = (   0.8333300   0.1666700   0.7327374  )
        26           Au  tau(  26) = (   0.8333300   0.5000000   0.7327374  )
        27           Au  tau(  27) = (   0.8333300   0.8333300   0.7327374  )
        28           Au  tau(  28) = (   0.1666700   0.1666700   0.1392369  )
        29           Au  tau(  29) = (   0.1666700   0.5000000   0.1392369  )
        30           Au  tau(  30) = (   0.1666700   0.8333300   0.1392369  )
        31           Au  tau(  31) = (   0.5000000   0.1666700   0.1392369  )
        32           Au  tau(  32) = (   0.5000000   0.5000000   0.1392369  )
        33           Au  tau(  33) = (   0.5000000   0.8333300   0.1392369  )
        34           Au  tau(  34) = (   0.8333300   0.1666700   0.1392369  )
        35           Au  tau(  35) = (   0.8333300   0.5000000   0.1392369  )
        36           Au  tau(  36) = (   0.8333300   0.8333300   0.1392369  )
        37           Au  tau(  37) = (   0.0000000   0.0000000   0.2967503  )
        38           Au  tau(  38) = (   0.0000000   0.3333300   0.2967503  )
        39           Au  tau(  39) = (   0.0000000   0.6666700   0.2967503  )
        40           Au  tau(  40) = (   0.3333300   0.0000000   0.2967503  )
        41           Au  tau(  41) = (   0.3333300   0.3333300   0.2967503  )
        42           Au  tau(  42) = (   0.3333300   0.6666700   0.2967503  )
        43           Au  tau(  43) = (   0.6666700   0.0000000   0.2967503  )
        44           Au  tau(  44) = (   0.6666700   0.3333300   0.2967503  )
        45           Au  tau(  45) = (   0.6666700   0.6666700   0.2967503  )
        46           Au  tau(  46) = (   0.0000000   0.0000000   0.5752240  )
        47           Au  tau(  47) = (   0.0000000   0.3333300   0.5752240  )
        48           Au  tau(  48) = (   0.0000000   0.6666700   0.5752240  )
        49           Au  tau(  49) = (   0.3333300   0.0000000   0.5752240  )
        50           Au  tau(  50) = (   0.3333300   0.3333300   0.5752240  )
        51           Au  tau(  51) = (   0.3333300   0.6666700   0.5752240  )
        52           Au  tau(  52) = (   0.6666700   0.0000000   0.5752240  )
        53           Au  tau(  53) = (   0.6666700   0.3333300   0.5752240  )
        54           Au  tau(  54) = (   0.6666700   0.6666700   0.5752240  )

     number of k points=     6 (tetrahedron method)
                       cart. coord. in units 2pi/alat
        k(    1) = (   0.0000000   0.0000000   0.0000000), wk =   0.1250000
        k(    2) = (   0.0000000   0.0000000  -0.5734114), wk =   0.1250000
        k(    3) = (   0.0000000  -0.5000000   0.0000000), wk =   0.2500000
        k(    4) = (   0.0000000  -0.5000000  -0.5734114), wk =   0.2500000
        k(    5) = (  -0.5000000  -0.5000000   0.0000000), wk =   0.1250000
        k(    6) = (  -0.5000000  -0.5000000  -0.5734114), wk =   0.1250000

     Dense  grid:   839803 G-vectors     FFT dimensions: ( 125, 125, 108)

     Smooth grid:   253559 G-vectors     FFT dimensions: (  90,  90,  72)

     Estimated max dynamical RAM per process >     521.79 MB

     Estimated total dynamical RAM >       8.15 GB
     Generating pointlists ...
     new r_m :   0.1129 (alat units)  2.1733 (a.u.) for type    1
     new r_m :   0.1129 (alat units)  2.1733 (a.u.) for type    2
     new r_m :   0.1129 (alat units)  2.1733 (a.u.) for type    3

     Check: negative/imaginary core charge=   -0.000006    0.000000

     Initial potential from superposition of free atoms

     starting charge  665.98709, renormalised to  666.00000
     Starting wfc are  504 randomized atomic wfcs
     Checking if some PAW data can be deallocated... 

     total cpu time spent up to now is       44.8 secs

     Self-consistent Calculation

     iteration #  1     ecut=    45.00 Ry     beta= 0.10
     Davidson diagonalization with overlap
     ethr =  1.00E-02,  avg # of iterations =  3.6

     total cpu time spent up to now is      171.9 secs

     total energy              =  -33047.22227455 Ry
     Harris-Foulkes estimate   =  -33044.08262128 Ry
     estimated scf accuracy    <      26.95841311 Ry

     total magnetization       =    -0.04 Bohr mag/cell
     absolute magnetization    =    92.06 Bohr mag/cell

     iteration #  2     ecut=    45.00 Ry     beta= 0.10
     Davidson diagonalization with overlap
     ethr =  4.05E-03,  avg # of iterations =  1.0

     total cpu time spent up to now is      254.2 secs

     total energy              =  -33058.54541492 Ry
     Harris-Foulkes estimate   =  -33047.39923272 Ry
     estimated scf accuracy    <      21.31353713 Ry

     total magnetization       =    -0.04 Bohr mag/cell
     absolute magnetization    =    91.69 Bohr mag/cell

     iteration #  3     ecut=    45.00 Ry     beta= 0.10
     Davidson diagonalization with overlap
     ethr =  3.20E-03,  avg # of iterations =  2.2

     total cpu time spent up to now is      356.5 secs

     total energy              =  -33066.23219122 Ry
     Harris-Foulkes estimate   =  -33061.31262942 Ry
     estimated scf accuracy    <       8.83299452 Ry

     total magnetization       =    -0.00 Bohr mag/cell
     absolute magnetization    =    85.75 Bohr mag/cell

     iteration #  4     ecut=    45.00 Ry     beta= 0.10
     Davidson diagonalization with overlap
     ethr =  1.33E-03,  avg # of iterations =  4.2

     total cpu time spent up to now is      514.8 secs

     total energy              =  -33058.32883829 Ry
     Harris-Foulkes estimate   =  -33068.99866090 Ry
     estimated scf accuracy    <      53.06253895 Ry

     total magnetization       =     0.04 Bohr mag/cell
     absolute magnetization    =    71.76 Bohr mag/cell

     iteration #  5     ecut=    45.00 Ry     beta= 0.10
     Davidson diagonalization with overlap
     ethr =  1.33E-03,  avg # of iterations =  4.5

     total cpu time spent up to now is      699.3 secs

     total energy              =  -33062.02572174 Ry
     Harris-Foulkes estimate   =  -33062.45785318 Ry
     estimated scf accuracy    <       3.09098469 Ry

     total magnetization       =    -0.06 Bohr mag/cell
     absolute magnetization    =    83.56 Bohr mag/cell

     iteration #  6     ecut=    45.00 Ry     beta= 0.10
     Davidson diagonalization with overlap
     ethr =  4.64E-04,  avg # of iterations =  3.6

     total cpu time spent up to now is      819.3 secs

     total energy              =  -33062.53225160 Ry
     Harris-Foulkes estimate   =  -33062.55417601 Ry
     estimated scf accuracy    <       0.29624498 Ry

     total magnetization       =    -0.39 Bohr mag/cell
     absolute magnetization    =    79.00 Bohr mag/cell

     iteration #  7     ecut=    45.00 Ry     beta= 0.10
     Davidson diagonalization with overlap
     ethr =  4.45E-05,  avg # of iterations =  4.4

     total cpu time spent up to now is      948.6 secs

     total energy              =  -33062.56948976 Ry
     Harris-Foulkes estimate   =  -33062.56060855 Ry
     estimated scf accuracy    <       0.08330639 Ry

     total magnetization       =    -0.46 Bohr mag/cell
     absolute magnetization    =    78.55 Bohr mag/cell

     iteration #  8     ecut=    45.00 Ry     beta= 0.10
     Davidson diagonalization with overlap
     ethr =  1.25E-05,  avg # of iterations =  4.2

     total cpu time spent up to now is     1068.6 secs

     total energy              =  -33062.55883912 Ry
     Harris-Foulkes estimate   =  -33062.58050241 Ry
     estimated scf accuracy    <       0.21263955 Ry

     total magnetization       =    -0.47 Bohr mag/cell
     absolute magnetization    =    78.01 Bohr mag/cell

     iteration #  9     ecut=    45.00 Ry     beta= 0.10
     Davidson diagonalization with overlap
     ethr =  1.25E-05,  avg # of iterations =  1.4

     total cpu time spent up to now is     1154.6 secs

     total energy              =  -33062.56131608 Ry
     Harris-Foulkes estimate   =  -33062.56430017 Ry
     estimated scf accuracy    <       0.07236717 Ry

     total magnetization       =    -0.49 Bohr mag/cell
     absolute magnetization    =    78.17 Bohr mag/cell

     iteration # 10     ecut=    45.00 Ry     beta= 0.10
     Davidson diagonalization with overlap
     ethr =  1.09E-05,  avg # of iterations =  1.8

     total cpu time spent up to now is     1245.1 secs

     total energy              =  -33062.55784070 Ry
     Harris-Foulkes estimate   =  -33062.56484909 Ry
     estimated scf accuracy    <       0.02692577 Ry

     total magnetization       =    -0.54 Bohr mag/cell
     absolute magnetization    =    78.43 Bohr mag/cell

     iteration # 11     ecut=    45.00 Ry     beta= 0.10
     Davidson diagonalization with overlap
     ethr =  4.04E-06,  avg # of iterations =  4.6

     total cpu time spent up to now is     1385.4 secs

     total energy              =  -33062.56147739 Ry
     Harris-Foulkes estimate   =  -33062.56412443 Ry
     estimated scf accuracy    <       0.00692961 Ry

     total magnetization       =    -0.56 Bohr mag/cell
     absolute magnetization    =    78.55 Bohr mag/cell

     iteration # 12     ecut=    45.00 Ry     beta= 0.10
     Davidson diagonalization with overlap
     ethr =  1.04E-06,  avg # of iterations =  3.1

     total cpu time spent up to now is     1501.9 secs

     total energy              =  -33062.56447546 Ry
     Harris-Foulkes estimate   =  -33062.56374127 Ry
     estimated scf accuracy    <       0.00525254 Ry

     total magnetization       =    -0.57 Bohr mag/cell
     absolute magnetization    =    78.52 Bohr mag/cell

     iteration # 13     ecut=    45.00 Ry     beta= 0.10
     Davidson diagonalization with overlap
     ethr =  7.89E-07,  avg # of iterations =  2.0

     total cpu time spent up to now is     1595.9 secs

     total energy              =  -33062.56506491 Ry
     Harris-Foulkes estimate   =  -33062.56484587 Ry
     estimated scf accuracy    <       0.00045222 Ry

     total magnetization       =    -0.59 Bohr mag/cell
     absolute magnetization    =    78.37 Bohr mag/cell

     iteration # 14     ecut=    45.00 Ry     beta= 0.10
     Davidson diagonalization with overlap
     ethr =  6.79E-08,  avg # of iterations =  4.0

     total cpu time spent up to now is     1725.0 secs

     total energy              =  -33062.56528253 Ry
     Harris-Foulkes estimate   =  -33062.56513891 Ry
     estimated scf accuracy    <       0.00019047 Ry

     total magnetization       =    -0.59 Bohr mag/cell
     absolute magnetization    =    78.34 Bohr mag/cell

     iteration # 15     ecut=    45.00 Ry     beta= 0.10
     Davidson diagonalization with overlap
     ethr =  2.86E-08,  avg # of iterations =  1.2

     total cpu time spent up to now is     1808.7 secs

     total energy              =  -33062.56547301 Ry
     Harris-Foulkes estimate   =  -33062.56528909 Ry
     estimated scf accuracy    <       0.00012445 Ry

     total magnetization       =    -0.59 Bohr mag/cell
     absolute magnetization    =    78.33 Bohr mag/cell

     iteration # 16     ecut=    45.00 Ry     beta= 0.10
     Davidson diagonalization with overlap
     ethr =  1.87E-08,  avg # of iterations =  2.0

     total cpu time spent up to now is     1903.4 secs

     total energy              =  -33062.56558283 Ry
     Harris-Foulkes estimate   =  -33062.56546859 Ry
     estimated scf accuracy    <       0.00007268 Ry

     total magnetization       =    -0.60 Bohr mag/cell
     absolute magnetization    =    78.30 Bohr mag/cell

     iteration # 17     ecut=    45.00 Ry     beta= 0.10
     Davidson diagonalization with overlap
     ethr =  1.09E-08,  avg # of iterations =  2.8

     total cpu time spent up to now is     2013.7 secs

     total energy              =  -33062.56562903 Ry
     Harris-Foulkes estimate   =  -33062.56558062 Ry
     estimated scf accuracy    <       0.00002313 Ry

     total magnetization       =    -0.61 Bohr mag/cell
     absolute magnetization    =    78.28 Bohr mag/cell

     iteration # 18     ecut=    45.00 Ry     beta= 0.10
     Davidson diagonalization with overlap
     ethr =  3.47E-09,  avg # of iterations =  3.0

     total cpu time spent up to now is     2155.6 secs

     total energy              =  -33062.56562849 Ry
     Harris-Foulkes estimate   =  -33062.56561788 Ry
     estimated scf accuracy    <       0.00000449 Ry

     total magnetization       =    -0.62 Bohr mag/cell
     absolute magnetization    =    78.25 Bohr mag/cell

     iteration # 19     ecut=    45.00 Ry     beta= 0.10
     Davidson diagonalization with overlap
     ethr =  6.73E-10,  avg # of iterations =  2.0

     total cpu time spent up to now is     2252.1 secs

     total energy              =  -33062.56563441 Ry
     Harris-Foulkes estimate   =  -33062.56562747 Ry
     estimated scf accuracy    <       0.00000268 Ry

     total magnetization       =    -0.62 Bohr mag/cell
     absolute magnetization    =    78.24 Bohr mag/cell

     iteration # 20     ecut=    45.00 Ry     beta= 0.10
     Davidson diagonalization with overlap
     ethr =  4.02E-10,  avg # of iterations =  2.4

     total cpu time spent up to now is     2366.3 secs

     total energy              =  -33062.56563900 Ry
     Harris-Foulkes estimate   =  -33062.56563423 Ry
     estimated scf accuracy    <       0.00000119 Ry

     total magnetization       =    -0.62 Bohr mag/cell
     absolute magnetization    =    78.24 Bohr mag/cell

     iteration # 21     ecut=    45.00 Ry     beta= 0.10
     Davidson diagonalization with overlap
     ethr =  1.79E-10,  avg # of iterations =  2.2
 
     Magnetic moment per site:
     atom:    1    charge:   13.5808    magn:    3.9514    constr:    0.0000
     atom:    2    charge:   13.5741    magn:    4.0352    constr:    0.0000
     atom:    3    charge:   13.5727    magn:   -4.0482    constr:    0.0000
     atom:    4    charge:   13.5741    magn:    4.0352    constr:    0.0000
     atom:    5    charge:   13.5745    magn:   -4.0157    constr:    0.0000
     atom:    6    charge:   13.5799    magn:   -3.9687    constr:    0.0000
     atom:    7    charge:   13.5727    magn:   -4.0482    constr:    0.0000
     atom:    8    charge:   13.5799    magn:   -3.9687    constr:    0.0000
     atom:    9    charge:   13.5811    magn:    3.9692    constr:    0.0000
     atom:   10    charge:   13.5802    magn:   -3.9767    constr:    0.0000
     atom:   11    charge:   13.5741    magn:   -4.0430    constr:    0.0000
     atom:   12    charge:   13.5830    magn:    3.9471    constr:    0.0000
     atom:   13    charge:   13.5741    magn:   -4.0430    constr:    0.0000
     atom:   14    charge:   13.5693    magn:    4.0240    constr:    0.0000
     atom:   15    charge:   13.5778    magn:    3.9827    constr:    0.0000
     atom:   16    charge:   13.5830    magn:    3.9471    constr:    0.0000
     atom:   17    charge:   13.5778    magn:    3.9827    constr:    0.0000
     atom:   18    charge:   13.5722    magn:   -4.0809    constr:    0.0000
     atom:   19    charge:    9.1211    magn:    0.0137    constr:    0.0000
     atom:   20    charge:    9.1207    magn:   -0.0447    constr:    0.0000
     atom:   21    charge:    9.1195    magn:    0.0000    constr:    0.0000
     atom:   22    charge:    9.1207    magn:   -0.0447    constr:    0.0000
     atom:   23    charge:    9.1206    magn:   -0.0182    constr:    0.0000
     atom:   24    charge:    9.1210    magn:    0.0112    constr:    0.0000
     atom:   25    charge:    9.1195    magn:    0.0000    constr:    0.0000
     atom:   26    charge:    9.1210    magn:    0.0112    constr:    0.0000
     atom:   27    charge:    9.1214    magn:   -0.0142    constr:    0.0000
     atom:   28    charge:    9.1211    magn:    0.0137    constr:    0.0000
     atom:   29    charge:    9.1207    magn:   -0.0447    constr:    0.0000
     atom:   30    charge:    9.1195    magn:    0.0000    constr:    0.0000
     atom:   31    charge:    9.1207    magn:   -0.0447    constr:    0.0000
     atom:   32    charge:    9.1206    magn:   -0.0182    constr:    0.0000
     atom:   33    charge:    9.1210    magn:    0.0112    constr:    0.0000
     atom:   34    charge:    9.1195    magn:    0.0000    constr:    0.0000
     atom:   35    charge:    9.1210    magn:    0.0112    constr:    0.0000
     atom:   36    charge:    9.1214    magn:   -0.0142    constr:    0.0000
     atom:   37    charge:    9.1218    magn:    0.0081    constr:    0.0000
     atom:   38    charge:    9.1209    magn:    0.0062    constr:    0.0000
     atom:   39    charge:    9.1209    magn:   -0.0154    constr:    0.0000
     atom:   40    charge:    9.1209    magn:    0.0062    constr:    0.0000
     atom:   41    charge:    9.1212    magn:   -0.0473    constr:    0.0000
     atom:   42    charge:    9.1199    magn:    0.0150    constr:    0.0000
     atom:   43    charge:    9.1209    magn:   -0.0154    constr:    0.0000
     atom:   44    charge:    9.1199    magn:    0.0150    constr:    0.0000
     atom:   45    charge:    9.1194    magn:    0.0291    constr:    0.0000
     atom:   46    charge:    9.1218    magn:    0.0081    constr:    0.0000
     atom:   47    charge:    9.1209    magn:    0.0062    constr:    0.0000
     atom:   48    charge:    9.1209    magn:   -0.0154    constr:    0.0000
     atom:   49    charge:    9.1209    magn:    0.0062    constr:    0.0000
     atom:   50    charge:    9.1212    magn:   -0.0473    constr:    0.0000
     atom:   51    charge:    9.1199    magn:    0.0150    constr:    0.0000
     atom:   52    charge:    9.1209    magn:   -0.0154    constr:    0.0000
     atom:   53    charge:    9.1199    magn:    0.0150    constr:    0.0000
     atom:   54    charge:    9.1194    magn:    0.0291    constr:    0.0000

     total cpu time spent up to now is     2466.0 secs

     End of self-consistent calculation

 ------ SPIN UP ------------


          k = 0.0000 0.0000 0.0000 ( 31747 PWs)   bands (ev):

   -66.7853 -66.6983 -66.6983 -66.6586 -66.6586 -66.6189 -66.5910 -66.5906
   -66.5906 -62.3806 -62.3727 -62.3726 -62.3629 -62.3629 -62.3565 -62.3565
   -62.3516 -62.3161 -35.5474 -35.5230 -35.5103 -35.4668 -35.4668 -35.4580
   -35.4579 -35.4330 -35.4330 -35.4060 -35.4059 -35.4032 -35.4030 -35.3884
   -35.3772 -35.3739 -35.3664 -35.3663 -35.3484 -35.3483 -35.3461 -35.3461
   -35.3335 -35.3229 -35.3102 -35.3101 -35.2995 -31.2283 -31.2282 -31.2263
   -31.2054 -31.2047 -31.2017 -31.2013 -31.1989 -31.1948 -31.1932 -31.1918
   -31.1909 -31.1863 -31.1861 -31.1798 -31.1797 -31.1794 -31.1742 -31.1733
   -31.1732 -31.1726 -31.1636 -31.1635 -31.1613 -31.1546 -31.1392 -31.1371
     5.6185   7.1431   7.1457   7.2188   7.2214   7.3657   7.8408   7.8970
     7.9064   7.9678   8.0879   8.0880   8.1473   8.1855   8.1877   8.2605
     8.2640   8.2938   8.2962   8.5200   8.5563   8.5606   8.5729   8.5764
     8.6503   8.8619   8.8633   8.8646   8.8815   8.8882   8.8894   8.8952
     8.8975   8.9014   8.9138   8.9207   8.9483   8.9592   8.9617   8.9789
     8.9830   9.0843   9.1235   9.1278   9.1286   9.1371   9.1542   9.1585
     9.1970   9.1978   9.2233   9.2711   9.2926   9.3015   9.3066   9.3340
     9.3513   9.3549   9.3690   9.3719   9.3965   9.3965   9.4091   9.4433
     9.4509   9.4531   9.4631   9.4666   9.4695   9.4701   9.4775   9.5794
     9.5814   9.5913   9.5916   9.6179   9.6304   9.6682   9.6701   9.6717
     9.6739   9.6747   9.6776   9.7498   9.7589   9.7728   9.7879   9.8514
     9.8526   9.9099   9.9148   9.9432   9.9444   9.9494  10.0002  10.0388
    10.0770  10.1185  10.1446  10.2041  10.2833  10.2835  10.2951  10.2978
    10.3073  10.3102  10.3198  10.3252  10.3333  10.3365  10.3400  10.3415
    10.3450  10.3472  10.3634  10.3645  10.3653  10.3744  10.3844  10.3851
    10.3889  10.4960  10.5245  10.5425  10.6194  10.6228  10.6335  10.6354
    10.6774  10.7830  10.7902  10.8074  10.8129  10.8174  10.8478  10.8513
    10.8637  10.8678  10.8695  10.8722  10.8767  10.8916  10.8936  10.9023
    10.9097  10.9101  11.0329  11.0352  11.0769  11.0786  11.1509  11.1946
    11.2137  11.2142  11.2276  11.2370  11.2558  11.2905  11.3003  11.3300
    11.3338  11.3925  11.3998  11.4042  11.4072  11.4122  11.4379  11.4393
    11.4618  11.5884  11.5914  11.5935  11.5976  11.5986  11.6127  11.6363
    11.6415  11.6444  11.7263  11.7280  11.7509  11.7537  11.7695  11.8104
    11.8149  11.8401  11.8415  11.8708  11.9018  11.9189  11.9320  11.9531
    11.9575  12.0147  12.0664  12.1009  12.1024  12.1049  12.1066  12.1088
    12.1416  12.1466  12.1476  12.1476  12.1517  12.1532  12.1716  12.1868
    12.2509  12.2946  12.3502  12.3533  12.3555  12.3876  12.4362  12.4373
    12.4472  12.4771  12.4796  12.4942  12.4946  12.5135  12.5363  12.5427
    12.5630  12.5641  12.5700  12.6063  12.6151  12.6171  12.6544  12.6916
    12.7109  12.7531  12.7654  12.7871  12.8311  12.8667  13.0319  13.0557
    13.1249  13.1293  13.1729  13.1785  13.4652  13.6477  13.8327  13.8581
    13.8670  14.0894  14.1764  14.2006  14.2577  14.4366  14.4504  14.6008
    14.7712  14.8428  14.9206  14.9912  15.0614  15.0985  15.1083  15.1809
    15.2020  15.2607  15.3005  15.3083  15.3615  15.4461  15.5233  15.5339
    15.6953  15.7340  15.7647  15.8005  15.8665  15.9594  16.0108  16.0202
    16.0260  16.0755  16.1019  16.1177  16.1210  16.1677  16.1724  16.1884
    16.1901  16.1992  16.2469  16.2814  16.3203  16.3533  16.3574  16.3971
    16.4735  16.4804  16.4999  16.6145  16.6311  16.6404  16.8149  16.8999
    16.9533  17.0386  17.1757  17.1987  17.2202  17.2415  17.3420  17.3431
    17.4308  17.4781  17.7938  17.8839  17.9358  17.9424  17.9854  18.0121
    18.2961  18.3379  18.4861  18.8630  19.0375  19.0596  19.1575  19.1865

          k = 0.0000 0.0000-0.5734 ( 31692 PWs)   bands (ev):

   -66.7853 -66.6983 -66.6983 -66.6586 -66.6586 -66.6189 -66.5910 -66.5906
   -66.5906 -62.3806 -62.3727 -62.3726 -62.3629 -62.3629 -62.3565 -62.3565
   -62.3516 -62.3161 -35.5474 -35.5230 -35.5103 -35.4668 -35.4668 -35.4580
   -35.4579 -35.4330 -35.4330 -35.4060 -35.4059 -35.4032 -35.4030 -35.3884
   -35.3772 -35.3739 -35.3664 -35.3663 -35.3484 -35.3483 -35.3461 -35.3461
   -35.3335 -35.3229 -35.3102 -35.3101 -35.2995 -31.2283 -31.2282 -31.2263
   -31.2054 -31.2047 -31.2017 -31.2013 -31.1989 -31.1948 -31.1932 -31.1918
   -31.1909 -31.1863 -31.1861 -31.1798 -31.1797 -31.1794 -31.1742 -31.1733
   -31.1732 -31.1726 -31.1636 -31.1635 -31.1613 -31.1546 -31.1392 -31.1371
     6.1791   6.1968   7.5285   7.5441   7.5609   7.5670   7.6071   7.6151
     7.6229   7.6358   8.3054   8.3157   8.3297   8.3462   8.3606   8.3655
     8.3962   8.4020   8.4544   8.4588   8.4766   8.4833   8.5115   8.5127
     8.5128   8.5129   8.6977   8.7058   8.7659   8.7829   8.9460   8.9555
     8.9783   8.9803   8.9805   8.9959   9.0028   9.0055   9.0141   9.0286
     9.0295   9.0414   9.0423   9.0470   9.0720   9.0811   9.2151   9.2257
     9.2303   9.2405   9.2546   9.2560   9.2687   9.2700   9.2748   9.2839
     9.2847   9.2877   9.2919   9.2937   9.2968   9.2985   9.4054   9.4100
     9.4318   9.4342   9.4548   9.4557   9.4588   9.4747   9.4792   9.4814
     9.4916   9.4974   9.5023   9.5063   9.5129   9.5210   9.6422   9.6667
     9.7723   9.7781   9.7983   9.8026   9.8252   9.8293   9.8367   9.8469
     9.8774   9.8782   9.8782   9.8802   9.8885   9.8900   9.8954   9.8959
    10.0611  10.0621  10.0623  10.0641  10.1540  10.1617  10.1621  10.1657
    10.1659  10.1662  10.1793  10.1952  10.2024  10.2048  10.3716  10.3726
    10.3778  10.3817  10.4008  10.4012  10.4126  10.4287  10.4852  10.5083
    10.5734  10.5804  10.5896  10.6032  10.6291  10.6469  10.6674  10.6764
    10.6834  10.6889  10.7315  10.7418  10.7563  10.8014  10.8083  10.8712
    10.9292  10.9334  10.9411  10.9835  11.0291  11.0356  11.0369  11.0453
    11.0751  11.0790  11.0857  11.1584  11.2064  11.2152  11.2176  11.2238
    11.2476  11.2485  11.2526  11.2534  11.2643  11.2693  11.2769  11.2827
    11.2839  11.2842  11.2915  11.2947  11.2949  11.2960  11.3057  11.3093
    11.3125  11.3167  11.3185  11.3193  11.5355  11.5444  11.7135  11.7137
    11.7150  11.7168  11.7186  11.7245  11.7337  11.7352  11.7381  11.7542
    11.7665  11.7703  11.7741  11.7825  11.7868  11.8502  11.8952  11.9418
    11.9511  11.9706  12.0079  12.0106  12.0571  12.0614  12.0861  12.1165
    12.1406  12.1678  12.1707  12.2419  12.2465  12.2517  12.2676  12.4148
    12.4250  12.4423  12.4463  12.4644  12.4918  12.5046  12.5066  12.5333
    12.5376  12.5594  12.5595  12.6094  12.6105  12.6159  12.6376  12.6504
    12.6581  12.6953  12.7106  12.7154  12.7484  12.7646  12.7787  12.8097
    12.8633  12.9197  12.9832  13.0638  13.1361  13.2058  13.2161  13.2365
    13.2851  13.2872  13.3448  13.5073  13.5172  13.5221  13.7361  13.7678
    13.7760  13.9129  13.9509  14.0817  14.1341  14.3013  14.3649  14.4708
    14.7365  14.9010  14.9465  14.9509  14.9530  14.9828  14.9844  15.1206
    15.2150  15.2322  15.2592  15.3336  15.3339  15.3705  15.3999  15.4308
    15.4578  15.6211  15.7396  15.7745  15.8315  15.9396  16.0116  16.0548
    16.0670  16.1174  16.1178  16.1303  16.1402  16.1512  16.1947  16.1957
    16.2022  16.2246  16.2249  16.2343  16.2380  16.2449  16.2469  16.2486
    16.3911  16.4223  16.6121  16.6209  16.6502  16.6784  16.7004  16.7233
    16.7326  16.7645  17.4220  17.4491  17.4600  17.4917  17.5344  17.5508
    17.5669  17.5830  17.6596  17.6599  17.7227  17.7623  17.8248  17.8690
    17.8772  17.8793  18.1049  18.1395  18.1869  18.2497  18.3058  18.3454

          k = 0.0000-0.5000 0.0000 ( 31722 PWs)   bands (ev):

   -66.7853 -66.6983 -66.6983 -66.6586 -66.6586 -66.6189 -66.5910 -66.5906
   -66.5906 -62.3806 -62.3727 -62.3726 -62.3629 -62.3629 -62.3565 -62.3565
   -62.3516 -62.3161 -35.5474 -35.5230 -35.5103 -35.4668 -35.4668 -35.4580
   -35.4579 -35.4330 -35.4330 -35.4060 -35.4059 -35.4032 -35.4030 -35.3884
   -35.3772 -35.3739 -35.3664 -35.3663 -35.3484 -35.3483 -35.3461 -35.3461
   -35.3335 -35.3229 -35.3102 -35.3101 -35.2995 -31.2283 -31.2282 -31.2263
   -31.2054 -31.2047 -31.2017 -31.2013 -31.1989 -31.1948 -31.1932 -31.1918
   -31.1909 -31.1863 -31.1862 -31.1798 -31.1797 -31.1794 -31.1742 -31.1733
   -31.1732 -31.1726 -31.1636 -31.1635 -31.1613 -31.1546 -31.1392 -31.1371
     6.0419   6.0499   7.4222   7.4387   7.4612   7.4835   7.6715   7.6830
     8.1111   8.1140   8.1296   8.1639   8.2231   8.2356   8.2436   8.2753
     8.4115   8.4291   8.4566   8.4795   8.6311   8.6399   8.6497   8.6572
     8.6697   8.6733   8.6779   8.6956   8.7803   8.8062   8.8307   8.8412
     8.8573   8.8587   8.8781   8.8853   8.8964   8.9023   8.9093   8.9296
     8.9318   8.9368   8.9428   8.9546   9.0447   9.0538   9.1592   9.1679
     9.1766   9.2106   9.2155   9.2268   9.2394   9.2483   9.3036   9.3367
     9.3509   9.3767   9.4018   9.4177   9.4774   9.4816   9.4992   9.5071
     9.5413   9.5419   9.5588   9.5634   9.5899   9.6076   9.6091   9.6192
     9.6284   9.6298   9.6323   9.6344   9.6377   9.6377   9.6440   9.6575
     9.6665   9.6777   9.6815   9.6848   9.6928   9.7105   9.7207   9.7281
     9.7434   9.7470   9.7505   9.7734   9.8974   9.8994   9.9354   9.9565
    10.0136  10.0347  10.1628  10.1844  10.2059  10.2182  10.2542  10.2569
    10.2593  10.2657  10.2751  10.2796  10.2825  10.2857  10.3425  10.3594
    10.3729  10.3811  10.3845  10.3887  10.4300  10.4416  10.4632  10.4830
    10.5078  10.5294  10.5309  10.5491  10.5601  10.5673  10.5692  10.5985
    10.6097  10.6566  10.6655  10.7023  10.7109  10.7213  10.7331  10.7480
    10.8064  10.8174  10.8338  10.8504  10.8682  10.9038  10.9179  10.9308
    10.9940  11.0032  11.0201  11.0225  11.0386  11.0568  11.1744  11.1812
    11.2964  11.3399  11.3481  11.3496  11.3760  11.3808  11.3813  11.4024
    11.4081  11.4308  11.4359  11.4850  11.5083  11.5225  11.5483  11.5774
    11.6018  11.6044  11.6315  11.6318  11.6612  11.6747  11.7138  11.7457
    11.7681  11.7738  11.8126  11.8369  11.8375  11.8453  11.8524  11.8611
    11.8754  11.8906  11.9015  11.9123  11.9158  11.9429  11.9462  11.9643
    11.9794  11.9880  11.9910  11.9991  12.0334  12.1075  12.1331  12.1380
    12.1654  12.1907  12.1950  12.2052  12.2109  12.2358  12.2461  12.2810
    12.2966  12.3411  12.3613  12.3860  12.3887  12.4159  12.4282  12.4551
    12.4642  12.4961  12.5003  12.5292  12.5303  12.5523  12.5640  12.5723
    12.5753  12.6012  12.6055  12.6181  12.6777  12.6927  12.7369  12.8160
    12.8812  12.9306  13.0631  13.0742  13.0802  13.0874  13.1178  13.1507
    13.1807  13.2018  13.2224  13.2434  13.2533  13.2966  13.3149  13.3763
    13.4211  13.5532  13.5542  13.6214  13.7094  14.4307  14.4624  14.5358
    14.5905  14.6860  14.7529  14.7966  14.8044  14.8627  14.8737  14.9936
    15.0395  15.1430  15.1485  15.3227  15.3616  15.4366  15.5279  15.6004
    15.6961  15.7326  15.7520  15.8204  15.8661  15.8991  15.9448  16.0446
    16.0634  16.0947  16.1107  16.1339  16.1354  16.1675  16.1680  16.1736
    16.2034  16.2086  16.2270  16.2407  16.2839  16.3062  16.3333  16.3569
    16.4054  16.4309  16.5063  16.5977  16.6695  16.7457  16.9923  17.0745
    17.1518  17.2170  17.2738  17.3230  17.4043  17.4807  17.6361  17.6432
    17.7635  17.7978  17.8006  17.8187  17.8638  17.8740  17.8827  17.9281
    17.9336  18.0943  18.1791  18.1992  19.2563  19.2724  19.3567  19.3691

          k = 0.0000-0.5000-0.5734 ( 31696 PWs)   bands (ev):

   -66.7853 -66.6983 -66.6983 -66.6586 -66.6586 -66.6189 -66.5910 -66.5906
   -66.5906 -62.3806 -62.3727 -62.3726 -62.3629 -62.3629 -62.3565 -62.3565
   -62.3516 -62.3161 -35.5474 -35.5230 -35.5103 -35.4668 -35.4668 -35.4580
   -35.4579 -35.4330 -35.4330 -35.4060 -35.4059 -35.4032 -35.4030 -35.3884
   -35.3772 -35.3739 -35.3664 -35.3663 -35.3484 -35.3483 -35.3461 -35.3461
   -35.3335 -35.3229 -35.3102 -35.3101 -35.2995 -31.2283 -31.2282 -31.2263
   -31.2054 -31.2047 -31.2017 -31.2013 -31.1989 -31.1948 -31.1932 -31.1918
   -31.1909 -31.1863 -31.1862 -31.1798 -31.1797 -31.1794 -31.1742 -31.1733
   -31.1732 -31.1726 -31.1636 -31.1635 -31.1613 -31.1546 -31.1392 -31.1371
     6.5579   6.5744   6.5978   6.6146   7.8405   7.8517   7.8794   7.8901
     7.8976   7.9098   7.9267   7.9436   8.2735   8.2764   8.3060   8.3069
     8.5226   8.5247   8.5331   8.5331   8.6541   8.6569   8.6799   8.6874
     8.6918   8.6928   8.7073   8.7204   8.7322   8.7441   8.7568   8.7575
     8.7686   8.7700   8.7879   8.8026   8.9823   8.9981   9.0148   9.0346
     9.0385   9.0466   9.0485   9.0554   9.2132   9.2173   9.2209   9.2215
     9.2224   9.2316   9.2331   9.2461   9.2485   9.2523   9.2558   9.2567
     9.2615   9.2693   9.2845   9.2897   9.2912   9.3175   9.3952   9.4025
     9.4316   9.4356   9.4372   9.4556   9.4623   9.4665   9.4677   9.4816
     9.4835   9.5014   9.5175   9.5260   9.5277   9.5514   9.5608   9.5681
     9.5740   9.5896   9.7564   9.7585   9.7940   9.8017   9.8078   9.8288
     9.8291   9.8297   9.8504   9.8546   9.8565   9.8611   9.8616   9.8743
     9.9729   9.9802   9.9925   9.9963  10.0216  10.0260  10.0636  10.0664
    10.3715  10.3779  10.3983  10.4013  10.4030  10.4094  10.4145  10.4513
    10.4652  10.4672  10.4761  10.4772  10.4964  10.4969  10.5137  10.5143
    10.5354  10.5514  10.5632  10.5760  10.5924  10.6100  10.6183  10.6203
    10.6298  10.6330  10.6621  10.6727  10.6801  10.6812  10.6870  10.6966
    10.7728  10.7909  10.9532  10.9597  10.9844  10.9935  11.0409  11.0478
    11.1194  11.1235  11.1360  11.1563  11.1693  11.1856  11.2124  11.2131
    11.2185  11.2282  11.2900  11.3286  11.3353  11.3376  11.3649  11.3677
    11.3745  11.3771  11.4237  11.4248  11.4349  11.4409  11.5067  11.5133
    11.5304  11.5593  11.5684  11.5733  11.5870  11.6115  11.6243  11.6306
    11.6364  11.6367  11.7344  11.7508  11.7558  11.7657  11.8254  11.8850
    11.8899  11.9227  11.9273  11.9386  11.9485  11.9851  12.0182  12.0195
    12.0319  12.0371  12.0404  12.0444  12.0446  12.0740  12.0914  12.1331
    12.1467  12.1741  12.1927  12.2225  12.2611  12.2680  12.2733  12.3044
    12.3722  12.3822  12.4039  12.4083  12.4391  12.4543  12.4695  12.5054
    12.5059  12.5410  12.5461  12.5613  12.5670  12.5999  12.6029  12.6102
    12.6170  12.6459  12.6461  12.6516  12.6677  12.7039  12.7164  12.7691
    12.7737  12.8567  12.8694  12.9226  13.0117  13.0430  13.0474  13.0715
    13.0875  13.3771  13.5033  13.5164  13.6350  13.7219  13.7445  13.7877
    13.8056  13.9852  14.0257  14.0872  14.0982  14.2641  14.3448  14.3592
    14.4008  14.5195  14.5535  14.5570  14.6261  14.8605  14.8652  15.1086
    15.2068  15.2285  15.2493  15.2709  15.2951  15.3516  15.3943  15.5103
    15.5919  15.6389  15.6838  15.8753  15.8873  15.9733  15.9821  16.0213
    16.0502  16.0754  16.1093  16.1280  16.1548  16.1865  16.2166  16.2357
    16.2678  16.3055  16.3443  16.3536  16.3811  16.3911  16.4127  16.4418
    16.4763  16.4995  16.5347  16.5607  16.5964  16.6218  16.6615  16.6803
    16.6939  16.7055  16.7253  16.7690  16.8840  16.8844  16.9982  17.0497
    17.0835  17.1317  17.2697  17.3198  18.6748  18.7053  18.7299  18.7521
    18.7793  18.7839  18.8527  18.8727  18.9114  18.9199  18.9394  18.9616

          k =-0.5000-0.5000 0.0000 ( 31612 PWs)   bands (ev):

   -66.7853 -66.6983 -66.6983 -66.6586 -66.6586 -66.6189 -66.5910 -66.5906
   -66.5906 -62.3806 -62.3727 -62.3726 -62.3629 -62.3629 -62.3565 -62.3565
   -62.3516 -62.3161 -35.5474 -35.5230 -35.5103 -35.4668 -35.4668 -35.4580
   -35.4579 -35.4330 -35.4330 -35.4060 -35.4059 -35.4032 -35.4030 -35.3884
   -35.3772 -35.3739 -35.3664 -35.3663 -35.3484 -35.3483 -35.3461 -35.3461
   -35.3335 -35.3229 -35.3102 -35.3101 -35.2995 -31.2282 -31.2282 -31.2263
   -31.2054 -31.2047 -31.2017 -31.2013 -31.1989 -31.1948 -31.1932 -31.1918
   -31.1909 -31.1863 -31.1861 -31.1798 -31.1797 -31.1794 -31.1742 -31.1733
   -31.1732 -31.1726 -31.1636 -31.1635 -31.1613 -31.1546 -31.1392 -31.1371
     6.3974   6.4425   6.4433   6.4935   8.0029   8.0176   8.0221   8.0302
     8.1007   8.1175   8.2818   8.3147   8.3165   8.3299   8.3314   8.3358
     8.3420   8.3593   8.3607   8.3783   8.3805   8.4428   8.5951   8.6269
     8.6368   8.6447   8.6958   8.7003   8.7043   8.7118   8.7258   8.7543
     8.7575   8.8133   8.9414   8.9455   8.9542   8.9565   8.9739   8.9773
     8.9814   9.0097   9.0101   9.0104   9.0107   9.0203   9.0223   9.0419
     9.1199   9.1275   9.3031   9.3144   9.3195   9.3243   9.3997   9.4118
     9.4130   9.4207   9.4298   9.4335   9.4369   9.4371   9.4457   9.4508
     9.4660   9.4720   9.4746   9.4833   9.4858   9.4978   9.5010   9.5110
     9.5195   9.5276   9.5363   9.5385   9.5551   9.5767   9.5900   9.6024
     9.6034   9.6179   9.6977   9.6997   9.7565   9.8023   9.8028   9.8072
     9.8365   9.8390   9.8441   9.8459   9.8628   9.8823  10.0152  10.0420
    10.0772  10.1025  10.1145  10.1342  10.1571  10.1640  10.1718  10.1752
    10.1864  10.1909  10.1939  10.2029  10.2197  10.2226  10.2227  10.2264
    10.2323  10.2340  10.2370  10.3052  10.4265  10.4660  10.4764  10.4826
    10.4950  10.4987  10.5116  10.5703  10.5789  10.6191  10.6287  10.6327
    10.6497  10.6560  10.6640  10.6670  10.7105  10.7116  10.7200  10.7204
    10.7482  10.8014  10.8075  10.8188  10.8456  10.8532  10.8688  10.8717
    10.8895  10.9424  11.2013  11.2106  11.2122  11.2282  11.3196  11.3210
    11.3424  11.3541  11.3637  11.3649  11.3743  11.3828  11.4970  11.5752
    11.6270  11.6279  11.6357  11.6452  11.6483  11.6487  11.6496  11.6550
    11.6641  11.6741  11.7275  11.7309  11.7510  11.7717  11.8005  11.8279
    11.8678  11.8771  11.8788  11.8829  11.8864  11.8891  11.9660  11.9781
    12.0074  12.0277  12.0642  12.0679  12.0745  12.0787  12.0837  12.0841
    12.1087  12.1088  12.1146  12.1215  12.1461  12.1526  12.1534  12.1557
    12.1601  12.1613  12.1663  12.1765  12.1769  12.2036  12.2220  12.2649
    12.2799  12.2868  12.2882  12.2891  12.2912  12.2972  12.3145  12.4335
    12.4462  12.4502  12.4681  12.5076  12.5212  12.5237  12.5422  12.5698
    12.5699  12.5736  12.5774  12.5811  12.6141  12.6371  12.6418  12.6860
    12.7081  12.8034  12.8364  12.8644  12.8740  12.8894  12.9121  12.9302
    12.9683  13.0268  13.0411  13.0615  13.1524  13.6615  13.6633  13.6764
    13.6786  13.6817  13.6997  13.7751  13.8185  14.0167  14.2590  14.3494
    14.4146  14.4151  14.4318  14.4686  14.5137  14.5708  14.7716  14.8268
    14.8302  14.8889  15.1385  15.1385  15.3314  15.3641  15.6760  15.7355
    15.7357  15.8107  15.8239  15.8332  15.9153  15.9332  15.9946  16.0459
    16.0462  16.0535  16.0939  16.1459  16.1607  16.1686  16.1740  16.1967
    16.2161  16.2395  16.2960  16.3114  16.3409  16.3733  16.3741  16.3803
    16.4667  16.4685  16.5213  16.5954  16.6488  16.6645  16.7751  16.8024
    16.8243  16.8371  16.8864  16.8964  17.3869  17.3906  17.7056  17.8802
    18.0868  18.1949  18.2163  18.2178  18.2581  18.4276  18.4427  18.5761
    18.5846  18.6286  18.6310  18.6381  18.7393  18.7922  18.8052  18.8259

          k =-0.5000-0.5000-0.5734 ( 31672 PWs)   bands (ev):

   -66.7853 -66.6983 -66.6983 -66.6586 -66.6586 -66.6189 -66.5910 -66.5906
   -66.5906 -62.3806 -62.3727 -62.3726 -62.3629 -62.3629 -62.3565 -62.3565
   -62.3516 -62.3161 -35.5474 -35.5230 -35.5103 -35.4668 -35.4668 -35.4580
   -35.4579 -35.4330 -35.4330 -35.4060 -35.4059 -35.4032 -35.4030 -35.3884
   -35.3772 -35.3739 -35.3664 -35.3663 -35.3484 -35.3483 -35.3461 -35.3461
   -35.3335 -35.3229 -35.3102 -35.3101 -35.2995 -31.2282 -31.2282 -31.2263
   -31.2054 -31.2047 -31.2017 -31.2013 -31.1989 -31.1948 -31.1932 -31.1918
   -31.1909 -31.1863 -31.1861 -31.1798 -31.1797 -31.1794 -31.1742 -31.1733
   -31.1732 -31.1726 -31.1636 -31.1635 -31.1613 -31.1546 -31.1392 -31.1371
     6.9006   6.9121   6.9452   6.9766   6.9902   6.9956   7.0179   7.0345
     8.4615   8.4637   8.4699   8.4775   8.4866   8.4899   8.4950   8.4960
     8.4970   8.4991   8.5330   8.5377   8.5402   8.5476   8.5665   8.5672
     8.5679   8.5821   8.5840   8.5985   8.8819   8.8870   8.8970   8.9042
     8.9136   8.9142   8.9351   8.9386   9.0959   9.1063   9.1202   9.1251
     9.1377   9.1403   9.1455   9.1490   9.1520   9.1545   9.1619   9.1629
     9.1651   9.1681   9.1701   9.1716   9.1739   9.1742   9.1748   9.1788
     9.1802   9.1928   9.1931   9.1959   9.1996   9.2039   9.2183   9.2188
     9.2285   9.2424   9.2433   9.2492   9.2629   9.2747   9.2776   9.2809
     9.5371   9.5440   9.5589   9.5621   9.6087   9.6127   9.6221   9.6332
     9.6657   9.6777   9.6934   9.7125   9.7131   9.7250   9.7374   9.7633
     9.8224   9.8273   9.8419   9.8531   9.8712   9.8850   9.8896   9.8964
    10.1355  10.1418  10.1484  10.1521  10.1545  10.1643  10.1748  10.1785
    10.2947  10.3082  10.4432  10.4513  10.4535  10.4591  10.4857  10.4883
    10.4888  10.4895  10.5009  10.5058  10.5061  10.5107  10.5164  10.5185
    10.5214  10.5241  10.5297  10.5356  10.5381  10.5629  10.5930  10.6041
    10.6384  10.6410  10.6421  10.6515  10.6577  10.6596  10.6670  10.6710
    10.6770  10.6862  10.6960  10.7081  10.7316  10.7342  11.0340  11.0449
    11.0838  11.0892  11.1091  11.1221  11.1244  11.1360  11.3759  11.3834
    11.3947  11.3980  11.4332  11.4376  11.4416  11.4550  11.4604  11.4646
    11.4792  11.4876  11.5071  11.5219  11.5286  11.5436  11.5813  11.5868
    11.6457  11.6489  11.6534  11.6635  11.6690  11.6994  11.7136  11.7187
    11.7268  11.7299  11.7467  11.7602  11.7783  11.7850  11.7856  11.7959
    11.8084  11.8134  11.8223  11.8347  11.8603  11.9141  12.0178  12.0301
    12.0396  12.0661  12.0690  12.0850  12.1056  12.1353  12.1367  12.1514
    12.2031  12.2306  12.2438  12.2713  12.2770  12.2808  12.2944  12.3335
    12.3660  12.3671  12.3713  12.3956  12.4165  12.4494  12.4626  12.4704
    12.4729  12.4824  12.5113  12.5256  12.5317  12.5539  12.5569  12.5740
    12.5905  12.6003  12.6256  12.6883  12.7379  12.7649  12.7886  12.8356
    12.8638  12.8681  13.0980  13.1014  13.1688  13.2305  13.2437  13.2468
    13.2508  13.2854  13.2870  13.3347  13.3577  13.4270  13.5111  13.5656
    13.6136  13.6154  13.6186  13.8929  13.9362  13.9414  14.0973  14.1255
    14.1923  14.5518  14.5904  14.6392  14.7396  14.7584  14.8414  14.8743
    15.0104  15.0897  15.1419  15.2181  15.3045  15.4766  15.4892  15.6586
    15.7248  15.7582  15.7784  15.8269  15.8663  16.0102  16.0536  16.0886
    16.1429  16.1585  16.1735  16.1834  16.1936  16.2206  16.2406  16.2429
    16.2739  16.2919  16.3049  16.3464  16.3495  16.4165  16.4324  16.4693
    16.5034  16.5611  16.5717  16.5862  16.6427  16.6671  16.6791  16.6817
    16.6964  16.7039  16.7624  16.8308  16.9104  16.9197  16.9602  17.0174
    17.0224  17.0257  17.6990  17.8029  17.8096  17.8548  19.0518  19.0642
    19.0754  19.1242  19.1268  19.1395  19.1899  19.2152  19.2180  19.2782

 ------ SPIN DOWN ----------


          k = 0.0000 0.0000 0.0000 ( 31747 PWs)   bands (ev):

   -66.7229 -66.7229 -66.7052 -66.7038 -66.7038 -66.6989 -66.6360 -66.6360
   -66.6343 -62.4504 -62.3716 -62.3716 -62.3643 -62.3577 -62.3577 -62.3423
   -62.3423 -62.3232 -35.5152 -35.5152 -35.4917 -35.4917 -35.4887 -35.4753
   -35.4685 -35.4684 -35.4660 -35.4417 -35.4416 -35.4413 -35.4298 -35.4161
   -35.4160 -35.4112 -35.4112 -35.4014 -35.3925 -35.3923 -35.3916 -35.3915
   -35.3827 -35.3771 -35.3540 -35.3539 -35.3503 -31.2916 -31.2766 -31.2534
   -31.2345 -31.2345 -31.2245 -31.1958 -31.1948 -31.1868 -31.1868 -31.1840
   -31.1835 -31.1803 -31.1802 -31.1776 -31.1731 -31.1730 -31.1728 -31.1727
   -31.1697 -31.1681 -31.1680 -31.1641 -31.1475 -31.1461 -31.1460 -31.1284
     5.6113   7.1307   7.1382   7.2127   7.2201   7.3604   7.8487   7.8832
     7.8889   7.9613   8.0794   8.0800   8.1506   8.1732   8.1815   8.2573
     8.2600   8.2844   8.2873   8.5149   8.5425   8.5560   8.5722   8.5923
     8.6284   8.8584   8.8616   8.8681   8.8797   8.8816   8.8817   8.8826
     8.8865   8.8956   8.9114   8.9151   8.9310   8.9436   8.9682   8.9728
     8.9790   9.0810   9.1183   9.1248   9.1250   9.1346   9.1531   9.1638
     9.1800   9.1955   9.2169   9.2711   9.2869   9.2883   9.3077   9.3261
     9.3436   9.3544   9.3650   9.3697   9.3909   9.4008   9.4040   9.4376
     9.4468   9.4496   9.4502   9.4566   9.4661   9.4672   9.4707   9.5754
     9.5769   9.5877   9.5913   9.6198   9.6220   9.6533   9.6665   9.6682
     9.6691   9.6731   9.6746   9.7397   9.7502   9.7688   9.7826   9.8459
     9.8500   9.9127   9.9192   9.9285   9.9391   9.9439  10.0105  10.0377
    10.0523  10.1087  10.1148  10.2113  10.2699  10.2840  10.2916  10.2936
    10.3037  10.3070  10.3127  10.3205  10.3236  10.3266  10.3271  10.3351
    10.3424  10.3435  10.3639  10.3648  10.3670  10.3693  10.3781  10.3816
    10.4001  10.5046  10.5150  10.5171  10.6011  10.6157  10.6217  10.6342
    10.6948  10.7765  10.7875  10.8051  10.8098  10.8133  10.8432  10.8445
    10.8557  10.8638  10.8683  10.8741  10.8769  10.8828  10.8846  10.8975
    10.9089  10.9090  11.0268  11.0284  11.0346  11.0685  11.0733  11.1332
    11.2090  11.2157  11.2282  11.2334  11.2650  11.2748  11.3202  11.3249
    11.3919  11.3938  11.3960  11.3982  11.4078  11.4303  11.4388  11.4393
    11.4858  11.5604  11.5638  11.5874  11.5904  11.5922  11.5978  11.6010
    11.6393  11.6529  11.6858  11.7224  11.7232  11.7484  11.7508  11.7537
    11.8190  11.8535  11.8555  11.8685  11.8785  11.9338  11.9348  11.9428
    11.9454  11.9701  12.0975  12.0983  12.1031  12.1033  12.1353  12.1432
    12.1450  12.1477  12.1483  12.1549  12.1629  12.1719  12.1975  12.1980
    12.2182  12.2439  12.2563  12.2783  12.3095  12.3366  12.3770  12.4237
    12.4277  12.4334  12.4365  12.4486  12.4936  12.5186  12.5262  12.5345
    12.5384  12.5575  12.5628  12.5676  12.5728  12.6241  12.6640  12.6987
    12.7275  12.7284  12.7305  12.8392  12.8419  12.8651  12.9416  13.0054
    13.0418  13.0755  13.1404  13.1858  13.4816  13.5438  13.7533  13.7860
    14.0679  14.1762  14.1806  14.1917  14.2676  14.4110  14.4321  14.4438
    14.6739  14.8432  14.8869  15.0105  15.0123  15.0978  15.2412  15.2696
    15.2906  15.2940  15.3436  15.3447  15.3564  15.3805  15.4798  15.5446
    15.5540  15.5699  15.6638  15.7995  15.8431  15.9018  15.9848  15.9984
    16.0208  16.0359  16.1041  16.1145  16.1369  16.1796  16.1968  16.2237
    16.2312  16.2626  16.2750  16.2830  16.3356  16.3456  16.3668  16.3941
    16.4278  16.5084  16.5533  16.6634  16.6887  16.6891  16.7091  16.9250
    16.9543  17.0269  17.1505  17.1693  17.1940  17.2097  17.2781  17.3221
    17.4609  17.5012  17.7848  17.8828  17.9330  17.9448  17.9755  17.9949
    18.2879  18.2994  18.4935  18.9013  19.0318  19.0332  19.1582  19.1961

          k = 0.0000 0.0000-0.5734 ( 31692 PWs)   bands (ev):

   -66.7229 -66.7229 -66.7052 -66.7038 -66.7038 -66.6989 -66.6360 -66.6360
   -66.6343 -62.4504 -62.3716 -62.3716 -62.3643 -62.3577 -62.3577 -62.3423
   -62.3423 -62.3232 -35.5152 -35.5152 -35.4917 -35.4917 -35.4887 -35.4753
   -35.4685 -35.4684 -35.4660 -35.4417 -35.4416 -35.4413 -35.4298 -35.4161
   -35.4160 -35.4112 -35.4112 -35.4014 -35.3925 -35.3923 -35.3916 -35.3915
   -35.3827 -35.3771 -35.3540 -35.3539 -35.3503 -31.2916 -31.2766 -31.2534
   -31.2345 -31.2345 -31.2245 -31.1958 -31.1948 -31.1868 -31.1868 -31.1840
   -31.1835 -31.1803 -31.1802 -31.1776 -31.1731 -31.1730 -31.1728 -31.1727
   -31.1697 -31.1681 -31.1680 -31.1641 -31.1475 -31.1461 -31.1460 -31.1284
     6.1718   6.1904   7.5222   7.5422   7.5452   7.5522   7.6013   7.6073
     7.6216   7.6360   8.3014   8.3169   8.3249   8.3365   8.3409   8.3499
     8.3905   8.3979   8.4583   8.4655   8.4704   8.4705   8.4872   8.4942
     8.5214   8.5237   8.6911   8.6990   8.7611   8.7786   8.9404   8.9531
     8.9676   8.9696   8.9719   8.9902   8.9940   9.0121   9.0142   9.0184
     9.0229   9.0369   9.0380   9.0387   9.0690   9.0769   9.2157   9.2183
     9.2327   9.2381   9.2477   9.2500   9.2581   9.2660   9.2706   9.2770
     9.2791   9.2807   9.2865   9.2928   9.2942   9.2947   9.4122   9.4204
     9.4230   9.4245   9.4394   9.4400   9.4622   9.4631   9.4742   9.4774
     9.4784   9.4806   9.4986   9.5112   9.5157   9.5223   9.6332   9.6596
     9.7729   9.7798   9.7855   9.7903   9.8240   9.8257   9.8305   9.8407
     9.8719   9.8725   9.8815   9.8825   9.8832   9.8834   9.8889   9.8910
    10.0562  10.0583  10.0586  10.0613  10.1483  10.1572  10.1572  10.1631
    10.1658  10.1706  10.1740  10.1886  10.1907  10.1967  10.3550  10.3559
    10.3725  10.3781  10.3967  10.4051  10.4072  10.4199  10.4822  10.5069
    10.5807  10.5830  10.6001  10.6019  10.6182  10.6254  10.6277  10.6512
    10.6577  10.6667  10.7352  10.7546  10.7701  10.8066  10.8167  10.8605
    10.9166  10.9328  10.9375  10.9490  10.9517  10.9605  11.0432  11.0883
    11.0893  11.1091  11.1349  11.1423  11.1719  11.1850  11.1988  11.2273
    11.2431  11.2443  11.2453  11.2570  11.2660  11.2670  11.2701  11.2780
    11.2799  11.2818  11.2823  11.2890  11.2935  11.2966  11.2974  11.3033
    11.3036  11.3175  11.3184  11.3245  11.5193  11.5298  11.7105  11.7124
    11.7136  11.7143  11.7145  11.7186  11.7320  11.7338  11.7383  11.7467
    11.7483  11.7523  11.7625  11.7756  11.7864  11.8503  11.8880  11.9210
    11.9737  11.9852  12.0089  12.0147  12.0247  12.0352  12.0669  12.0828
    12.0838  12.1446  12.1543  12.2289  12.2572  12.2579  12.2685  12.4226
    12.4402  12.4428  12.4562  12.4661  12.4746  12.4761  12.4881  12.4984
    12.5130  12.5156  12.5314  12.5422  12.5524  12.6113  12.6118  12.6202
    12.6246  12.6507  12.6514  12.6996  12.7605  12.7686  12.7939  12.8177
    12.8339  12.8632  12.9682  13.0241  13.1214  13.1787  13.1927  13.2469
    13.2568  13.3187  13.4061  13.4536  13.4636  13.5057  13.7159  13.7318
    13.7610  13.8985  14.0134  14.0667  14.0787  14.2553  14.3820  14.5452
    14.7195  14.8354  14.8600  14.9760  15.0021  15.0116  15.0324  15.0682
    15.0941  15.1672  15.1809  15.2093  15.2331  15.3568  15.4400  15.5842
    15.7250  15.7372  15.7377  15.7498  15.8014  15.9230  15.9322  15.9766
    16.0468  16.0586  16.1275  16.1348  16.1365  16.1446  16.1718  16.1792
    16.1907  16.2078  16.2233  16.2308  16.2429  16.2539  16.2825  16.2884
    16.4203  16.4501  16.5547  16.5875  16.6081  16.6290  16.7425  16.7606
    16.7685  16.7969  17.3530  17.4009  17.4046  17.4413  17.5591  17.5613
    17.5832  17.6086  17.7278  17.7454  17.7637  17.7660  17.7732  17.8159
    17.8288  17.8464  18.0940  18.1325  18.1827  18.2367  18.2899  18.3403

          k = 0.0000-0.5000 0.0000 ( 31722 PWs)   bands (ev):

   -66.7229 -66.7229 -66.7052 -66.7038 -66.7038 -66.6989 -66.6360 -66.6360
   -66.6343 -62.4504 -62.3716 -62.3716 -62.3643 -62.3577 -62.3577 -62.3423
   -62.3423 -62.3232 -35.5152 -35.5152 -35.4917 -35.4917 -35.4887 -35.4753
   -35.4685 -35.4684 -35.4660 -35.4417 -35.4416 -35.4413 -35.4298 -35.4161
   -35.4160 -35.4112 -35.4112 -35.4014 -35.3925 -35.3923 -35.3916 -35.3915
   -35.3827 -35.3771 -35.3540 -35.3539 -35.3503 -31.2916 -31.2766 -31.2534
   -31.2345 -31.2345 -31.2245 -31.1958 -31.1948 -31.1868 -31.1868 -31.1840
   -31.1835 -31.1803 -31.1802 -31.1776 -31.1731 -31.1730 -31.1728 -31.1727
   -31.1697 -31.1681 -31.1680 -31.1641 -31.1475 -31.1461 -31.1460 -31.1284
     6.0261   6.0513   7.4037   7.4334   7.4673   7.4757   7.6701   7.6733
     8.1032   8.1096   8.1231   8.1319   8.2140   8.2256   8.2554   8.2808
     8.3992   8.4343   8.4524   8.4657   8.6256   8.6289   8.6497   8.6530
     8.6535   8.6739   8.6770   8.6856   8.7826   8.8048   8.8164   8.8231
     8.8459   8.8627   8.8746   8.8885   8.8919   8.9008   8.9026   8.9213
     8.9289   8.9341   8.9360   8.9508   9.0435   9.0467   9.1525   9.1632
     9.1742   9.2002   9.2148   9.2196   9.2326   9.2509   9.3073   9.3211
     9.3412   9.3622   9.3925   9.4276   9.4680   9.4774   9.4921   9.5179
     9.5328   9.5387   9.5441   9.5614   9.5893   9.5991   9.6101   9.6178
     9.6231   9.6235   9.6274   9.6318   9.6321   9.6344   9.6346   9.6374
     9.6635   9.6685   9.6734   9.6870   9.6991   9.7090   9.7121   9.7257
     9.7335   9.7359   9.7567   9.7757   9.8877   9.8988   9.9287   9.9499
    10.0155  10.0238  10.1562  10.1796  10.2003  10.2044  10.2359  10.2449
    10.2515  10.2665  10.2709  10.2775  10.2802  10.2877  10.3382  10.3575
    10.3739  10.3768  10.3825  10.3825  10.4236  10.4365  10.4563  10.4656
    10.5103  10.5139  10.5271  10.5537  10.5543  10.5601  10.5711  10.5721
    10.6118  10.6463  10.6686  10.6954  10.7019  10.7211  10.7217  10.7262
    10.8129  10.8314  10.8338  10.8420  10.8592  10.8692  10.9248  10.9368
    10.9855  10.9998  11.0089  11.0192  11.0398  11.0480  11.1702  11.1779
    11.2818  11.3425  11.3443  11.3533  11.3603  11.3670  11.3730  11.3920
    11.3930  11.4073  11.4268  11.4579  11.4831  11.5140  11.5490  11.5856
    11.5970  11.5988  11.6373  11.6534  11.6579  11.6680  11.6778  11.7409
    11.7626  11.7820  11.7874  11.8181  11.8319  11.8383  11.8466  11.8546
    11.8691  11.8787  11.8999  11.9011  11.9190  11.9203  11.9345  11.9467
    11.9554  11.9693  11.9784  11.9855  12.0620  12.0936  12.1210  12.1474
    12.1858  12.1956  12.2051  12.2080  12.2217  12.2283  12.2517  12.2716
    12.2814  12.3038  12.3087  12.3657  12.3752  12.3887  12.3947  12.4280
    12.4605  12.4684  12.4836  12.4890  12.5113  12.5233  12.5313  12.5622
    12.5729  12.5785  12.5986  12.6269  12.6752  12.6958  12.7301  12.8351
    12.8551  12.8749  12.9807  13.0282  13.0325  13.0809  13.0853  13.1140
    13.1706  13.1774  13.1899  13.2411  13.2645  13.2819  13.3237  13.3391
    13.4375  13.5345  13.5579  13.6075  13.6354  14.4441  14.4752  14.5828
    14.6563  14.6725  14.6844  14.7742  14.8272  14.8582  14.8758  14.9799
    15.0564  15.1087  15.1708  15.2401  15.2700  15.4097  15.4917  15.5602
    15.7047  15.7076  15.8043  15.8158  15.8869  15.9371  15.9574  16.0270
    16.0536  16.0809  16.0809  16.1056  16.1193  16.1367  16.1507  16.1858
    16.2301  16.2414  16.2545  16.2582  16.2684  16.2822  16.3023  16.3842
    16.4531  16.4921  16.5306  16.6114  16.6449  16.7282  16.9759  17.0469
    17.1586  17.2166  17.2440  17.3274  17.4022  17.4416  17.6170  17.6302
    17.7058  17.7450  17.8100  17.8197  17.8656  17.8893  17.9038  17.9296
    17.9398  18.1074  18.1505  18.2052  19.2523  19.2733  19.3396  19.3540

          k = 0.0000-0.5000-0.5734 ( 31696 PWs)   bands (ev):

   -66.7229 -66.7229 -66.7052 -66.7038 -66.7038 -66.6989 -66.6360 -66.6360
   -66.6343 -62.4504 -62.3716 -62.3716 -62.3643 -62.3577 -62.3577 -62.3423
   -62.3423 -62.3232 -35.5152 -35.5152 -35.4917 -35.4917 -35.4887 -35.4753
   -35.4685 -35.4684 -35.4660 -35.4417 -35.4416 -35.4413 -35.4298 -35.4161
   -35.4160 -35.4112 -35.4112 -35.4014 -35.3925 -35.3923 -35.3916 -35.3915
   -35.3827 -35.3771 -35.3540 -35.3539 -35.3503 -31.2916 -31.2766 -31.2534
   -31.2345 -31.2345 -31.2245 -31.1958 -31.1948 -31.1868 -31.1868 -31.1840
   -31.1835 -31.1803 -31.1802 -31.1776 -31.1731 -31.1730 -31.1728 -31.1727
   -31.1697 -31.1681 -31.1680 -31.1641 -31.1475 -31.1461 -31.1460 -31.1284
     6.5531   6.5690   6.5874   6.6071   7.8351   7.8424   7.8633   7.8802
     7.8932   7.9127   7.9236   7.9364   8.2678   8.2718   8.2991   8.3005
     8.5143   8.5169   8.5253   8.5280   8.6406   8.6447   8.6774   8.6808
     8.6919   8.6937   8.6964   8.7095   8.7315   8.7395   8.7478   8.7507
     8.7647   8.7734   8.7889   8.7993   8.9773   8.9928   9.0111   9.0302
     9.0323   9.0403   9.0443   9.0517   9.2074   9.2100   9.2105   9.2162
     9.2164   9.2222   9.2251   9.2370   9.2450   9.2525   9.2542   9.2585
     9.2610   9.2749   9.2807   9.2826   9.2878   9.3092   9.3871   9.3949
     9.4217   9.4222   9.4276   9.4527   9.4620   9.4670   9.4685   9.4785
     9.4878   9.5046   9.5138   9.5158   9.5241   9.5461   9.5487   9.5530
     9.5696   9.5850   9.7535   9.7557   9.7894   9.7956   9.8014   9.8168
     9.8188   9.8263   9.8453   9.8495   9.8532   9.8620   9.8641   9.8722
     9.9562   9.9591   9.9998  10.0080  10.0341  10.0347  10.0410  10.0470
    10.3766  10.3798  10.3845  10.3861  10.4019  10.4056  10.4098  10.4430
    10.4560  10.4639  10.4709  10.4751  10.4810  10.4817  10.5048  10.5092
    10.5195  10.5271  10.5389  10.5671  10.5776  10.5826  10.6068  10.6078
    10.6268  10.6294  10.6672  10.6674  10.6734  10.6759  10.7216  10.7479
    10.7931  10.7935  10.9186  10.9271  10.9895  10.9935  11.0194  11.0297
    11.1210  11.1305  11.1350  11.1444  11.1555  11.1820  11.2027  11.2058
    11.2114  11.2159  11.2685  11.3048  11.3307  11.3329  11.3577  11.3612
    11.3739  11.3785  11.4192  11.4245  11.4324  11.4354  11.5022  11.5141
    11.5316  11.5525  11.5644  11.5723  11.5794  11.6005  11.6210  11.6293
    11.6381  11.6411  11.7283  11.7424  11.7503  11.7599  11.8118  11.8673
    11.8720  11.9236  11.9319  11.9464  11.9511  11.9783  11.9976  11.9978
    12.0220  12.0233  12.0345  12.0372  12.0382  12.0595  12.0866  12.1355
    12.1413  12.1571  12.1890  12.2121  12.2507  12.2711  12.2903  12.2956
    12.3275  12.3407  12.3622  12.3940  12.4124  12.4612  12.4635  12.4719
    12.4839  12.4915  12.5140  12.5206  12.5256  12.5394  12.5637  12.5920
    12.5985  12.6112  12.6260  12.6393  12.6416  12.6488  12.6492  12.7620
    12.8708  12.9093  12.9111  12.9743  12.9747  13.0441  13.0525  13.0755
    13.0776  13.3642  13.3672  13.3710  13.5611  13.6343  13.7340  13.8667
    13.9262  13.9808  13.9964  14.0435  14.1236  14.2391  14.3172  14.4753
    14.4863  14.5433  14.5452  14.5554  14.5825  14.7249  14.7410  14.9385
    15.0604  15.1445  15.2331  15.3177  15.3543  15.4720  15.4924  15.5977
    15.6249  15.7459  15.8210  15.8551  15.8798  15.9104  15.9109  15.9617
    15.9636  16.0257  16.0737  16.1527  16.1580  16.1845  16.1974  16.2472
    16.2771  16.2866  16.3037  16.3473  16.3488  16.3874  16.4252  16.4322
    16.4622  16.4659  16.4844  16.5807  16.6051  16.6147  16.6630  16.6768
    16.7181  16.7505  16.7943  16.8030  16.8705  16.8747  16.9922  17.0631
    17.0919  17.1233  17.2256  17.2836  18.6390  18.6647  18.7438  18.7737
    18.8044  18.8146  18.8400  18.8467  18.8736  18.9073  18.9505  18.9628

          k =-0.5000-0.5000 0.0000 ( 31612 PWs)   bands (ev):

   -66.7229 -66.7229 -66.7052 -66.7038 -66.7038 -66.6989 -66.6360 -66.6360
   -66.6343 -62.4504 -62.3716 -62.3716 -62.3643 -62.3577 -62.3577 -62.3423
   -62.3423 -62.3232 -35.5152 -35.5152 -35.4917 -35.4917 -35.4887 -35.4753
   -35.4685 -35.4684 -35.4660 -35.4417 -35.4416 -35.4413 -35.4298 -35.4161
   -35.4160 -35.4112 -35.4112 -35.4014 -35.3925 -35.3923 -35.3916 -35.3915
   -35.3827 -35.3771 -35.3540 -35.3539 -35.3503 -31.2916 -31.2766 -31.2534
   -31.2345 -31.2344 -31.2245 -31.1957 -31.1948 -31.1868 -31.1868 -31.1840
   -31.1835 -31.1803 -31.1802 -31.1776 -31.1731 -31.1730 -31.1728 -31.1727
   -31.1697 -31.1681 -31.1680 -31.1641 -31.1475 -31.1461 -31.1460 -31.1284
     6.3759   6.4357   6.4457   6.4921   8.0042   8.0094   8.0121   8.0241
     8.0856   8.1106   8.2672   8.3074   8.3134   8.3185   8.3274   8.3316
     8.3455   8.3504   8.3513   8.3782   8.3827   8.4273   8.5828   8.6233
     8.6349   8.6420   8.6846   8.6929   8.6946   8.7089   8.7262   8.7535
     8.7657   8.8066   8.9355   8.9389   8.9491   8.9500   8.9605   8.9724
     8.9753   9.0015   9.0030   9.0061   9.0144   9.0167   9.0172   9.0396
     9.1159   9.1234   9.3041   9.3104   9.3115   9.3207   9.3896   9.4013
     9.4049   9.4126   9.4282   9.4308   9.4309   9.4326   9.4424   9.4479
     9.4497   9.4659   9.4699   9.4783   9.4790   9.4877   9.4951   9.5141
     9.5177   9.5237   9.5378   9.5485   9.5517   9.5751   9.5870   9.5968
     9.6044   9.6090   9.6913   9.6963   9.7348   9.7970   9.8022   9.8157
     9.8272   9.8309   9.8323   9.8404   9.8611   9.8877   9.9628  10.0444
    10.0937  10.1053  10.1110  10.1389  10.1446  10.1464  10.1568  10.1620
    10.1825  10.1892  10.1926  10.2081  10.2129  10.2134  10.2261  10.2288
    10.2297  10.2313  10.2396  10.2605  10.4219  10.4673  10.4678  10.4853
    10.4898  10.4934  10.5063  10.5133  10.5655  10.6121  10.6127  10.6441
    10.6589  10.6599  10.6734  10.7006  10.7054  10.7096  10.7129  10.7167
    10.7747  10.7917  10.7954  10.8121  10.8145  10.8348  10.8627  10.8663
    10.8692  10.9384  11.1913  11.2069  11.2140  11.2246  11.3128  11.3132
    11.3340  11.3382  11.3605  11.3645  11.3686  11.3743  11.5592  11.5837
    11.6184  11.6244  11.6290  11.6424  11.6438  11.6453  11.6467  11.6490
    11.6545  11.6640  11.7016  11.7247  11.7289  11.7363  11.7569  11.7905
    11.8431  11.8745  11.8775  11.8802  11.8827  11.8860  11.8999  11.9588
    11.9973  12.0270  12.0450  12.0587  12.0596  12.0754  12.0932  12.1015
    12.1034  12.1068  12.1092  12.1159  12.1365  12.1527  12.1540  12.1565
    12.1570  12.1595  12.1641  12.1714  12.1860  12.1998  12.2072  12.2394
    12.2611  12.2719  12.2787  12.2828  12.2848  12.2941  12.3046  12.3593
    12.4101  12.4266  12.4315  12.4601  12.4959  12.5172  12.5371  12.5501
    12.5504  12.5542  12.5749  12.5879  12.5959  12.6620  12.6659  12.7170
    12.7319  12.7422  12.7697  12.8086  12.8322  12.8436  12.8477  12.9417
    12.9590  12.9650  13.0224  13.0336  13.1841  13.6507  13.6604  13.6689
    13.6722  13.6849  13.7025  13.8412  13.8554  13.9534  14.1875  14.2848
    14.2914  14.4251  14.4257  14.4585  14.4981  14.5010  14.7142  14.8363
    14.8711  15.0292  15.0922  15.1940  15.3001  15.3486  15.7231  15.7501
    15.7740  15.7819  15.8023  15.8149  15.8966  15.9685  16.0189  16.0450
    16.0629  16.0802  16.0813  16.1018  16.1503  16.1516  16.1567  16.1817
    16.2057  16.2382  16.2538  16.2719  16.2812  16.2962  16.3610  16.3752
    16.3927  16.5563  16.6182  16.6228  16.6637  16.7051  16.7639  16.7702
    16.8326  16.8480  16.8745  16.8922  17.3836  17.3862  17.6942  17.8616
    18.1077  18.1079  18.1803  18.1897  18.2515  18.4321  18.5001  18.5718
    18.6012  18.6171  18.6203  18.6500  18.7561  18.7925  18.7965  18.7984

          k =-0.5000-0.5000-0.5734 ( 31672 PWs)   bands (ev):

   -66.7229 -66.7229 -66.7052 -66.7038 -66.7038 -66.6989 -66.6360 -66.6360
   -66.6343 -62.4504 -62.3716 -62.3716 -62.3643 -62.3577 -62.3577 -62.3423
   -62.3423 -62.3232 -35.5152 -35.5152 -35.4917 -35.4917 -35.4887 -35.4753
   -35.4685 -35.4684 -35.4660 -35.4417 -35.4416 -35.4413 -35.4298 -35.4161
   -35.4160 -35.4112 -35.4112 -35.4014 -35.3925 -35.3923 -35.3916 -35.3915
   -35.3827 -35.3771 -35.3540 -35.3539 -35.3503 -31.2916 -31.2766 -31.2534
   -31.2345 -31.2344 -31.2245 -31.1957 -31.1948 -31.1868 -31.1868 -31.1840
   -31.1835 -31.1803 -31.1802 -31.1776 -31.1731 -31.1730 -31.1728 -31.1727
   -31.1697 -31.1681 -31.1680 -31.1641 -31.1475 -31.1461 -31.1460 -31.1284
     6.8939   6.9071   6.9379   6.9632   6.9737   6.9882   7.0183   7.0350
     8.4523   8.4563   8.4689   8.4765   8.4770   8.4783   8.4864   8.4868
     8.4896   8.4960   8.5233   8.5273   8.5328   8.5389   8.5570   8.5596
     8.5625   8.5908   8.5914   8.5952   8.8657   8.8692   8.8800   8.9026
     8.9194   8.9238   8.9348   8.9385   9.0907   9.1015   9.1145   9.1206
     9.1297   9.1351   9.1374   9.1401   9.1409   9.1443   9.1459   9.1460
     9.1569   9.1649   9.1649   9.1678   9.1693   9.1712   9.1744   9.1754
     9.1792   9.1794   9.1874   9.1933   9.2027   9.2133   9.2144   9.2148
     9.2277   9.2466   9.2482   9.2502   9.2521   9.2573   9.2777   9.2835
     9.5337   9.5459   9.5494   9.5519   9.5998   9.6024   9.6195   9.6311
     9.6661   9.6727   9.6805   9.7058   9.7113   9.7271   9.7375   9.7567
     9.8192   9.8242   9.8469   9.8571   9.8590   9.8681   9.8772   9.8900
    10.1270  10.1337  10.1368  10.1473  10.1589  10.1603  10.1671  10.1694
    10.2853  10.2982  10.4418  10.4462  10.4545  10.4629  10.4673  10.4723
    10.4850  10.4893  10.4948  10.4993  10.5014  10.5016  10.5141  10.5153
    10.5311  10.5320  10.5323  10.5373  10.5445  10.5579  10.5619  10.5656
    10.5783  10.6068  10.6307  10.6401  10.6456  10.6516  10.6545  10.6848
    10.6868  10.6886  10.6988  10.7011  10.7575  10.7641  11.0294  11.0402
    11.0590  11.0600  11.1086  11.1093  11.1326  11.1383  11.3666  11.3719
    11.3863  11.3923  11.4314  11.4360  11.4421  11.4468  11.4603  11.4629
    11.4770  11.4776  11.5001  11.5159  11.5230  11.5370  11.5986  11.6022
    11.6298  11.6318  11.6428  11.6472  11.6556  11.6817  11.6936  11.6973
    11.7239  11.7279  11.7481  11.7550  11.7724  11.7814  11.7834  11.7864
    11.7959  11.8065  11.8238  11.8363  11.8681  11.9127  12.0085  12.0184
    12.0418  12.0466  12.0840  12.1014  12.1176  12.1242  12.1282  12.1566
    12.1613  12.1893  12.1896  12.2052  12.2240  12.2406  12.2563  12.2851
    12.3276  12.3500  12.4212  12.4284  12.4298  12.4398  12.4481  12.4634
    12.4656  12.4911  12.4921  12.4968  12.5007  12.5351  12.5647  12.5678
    12.5778  12.6414  12.6424  12.6886  12.6968  12.7226  12.7612  12.7910
    12.8028  12.8210  13.0169  13.0615  13.0722  13.1728  13.2028  13.2061
    13.2850  13.3676  13.3894  13.3942  13.4064  13.4669  13.4741  13.5346
    13.5483  13.5582  13.6139  13.8052  13.8904  14.0094  14.0369  14.1098
    14.2312  14.5534  14.5711  14.5786  14.6398  14.7179  14.8647  14.8830
    14.9540  15.0640  15.0644  15.2995  15.4313  15.4329  15.4823  15.7917
    15.8101  15.8130  15.8441  15.8519  15.8608  15.9481  15.9736  16.0271
    16.0533  16.0799  16.0989  16.1662  16.1877  16.2189  16.2204  16.2415
    16.2563  16.2839  16.2842  16.3738  16.3776  16.3976  16.3993  16.4417
    16.5430  16.5490  16.6055  16.6089  16.6409  16.6479  16.6702  16.7054
    16.7149  16.7251  16.7720  16.8706  16.8884  16.8905  16.9457  16.9657
    17.0426  17.0515  17.6804  17.7957  17.7994  17.8499  19.0136  19.0300
    19.0317  19.0913  19.0981  19.1789  19.1849  19.2163  19.2540  19.3447

     the Fermi energy is    14.8164 ev

!    total energy              =  -33062.56565498 Ry
     Harris-Foulkes estimate   =  -33062.56563829 Ry
     estimated scf accuracy    <       0.00000069 Ry

     total all-electron energy =  -1410574.656029 Ry

     The total energy is the sum of the following terms:

     one-electron contribution =   -1645.76179471 Ry
     hartree contribution      =    1490.00216929 Ry
     xc contribution           =   -1658.73918117 Ry
     ewald contribution        =   -4919.25534656 Ry
     one-center paw contrib.   =  -26328.81150184 Ry

     total magnetization       =    -0.62 Bohr mag/cell
     absolute magnetization    =    78.24 Bohr mag/cell

     convergence has been achieved in  21 iterations

     Writing output data file mnau2.save
 
     init_run     :     40.57s CPU     41.24s WALL (       1 calls)
     electrons    :   2379.87s CPU   2421.38s WALL (       1 calls)

     Called by init_run:
     wfcinit      :     34.67s CPU     35.08s WALL (       1 calls)
     potinit      :      2.45s CPU      2.51s WALL (       1 calls)

     Called by electrons:
     c_bands      :   2101.34s CPU   2134.29s WALL (      21 calls)
     sum_band     :    223.12s CPU    228.47s WALL (      21 calls)
     v_of_rho     :      5.67s CPU      5.82s WALL (      22 calls)
     newd         :     17.93s CPU     20.36s WALL (      22 calls)
     PAW_pot      :     32.57s CPU     33.10s WALL (      22 calls)
     mix_rho      :      1.11s CPU      1.19s WALL (      21 calls)

     Called by c_bands:
     init_us_2    :      7.83s CPU      7.87s WALL (     516 calls)
     cegterg      :   2051.69s CPU   2084.01s WALL (     252 calls)

     Called by sum_band:
     sum_band:bec :      1.27s CPU      1.27s WALL (     252 calls)
     addusdens    :     31.73s CPU     34.59s WALL (      21 calls)

     Called by *egterg:
     h_psi        :    725.88s CPU    733.67s WALL (     987 calls)
     s_psi        :    177.06s CPU    177.21s WALL (     987 calls)
     g_psi        :      2.74s CPU      2.75s WALL (     723 calls)
     cdiaghg      :    728.99s CPU    729.40s WALL (     975 calls)

     Called by h_psi:
     h_psi:pot    :    720.24s CPU    727.98s WALL (     987 calls)
     h_psi:calbec :    177.09s CPU    179.13s WALL (     987 calls)
     vloc_psi     :    366.23s CPU    371.75s WALL (     987 calls)
     add_vuspsi   :    176.90s CPU    177.10s WALL (     987 calls)

     General routines
     calbec       :    252.26s CPU    255.15s WALL (    1239 calls)
     fft          :      4.83s CPU      5.16s WALL (     672 calls)
     ffts         :      0.11s CPU      0.11s WALL (      86 calls)
     fftw         :    340.47s CPU    345.62s WALL (  565916 calls)
     interpolate  :      0.82s CPU      0.87s WALL (      86 calls)
 
     Parallel routines
     fft_scatt_xy :     43.54s CPU     44.02s WALL (  566674 calls)
     fft_scatt_yz :     86.07s CPU     88.49s WALL (  566674 calls)
 
     PWSCF        : 40m25.46s CPU    41m19.26s WALL

 
   This run was terminated on:   0:59: 3   8Mar2019            

=------------------------------------------------------------------------------=
   JOB DONE.
=------------------------------------------------------------------------------=
