
     Program PWSCF v.6.2 (svn rev. 14038) starts on  8Mar2019 at  0:59: 4 

     This program is part of the open-source Quantum ESPRESSO suite
     for quantum simulation of materials; please cite
         "P. Giannozzi et al., J. Phys.:Condens. Matter 21 395502 (2009);
         "P. Giannozzi et al., J. Phys.:Condens. Matter 29 465901 (2017);
          URL http://www.quantum-espresso.org", 
     in publications or presentations arising from this work. More details at
     http://www.quantum-espresso.org/quote

     Parallel version (MPI), running on    16 processors

     MPI processes distributed on     1 nodes
     R & G space division:  proc/nbgrp/npool/nimage =      16
     Waiting for input...
     Reading input from standard input

     Current dimensions of program PWSCF are:
     Max number of different atomic species (ntypx) = 10
     Max number of k-points (npk) =  40000
     Max angular momentum in pseudopotentials (lmaxx) =  3
               file Mn.pbe-spn-kjpaw_psl.0.3.1.UPF: wavefunction(s)  3P 3D renormalized
               file Mn.pbe-spn-kjpaw_psl.0.3.1.UPF: wavefunction(s)  3P 3D renormalized
               file Au.pbe-dn-kjpaw_psl.0.1.UPF: wavefunction(s)  6S 6P 5D renormalized

     Subspace diagonalization in iterative solution of the eigenvalue problem:
     a serial algorithm will be used

 
     Parallelization info
     --------------------
     sticks:   dense  smooth     PW     G-vecs:    dense   smooth      PW
     Min         736     331     90                52486    15847    2256
     Max         737     332     91                52489    15850    2259
     Sum       11785    5297   1449               839803   253559   36125
 


     bravais-lattice index     =            0
     lattice parameter (alat)  =      19.2459  a.u.
     unit-cell volume          =    6216.1497 (a.u.)^3
     number of atoms/cell      =           54
     number of atomic types    =            3
     number of electrons       =       666.00
     number of Kohn-Sham states=          400
     kinetic-energy cutoff     =      45.0000  Ry
     charge density cutoff     =     400.0000  Ry
     convergence threshold     =      1.0E-06
     mixing beta               =       0.1000
     number of iterations used =            8  plain     mixing
     Exchange-correlation      = SLA PW PBX PBC ( 1  4  3  4 0 0)

     celldm(1)=  19.245946  celldm(2)=   0.000000  celldm(3)=   0.000000
     celldm(4)=   0.000000  celldm(5)=   0.000000  celldm(6)=   0.000000

     crystal axes: (cart. coord. in units of alat)
               a(1) = (   1.000000   0.000000   0.000000 )  
               a(2) = (   0.000000   1.000000   0.000000 )  
               a(3) = (   0.000000   0.000000   0.871974 )  

     reciprocal axes: (cart. coord. in units 2 pi/alat)
               b(1) = (  1.000000  0.000000  0.000000 )  
               b(2) = (  0.000000  1.000000  0.000000 )  
               b(3) = (  0.000000  0.000000  1.146823 )  


     PseudoPot. # 1 for Mn read from file:
     ./pseudo/Mn.pbe-spn-kjpaw_psl.0.3.1.UPF
     MD5 check sum: 7eef95dd2aae66803482eea66ebeebf1
     Pseudo is Projector augmented-wave + core cor, Zval = 15.0
     Generated using "atomic" code by A. Dal Corso v.5.0.99 svn rev. 10869
     Shape of augmentation charge: PSQ
     Using radial grid of 1187 points,  6 beta functions with: 
                l(1) =   0
                l(2) =   0
                l(3) =   1
                l(4) =   1
                l(5) =   2
                l(6) =   2
     Q(r) pseudized with 0 coefficients 


     PseudoPot. # 2 for Mn read from file:
     ./pseudo/Mn.pbe-spn-kjpaw_psl.0.3.1.UPF
     MD5 check sum: 7eef95dd2aae66803482eea66ebeebf1
     Pseudo is Projector augmented-wave + core cor, Zval = 15.0
     Generated using "atomic" code by A. Dal Corso v.5.0.99 svn rev. 10869
     Shape of augmentation charge: PSQ
     Using radial grid of 1187 points,  6 beta functions with: 
                l(1) =   0
                l(2) =   0
                l(3) =   1
                l(4) =   1
                l(5) =   2
                l(6) =   2
     Q(r) pseudized with 0 coefficients 


     PseudoPot. # 3 for Au read from file:
     ./pseudo/Au.pbe-dn-kjpaw_psl.0.1.UPF
     MD5 check sum: 5c9b92683623e7ae2ab3f8e525febab6
     Pseudo is Projector augmented-wave + core cor, Zval = 11.0
     Generated using "atomic" code by A. Dal Corso v.5.0.2 svn rev. 9415
     Shape of augmentation charge: PSQ
     Using radial grid of 1279 points,  6 beta functions with: 
                l(1) =   0
                l(2) =   0
                l(3) =   1
                l(4) =   1
                l(5) =   2
                l(6) =   2
     Q(r) pseudized with 0 coefficients 


     atomic species   valence    mass     pseudopotential
        Mn1           15.00    54.93800     Mn( 1.00)
        Mn2           15.00    54.93800     Mn( 1.00)
        Au            11.00   196.96600     Au( 1.00)

     Starting magnetic structure 
     atomic species   magnetization
        Mn1          0.800
        Mn2         -0.800
        Au           0.000

      4 Sym. Ops. (no inversion) found



   Cartesian axes

     site n.     atom                  positions (alat units)
         1           Mn1 tau(   1) = (   0.0000000   0.0000000   0.0000000  )
         2           Mn1 tau(   2) = (   0.0000000   0.3333300   0.0000000  )
         3           Mn2 tau(   3) = (   0.0000000   0.6666700   0.0000000  )
         4           Mn1 tau(   4) = (   0.3333300   0.0000000   0.0000000  )
         5           Mn2 tau(   5) = (   0.3333300   0.3333300   0.0000000  )
         6           Mn2 tau(   6) = (   0.3333300   0.6666700   0.0000000  )
         7           Mn2 tau(   7) = (   0.6666700   0.0000000   0.0000000  )
         8           Mn2 tau(   8) = (   0.6666700   0.3333300   0.0000000  )
         9           Mn2 tau(   9) = (   0.6666700   0.6666700   0.0000000  )
        10           Mn2 tau(  10) = (   0.1666700   0.1666700   0.4359871  )
        11           Mn2 tau(  11) = (   0.1666700   0.5000000   0.4359871  )
        12           Mn1 tau(  12) = (   0.1666700   0.8333300   0.4359871  )
        13           Mn2 tau(  13) = (   0.5000000   0.1666700   0.4359871  )
        14           Mn1 tau(  14) = (   0.5000000   0.5000000   0.4359871  )
        15           Mn1 tau(  15) = (   0.5000000   0.8333300   0.4359871  )
        16           Mn1 tau(  16) = (   0.8333300   0.1666700   0.4359871  )
        17           Mn1 tau(  17) = (   0.8333300   0.5000000   0.4359871  )
        18           Mn1 tau(  18) = (   0.8333300   0.8333300   0.4359871  )
        19           Au  tau(  19) = (   0.1666700   0.1666700   0.7327374  )
        20           Au  tau(  20) = (   0.1666700   0.5000000   0.7327374  )
        21           Au  tau(  21) = (   0.1666700   0.8333300   0.7327374  )
        22           Au  tau(  22) = (   0.5000000   0.1666700   0.7327374  )
        23           Au  tau(  23) = (   0.5000000   0.5000000   0.7327374  )
        24           Au  tau(  24) = (   0.5000000   0.8333300   0.7327374  )
        25           Au  tau(  25) = (   0.8333300   0.1666700   0.7327374  )
        26           Au  tau(  26) = (   0.8333300   0.5000000   0.7327374  )
        27           Au  tau(  27) = (   0.8333300   0.8333300   0.7327374  )
        28           Au  tau(  28) = (   0.1666700   0.1666700   0.1392369  )
        29           Au  tau(  29) = (   0.1666700   0.5000000   0.1392369  )
        30           Au  tau(  30) = (   0.1666700   0.8333300   0.1392369  )
        31           Au  tau(  31) = (   0.5000000   0.1666700   0.1392369  )
        32           Au  tau(  32) = (   0.5000000   0.5000000   0.1392369  )
        33           Au  tau(  33) = (   0.5000000   0.8333300   0.1392369  )
        34           Au  tau(  34) = (   0.8333300   0.1666700   0.1392369  )
        35           Au  tau(  35) = (   0.8333300   0.5000000   0.1392369  )
        36           Au  tau(  36) = (   0.8333300   0.8333300   0.1392369  )
        37           Au  tau(  37) = (   0.0000000   0.0000000   0.2967503  )
        38           Au  tau(  38) = (   0.0000000   0.3333300   0.2967503  )
        39           Au  tau(  39) = (   0.0000000   0.6666700   0.2967503  )
        40           Au  tau(  40) = (   0.3333300   0.0000000   0.2967503  )
        41           Au  tau(  41) = (   0.3333300   0.3333300   0.2967503  )
        42           Au  tau(  42) = (   0.3333300   0.6666700   0.2967503  )
        43           Au  tau(  43) = (   0.6666700   0.0000000   0.2967503  )
        44           Au  tau(  44) = (   0.6666700   0.3333300   0.2967503  )
        45           Au  tau(  45) = (   0.6666700   0.6666700   0.2967503  )
        46           Au  tau(  46) = (   0.0000000   0.0000000   0.5752240  )
        47           Au  tau(  47) = (   0.0000000   0.3333300   0.5752240  )
        48           Au  tau(  48) = (   0.0000000   0.6666700   0.5752240  )
        49           Au  tau(  49) = (   0.3333300   0.0000000   0.5752240  )
        50           Au  tau(  50) = (   0.3333300   0.3333300   0.5752240  )
        51           Au  tau(  51) = (   0.3333300   0.6666700   0.5752240  )
        52           Au  tau(  52) = (   0.6666700   0.0000000   0.5752240  )
        53           Au  tau(  53) = (   0.6666700   0.3333300   0.5752240  )
        54           Au  tau(  54) = (   0.6666700   0.6666700   0.5752240  )

     number of k points=     6 (tetrahedron method)
                       cart. coord. in units 2pi/alat
        k(    1) = (   0.0000000   0.0000000   0.0000000), wk =   0.1250000
        k(    2) = (   0.0000000   0.0000000  -0.5734114), wk =   0.1250000
        k(    3) = (   0.0000000  -0.5000000   0.0000000), wk =   0.2500000
        k(    4) = (   0.0000000  -0.5000000  -0.5734114), wk =   0.2500000
        k(    5) = (  -0.5000000  -0.5000000   0.0000000), wk =   0.1250000
        k(    6) = (  -0.5000000  -0.5000000  -0.5734114), wk =   0.1250000

     Dense  grid:   839803 G-vectors     FFT dimensions: ( 125, 125, 108)

     Smooth grid:   253559 G-vectors     FFT dimensions: (  90,  90,  72)

     Estimated max dynamical RAM per process >     521.79 MB

     Estimated total dynamical RAM >       8.15 GB
     Generating pointlists ...
     new r_m :   0.1129 (alat units)  2.1733 (a.u.) for type    1
     new r_m :   0.1129 (alat units)  2.1733 (a.u.) for type    2
     new r_m :   0.1129 (alat units)  2.1733 (a.u.) for type    3

     Check: negative/imaginary core charge=   -0.000006    0.000000

     Initial potential from superposition of free atoms

     starting charge  665.98709, renormalised to  666.00000
     Starting wfc are  504 randomized atomic wfcs
     Checking if some PAW data can be deallocated... 

     total cpu time spent up to now is       44.8 secs

     Self-consistent Calculation

     iteration #  1     ecut=    45.00 Ry     beta= 0.10
     Davidson diagonalization with overlap
     ethr =  1.00E-02,  avg # of iterations =  3.5

     total cpu time spent up to now is      171.3 secs

     total energy              =  -33047.18424843 Ry
     Harris-Foulkes estimate   =  -33044.02950851 Ry
     estimated scf accuracy    <      27.00566104 Ry

     total magnetization       =    -0.04 Bohr mag/cell
     absolute magnetization    =    92.17 Bohr mag/cell

     iteration #  2     ecut=    45.00 Ry     beta= 0.10
     Davidson diagonalization with overlap
     ethr =  4.05E-03,  avg # of iterations =  1.0

     total cpu time spent up to now is      254.2 secs

     total energy              =  -33058.57500794 Ry
     Harris-Foulkes estimate   =  -33047.36290351 Ry
     estimated scf accuracy    <      21.36184136 Ry

     total magnetization       =    -0.06 Bohr mag/cell
     absolute magnetization    =    91.76 Bohr mag/cell

     iteration #  3     ecut=    45.00 Ry     beta= 0.10
     Davidson diagonalization with overlap
     ethr =  3.21E-03,  avg # of iterations =  2.1

     total cpu time spent up to now is      355.1 secs

     total energy              =  -33066.26418362 Ry
     Harris-Foulkes estimate   =  -33061.37240300 Ry
     estimated scf accuracy    <       8.81100947 Ry

     total magnetization       =    -0.22 Bohr mag/cell
     absolute magnetization    =    85.69 Bohr mag/cell

     iteration #  4     ecut=    45.00 Ry     beta= 0.10
     Davidson diagonalization with overlap
     ethr =  1.32E-03,  avg # of iterations =  4.2

     total cpu time spent up to now is      510.7 secs

     total energy              =  -33059.06843507 Ry
     Harris-Foulkes estimate   =  -33068.97491150 Ry
     estimated scf accuracy    <      52.74787756 Ry

     total magnetization       =    -0.25 Bohr mag/cell
     absolute magnetization    =    71.54 Bohr mag/cell

     iteration #  5     ecut=    45.00 Ry     beta= 0.10
     Davidson diagonalization with overlap
     ethr =  1.32E-03,  avg # of iterations =  5.0

     total cpu time spent up to now is      689.7 secs

     total energy              =  -33061.78699097 Ry
     Harris-Foulkes estimate   =  -33062.68551381 Ry
     estimated scf accuracy    <       4.15314568 Ry

     total magnetization       =    -0.18 Bohr mag/cell
     absolute magnetization    =    83.44 Bohr mag/cell

     iteration #  6     ecut=    45.00 Ry     beta= 0.10
     Davidson diagonalization with overlap
     ethr =  6.24E-04,  avg # of iterations =  4.3

     total cpu time spent up to now is      826.9 secs

     total energy              =  -33062.56294249 Ry
     Harris-Foulkes estimate   =  -33062.59776085 Ry
     estimated scf accuracy    <       0.51226905 Ry

     total magnetization       =    -0.10 Bohr mag/cell
     absolute magnetization    =    79.21 Bohr mag/cell

     iteration #  7     ecut=    45.00 Ry     beta= 0.10
     Davidson diagonalization with overlap
     ethr =  7.69E-05,  avg # of iterations =  2.1

     total cpu time spent up to now is      921.9 secs

     total energy              =  -33062.58032568 Ry
     Harris-Foulkes estimate   =  -33062.58898023 Ry
     estimated scf accuracy    <       0.17784853 Ry

     total magnetization       =    -0.18 Bohr mag/cell
     absolute magnetization    =    78.89 Bohr mag/cell

     iteration #  8     ecut=    45.00 Ry     beta= 0.10
     Davidson diagonalization with overlap
     ethr =  2.67E-05,  avg # of iterations =  2.6

     total cpu time spent up to now is     1021.7 secs

     total energy              =  -33062.57568289 Ry
     Harris-Foulkes estimate   =  -33062.58497814 Ry
     estimated scf accuracy    <       0.12953481 Ry

     total magnetization       =    -0.22 Bohr mag/cell
     absolute magnetization    =    78.48 Bohr mag/cell

     iteration #  9     ecut=    45.00 Ry     beta= 0.10
     Davidson diagonalization with overlap
     ethr =  1.94E-05,  avg # of iterations =  1.4

     total cpu time spent up to now is     1108.1 secs

     total energy              =  -33062.57941441 Ry
     Harris-Foulkes estimate   =  -33062.58223131 Ry
     estimated scf accuracy    <       0.04951401 Ry

     total magnetization       =    -0.23 Bohr mag/cell
     absolute magnetization    =    78.97 Bohr mag/cell

     iteration # 10     ecut=    45.00 Ry     beta= 0.10
     Davidson diagonalization with overlap
     ethr =  7.43E-06,  avg # of iterations =  3.8

     total cpu time spent up to now is     1223.9 secs

     total energy              =  -33062.58213649 Ry
     Harris-Foulkes estimate   =  -33062.58253119 Ry
     estimated scf accuracy    <       0.00825442 Ry

     total magnetization       =    -0.29 Bohr mag/cell
     absolute magnetization    =    78.91 Bohr mag/cell

     iteration # 11     ecut=    45.00 Ry     beta= 0.10
     Davidson diagonalization with overlap
     ethr =  1.24E-06,  avg # of iterations =  5.8

     total cpu time spent up to now is     1390.2 secs

     total energy              =  -33062.58338384 Ry
     Harris-Foulkes estimate   =  -33062.58374780 Ry
     estimated scf accuracy    <       0.00383712 Ry

     total magnetization       =    -0.30 Bohr mag/cell
     absolute magnetization    =    78.95 Bohr mag/cell

     iteration # 12     ecut=    45.00 Ry     beta= 0.10
     Davidson diagonalization with overlap
     ethr =  5.76E-07,  avg # of iterations =  3.1

     total cpu time spent up to now is     1503.6 secs

     total energy              =  -33062.58509079 Ry
     Harris-Foulkes estimate   =  -33062.58443689 Ry
     estimated scf accuracy    <       0.00283140 Ry

     total magnetization       =    -0.29 Bohr mag/cell
     absolute magnetization    =    78.94 Bohr mag/cell

     iteration # 13     ecut=    45.00 Ry     beta= 0.10
     Davidson diagonalization with overlap
     ethr =  4.25E-07,  avg # of iterations =  2.1

     total cpu time spent up to now is     1602.3 secs

     total energy              =  -33062.58545073 Ry
     Harris-Foulkes estimate   =  -33062.58511972 Ry
     estimated scf accuracy    <       0.00034786 Ry

     total magnetization       =    -0.30 Bohr mag/cell
     absolute magnetization    =    78.77 Bohr mag/cell

     iteration # 14     ecut=    45.00 Ry     beta= 0.10
     Davidson diagonalization with overlap
     ethr =  5.22E-08,  avg # of iterations =  3.0

     total cpu time spent up to now is     1707.7 secs

     total energy              =  -33062.58561030 Ry
     Harris-Foulkes estimate   =  -33062.58548342 Ry
     estimated scf accuracy    <       0.00019001 Ry

     total magnetization       =    -0.30 Bohr mag/cell
     absolute magnetization    =    78.75 Bohr mag/cell

     iteration # 15     ecut=    45.00 Ry     beta= 0.10
     Davidson diagonalization with overlap
     ethr =  2.85E-08,  avg # of iterations =  1.8

     total cpu time spent up to now is     1797.3 secs

     total energy              =  -33062.58573341 Ry
     Harris-Foulkes estimate   =  -33062.58559399 Ry
     estimated scf accuracy    <       0.00012576 Ry

     total magnetization       =    -0.30 Bohr mag/cell
     absolute magnetization    =    78.72 Bohr mag/cell

     iteration # 16     ecut=    45.00 Ry     beta= 0.10
     Davidson diagonalization with overlap
     ethr =  1.89E-08,  avg # of iterations =  2.2

     total cpu time spent up to now is     1895.1 secs

     total energy              =  -33062.58581457 Ry
     Harris-Foulkes estimate   =  -33062.58571904 Ry
     estimated scf accuracy    <       0.00005343 Ry

     total magnetization       =    -0.30 Bohr mag/cell
     absolute magnetization    =    78.71 Bohr mag/cell

     iteration # 17     ecut=    45.00 Ry     beta= 0.10
     Davidson diagonalization with overlap
     ethr =  8.02E-09,  avg # of iterations =  2.9

     total cpu time spent up to now is     2009.8 secs

     total energy              =  -33062.58582672 Ry
     Harris-Foulkes estimate   =  -33062.58578933 Ry
     estimated scf accuracy    <       0.00002235 Ry

     total magnetization       =    -0.31 Bohr mag/cell
     absolute magnetization    =    78.69 Bohr mag/cell

     iteration # 18     ecut=    45.00 Ry     beta= 0.10
     Davidson diagonalization with overlap
     ethr =  3.36E-09,  avg # of iterations =  3.0

     total cpu time spent up to now is     2136.8 secs

     total energy              =  -33062.58581463 Ry
     Harris-Foulkes estimate   =  -33062.58580325 Ry
     estimated scf accuracy    <       0.00000557 Ry

     total magnetization       =    -0.31 Bohr mag/cell
     absolute magnetization    =    78.67 Bohr mag/cell

     iteration # 19     ecut=    45.00 Ry     beta= 0.10
     Davidson diagonalization with overlap
     ethr =  8.37E-10,  avg # of iterations =  2.4

     total cpu time spent up to now is     2238.0 secs

     total energy              =  -33062.58581668 Ry
     Harris-Foulkes estimate   =  -33062.58580965 Ry
     estimated scf accuracy    <       0.00000263 Ry

     total magnetization       =    -0.31 Bohr mag/cell
     absolute magnetization    =    78.66 Bohr mag/cell

     iteration # 20     ecut=    45.00 Ry     beta= 0.10
     Davidson diagonalization with overlap
     ethr =  3.94E-10,  avg # of iterations =  2.3

     total cpu time spent up to now is     2340.2 secs

     total energy              =  -33062.58581663 Ry
     Harris-Foulkes estimate   =  -33062.58581091 Ry
     estimated scf accuracy    <       0.00000147 Ry

     total magnetization       =    -0.31 Bohr mag/cell
     absolute magnetization    =    78.66 Bohr mag/cell

     iteration # 21     ecut=    45.00 Ry     beta= 0.10
     Davidson diagonalization with overlap
     ethr =  2.21E-10,  avg # of iterations =  3.1
 
     Magnetic moment per site:
     atom:    1    charge:   13.5825    magn:    3.9556    constr:    0.0000
     atom:    2    charge:   13.5752    magn:    4.0450    constr:    0.0000
     atom:    3    charge:   13.5724    magn:   -4.0435    constr:    0.0000
     atom:    4    charge:   13.5752    magn:    4.0450    constr:    0.0000
     atom:    5    charge:   13.5803    magn:   -3.9652    constr:    0.0000
     atom:    6    charge:   13.5777    magn:   -3.9879    constr:    0.0000
     atom:    7    charge:   13.5724    magn:   -4.0435    constr:    0.0000
     atom:    8    charge:   13.5777    magn:   -3.9879    constr:    0.0000
     atom:    9    charge:   13.5713    magn:   -4.0317    constr:    0.0000
     atom:   10    charge:   13.5698    magn:   -4.0421    constr:    0.0000
     atom:   11    charge:   13.5757    magn:   -4.0248    constr:    0.0000
     atom:   12    charge:   13.5806    magn:    3.9613    constr:    0.0000
     atom:   13    charge:   13.5757    magn:   -4.0248    constr:    0.0000
     atom:   14    charge:   13.5689    magn:    4.0677    constr:    0.0000
     atom:   15    charge:   13.5754    magn:    4.0042    constr:    0.0000
     atom:   16    charge:   13.5806    magn:    3.9613    constr:    0.0000
     atom:   17    charge:   13.5754    magn:    4.0042    constr:    0.0000
     atom:   18    charge:   13.5812    magn:    3.9506    constr:    0.0000
     atom:   19    charge:    9.1215    magn:    0.0153    constr:    0.0000
     atom:   20    charge:    9.1201    magn:   -0.0424    constr:    0.0000
     atom:   21    charge:    9.1195    magn:    0.0034    constr:    0.0000
     atom:   22    charge:    9.1201    magn:   -0.0424    constr:    0.0000
     atom:   23    charge:    9.1200    magn:   -0.0488    constr:    0.0000
     atom:   24    charge:    9.1209    magn:   -0.0159    constr:    0.0000
     atom:   25    charge:    9.1195    magn:    0.0034    constr:    0.0000
     atom:   26    charge:    9.1209    magn:   -0.0159    constr:    0.0000
     atom:   27    charge:    9.1217    magn:   -0.0219    constr:    0.0000
     atom:   28    charge:    9.1215    magn:    0.0153    constr:    0.0000
     atom:   29    charge:    9.1201    magn:   -0.0424    constr:    0.0000
     atom:   30    charge:    9.1195    magn:    0.0034    constr:    0.0000
     atom:   31    charge:    9.1201    magn:   -0.0424    constr:    0.0000
     atom:   32    charge:    9.1200    magn:   -0.0488    constr:    0.0000
     atom:   33    charge:    9.1209    magn:   -0.0159    constr:    0.0000
     atom:   34    charge:    9.1195    magn:    0.0034    constr:    0.0000
     atom:   35    charge:    9.1209    magn:   -0.0159    constr:    0.0000
     atom:   36    charge:    9.1217    magn:   -0.0219    constr:    0.0000
     atom:   37    charge:    9.1200    magn:    0.0423    constr:    0.0000
     atom:   38    charge:    9.1205    magn:    0.0096    constr:    0.0000
     atom:   39    charge:    9.1202    magn:    0.0111    constr:    0.0000
     atom:   40    charge:    9.1205    magn:    0.0096    constr:    0.0000
     atom:   41    charge:    9.1204    magn:   -0.0372    constr:    0.0000
     atom:   42    charge:    9.1204    magn:    0.0185    constr:    0.0000
     atom:   43    charge:    9.1202    magn:    0.0111    constr:    0.0000
     atom:   44    charge:    9.1204    magn:    0.0185    constr:    0.0000
     atom:   45    charge:    9.1207    magn:    0.0446    constr:    0.0000
     atom:   46    charge:    9.1200    magn:    0.0423    constr:    0.0000
     atom:   47    charge:    9.1205    magn:    0.0096    constr:    0.0000
     atom:   48    charge:    9.1202    magn:    0.0111    constr:    0.0000
     atom:   49    charge:    9.1205    magn:    0.0096    constr:    0.0000
     atom:   50    charge:    9.1204    magn:   -0.0372    constr:    0.0000
     atom:   51    charge:    9.1204    magn:    0.0185    constr:    0.0000
     atom:   52    charge:    9.1202    magn:    0.0111    constr:    0.0000
     atom:   53    charge:    9.1204    magn:    0.0185    constr:    0.0000
     atom:   54    charge:    9.1207    magn:    0.0446    constr:    0.0000

     total cpu time spent up to now is     2469.7 secs

     End of self-consistent calculation

 ------ SPIN UP ------------


          k = 0.0000 0.0000 0.0000 ( 31747 PWs)   bands (ev):

   -66.7752 -66.7062 -66.7062 -66.6678 -66.6678 -66.6357 -66.6357 -66.6162
   -66.5874 -62.4100 -62.3940 -62.3940 -62.3899 -62.3627 -62.3627 -62.3503
   -62.3503 -62.3230 -35.5332 -35.5257 -35.4959 -35.4691 -35.4689 -35.4561
   -35.4560 -35.4366 -35.4365 -35.4219 -35.4218 -35.4160 -35.4160 -35.3938
   -35.3938 -35.3883 -35.3883 -35.3857 -35.3855 -35.3674 -35.3644 -35.3621
   -35.3572 -35.3540 -35.3515 -35.3414 -35.2870 -31.2480 -31.2412 -31.2411
   -31.2338 -31.2223 -31.2207 -31.2159 -31.2113 -31.2104 -31.2082 -31.2042
   -31.2041 -31.1981 -31.1981 -31.1966 -31.1966 -31.1903 -31.1902 -31.1729
   -31.1728 -31.1697 -31.1696 -31.1646 -31.1614 -31.1613 -31.1409 -31.1397
     5.6162   7.1384   7.1593   7.2039   7.2184   7.3650   7.8449   7.8954
     7.9184   7.9482   8.0819   8.0903   8.1434   8.1827   8.1832   8.2507
     8.2508   8.3020   8.3062   8.5125   8.5567   8.5588   8.5707   8.5916
     8.6256   8.8565   8.8612   8.8639   8.8721   8.8840   8.8876   8.8968
     8.8969   8.9074   8.9115   8.9221   8.9364   8.9589   8.9730   8.9805
     8.9840   9.0836   9.1199   9.1255   9.1290   9.1365   9.1494   9.1585
     9.1981   9.1988   9.2165   9.2671   9.2864   9.2931   9.3072   9.3457
     9.3479   9.3665   9.3691   9.3747   9.3831   9.3991   9.3999   9.4332
     9.4399   9.4511   9.4557   9.4624   9.4683   9.4687   9.4893   9.5792
     9.5800   9.5862   9.5942   9.5943   9.6100   9.6680   9.6689   9.6705
     9.6723   9.6758   9.6882   9.7353   9.7625   9.7741   9.8020   9.8487
     9.8510   9.9072   9.9120   9.9481   9.9536   9.9541  10.0199  10.0445
    10.0877  10.1159  10.1337  10.1750  10.2863  10.2865  10.2937  10.2971
    10.3006  10.3016  10.3055  10.3219  10.3222  10.3330  10.3382  10.3409
    10.3437  10.3499  10.3516  10.3634  10.3658  10.3752  10.3764  10.3834
    10.4045  10.5101  10.5200  10.5425  10.6151  10.6163  10.6253  10.6591
    10.6772  10.7837  10.7882  10.8052  10.8116  10.8249  10.8283  10.8374
    10.8532  10.8584  10.8622  10.8750  10.8765  10.8879  10.8906  10.8989
    10.9116  10.9206  11.0147  11.0244  11.0875  11.0920  11.2075  11.2199
    11.2236  11.2295  11.2317  11.2602  11.2748  11.2852  11.3304  11.3309
    11.3507  11.3782  11.3846  11.3968  11.4000  11.4042  11.4074  11.4287
    11.4453  11.5108  11.5522  11.5911  11.5911  11.5949  11.5975  11.6204
    11.6894  11.7076  11.7094  11.7251  11.7308  11.7446  11.7517  11.7578
    11.8284  11.8360  11.8575  11.8708  11.8846  11.9202  11.9247  11.9429
    11.9492  12.0752  12.1013  12.1020  12.1025  12.1032  12.1055  12.1413
    12.1432  12.1472  12.1473  12.1481  12.1524  12.1665  12.1796  12.2039
    12.2699  12.2729  12.2936  12.3387  12.3548  12.3827  12.4022  12.4325
    12.4345  12.4392  12.4534  12.4670  12.5086  12.5107  12.5169  12.5261
    12.5408  12.5443  12.5450  12.5618  12.5897  12.6089  12.6299  12.6463
    12.7295  12.7436  12.7518  12.7728  12.8472  12.8967  13.0337  13.0882
    13.1107  13.1468  13.1756  13.1950  13.4330  13.5385  13.7799  13.8665
    13.8801  14.0889  14.0939  14.1863  14.2385  14.3927  14.4118  14.6570
    14.7165  14.8406  14.8717  14.9653  15.0331  15.0846  15.1181  15.2779
    15.2798  15.2799  15.3181  15.3562  15.4579  15.4819  15.5043  15.6358
    15.6593  15.6594  15.6893  15.7926  15.8212  15.8498  15.9145  15.9724
    16.0070  16.0511  16.0535  16.0922  16.1382  16.1590  16.1787  16.1880
    16.2343  16.2633  16.2929  16.3060  16.3303  16.3575  16.3660  16.4177
    16.4531  16.4601  16.4888  16.5917  16.6042  16.6367  16.8090  16.8438
    16.9087  17.0329  17.1876  17.1892  17.1976  17.2363  17.2434  17.3240
    17.4887  17.5677  17.8333  17.8988  17.9274  17.9372  17.9788  18.0636
    18.2457  18.2886  18.4582  18.9004  18.9989  19.0081  19.1829  19.2019

          k = 0.0000 0.0000-0.5734 ( 31692 PWs)   bands (ev):

   -66.7752 -66.7062 -66.7062 -66.6678 -66.6678 -66.6357 -66.6357 -66.6162
   -66.5874 -62.4100 -62.3940 -62.3940 -62.3899 -62.3627 -62.3627 -62.3503
   -62.3503 -62.3230 -35.5332 -35.5257 -35.4959 -35.4691 -35.4689 -35.4561
   -35.4560 -35.4366 -35.4365 -35.4219 -35.4218 -35.4160 -35.4160 -35.3938
   -35.3938 -35.3883 -35.3883 -35.3857 -35.3855 -35.3674 -35.3644 -35.3621
   -35.3572 -35.3540 -35.3515 -35.3414 -35.2870 -31.2480 -31.2412 -31.2411
   -31.2338 -31.2223 -31.2207 -31.2159 -31.2113 -31.2104 -31.2082 -31.2042
   -31.2041 -31.1981 -31.1981 -31.1966 -31.1966 -31.1903 -31.1902 -31.1729
   -31.1728 -31.1697 -31.1696 -31.1646 -31.1614 -31.1613 -31.1409 -31.1397
     6.1544   6.2177   7.5235   7.5473   7.5664   7.5840   7.5860   7.5958
     7.6302   7.6383   8.2995   8.3262   8.3283   8.3321   8.3641   8.3680
     8.3886   8.4034   8.4485   8.4676   8.4753   8.4804   8.4863   8.5011
     8.5187   8.5198   8.6909   8.7157   8.7432   8.7999   8.9364   8.9584
     8.9718   8.9730   8.9732   8.9882   8.9897   9.0030   9.0121   9.0182
     9.0258   9.0392   9.0433   9.0696   9.0708   9.1045   9.1907   9.1913
     9.2368   9.2370   9.2406   9.2417   9.2624   9.2743   9.2822   9.2837
     9.2911   9.2914   9.2920   9.3023   9.3122   9.3206   9.4043   9.4120
     9.4227   9.4302   9.4316   9.4405   9.4445   9.4511   9.4824   9.4842
     9.4844   9.4895   9.4911   9.5019   9.5491   9.5514   9.6160   9.7054
     9.7782   9.7930   9.7975   9.8040   9.8055   9.8153   9.8336   9.8492
     9.8732   9.8802   9.8803   9.8822   9.8858   9.8886   9.8897   9.8908
    10.0538  10.0555  10.0661  10.0680  10.1352  10.1467  10.1481  10.1574
    10.1637  10.1912  10.1947  10.1962  10.2020  10.2229  10.3543  10.3793
    10.3805  10.3861  10.3869  10.3915  10.4150  10.4211  10.4552  10.5284
    10.5789  10.5831  10.6154  10.6164  10.6347  10.6429  10.6447  10.6577
    10.6645  10.7037  10.7037  10.7256  10.7566  10.7855  10.8263  10.8809
    10.9226  10.9646  11.0114  11.0135  11.0324  11.0335  11.0387  11.0427
    11.0761  11.0989  11.1045  11.1489  11.1530  11.1770  11.2078  11.2187
    11.2218  11.2416  11.2475  11.2513  11.2524  11.2651  11.2669  11.2681
    11.2706  11.2735  11.2822  11.2879  11.2903  11.3002  11.3039  11.3098
    11.3100  11.3193  11.3211  11.3229  11.5259  11.5918  11.7076  11.7133
    11.7166  11.7181  11.7195  11.7240  11.7271  11.7273  11.7356  11.7678
    11.7705  11.7742  11.7746  11.7990  11.8077  11.8128  11.8410  11.9337
    11.9497  11.9669  11.9854  12.0152  12.0434  12.0452  12.0682  12.0962
    12.1226  12.1671  12.1733  12.2302  12.2496  12.2648  12.3570  12.4191
    12.4250  12.4274  12.4568  12.4628  12.4685  12.4730  12.4827  12.4933
    12.5224  12.5266  12.5371  12.5384  12.5642  12.6177  12.6280  12.6300
    12.6309  12.6438  12.6971  12.7293  12.7492  12.7829  12.8911  12.9252
    12.9709  13.0400  13.0515  13.0869  13.1196  13.1855  13.1893  13.1993
    13.2218  13.2369  13.2670  13.3768  13.5072  13.5116  13.5737  13.6778
    13.9367  13.9377  13.9866  14.0948  14.1357  14.2443  14.3228  14.4770
    14.5059  14.8844  14.8993  14.9111  14.9693  14.9926  15.0530  15.0805
    15.1767  15.1861  15.2059  15.2456  15.3123  15.4176  15.4314  15.5285
    15.6523  15.6918  15.7029  15.7625  15.8137  15.9383  15.9431  15.9840
    16.0695  16.1025  16.1286  16.1347  16.1364  16.1427  16.1833  16.2046
    16.2120  16.2152  16.2370  16.2528  16.2678  16.2843  16.2947  16.3136
    16.3771  16.4252  16.4398  16.5094  16.6082  16.6493  16.7065  16.7111
    16.8587  16.8880  17.3534  17.4031  17.4435  17.4481  17.4980  17.5394
    17.5497  17.5615  17.6323  17.6587  17.6663  17.7330  17.8490  17.8542
    17.9070  17.9176  18.0849  18.1880  18.2199  18.2642  18.3063  18.3442

          k = 0.0000-0.5000 0.0000 ( 31722 PWs)   bands (ev):

   -66.7752 -66.7062 -66.7062 -66.6678 -66.6678 -66.6357 -66.6357 -66.6162
   -66.5874 -62.4100 -62.3940 -62.3940 -62.3899 -62.3627 -62.3627 -62.3503
   -62.3503 -62.3230 -35.5332 -35.5257 -35.4959 -35.4691 -35.4689 -35.4561
   -35.4560 -35.4366 -35.4365 -35.4219 -35.4218 -35.4160 -35.4160 -35.3938
   -35.3938 -35.3883 -35.3883 -35.3857 -35.3855 -35.3674 -35.3644 -35.3621
   -35.3571 -35.3540 -35.3516 -35.3414 -35.2870 -31.2480 -31.2413 -31.2411
   -31.2338 -31.2224 -31.2207 -31.2163 -31.2112 -31.2095 -31.2082 -31.2042
   -31.2041 -31.1981 -31.1981 -31.1968 -31.1966 -31.1904 -31.1903 -31.1729
   -31.1728 -31.1697 -31.1696 -31.1646 -31.1614 -31.1613 -31.1409 -31.1397
     6.0289   6.0590   7.4212   7.4317   7.4549   7.4891   7.6733   7.6795
     8.1018   8.1160   8.1427   8.1764   8.1952   8.2303   8.2481   8.2752
     8.4025   8.4211   8.4501   8.4875   8.6131   8.6312   8.6442   8.6529
     8.6689   8.6794   8.6860   8.7062   8.7550   8.8088   8.8257   8.8406
     8.8530   8.8745   8.8756   8.8787   8.9029   8.9086   8.9127   8.9170
     8.9281   8.9351   8.9357   8.9549   9.0480   9.0518   9.1577   9.1768
     9.1801   9.1996   9.2178   9.2256   9.2359   9.2468   9.3125   9.3388
     9.3491   9.3652   9.4008   9.4054   9.4735   9.4836   9.4889   9.5025
     9.5278   9.5373   9.5570   9.5742   9.5742   9.5985   9.6157   9.6188
     9.6223   9.6283   9.6288   9.6348   9.6357   9.6387   9.6425   9.6522
     9.6532   9.6617   9.6714   9.6786   9.7031   9.7207   9.7216   9.7311
     9.7438   9.7462   9.7696   9.7770   9.8928   9.9045   9.9154   9.9826
    10.0173  10.0331  10.1494  10.1939  10.2080  10.2271  10.2474  10.2563
    10.2648  10.2680  10.2691  10.2702  10.2852  10.2899  10.3450  10.3513
    10.3688  10.3787  10.3845  10.3928  10.4343  10.4441  10.4484  10.4791
    10.4813  10.5161  10.5242  10.5516  10.5647  10.5664  10.5768  10.5911
    10.6053  10.6576  10.6857  10.6912  10.6984  10.7312  10.7507  10.7570
    10.7999  10.8103  10.8276  10.8534  10.8665  10.8843  10.9127  10.9346
    10.9566  10.9987  11.0194  11.0304  11.0398  11.0942  11.1654  11.1852
    11.2910  11.3462  11.3481  11.3710  11.3779  11.3919  11.3937  11.4079
    11.4188  11.4383  11.4530  11.4895  11.5078  11.5415  11.5418  11.5539
    11.5647  11.5794  11.6050  11.6311  11.6347  11.6656  11.6915  11.7360
    11.7644  11.7650  11.7880  11.8056  11.8312  11.8417  11.8618  11.8653
    11.8664  11.8938  11.8997  11.9048  11.9247  11.9468  11.9640  11.9785
    11.9809  11.9837  11.9980  12.0116  12.0648  12.1051  12.1567  12.1576
    12.1886  12.1991  12.2057  12.2118  12.2244  12.2513  12.2725  12.2794
    12.2876  12.2929  12.3285  12.3538  12.3818  12.4100  12.4184  12.4262
    12.4376  12.4783  12.5056  12.5137  12.5291  12.5542  12.5564  12.5674
    12.5762  12.5820  12.6160  12.6366  12.6500  12.6837  12.7075  12.8000
    12.8626  12.8878  13.0298  13.0370  13.0897  13.1001  13.1069  13.1553
    13.1736  13.2013  13.2099  13.2207  13.2699  13.2830  13.3050  13.3337
    13.4121  13.4210  13.4993  13.6713  13.6801  14.3148  14.4052  14.5580
    14.6074  14.6718  14.8176  14.8285  14.8458  14.8526  14.9306  15.0052
    15.0439  15.1108  15.2381  15.3556  15.4310  15.4676  15.5500  15.5709
    15.6514  15.6900  15.7532  15.7754  15.7969  15.8506  15.8720  15.9886
    16.0157  16.0572  16.0731  16.0899  16.1338  16.1478  16.1561  16.1609
    16.1839  16.2175  16.2282  16.2479  16.2641  16.2685  16.3643  16.3823
    16.3937  16.4462  16.5642  16.6205  16.6852  16.7392  17.0143  17.0592
    17.1495  17.2087  17.2312  17.3311  17.4059  17.5250  17.6184  17.6304
    17.7290  17.7587  17.8054  17.8078  17.8403  17.8591  17.9040  17.9370
    18.0254  18.0424  18.1235  18.2396  19.2735  19.3019  19.3085  19.3435

          k = 0.0000-0.5000-0.5734 ( 31696 PWs)   bands (ev):

   -66.7752 -66.7062 -66.7062 -66.6678 -66.6678 -66.6357 -66.6357 -66.6162
   -66.5874 -62.4100 -62.3940 -62.3940 -62.3899 -62.3627 -62.3627 -62.3503
   -62.3503 -62.3230 -35.5332 -35.5257 -35.4959 -35.4691 -35.4689 -35.4561
   -35.4560 -35.4366 -35.4365 -35.4219 -35.4218 -35.4160 -35.4160 -35.3938
   -35.3938 -35.3883 -35.3883 -35.3857 -35.3855 -35.3674 -35.3644 -35.3621
   -35.3571 -35.3540 -35.3516 -35.3414 -35.2870 -31.2480 -31.2413 -31.2411
   -31.2338 -31.2224 -31.2207 -31.2163 -31.2112 -31.2095 -31.2082 -31.2042
   -31.2041 -31.1981 -31.1981 -31.1968 -31.1966 -31.1904 -31.1903 -31.1729
   -31.1728 -31.1697 -31.1696 -31.1646 -31.1614 -31.1613 -31.1409 -31.1397
     6.5225   6.5842   6.5877   6.6462   7.8277   7.8473   7.8667   7.8746
     7.9157   7.9167   7.9283   7.9522   8.2649   8.2829   8.2975   8.3055
     8.5083   8.5256   8.5327   8.5417   8.6574   8.6626   8.6688   8.6832
     8.6865   8.6875   8.7024   8.7185   8.7385   8.7404   8.7528   8.7545
     8.7572   8.7749   8.7797   8.8194   8.9470   9.0021   9.0054   9.0292
     9.0349   9.0550   9.0572   9.0698   9.1860   9.2007   9.2104   9.2188
     9.2202   9.2257   9.2261   9.2359   9.2453   9.2475   9.2541   9.2628
     9.2719   9.2737   9.2760   9.2878   9.2910   9.3527   9.3788   9.4005
     9.4110   9.4258   9.4569   9.4619   9.4624   9.4663   9.4707   9.4739
     9.4901   9.5069   9.5085   9.5240   9.5329   9.5367   9.5540   9.5595
     9.5846   9.6052   9.7518   9.7600   9.7829   9.7903   9.8068   9.8165
     9.8364   9.8365   9.8508   9.8537   9.8553   9.8643   9.8689   9.8858
     9.9487   9.9741  10.0089  10.0124  10.0273  10.0275  10.0532  10.0602
    10.3550  10.3787  10.3924  10.3966  10.4008  10.4181  10.4279  10.4328
    10.4517  10.4688  10.4708  10.4712  10.4863  10.4976  10.5029  10.5068
    10.5312  10.5407  10.5708  10.5887  10.6011  10.6032  10.6196  10.6289
    10.6408  10.6522  10.6696  10.6711  10.6797  10.6817  10.7111  10.7124
    10.7413  10.8193  10.8962  10.9202  10.9646  10.9918  11.0284  11.0832
    11.1086  11.1250  11.1275  11.1553  11.1829  11.1959  11.1977  11.2101
    11.2127  11.2140  11.2804  11.3205  11.3250  11.3435  11.3676  11.3736
    11.3801  11.3896  11.4216  11.4249  11.4439  11.4843  11.4867  11.5134
    11.5329  11.5563  11.5735  11.5789  11.5821  11.5875  11.6147  11.6227
    11.6386  11.6446  11.7195  11.7302  11.7494  11.7657  11.7946  11.8418
    11.9012  11.9144  11.9284  11.9473  11.9670  11.9706  12.0038  12.0063
    12.0165  12.0300  12.0309  12.0380  12.0398  12.0600  12.1143  12.1299
    12.1660  12.1708  12.2069  12.2339  12.2827  12.3115  12.3130  12.3230
    12.3378  12.3398  12.4281  12.4362  12.4544  12.4600  12.4708  12.4980
    12.5105  12.5205  12.5405  12.5408  12.5464  12.5725  12.5846  12.5930
    12.6052  12.6246  12.6356  12.6587  12.6746  12.7080  12.7340  12.7638
    12.7926  12.8257  12.9319  12.9351  12.9857  12.9984  13.0357  13.0670
    13.1672  13.2050  13.3764  13.4668  13.5155  13.6448  13.7075  13.7102
    13.8245  14.0199  14.0365  14.1186  14.2408  14.2451  14.2760  14.3612
    14.5262  14.5459  14.5636  14.6232  14.6565  14.7722  14.8239  14.9059
    15.0492  15.2184  15.2813  15.3342  15.3688  15.4215  15.5332  15.5346
    15.6400  15.6413  15.6844  15.7044  15.8019  15.8618  15.9113  15.9716
    16.0217  16.0342  16.0823  16.1398  16.1594  16.1827  16.2148  16.2261
    16.2462  16.2591  16.2862  16.3495  16.3637  16.3758  16.3942  16.4563
    16.4732  16.5299  16.5437  16.5721  16.5873  16.6185  16.6749  16.6956
    16.7503  16.7703  16.8481  16.8777  16.9291  16.9505  16.9527  16.9896
    17.0809  17.1341  17.1717  17.3260  18.6012  18.6912  18.7146  18.7474
    18.7501  18.8057  18.8248  18.8684  18.8813  18.8832  18.9418  18.9483

          k =-0.5000-0.5000 0.0000 ( 31612 PWs)   bands (ev):

   -66.7752 -66.7062 -66.7062 -66.6678 -66.6678 -66.6357 -66.6357 -66.6162
   -66.5874 -62.4100 -62.3940 -62.3940 -62.3899 -62.3627 -62.3627 -62.3503
   -62.3503 -62.3230 -35.5332 -35.5257 -35.4959 -35.4691 -35.4689 -35.4561
   -35.4560 -35.4366 -35.4365 -35.4219 -35.4219 -35.4160 -35.4160 -35.3938
   -35.3938 -35.3883 -35.3883 -35.3857 -35.3855 -35.3674 -35.3644 -35.3620
   -35.3570 -35.3541 -35.3517 -35.3414 -35.2870 -31.2480 -31.2413 -31.2411
   -31.2338 -31.2225 -31.2206 -31.2168 -31.2107 -31.2090 -31.2082 -31.2042
   -31.2041 -31.1981 -31.1981 -31.1969 -31.1968 -31.1905 -31.1904 -31.1729
   -31.1728 -31.1697 -31.1696 -31.1646 -31.1614 -31.1613 -31.1409 -31.1397
     6.4061   6.4286   6.4394   6.4939   8.0099   8.0158   8.0189   8.0249
     8.0914   8.1223   8.2866   8.3128   8.3283   8.3291   8.3306   8.3384
     8.3465   8.3563   8.3617   8.3683   8.3725   8.4219   8.5679   8.6034
     8.6484   8.6670   8.6729   8.6954   8.7126   8.7290   8.7319   8.7389
     8.7544   8.8151   8.9181   8.9199   8.9647   8.9686   8.9758   8.9762
     8.9831   8.9920   8.9988   9.0016   9.0068   9.0451   9.0472   9.0481
     9.1090   9.1363   9.3093   9.3118   9.3161   9.3214   9.4010   9.4061
     9.4144   9.4159   9.4246   9.4261   9.4270   9.4309   9.4439   9.4557
     9.4679   9.4771   9.4804   9.4814   9.4835   9.4897   9.4907   9.4921
     9.5145   9.5269   9.5364   9.5402   9.5535   9.5719   9.5766   9.5935
     9.5995   9.6125   9.6976   9.6993   9.7610   9.8079   9.8125   9.8245
     9.8304   9.8344   9.8438   9.8468   9.8509   9.8900  10.0297  10.0494
    10.0722  10.1071  10.1132  10.1160  10.1330  10.1491  10.1547  10.1631
    10.1760  10.1983  10.2034  10.2118  10.2225  10.2247  10.2303  10.2340
    10.2361  10.2482  10.2518  10.2605  10.4416  10.4716  10.4725  10.4889
    10.4958  10.5081  10.5150  10.5562  10.5965  10.6259  10.6317  10.6440
    10.6495  10.6641  10.6749  10.6797  10.6944  10.7069  10.7073  10.7157
    10.7185  10.7564  10.7792  10.8186  10.8332  10.8576  10.8715  10.8729
    10.9255  10.9389  11.1983  11.2058  11.2101  11.2305  11.3040  11.3079
    11.3313  11.3520  11.3545  11.3569  11.3963  11.3980  11.5147  11.5572
    11.6221  11.6337  11.6368  11.6441  11.6466  11.6505  11.6527  11.6555
    11.6716  11.6720  11.6833  11.7187  11.7381  11.7450  11.7655  11.8583
    11.8684  11.8743  11.8782  11.8785  11.8814  11.8917  11.9708  11.9879
    12.0040  12.0376  12.0656  12.0697  12.0791  12.0871  12.1029  12.1066
    12.1071  12.1135  12.1155  12.1199  12.1369  12.1515  12.1536  12.1600
    12.1774  12.1815  12.1898  12.2125  12.2168  12.2340  12.2436  12.2606
    12.2759  12.2806  12.2843  12.2983  12.3014  12.3019  12.3064  12.4193
    12.4278  12.4452  12.4516  12.4717  12.4749  12.5005  12.5088  12.5239
    12.5287  12.5608  12.5649  12.6065  12.6160  12.6299  12.6416  12.6806
    12.6899  12.7472  12.8043  12.8515  12.8786  12.8952  12.9505  12.9588
    12.9652  12.9947  13.0076  13.0170  13.0476  13.4921  13.6444  13.6514
    13.6750  13.6774  13.8090  13.8149  13.8447  13.8670  14.1498  14.1999
    14.2246  14.2394  14.4668  14.5065  14.6328  14.7023  14.8114  14.8165
    15.0634  15.1154  15.1872  15.3326  15.3351  15.4382  15.6108  15.7014
    15.7300  15.8087  15.8154  15.8616  15.8877  15.8976  15.9053  15.9413
    15.9624  16.0077  16.0342  16.0541  16.0694  16.0714  16.1431  16.1485
    16.1814  16.1998  16.2543  16.2583  16.3430  16.3627  16.3811  16.4091
    16.4534  16.4593  16.4762  16.6019  16.6824  16.6927  16.7539  16.7760
    16.8825  16.8861  16.8939  16.9876  17.3857  17.3915  17.6412  18.0375
    18.1426  18.2045  18.2141  18.2218  18.2541  18.4261  18.4381  18.5572
    18.6015  18.6151  18.6649  18.6651  18.7188  18.8033  18.8103  18.8107

          k =-0.5000-0.5000-0.5734 ( 31672 PWs)   bands (ev):

   -66.7752 -66.7062 -66.7062 -66.6678 -66.6678 -66.6357 -66.6357 -66.6162
   -66.5874 -62.4100 -62.3940 -62.3940 -62.3899 -62.3627 -62.3627 -62.3503
   -62.3503 -62.3230 -35.5332 -35.5257 -35.4959 -35.4691 -35.4689 -35.4561
   -35.4560 -35.4366 -35.4365 -35.4219 -35.4219 -35.4160 -35.4160 -35.3938
   -35.3938 -35.3883 -35.3883 -35.3857 -35.3855 -35.3674 -35.3644 -35.3620
   -35.3570 -35.3541 -35.3517 -35.3414 -35.2870 -31.2480 -31.2413 -31.2411
   -31.2338 -31.2225 -31.2207 -31.2168 -31.2107 -31.2090 -31.2082 -31.2042
   -31.2041 -31.1981 -31.1981 -31.1969 -31.1968 -31.1905 -31.1904 -31.1729
   -31.1728 -31.1697 -31.1696 -31.1646 -31.1614 -31.1613 -31.1409 -31.1397
     6.8801   6.9254   6.9260   6.9372   6.9963   7.0207   7.0237   7.0546
     8.4441   8.4692   8.4723   8.4787   8.4832   8.4894   8.4913   8.4961
     8.5028   8.5069   8.5137   8.5186   8.5389   8.5411   8.5488   8.5688
     8.5703   8.5814   8.5839   8.6210   8.8791   8.8887   8.8913   8.8997
     8.9016   8.9142   8.9295   8.9457   9.0830   9.1094   9.1149   9.1157
     9.1251   9.1318   9.1486   9.1527   9.1542   9.1567   9.1572   9.1611
     9.1621   9.1650   9.1702   9.1719   9.1729   9.1749   9.1761   9.1814
     9.1830   9.1831   9.1973   9.1997   9.2029   9.2043   9.2180   9.2199
     9.2256   9.2321   9.2444   9.2512   9.2570   9.2592   9.2725   9.2925
     9.5354   9.5514   9.5583   9.5727   9.5818   9.5960   9.6233   9.6333
     9.6390   9.6640   9.6778   9.6858   9.7324   9.7353   9.7517   9.7925
     9.8169   9.8309   9.8420   9.8431   9.8814   9.8825   9.8891   9.8988
    10.1103  10.1123  10.1494  10.1521  10.1588  10.1773  10.1960  10.2011
    10.2800  10.3207  10.4367  10.4559  10.4575  10.4683  10.4807  10.4819
    10.4831  10.4864  10.4939  10.5048  10.5058  10.5128  10.5148  10.5221
    10.5233  10.5320  10.5405  10.5566  10.5598  10.5659  10.5852  10.5910
    10.6050  10.6343  10.6417  10.6420  10.6454  10.6652  10.6706  10.6740
    10.6855  10.6874  10.6975  10.6988  10.7205  10.7226  11.0429  11.0612
    11.0697  11.0827  11.0873  11.1071  11.1220  11.1234  11.3805  11.3871
    11.3910  11.3989  11.4007  11.4289  11.4400  11.4492  11.4630  11.4803
    11.4824  11.4915  11.5067  11.5079  11.5157  11.5465  11.5979  11.6262
    11.6372  11.6495  11.6560  11.6728  11.6831  11.6907  11.7086  11.7180
    11.7237  11.7318  11.7372  11.7567  11.7613  11.7688  11.7750  11.7795
    11.8149  11.8165  11.8181  11.8303  11.8347  11.9563  11.9761  12.0146
    12.0146  12.0355  12.0550  12.0972  12.1070  12.1386  12.1405  12.1411
    12.1420  12.1920  12.2136  12.2467  12.2622  12.2743  12.3215  12.3435
    12.3528  12.3623  12.4019  12.4145  12.4214  12.4378  12.4633  12.4670
    12.4831  12.5075  12.5113  12.5304  12.5526  12.5758  12.5938  12.6076
    12.6284  12.6315  12.6866  12.6962  12.7421  12.7642  12.7846  12.8119
    12.9296  12.9369  12.9737  13.1070  13.1143  13.1159  13.1874  13.2043
    13.2411  13.2590  13.3318  13.3395  13.3465  13.3830  13.4176  13.4548
    13.5548  13.5713  13.6954  13.8331  13.8812  14.0808  14.0905  14.0941
    14.2393  14.2702  14.4974  14.5156  14.7524  14.8333  14.8478  14.9236
    15.0031  15.0829  15.2353  15.4617  15.4876  15.6340  15.6705  15.7027
    15.7157  15.7499  15.7789  15.7804  15.8811  15.8896  15.9329  15.9359
    15.9405  16.0142  16.1151  16.1339  16.1539  16.1683  16.1746  16.1794
    16.2043  16.2825  16.2875  16.2925  16.3398  16.4270  16.4371  16.4709
    16.4850  16.5453  16.5486  16.6018  16.6256  16.6571  16.6579  16.6985
    16.7509  16.8080  16.8275  16.8834  16.9031  16.9227  16.9507  17.0482
    17.1100  17.1194  17.5728  17.7458  17.9064  17.9603  19.0143  19.0331
    19.0655  19.0674  19.0856  19.1780  19.1897  19.2275  19.2311  19.2465

 ------ SPIN DOWN ----------


          k = 0.0000 0.0000 0.0000 ( 31747 PWs)   bands (ev):

   -66.7606 -66.7429 -66.7429 -66.7374 -66.6787 -66.6787 -66.6616 -66.6616
   -66.5989 -62.3974 -62.3931 -62.3931 -62.3683 -62.3683 -62.3512 -62.3289
   -62.3184 -62.3184 -35.5350 -35.5114 -35.5113 -35.5085 -35.5085 -35.5028
   -35.4992 -35.4769 -35.4742 -35.4601 -35.4573 -35.4572 -35.4376 -35.4374
   -35.4215 -35.4214 -35.4162 -35.4160 -35.4149 -35.4148 -35.3903 -35.3902
   -35.3831 -35.3824 -35.3766 -35.3318 -35.3202 -31.2491 -31.2488 -31.2331
   -31.2294 -31.2171 -31.2170 -31.2102 -31.2100 -31.2051 -31.1942 -31.1941
   -31.1940 -31.1915 -31.1868 -31.1766 -31.1695 -31.1692 -31.1682 -31.1678
   -31.1504 -31.1480 -31.1459 -31.1457 -31.1456 -31.1418 -31.1405 -31.1397
     5.6123   7.1354   7.1548   7.2013   7.2125   7.3620   7.8477   7.8884
     7.8959   7.9552   8.0791   8.0988   8.1215   8.1813   8.1881   8.2444
     8.2485   8.3008   8.3027   8.5134   8.5504   8.5537   8.5662   8.6004
     8.6086   8.8515   8.8563   8.8682   8.8696   8.8880   8.8952   8.8958
     8.8961   8.9077   8.9081   8.9117   8.9414   8.9529   8.9541   8.9695
     8.9820   9.0822   9.1198   9.1227   9.1244   9.1290   9.1561   9.1587
     9.1845   9.2007   9.2172   9.2658   9.2860   9.2861   9.3147   9.3376
     9.3439   9.3646   9.3650   9.3668   9.3745   9.3838   9.3916   9.4375
     9.4387   9.4502   9.4519   9.4625   9.4654   9.4739   9.4872   9.5773
     9.5780   9.5861   9.5873   9.5900   9.6008   9.6647   9.6702   9.6719
     9.6723   9.6729   9.6926   9.7342   9.7610   9.7744   9.7926   9.8476
     9.8502   9.9027   9.9067   9.9414   9.9498   9.9536  10.0228  10.0424
    10.0764  10.1091  10.1296  10.1762  10.2825  10.2871  10.2889  10.2964
    10.2988  10.2997  10.3074  10.3116  10.3206  10.3249  10.3336  10.3364
    10.3366  10.3462  10.3524  10.3549  10.3648  10.3704  10.3825  10.3832
    10.4009  10.5154  10.5193  10.5433  10.6060  10.6144  10.6187  10.6358
    10.6661  10.7807  10.7859  10.7963  10.8169  10.8244  10.8256  10.8433
    10.8488  10.8552  10.8610  10.8670  10.8767  10.8824  10.8855  10.8968
    10.9031  10.9187  11.0148  11.0202  11.0872  11.0884  11.1494  11.2120
    11.2139  11.2174  11.2258  11.2325  11.2609  11.3151  11.3286  11.3491
    11.3734  11.3802  11.3925  11.3968  11.3984  11.4113  11.4186  11.4247
    11.4400  11.4917  11.5712  11.5895  11.5898  11.5929  11.5973  11.6099
    11.6231  11.6557  11.7132  11.7215  11.7278  11.7451  11.7510  11.7523
    11.8237  11.8511  11.8565  11.8690  11.8763  11.9129  11.9201  11.9436
    11.9522  12.0207  12.0991  12.1008  12.1023  12.1028  12.1340  12.1352
    12.1445  12.1459  12.1460  12.1482  12.1599  12.1854  12.2059  12.2088
    12.2484  12.2513  12.2864  12.3158  12.3400  12.3424  12.3747  12.3905
    12.4263  12.4286  12.4341  12.4422  12.4836  12.4919  12.5020  12.5043
    12.5117  12.5279  12.5467  12.5482  12.5578  12.5610  12.5994  12.6166
    12.6812  12.7237  12.7397  12.7596  12.8406  12.8732  13.0256  13.1254
    13.1259  13.1290  13.1297  13.1809  13.3119  13.6049  13.7277  13.8396
    13.9080  14.0735  14.1138  14.1938  14.2408  14.3663  14.3745  14.6275
    14.7436  14.8081  14.8511  14.9336  15.1167  15.1175  15.2360  15.2505
    15.2744  15.3228  15.3468  15.3630  15.4276  15.4367  15.4459  15.6164
    15.6513  15.6700  15.7142  15.7553  15.7995  15.8509  15.8977  15.9720
    16.0209  16.0577  16.0819  16.1001  16.1147  16.1439  16.1766  16.1893
    16.2436  16.2671  16.3142  16.3239  16.3479  16.3501  16.3784  16.3929
    16.4140  16.5113  16.5445  16.6490  16.6548  16.6800  16.7339  16.8115
    17.0271  17.0615  17.1630  17.1645  17.2076  17.2242  17.2636  17.2904
    17.4409  17.5567  17.8545  17.8952  17.9228  17.9455  17.9710  18.0691
    18.2401  18.2911  18.4728  18.9276  18.9834  18.9977  19.1949  19.1973

          k = 0.0000 0.0000-0.5734 ( 31692 PWs)   bands (ev):

   -66.7606 -66.7429 -66.7429 -66.7374 -66.6787 -66.6787 -66.6616 -66.6616
   -66.5989 -62.3974 -62.3931 -62.3931 -62.3683 -62.3683 -62.3512 -62.3289
   -62.3184 -62.3184 -35.5350 -35.5114 -35.5113 -35.5085 -35.5085 -35.5028
   -35.4992 -35.4769 -35.4742 -35.4601 -35.4573 -35.4572 -35.4376 -35.4374
   -35.4215 -35.4214 -35.4162 -35.4160 -35.4149 -35.4148 -35.3903 -35.3902
   -35.3831 -35.3824 -35.3766 -35.3318 -35.3202 -31.2491 -31.2488 -31.2331
   -31.2294 -31.2171 -31.2170 -31.2102 -31.2100 -31.2051 -31.1942 -31.1941
   -31.1940 -31.1915 -31.1868 -31.1766 -31.1695 -31.1692 -31.1682 -31.1678
   -31.1504 -31.1480 -31.1459 -31.1457 -31.1456 -31.1418 -31.1405 -31.1397
     6.1554   6.2084   7.5326   7.5399   7.5498   7.5843   7.5912   7.5918
     7.6186   7.6320   8.3108   8.3183   8.3192   8.3300   8.3514   8.3639
     8.3807   8.4018   8.4585   8.4609   8.4685   8.4842   8.4855   8.5035
     8.5074   8.5105   8.6899   8.7114   8.7447   8.7946   8.9472   8.9490
     8.9631   8.9736   8.9750   8.9779   8.9926   8.9969   9.0102   9.0213
     9.0225   9.0289   9.0327   9.0660   9.0762   9.0945   9.1883   9.1966
     9.2251   9.2304   9.2405   9.2448   9.2689   9.2790   9.2801   9.2808
     9.2836   9.2843   9.2896   9.2927   9.3076   9.3156   9.4129   9.4179
     9.4188   9.4238   9.4276   9.4363   9.4434   9.4585   9.4685   9.4751
     9.4778   9.4825   9.4928   9.4952   9.5424   9.5432   9.6178   9.6976
     9.7803   9.7872   9.7897   9.8036   9.8100   9.8152   9.8347   9.8408
     9.8717   9.8731   9.8773   9.8792   9.8844   9.8889   9.8891   9.8914
    10.0572  10.0588  10.0600  10.0611  10.1307  10.1491  10.1525  10.1541
    10.1609  10.1860  10.1877  10.1947  10.1969  10.2182  10.3411  10.3625
    10.3771  10.3847  10.3915  10.3990  10.4103  10.4176  10.4514  10.5274
    10.5783  10.5876  10.6012  10.6130  10.6170  10.6436  10.6559  10.6571
    10.6781  10.6898  10.7140  10.7257  10.7432  10.7566  10.8135  10.8743
    10.9274  10.9478  10.9577  10.9650  11.0439  11.0548  11.0570  11.0685
    11.0785  11.1200  11.1206  11.1316  11.1492  11.1553  11.1753  11.1827
    11.2302  11.2405  11.2462  11.2488  11.2531  11.2565  11.2587  11.2672
    11.2734  11.2735  11.2743  11.2868  11.2880  11.2943  11.2947  11.2968
    11.3121  11.3168  11.3207  11.3277  11.5233  11.5984  11.6997  11.7126
    11.7132  11.7160  11.7214  11.7239  11.7268  11.7310  11.7396  11.7485
    11.7524  11.7533  11.7685  11.7979  11.8125  11.8214  11.8484  11.9301
    11.9318  11.9757  11.9815  12.0031  12.0078  12.0282  12.0311  12.1160
    12.1177  12.1529  12.1558  12.2322  12.2459  12.2574  12.3880  12.3887
    12.3994  12.4175  12.4237  12.4403  12.4543  12.4628  12.4669  12.4870
    12.4906  12.5111  12.5127  12.5269  12.5561  12.5915  12.5947  12.6062
    12.6391  12.6494  12.6563  12.7013  12.7856  12.7994  12.8392  12.8698
    12.9460  12.9642  13.0181  13.0514  13.1618  13.1722  13.1836  13.1915
    13.1965  13.2220  13.2536  13.4009  13.4580  13.4694  13.6484  13.6901
    13.9275  13.9630  14.0368  14.0480  14.0771  14.1731  14.3351  14.3777
    14.5837  14.8475  14.8996  14.9916  14.9955  15.0169  15.0217  15.0340
    15.1702  15.1760  15.1854  15.2300  15.3275  15.3424  15.5185  15.5692
    15.6319  15.7224  15.7369  15.7841  15.8555  15.8812  15.9555  15.9673
    16.0065  16.1050  16.1108  16.1130  16.1578  16.1813  16.1866  16.2007
    16.2117  16.2298  16.2682  16.2688  16.2728  16.2981  16.3209  16.3375
    16.3520  16.4498  16.4674  16.5090  16.6299  16.6506  16.7081  16.7372
    16.8849  16.9063  17.2736  17.3194  17.3690  17.3990  17.5191  17.5761
    17.5927  17.6244  17.6349  17.6957  17.7316  17.7439  17.7927  17.8274
    17.9186  17.9332  18.1048  18.1952  18.2019  18.2562  18.3145  18.3366

          k = 0.0000-0.5000 0.0000 ( 31722 PWs)   bands (ev):

   -66.7606 -66.7429 -66.7429 -66.7374 -66.6787 -66.6787 -66.6616 -66.6616
   -66.5989 -62.3974 -62.3931 -62.3931 -62.3683 -62.3683 -62.3512 -62.3289
   -62.3184 -62.3184 -35.5350 -35.5114 -35.5113 -35.5085 -35.5085 -35.5028
   -35.4992 -35.4769 -35.4742 -35.4601 -35.4573 -35.4572 -35.4375 -35.4374
   -35.4215 -35.4214 -35.4162 -35.4160 -35.4149 -35.4148 -35.3903 -35.3902
   -35.3831 -35.3824 -35.3766 -35.3318 -35.3202 -31.2491 -31.2488 -31.2331
   -31.2294 -31.2172 -31.2170 -31.2102 -31.2100 -31.2051 -31.1941 -31.1940
   -31.1937 -31.1913 -31.1872 -31.1766 -31.1695 -31.1692 -31.1682 -31.1679
   -31.1504 -31.1480 -31.1459 -31.1457 -31.1456 -31.1418 -31.1405 -31.1397
     6.0256   6.0545   7.4077   7.4376   7.4496   7.4850   7.6673   7.6792
     8.1009   8.1155   8.1290   8.1642   8.2025   8.2268   8.2436   8.2767
     8.3910   8.4244   8.4519   8.4808   8.6123   8.6238   8.6443   8.6491
     8.6721   8.6728   8.6849   8.6961   8.7560   8.8088   8.8139   8.8259
     8.8532   8.8660   8.8742   8.8848   8.8973   8.9081   8.9130   8.9200
     8.9212   8.9297   8.9402   8.9501   9.0419   9.0537   9.1558   9.1701
     9.1871   9.1971   9.2133   9.2252   9.2293   9.2413   9.3151   9.3211
     9.3534   9.3665   9.3845   9.4151   9.4719   9.4793   9.4842   9.5026
     9.5290   9.5334   9.5544   9.5676   9.5741   9.6033   9.6135   9.6140
     9.6207   9.6246   9.6250   9.6298   9.6311   9.6349   9.6374   9.6464
     9.6503   9.6548   9.6734   9.6804   9.6979   9.7124   9.7142   9.7379
     9.7380   9.7493   9.7593   9.7668   9.8943   9.9009   9.9118   9.9832
    10.0065  10.0418  10.1485  10.1894  10.2071  10.2163  10.2446  10.2508
    10.2634  10.2663  10.2709  10.2743  10.2777  10.2854  10.3459  10.3560
    10.3629  10.3781  10.3818  10.3820  10.4278  10.4377  10.4461  10.4738
    10.4802  10.5220  10.5255  10.5417  10.5575  10.5604  10.5693  10.5898
    10.6014  10.6579  10.6766  10.6971  10.6992  10.7211  10.7313  10.7638
    10.8050  10.8189  10.8292  10.8481  10.8607  10.8795  10.8998  10.9180
    10.9533  10.9956  11.0092  11.0184  11.0495  11.0970  11.1657  11.1837
    11.2770  11.3439  11.3483  11.3581  11.3643  11.3804  11.3901  11.3991
    11.4186  11.4217  11.4627  11.4645  11.5056  11.5212  11.5373  11.5623
    11.5737  11.5928  11.6128  11.6336  11.6399  11.6508  11.6790  11.7130
    11.7335  11.7732  11.7850  11.8019  11.8115  11.8325  11.8555  11.8600
    11.8690  11.8771  11.8894  11.9149  11.9243  11.9475  11.9498  11.9642
    11.9719  11.9787  11.9810  12.0123  12.0827  12.1180  12.1650  12.1730
    12.1745  12.2024  12.2088  12.2095  12.2318  12.2407  12.2417  12.2794
    12.2875  12.3038  12.3192  12.3205  12.3410  12.3829  12.3965  12.4021
    12.4293  12.4504  12.4618  12.4693  12.4718  12.5172  12.5311  12.5394
    12.5663  12.6027  12.6121  12.6279  12.6628  12.7267  12.7281  12.7578
    12.8533  12.9004  12.9226  13.0029  13.0625  13.0758  13.1217  13.1440
    13.1671  13.1754  13.1814  13.2331  13.2382  13.2751  13.2761  13.2934
    13.3916  13.4592  13.4759  13.6360  13.6669  14.3143  14.5090  14.5979
    14.6213  14.7042  14.7298  14.8117  14.8383  14.8554  14.8921  14.9960
    15.0327  15.1636  15.2943  15.2977  15.3183  15.4298  15.5302  15.5822
    15.6745  15.6910  15.7685  15.8028  15.8242  15.9103  15.9499  16.0013
    16.0288  16.0321  16.0605  16.0710  16.1241  16.1408  16.1425  16.1662
    16.2039  16.2234  16.2309  16.2355  16.2825  16.3169  16.3404  16.3804
    16.4360  16.4489  16.5577  16.6470  16.7318  16.7893  16.9610  17.0411
    17.1678  17.2113  17.2354  17.2956  17.4213  17.5277  17.6076  17.6234
    17.7126  17.7433  17.8056  17.8265  17.8437  17.8582  17.9164  17.9177
    18.0426  18.0822  18.1162  18.2068  19.2753  19.3131  19.3163  19.3300

          k = 0.0000-0.5000-0.5734 ( 31696 PWs)   bands (ev):

   -66.7606 -66.7429 -66.7429 -66.7374 -66.6787 -66.6787 -66.6616 -66.6616
   -66.5989 -62.3974 -62.3931 -62.3931 -62.3683 -62.3683 -62.3512 -62.3289
   -62.3184 -62.3184 -35.5350 -35.5114 -35.5113 -35.5085 -35.5085 -35.5028
   -35.4992 -35.4769 -35.4742 -35.4601 -35.4573 -35.4572 -35.4375 -35.4374
   -35.4215 -35.4214 -35.4162 -35.4160 -35.4149 -35.4148 -35.3903 -35.3902
   -35.3831 -35.3824 -35.3766 -35.3318 -35.3202 -31.2491 -31.2488 -31.2331
   -31.2294 -31.2172 -31.2170 -31.2102 -31.2100 -31.2051 -31.1941 -31.1940
   -31.1937 -31.1913 -31.1872 -31.1766 -31.1695 -31.1692 -31.1682 -31.1679
   -31.1504 -31.1480 -31.1459 -31.1457 -31.1456 -31.1418 -31.1405 -31.1397
     6.5212   6.5739   6.5911   6.6379   7.8350   7.8428   7.8486   7.8687
     7.9146   7.9258   7.9262   7.9356   8.2670   8.2750   8.2967   8.3001
     8.5095   8.5218   8.5308   8.5311   8.6531   8.6612   8.6648   8.6833
     8.6871   8.6933   8.7096   8.7185   8.7191   8.7383   8.7385   8.7518
     8.7637   8.7722   8.7751   8.8131   8.9467   8.9992   9.0047   9.0324
     9.0382   9.0455   9.0516   9.0626   9.1786   9.2030   9.2117   9.2126
     9.2153   9.2215   9.2283   9.2346   9.2422   9.2435   9.2540   9.2550
     9.2557   9.2702   9.2842   9.2875   9.2876   9.3448   9.3855   9.3954
     9.4050   9.4229   9.4470   9.4604   9.4661   9.4684   9.4713   9.4781
     9.4854   9.5041   9.5169   9.5175   9.5204   9.5420   9.5426   9.5503
     9.5701   9.5981   9.7533   9.7559   9.7867   9.7896   9.8022   9.8096
     9.8289   9.8309   9.8474   9.8537   9.8556   9.8608   9.8665   9.8867
     9.9520   9.9677  10.0053  10.0066  10.0232  10.0273  10.0482  10.0609
    10.3598  10.3740  10.3858  10.3865  10.3993  10.4139  10.4184  10.4306
    10.4579  10.4608  10.4686  10.4795  10.4800  10.4861  10.4896  10.5069
    10.5110  10.5635  10.5667  10.5749  10.5884  10.6032  10.6118  10.6168
    10.6295  10.6344  10.6735  10.6743  10.6785  10.6862  10.7065  10.7522
    10.7541  10.8146  10.8683  10.8868  10.9652  10.9810  11.0214  11.0781
    11.1167  11.1203  11.1240  11.1532  11.1754  11.1851  11.1997  11.2010
    11.2104  11.2119  11.2610  11.3287  11.3387  11.3504  11.3577  11.3737
    11.3767  11.3808  11.4162  11.4253  11.4448  11.4742  11.4885  11.5105
    11.5114  11.5529  11.5712  11.5735  11.5767  11.5923  11.6018  11.6326
    11.6391  11.6474  11.7145  11.7309  11.7529  11.7576  11.7992  11.8289
    11.8870  11.9091  11.9302  11.9474  11.9616  11.9654  11.9898  12.0018
    12.0172  12.0244  12.0321  12.0322  12.0368  12.0388  12.1085  12.1130
    12.1383  12.1621  12.1811  12.2163  12.2509  12.2879  12.2941  12.3453
    12.3531  12.3544  12.3948  12.4073  12.4422  12.4433  12.4693  12.4762
    12.4815  12.5063  12.5123  12.5359  12.5376  12.5566  12.5670  12.5728
    12.5862  12.6282  12.6303  12.6399  12.6516  12.6713  12.6739  12.7194
    12.8055  12.8081  12.9081  12.9225  12.9549  12.9883  13.0332  13.0535
    13.1943  13.2002  13.3579  13.4042  13.4470  13.6226  13.7775  13.7779
    13.9320  13.9630  14.0053  14.0915  14.1471  14.2487  14.2612  14.4799
    14.5200  14.5386  14.5477  14.5618  14.5886  14.7466  14.7720  14.9023
    15.0420  15.1694  15.2963  15.3335  15.4793  15.5069  15.5523  15.5562
    15.6154  15.6648  15.6996  15.7323  15.8617  15.8652  15.8983  15.9291
    15.9449  16.0991  16.1177  16.1357  16.1542  16.1682  16.1742  16.1877
    16.2530  16.2911  16.2916  16.3256  16.3322  16.3907  16.3966  16.4531
    16.4613  16.5393  16.5537  16.5712  16.6072  16.6533  16.6637  16.7124
    16.7591  16.8164  16.8212  16.8835  16.9044  16.9634  16.9804  16.9864
    17.1203  17.1823  17.1922  17.2769  18.6100  18.6991  18.7028  18.7318
    18.7526  18.7724  18.7939  18.8401  18.8746  18.9094  18.9434  19.0050

          k =-0.5000-0.5000 0.0000 ( 31612 PWs)   bands (ev):

   -66.7606 -66.7429 -66.7429 -66.7374 -66.6787 -66.6787 -66.6616 -66.6616
   -66.5989 -62.3974 -62.3931 -62.3931 -62.3683 -62.3683 -62.3512 -62.3289
   -62.3184 -62.3184 -35.5350 -35.5114 -35.5113 -35.5085 -35.5085 -35.5028
   -35.4992 -35.4769 -35.4742 -35.4601 -35.4573 -35.4572 -35.4375 -35.4373
   -35.4215 -35.4214 -35.4162 -35.4160 -35.4149 -35.4148 -35.3903 -35.3902
   -35.3831 -35.3824 -35.3766 -35.3318 -35.3202 -31.2491 -31.2488 -31.2331
   -31.2294 -31.2172 -31.2171 -31.2102 -31.2101 -31.2051 -31.1941 -31.1940
   -31.1931 -31.1912 -31.1877 -31.1766 -31.1695 -31.1692 -31.1682 -31.1680
   -31.1504 -31.1480 -31.1459 -31.1457 -31.1456 -31.1418 -31.1405 -31.1397
     6.3971   6.4348   6.4370   6.4828   8.0061   8.0118   8.0133   8.0252
     8.0863   8.1172   8.2789   8.3094   8.3217   8.3257   8.3361   8.3407
     8.3489   8.3511   8.3600   8.3681   8.3688   8.4006   8.5630   8.6049
     8.6453   8.6622   8.6784   8.6969   8.7018   8.7207   8.7345   8.7478
     8.7494   8.7995   8.9146   8.9151   8.9633   8.9659   8.9742   8.9754
     8.9767   8.9940   8.9964   9.0005   9.0057   9.0361   9.0443   9.0464
     9.1115   9.1298   9.3077   9.3091   9.3099   9.3255   9.3934   9.4031
     9.4137   9.4196   9.4247   9.4269   9.4287   9.4332   9.4468   9.4472
     9.4619   9.4667   9.4682   9.4762   9.4831   9.4869   9.4893   9.4897
     9.5158   9.5224   9.5288   9.5359   9.5407   9.5647   9.5809   9.5886
     9.6015   9.6118   9.6955   9.6982   9.7502   9.8016   9.8128   9.8255
     9.8272   9.8315   9.8397   9.8545   9.8546   9.8679  10.0080  10.0535
    10.0889  10.0981  10.1035  10.1161  10.1305  10.1402  10.1424  10.1709
    10.1906  10.1984  10.2065  10.2105  10.2137  10.2194  10.2255  10.2257
    10.2306  10.2349  10.2485  10.2536  10.4343  10.4691  10.4749  10.4896
    10.4972  10.5079  10.5273  10.5497  10.5668  10.6151  10.6397  10.6515
    10.6659  10.6681  10.6683  10.6746  10.6992  10.6996  10.6998  10.7045
    10.7108  10.7373  10.7929  10.7980  10.8189  10.8532  10.8695  10.8768
    10.9255  10.9366  11.1957  11.2084  11.2089  11.2239  11.3017  11.3120
    11.3188  11.3309  11.3520  11.3564  11.3986  11.3993  11.5469  11.5557
    11.6046  11.6212  11.6284  11.6362  11.6430  11.6444  11.6470  11.6474
    11.6513  11.6586  11.6662  11.7249  11.7299  11.7669  11.7674  11.7936
    11.8640  11.8741  11.8768  11.8784  11.8841  11.8857  11.9630  11.9673
    12.0139  12.0349  12.0525  12.0585  12.0739  12.0855  12.1028  12.1047
    12.1057  12.1106  12.1109  12.1164  12.1299  12.1455  12.1533  12.1534
    12.1648  12.1759  12.1952  12.2153  12.2175  12.2275  12.2393  12.2404
    12.2525  12.2652  12.2794  12.2858  12.2862  12.2983  12.2988  12.3715
    12.4172  12.4417  12.4553  12.4803  12.4949  12.4960  12.4966  12.5277
    12.5379  12.5490  12.5504  12.5593  12.5612  12.5733  12.6443  12.6653
    12.6761  12.7652  12.7678  12.8261  12.8402  12.8474  12.8486  12.8916
    12.8916  12.9409  13.0026  13.0136  13.1265  13.5624  13.6295  13.6474
    13.6712  13.6712  13.7481  13.7723  13.8781  13.9796  14.0615  14.1456
    14.2780  14.3145  14.4648  14.4950  14.5652  14.6127  14.8599  14.8626
    15.0146  15.0890  15.1494  15.3174  15.3542  15.4375  15.7039  15.7510
    15.7674  15.7959  15.8201  15.8578  15.8628  15.8705  15.9368  15.9788
    16.0024  16.0173  16.0346  16.0519  16.0900  16.0903  16.1123  16.1376
    16.1553  16.1561  16.2663  16.2991  16.3181  16.3339  16.3516  16.3875
    16.4351  16.5068  16.5462  16.6739  16.6991  16.7175  16.7320  16.7403
    16.8647  16.9039  16.9182  17.0158  17.3815  17.3915  17.6498  18.0251
    18.1481  18.1545  18.2028  18.2048  18.2649  18.4217  18.5271  18.5544
    18.5971  18.6076  18.6685  18.6727  18.7271  18.7677  18.8039  18.8091

          k =-0.5000-0.5000-0.5734 ( 31672 PWs)   bands (ev):

   -66.7606 -66.7429 -66.7429 -66.7374 -66.6787 -66.6787 -66.6616 -66.6616
   -66.5989 -62.3974 -62.3931 -62.3931 -62.3683 -62.3683 -62.3512 -62.3289
   -62.3184 -62.3184 -35.5350 -35.5114 -35.5113 -35.5085 -35.5085 -35.5028
   -35.4992 -35.4769 -35.4742 -35.4601 -35.4573 -35.4572 -35.4375 -35.4373
   -35.4215 -35.4214 -35.4162 -35.4160 -35.4149 -35.4148 -35.3903 -35.3902
   -35.3831 -35.3824 -35.3766 -35.3318 -35.3202 -31.2491 -31.2488 -31.2331
   -31.2294 -31.2172 -31.2171 -31.2102 -31.2101 -31.2051 -31.1941 -31.1940
   -31.1931 -31.1912 -31.1877 -31.1766 -31.1695 -31.1692 -31.1682 -31.1680
   -31.1504 -31.1480 -31.1459 -31.1457 -31.1456 -31.1418 -31.1405 -31.1397
     6.8891   6.9100   6.9154   6.9391   6.9848   7.0165   7.0305   7.0461
     8.4449   8.4651   8.4703   8.4765   8.4779   8.4884   8.4884   8.4896
     8.4990   8.4999   8.5133   8.5187   8.5326   8.5347   8.5483   8.5603
     8.5672   8.5839   8.5848   8.6181   8.8760   8.8765   8.8876   8.8949
     8.9062   8.9191   8.9267   8.9345   9.0881   9.1044   9.1109   9.1164
     9.1227   9.1394   9.1426   9.1455   9.1460   9.1491   9.1568   9.1582
     9.1650   9.1659   9.1678   9.1707   9.1720   9.1721   9.1740   9.1763
     9.1797   9.1803   9.1844   9.1872   9.2044   9.2067   9.2099   9.2254
     9.2290   9.2377   9.2424   9.2460   9.2572   9.2619   9.2649   9.2745
     9.5444   9.5446   9.5502   9.5676   9.5877   9.5926   9.6050   9.6242
     9.6432   9.6652   9.6679   9.6760   9.7313   9.7433   9.7444   9.7811
     9.8147   9.8307   9.8411   9.8560   9.8677   9.8823   9.8857   9.8938
    10.1129  10.1150  10.1449  10.1574  10.1577  10.1620  10.1865  10.1865
    10.2797  10.3140  10.4413  10.4520  10.4549  10.4562  10.4798  10.4807
    10.4835  10.4836  10.4963  10.5002  10.5017  10.5071  10.5083  10.5146
    10.5168  10.5282  10.5373  10.5491  10.5539  10.5585  10.5740  10.5843
    10.6072  10.6124  10.6260  10.6406  10.6454  10.6611  10.6758  10.6839
    10.6883  10.6891  10.6950  10.6999  10.7122  10.7429  11.0373  11.0537
    11.0772  11.0788  11.0862  11.0917  11.0968  11.1208  11.3738  11.3793
    11.3887  11.3909  11.3996  11.4292  11.4406  11.4511  11.4601  11.4755
    11.4828  11.4838  11.4990  11.5009  11.5141  11.5373  11.6087  11.6401
    11.6434  11.6477  11.6480  11.6752  11.6763  11.6915  11.6946  11.7028
    11.7240  11.7244  11.7294  11.7585  11.7596  11.7626  11.7757  11.7844
    11.7983  11.8054  11.8108  11.8327  11.8399  11.9321  11.9787  12.0064
    12.0227  12.0415  12.0507  12.0703  12.0805  12.0904  12.1195  12.1500
    12.1800  12.1834  12.1919  12.2084  12.2100  12.2192  12.2429  12.3295
    12.3867  12.3980  12.4209  12.4305  12.4437  12.4443  12.4547  12.4562
    12.4884  12.4945  12.5112  12.5324  12.5360  12.5381  12.5642  12.5652
    12.6001  12.6571  12.6635  12.6725  12.6811  12.6832  12.7987  12.8284
    12.8760  12.8781  12.9715  13.0313  13.0566  13.0904  13.1590  13.1830
    13.1940  13.2706  13.2874  13.3036  13.4089  13.4299  13.4604  13.5229
    13.5825  13.6444  13.7788  13.8132  13.8231  13.9882  14.0930  14.1114
    14.1787  14.1985  14.4225  14.4285  14.6448  14.7061  14.9131  15.0577
    15.1944  15.2033  15.3734  15.3966  15.4446  15.5116  15.6196  15.7104
    15.8055  15.8091  15.8154  15.8357  15.8624  15.9128  15.9353  15.9434
    15.9488  15.9973  15.9996  16.0707  16.1021  16.1332  16.1942  16.1963
    16.2016  16.2471  16.2699  16.2972  16.3652  16.3714  16.4171  16.4701
    16.5365  16.5917  16.6102  16.6241  16.6309  16.6843  16.6969  16.7156
    16.7283  16.7872  16.8965  16.9039  16.9303  16.9542  16.9571  17.0356
    17.0724  17.0919  17.5991  17.7461  17.9079  17.9493  19.0096  19.0303
    19.0361  19.0490  19.1312  19.1551  19.1871  19.1894  19.3050  19.3133

     the Fermi energy is    14.8294 ev

!    total energy              =  -33062.58582970 Ry
     Harris-Foulkes estimate   =  -33062.58581190 Ry
     estimated scf accuracy    <       0.00000068 Ry

     total all-electron energy =  -1410574.676204 Ry

     The total energy is the sum of the following terms:

     one-electron contribution =   -1645.64050073 Ry
     hartree contribution      =    1489.86277985 Ry
     xc contribution           =   -1658.73554253 Ry
     ewald contribution        =   -4919.25534656 Ry
     one-center paw contrib.   =  -26328.81721973 Ry

     total magnetization       =    -0.31 Bohr mag/cell
     absolute magnetization    =    78.66 Bohr mag/cell

     convergence has been achieved in  21 iterations

     Writing output data file mnau2.save
 
     init_run     :     40.76s CPU     41.43s WALL (       1 calls)
     electrons    :   2382.27s CPU   2425.36s WALL (       1 calls)

     Called by init_run:
     wfcinit      :     34.82s CPU     35.24s WALL (       1 calls)
     potinit      :      2.47s CPU      2.53s WALL (       1 calls)

     Called by electrons:
     c_bands      :   2102.01s CPU   2135.78s WALL (      21 calls)
     sum_band     :    224.76s CPU    230.39s WALL (      21 calls)
     v_of_rho     :      5.66s CPU      5.85s WALL (      22 calls)
     newd         :     17.93s CPU     20.50s WALL (      22 calls)
     PAW_pot      :     32.63s CPU     33.09s WALL (      22 calls)
     mix_rho      :      1.15s CPU      1.29s WALL (      21 calls)

     Called by c_bands:
     init_us_2    :      7.85s CPU      7.88s WALL (     516 calls)
     cegterg      :   2052.33s CPU   2085.53s WALL (     252 calls)

     Called by sum_band:
     sum_band:bec :      1.26s CPU      1.26s WALL (     252 calls)
     addusdens    :     31.91s CPU     34.96s WALL (      21 calls)

     Called by *egterg:
     h_psi        :    724.82s CPU    733.28s WALL (    1004 calls)
     s_psi        :    175.17s CPU    175.40s WALL (    1004 calls)
     g_psi        :      2.69s CPU      2.70s WALL (     740 calls)
     cdiaghg      :    742.25s CPU    742.95s WALL (     992 calls)

     Called by h_psi:
     h_psi:pot    :    718.78s CPU    727.20s WALL (    1004 calls)
     h_psi:calbec :    175.39s CPU    177.02s WALL (    1004 calls)
     vloc_psi     :    367.36s CPU    373.99s WALL (    1004 calls)
     add_vuspsi   :    176.01s CPU    176.18s WALL (    1004 calls)

     General routines
     calbec       :    250.52s CPU    252.94s WALL (    1256 calls)
     fft          :      4.99s CPU      5.37s WALL (     672 calls)
     ffts         :      0.11s CPU      0.11s WALL (      86 calls)
     fftw         :    345.62s CPU    351.97s WALL (  561402 calls)
     interpolate  :      0.84s CPU      0.89s WALL (      86 calls)
 
     Parallel routines
     fft_scatt_xy :     42.97s CPU     43.63s WALL (  562160 calls)
     fft_scatt_yz :     93.85s CPU     96.86s WALL (  562160 calls)
 
     PWSCF        : 40m27.80s CPU    41m22.83s WALL

 
   This run was terminated on:   1:40:26   8Mar2019            

=------------------------------------------------------------------------------=
   JOB DONE.
=------------------------------------------------------------------------------=
