
     Program PWSCF v.6.2 (svn rev. 14038) starts on  8Mar2019 at  5:12:10 

     This program is part of the open-source Quantum ESPRESSO suite
     for quantum simulation of materials; please cite
         "P. Giannozzi et al., J. Phys.:Condens. Matter 21 395502 (2009);
         "P. Giannozzi et al., J. Phys.:Condens. Matter 29 465901 (2017);
          URL http://www.quantum-espresso.org", 
     in publications or presentations arising from this work. More details at
     http://www.quantum-espresso.org/quote

     Parallel version (MPI), running on    16 processors

     MPI processes distributed on     1 nodes
     R & G space division:  proc/nbgrp/npool/nimage =      16
     Waiting for input...
     Reading input from standard input

     Current dimensions of program PWSCF are:
     Max number of different atomic species (ntypx) = 10
     Max number of k-points (npk) =  40000
     Max angular momentum in pseudopotentials (lmaxx) =  3
               file Mn.pbe-spn-kjpaw_psl.0.3.1.UPF: wavefunction(s)  3P 3D renormalized
               file Mn.pbe-spn-kjpaw_psl.0.3.1.UPF: wavefunction(s)  3P 3D renormalized
               file Au.pbe-dn-kjpaw_psl.0.1.UPF: wavefunction(s)  6S 6P 5D renormalized

     Subspace diagonalization in iterative solution of the eigenvalue problem:
     a serial algorithm will be used

 
     Parallelization info
     --------------------
     sticks:   dense  smooth     PW     G-vecs:    dense   smooth      PW
     Min         736     331     90                52486    15847    2256
     Max         737     332     91                52489    15850    2259
     Sum       11785    5297   1449               839803   253559   36125
 


     bravais-lattice index     =            0
     lattice parameter (alat)  =      19.2459  a.u.
     unit-cell volume          =    6216.1497 (a.u.)^3
     number of atoms/cell      =           54
     number of atomic types    =            3
     number of electrons       =       666.00
     number of Kohn-Sham states=          400
     kinetic-energy cutoff     =      45.0000  Ry
     charge density cutoff     =     400.0000  Ry
     convergence threshold     =      1.0E-06
     mixing beta               =       0.1000
     number of iterations used =            8  plain     mixing
     Exchange-correlation      = SLA PW PBX PBC ( 1  4  3  4 0 0)

     celldm(1)=  19.245946  celldm(2)=   0.000000  celldm(3)=   0.000000
     celldm(4)=   0.000000  celldm(5)=   0.000000  celldm(6)=   0.000000

     crystal axes: (cart. coord. in units of alat)
               a(1) = (   1.000000   0.000000   0.000000 )  
               a(2) = (   0.000000   1.000000   0.000000 )  
               a(3) = (   0.000000   0.000000   0.871974 )  

     reciprocal axes: (cart. coord. in units 2 pi/alat)
               b(1) = (  1.000000  0.000000  0.000000 )  
               b(2) = (  0.000000  1.000000  0.000000 )  
               b(3) = (  0.000000  0.000000  1.146823 )  


     PseudoPot. # 1 for Mn read from file:
     ./pseudo/Mn.pbe-spn-kjpaw_psl.0.3.1.UPF
     MD5 check sum: 7eef95dd2aae66803482eea66ebeebf1
     Pseudo is Projector augmented-wave + core cor, Zval = 15.0
     Generated using "atomic" code by A. Dal Corso v.5.0.99 svn rev. 10869
     Shape of augmentation charge: PSQ
     Using radial grid of 1187 points,  6 beta functions with: 
                l(1) =   0
                l(2) =   0
                l(3) =   1
                l(4) =   1
                l(5) =   2
                l(6) =   2
     Q(r) pseudized with 0 coefficients 


     PseudoPot. # 2 for Mn read from file:
     ./pseudo/Mn.pbe-spn-kjpaw_psl.0.3.1.UPF
     MD5 check sum: 7eef95dd2aae66803482eea66ebeebf1
     Pseudo is Projector augmented-wave + core cor, Zval = 15.0
     Generated using "atomic" code by A. Dal Corso v.5.0.99 svn rev. 10869
     Shape of augmentation charge: PSQ
     Using radial grid of 1187 points,  6 beta functions with: 
                l(1) =   0
                l(2) =   0
                l(3) =   1
                l(4) =   1
                l(5) =   2
                l(6) =   2
     Q(r) pseudized with 0 coefficients 


     PseudoPot. # 3 for Au read from file:
     ./pseudo/Au.pbe-dn-kjpaw_psl.0.1.UPF
     MD5 check sum: 5c9b92683623e7ae2ab3f8e525febab6
     Pseudo is Projector augmented-wave + core cor, Zval = 11.0
     Generated using "atomic" code by A. Dal Corso v.5.0.2 svn rev. 9415
     Shape of augmentation charge: PSQ
     Using radial grid of 1279 points,  6 beta functions with: 
                l(1) =   0
                l(2) =   0
                l(3) =   1
                l(4) =   1
                l(5) =   2
                l(6) =   2
     Q(r) pseudized with 0 coefficients 


     atomic species   valence    mass     pseudopotential
        Mn1           15.00    54.93800     Mn( 1.00)
        Mn2           15.00    54.93800     Mn( 1.00)
        Au            11.00   196.96600     Au( 1.00)

     Starting magnetic structure 
     atomic species   magnetization
        Mn1          0.800
        Mn2         -0.800
        Au           0.000

      2 Sym. Ops. (no inversion) found



   Cartesian axes

     site n.     atom                  positions (alat units)
         1           Mn1 tau(   1) = (   0.0000000   0.0000000   0.0000000  )
         2           Mn1 tau(   2) = (   0.0000000   0.3333300   0.0000000  )
         3           Mn2 tau(   3) = (   0.0000000   0.6666700   0.0000000  )
         4           Mn2 tau(   4) = (   0.3333300   0.0000000   0.0000000  )
         5           Mn1 tau(   5) = (   0.3333300   0.3333300   0.0000000  )
         6           Mn1 tau(   6) = (   0.3333300   0.6666700   0.0000000  )
         7           Mn1 tau(   7) = (   0.6666700   0.0000000   0.0000000  )
         8           Mn1 tau(   8) = (   0.6666700   0.3333300   0.0000000  )
         9           Mn2 tau(   9) = (   0.6666700   0.6666700   0.0000000  )
        10           Mn2 tau(  10) = (   0.1666700   0.1666700   0.4359871  )
        11           Mn2 tau(  11) = (   0.1666700   0.5000000   0.4359871  )
        12           Mn1 tau(  12) = (   0.1666700   0.8333300   0.4359871  )
        13           Mn1 tau(  13) = (   0.5000000   0.1666700   0.4359871  )
        14           Mn2 tau(  14) = (   0.5000000   0.5000000   0.4359871  )
        15           Mn2 tau(  15) = (   0.5000000   0.8333300   0.4359871  )
        16           Mn2 tau(  16) = (   0.8333300   0.1666700   0.4359871  )
        17           Mn2 tau(  17) = (   0.8333300   0.5000000   0.4359871  )
        18           Mn1 tau(  18) = (   0.8333300   0.8333300   0.4359871  )
        19           Au  tau(  19) = (   0.1666700   0.1666700   0.7327374  )
        20           Au  tau(  20) = (   0.1666700   0.5000000   0.7327374  )
        21           Au  tau(  21) = (   0.1666700   0.8333300   0.7327374  )
        22           Au  tau(  22) = (   0.5000000   0.1666700   0.7327374  )
        23           Au  tau(  23) = (   0.5000000   0.5000000   0.7327374  )
        24           Au  tau(  24) = (   0.5000000   0.8333300   0.7327374  )
        25           Au  tau(  25) = (   0.8333300   0.1666700   0.7327374  )
        26           Au  tau(  26) = (   0.8333300   0.5000000   0.7327374  )
        27           Au  tau(  27) = (   0.8333300   0.8333300   0.7327374  )
        28           Au  tau(  28) = (   0.1666700   0.1666700   0.1392369  )
        29           Au  tau(  29) = (   0.1666700   0.5000000   0.1392369  )
        30           Au  tau(  30) = (   0.1666700   0.8333300   0.1392369  )
        31           Au  tau(  31) = (   0.5000000   0.1666700   0.1392369  )
        32           Au  tau(  32) = (   0.5000000   0.5000000   0.1392369  )
        33           Au  tau(  33) = (   0.5000000   0.8333300   0.1392369  )
        34           Au  tau(  34) = (   0.8333300   0.1666700   0.1392369  )
        35           Au  tau(  35) = (   0.8333300   0.5000000   0.1392369  )
        36           Au  tau(  36) = (   0.8333300   0.8333300   0.1392369  )
        37           Au  tau(  37) = (   0.0000000   0.0000000   0.2967503  )
        38           Au  tau(  38) = (   0.0000000   0.3333300   0.2967503  )
        39           Au  tau(  39) = (   0.0000000   0.6666700   0.2967503  )
        40           Au  tau(  40) = (   0.3333300   0.0000000   0.2967503  )
        41           Au  tau(  41) = (   0.3333300   0.3333300   0.2967503  )
        42           Au  tau(  42) = (   0.3333300   0.6666700   0.2967503  )
        43           Au  tau(  43) = (   0.6666700   0.0000000   0.2967503  )
        44           Au  tau(  44) = (   0.6666700   0.3333300   0.2967503  )
        45           Au  tau(  45) = (   0.6666700   0.6666700   0.2967503  )
        46           Au  tau(  46) = (   0.0000000   0.0000000   0.5752240  )
        47           Au  tau(  47) = (   0.0000000   0.3333300   0.5752240  )
        48           Au  tau(  48) = (   0.0000000   0.6666700   0.5752240  )
        49           Au  tau(  49) = (   0.3333300   0.0000000   0.5752240  )
        50           Au  tau(  50) = (   0.3333300   0.3333300   0.5752240  )
        51           Au  tau(  51) = (   0.3333300   0.6666700   0.5752240  )
        52           Au  tau(  52) = (   0.6666700   0.0000000   0.5752240  )
        53           Au  tau(  53) = (   0.6666700   0.3333300   0.5752240  )
        54           Au  tau(  54) = (   0.6666700   0.6666700   0.5752240  )

     number of k points=     8 (tetrahedron method)
                       cart. coord. in units 2pi/alat
        k(    1) = (   0.0000000   0.0000000   0.0000000), wk =   0.1250000
        k(    2) = (   0.0000000   0.0000000  -0.5734114), wk =   0.1250000
        k(    3) = (   0.0000000  -0.5000000   0.0000000), wk =   0.1250000
        k(    4) = (   0.0000000  -0.5000000  -0.5734114), wk =   0.1250000
        k(    5) = (  -0.5000000  -0.5000000   0.0000000), wk =   0.1250000
        k(    6) = (  -0.5000000  -0.5000000  -0.5734114), wk =   0.1250000
        k(    7) = (  -0.5000000   0.0000000   0.0000000), wk =   0.1250000
        k(    8) = (  -0.5000000   0.0000000   0.5734114), wk =   0.1250000

     Dense  grid:   839803 G-vectors     FFT dimensions: ( 125, 125, 108)

     Smooth grid:   253559 G-vectors     FFT dimensions: (  90,  90,  72)

     Estimated max dynamical RAM per process >     570.13 MB

     Estimated total dynamical RAM >       8.91 GB
     Generating pointlists ...
     new r_m :   0.1129 (alat units)  2.1733 (a.u.) for type    1
     new r_m :   0.1129 (alat units)  2.1733 (a.u.) for type    2
     new r_m :   0.1129 (alat units)  2.1733 (a.u.) for type    3

     Check: negative/imaginary core charge=   -0.000006    0.000000

     Initial potential from superposition of free atoms

     starting charge  665.98709, renormalised to  666.00000
     Starting wfc are  504 randomized atomic wfcs
     Checking if some PAW data can be deallocated... 

     total cpu time spent up to now is       55.9 secs

     Self-consistent Calculation

     iteration #  1     ecut=    45.00 Ry     beta= 0.10
     Davidson diagonalization with overlap
     ethr =  1.00E-02,  avg # of iterations =  3.2

     total cpu time spent up to now is      215.0 secs

     total energy              =  -33047.20603930 Ry
     Harris-Foulkes estimate   =  -33044.05496524 Ry
     estimated scf accuracy    <      26.98361006 Ry

     total magnetization       =    -0.03 Bohr mag/cell
     absolute magnetization    =    92.03 Bohr mag/cell

     iteration #  2     ecut=    45.00 Ry     beta= 0.10
     Davidson diagonalization with overlap
     ethr =  4.05E-03,  avg # of iterations =  1.0

     total cpu time spent up to now is      323.3 secs

     total energy              =  -33058.59557774 Ry
     Harris-Foulkes estimate   =  -33047.38702833 Ry
     estimated scf accuracy    <      21.35362413 Ry

     total magnetization       =    -0.02 Bohr mag/cell
     absolute magnetization    =    91.64 Bohr mag/cell

     iteration #  3     ecut=    45.00 Ry     beta= 0.10
     Davidson diagonalization with overlap
     ethr =  3.21E-03,  avg # of iterations =  2.1

     total cpu time spent up to now is      456.6 secs

     total energy              =  -33066.00076227 Ry
     Harris-Foulkes estimate   =  -33061.42104838 Ry
     estimated scf accuracy    <       8.91764538 Ry

     total magnetization       =     0.09 Bohr mag/cell
     absolute magnetization    =    85.49 Bohr mag/cell

     iteration #  4     ecut=    45.00 Ry     beta= 0.10
     Davidson diagonalization with overlap
     ethr =  1.34E-03,  avg # of iterations =  4.0

     total cpu time spent up to now is      648.2 secs

     total energy              =  -33059.44834452 Ry
     Harris-Foulkes estimate   =  -33068.33461030 Ry
     estimated scf accuracy    <      47.83931455 Ry

     total magnetization       =     0.30 Bohr mag/cell
     absolute magnetization    =    73.03 Bohr mag/cell

     iteration #  5     ecut=    45.00 Ry     beta= 0.10
     Davidson diagonalization with overlap
     ethr =  1.34E-03,  avg # of iterations =  5.1

     total cpu time spent up to now is      875.1 secs

     total energy              =  -33061.94460645 Ry
     Harris-Foulkes estimate   =  -33062.65800807 Ry
     estimated scf accuracy    <       4.08880076 Ry

     total magnetization       =     0.11 Bohr mag/cell
     absolute magnetization    =    83.30 Bohr mag/cell

     iteration #  6     ecut=    45.00 Ry     beta= 0.10
     Davidson diagonalization with overlap
     ethr =  6.14E-04,  avg # of iterations =  3.7

     total cpu time spent up to now is     1030.1 secs

     total energy              =  -33062.54034374 Ry
     Harris-Foulkes estimate   =  -33062.52912114 Ry
     estimated scf accuracy    <       0.25569155 Ry

     total magnetization       =    -0.21 Bohr mag/cell
     absolute magnetization    =    79.85 Bohr mag/cell

     iteration #  7     ecut=    45.00 Ry     beta= 0.10
     Davidson diagonalization with overlap
     ethr =  3.84E-05,  avg # of iterations =  5.1

     total cpu time spent up to now is     1247.8 secs

     total energy              =  -33062.56852077 Ry
     Harris-Foulkes estimate   =  -33062.59669062 Ry
     estimated scf accuracy    <       0.09576372 Ry

     total magnetization       =    -0.17 Bohr mag/cell
     absolute magnetization    =    79.13 Bohr mag/cell

     iteration #  8     ecut=    45.00 Ry     beta= 0.10
     Davidson diagonalization with overlap
     ethr =  1.44E-05,  avg # of iterations =  4.4

     total cpu time spent up to now is     1489.9 secs

     total energy              =  -33062.58617179 Ry
     Harris-Foulkes estimate   =  -33062.61438434 Ry
     estimated scf accuracy    <       0.25290116 Ry

     total magnetization       =    -0.17 Bohr mag/cell
     absolute magnetization    =    78.05 Bohr mag/cell

     iteration #  9     ecut=    45.00 Ry     beta= 0.10
     Davidson diagonalization with overlap
     ethr =  1.44E-05,  avg # of iterations =  1.1

     total cpu time spent up to now is     1599.5 secs

     total energy              =  -33062.59106442 Ry
     Harris-Foulkes estimate   =  -33062.59186263 Ry
     estimated scf accuracy    <       0.10046177 Ry

     total magnetization       =    -0.17 Bohr mag/cell
     absolute magnetization    =    78.05 Bohr mag/cell

     iteration # 10     ecut=    45.00 Ry     beta= 0.10
     Davidson diagonalization with overlap
     ethr =  1.44E-05,  avg # of iterations =  1.8

     total cpu time spent up to now is     1716.9 secs

     total energy              =  -33062.58161445 Ry
     Harris-Foulkes estimate   =  -33062.59594947 Ry
     estimated scf accuracy    <       0.05073233 Ry

     total magnetization       =    -0.20 Bohr mag/cell
     absolute magnetization    =    78.29 Bohr mag/cell

     iteration # 11     ecut=    45.00 Ry     beta= 0.10
     Davidson diagonalization with overlap
     ethr =  7.62E-06,  avg # of iterations =  3.8

     total cpu time spent up to now is     1885.6 secs

     total energy              =  -33062.58877203 Ry
     Harris-Foulkes estimate   =  -33062.59455194 Ry
     estimated scf accuracy    <       0.01164972 Ry

     total magnetization       =    -0.18 Bohr mag/cell
     absolute magnetization    =    78.64 Bohr mag/cell

     iteration # 12     ecut=    45.00 Ry     beta= 0.10
     Davidson diagonalization with overlap
     ethr =  1.75E-06,  avg # of iterations =  3.3

     total cpu time spent up to now is     2056.9 secs

     total energy              =  -33062.59340968 Ry
     Harris-Foulkes estimate   =  -33062.59329412 Ry
     estimated scf accuracy    <       0.01126841 Ry

     total magnetization       =    -0.21 Bohr mag/cell
     absolute magnetization    =    78.70 Bohr mag/cell

     iteration # 13     ecut=    45.00 Ry     beta= 0.10
     Davidson diagonalization with overlap
     ethr =  1.69E-06,  avg # of iterations =  1.4

     total cpu time spent up to now is     2170.2 secs

     total energy              =  -33062.59466254 Ry
     Harris-Foulkes estimate   =  -33062.59390902 Ry
     estimated scf accuracy    <       0.00197940 Ry

     total magnetization       =    -0.20 Bohr mag/cell
     absolute magnetization    =    78.62 Bohr mag/cell

     iteration # 14     ecut=    45.00 Ry     beta= 0.10
     Davidson diagonalization with overlap
     ethr =  2.97E-07,  avg # of iterations =  2.9

     total cpu time spent up to now is     2329.5 secs

     total energy              =  -33062.59499025 Ry
     Harris-Foulkes estimate   =  -33062.59490031 Ry
     estimated scf accuracy    <       0.00025712 Ry

     total magnetization       =    -0.20 Bohr mag/cell
     absolute magnetization    =    78.50 Bohr mag/cell

     iteration # 15     ecut=    45.00 Ry     beta= 0.10
     Davidson diagonalization with overlap
     ethr =  3.86E-08,  avg # of iterations =  3.7

     total cpu time spent up to now is     2476.2 secs

     total energy              =  -33062.59506811 Ry
     Harris-Foulkes estimate   =  -33062.59495672 Ry
     estimated scf accuracy    <       0.00011460 Ry

     total magnetization       =    -0.21 Bohr mag/cell
     absolute magnetization    =    78.47 Bohr mag/cell

     iteration # 16     ecut=    45.00 Ry     beta= 0.10
     Davidson diagonalization with overlap
     ethr =  1.72E-08,  avg # of iterations =  2.2

     total cpu time spent up to now is     2600.2 secs

     total energy              =  -33062.59520927 Ry
     Harris-Foulkes estimate   =  -33062.59503632 Ry
     estimated scf accuracy    <       0.00008550 Ry

     total magnetization       =    -0.21 Bohr mag/cell
     absolute magnetization    =    78.44 Bohr mag/cell

     iteration # 17     ecut=    45.00 Ry     beta= 0.10
     Davidson diagonalization with overlap
     ethr =  1.28E-08,  avg # of iterations =  2.7

     total cpu time spent up to now is     2749.1 secs

     total energy              =  -33062.59524099 Ry
     Harris-Foulkes estimate   =  -33062.59519484 Ry
     estimated scf accuracy    <       0.00002586 Ry

     total magnetization       =    -0.21 Bohr mag/cell
     absolute magnetization    =    78.42 Bohr mag/cell

     iteration # 18     ecut=    45.00 Ry     beta= 0.10
     Davidson diagonalization with overlap
     ethr =  3.88E-09,  avg # of iterations =  3.0

     total cpu time spent up to now is     2915.2 secs

     total energy              =  -33062.59523649 Ry
     Harris-Foulkes estimate   =  -33062.59521879 Ry
     estimated scf accuracy    <       0.00000812 Ry

     total magnetization       =    -0.22 Bohr mag/cell
     absolute magnetization    =    78.41 Bohr mag/cell

     iteration # 19     ecut=    45.00 Ry     beta= 0.10
     Davidson diagonalization with overlap
     ethr =  1.22E-09,  avg # of iterations =  3.0

     total cpu time spent up to now is     3081.0 secs

     total energy              =  -33062.59521612 Ry
     Harris-Foulkes estimate   =  -33062.59520909 Ry
     estimated scf accuracy    <       0.00000259 Ry

     total magnetization       =    -0.22 Bohr mag/cell
     absolute magnetization    =    78.39 Bohr mag/cell

     iteration # 20     ecut=    45.00 Ry     beta= 0.10
     Davidson diagonalization with overlap
     ethr =  3.89E-10,  avg # of iterations =  2.0

     total cpu time spent up to now is     3206.4 secs

     total energy              =  -33062.59521424 Ry
     Harris-Foulkes estimate   =  -33062.59520916 Ry
     estimated scf accuracy    <       0.00000138 Ry

     total magnetization       =    -0.22 Bohr mag/cell
     absolute magnetization    =    78.39 Bohr mag/cell

     iteration # 21     ecut=    45.00 Ry     beta= 0.10
     Davidson diagonalization with overlap
     ethr =  2.07E-10,  avg # of iterations =  2.0

     total cpu time spent up to now is     3330.0 secs

     total energy              =  -33062.59521506 Ry
     Harris-Foulkes estimate   =  -33062.59521071 Ry
     estimated scf accuracy    <       0.00000102 Ry

     total magnetization       =    -0.22 Bohr mag/cell
     absolute magnetization    =    78.39 Bohr mag/cell

     iteration # 22     ecut=    45.00 Ry     beta= 0.10
     Davidson diagonalization with overlap
     ethr =  1.53E-10,  avg # of iterations =  2.1
 
     Magnetic moment per site:
     atom:    1    charge:   13.5814    magn:    3.9669    constr:    0.0000
     atom:    2    charge:   13.5783    magn:    3.9913    constr:    0.0000
     atom:    3    charge:   13.5814    magn:   -3.9833    constr:    0.0000
     atom:    4    charge:   13.5728    magn:   -4.0842    constr:    0.0000
     atom:    5    charge:   13.5742    magn:    4.0018    constr:    0.0000
     atom:    6    charge:   13.5797    magn:    3.9846    constr:    0.0000
     atom:    7    charge:   13.5820    magn:    3.9614    constr:    0.0000
     atom:    8    charge:   13.5707    magn:    4.0357    constr:    0.0000
     atom:    9    charge:   13.5770    magn:   -4.0166    constr:    0.0000
     atom:   10    charge:   13.5716    magn:   -4.0465    constr:    0.0000
     atom:   11    charge:   13.5810    magn:   -3.9664    constr:    0.0000
     atom:   12    charge:   13.5757    magn:    4.0205    constr:    0.0000
     atom:   13    charge:   13.5823    magn:    3.9894    constr:    0.0000
     atom:   14    charge:   13.5791    magn:   -3.9632    constr:    0.0000
     atom:   15    charge:   13.5803    magn:   -3.9771    constr:    0.0000
     atom:   16    charge:   13.5757    magn:   -4.0087    constr:    0.0000
     atom:   17    charge:   13.5738    magn:   -4.0196    constr:    0.0000
     atom:   18    charge:   13.5764    magn:    4.0136    constr:    0.0000
     atom:   19    charge:    9.1213    magn:    0.0155    constr:    0.0000
     atom:   20    charge:    9.1215    magn:    0.0147    constr:    0.0000
     atom:   21    charge:    9.1218    magn:    0.0096    constr:    0.0000
     atom:   22    charge:    9.1196    magn:    0.0322    constr:    0.0000
     atom:   23    charge:    9.1208    magn:    0.0174    constr:    0.0000
     atom:   24    charge:    9.1198    magn:   -0.0093    constr:    0.0000
     atom:   25    charge:    9.1205    magn:    0.0519    constr:    0.0000
     atom:   26    charge:    9.1215    magn:   -0.0142    constr:    0.0000
     atom:   27    charge:    9.1208    magn:    0.0088    constr:    0.0000
     atom:   28    charge:    9.1213    magn:    0.0155    constr:    0.0000
     atom:   29    charge:    9.1215    magn:    0.0147    constr:    0.0000
     atom:   30    charge:    9.1218    magn:    0.0096    constr:    0.0000
     atom:   31    charge:    9.1196    magn:    0.0322    constr:    0.0000
     atom:   32    charge:    9.1208    magn:    0.0174    constr:    0.0000
     atom:   33    charge:    9.1198    magn:   -0.0093    constr:    0.0000
     atom:   34    charge:    9.1205    magn:    0.0519    constr:    0.0000
     atom:   35    charge:    9.1215    magn:   -0.0142    constr:    0.0000
     atom:   36    charge:    9.1208    magn:    0.0088    constr:    0.0000
     atom:   37    charge:    9.1213    magn:    0.0058    constr:    0.0000
     atom:   38    charge:    9.1222    magn:   -0.0532    constr:    0.0000
     atom:   39    charge:    9.1206    magn:   -0.0123    constr:    0.0000
     atom:   40    charge:    9.1210    magn:   -0.0094    constr:    0.0000
     atom:   41    charge:    9.1211    magn:   -0.0150    constr:    0.0000
     atom:   42    charge:    9.1200    magn:   -0.0211    constr:    0.0000
     atom:   43    charge:    9.1206    magn:    0.0096    constr:    0.0000
     atom:   44    charge:    9.1211    magn:   -0.0147    constr:    0.0000
     atom:   45    charge:    9.1203    magn:   -0.0433    constr:    0.0000
     atom:   46    charge:    9.1213    magn:    0.0058    constr:    0.0000
     atom:   47    charge:    9.1222    magn:   -0.0532    constr:    0.0000
     atom:   48    charge:    9.1206    magn:   -0.0123    constr:    0.0000
     atom:   49    charge:    9.1210    magn:   -0.0094    constr:    0.0000
     atom:   50    charge:    9.1211    magn:   -0.0150    constr:    0.0000
     atom:   51    charge:    9.1200    magn:   -0.0211    constr:    0.0000
     atom:   52    charge:    9.1206    magn:    0.0096    constr:    0.0000
     atom:   53    charge:    9.1211    magn:   -0.0147    constr:    0.0000
     atom:   54    charge:    9.1203    magn:   -0.0433    constr:    0.0000

     total cpu time spent up to now is     3470.5 secs

     End of self-consistent calculation

 ------ SPIN UP ------------


          k = 0.0000 0.0000 0.0000 ( 31747 PWs)   bands (ev):

   -66.7715 -66.7110 -66.6826 -66.6685 -66.6678 -66.6281 -66.6032 -66.5926
   -66.5811 -62.4016 -62.3900 -62.3849 -62.3733 -62.3517 -62.3355 -62.3319
   -62.3249 -62.3029 -35.5312 -35.5193 -35.4910 -35.4763 -35.4643 -35.4602
   -35.4317 -35.4284 -35.4213 -35.4212 -35.4200 -35.4163 -35.4074 -35.3980
   -35.3899 -35.3887 -35.3830 -35.3632 -35.3578 -35.3544 -35.3457 -35.3422
   -35.3359 -35.3281 -35.3183 -35.3113 -35.3056 -31.2415 -31.2387 -31.2339
   -31.2261 -31.2205 -31.2191 -31.2149 -31.2059 -31.1981 -31.1931 -31.1883
   -31.1876 -31.1869 -31.1789 -31.1769 -31.1761 -31.1624 -31.1592 -31.1576
   -31.1571 -31.1502 -31.1497 -31.1462 -31.1368 -31.1309 -31.1268 -31.1195
     5.6165   7.1423   7.1633   7.1945   7.2170   7.3652   7.8551   7.8851
     7.9105   7.9547   8.0798   8.1093   8.1456   8.1591   8.1912   8.2492
     8.2754   8.2798   8.3075   8.5257   8.5444   8.5684   8.5725   8.5783
     8.6245   8.8554   8.8604   8.8741   8.8796   8.8871   8.8977   8.8982
     8.9039   8.9093   8.9160   8.9195   8.9308   8.9478   8.9541   8.9695
     8.9879   9.0840   9.1200   9.1243   9.1275   9.1335   9.1574   9.1627
     9.1859   9.1959   9.2138   9.2693   9.2816   9.3017   9.3072   9.3467
     9.3502   9.3623   9.3731   9.3800   9.3821   9.3962   9.4199   9.4275
     9.4410   9.4448   9.4488   9.4631   9.4641   9.4674   9.4902   9.5783
     9.5821   9.5874   9.5932   9.5960   9.6425   9.6456   9.6675   9.6703
     9.6727   9.6769   9.6858   9.7481   9.7592   9.7747   9.7835   9.8500
     9.8504   9.9110   9.9245   9.9338   9.9502   9.9532  10.0002  10.0294
    10.0854  10.1278  10.1531  10.1815  10.2853  10.2920  10.2949  10.2965
    10.3051  10.3102  10.3105  10.3142  10.3245  10.3262  10.3389  10.3423
    10.3488  10.3507  10.3592  10.3604  10.3616  10.3634  10.3831  10.3841
    10.3927  10.5113  10.5118  10.5580  10.5882  10.6084  10.6386  10.6890
    10.7058  10.7838  10.7867  10.7901  10.8067  10.8125  10.8256  10.8485
    10.8522  10.8677  10.8733  10.8756  10.8760  10.8806  10.8975  10.9054
    10.9082  10.9092  11.0207  11.0551  11.0578  11.0927  11.2037  11.2155
    11.2213  11.2263  11.2306  11.2597  11.2726  11.2921  11.3352  11.3417
    11.3544  11.3812  11.3905  11.3918  11.4032  11.4077  11.4258  11.4279
    11.4967  11.5065  11.5693  11.5873  11.5905  11.5936  11.5960  11.5980
    11.6217  11.6282  11.6675  11.7241  11.7326  11.7430  11.7514  11.7956
    11.8213  11.8347  11.8415  11.8671  11.8705  11.9180  11.9339  11.9480
    11.9636  11.9889  12.0975  12.0979  12.1012  12.1032  12.1061  12.1062
    12.1408  12.1440  12.1462  12.1475  12.1503  12.1690  12.2000  12.2349
    12.2572  12.2965  12.3334  12.3592  12.3716  12.3731  12.3948  12.3979
    12.4339  12.4357  12.4631  12.4932  12.5024  12.5043  12.5114  12.5416
    12.5518  12.5621  12.5754  12.5894  12.6145  12.6259  12.6580  12.6991
    12.7158  12.7312  12.7651  12.8010  12.9652  13.0168  13.0407  13.1169
    13.1326  13.1460  13.1593  13.1648  13.4091  13.6350  13.7318  13.7944
    13.8391  14.0661  14.1237  14.2152  14.2252  14.3783  14.3824  14.4946
    14.7740  14.8894  14.9085  15.0384  15.1003  15.1411  15.1755  15.2150
    15.2632  15.2704  15.3226  15.3508  15.3820  15.4932  15.5017  15.5533
    15.5805  15.6947  15.7536  15.8306  15.8476  15.8791  15.9830  16.0177
    16.0571  16.0890  16.1219  16.1377  16.1466  16.1625  16.1654  16.1904
    16.1911  16.2219  16.2373  16.2773  16.3277  16.3540  16.3955  16.4253
    16.4494  16.4746  16.5391  16.5882  16.6598  16.6609  16.8547  16.8703
    16.9543  17.0328  17.1654  17.1764  17.2028  17.2534  17.3169  17.3721
    17.3986  17.4927  17.8425  17.8972  17.9384  17.9466  17.9684  18.0433
    18.1282  18.3429  18.4513  18.9579  18.9964  19.0614  19.1202  19.2214

          k = 0.0000 0.0000-0.5734 ( 31692 PWs)   bands (ev):

   -66.7715 -66.7110 -66.6826 -66.6685 -66.6678 -66.6281 -66.6032 -66.5926
   -66.5811 -62.4016 -62.3900 -62.3849 -62.3733 -62.3517 -62.3355 -62.3319
   -62.3249 -62.3029 -35.5312 -35.5193 -35.4910 -35.4763 -35.4643 -35.4602
   -35.4317 -35.4284 -35.4213 -35.4212 -35.4200 -35.4163 -35.4074 -35.3980
   -35.3899 -35.3887 -35.3830 -35.3632 -35.3578 -35.3544 -35.3457 -35.3422
   -35.3359 -35.3281 -35.3183 -35.3113 -35.3056 -31.2415 -31.2387 -31.2339
   -31.2261 -31.2205 -31.2191 -31.2149 -31.2059 -31.1981 -31.1931 -31.1883
   -31.1876 -31.1869 -31.1789 -31.1769 -31.1761 -31.1624 -31.1592 -31.1576
   -31.1571 -31.1502 -31.1497 -31.1462 -31.1368 -31.1309 -31.1268 -31.1195
     6.1584   6.2143   7.5251   7.5463   7.5545   7.5687   7.6014   7.6166
     7.6217   7.6332   8.3056   8.3112   8.3306   8.3523   8.3527   8.3676
     8.3842   8.4098   8.4578   8.4596   8.4775   8.4840   8.4865   8.4959
     8.5122   8.5215   8.6913   8.7154   8.7469   8.7999   8.9420   8.9480
     8.9721   8.9758   8.9780   8.9834   8.9963   9.0009   9.0166   9.0243
     9.0384   9.0391   9.0465   9.0502   9.0730   9.0933   9.1961   9.2183
     9.2223   9.2326   9.2510   9.2627   9.2645   9.2709   9.2781   9.2816
     9.2837   9.2860   9.2896   9.2985   9.3036   9.3082   9.4086   9.4109
     9.4292   9.4359   9.4423   9.4427   9.4482   9.4584   9.4639   9.4687
     9.4833   9.4902   9.5066   9.5111   9.5193   9.5470   9.6170   9.6959
     9.7703   9.7816   9.7980   9.8019   9.8229   9.8305   9.8306   9.8450
     9.8744   9.8756   9.8787   9.8791   9.8876   9.8880   9.8910   9.8949
    10.0569  10.0586  10.0621  10.0636  10.1382  10.1480  10.1518  10.1629
    10.1660  10.1740  10.1872  10.1963  10.2109  10.2159  10.3557  10.3681
    10.3705  10.3878  10.4039  10.4071  10.4149  10.4313  10.4588  10.5292
    10.5799  10.5810  10.6126  10.6140  10.6189  10.6354  10.6374  10.6793
    10.6845  10.6887  10.7354  10.7511  10.7670  10.7677  10.8312  10.8703
    10.9186  10.9462  10.9857  11.0100  11.0236  11.0263  11.0428  11.0586
    11.0819  11.0912  11.1352  11.1358  11.1417  11.1602  11.2090  11.2214
    11.2261  11.2435  11.2502  11.2541  11.2608  11.2666  11.2684  11.2712
    11.2754  11.2802  11.2816  11.2827  11.2905  11.2935  11.3059  11.3142
    11.3196  11.3198  11.3213  11.3252  11.5187  11.5864  11.7092  11.7127
    11.7148  11.7154  11.7218  11.7230  11.7279  11.7325  11.7369  11.7444
    11.7564  11.7644  11.7777  11.7954  11.8108  11.8299  11.8437  11.9266
    11.9690  11.9765  12.0010  12.0028  12.0146  12.0737  12.0741  12.1187
    12.1656  12.1678  12.2253  12.2281  12.2471  12.2474  12.3025  12.3792
    12.4158  12.4431  12.4454  12.4592  12.4755  12.4802  12.4950  12.5095
    12.5183  12.5302  12.5477  12.5502  12.5676  12.5884  12.6234  12.6378
    12.6594  12.6853  12.7250  12.7580  12.7799  12.8265  12.8651  12.8749
    12.9210  12.9477  12.9983  13.0405  13.1669  13.1763  13.2165  13.2189
    13.2509  13.2598  13.3564  13.4175  13.5124  13.5416  13.7475  13.7779
    13.7802  13.9144  14.0466  14.0658  14.1280  14.1369  14.2932  14.4729
    14.7274  14.8868  14.9112  14.9339  14.9671  15.0142  15.0573  15.0861
    15.1326  15.1560  15.2150  15.2987  15.3434  15.3635  15.4526  15.4773
    15.5025  15.6751  15.7000  15.7687  15.8035  15.9267  16.0528  16.0660
    16.0742  16.0781  16.1097  16.1251  16.1519  16.1651  16.1952  16.2109
    16.2224  16.2357  16.2493  16.2552  16.2696  16.2806  16.2950  16.2986
    16.3534  16.4950  16.5090  16.6174  16.6292  16.6608  16.7254  16.7486
    16.8335  16.8877  17.2850  17.3852  17.3969  17.4070  17.4826  17.5287
    17.5691  17.6146  17.6478  17.7160  17.7604  17.7778  17.8063  17.8852
    17.8979  17.8986  18.1084  18.1151  18.2393  18.2726  18.2912  18.3043

          k = 0.0000-0.5000 0.0000 ( 31722 PWs)   bands (ev):

   -66.7715 -66.7110 -66.6826 -66.6685 -66.6678 -66.6281 -66.6032 -66.5926
   -66.5811 -62.4016 -62.3900 -62.3849 -62.3733 -62.3517 -62.3355 -62.3319
   -62.3249 -62.3029 -35.5312 -35.5193 -35.4910 -35.4763 -35.4643 -35.4602
   -35.4317 -35.4284 -35.4213 -35.4212 -35.4200 -35.4163 -35.4074 -35.3980
   -35.3899 -35.3887 -35.3830 -35.3632 -35.3578 -35.3544 -35.3457 -35.3422
   -35.3359 -35.3281 -35.3183 -35.3113 -35.3056 -31.2415 -31.2387 -31.2339
   -31.2261 -31.2205 -31.2191 -31.2149 -31.2059 -31.1981 -31.1931 -31.1883
   -31.1876 -31.1869 -31.1789 -31.1769 -31.1761 -31.1624 -31.1592 -31.1576
   -31.1571 -31.1502 -31.1497 -31.1462 -31.1368 -31.1309 -31.1268 -31.1195
     6.0296   6.0583   7.4158   7.4371   7.4566   7.4866   7.6683   7.6849
     8.1021   8.1177   8.1264   8.1782   8.2127   8.2376   8.2435   8.2721
     8.4056   8.4304   8.4435   8.4756   8.6131   8.6367   8.6536   8.6550
     8.6677   8.6789   8.6906   8.6946   8.7528   8.8114   8.8224   8.8362
     8.8557   8.8661   8.8700   8.8930   8.9023   8.9046   8.9141   8.9232
     8.9246   8.9303   8.9373   8.9530   9.0404   9.0569   9.1599   9.1731
     9.1915   9.1942   9.2106   9.2301   9.2394   9.2470   9.3147   9.3243
     9.3623   9.3748   9.3798   9.4144   9.4725   9.4838   9.4946   9.5154
     9.5303   9.5400   9.5547   9.5671   9.5790   9.5955   9.6033   9.6205
     9.6267   9.6297   9.6314   9.6324   9.6358   9.6373   9.6413   9.6534
     9.6665   9.6706   9.6792   9.6838   9.6902   9.7031   9.7205   9.7374
     9.7413   9.7562   9.7608   9.7735   9.8955   9.9021   9.9155   9.9844
    10.0055  10.0444  10.1504  10.1906  10.2053  10.2274  10.2482  10.2528
    10.2615  10.2698  10.2716  10.2728  10.2809  10.2887  10.3379  10.3501
    10.3714  10.3770  10.3833  10.3852  10.4244  10.4387  10.4569  10.4797
    10.5186  10.5264  10.5272  10.5319  10.5520  10.5769  10.5770  10.5942
    10.6137  10.6395  10.6682  10.6912  10.6937  10.7307  10.7354  10.7729
    10.8068  10.8168  10.8287  10.8502  10.8644  10.8775  10.9089  10.9390
    10.9892  11.0154  11.0178  11.0202  11.0303  11.0829  11.1647  11.1844
    11.2981  11.3443  11.3503  11.3585  11.3755  11.3877  11.3956  11.4029
    11.4205  11.4348  11.4450  11.4609  11.5057  11.5328  11.5456  11.5697
    11.5979  11.6030  11.6218  11.6363  11.6434  11.6736  11.6808  11.7331
    11.7494  11.7704  11.7803  11.8061  11.8161  11.8359  11.8548  11.8607
    11.8735  11.8919  11.9084  11.9281  11.9372  11.9588  11.9640  11.9682
    11.9775  11.9845  11.9915  12.0133  12.0392  12.1267  12.1419  12.1799
    12.1927  12.2029  12.2035  12.2334  12.2436  12.2603  12.2677  12.2776
    12.3001  12.3053  12.3218  12.3607  12.3751  12.3871  12.4002  12.4278
    12.4559  12.4794  12.4842  12.4924  12.5249  12.5271  12.5532  12.5576
    12.5702  12.6006  12.6172  12.6262  12.6484  12.7282  12.7457  12.7695
    12.9036  12.9917  13.0016  13.0463  13.0769  13.0869  13.1444  13.1535
    13.1696  13.1874  13.2089  13.2299  13.2512  13.2785  13.3204  13.3604
    13.4424  13.4862  13.5034  13.6600  13.7411  14.4851  14.5079  14.5540
    14.5934  14.7076  14.7328  14.7463  14.7854  14.8004  14.8807  14.9761
    15.0981  15.1295  15.2287  15.3388  15.3558  15.4544  15.5345  15.5881
    15.6102  15.6759  15.7714  15.7984  15.8329  15.9251  15.9532  16.0330
    16.0493  16.0657  16.1007  16.1310  16.1364  16.1551  16.1590  16.1985
    16.2308  16.2418  16.2532  16.2754  16.2858  16.2977  16.3498  16.3734
    16.4030  16.4387  16.4716  16.6187  16.6748  16.8251  17.0372  17.0577
    17.1553  17.1830  17.2607  17.3232  17.3717  17.4558  17.6372  17.6429
    17.7107  17.7758  17.8177  17.8247  17.8409  17.8589  17.9282  17.9558
    17.9562  18.0990  18.1751  18.2350  19.2349  19.2918  19.3453  19.3536

          k = 0.0000-0.5000-0.5734 ( 31696 PWs)   bands (ev):

   -66.7715 -66.7110 -66.6826 -66.6685 -66.6678 -66.6281 -66.6032 -66.5926
   -66.5811 -62.4016 -62.3900 -62.3849 -62.3733 -62.3517 -62.3355 -62.3319
   -62.3249 -62.3029 -35.5312 -35.5193 -35.4910 -35.4763 -35.4643 -35.4602
   -35.4317 -35.4284 -35.4213 -35.4212 -35.4200 -35.4163 -35.4074 -35.3980
   -35.3899 -35.3887 -35.3830 -35.3632 -35.3578 -35.3544 -35.3457 -35.3422
   -35.3359 -35.3281 -35.3183 -35.3113 -35.3056 -31.2415 -31.2387 -31.2339
   -31.2261 -31.2205 -31.2190 -31.2149 -31.2059 -31.1981 -31.1931 -31.1883
   -31.1876 -31.1869 -31.1789 -31.1769 -31.1761 -31.1624 -31.1592 -31.1576
   -31.1571 -31.1502 -31.1497 -31.1462 -31.1368 -31.1309 -31.1268 -31.1195
     6.5194   6.5829   6.5993   6.6398   7.8320   7.8391   7.8735   7.8892
     7.8968   7.9107   7.9305   7.9491   8.2680   8.2783   8.3019   8.3052
     8.5202   8.5254   8.5282   8.5333   8.6610   8.6655   8.6789   8.6877
     8.6939   8.6945   8.7051   8.7122   8.7234   8.7357   8.7427   8.7512
     8.7636   8.7792   8.7875   8.8024   8.9435   9.0120   9.0169   9.0312
     9.0410   9.0511   9.0516   9.0639   9.1749   9.2106   9.2140   9.2246
     9.2251   9.2296   9.2306   9.2371   9.2463   9.2536   9.2553   9.2571
     9.2599   9.2650   9.2768   9.2783   9.2906   9.3519   9.3871   9.4024
     9.4243   9.4295   9.4352   9.4535   9.4538   9.4682   9.4730   9.4812
     9.4815   9.4914   9.5195   9.5253   9.5339   9.5407   9.5584   9.5663
     9.5790   9.6145   9.7528   9.7585   9.7882   9.7978   9.8158   9.8222
     9.8304   9.8382   9.8411   9.8425   9.8558   9.8610   9.8668   9.8819
     9.9467   9.9671   9.9974  10.0085  10.0268  10.0423  10.0561  10.0639
    10.3655  10.3796  10.3870  10.3875  10.4027  10.4178  10.4226  10.4281
    10.4551  10.4693  10.4770  10.4807  10.4933  10.4942  10.5031  10.5472
    10.5498  10.5526  10.5629  10.5796  10.5889  10.5926  10.6233  10.6245
    10.6388  10.6422  10.6641  10.6722  10.6844  10.6925  10.6959  10.7184
    10.7382  10.8356  10.8963  10.9128  10.9916  11.0029  11.0210  11.0455
    11.1179  11.1329  11.1533  11.1571  11.1725  11.1871  11.1995  11.2093
    11.2106  11.2133  11.3042  11.3228  11.3341  11.3402  11.3623  11.3745
    11.3785  11.3835  11.3867  11.4356  11.4448  11.4501  11.4774  11.5324
    11.5356  11.5535  11.5681  11.5733  11.5784  11.5837  11.6015  11.6191
    11.6265  11.6368  11.7313  11.7337  11.7641  11.7705  11.7804  11.8614
    11.9005  11.9092  11.9297  11.9352  11.9546  11.9734  11.9911  11.9964
    12.0261  12.0288  12.0356  12.0389  12.0406  12.0489  12.0553  12.1140
    12.1562  12.1644  12.2109  12.2493  12.2546  12.3023  12.3043  12.3206
    12.3690  12.3942  12.4204  12.4259  12.4511  12.4534  12.4625  12.4780
    12.4868  12.4988  12.5249  12.5336  12.5490  12.5856  12.5904  12.5924
    12.6277  12.6285  12.6403  12.6562  12.6678  12.7083  12.8277  12.8364
    12.8490  12.9285  12.9367  12.9524  13.0294  13.0518  13.0709  13.0826
    13.2155  13.2196  13.3986  13.5497  13.6432  13.6896  13.7365  13.7470
    13.9000  13.9366  14.0093  14.0517  14.1237  14.1640  14.2067  14.3085
    14.3320  14.3447  14.5413  14.5677  14.6055  14.8316  14.8599  15.1904
    15.1934  15.1971  15.2193  15.2432  15.4349  15.4703  15.5432  15.5811
    15.6172  15.6438  15.6555  15.7066  15.7812  16.0152  16.0443  16.0611
    16.1021  16.1059  16.1327  16.1482  16.1681  16.1844  16.2180  16.2659
    16.2914  16.2920  16.3345  16.3373  16.3939  16.3940  16.4096  16.4607
    16.4684  16.5271  16.5707  16.5778  16.6115  16.6384  16.6468  16.6490
    16.6766  16.7375  16.7784  16.8207  16.8213  16.8956  16.9318  17.0427
    17.0635  17.1770  17.1801  17.2707  18.6500  18.6858  18.7353  18.7650
    18.7759  18.7999  18.8461  18.8659  18.8722  18.9004  18.9419  19.0223

          k =-0.5000-0.5000 0.0000 ( 31612 PWs)   bands (ev):

   -66.7715 -66.7110 -66.6826 -66.6685 -66.6678 -66.6281 -66.6032 -66.5926
   -66.5811 -62.4016 -62.3900 -62.3849 -62.3733 -62.3517 -62.3355 -62.3319
   -62.3249 -62.3029 -35.5312 -35.5193 -35.4911 -35.4763 -35.4643 -35.4602
   -35.4317 -35.4284 -35.4213 -35.4212 -35.4200 -35.4164 -35.4074 -35.3980
   -35.3899 -35.3887 -35.3830 -35.3632 -35.3578 -35.3544 -35.3457 -35.3422
   -35.3359 -35.3281 -35.3183 -35.3113 -35.3056 -31.2415 -31.2387 -31.2340
   -31.2261 -31.2205 -31.2190 -31.2149 -31.2059 -31.1977 -31.1933 -31.1883
   -31.1876 -31.1869 -31.1790 -31.1769 -31.1761 -31.1624 -31.1592 -31.1576
   -31.1571 -31.1502 -31.1497 -31.1462 -31.1368 -31.1309 -31.1268 -31.1195
     6.4039   6.4378   6.4454   6.4799   8.0027   8.0183   8.0240   8.0260
     8.0897   8.1255   8.2870   8.3193   8.3250   8.3261   8.3378   8.3414
     8.3459   8.3569   8.3618   8.3736   8.3746   8.3994   8.5848   8.6063
     8.6320   8.6466   8.6961   8.7058   8.7078   8.7183   8.7283   8.7475
     8.7593   8.7960   8.9155   8.9464   8.9529   8.9755   8.9761   8.9802
     8.9832   8.9850   9.0034   9.0126   9.0129   9.0194   9.0346   9.0471
     9.1114   9.1348   9.3012   9.3134   9.3216   9.3223   9.4014   9.4070
     9.4123   9.4178   9.4214   9.4255   9.4355   9.4377   9.4414   9.4524
     9.4610   9.4654   9.4720   9.4835   9.4849   9.5015   9.5026   9.5061
     9.5190   9.5281   9.5379   9.5460   9.5484   9.5692   9.5839   9.5867
     9.6067   9.6128   9.6971   9.6984   9.7667   9.7992   9.8116   9.8324
     9.8328   9.8368   9.8413   9.8466   9.8537   9.8637  10.0363  10.0607
    10.0784  10.0883  10.1027  10.1227  10.1513  10.1560  10.1585  10.1715
    10.1861  10.1924  10.1952  10.2026  10.2246  10.2255  10.2308  10.2335
    10.2343  10.2366  10.2479  10.2573  10.4373  10.4708  10.4744  10.4766
    10.4972  10.5071  10.5084  10.5508  10.6039  10.6257  10.6367  10.6528
    10.6564  10.6602  10.6647  10.6719  10.6923  10.6968  10.7075  10.7160
    10.7277  10.7851  10.8093  10.8131  10.8243  10.8587  10.8624  10.8732
    10.9067  10.9204  11.2003  11.2082  11.2130  11.2229  11.3011  11.3251
    11.3331  11.3499  11.3536  11.3678  11.3812  11.3970  11.5469  11.5649
    11.5867  11.6141  11.6369  11.6419  11.6452  11.6472  11.6505  11.6512
    11.6660  11.6715  11.6827  11.7239  11.7331  11.7484  11.7679  11.8700
    11.8776  11.8786  11.8823  11.8825  11.8842  11.8872  11.9599  12.0160
    12.0405  12.0634  12.0670  12.0727  12.0785  12.1009  12.1052  12.1091
    12.1097  12.1190  12.1270  12.1306  12.1464  12.1503  12.1508  12.1559
    12.1717  12.1801  12.1829  12.2321  12.2382  12.2430  12.2506  12.2555
    12.2642  12.2783  12.2891  12.2899  12.2905  12.3022  12.3113  12.3393
    12.3553  12.3616  12.3719  12.4502  12.4790  12.5010  12.5281  12.5455
    12.5630  12.5896  12.6016  12.6094  12.6292  12.6376  12.6574  12.6914
    12.7271  12.7614  12.7761  12.8725  12.8731  12.9269  12.9310  12.9539
    12.9695  13.0201  13.0329  13.0344  13.1328  13.6224  13.6633  13.6766
    13.6825  13.6958  13.8176  13.8946  13.9135  13.9439  14.1461  14.2160
    14.2376  14.3111  14.4162  14.4457  14.4716  14.4753  14.7959  14.8285
    14.9756  15.1335  15.1580  15.2024  15.3985  15.4371  15.6587  15.7170
    15.7698  15.7881  15.8232  15.8473  15.8531  15.9046  15.9523  15.9725
    15.9962  16.0024  16.0529  16.1306  16.1492  16.1621  16.1639  16.2266
    16.2491  16.2604  16.3136  16.3145  16.3505  16.3533  16.4158  16.4438
    16.5162  16.5294  16.5397  16.5635  16.6897  16.7065  16.7393  16.7544
    16.7737  16.7978  16.8926  16.9713  17.3824  17.3935  17.5912  17.9892
    18.1292  18.1585  18.2086  18.2526  18.2553  18.4284  18.5081  18.5507
    18.5883  18.6164  18.6527  18.6755  18.6771  18.7782  18.8017  18.8162

          k =-0.5000-0.5000-0.5734 ( 31672 PWs)   bands (ev):

   -66.7715 -66.7110 -66.6826 -66.6685 -66.6678 -66.6281 -66.6032 -66.5926
   -66.5811 -62.4016 -62.3900 -62.3849 -62.3733 -62.3517 -62.3355 -62.3319
   -62.3249 -62.3029 -35.5312 -35.5193 -35.4911 -35.4763 -35.4643 -35.4602
   -35.4317 -35.4284 -35.4213 -35.4212 -35.4200 -35.4164 -35.4074 -35.3980
   -35.3899 -35.3887 -35.3830 -35.3632 -35.3578 -35.3544 -35.3457 -35.3422
   -35.3359 -35.3281 -35.3183 -35.3113 -35.3055 -31.2415 -31.2387 -31.2340
   -31.2261 -31.2204 -31.2190 -31.2149 -31.2059 -31.1977 -31.1933 -31.1883
   -31.1876 -31.1869 -31.1790 -31.1769 -31.1761 -31.1624 -31.1592 -31.1576
   -31.1571 -31.1502 -31.1497 -31.1462 -31.1368 -31.1309 -31.1268 -31.1195
     6.8847   6.9071   6.9366   6.9770   6.9878   6.9988   7.0266   7.0430
     8.4491   8.4674   8.4693   8.4787   8.4860   8.4889   8.4895   8.4961
     8.5012   8.5020   8.5134   8.5332   8.5399   8.5403   8.5573   8.5587
     8.5683   8.5799   8.5862   8.6230   8.8708   8.8795   8.8904   8.8940
     8.9187   8.9239   8.9280   8.9410   9.0837   9.0988   9.1220   9.1240
     9.1273   9.1423   9.1442   9.1478   9.1511   9.1536   9.1621   9.1625
     9.1646   9.1650   9.1686   9.1728   9.1766   9.1776   9.1806   9.1814
     9.1858   9.1885   9.1942   9.1969   9.1981   9.2000   9.2041   9.2116
     9.2272   9.2392   9.2427   9.2506   9.2591   9.2632   9.2728   9.2866
     9.5408   9.5419   9.5573   9.5706   9.5848   9.6109   9.6134   9.6222
     9.6515   9.6587   9.6908   9.7092   9.7148   9.7152   9.7607   9.7761
     9.8085   9.8272   9.8500   9.8598   9.8709   9.8805   9.8936   9.8987
    10.1186  10.1441  10.1458  10.1521  10.1619  10.1723  10.1773  10.1919
    10.2825  10.3215  10.4380  10.4501  10.4544  10.4701  10.4734  10.4802
    10.4826  10.4956  10.4972  10.5014  10.5076  10.5093  10.5121  10.5212
    10.5260  10.5288  10.5349  10.5358  10.5631  10.5822  10.5909  10.6014
    10.6158  10.6368  10.6423  10.6510  10.6583  10.6609  10.6610  10.6690
    10.6720  10.6778  10.6971  10.6994  10.7358  10.7433  11.0308  11.0441
    11.0507  11.0688  11.1031  11.1065  11.1422  11.1426  11.3761  11.3818
    11.3829  11.4111  11.4250  11.4367  11.4391  11.4481  11.4528  11.4571
    11.4793  11.4968  11.5027  11.5116  11.5331  11.5408  11.5867  11.6209
    11.6268  11.6425  11.6446  11.6511  11.6751  11.7001  11.7071  11.7151
    11.7226  11.7310  11.7340  11.7714  11.7765  11.7813  11.7851  11.7921
    11.7935  11.8027  11.8184  11.8282  11.8352  11.9766  11.9874  12.0163
    12.0204  12.0642  12.0732  12.0984  12.1073  12.1263  12.1540  12.1745
    12.1784  12.2186  12.2327  12.2393  12.2434  12.2681  12.3027  12.3299
    12.3324  12.3554  12.3795  12.4110  12.4266  12.4521  12.4628  12.4693
    12.4789  12.4809  12.5173  12.5277  12.5620  12.5790  12.5872  12.6014
    12.6045  12.6338  12.6715  12.7219  12.7290  12.7741  12.7999  12.8267
    12.9233  12.9428  12.9928  13.0654  13.1237  13.1449  13.1736  13.1833
    13.2148  13.2560  13.3027  13.3274  13.4118  13.4498  13.4873  13.5781
    13.6018  13.6040  13.7232  13.8844  13.9589  13.9779  14.0221  14.1350
    14.2278  14.2516  14.4489  14.5250  14.8006  14.8326  14.9148  15.0227
    15.0236  15.0687  15.1579  15.3608  15.4499  15.4619  15.5545  15.6494
    15.7350  15.7626  15.7897  15.8423  15.8615  15.9230  15.9313  15.9542
    16.0180  16.0684  16.1093  16.1694  16.1999  16.2047  16.2182  16.2354
    16.2684  16.2687  16.3160  16.3202  16.3684  16.4675  16.4701  16.5008
    16.5409  16.5658  16.5818  16.6194  16.6485  16.6662  16.6701  16.6906
    16.7654  16.7825  16.8537  16.8683  16.9028  16.9518  16.9620  16.9977
    17.0356  17.0912  17.5727  17.7478  17.9073  17.9410  19.0146  19.0351
    19.0538  19.0634  19.0977  19.1367  19.1762  19.1856  19.2736  19.2905

          k =-0.5000 0.0000 0.0000 ( 31722 PWs)   bands (ev):

   -66.7715 -66.7110 -66.6826 -66.6685 -66.6678 -66.6281 -66.6032 -66.5926
   -66.5811 -62.4016 -62.3900 -62.3849 -62.3733 -62.3517 -62.3355 -62.3319
   -62.3249 -62.3029 -35.5312 -35.5193 -35.4911 -35.4763 -35.4643 -35.4602
   -35.4317 -35.4284 -35.4213 -35.4212 -35.4200 -35.4164 -35.4074 -35.3980
   -35.3899 -35.3887 -35.3830 -35.3632 -35.3578 -35.3544 -35.3457 -35.3422
   -35.3359 -35.3281 -35.3183 -35.3113 -35.3056 -31.2415 -31.2387 -31.2340
   -31.2261 -31.2205 -31.2190 -31.2149 -31.2059 -31.1977 -31.1933 -31.1883
   -31.1876 -31.1869 -31.1790 -31.1769 -31.1761 -31.1624 -31.1592 -31.1576
   -31.1571 -31.1502 -31.1497 -31.1462 -31.1368 -31.1309 -31.1268 -31.1195
     6.0394   6.0489   7.4041   7.4329   7.4698   7.4869   7.6727   7.6811
     8.1067   8.1188   8.1413   8.1660   8.1856   8.2426   8.2624   8.2734
     8.3905   8.4196   8.4666   8.4822   8.6107   8.6264   8.6443   8.6624
     8.6756   8.6774   8.6868   8.7014   8.7661   8.8139   8.8235   8.8327
     8.8401   8.8589   8.8748   8.8883   8.9022   8.9028   8.9066   8.9227
     8.9332   8.9382   8.9414   8.9547   9.0456   9.0522   9.1543   9.1668
     9.1875   9.2058   9.2140   9.2222   9.2404   9.2470   9.3147   9.3182
     9.3374   9.3895   9.4004   9.4123   9.4720   9.4774   9.4827   9.5021
     9.5469   9.5538   9.5555   9.5676   9.5725   9.5960   9.6130   9.6167
     9.6231   9.6261   9.6307   9.6360   9.6383   9.6388   9.6478   9.6510
     9.6522   9.6747   9.6804   9.6865   9.6896   9.7036   9.7135   9.7360
     9.7445   9.7583   9.7589   9.7754   9.8960   9.8997   9.9100   9.9780
    10.0191  10.0274  10.1719  10.1771  10.2091  10.2141  10.2507  10.2542
    10.2648  10.2736  10.2741  10.2808  10.2825  10.2847  10.3425  10.3497
    10.3787  10.3800  10.3843  10.3884  10.4239  10.4396  10.4735  10.4842
    10.4874  10.4989  10.5181  10.5385  10.5604  10.5683  10.5749  10.5935
    10.6213  10.6541  10.6823  10.7013  10.7211  10.7216  10.7371  10.7523
    10.8146  10.8241  10.8388  10.8436  10.8620  10.8682  10.9054  10.9430
    10.9477  11.0025  11.0152  11.0198  11.0474  11.0893  11.1688  11.1875
    11.2844  11.3275  11.3447  11.3497  11.3657  11.3797  11.3907  11.4003
    11.4089  11.4565  11.4827  11.4862  11.5024  11.5215  11.5479  11.5766
    11.6073  11.6120  11.6134  11.6379  11.6421  11.6577  11.6806  11.7479
    11.7663  11.7944  11.8085  11.8182  11.8205  11.8391  11.8543  11.8672
    11.8737  11.8816  11.9012  11.9064  11.9260  11.9454  11.9605  11.9663
    11.9837  11.9874  12.0029  12.0144  12.0216  12.1006  12.1440  12.1759
    12.1887  12.1927  12.2196  12.2254  12.2419  12.2525  12.2652  12.2826
    12.3015  12.3048  12.3422  12.3504  12.3591  12.3944  12.4125  12.4308
    12.4506  12.4808  12.4856  12.5095  12.5521  12.5559  12.5559  12.5670
    12.5821  12.5907  12.6146  12.6409  12.6569  12.7275  12.7468  12.7749
    12.7982  12.9263  12.9505  13.0199  13.0407  13.0779  13.1143  13.1664
    13.1949  13.2088  13.2213  13.2437  13.2456  13.3007  13.3834  13.3991
    13.4506  13.4837  13.5150  13.6853  13.7110  14.2916  14.4863  14.6418
    14.6901  14.7064  14.7123  14.7889  14.8435  14.9045  14.9241  14.9399
    15.0882  15.0911  15.2056  15.2538  15.3343  15.3503  15.5290  15.6415
    15.6785  15.6983  15.8393  15.8522  15.8775  15.8954  15.9550  15.9885
    16.0315  16.0330  16.0452  16.1070  16.1075  16.1410  16.1451  16.1702
    16.1984  16.2165  16.2440  16.2476  16.2758  16.3076  16.3144  16.3304
    16.4276  16.5008  16.5895  16.6511  16.7404  16.7570  16.9574  17.0845
    17.1570  17.1860  17.2484  17.3566  17.4726  17.5175  17.6187  17.6380
    17.7062  17.7744  17.7876  17.7910  17.8149  17.8863  17.9120  17.9400
    18.0434  18.0891  18.1306  18.2248  19.2524  19.2946  19.3204  19.3736

          k =-0.5000 0.0000 0.5734 ( 31696 PWs)   bands (ev):

   -66.7715 -66.7110 -66.6826 -66.6685 -66.6678 -66.6281 -66.6032 -66.5926
   -66.5811 -62.4016 -62.3900 -62.3849 -62.3733 -62.3517 -62.3355 -62.3319
   -62.3249 -62.3029 -35.5312 -35.5193 -35.4911 -35.4763 -35.4643 -35.4602
   -35.4317 -35.4284 -35.4213 -35.4212 -35.4200 -35.4164 -35.4074 -35.3980
   -35.3899 -35.3887 -35.3830 -35.3632 -35.3578 -35.3544 -35.3457 -35.3422
   -35.3359 -35.3281 -35.3183 -35.3113 -35.3056 -31.2415 -31.2387 -31.2340
   -31.2261 -31.2205 -31.2190 -31.2149 -31.2059 -31.1977 -31.1933 -31.1883
   -31.1876 -31.1869 -31.1790 -31.1769 -31.1761 -31.1624 -31.1592 -31.1576
   -31.1571 -31.1502 -31.1497 -31.1462 -31.1368 -31.1309 -31.1268 -31.1195
     6.5542   6.5618   6.6030   6.6186   7.8321   7.8563   7.8705   7.8892
     7.8913   7.9068   7.9405   7.9429   8.2683   8.2782   8.3005   8.3052
     8.5105   8.5280   8.5313   8.5382   8.6578   8.6602   8.6655   8.6901
     8.6905   8.7016   8.7019   8.7142   8.7221   8.7296   8.7390   8.7547
     8.7607   8.7862   8.7907   8.8137   8.9721   8.9863   9.0217   9.0337
     9.0386   9.0392   9.0471   9.0711   9.2021   9.2114   9.2128   9.2186
     9.2214   9.2235   9.2281   9.2349   9.2407   9.2498   9.2517   9.2608
     9.2731   9.2733   9.2894   9.2924   9.2999   9.3212   9.3867   9.3951
     9.4242   9.4316   9.4325   9.4568   9.4579   9.4681   9.4726   9.4797
     9.4879   9.4913   9.5146   9.5216   9.5261   9.5313   9.5508   9.5613
     9.5777   9.5985   9.7538   9.7596   9.7845   9.7887   9.8156   9.8224
     9.8313   9.8314   9.8521   9.8540   9.8544   9.8592   9.8735   9.8862
     9.9665   9.9797   9.9805   9.9975  10.0160  10.0293  10.0667  10.0712
    10.3732  10.3955  10.3975  10.3998  10.4104  10.4132  10.4273  10.4556
    10.4591  10.4706  10.4795  10.4823  10.4927  10.4934  10.5006  10.5228
    10.5307  10.5388  10.5615  10.5716  10.5964  10.5994  10.6174  10.6205
    10.6302  10.6397  10.6625  10.6692  10.6809  10.6888  10.6964  10.7196
    10.7387  10.8329  10.9022  10.9237  10.9748  10.9917  11.0439  11.0929
    11.1176  11.1301  11.1311  11.1536  11.1685  11.1780  11.1905  11.2107
    11.2116  11.2175  11.2914  11.3240  11.3370  11.3596  11.3647  11.3661
    11.3720  11.3729  11.3752  11.4185  11.4349  11.4865  11.4963  11.5115
    11.5148  11.5515  11.5717  11.5778  11.5933  11.5947  11.6021  11.6299
    11.6310  11.6376  11.7097  11.7222  11.7530  11.7575  11.7995  11.8823
    11.9031  11.9147  11.9188  11.9509  11.9661  11.9726  11.9989  11.9992
    12.0202  12.0364  12.0365  12.0397  12.0426  12.0846  12.1025  12.1150
    12.1266  12.1503  12.1859  12.2077  12.2413  12.2532  12.2595  12.3447
    12.3668  12.3825  12.4271  12.4510  12.4664  12.4691  12.4890  12.4921
    12.5022  12.5315  12.5514  12.5764  12.5986  12.6089  12.6222  12.6229
    12.6386  12.6414  12.6547  12.6582  12.7027  12.7028  12.7182  12.7598
    12.8553  12.8749  12.8753  12.9424  13.0152  13.0219  13.0445  13.0779
    13.0876  13.2347  13.4463  13.5495  13.5930  13.6495  13.7728  13.7862
    13.8370  13.9189  14.0317  14.0846  14.1777  14.2073  14.3388  14.3743
    14.3902  14.5172  14.5459  14.5696  14.6428  14.6538  14.6581  15.0350
    15.1815  15.2045  15.2619  15.3222  15.3648  15.3933  15.4704  15.5755
    15.6344  15.7063  15.7242  15.8812  15.9240  15.9805  15.9926  16.0390
    16.0541  16.1110  16.1176  16.1198  16.1523  16.1718  16.1969  16.2014
    16.2523  16.2642  16.2990  16.3123  16.3354  16.3816  16.4153  16.4394
    16.4934  16.5289  16.5605  16.5657  16.6278  16.6319  16.6485  16.7223
    16.7239  16.7636  16.8035  16.8611  16.8698  16.9455  16.9597  17.0550
    17.0667  17.1322  17.1715  17.2810  18.5995  18.7029  18.7219  18.7406
    18.7613  18.7855  18.8605  18.8616  18.8807  18.9421  18.9498  18.9790

 ------ SPIN DOWN ----------


          k = 0.0000 0.0000 0.0000 ( 31747 PWs)   bands (ev):

   -66.7444 -66.7332 -66.6989 -66.6882 -66.6507 -66.6455 -66.6270 -66.6141
   -66.6111 -62.4224 -62.3978 -62.3658 -62.3600 -62.3522 -62.3413 -62.3302
   -62.3248 -62.2920 -35.5176 -35.4860 -35.4848 -35.4796 -35.4768 -35.4669
   -35.4590 -35.4547 -35.4449 -35.4325 -35.4275 -35.4274 -35.4062 -35.4021
   -35.3989 -35.3954 -35.3889 -35.3793 -35.3752 -35.3660 -35.3652 -35.3605
   -35.3593 -35.3584 -35.3561 -35.3410 -35.3204 -31.2612 -31.2495 -31.2458
   -31.2314 -31.2233 -31.2152 -31.2007 -31.1955 -31.1920 -31.1911 -31.1891
   -31.1840 -31.1821 -31.1781 -31.1768 -31.1681 -31.1680 -31.1644 -31.1597
   -31.1586 -31.1433 -31.1423 -31.1416 -31.1385 -31.1322 -31.1145 -31.0997
     5.6132   7.1406   7.1556   7.1943   7.2143   7.3625   7.8568   7.8857
     7.9035   7.9475   8.0736   8.1087   8.1427   8.1693   8.1775   8.2479
     8.2709   8.2794   8.3019   8.5214   8.5443   8.5658   8.5717   8.5889
     8.6112   8.8558   8.8599   8.8723   8.8769   8.8792   8.8919   8.8939
     8.8940   8.8992   8.9127   8.9257   8.9316   8.9478   8.9590   8.9700
     8.9859   9.0824   9.1183   9.1249   9.1270   9.1332   9.1552   9.1616
     9.1798   9.1958   9.2103   9.2665   9.2854   9.2945   9.3027   9.3476
     9.3494   9.3613   9.3708   9.3777   9.3872   9.4002   9.4181   9.4295
     9.4371   9.4398   9.4461   9.4540   9.4598   9.4706   9.4811   9.5773
     9.5808   9.5873   9.5920   9.5973   9.6393   9.6453   9.6672   9.6688
     9.6706   9.6747   9.6769   9.7452   9.7508   9.7748   9.7849   9.8481
     9.8491   9.9138   9.9275   9.9302   9.9489   9.9495  10.0026  10.0278
    10.0788  10.1154  10.1441  10.1886  10.2825  10.2868  10.2924  10.2952
    10.2999  10.3102  10.3107  10.3150  10.3217  10.3247  10.3376  10.3392
    10.3426  10.3551  10.3557  10.3615  10.3623  10.3639  10.3808  10.3829
    10.3969  10.5096  10.5141  10.5405  10.5796  10.6137  10.6416  10.6953
    10.7052  10.7810  10.7865  10.7888  10.8054  10.8109  10.8304  10.8376
    10.8557  10.8609  10.8689  10.8733  10.8747  10.8767  10.8948  10.9022
    10.9091  10.9097  11.0189  11.0512  11.0549  11.0904  11.1512  11.2144
    11.2173  11.2184  11.2290  11.2315  11.2680  11.3317  11.3453  11.3496
    11.3855  11.3871  11.3937  11.3998  11.4052  11.4186  11.4266  11.4287
    11.4499  11.4796  11.5300  11.5892  11.5902  11.5931  11.5954  11.5979
    11.6000  11.6487  11.6977  11.7229  11.7329  11.7410  11.7495  11.7537
    11.8249  11.8329  11.8378  11.8695  11.8734  11.9263  11.9354  11.9475
    11.9535  12.0030  12.0578  12.0974  12.1001  12.1022  12.1049  12.1426
    12.1436  12.1441  12.1453  12.1474  12.1617  12.1713  12.1836  12.2311
    12.2529  12.2699  12.3159  12.3256  12.3416  12.3480  12.3527  12.3977
    12.4246  12.4335  12.4483  12.4668  12.4897  12.5145  12.5241  12.5291
    12.5409  12.5629  12.5789  12.5930  12.5970  12.6440  12.6814  12.7031
    12.7222  12.7332  12.7409  12.8416  12.9184  12.9813  13.0404  13.0853
    13.1139  13.1261  13.1530  13.1555  13.4372  13.5992  13.6910  13.7778
    13.8401  14.1236  14.1816  14.1972  14.2326  14.3709  14.3974  14.4285
    14.7569  14.8763  14.9253  14.9973  15.0176  15.1030  15.1897  15.2569
    15.2589  15.2945  15.3857  15.4242  15.4549  15.4727  15.4741  15.5700
    15.5734  15.6335  15.6556  15.8522  15.8574  15.8626  15.9231  16.0295
    16.0448  16.0518  16.1201  16.1435  16.1454  16.1738  16.1780  16.1792
    16.2274  16.2425  16.2801  16.3124  16.3356  16.3567  16.3722  16.4013
    16.4602  16.4974  16.5741  16.6024  16.6638  16.6812  16.8430  16.8573
    16.9224  17.0305  17.1256  17.1897  17.1968  17.2561  17.2854  17.3545
    17.4292  17.5326  17.8266  17.8963  17.9354  17.9513  17.9641  18.0347
    18.1248  18.3251  18.4456  18.9827  18.9969  19.0662  19.1108  19.1667

          k = 0.0000 0.0000-0.5734 ( 31692 PWs)   bands (ev):

   -66.7444 -66.7332 -66.6989 -66.6882 -66.6507 -66.6455 -66.6270 -66.6141
   -66.6111 -62.4224 -62.3978 -62.3658 -62.3600 -62.3522 -62.3413 -62.3302
   -62.3248 -62.2920 -35.5176 -35.4860 -35.4848 -35.4796 -35.4768 -35.4669
   -35.4590 -35.4547 -35.4449 -35.4325 -35.4275 -35.4274 -35.4062 -35.4021
   -35.3989 -35.3954 -35.3889 -35.3793 -35.3752 -35.3660 -35.3652 -35.3605
   -35.3593 -35.3584 -35.3561 -35.3410 -35.3204 -31.2612 -31.2495 -31.2458
   -31.2314 -31.2233 -31.2152 -31.2007 -31.1955 -31.1920 -31.1911 -31.1891
   -31.1839 -31.1821 -31.1781 -31.1768 -31.1681 -31.1680 -31.1644 -31.1597
   -31.1586 -31.1433 -31.1423 -31.1416 -31.1385 -31.1322 -31.1145 -31.0997
     6.1529   6.2137   7.5191   7.5463   7.5471   7.5654   7.5996   7.6128
     7.6135   7.6402   8.2990   8.3107   8.3395   8.3417   8.3427   8.3635
     8.3916   8.4016   8.4575   8.4630   8.4651   8.4811   8.4830   8.4882
     8.5207   8.5231   8.6883   8.7135   8.7428   8.7988   8.9335   8.9444
     8.9694   8.9732   8.9757   8.9834   8.9962   8.9997   9.0117   9.0250
     9.0320   9.0404   9.0425   9.0503   9.0696   9.0961   9.1944   9.2153
     9.2187   9.2370   9.2432   9.2626   9.2659   9.2664   9.2744   9.2771
     9.2828   9.2885   9.2899   9.2973   9.3004   9.3103   9.4107   9.4160
     9.4221   9.4288   9.4294   9.4399   9.4443   9.4552   9.4593   9.4735
     9.4830   9.4880   9.5095   9.5122   9.5198   9.5475   9.6110   9.6955
     9.7689   9.7824   9.7930   9.8004   9.8199   9.8273   9.8304   9.8421
     9.8721   9.8767   9.8785   9.8808   9.8822   9.8868   9.8894   9.8914
    10.0535  10.0554  10.0628  10.0643  10.1375  10.1443  10.1469  10.1608
    10.1677  10.1780  10.1823  10.1952  10.2023  10.2193  10.3532  10.3680
    10.3712  10.3808  10.3920  10.4102  10.4191  10.4260  10.4567  10.5299
    10.5844  10.5987  10.6061  10.6063  10.6160  10.6173  10.6271  10.6541
    10.6770  10.6882  10.7240  10.7443  10.7835  10.7847  10.8487  10.8659
    10.9152  10.9444  10.9614  10.9925  11.0039  11.0277  11.0470  11.0555
    11.0888  11.0900  11.1041  11.1427  11.1639  11.1870  11.1927  11.2211
    11.2272  11.2425  11.2491  11.2576  11.2605  11.2628  11.2685  11.2690
    11.2725  11.2734  11.2827  11.2840  11.2861  11.2877  11.3014  11.3109
    11.3172  11.3222  11.3238  11.3277  11.5102  11.5743  11.7079  11.7091
    11.7149  11.7153  11.7162  11.7196  11.7216  11.7333  11.7391  11.7433
    11.7569  11.7655  11.7762  11.7906  11.8105  11.8167  11.8448  11.9263
    11.9761  11.9772  11.9978  12.0214  12.0277  12.0401  12.0652  12.0973
    12.1405  12.1674  12.2112  12.2376  12.2495  12.2511  12.2808  12.3970
    12.4241  12.4311  12.4485  12.4542  12.4592  12.4825  12.4836  12.4876
    12.5059  12.5112  12.5225  12.5482  12.5499  12.5844  12.5887  12.6483
    12.6575  12.6626  12.7053  12.7551  12.7908  12.8108  12.8374  12.8713
    12.9292  12.9611  13.0035  13.0413  13.1620  13.1782  13.1880  13.1947
    13.2592  13.2832  13.3144  13.4661  13.4928  13.5330  13.7001  13.7409
    13.7756  13.9125  14.0252  14.0677  14.1282  14.1636  14.3598  14.4941
    14.7108  14.7860  14.8920  14.9351  14.9881  14.9994  15.0803  15.1315
    15.1316  15.1548  15.1886  15.2088  15.2708  15.4021  15.4345  15.4730
    15.5562  15.7003  15.7628  15.8077  15.8790  15.9714  15.9817  15.9992
    16.0112  16.0752  16.1303  16.1421  16.1441  16.1694  16.1886  16.2046
    16.2129  16.2275  16.2321  16.2413  16.2705  16.2898  16.3135  16.3303
    16.3496  16.4929  16.5105  16.5834  16.6420  16.6740  16.7539  16.7563
    16.7976  16.9022  17.3076  17.3807  17.3844  17.4368  17.4869  17.5494
    17.5569  17.5734  17.6694  17.6995  17.7375  17.7921  17.8353  17.8593
    17.8768  17.9052  18.0747  18.1345  18.2462  18.2642  18.2712  18.3126

          k = 0.0000-0.5000 0.0000 ( 31722 PWs)   bands (ev):

   -66.7444 -66.7332 -66.6989 -66.6882 -66.6507 -66.6455 -66.6270 -66.6141
   -66.6111 -62.4224 -62.3978 -62.3658 -62.3600 -62.3522 -62.3413 -62.3302
   -62.3248 -62.2920 -35.5176 -35.4860 -35.4848 -35.4796 -35.4768 -35.4669
   -35.4590 -35.4547 -35.4449 -35.4325 -35.4275 -35.4274 -35.4062 -35.4021
   -35.3989 -35.3954 -35.3889 -35.3793 -35.3752 -35.3660 -35.3652 -35.3605
   -35.3593 -35.3584 -35.3561 -35.3410 -35.3204 -31.2612 -31.2495 -31.2458
   -31.2314 -31.2233 -31.2152 -31.2007 -31.1955 -31.1920 -31.1911 -31.1891
   -31.1839 -31.1821 -31.1781 -31.1768 -31.1681 -31.1680 -31.1644 -31.1597
   -31.1586 -31.1433 -31.1423 -31.1416 -31.1385 -31.1322 -31.1145 -31.0997
     6.0202   6.0615   7.4080   7.4293   7.4603   7.4865   7.6674   7.6804
     8.0940   8.1136   8.1341   8.1610   8.2083   8.2390   8.2429   8.2797
     8.4034   8.4159   8.4507   8.4737   8.6095   8.6325   8.6432   8.6472
     8.6719   8.6771   8.6945   8.6955   8.7508   8.8113   8.8213   8.8416
     8.8482   8.8527   8.8718   8.8932   8.8988   8.9050   8.9096   8.9138
     8.9223   8.9326   8.9364   8.9572   9.0414   9.0520   9.1557   9.1722
     9.1814   9.1908   9.2166   9.2255   9.2363   9.2527   9.3145   9.3332
     9.3404   9.3515   9.4036   9.4127   9.4670   9.4867   9.4896   9.5043
     9.5357   9.5383   9.5585   9.5661   9.5755   9.5939   9.6028   9.6235
     9.6243   9.6271   9.6274   9.6321   9.6340   9.6361   9.6381   9.6473
     9.6570   9.6690   9.6750   9.6911   9.6919   9.7037   9.7111   9.7315
     9.7378   9.7570   9.7632   9.7814   9.8886   9.9043   9.9127   9.9799
    10.0173  10.0286  10.1465  10.1897  10.2036  10.2247  10.2458  10.2492
    10.2541  10.2622  10.2667  10.2724  10.2863  10.2918  10.3312  10.3518
    10.3708  10.3744  10.3857  10.3883  10.4203  10.4375  10.4582  10.4805
    10.5065  10.5199  10.5229  10.5302  10.5569  10.5710  10.5718  10.5918
    10.6144  10.6429  10.6772  10.6837  10.6900  10.7319  10.7389  10.7521
    10.8037  10.8260  10.8325  10.8495  10.8521  10.8633  10.9156  10.9509
    10.9829  11.0105  11.0160  11.0172  11.0301  11.0773  11.1628  11.1846
    11.2994  11.3441  11.3487  11.3552  11.3769  11.3831  11.3846  11.4006
    11.4183  11.4327  11.4514  11.4625  11.4874  11.5340  11.5505  11.5524
    11.5609  11.5919  11.6250  11.6300  11.6415  11.6739  11.6859  11.7481
    11.7619  11.7800  11.7879  11.7906  11.8153  11.8297  11.8539  11.8675
    11.8714  11.9013  11.9095  11.9174  11.9409  11.9532  11.9609  11.9683
    11.9693  11.9807  11.9877  11.9902  12.0403  12.1044  12.1368  12.1655
    12.1840  12.2016  12.2182  12.2365  12.2417  12.2471  12.2603  12.2830
    12.2999  12.3051  12.3203  12.3366  12.3545  12.3892  12.4133  12.4214
    12.4347  12.4618  12.4953  12.4958  12.4989  12.5247  12.5427  12.5636
    12.5662  12.5809  12.6075  12.6235  12.6539  12.7130  12.7196  12.7988
    12.8760  12.8883  13.0530  13.0733  13.0827  13.1025  13.1054  13.1140
    13.1493  13.1698  13.1793  13.2261  13.2821  13.3142  13.3199  13.3794
    13.4108  13.4654  13.4865  13.6584  13.7216  14.4670  14.5139  14.5801
    14.5834  14.7240  14.7332  14.7495  14.8071  14.8112  14.8910  15.0001
    15.0114  15.1142  15.2154  15.3004  15.3733  15.4393  15.5181  15.5384
    15.6564  15.7470  15.7704  15.8062  15.8181  15.8689  15.9686  16.0200
    16.0333  16.0939  16.1052  16.1463  16.1468  16.1585  16.1697  16.1726
    16.1946  16.2336  16.2414  16.2502  16.2908  16.3194  16.3513  16.3674
    16.4593  16.4895  16.5337  16.6127  16.6974  16.7473  17.0345  17.0701
    17.1604  17.1715  17.2479  17.3390  17.3919  17.4466  17.6317  17.6373
    17.6881  17.7397  17.7819  17.8134  17.8393  17.8849  17.9200  17.9721
    17.9728  18.0885  18.1867  18.2402  19.2261  19.2855  19.3431  19.3501

          k = 0.0000-0.5000-0.5734 ( 31696 PWs)   bands (ev):

   -66.7444 -66.7332 -66.6989 -66.6882 -66.6507 -66.6455 -66.6270 -66.6141
   -66.6111 -62.4224 -62.3978 -62.3658 -62.3600 -62.3522 -62.3413 -62.3302
   -62.3248 -62.2920 -35.5176 -35.4860 -35.4848 -35.4796 -35.4768 -35.4669
   -35.4590 -35.4547 -35.4449 -35.4325 -35.4275 -35.4274 -35.4062 -35.4021
   -35.3989 -35.3954 -35.3889 -35.3793 -35.3752 -35.3660 -35.3652 -35.3605
   -35.3593 -35.3584 -35.3561 -35.3410 -35.3204 -31.2612 -31.2495 -31.2458
   -31.2314 -31.2233 -31.2152 -31.2007 -31.1955 -31.1920 -31.1911 -31.1891
   -31.1839 -31.1821 -31.1781 -31.1768 -31.1681 -31.1680 -31.1644 -31.1597
   -31.1586 -31.1433 -31.1423 -31.1416 -31.1385 -31.1322 -31.1145 -31.0997
     6.5146   6.5832   6.5927   6.6383   7.8240   7.8375   7.8695   7.8868
     7.8915   7.9094   7.9267   7.9534   8.2630   8.2788   8.2983   8.3031
     8.5148   8.5241   8.5269   8.5306   8.6520   8.6610   8.6763   8.6827
     8.6898   8.6923   8.7026   8.7085   8.7242   8.7338   8.7460   8.7483
     8.7631   8.7800   8.7878   8.8013   8.9410   9.0093   9.0126   9.0246
     9.0392   9.0521   9.0560   9.0611   9.1791   9.2078   9.2092   9.2203
     9.2204   9.2276   9.2287   9.2402   9.2464   9.2473   9.2557   9.2558
     9.2598   9.2687   9.2737   9.2817   9.2853   9.3456   9.3783   9.4007
     9.4221   9.4254   9.4310   9.4526   9.4549   9.4641   9.4739   9.4802
     9.4859   9.4875   9.5128   9.5306   9.5327   9.5358   9.5552   9.5659
     9.5764   9.6126   9.7513   9.7580   9.7811   9.7981   9.8157   9.8176
     9.8246   9.8306   9.8456   9.8472   9.8515   9.8608   9.8719   9.8809
     9.9362   9.9545  10.0011  10.0171  10.0321  10.0414  10.0491  10.0588
    10.3624  10.3756  10.3920  10.4010  10.4060  10.4163  10.4213  10.4261
    10.4439  10.4701  10.4718  10.4756  10.4855  10.4880  10.5137  10.5140
    10.5294  10.5616  10.5722  10.5778  10.5813  10.5892  10.5906  10.6087
    10.6354  10.6444  10.6699  10.6752  10.6811  10.6978  10.7119  10.7308
    10.7610  10.8328  10.8837  10.9064  10.9868  11.0036  11.0284  11.0338
    11.1188  11.1325  11.1438  11.1451  11.1834  11.1924  11.1949  11.2043
    11.2091  11.2130  11.2768  11.2996  11.3363  11.3427  11.3634  11.3700
    11.3742  11.3772  11.3975  11.4298  11.4477  11.4499  11.4743  11.5340
    11.5524  11.5582  11.5691  11.5694  11.5761  11.5837  11.5915  11.6200
    11.6279  11.6318  11.7277  11.7342  11.7595  11.7633  11.7678  11.8531
    11.8997  11.9078  11.9371  11.9455  11.9544  11.9570  11.9907  12.0048
    12.0092  12.0189  12.0254  12.0352  12.0371  12.0523  12.0601  12.1231
    12.1598  12.1630  12.2200  12.2483  12.2552  12.2740  12.2796  12.3313
    12.3458  12.3640  12.4046  12.4080  12.4356  12.4357  12.4671  12.4712
    12.4715  12.4893  12.5080  12.5247  12.5351  12.5654  12.5721  12.5797
    12.6159  12.6365  12.6562  12.6606  12.6636  12.7559  12.7853  12.8096
    12.9048  12.9386  12.9466  12.9560  13.0417  13.0479  13.0709  13.1038
    13.1894  13.2186  13.3955  13.4244  13.4888  13.6825  13.7095  13.8007
    13.9331  13.9557  13.9904  14.0672  14.0676  14.1267  14.2584  14.3965
    14.4149  14.5331  14.5444  14.5693  14.5706  14.6280  14.8189  15.0431
    15.1475  15.1975  15.2654  15.3251  15.3702  15.4219  15.5331  15.5493
    15.6388  15.6620  15.7075  15.7779  15.9207  15.9728  15.9841  16.0449
    16.0716  16.1084  16.1308  16.1674  16.1698  16.2210  16.2316  16.2465
    16.2596  16.3047  16.3174  16.3276  16.3762  16.4199  16.4343  16.4422
    16.4644  16.5010  16.5533  16.5785  16.5977  16.6022  16.6746  16.7111
    16.7256  16.7389  16.7743  16.8135  16.8707  16.9131  16.9464  17.0669
    17.0750  17.0927  17.1052  17.2899  18.6410  18.6890  18.7270  18.7710
    18.8106  18.8170  18.8418  18.8648  18.8929  18.9011  18.9021  18.9660

          k =-0.5000-0.5000 0.0000 ( 31612 PWs)   bands (ev):

   -66.7444 -66.7332 -66.6989 -66.6882 -66.6507 -66.6455 -66.6270 -66.6141
   -66.6111 -62.4224 -62.3978 -62.3658 -62.3600 -62.3522 -62.3413 -62.3302
   -62.3248 -62.2920 -35.5176 -35.4860 -35.4848 -35.4796 -35.4768 -35.4669
   -35.4590 -35.4547 -35.4449 -35.4325 -35.4275 -35.4274 -35.4062 -35.4021
   -35.3989 -35.3954 -35.3889 -35.3793 -35.3752 -35.3660 -35.3652 -35.3605
   -35.3594 -35.3584 -35.3561 -35.3410 -35.3204 -31.2613 -31.2497 -31.2455
   -31.2314 -31.2233 -31.2152 -31.2008 -31.1955 -31.1920 -31.1912 -31.1891
   -31.1839 -31.1821 -31.1781 -31.1768 -31.1681 -31.1679 -31.1644 -31.1597
   -31.1586 -31.1433 -31.1423 -31.1416 -31.1385 -31.1322 -31.1145 -31.0997
     6.3917   6.4326   6.4494   6.4814   8.0031   8.0096   8.0182   8.0290
     8.0859   8.1209   8.2773   8.3170   8.3238   8.3301   8.3350   8.3398
     8.3439   8.3477   8.3552   8.3724   8.3773   8.4006   8.5745   8.6109
     8.6351   8.6375   8.6955   8.6990   8.7079   8.7105   8.7312   8.7423
     8.7680   8.7979   8.9139   8.9410   8.9509   8.9695   8.9739   8.9753
     8.9804   8.9828   8.9980   9.0100   9.0180   9.0199   9.0338   9.0439
     9.1085   9.1342   9.3055   9.3085   9.3144   9.3231   9.3984   9.4053
     9.4101   9.4108   9.4139   9.4273   9.4341   9.4366   9.4382   9.4524
     9.4548   9.4611   9.4702   9.4766   9.4838   9.4966   9.5033   9.5097
     9.5257   9.5324   9.5395   9.5442   9.5444   9.5772   9.5783   9.5865
     9.6054   9.6068   9.6947   9.6968   9.7603   9.8059   9.8097   9.8254
     9.8293   9.8320   9.8367   9.8367   9.8557   9.8782  10.0058  10.0642
    10.0708  10.0980  10.1103  10.1308  10.1477  10.1516  10.1579  10.1691
    10.1733  10.1876  10.1980  10.2094  10.2198  10.2208  10.2300  10.2337
    10.2338  10.2354  10.2404  10.2510  10.4382  10.4697  10.4724  10.4798
    10.4939  10.4969  10.5044  10.5465  10.5654  10.6147  10.6526  10.6553
    10.6583  10.6661  10.6720  10.6939  10.6943  10.6966  10.7038  10.7105
    10.7403  10.7823  10.7938  10.8104  10.8245  10.8466  10.8575  10.8706
    10.9047  10.9165  11.1942  11.2053  11.2161  11.2227  11.2958  11.3257
    11.3296  11.3473  11.3557  11.3678  11.3746  11.3934  11.5508  11.5617
    11.6083  11.6274  11.6352  11.6384  11.6420  11.6443  11.6496  11.6519
    11.6632  11.6775  11.6819  11.7147  11.7228  11.7344  11.7437  11.8642
    11.8683  11.8743  11.8772  11.8808  11.8810  11.8881  11.9739  12.0044
    12.0129  12.0233  12.0553  12.0827  12.0957  12.0998  12.1055  12.1073
    12.1090  12.1130  12.1225  12.1329  12.1367  12.1530  12.1545  12.1571
    12.1693  12.1758  12.2041  12.2093  12.2177  12.2312  12.2364  12.2366
    12.2688  12.2712  12.2803  12.2849  12.2960  12.3066  12.3091  12.3320
    12.3370  12.3809  12.3858  12.4306  12.4651  12.4706  12.5004  12.5140
    12.5324  12.5621  12.5853  12.6124  12.6472  12.6627  12.6744  12.7167
    12.7284  12.7335  12.8126  12.8428  12.8765  12.9223  12.9528  12.9606
    12.9717  12.9736  12.9845  13.0465  13.1265  13.6031  13.6647  13.6706
    13.6754  13.6961  13.8542  13.8781  13.9115  13.9279  14.1689  14.1712
    14.2368  14.3200  14.3398  14.3848  14.4524  14.4891  14.7633  14.8693
    15.0617  15.1608  15.1660  15.2286  15.3559  15.3935  15.6735  15.7253
    15.7754  15.7819  15.8027  15.8473  15.8786  15.9375  15.9414  15.9716
    15.9893  16.0228  16.0764  16.1138  16.1461  16.1674  16.1702  16.1790
    16.1982  16.2434  16.2709  16.3188  16.3376  16.3662  16.4265  16.4888
    16.5282  16.5289  16.5731  16.6080  16.6770  16.6771  16.7321  16.7391
    16.7938  16.8549  16.8909  16.9327  17.3821  17.3909  17.5865  17.9875
    18.1401  18.1549  18.2016  18.2116  18.2432  18.4412  18.5021  18.5475
    18.5849  18.6253  18.6517  18.6679  18.7101  18.7801  18.8006  18.8055

          k =-0.5000-0.5000-0.5734 ( 31672 PWs)   bands (ev):

   -66.7444 -66.7332 -66.6989 -66.6882 -66.6507 -66.6455 -66.6270 -66.6141
   -66.6111 -62.4224 -62.3978 -62.3658 -62.3600 -62.3522 -62.3413 -62.3302
   -62.3248 -62.2920 -35.5176 -35.4860 -35.4848 -35.4796 -35.4768 -35.4669
   -35.4590 -35.4547 -35.4449 -35.4325 -35.4275 -35.4274 -35.4062 -35.4021
   -35.3989 -35.3954 -35.3889 -35.3793 -35.3752 -35.3660 -35.3652 -35.3605
   -35.3594 -35.3584 -35.3561 -35.3410 -35.3204 -31.2613 -31.2497 -31.2455
   -31.2314 -31.2233 -31.2152 -31.2008 -31.1955 -31.1920 -31.1912 -31.1891
   -31.1839 -31.1821 -31.1781 -31.1768 -31.1681 -31.1679 -31.1644 -31.1597
   -31.1586 -31.1433 -31.1423 -31.1416 -31.1385 -31.1322 -31.1145 -31.0997
     6.8690   6.9142   6.9408   6.9692   6.9797   6.9933   7.0241   7.0468
     8.4410   8.4646   8.4660   8.4792   8.4851   8.4875   8.4905   8.4946
     8.4956   8.4983   8.5086   8.5307   8.5350   8.5350   8.5511   8.5569
     8.5632   8.5851   8.5945   8.6183   8.8689   8.8711   8.8771   8.8994
     8.9146   8.9263   8.9301   8.9460   9.0750   9.0995   9.1126   9.1198
     9.1329   9.1434   9.1435   9.1455   9.1474   9.1507   9.1554   9.1585
     9.1612   9.1623   9.1635   9.1710   9.1710   9.1749   9.1765   9.1830
     9.1832   9.1846   9.1860   9.1909   9.1958   9.2062   9.2100   9.2214
     9.2266   9.2341   9.2398   9.2469   9.2529   9.2705   9.2765   9.2858
     9.5358   9.5454   9.5517   9.5668   9.5862   9.6040   9.6108   9.6295
     9.6443   9.6601   9.6951   9.7021   9.7108   9.7169   9.7570   9.7815
     9.8035   9.8293   9.8478   9.8632   9.8639   9.8767   9.8866   9.8980
    10.1094  10.1386  10.1442  10.1452  10.1650  10.1712  10.1744  10.1993
    10.2777  10.3191  10.4340  10.4440  10.4574  10.4621  10.4780  10.4815
    10.4829  10.4966  10.4997  10.5013  10.5081  10.5103  10.5111  10.5185
    10.5229  10.5274  10.5296  10.5314  10.5614  10.5666  10.5919  10.5988
    10.6102  10.6314  10.6393  10.6447  10.6479  10.6487  10.6532  10.6620
    10.6685  10.6835  10.6935  10.7022  10.7519  10.7528  11.0221  11.0450
    11.0457  11.0632  11.0964  11.1074  11.1436  11.1479  11.3720  11.3760
    11.3840  11.4077  11.4246  11.4358  11.4368  11.4415  11.4536  11.4632
    11.4799  11.4915  11.5052  11.5078  11.5297  11.5452  11.5842  11.6231
    11.6255  11.6392  11.6418  11.6442  11.6526  11.6782  11.7045  11.7183
    11.7196  11.7310  11.7377  11.7636  11.7706  11.7824  11.7883  11.7885
    11.7984  11.8004  11.8208  11.8250  11.8376  11.9666  11.9948  12.0200
    12.0217  12.0608  12.0803  12.0937  12.1130  12.1211  12.1401  12.1664
    12.1825  12.1920  12.2162  12.2291  12.2376  12.2631  12.2640  12.3406
    12.3442  12.3617  12.3823  12.3972  12.4238  12.4304  12.4417  12.4473
    12.4644  12.4932  12.4958  12.5185  12.5253  12.5453  12.5850  12.5863
    12.6339  12.6559  12.7023  12.7076  12.7400  12.7676  12.8041  12.8090
    12.9112  12.9633  12.9907  13.0202  13.0967  13.1451  13.1797  13.1868
    13.2019  13.2778  13.2788  13.3302  13.4390  13.4754  13.4768  13.5455
    13.5529  13.6123  13.6584  13.8128  13.9393  13.9826  14.0237  14.1963
    14.2495  14.3226  14.4893  14.5186  14.7515  14.7600  14.9543  14.9768
    15.0188  15.0660  15.1518  15.1923  15.4183  15.5852  15.6250  15.6792
    15.7247  15.7927  15.8070  15.8297  15.8793  15.8976  15.9112  15.9524
    16.0525  16.0803  16.0959  16.1647  16.1929  16.2293  16.2406  16.2426
    16.2589  16.2640  16.2737  16.3236  16.3731  16.4707  16.4725  16.4869
    16.5453  16.5505  16.5570  16.5934  16.6359  16.6634  16.7140  16.7363
    16.7656  16.7871  16.8482  16.8654  16.8798  16.9130  16.9781  17.0012
    17.0312  17.1288  17.5518  17.7462  17.9052  17.9423  19.0025  19.0162
    19.0425  19.0700  19.0980  19.1027  19.1827  19.1922  19.2299  19.3258

          k =-0.5000 0.0000 0.0000 ( 31722 PWs)   bands (ev):

   -66.7444 -66.7332 -66.6989 -66.6882 -66.6507 -66.6455 -66.6270 -66.6141
   -66.6111 -62.4224 -62.3978 -62.3658 -62.3600 -62.3522 -62.3413 -62.3302
   -62.3248 -62.2920 -35.5176 -35.4860 -35.4848 -35.4796 -35.4768 -35.4669
   -35.4590 -35.4547 -35.4449 -35.4325 -35.4275 -35.4274 -35.4062 -35.4021
   -35.3989 -35.3954 -35.3889 -35.3793 -35.3752 -35.3660 -35.3652 -35.3605
   -35.3594 -35.3584 -35.3561 -35.3410 -35.3204 -31.2613 -31.2497 -31.2455
   -31.2314 -31.2233 -31.2152 -31.2008 -31.1955 -31.1920 -31.1912 -31.1891
   -31.1840 -31.1821 -31.1781 -31.1768 -31.1681 -31.1679 -31.1644 -31.1597
   -31.1586 -31.1433 -31.1423 -31.1416 -31.1385 -31.1322 -31.1145 -31.0997
     6.0353   6.0462   7.4013   7.4287   7.4670   7.4871   7.6697   7.6786
     8.1044   8.1164   8.1324   8.1612   8.1821   8.2317   8.2646   8.2800
     8.3902   8.4206   8.4597   8.4790   8.6088   8.6230   8.6446   8.6580
     8.6739   8.6747   8.6818   8.6975   8.7654   8.8062   8.8261   8.8322
     8.8338   8.8590   8.8738   8.8881   8.8998   8.9064   8.9121   8.9244
     8.9246   8.9290   8.9387   8.9538   9.0438   9.0508   9.1531   9.1649
     9.1857   9.1999   9.2136   9.2196   9.2379   9.2489   9.3141   9.3197
     9.3297   9.3874   9.3946   9.4117   9.4689   9.4712   9.4902   9.5054
     9.5458   9.5489   9.5532   9.5578   9.5745   9.5953   9.6042   9.6141
     9.6142   9.6246   9.6319   9.6347   9.6351   9.6389   9.6452   9.6499
     9.6596   9.6737   9.6775   9.6843   9.6927   9.7000   9.7136   9.7313
     9.7393   9.7605   9.7617   9.7775   9.8932   9.8983   9.9074   9.9753
    10.0173  10.0245  10.1689  10.1760  10.2054  10.2135  10.2421  10.2471
    10.2611  10.2720  10.2784  10.2802  10.2805  10.2849  10.3358  10.3549
    10.3730  10.3775  10.3835  10.3920  10.4241  10.4401  10.4659  10.4819
    10.4821  10.4925  10.5120  10.5478  10.5583  10.5691  10.5763  10.5898
    10.6172  10.6474  10.6755  10.6985  10.7131  10.7169  10.7369  10.7632
    10.8066  10.8233  10.8370  10.8415  10.8552  10.8663  10.9097  10.9453
    10.9484  10.9941  11.0194  11.0289  11.0394  11.0826  11.1665  11.1845
    11.2970  11.3221  11.3421  11.3477  11.3594  11.3672  11.3782  11.4040
    11.4122  11.4457  11.4695  11.4895  11.4926  11.5287  11.5652  11.5814
    11.5876  11.6035  11.6150  11.6154  11.6441  11.6742  11.6760  11.7480
    11.7722  11.7887  11.8025  11.8185  11.8320  11.8396  11.8579  11.8589
    11.8621  11.8694  11.8718  11.9028  11.9283  11.9486  11.9611  11.9634
    11.9749  11.9798  11.9826  12.0128  12.0228  12.1229  12.1462  12.1591
    12.1769  12.2125  12.2248  12.2298  12.2384  12.2457  12.2725  12.2863
    12.2866  12.2974  12.2986  12.3227  12.3889  12.4014  12.4056  12.4193
    12.4551  12.4667  12.4845  12.5115  12.5138  12.5386  12.5456  12.5534
    12.5840  12.5859  12.6017  12.6325  12.6401  12.6978  12.7163  12.7962
    12.8481  12.8791  13.0048  13.0253  13.0537  13.0558  13.0938  13.1107
    13.1543  13.1958  13.2257  13.2376  13.2893  13.2977  13.3376  13.3868
    13.4469  13.5013  13.5046  13.6807  13.7121  14.2900  14.4185  14.5977
    14.6760  14.7499  14.7798  14.7851  14.8368  14.8964  14.9516  14.9689
    15.0095  15.1009  15.1403  15.3117  15.3437  15.3811  15.5431  15.6122
    15.6643  15.7093  15.7920  15.8488  15.8679  15.9257  15.9436  15.9788
    16.0440  16.0454  16.0683  16.1006  16.1212  16.1214  16.1490  16.1694
    16.1977  16.2035  16.2277  16.2526  16.2681  16.2808  16.3632  16.3845
    16.4598  16.4761  16.5733  16.6520  16.6892  16.7727  16.9918  17.0785
    17.1471  17.1945  17.2535  17.3767  17.4383  17.4912  17.6210  17.6324
    17.7018  17.7469  17.7924  17.8161  17.8318  17.8927  17.9196  17.9428
    18.0371  18.0456  18.1258  18.2457  19.2551  19.2923  19.3079  19.3712

          k =-0.5000 0.0000 0.5734 ( 31696 PWs)   bands (ev):

   -66.7444 -66.7332 -66.6989 -66.6882 -66.6507 -66.6455 -66.6270 -66.6141
   -66.6111 -62.4224 -62.3978 -62.3658 -62.3600 -62.3522 -62.3413 -62.3302
   -62.3248 -62.2920 -35.5176 -35.4860 -35.4848 -35.4796 -35.4768 -35.4669
   -35.4590 -35.4547 -35.4449 -35.4325 -35.4275 -35.4274 -35.4062 -35.4021
   -35.3989 -35.3954 -35.3889 -35.3793 -35.3752 -35.3660 -35.3652 -35.3605
   -35.3594 -35.3584 -35.3561 -35.3410 -35.3204 -31.2613 -31.2497 -31.2455
   -31.2314 -31.2233 -31.2152 -31.2008 -31.1955 -31.1920 -31.1912 -31.1891
   -31.1839 -31.1821 -31.1781 -31.1768 -31.1681 -31.1679 -31.1644 -31.1597
   -31.1586 -31.1433 -31.1423 -31.1416 -31.1385 -31.1322 -31.1145 -31.0997
     6.5429   6.5623   6.6073   6.6129   7.8246   7.8501   7.8754   7.8858
     7.8910   7.8961   7.9373   7.9468   8.2643   8.2776   8.2965   8.3042
     8.5038   8.5206   8.5355   8.5377   8.6513   8.6545   8.6600   8.6856
     8.6909   8.6990   8.7034   8.7137   8.7174   8.7293   8.7337   8.7540
     8.7644   8.7820   8.7921   8.8149   8.9645   8.9858   9.0217   9.0259
     9.0378   9.0378   9.0469   9.0731   9.1984   9.2074   9.2099   9.2137
     9.2175   9.2188   9.2194   9.2261   9.2361   9.2467   9.2645   9.2660
     9.2722   9.2749   9.2857   9.2871   9.3126   9.3161   9.3786   9.3995
     9.4211   9.4227   9.4273   9.4563   9.4575   9.4648   9.4766   9.4775
     9.4840   9.4886   9.5094   9.5193   9.5325   9.5338   9.5461   9.5621
     9.5719   9.6046   9.7518   9.7593   9.7786   9.7864   9.8133   9.8192
     9.8306   9.8339   9.8449   9.8530   9.8573   9.8579   9.8658   9.8868
     9.9622   9.9749   9.9781   9.9997  10.0260  10.0410  10.0558  10.0586
    10.3621  10.3867  10.4003  10.4005  10.4064  10.4107  10.4256  10.4555
    10.4584  10.4666  10.4769  10.4791  10.4883  10.4899  10.5011  10.5140
    10.5307  10.5340  10.5676  10.5719  10.5878  10.5930  10.6072  10.6172
    10.6210  10.6236  10.6697  10.6698  10.6735  10.6977  10.7106  10.7287
    10.7601  10.8302  10.8836  10.9119  10.9728  10.9963  11.0390  11.0770
    11.1160  11.1307  11.1359  11.1533  11.1680  11.1683  11.1958  11.2084
    11.2096  11.2141  11.2875  11.3194  11.3291  11.3584  11.3625  11.3626
    11.3694  11.3701  11.3768  11.4165  11.4345  11.4834  11.4961  11.5154
    11.5241  11.5456  11.5644  11.5751  11.5859  11.5906  11.6000  11.6234
    11.6370  11.6407  11.7042  11.7167  11.7465  11.7619  11.7942  11.8536
    11.9084  11.9148  11.9310  11.9420  11.9534  11.9663  11.9981  12.0058
    12.0116  12.0316  12.0365  12.0384  12.0431  12.0787  12.1139  12.1148
    12.1354  12.1540  12.1756  12.2223  12.2344  12.2548  12.2922  12.3226
    12.3282  12.4049  12.4242  12.4273  12.4410  12.4620  12.4748  12.4917
    12.4991  12.5244  12.5337  12.5496  12.5543  12.5678  12.5773  12.5835
    12.5981  12.5998  12.6351  12.6543  12.7106  12.7415  12.7645  12.8246
    12.8248  12.8701  12.9230  12.9233  13.0181  13.0262  13.0533  13.0670
    13.0927  13.2464  13.3983  13.5323  13.6211  13.6534  13.7233  13.8037
    13.8566  13.8847  14.0001  14.0730  14.1732  14.2070  14.2263  14.3865
    14.4862  14.5207  14.5241  14.5666  14.5669  14.6738  14.7326  15.0375
    15.0762  15.1809  15.3219  15.3301  15.3461  15.3897  15.4619  15.5697
    15.6978  15.7622  15.8315  15.8599  15.8602  15.9311  15.9311  16.0277
    16.0399  16.1058  16.1265  16.1267  16.1552  16.1910  16.2219  16.2489
    16.2587  16.2800  16.2939  16.3074  16.3098  16.3527  16.3983  16.4002
    16.5080  16.5425  16.5477  16.5831  16.6072  16.6321  16.6872  16.7249
    16.7542  16.7634  16.8043  16.8669  16.8809  16.9164  16.9449  17.0680
    17.1011  17.1135  17.1454  17.2812  18.5772  18.6715  18.7401  18.7436
    18.7746  18.8057  18.8465  18.8502  18.8737  18.9499  18.9500  18.9803

     the Fermi energy is    14.8129 ev

!    total energy              =  -33062.59522834 Ry
     Harris-Foulkes estimate   =  -33062.59521189 Ry
     estimated scf accuracy    <       0.00000057 Ry

     total all-electron energy =  -1410574.685603 Ry

     The total energy is the sum of the following terms:

     one-electron contribution =   -1645.89104520 Ry
     hartree contribution      =    1490.09615272 Ry
     xc contribution           =   -1658.74472848 Ry
     ewald contribution        =   -4919.25534656 Ry
     one-center paw contrib.   =  -26328.80026082 Ry

     total magnetization       =    -0.22 Bohr mag/cell
     absolute magnetization    =    78.39 Bohr mag/cell

     convergence has been achieved in  22 iterations

     Writing output data file mnau2.save
 
     init_run     :     51.94s CPU     52.64s WALL (       1 calls)
     electrons    :   3359.74s CPU   3415.11s WALL (       1 calls)

     Called by init_run:
     wfcinit      :     46.09s CPU     46.56s WALL (       1 calls)
     potinit      :      2.49s CPU      2.53s WALL (       1 calls)

     Called by electrons:
     c_bands      :   3001.47s CPU   3046.71s WALL (      22 calls)
     sum_band     :    300.37s CPU    306.58s WALL (      22 calls)
     v_of_rho     :      5.90s CPU      6.08s WALL (      23 calls)
     newd         :     18.58s CPU     21.19s WALL (      23 calls)
     PAW_pot      :     34.08s CPU     34.54s WALL (      23 calls)
     mix_rho      :      1.18s CPU      1.25s WALL (      22 calls)

     Called by c_bands:
     init_us_2    :     10.89s CPU     10.94s WALL (     720 calls)
     cegterg      :   2932.66s CPU   2977.09s WALL (     352 calls)

     Called by sum_band:
     sum_band:bec :      1.71s CPU      1.72s WALL (     352 calls)
     addusdens    :     33.30s CPU     36.28s WALL (      22 calls)

     Called by *egterg:
     h_psi        :   1017.57s CPU   1028.70s WALL (    1385 calls)
     s_psi        :    250.08s CPU    250.28s WALL (    1385 calls)
     g_psi        :      3.93s CPU      3.94s WALL (    1017 calls)
     cdiaghg      :   1065.88s CPU   1066.27s WALL (    1369 calls)

     Called by h_psi:
     h_psi:pot    :   1008.66s CPU   1019.75s WALL (    1385 calls)
     h_psi:calbec :    249.83s CPU    252.42s WALL (    1385 calls)
     vloc_psi     :    508.19s CPU    516.47s WALL (    1385 calls)
     add_vuspsi   :    250.61s CPU    250.84s WALL (    1385 calls)

     General routines
     calbec       :    355.11s CPU    358.56s WALL (    1737 calls)
     fft          :      5.41s CPU      5.80s WALL (     703 calls)
     ffts         :      0.11s CPU      0.11s WALL (      90 calls)
     fftw         :    478.61s CPU    486.25s WALL (  798098 calls)
     interpolate  :      0.87s CPU      0.93s WALL (      90 calls)
 
     Parallel routines
     fft_scatt_xy :     60.81s CPU     61.58s WALL (  798891 calls)
     fft_scatt_yz :    125.35s CPU    129.00s WALL (  798891 calls)
 
     PWSCF        : 56m57.00s CPU    58m10.23s WALL

 
   This run was terminated on:   6:10:21   8Mar2019            

=------------------------------------------------------------------------------=
   JOB DONE.
=------------------------------------------------------------------------------=
