
     Program PWSCF v.6.3MaX starts on 23Feb2019 at 21:51:22 

     This program is part of the open-source Quantum ESPRESSO suite
     for quantum simulation of materials; please cite
         "P. Giannozzi et al., J. Phys.:Condens. Matter 21 395502 (2009);
         "P. Giannozzi et al., J. Phys.:Condens. Matter 29 465901 (2017);
          URL http://www.quantum-espresso.org", 
     in publications or presentations arising from this work. More details at
     http://www.quantum-espresso.org/quote

     Parallel version (MPI), running on    16 processors

     MPI processes distributed on     1 nodes
     R & G space division:  proc/nbgrp/npool/nimage =      16
     Waiting for input...
     Reading input from standard input

     Current dimensions of program PWSCF are:
     Max number of different atomic species (ntypx) = 10
     Max number of k-points (npk) =  40000
     Max angular momentum in pseudopotentials (lmaxx) =  3
     Message from routine read_upf::
     Pseudo file ./pseudo/Mn.pbe-spn-kjpaw_psl.0.3.1.UPF has been successfully fixed on the fly.
To avoid this message in the future you can permanently fix 
 your pseudo files following instructions given in: 
https://gitlab.com/QEF/q-e/blob/master/upftools/how_to_fix_upf.md
               file Mn.pbe-spn-kjpaw_psl.0.3.1.UPF: wavefunction(s)  3P 3D renormalized
     Message from routine read_upf::
     Pseudo file ./pseudo/Mn.pbe-spn-kjpaw_psl.0.3.1.UPF has been successfully fixed on the fly.
To avoid this message in the future you can permanently fix 
 your pseudo files following instructions given in: 
https://gitlab.com/QEF/q-e/blob/master/upftools/how_to_fix_upf.md
               file Mn.pbe-spn-kjpaw_psl.0.3.1.UPF: wavefunction(s)  3P 3D renormalized
     Message from routine read_upf::
     Pseudo file ./pseudo/Au.pbe-dn-kjpaw_psl.0.1.UPF has been successfully fixed on the fly.
To avoid this message in the future you can permanently fix 
 your pseudo files following instructions given in: 
https://gitlab.com/QEF/q-e/blob/master/upftools/how_to_fix_upf.md
               file Au.pbe-dn-kjpaw_psl.0.1.UPF: wavefunction(s)  6S 6P 5D renormalized

     Subspace diagonalization in iterative solution of the eigenvalue problem:
     a serial algorithm will be used

     Found symmetry operation: I + (  0.0000  0.3333  0.0000)
     This is a supercell, fractional translations are disabled

     Parallelization info
     --------------------
     sticks:   dense  smooth     PW     G-vecs:    dense   smooth      PW
     Min         736     331     82                52486    15847    1984
     Max         737     332     84                52489    15850    1987
     Sum       11785    5297   1321               839803   253559   31747



     bravais-lattice index     =            0
     lattice parameter (alat)  =      19.2459  a.u.
     unit-cell volume          =    6216.1497 (a.u.)^3
     number of atoms/cell      =           54
     number of atomic types    =            3
     number of electrons       =       666.00
     number of Kohn-Sham states=          400
     kinetic-energy cutoff     =      45.0000  Ry
     charge density cutoff     =     400.0000  Ry
     convergence threshold     =      1.0E-06
     mixing beta               =       0.1000
     number of iterations used =            8  plain     mixing
     Exchange-correlation      = SLA PW PBX PBC ( 1  4  3  4 0 0)

     celldm(1)=  19.245946  celldm(2)=   0.000000  celldm(3)=   0.000000
     celldm(4)=   0.000000  celldm(5)=   0.000000  celldm(6)=   0.000000

     crystal axes: (cart. coord. in units of alat)
               a(1) = (   1.000000   0.000000   0.000000 )  
               a(2) = (   0.000000   1.000000   0.000000 )  
               a(3) = (   0.000000   0.000000   0.871974 )  

     reciprocal axes: (cart. coord. in units 2 pi/alat)
               b(1) = (  1.000000  0.000000  0.000000 )  
               b(2) = (  0.000000  1.000000  0.000000 )  
               b(3) = (  0.000000  0.000000  1.146823 )  


     PseudoPot. # 1 for Mn read from file:
     ./pseudo/Mn.pbe-spn-kjpaw_psl.0.3.1.UPF
     MD5 check sum: 7eef95dd2aae66803482eea66ebeebf1
     Pseudo is Projector augmented-wave + core cor, Zval = 15.0
     Generated using "atomic" code by A. Dal Corso v.5.0.99 svn rev. 10869
     Shape of augmentation charge: PSQ
     Using radial grid of 1187 points,  6 beta functions with: 
                l(1) =   0
                l(2) =   0
                l(3) =   1
                l(4) =   1
                l(5) =   2
                l(6) =   2
     Q(r) pseudized with 0 coefficients 


     PseudoPot. # 2 for Mn read from file:
     ./pseudo/Mn.pbe-spn-kjpaw_psl.0.3.1.UPF
     MD5 check sum: 7eef95dd2aae66803482eea66ebeebf1
     Pseudo is Projector augmented-wave + core cor, Zval = 15.0
     Generated using "atomic" code by A. Dal Corso v.5.0.99 svn rev. 10869
     Shape of augmentation charge: PSQ
     Using radial grid of 1187 points,  6 beta functions with: 
                l(1) =   0
                l(2) =   0
                l(3) =   1
                l(4) =   1
                l(5) =   2
                l(6) =   2
     Q(r) pseudized with 0 coefficients 


     PseudoPot. # 3 for Au read from file:
     ./pseudo/Au.pbe-dn-kjpaw_psl.0.1.UPF
     MD5 check sum: 5c9b92683623e7ae2ab3f8e525febab6
     Pseudo is Projector augmented-wave + core cor, Zval = 11.0
     Generated using "atomic" code by A. Dal Corso v.5.0.2 svn rev. 9415
     Shape of augmentation charge: PSQ
     Using radial grid of 1279 points,  6 beta functions with: 
                l(1) =   0
                l(2) =   0
                l(3) =   1
                l(4) =   1
                l(5) =   2
                l(6) =   2
     Q(r) pseudized with 0 coefficients 


     atomic species   valence    mass     pseudopotential
        Mn1           15.00    54.93800     Mn( 1.00)
        Mn2           15.00    54.93800     Mn( 1.00)
        Au            11.00   196.96600     Au( 1.00)

     Starting magnetic structure 
     atomic species   magnetization
        Mn1          0.800
        Mn2         -0.800
        Au           0.000

     16 Sym. Ops., with inversion, found



   Cartesian axes

     site n.     atom                  positions (alat units)
         1           Mn1 tau(   1) = (   0.0000000   0.0000000   0.0000000  )
         2           Mn1 tau(   2) = (   0.0000000   0.3333300   0.0000000  )
         3           Mn1 tau(   3) = (   0.0000000   0.6666700   0.0000000  )
         4           Mn1 tau(   4) = (   0.3333300   0.0000000   0.0000000  )
         5           Mn1 tau(   5) = (   0.3333300   0.3333300   0.0000000  )
         6           Mn1 tau(   6) = (   0.3333300   0.6666700   0.0000000  )
         7           Mn1 tau(   7) = (   0.6666700   0.0000000   0.0000000  )
         8           Mn1 tau(   8) = (   0.6666700   0.3333300   0.0000000  )
         9           Mn1 tau(   9) = (   0.6666700   0.6666700   0.0000000  )
        10           Mn2 tau(  10) = (   0.1666700   0.1666700   0.4359871  )
        11           Mn2 tau(  11) = (   0.1666700   0.5000000   0.4359871  )
        12           Mn2 tau(  12) = (   0.1666700   0.8333300   0.4359871  )
        13           Mn2 tau(  13) = (   0.5000000   0.1666700   0.4359871  )
        14           Mn2 tau(  14) = (   0.5000000   0.5000000   0.4359871  )
        15           Mn2 tau(  15) = (   0.5000000   0.8333300   0.4359871  )
        16           Mn2 tau(  16) = (   0.8333300   0.1666700   0.4359871  )
        17           Mn2 tau(  17) = (   0.8333300   0.5000000   0.4359871  )
        18           Mn2 tau(  18) = (   0.8333300   0.8333300   0.4359871  )
        19           Au  tau(  19) = (   0.1666700   0.1666700   0.7327374  )
        20           Au  tau(  20) = (   0.1666700   0.5000000   0.7327374  )
        21           Au  tau(  21) = (   0.1666700   0.8333300   0.7327374  )
        22           Au  tau(  22) = (   0.5000000   0.1666700   0.7327374  )
        23           Au  tau(  23) = (   0.5000000   0.5000000   0.7327374  )
        24           Au  tau(  24) = (   0.5000000   0.8333300   0.7327374  )
        25           Au  tau(  25) = (   0.8333300   0.1666700   0.7327374  )
        26           Au  tau(  26) = (   0.8333300   0.5000000   0.7327374  )
        27           Au  tau(  27) = (   0.8333300   0.8333300   0.7327374  )
        28           Au  tau(  28) = (   0.1666700   0.1666700   0.1392369  )
        29           Au  tau(  29) = (   0.1666700   0.5000000   0.1392369  )
        30           Au  tau(  30) = (   0.1666700   0.8333300   0.1392369  )
        31           Au  tau(  31) = (   0.5000000   0.1666700   0.1392369  )
        32           Au  tau(  32) = (   0.5000000   0.5000000   0.1392369  )
        33           Au  tau(  33) = (   0.5000000   0.8333300   0.1392369  )
        34           Au  tau(  34) = (   0.8333300   0.1666700   0.1392369  )
        35           Au  tau(  35) = (   0.8333300   0.5000000   0.1392369  )
        36           Au  tau(  36) = (   0.8333300   0.8333300   0.1392369  )
        37           Au  tau(  37) = (   0.0000000   0.0000000   0.2967503  )
        38           Au  tau(  38) = (   0.0000000   0.3333300   0.2967503  )
        39           Au  tau(  39) = (   0.0000000   0.6666700   0.2967503  )
        40           Au  tau(  40) = (   0.3333300   0.0000000   0.2967503  )
        41           Au  tau(  41) = (   0.3333300   0.3333300   0.2967503  )
        42           Au  tau(  42) = (   0.3333300   0.6666700   0.2967503  )
        43           Au  tau(  43) = (   0.6666700   0.0000000   0.2967503  )
        44           Au  tau(  44) = (   0.6666700   0.3333300   0.2967503  )
        45           Au  tau(  45) = (   0.6666700   0.6666700   0.2967503  )
        46           Au  tau(  46) = (   0.0000000   0.0000000   0.5752240  )
        47           Au  tau(  47) = (   0.0000000   0.3333300   0.5752240  )
        48           Au  tau(  48) = (   0.0000000   0.6666700   0.5752240  )
        49           Au  tau(  49) = (   0.3333300   0.0000000   0.5752240  )
        50           Au  tau(  50) = (   0.3333300   0.3333300   0.5752240  )
        51           Au  tau(  51) = (   0.3333300   0.6666700   0.5752240  )
        52           Au  tau(  52) = (   0.6666700   0.0000000   0.5752240  )
        53           Au  tau(  53) = (   0.6666700   0.3333300   0.5752240  )
        54           Au  tau(  54) = (   0.6666700   0.6666700   0.5752240  )

     number of k points=     1 (tetrahedron method)
                       cart. coord. in units 2pi/alat
        k(    1) = (   0.0000000   0.0000000   0.0000000), wk =   1.0000000

     Dense  grid:   839803 G-vectors     FFT dimensions: ( 125, 125, 108)

     Smooth grid:   253559 G-vectors     FFT dimensions: (  90,  90,  72)

     Estimated max dynamical RAM per process >     400.94 MB

     Estimated total dynamical RAM >       6.26 GB
     Generating pointlists ...
     new r_m :   0.1129 (alat units)  2.1733 (a.u.) for type    1
     new r_m :   0.1129 (alat units)  2.1733 (a.u.) for type    2
     new r_m :   0.1129 (alat units)  2.1733 (a.u.) for type    3

     Check: negative/imaginary core charge=   -0.000006    0.000000

     Initial potential from superposition of free atoms

     starting charge  665.98709, renormalised to  666.00000
     Starting wfcs are  504 randomized atomic wfcs
     Checking if some PAW data can be deallocated... 

     total cpu time spent up to now is       23.2 secs

     Self-consistent Calculation

     iteration #  1     ecut=    45.00 Ry     beta= 0.10
     Davidson diagonalization with overlap
     ethr =  1.00E-02,  avg # of iterations =  4.0

     total cpu time spent up to now is       61.2 secs

     total energy              =  -33046.91459569 Ry
     Harris-Foulkes estimate   =  -33043.77618822 Ry
     estimated scf accuracy    <      27.11701393 Ry

     total magnetization       =     0.00 Bohr mag/cell
     absolute magnetization    =    93.86 Bohr mag/cell

     iteration #  2     ecut=    45.00 Ry     beta= 0.10
     Davidson diagonalization with overlap
     ethr =  4.07E-03,  avg # of iterations =  1.0

     total cpu time spent up to now is       86.6 secs

     total energy              =  -33058.20092641 Ry
     Harris-Foulkes estimate   =  -33047.09033308 Ry
     estimated scf accuracy    <      21.40762286 Ry

     total magnetization       =    -0.00 Bohr mag/cell
     absolute magnetization    =    93.12 Bohr mag/cell

     iteration #  3     ecut=    45.00 Ry     beta= 0.10
     Davidson diagonalization with overlap
     ethr =  3.21E-03,  avg # of iterations =  2.0

     total cpu time spent up to now is      116.8 secs

     total energy              =  -33064.54242752 Ry
     Harris-Foulkes estimate   =  -33060.96794637 Ry
     estimated scf accuracy    <       8.50928319 Ry

     total magnetization       =     0.00 Bohr mag/cell
     absolute magnetization    =    86.25 Bohr mag/cell

     iteration #  4     ecut=    45.00 Ry     beta= 0.10
     Davidson diagonalization with overlap
     ethr =  1.28E-03,  avg # of iterations =  4.0

     total cpu time spent up to now is      154.0 secs

     total energy              =  -33058.29035939 Ry
     Harris-Foulkes estimate   =  -33066.15141332 Ry
     estimated scf accuracy    <      34.62743872 Ry

     total magnetization       =     0.00 Bohr mag/cell
     absolute magnetization    =    78.24 Bohr mag/cell

     iteration #  5     ecut=    45.00 Ry     beta= 0.10
     Davidson diagonalization with overlap
     ethr =  1.28E-03,  avg # of iterations =  4.0

     total cpu time spent up to now is      204.9 secs

     total energy              =  -33062.25795098 Ry
     Harris-Foulkes estimate   =  -33062.04486338 Ry
     estimated scf accuracy    <       0.80723351 Ry

     total magnetization       =     0.00 Bohr mag/cell
     absolute magnetization    =    83.40 Bohr mag/cell

     iteration #  6     ecut=    45.00 Ry     beta= 0.10
     Davidson diagonalization with overlap
     ethr =  1.21E-04,  avg # of iterations =  4.0

     total cpu time spent up to now is      244.6 secs

     total energy              =  -33062.70372906 Ry
     Harris-Foulkes estimate   =  -33062.70116759 Ry
     estimated scf accuracy    <       1.48279929 Ry

     total magnetization       =     0.00 Bohr mag/cell
     absolute magnetization    =    76.41 Bohr mag/cell

     iteration #  7     ecut=    45.00 Ry     beta= 0.10
     Davidson diagonalization with overlap
     ethr =  1.21E-04,  avg # of iterations =  1.0

     total cpu time spent up to now is      270.1 secs

     total energy              =  -33062.75444934 Ry
     Harris-Foulkes estimate   =  -33062.70972785 Ry
     estimated scf accuracy    <       1.38551475 Ry

     total magnetization       =     0.00 Bohr mag/cell
     absolute magnetization    =    75.66 Bohr mag/cell

     iteration #  8     ecut=    45.00 Ry     beta= 0.10
     Davidson diagonalization with overlap
     ethr =  1.21E-04,  avg # of iterations =  1.0

     total cpu time spent up to now is      295.6 secs

     total energy              =  -33062.41812262 Ry
     Harris-Foulkes estimate   =  -33062.75893058 Ry
     estimated scf accuracy    <       1.75320314 Ry

     total magnetization       =    -0.00 Bohr mag/cell
     absolute magnetization    =    75.82 Bohr mag/cell

     iteration #  9     ecut=    45.00 Ry     beta= 0.10
     Davidson diagonalization with overlap
     ethr =  1.21E-04,  avg # of iterations =  3.0

     total cpu time spent up to now is      327.1 secs

     total energy              =  -33062.51440596 Ry
     Harris-Foulkes estimate   =  -33062.53558577 Ry
     estimated scf accuracy    <       0.21280302 Ry

     total magnetization       =     0.00 Bohr mag/cell
     absolute magnetization    =    77.20 Bohr mag/cell

     iteration # 10     ecut=    45.00 Ry     beta= 0.10
     Davidson diagonalization with overlap
     ethr =  3.20E-05,  avg # of iterations =  2.0

     total cpu time spent up to now is      354.8 secs

     total energy              =  -33062.50736226 Ry
     Harris-Foulkes estimate   =  -33062.51814249 Ry
     estimated scf accuracy    <       0.21275363 Ry

     total magnetization       =     0.00 Bohr mag/cell
     absolute magnetization    =    77.61 Bohr mag/cell

     iteration # 11     ecut=    45.00 Ry     beta= 0.10
     Davidson diagonalization with overlap
     ethr =  3.19E-05,  avg # of iterations =  1.0

     total cpu time spent up to now is      380.3 secs

     total energy              =  -33062.51700460 Ry
     Harris-Foulkes estimate   =  -33062.51093426 Ry
     estimated scf accuracy    <       0.10656897 Ry

     total magnetization       =    -0.00 Bohr mag/cell
     absolute magnetization    =    77.67 Bohr mag/cell

     iteration # 12     ecut=    45.00 Ry     beta= 0.10
     Davidson diagonalization with overlap
     ethr =  1.60E-05,  avg # of iterations =  2.0

     total cpu time spent up to now is      409.7 secs

     total energy              =  -33062.53016883 Ry
     Harris-Foulkes estimate   =  -33062.52725611 Ry
     estimated scf accuracy    <       0.00904936 Ry

     total magnetization       =     0.00 Bohr mag/cell
     absolute magnetization    =    77.24 Bohr mag/cell

     iteration # 13     ecut=    45.00 Ry     beta= 0.10
     Davidson diagonalization with overlap
     ethr =  1.36E-06,  avg # of iterations =  4.0

     total cpu time spent up to now is      444.9 secs

     total energy              =  -33062.53202605 Ry
     Harris-Foulkes estimate   =  -33062.53104601 Ry
     estimated scf accuracy    <       0.00528169 Ry

     total magnetization       =    -0.00 Bohr mag/cell
     absolute magnetization    =    77.01 Bohr mag/cell

     iteration # 14     ecut=    45.00 Ry     beta= 0.10
     Davidson diagonalization with overlap
     ethr =  7.93E-07,  avg # of iterations =  2.0

     total cpu time spent up to now is      473.3 secs

     total energy              =  -33062.53276031 Ry
     Harris-Foulkes estimate   =  -33062.53235571 Ry
     estimated scf accuracy    <       0.00116570 Ry

     total magnetization       =     0.00 Bohr mag/cell
     absolute magnetization    =    76.89 Bohr mag/cell

     iteration # 15     ecut=    45.00 Ry     beta= 0.10
     Davidson diagonalization with overlap
     ethr =  1.75E-07,  avg # of iterations =  3.0

     total cpu time spent up to now is      506.4 secs

     total energy              =  -33062.53303278 Ry
     Harris-Foulkes estimate   =  -33062.53289879 Ry
     estimated scf accuracy    <       0.00017851 Ry

     total magnetization       =    -0.00 Bohr mag/cell
     absolute magnetization    =    76.88 Bohr mag/cell

     iteration # 16     ecut=    45.00 Ry     beta= 0.10
     Davidson diagonalization with overlap
     ethr =  2.68E-08,  avg # of iterations =  3.5

     total cpu time spent up to now is      539.3 secs

     total energy              =  -33062.53313490 Ry
     Harris-Foulkes estimate   =  -33062.53304673 Ry
     estimated scf accuracy    <       0.00007424 Ry

     total magnetization       =    -0.00 Bohr mag/cell
     absolute magnetization    =    76.88 Bohr mag/cell

     iteration # 17     ecut=    45.00 Ry     beta= 0.10
     Davidson diagonalization with overlap
     ethr =  1.11E-08,  avg # of iterations =  3.0

     total cpu time spent up to now is      573.1 secs

     total energy              =  -33062.53317596 Ry
     Harris-Foulkes estimate   =  -33062.53314557 Ry
     estimated scf accuracy    <       0.00002935 Ry

     total magnetization       =     0.00 Bohr mag/cell
     absolute magnetization    =    76.88 Bohr mag/cell

     iteration # 18     ecut=    45.00 Ry     beta= 0.10
     Davidson diagonalization with overlap
     ethr =  4.41E-09,  avg # of iterations =  2.0

     total cpu time spent up to now is      601.2 secs

     total energy              =  -33062.53320558 Ry
     Harris-Foulkes estimate   =  -33062.53317780 Ry
     estimated scf accuracy    <       0.00001697 Ry

     total magnetization       =    -0.00 Bohr mag/cell
     absolute magnetization    =    76.88 Bohr mag/cell

     iteration # 19     ecut=    45.00 Ry     beta= 0.10
     Davidson diagonalization with overlap
     ethr =  2.55E-09,  avg # of iterations =  3.0

     total cpu time spent up to now is      638.2 secs

     total energy              =  -33062.53322312 Ry
     Harris-Foulkes estimate   =  -33062.53320917 Ry
     estimated scf accuracy    <       0.00000548 Ry

     total magnetization       =     0.00 Bohr mag/cell
     absolute magnetization    =    76.87 Bohr mag/cell

     iteration # 20     ecut=    45.00 Ry     beta= 0.10
     Davidson diagonalization with overlap
     ethr =  8.23E-10,  avg # of iterations =  2.0

     total cpu time spent up to now is      667.6 secs

     total energy              =  -33062.53323401 Ry
     Harris-Foulkes estimate   =  -33062.53322368 Ry
     estimated scf accuracy    <       0.00000356 Ry

     total magnetization       =    -0.00 Bohr mag/cell
     absolute magnetization    =    76.88 Bohr mag/cell

     iteration # 21     ecut=    45.00 Ry     beta= 0.10
     Davidson diagonalization with overlap
     ethr =  5.34E-10,  avg # of iterations =  2.0

     total cpu time spent up to now is      698.1 secs

     total energy              =  -33062.53324169 Ry
     Harris-Foulkes estimate   =  -33062.53323444 Ry
     estimated scf accuracy    <       0.00000183 Ry

     total magnetization       =    -0.00 Bohr mag/cell
     absolute magnetization    =    76.88 Bohr mag/cell

     iteration # 22     ecut=    45.00 Ry     beta= 0.10
     Davidson diagonalization with overlap
     ethr =  2.75E-10,  avg # of iterations =  3.0

     Magnetic moment per site:
     atom:    1    charge:   13.6219    magn:    3.8272    constr:    0.0000
     atom:    2    charge:   13.6219    magn:    3.8270    constr:    0.0000
     atom:    3    charge:   13.6219    magn:    3.8270    constr:    0.0000
     atom:    4    charge:   13.6219    magn:    3.8270    constr:    0.0000
     atom:    5    charge:   13.6219    magn:    3.8266    constr:    0.0000
     atom:    6    charge:   13.6219    magn:    3.8266    constr:    0.0000
     atom:    7    charge:   13.6219    magn:    3.8270    constr:    0.0000
     atom:    8    charge:   13.6219    magn:    3.8266    constr:    0.0000
     atom:    9    charge:   13.6219    magn:    3.8266    constr:    0.0000
     atom:   10    charge:   13.6220    magn:   -3.8269    constr:    0.0000
     atom:   11    charge:   13.6219    magn:   -3.8269    constr:    0.0000
     atom:   12    charge:   13.6220    magn:   -3.8269    constr:    0.0000
     atom:   13    charge:   13.6219    magn:   -3.8269    constr:    0.0000
     atom:   14    charge:   13.6217    magn:   -3.8266    constr:    0.0000
     atom:   15    charge:   13.6219    magn:   -3.8269    constr:    0.0000
     atom:   16    charge:   13.6220    magn:   -3.8269    constr:    0.0000
     atom:   17    charge:   13.6219    magn:   -3.8269    constr:    0.0000
     atom:   18    charge:   13.6220    magn:   -3.8269    constr:    0.0000
     atom:   19    charge:    9.1241    magn:    0.0543    constr:    0.0000
     atom:   20    charge:    9.1240    magn:    0.0543    constr:    0.0000
     atom:   21    charge:    9.1241    magn:    0.0543    constr:    0.0000
     atom:   22    charge:    9.1240    magn:    0.0543    constr:    0.0000
     atom:   23    charge:    9.1240    magn:    0.0543    constr:    0.0000
     atom:   24    charge:    9.1240    magn:    0.0543    constr:    0.0000
     atom:   25    charge:    9.1241    magn:    0.0543    constr:    0.0000
     atom:   26    charge:    9.1240    magn:    0.0543    constr:    0.0000
     atom:   27    charge:    9.1241    magn:    0.0543    constr:    0.0000
     atom:   28    charge:    9.1241    magn:    0.0543    constr:    0.0000
     atom:   29    charge:    9.1240    magn:    0.0543    constr:    0.0000
     atom:   30    charge:    9.1241    magn:    0.0543    constr:    0.0000
     atom:   31    charge:    9.1240    magn:    0.0543    constr:    0.0000
     atom:   32    charge:    9.1240    magn:    0.0543    constr:    0.0000
     atom:   33    charge:    9.1240    magn:    0.0543    constr:    0.0000
     atom:   34    charge:    9.1241    magn:    0.0543    constr:    0.0000
     atom:   35    charge:    9.1240    magn:    0.0543    constr:    0.0000
     atom:   36    charge:    9.1241    magn:    0.0543    constr:    0.0000
     atom:   37    charge:    9.1242    magn:   -0.0543    constr:    0.0000
     atom:   38    charge:    9.1241    magn:   -0.0543    constr:    0.0000
     atom:   39    charge:    9.1241    magn:   -0.0543    constr:    0.0000
     atom:   40    charge:    9.1241    magn:   -0.0543    constr:    0.0000
     atom:   41    charge:    9.1240    magn:   -0.0543    constr:    0.0000
     atom:   42    charge:    9.1240    magn:   -0.0543    constr:    0.0000
     atom:   43    charge:    9.1241    magn:   -0.0543    constr:    0.0000
     atom:   44    charge:    9.1240    magn:   -0.0543    constr:    0.0000
     atom:   45    charge:    9.1240    magn:   -0.0543    constr:    0.0000
     atom:   46    charge:    9.1242    magn:   -0.0543    constr:    0.0000
     atom:   47    charge:    9.1241    magn:   -0.0543    constr:    0.0000
     atom:   48    charge:    9.1241    magn:   -0.0543    constr:    0.0000
     atom:   49    charge:    9.1241    magn:   -0.0543    constr:    0.0000
     atom:   50    charge:    9.1240    magn:   -0.0543    constr:    0.0000
     atom:   51    charge:    9.1240    magn:   -0.0543    constr:    0.0000
     atom:   52    charge:    9.1241    magn:   -0.0543    constr:    0.0000
     atom:   53    charge:    9.1240    magn:   -0.0543    constr:    0.0000
     atom:   54    charge:    9.1240    magn:   -0.0543    constr:    0.0000

     total cpu time spent up to now is      733.1 secs

     End of self-consistent calculation

 ------ SPIN UP ------------


          k = 0.0000 0.0000 0.0000 ( 31747 PWs)   bands (ev):

   -66.2151 -66.2147 -66.2145 -66.2144 -66.2144 -66.2139 -66.2136 -66.2136
   -66.2134 -62.1048 -62.1043 -62.1042 -62.1041 -62.1041 -62.1037 -62.1036
   -62.1036 -62.1034 -35.0318 -35.0318 -35.0316 -35.0315 -35.0311 -35.0311
   -35.0310 -35.0308 -35.0308 -35.0306 -35.0304 -35.0304 -35.0225 -35.0225
   -35.0219 -35.0219 -35.0218 -35.0217 -34.8603 -34.8595 -34.8594 -34.8592
   -34.8592 -34.8586 -34.8582 -34.8582 -34.8579 -30.9643 -30.9643 -30.9642
   -30.9641 -30.9634 -30.9634 -30.9633 -30.9632 -30.9631 -30.9631 -30.9629
   -30.9629 -30.9528 -30.9528 -30.9521 -30.9521 -30.9519 -30.9518 -30.9010
   -30.8999 -30.8998 -30.8997 -30.8997 -30.8991 -30.8989 -30.8989 -30.8987
     5.6143   7.1741   7.1741   7.1742   7.1743   7.3631   7.9073   7.9074
     7.9074   7.9075   8.1165   8.1165   8.1165   8.1166   8.1661   8.2834
     8.2834   8.2836   8.2836   8.5610   8.5611   8.5611   8.5612   8.5620
     8.6078   8.8826   8.8826   8.8827   8.8827   8.8939   8.8939   8.8939
     8.8940   8.8972   8.8972   8.8972   8.8972   8.9393   8.9393   8.9394
     8.9394   9.0564   9.1043   9.1044   9.1044   9.1044   9.1603   9.1919
     9.1920   9.1920   9.1921   9.2758   9.2758   9.2758   9.2759   9.3815
     9.3816   9.3816   9.3817   9.3900   9.3900   9.3901   9.3901   9.4570
     9.4570   9.4571   9.4571   9.4670   9.4670   9.4670   9.4671   9.5731
     9.5731   9.5731   9.5731   9.6357   9.6357   9.6358   9.6358   9.6497
     9.6498   9.6498   9.6499   9.7539   9.7540   9.7540   9.7541   9.8267
     9.8267   9.9476   9.9497   9.9498   9.9498   9.9498  10.0179  10.0513
    10.1345  10.1346  10.1346  10.1346  10.2798  10.2798  10.2798  10.2799
    10.3149  10.3149  10.3149  10.3149  10.3368  10.3370  10.3370  10.3371
    10.3444  10.3444  10.3446  10.3446  10.3557  10.3558  10.3558  10.3560
    10.3671  10.4992  10.4992  10.6156  10.6157  10.6157  10.6158  10.7672
    10.7672  10.8023  10.8023  10.8023  10.8023  10.8298  10.8298  10.8298
    10.8298  10.8484  10.8926  10.8927  10.8927  10.8927  10.9388  10.9389
    10.9389  10.9390  11.0612  11.0612  11.0613  11.0613  11.2151  11.2151
    11.2151  11.2152  11.2990  11.3666  11.3666  11.3668  11.3668  11.4039
    11.4039  11.4040  11.4040  11.4202  11.4202  11.4461  11.4461  11.4461
    11.4462  11.5669  11.5670  11.5670  11.5671  11.6473  11.6473  11.6474
    11.6474  11.6834  11.6836  11.6836  11.6838  11.7245  11.7245  11.7245
    11.7245  11.8291  11.8291  11.8291  11.8292  11.8543  11.9286  11.9286
    11.9286  11.9286  12.0850  12.0850  12.0851  12.0851  12.1290  12.1290
    12.1290  12.1291  12.2841  12.2842  12.2842  12.2842  12.4208  12.5019
    12.6374  12.6455  12.6455  12.6458  12.6458  12.7139  12.7139  12.7143
    12.7143  12.7359  12.7360  12.7362  12.7362  12.7662  12.7665  12.7665
    12.7669  12.8348  12.8349  12.8349  12.8352  12.9618  12.9619  12.9619
    12.9619  13.0179  13.0179  13.2997  13.2998  13.3000  13.3000  13.4099
    13.4811  13.4811  13.4814  13.4814  13.6117  13.6117  13.6117  13.6118
    14.0478  14.0480  14.0480  14.0480  14.3194  14.3194  14.3195  14.3195
    15.2243  15.2243  15.2245  15.2245  15.2926  15.3810  15.3810  15.3810
    15.3811  15.4733  15.4734  15.4734  15.4735  15.6410  15.6410  15.6410
    15.6411  15.8328  15.8494  15.8496  15.8496  15.8498  16.0950  16.0951
    16.0951  16.0951  16.1358  16.1358  16.3387  16.3388  16.3389  16.3389
    16.5105  16.5105  16.5105  16.5108  16.6180  16.6180  16.6183  16.6184
    16.6419  16.6451  16.6452  16.6452  16.6453  16.9060  16.9060  16.9060
    16.9061  17.0285  17.2620  17.2620  17.2620  17.2621  17.6567  17.6567
    17.6567  17.6569  17.9697  17.9698  17.9698  17.9698  17.9915  17.9915
    17.9915  17.9916  18.0643  19.1607  19.1607  19.1608  19.1609  19.5113

 ------ SPIN DOWN ----------


          k = 0.0000 0.0000 0.0000 ( 31747 PWs)   bands (ev):

   -66.2148 -66.2144 -66.2144 -66.2143 -66.2142 -66.2140 -66.2139 -66.2139
   -66.2131 -62.1049 -62.1044 -62.1044 -62.1041 -62.1041 -62.1040 -62.1036
   -62.1036 -62.1032 -35.0317 -35.0316 -35.0315 -35.0315 -35.0309 -35.0309
   -35.0309 -35.0309 -35.0308 -35.0308 -35.0304 -35.0304 -35.0224 -35.0224
   -35.0220 -35.0220 -35.0217 -35.0217 -34.8601 -34.8593 -34.8593 -34.8591
   -34.8590 -34.8587 -34.8586 -34.8586 -34.8577 -30.9645 -30.9644 -30.9642
   -30.9642 -30.9635 -30.9635 -30.9633 -30.9633 -30.9632 -30.9631 -30.9629
   -30.9629 -30.9528 -30.9528 -30.9522 -30.9522 -30.9519 -30.9519 -30.9011
   -30.9000 -30.9000 -30.8997 -30.8997 -30.8994 -30.8990 -30.8990 -30.8985
     5.6143   7.1741   7.1741   7.1743   7.1743   7.3631   7.9073   7.9074
     7.9074   7.9075   8.1165   8.1165   8.1166   8.1166   8.1661   8.2834
     8.2834   8.2836   8.2836   8.5610   8.5611   8.5611   8.5612   8.5620
     8.6078   8.8826   8.8826   8.8827   8.8827   8.8939   8.8939   8.8939
     8.8940   8.8972   8.8972   8.8972   8.8973   8.9393   8.9393   8.9394
     8.9394   9.0564   9.1043   9.1044   9.1044   9.1045   9.1603   9.1919
     9.1920   9.1920   9.1921   9.2758   9.2758   9.2758   9.2758   9.3815
     9.3816   9.3816   9.3816   9.3900   9.3901   9.3901   9.3901   9.4570
     9.4570   9.4571   9.4571   9.4670   9.4670   9.4670   9.4671   9.5731
     9.5731   9.5731   9.5731   9.6357   9.6357   9.6358   9.6358   9.6497
     9.6498   9.6498   9.6499   9.7539   9.7540   9.7540   9.7541   9.8267
     9.8267   9.9476   9.9498   9.9498   9.9498   9.9498  10.0180  10.0513
    10.1346  10.1346  10.1346  10.1346  10.2798  10.2798  10.2798  10.2799
    10.3149  10.3149  10.3149  10.3149  10.3369  10.3370  10.3370  10.3371
    10.3444  10.3444  10.3445  10.3446  10.3557  10.3558  10.3558  10.3560
    10.3671  10.4992  10.4992  10.6156  10.6157  10.6157  10.6157  10.7672
    10.7672  10.8023  10.8023  10.8023  10.8023  10.8298  10.8298  10.8298
    10.8298  10.8484  10.8926  10.8927  10.8927  10.8928  10.9388  10.9389
    10.9389  10.9390  11.0612  11.0612  11.0613  11.0613  11.2151  11.2151
    11.2151  11.2152  11.2990  11.3666  11.3666  11.3668  11.3668  11.4039
    11.4039  11.4040  11.4040  11.4202  11.4202  11.4461  11.4461  11.4461
    11.4462  11.5669  11.5670  11.5670  11.5671  11.6472  11.6472  11.6474
    11.6474  11.6836  11.6836  11.6836  11.6836  11.7245  11.7245  11.7245
    11.7245  11.8291  11.8292  11.8292  11.8292  11.8543  11.9286  11.9286
    11.9286  11.9286  12.0850  12.0850  12.0851  12.0851  12.1290  12.1290
    12.1290  12.1291  12.2842  12.2842  12.2842  12.2842  12.4208  12.5019
    12.6375  12.6457  12.6457  12.6458  12.6458  12.7140  12.7140  12.7143
    12.7143  12.7361  12.7361  12.7361  12.7362  12.7665  12.7665  12.7665
    12.7667  12.8349  12.8350  12.8350  12.8352  12.9619  12.9619  12.9620
    12.9620  13.0179  13.0179  13.2998  13.2998  13.2999  13.3001  13.4099
    13.4811  13.4812  13.4814  13.4814  13.6117  13.6117  13.6118  13.6118
    14.0478  14.0480  14.0480  14.0480  14.3194  14.3194  14.3195  14.3196
    15.2243  15.2244  15.2244  15.2244  15.2926  15.3809  15.3810  15.3810
    15.3812  15.4733  15.4733  15.4734  15.4735  15.6410  15.6410  15.6410
    15.6410  15.8328  15.8495  15.8496  15.8496  15.8497  16.0950  16.0950
    16.0951  16.0951  16.1358  16.1358  16.3387  16.3387  16.3388  16.3389
    16.5104  16.5105  16.5105  16.5107  16.6180  16.6181  16.6182  16.6182
    16.6419  16.6451  16.6451  16.6452  16.6452  16.9058  16.9060  16.9060
    16.9062  17.0285  17.2619  17.2620  17.2621  17.2621  17.6566  17.6566
    17.6568  17.6569  17.9697  17.9697  17.9697  17.9698  17.9915  17.9915
    17.9915  17.9916  18.0642  19.1607  19.1608  19.1608  19.1608  19.5112

     the Fermi energy is    15.2930 ev

!    total energy              =  -33062.53327177 Ry
     Harris-Foulkes estimate   =  -33062.53324197 Ry
     estimated scf accuracy    <       0.00000096 Ry

     total all-electron energy =  -1410574.623646 Ry

     The total energy is the sum of the following terms:

     one-electron contribution =   -1651.21195303 Ry
     hartree contribution      =    1495.34259131 Ry
     xc contribution           =   -1658.87277386 Ry
     ewald contribution        =   -4919.25534656 Ry
     one-center paw contrib.   =  -26328.53578963 Ry

     total magnetization       =     0.00 Bohr mag/cell
     absolute magnetization    =    76.88 Bohr mag/cell

     convergence has been achieved in  22 iterations

     Writing output data file mnau2.save/

     init_run     :     20.04s CPU     20.32s WALL (       1 calls)
     electrons    :    701.93s CPU    710.18s WALL (       1 calls)

     Called by init_run:
     wfcinit      :      8.73s CPU      8.79s WALL (       1 calls)
     potinit      :      5.27s CPU      5.33s WALL (       1 calls)
     hinit0       :      4.64s CPU      4.65s WALL (       1 calls)

     Called by electrons:
     c_bands      :    520.52s CPU    523.10s WALL (      22 calls)
     sum_band     :     78.94s CPU     81.94s WALL (      22 calls)
     v_of_rho     :      9.19s CPU      9.22s WALL (      23 calls)
     newd         :     22.28s CPU     24.70s WALL (      23 calls)
     PAW_pot      :     73.44s CPU     73.51s WALL (      23 calls)
     mix_rho      :      1.30s CPU      1.30s WALL (      22 calls)

     Called by c_bands:
     init_us_2    :      1.64s CPU      1.65s WALL (      90 calls)
     cegterg      :    514.77s CPU    517.33s WALL (      44 calls)

     Called by sum_band:
     sum_band:bec :      0.24s CPU      0.24s WALL (      44 calls)
     addusdens    :     39.79s CPU     42.62s WALL (      22 calls)

     Called by *egterg:
     h_psi        :    164.48s CPU    165.54s WALL (     159 calls)
     s_psi        :     55.89s CPU     55.91s WALL (     159 calls)
     g_psi        :      0.54s CPU      0.54s WALL (     113 calls)
     cdiaghg      :    173.11s CPU    173.32s WALL (     157 calls)

     Called by h_psi:
     h_psi:pot    :    163.72s CPU    164.41s WALL (     159 calls)
     h_psi:calbec :     57.30s CPU     57.34s WALL (     159 calls)
     vloc_psi     :     50.11s CPU     50.72s WALL (     159 calls)
     add_vuspsi   :     56.31s CPU     56.35s WALL (     159 calls)

     General routines
     calbec       :     82.32s CPU     82.39s WALL (     203 calls)
     fft          :      4.13s CPU      4.14s WALL (     571 calls)
     ffts         :      0.12s CPU      0.12s WALL (      90 calls)
     fftw         :     55.76s CPU     56.43s WALL (   96954 calls)
     interpolate  :      0.46s CPU      0.46s WALL (      46 calls)

     Parallel routines
     fft_scatt_xy :     10.00s CPU     10.10s WALL (   97615 calls)
     fft_scatt_yz :     15.97s CPU     16.19s WALL (   97615 calls)

     PWSCF        : 12m 5.04s CPU    12m20.43s WALL


   This run was terminated on:  22: 3:43  23Feb2019            

=------------------------------------------------------------------------------=
   JOB DONE.
=------------------------------------------------------------------------------=
