
     Program PWSCF v.6.2 (svn rev. 14038) starts on 26Feb2019 at 15:34:43 

     This program is part of the open-source Quantum ESPRESSO suite
     for quantum simulation of materials; please cite
         "P. Giannozzi et al., J. Phys.:Condens. Matter 21 395502 (2009);
         "P. Giannozzi et al., J. Phys.:Condens. Matter 29 465901 (2017);
          URL http://www.quantum-espresso.org", 
     in publications or presentations arising from this work. More details at
     http://www.quantum-espresso.org/quote

     Parallel version (MPI), running on    32 processors

     MPI processes distributed on     2 nodes
     R & G space division:  proc/nbgrp/npool/nimage =      32
     Waiting for input...
     Reading input from standard input

     Current dimensions of program PWSCF are:
     Max number of different atomic species (ntypx) = 10
     Max number of k-points (npk) =  40000
     Max angular momentum in pseudopotentials (lmaxx) =  3
               file Mn.pbe-spn-kjpaw_psl.0.3.1.UPF: wavefunction(s)  3P 3D renormalized
               file Au.pbe-dn-kjpaw_psl.0.1.UPF: wavefunction(s)  6S 6P 5D renormalized

     Subspace diagonalization in iterative solution of the eigenvalue problem:
     a serial algorithm will be used

     Found symmetry operation: I + (  0.0000 -0.3333  0.0000)
     This is a supercell, fractional translations are disabled
 
     Parallelization info
     --------------------
     sticks:   dense  smooth     PW     G-vecs:    dense   smooth      PW
     Min         368     165     45                26242     7923    1127
     Max         369     166     46                26247     7926    1130
     Sum       11785    5297   1449               839803   253559   36125
 


     bravais-lattice index     =            0
     lattice parameter (alat)  =      19.2459  a.u.
     unit-cell volume          =    6216.1497 (a.u.)^3
     number of atoms/cell      =           54
     number of atomic types    =            2
     number of electrons       =       666.00
     number of Kohn-Sham states=          400
     kinetic-energy cutoff     =      45.0000  Ry
     charge density cutoff     =     400.0000  Ry
     convergence threshold     =      1.0E-06
     mixing beta               =       0.1000
     number of iterations used =            8  plain     mixing
     Exchange-correlation      = SLA PW PBX PBC ( 1  4  3  4 0 0)

     celldm(1)=  19.245946  celldm(2)=   0.000000  celldm(3)=   0.000000
     celldm(4)=   0.000000  celldm(5)=   0.000000  celldm(6)=   0.000000

     crystal axes: (cart. coord. in units of alat)
               a(1) = (   1.000000   0.000000   0.000000 )  
               a(2) = (   0.000000   1.000000   0.000000 )  
               a(3) = (   0.000000   0.000000   0.871974 )  

     reciprocal axes: (cart. coord. in units 2 pi/alat)
               b(1) = (  1.000000  0.000000  0.000000 )  
               b(2) = (  0.000000  1.000000  0.000000 )  
               b(3) = (  0.000000  0.000000  1.146823 )  


     PseudoPot. # 1 for Mn read from file:
     ./pseudo/Mn.pbe-spn-kjpaw_psl.0.3.1.UPF
     MD5 check sum: 7eef95dd2aae66803482eea66ebeebf1
     Pseudo is Projector augmented-wave + core cor, Zval = 15.0
     Generated using "atomic" code by A. Dal Corso v.5.0.99 svn rev. 10869
     Shape of augmentation charge: PSQ
     Using radial grid of 1187 points,  6 beta functions with: 
                l(1) =   0
                l(2) =   0
                l(3) =   1
                l(4) =   1
                l(5) =   2
                l(6) =   2
     Q(r) pseudized with 0 coefficients 


     PseudoPot. # 2 for Au read from file:
     ./pseudo/Au.pbe-dn-kjpaw_psl.0.1.UPF
     MD5 check sum: 5c9b92683623e7ae2ab3f8e525febab6
     Pseudo is Projector augmented-wave + core cor, Zval = 11.0
     Generated using "atomic" code by A. Dal Corso v.5.0.2 svn rev. 9415
     Shape of augmentation charge: PSQ
     Using radial grid of 1279 points,  6 beta functions with: 
                l(1) =   0
                l(2) =   0
                l(3) =   1
                l(4) =   1
                l(5) =   2
                l(6) =   2
     Q(r) pseudized with 0 coefficients 


     atomic species   valence    mass     pseudopotential
        Mn            15.00    54.93800     Mn( 1.00)
        Au            11.00   196.96600     Au( 1.00)

     Starting magnetic structure 
     atomic species   magnetization
        Mn           0.000
        Au           0.000

     16 Sym. Ops., with inversion, found



   Cartesian axes

     site n.     atom                  positions (alat units)
         1           Mn  tau(   1) = (   0.0000000   0.0000000   0.0000000  )
         2           Mn  tau(   2) = (   0.0000000   0.3333300   0.0000000  )
         3           Mn  tau(   3) = (   0.0000000   0.6666700   0.0000000  )
         4           Mn  tau(   4) = (   0.3333300   0.0000000   0.0000000  )
         5           Mn  tau(   5) = (   0.3333300   0.3333300   0.0000000  )
         6           Mn  tau(   6) = (   0.3333300   0.6666700   0.0000000  )
         7           Mn  tau(   7) = (   0.6666700   0.0000000   0.0000000  )
         8           Mn  tau(   8) = (   0.6666700   0.3333300   0.0000000  )
         9           Mn  tau(   9) = (   0.6666700   0.6666700   0.0000000  )
        10           Mn  tau(  10) = (   0.1666700   0.1666700   0.4359871  )
        11           Mn  tau(  11) = (   0.1666700   0.5000000   0.4359871  )
        12           Mn  tau(  12) = (   0.1666700   0.8333300   0.4359871  )
        13           Mn  tau(  13) = (   0.5000000   0.1666700   0.4359871  )
        14           Mn  tau(  14) = (   0.5000000   0.5000000   0.4359871  )
        15           Mn  tau(  15) = (   0.5000000   0.8333300   0.4359871  )
        16           Mn  tau(  16) = (   0.8333300   0.1666700   0.4359871  )
        17           Mn  tau(  17) = (   0.8333300   0.5000000   0.4359871  )
        18           Mn  tau(  18) = (   0.8333300   0.8333300   0.4359871  )
        19           Au  tau(  19) = (   0.1666700   0.1666700   0.7327374  )
        20           Au  tau(  20) = (   0.1666700   0.5000000   0.7327374  )
        21           Au  tau(  21) = (   0.1666700   0.8333300   0.7327374  )
        22           Au  tau(  22) = (   0.5000000   0.1666700   0.7327374  )
        23           Au  tau(  23) = (   0.5000000   0.5000000   0.7327374  )
        24           Au  tau(  24) = (   0.5000000   0.8333300   0.7327374  )
        25           Au  tau(  25) = (   0.8333300   0.1666700   0.7327374  )
        26           Au  tau(  26) = (   0.8333300   0.5000000   0.7327374  )
        27           Au  tau(  27) = (   0.8333300   0.8333300   0.7327374  )
        28           Au  tau(  28) = (   0.1666700   0.1666700   0.1392369  )
        29           Au  tau(  29) = (   0.1666700   0.5000000   0.1392369  )
        30           Au  tau(  30) = (   0.1666700   0.8333300   0.1392369  )
        31           Au  tau(  31) = (   0.5000000   0.1666700   0.1392369  )
        32           Au  tau(  32) = (   0.5000000   0.5000000   0.1392369  )
        33           Au  tau(  33) = (   0.5000000   0.8333300   0.1392369  )
        34           Au  tau(  34) = (   0.8333300   0.1666700   0.1392369  )
        35           Au  tau(  35) = (   0.8333300   0.5000000   0.1392369  )
        36           Au  tau(  36) = (   0.8333300   0.8333300   0.1392369  )
        37           Au  tau(  37) = (   0.0000000   0.0000000   0.2967503  )
        38           Au  tau(  38) = (   0.0000000   0.3333300   0.2967503  )
        39           Au  tau(  39) = (   0.0000000   0.6666700   0.2967503  )
        40           Au  tau(  40) = (   0.3333300   0.0000000   0.2967503  )
        41           Au  tau(  41) = (   0.3333300   0.3333300   0.2967503  )
        42           Au  tau(  42) = (   0.3333300   0.6666700   0.2967503  )
        43           Au  tau(  43) = (   0.6666700   0.0000000   0.2967503  )
        44           Au  tau(  44) = (   0.6666700   0.3333300   0.2967503  )
        45           Au  tau(  45) = (   0.6666700   0.6666700   0.2967503  )
        46           Au  tau(  46) = (   0.0000000   0.0000000   0.5752240  )
        47           Au  tau(  47) = (   0.0000000   0.3333300   0.5752240  )
        48           Au  tau(  48) = (   0.0000000   0.6666700   0.5752240  )
        49           Au  tau(  49) = (   0.3333300   0.0000000   0.5752240  )
        50           Au  tau(  50) = (   0.3333300   0.3333300   0.5752240  )
        51           Au  tau(  51) = (   0.3333300   0.6666700   0.5752240  )
        52           Au  tau(  52) = (   0.6666700   0.0000000   0.5752240  )
        53           Au  tau(  53) = (   0.6666700   0.3333300   0.5752240  )
        54           Au  tau(  54) = (   0.6666700   0.6666700   0.5752240  )

     number of k points=     6 (tetrahedron method)
                       cart. coord. in units 2pi/alat
        k(    1) = (   0.0000000   0.0000000   0.0000000), wk =   0.1250000
        k(    2) = (   0.0000000   0.0000000  -0.5734114), wk =   0.1250000
        k(    3) = (   0.0000000  -0.5000000   0.0000000), wk =   0.2500000
        k(    4) = (   0.0000000  -0.5000000  -0.5734114), wk =   0.2500000
        k(    5) = (  -0.5000000  -0.5000000   0.0000000), wk =   0.1250000
        k(    6) = (  -0.5000000  -0.5000000  -0.5734114), wk =   0.1250000

     Dense  grid:   839803 G-vectors     FFT dimensions: ( 125, 125, 108)

     Smooth grid:   253559 G-vectors     FFT dimensions: (  90,  90,  72)

     Estimated max dynamical RAM per process >     324.94 MB

     Estimated total dynamical RAM >      10.15 GB
     Generating pointlists ...
     new r_m :   0.1129 (alat units)  2.1733 (a.u.) for type    1
     new r_m :   0.1129 (alat units)  2.1733 (a.u.) for type    2

     Check: negative/imaginary core charge=   -0.000006    0.000000

     Initial potential from superposition of free atoms

     starting charge  665.98709, renormalised to  666.00000
     Starting wfc are  504 randomized atomic wfcs
     Checking if some PAW data can be deallocated... 

     total cpu time spent up to now is       27.9 secs

     Self-consistent Calculation

     iteration #  1     ecut=    45.00 Ry     beta= 0.10
     Davidson diagonalization with overlap
     ethr =  1.00E-02,  avg # of iterations =  2.3

     total cpu time spent up to now is       94.8 secs

     total energy              =  -33047.79651344 Ry
     Harris-Foulkes estimate   =  -33065.73271434 Ry
     estimated scf accuracy    <      98.35682300 Ry

     total magnetization       =    -0.01 Bohr mag/cell
     absolute magnetization    =     0.20 Bohr mag/cell

     iteration #  2     ecut=    45.00 Ry     beta= 0.10
     Davidson diagonalization with overlap
     ethr =  1.00E-02,  avg # of iterations =  2.0

     total cpu time spent up to now is      156.3 secs

     total energy              =  -33059.75770281 Ry
     Harris-Foulkes estimate   =  -33062.38747126 Ry
     estimated scf accuracy    <      21.35070927 Ry

     total magnetization       =     0.03 Bohr mag/cell
     absolute magnetization    =     0.22 Bohr mag/cell

     iteration #  3     ecut=    45.00 Ry     beta= 0.10
     Davidson diagonalization with overlap
     ethr =  3.21E-03,  avg # of iterations =  1.8

     total cpu time spent up to now is      214.3 secs

     total energy              =  -33060.23407446 Ry
     Harris-Foulkes estimate   =  -33060.63399746 Ry
     estimated scf accuracy    <      12.34671933 Ry

     total magnetization       =     0.06 Bohr mag/cell
     absolute magnetization    =     0.24 Bohr mag/cell

     iteration #  4     ecut=    45.00 Ry     beta= 0.10
     Davidson diagonalization with overlap
     ethr =  1.85E-03,  avg # of iterations =  1.0

     total cpu time spent up to now is      264.6 secs

     total energy              =  -33059.30432156 Ry
     Harris-Foulkes estimate   =  -33060.59056535 Ry
     estimated scf accuracy    <      14.19111124 Ry

     total magnetization       =    -0.01 Bohr mag/cell
     absolute magnetization    =     0.24 Bohr mag/cell

     iteration #  5     ecut=    45.00 Ry     beta= 0.10
     Davidson diagonalization with overlap
     ethr =  1.85E-03,  avg # of iterations =  2.2

     total cpu time spent up to now is      329.3 secs

     total energy              =  -33060.04544525 Ry
     Harris-Foulkes estimate   =  -33060.89411857 Ry
     estimated scf accuracy    <      62.53489247 Ry

     total magnetization       =     0.03 Bohr mag/cell
     absolute magnetization    =     0.14 Bohr mag/cell

     iteration #  6     ecut=    45.00 Ry     beta= 0.10
     Davidson diagonalization with overlap
     ethr =  1.85E-03,  avg # of iterations =  1.2

     total cpu time spent up to now is      382.4 secs

     total energy              =  -33060.49250283 Ry
     Harris-Foulkes estimate   =  -33060.67245997 Ry
     estimated scf accuracy    <      16.58501107 Ry

     total magnetization       =    -0.01 Bohr mag/cell
     absolute magnetization    =     0.23 Bohr mag/cell

     iteration #  7     ecut=    45.00 Ry     beta= 0.10
     Davidson diagonalization with overlap
     ethr =  1.85E-03,  avg # of iterations =  1.0

     total cpu time spent up to now is      432.9 secs

     total energy              =  -33060.17691288 Ry
     Harris-Foulkes estimate   =  -33060.57021516 Ry
     estimated scf accuracy    <       7.97321142 Ry

     total magnetization       =     0.05 Bohr mag/cell
     absolute magnetization    =     0.39 Bohr mag/cell

     iteration #  8     ecut=    45.00 Ry     beta= 0.10
     Davidson diagonalization with overlap
     ethr =  1.20E-03,  avg # of iterations =  1.0

     total cpu time spent up to now is      483.1 secs

     total energy              =  -33060.11070894 Ry
     Harris-Foulkes estimate   =  -33060.25022144 Ry
     estimated scf accuracy    <       4.57552021 Ry

     total magnetization       =     0.06 Bohr mag/cell
     absolute magnetization    =     0.34 Bohr mag/cell

     iteration #  9     ecut=    45.00 Ry     beta= 0.10
     Davidson diagonalization with overlap
     ethr =  6.87E-04,  avg # of iterations =  1.0

     total cpu time spent up to now is      533.3 secs

     total energy              =  -33060.12274775 Ry
     Harris-Foulkes estimate   =  -33060.13730808 Ry
     estimated scf accuracy    <       2.16911675 Ry

     total magnetization       =     0.03 Bohr mag/cell
     absolute magnetization    =     0.41 Bohr mag/cell

     iteration # 10     ecut=    45.00 Ry     beta= 0.10
     Davidson diagonalization with overlap
     ethr =  3.26E-04,  avg # of iterations =  1.8

     total cpu time spent up to now is      591.2 secs

     total energy              =  -33059.98906708 Ry
     Harris-Foulkes estimate   =  -33060.12778841 Ry
     estimated scf accuracy    <       2.28765615 Ry

     total magnetization       =     0.05 Bohr mag/cell
     absolute magnetization    =     0.40 Bohr mag/cell

     iteration # 11     ecut=    45.00 Ry     beta= 0.10
     Davidson diagonalization with overlap
     ethr =  3.26E-04,  avg # of iterations =  1.5

     total cpu time spent up to now is      645.8 secs

     total energy              =  -33059.93152171 Ry
     Harris-Foulkes estimate   =  -33060.02235424 Ry
     estimated scf accuracy    <       0.75604859 Ry

     total magnetization       =     0.09 Bohr mag/cell
     absolute magnetization    =     0.69 Bohr mag/cell

     iteration # 12     ecut=    45.00 Ry     beta= 0.10
     Davidson diagonalization with overlap
     ethr =  1.14E-04,  avg # of iterations =  2.3

     total cpu time spent up to now is      709.0 secs

     total energy              =  -33059.97611228 Ry
     Harris-Foulkes estimate   =  -33059.98125995 Ry
     estimated scf accuracy    <       0.50687203 Ry

     total magnetization       =     0.21 Bohr mag/cell
     absolute magnetization    =     1.06 Bohr mag/cell

     iteration # 13     ecut=    45.00 Ry     beta= 0.10
     Davidson diagonalization with overlap
     ethr =  7.61E-05,  avg # of iterations =  1.0

     total cpu time spent up to now is      759.2 secs

     total energy              =  -33059.97982720 Ry
     Harris-Foulkes estimate   =  -33059.97981041 Ry
     estimated scf accuracy    <       0.03729921 Ry

     total magnetization       =     0.19 Bohr mag/cell
     absolute magnetization    =     1.38 Bohr mag/cell

     iteration # 14     ecut=    45.00 Ry     beta= 0.10
     Davidson diagonalization with overlap
     ethr =  5.60E-06,  avg # of iterations =  4.1

     total cpu time spent up to now is      838.9 secs

     total energy              =  -33059.98159136 Ry
     Harris-Foulkes estimate   =  -33059.98014114 Ry
     estimated scf accuracy    <       0.02449772 Ry

     total magnetization       =     0.35 Bohr mag/cell
     absolute magnetization    =     2.03 Bohr mag/cell

     iteration # 15     ecut=    45.00 Ry     beta= 0.10
     Davidson diagonalization with overlap
     ethr =  3.68E-06,  avg # of iterations =  1.3

     total cpu time spent up to now is      892.3 secs

     total energy              =  -33059.97850641 Ry
     Harris-Foulkes estimate   =  -33059.98570326 Ry
     estimated scf accuracy    <       0.60067486 Ry

     total magnetization       =     0.58 Bohr mag/cell
     absolute magnetization    =     3.20 Bohr mag/cell

     iteration # 16     ecut=    45.00 Ry     beta= 0.10
     Davidson diagonalization with overlap
     ethr =  3.68E-06,  avg # of iterations =  2.7

     total cpu time spent up to now is      958.1 secs

     total energy              =  -33059.98221494 Ry
     Harris-Foulkes estimate   =  -33059.98238017 Ry
     estimated scf accuracy    <       0.04980843 Ry

     total magnetization       =     0.49 Bohr mag/cell
     absolute magnetization    =     3.28 Bohr mag/cell

     iteration # 17     ecut=    45.00 Ry     beta= 0.10
     Davidson diagonalization with overlap
     ethr =  3.68E-06,  avg # of iterations =  1.0

     total cpu time spent up to now is     1008.4 secs

     total energy              =  -33059.98029200 Ry
     Harris-Foulkes estimate   =  -33059.98236267 Ry
     estimated scf accuracy    <       0.02293936 Ry

     total magnetization       =     0.58 Bohr mag/cell
     absolute magnetization    =     3.35 Bohr mag/cell

     iteration # 18     ecut=    45.00 Ry     beta= 0.10
     Davidson diagonalization with overlap
     ethr =  3.44E-06,  avg # of iterations =  1.0

     total cpu time spent up to now is     1058.6 secs

     total energy              =  -33059.97842883 Ry
     Harris-Foulkes estimate   =  -33059.98189703 Ry
     estimated scf accuracy    <       0.10509205 Ry

     total magnetization       =     0.38 Bohr mag/cell
     absolute magnetization    =     2.66 Bohr mag/cell

     iteration # 19     ecut=    45.00 Ry     beta= 0.10
     Davidson diagonalization with overlap
     ethr =  3.44E-06,  avg # of iterations =  1.0

     total cpu time spent up to now is     1108.9 secs

     total energy              =  -33059.97921573 Ry
     Harris-Foulkes estimate   =  -33059.98028842 Ry
     estimated scf accuracy    <       0.01479445 Ry

     total magnetization       =     0.20 Bohr mag/cell
     absolute magnetization    =     1.74 Bohr mag/cell

     iteration # 20     ecut=    45.00 Ry     beta= 0.10
     Davidson diagonalization with overlap
     ethr =  2.22E-06,  avg # of iterations =  1.0

     total cpu time spent up to now is     1159.0 secs

     total energy              =  -33059.97716410 Ry
     Harris-Foulkes estimate   =  -33059.98118465 Ry
     estimated scf accuracy    <       0.24871405 Ry

     total magnetization       =     0.11 Bohr mag/cell
     absolute magnetization    =     1.76 Bohr mag/cell

     iteration # 21     ecut=    45.00 Ry     beta= 0.10
     Davidson diagonalization with overlap
     ethr =  2.22E-06,  avg # of iterations =  1.0

     total cpu time spent up to now is     1209.1 secs

     total energy              =  -33059.98028030 Ry
     Harris-Foulkes estimate   =  -33059.97973771 Ry
     estimated scf accuracy    <       0.00862488 Ry

     total magnetization       =    -0.11 Bohr mag/cell
     absolute magnetization    =     1.59 Bohr mag/cell

     iteration # 22     ecut=    45.00 Ry     beta= 0.10
     Davidson diagonalization with overlap
     ethr =  1.30E-06,  avg # of iterations =  1.0

     total cpu time spent up to now is     1259.5 secs

     total energy              =  -33059.98037185 Ry
     Harris-Foulkes estimate   =  -33059.98020595 Ry
     estimated scf accuracy    <       0.00989589 Ry

     total magnetization       =    -0.25 Bohr mag/cell
     absolute magnetization    =     2.23 Bohr mag/cell

     iteration # 23     ecut=    45.00 Ry     beta= 0.10
     Davidson diagonalization with overlap
     ethr =  1.30E-06,  avg # of iterations =  1.0

     total cpu time spent up to now is     1309.8 secs

     total energy              =  -33059.97736755 Ry
     Harris-Foulkes estimate   =  -33059.98032904 Ry
     estimated scf accuracy    <       0.00667454 Ry

     total magnetization       =    -0.29 Bohr mag/cell
     absolute magnetization    =     2.36 Bohr mag/cell

     iteration # 24     ecut=    45.00 Ry     beta= 0.10
     Davidson diagonalization with overlap
