
     Program PWSCF v.6.3MaX starts on 26Mar2019 at 13:20:46 

     This program is part of the open-source Quantum ESPRESSO suite
     for quantum simulation of materials; please cite
         "P. Giannozzi et al., J. Phys.:Condens. Matter 21 395502 (2009);
         "P. Giannozzi et al., J. Phys.:Condens. Matter 29 465901 (2017);
          URL http://www.quantum-espresso.org", 
     in publications or presentations arising from this work. More details at
     http://www.quantum-espresso.org/quote

     Parallel version (MPI), running on    16 processors

     MPI processes distributed on     1 nodes
     R & G space division:  proc/nbgrp/npool/nimage =      16
     Waiting for input...
     Reading input from standard input

     Current dimensions of program PWSCF are:
     Max number of different atomic species (ntypx) = 10
     Max number of k-points (npk) =  40000
     Max angular momentum in pseudopotentials (lmaxx) =  3
     Message from routine read_upf::
     Pseudo file ./pseudo/Mn.pbe-spn-kjpaw_psl.0.3.1.UPF has been successfully fixed on the fly.
To avoid this message in the future you can permanently fix 
 your pseudo files following instructions given in: 
https://gitlab.com/QEF/q-e/blob/master/upftools/how_to_fix_upf.md
               file Mn.pbe-spn-kjpaw_psl.0.3.1.UPF: wavefunction(s)  3P 3D renormalized
     Message from routine read_upf::
     Pseudo file ./pseudo/Mn.pbe-spn-kjpaw_psl.0.3.1.UPF has been successfully fixed on the fly.
To avoid this message in the future you can permanently fix 
 your pseudo files following instructions given in: 
https://gitlab.com/QEF/q-e/blob/master/upftools/how_to_fix_upf.md
               file Mn.pbe-spn-kjpaw_psl.0.3.1.UPF: wavefunction(s)  3P 3D renormalized
     Message from routine read_upf::
     Pseudo file ./pseudo/Au.pbe-dn-kjpaw_psl.0.1.UPF has been successfully fixed on the fly.
To avoid this message in the future you can permanently fix 
 your pseudo files following instructions given in: 
https://gitlab.com/QEF/q-e/blob/master/upftools/how_to_fix_upf.md
               file Au.pbe-dn-kjpaw_psl.0.1.UPF: wavefunction(s)  6S 6P 5D renormalized

     Subspace diagonalization in iterative solution of the eigenvalue problem:
     one sub-group per band group will be used
     scalapack distributed-memory algorithm (size of sub-group:  2*  2 procs)

     Found symmetry operation: I + (  0.5000 -0.5000  0.0000)
     This is a supercell, fractional translations are disabled
 
     Parallelization info
     --------------------
     sticks:   dense  smooth     PW     G-vecs:    dense   smooth      PW
     Min         646     290     84                22663     6843    1075
     Max         647     291     85                22664     6844    1077
     Sum       10349    4645   1353               362619   109493   17211
 


     bravais-lattice index     =            0
     lattice parameter (alat)  =      18.0125  a.u.
     unit-cell volume          =    2685.0513 (a.u.)^3
     number of atoms/cell      =           24
     number of atomic types    =            3
     number of electrons       =       296.00
     number of Kohn-Sham states=          178
     kinetic-energy cutoff     =      45.0000  Ry
     charge density cutoff     =     400.0000  Ry
     convergence threshold     =      1.0E-06
     mixing beta               =       0.1000
     number of iterations used =            8  plain     mixing
     Exchange-correlation      = SLA PW PBX PBC ( 1  4  3  4 0 0)

     celldm(1)=  18.012490  celldm(2)=   0.000000  celldm(3)=   0.000000
     celldm(4)=   0.000000  celldm(5)=   0.000000  celldm(6)=   0.000000

     crystal axes: (cart. coord. in units of alat)
               a(1) = (   0.707107  -0.707107   0.000000 )  
               a(2) = (  -0.707107  -0.707107   0.000000 )  
               a(3) = (   0.176777   0.176777  -0.459443 )  

     reciprocal axes: (cart. coord. in units 2 pi/alat)
               b(1) = (  0.707107 -0.707107  0.000000 )  
               b(2) = ( -0.707107 -0.707107 -0.544138 )  
               b(3) = (  0.000000  0.000000 -2.176550 )  


     PseudoPot. # 1 for Mn read from file:
     ./pseudo/Mn.pbe-spn-kjpaw_psl.0.3.1.UPF
     MD5 check sum: 7eef95dd2aae66803482eea66ebeebf1
     Pseudo is Projector augmented-wave + core cor, Zval = 15.0
     Generated using "atomic" code by A. Dal Corso v.5.0.99 svn rev. 10869
     Shape of augmentation charge: PSQ
     Using radial grid of 1187 points,  6 beta functions with: 
                l(1) =   0
                l(2) =   0
                l(3) =   1
                l(4) =   1
                l(5) =   2
                l(6) =   2
     Q(r) pseudized with 0 coefficients 


     PseudoPot. # 2 for Mn read from file:
     ./pseudo/Mn.pbe-spn-kjpaw_psl.0.3.1.UPF
     MD5 check sum: 7eef95dd2aae66803482eea66ebeebf1
     Pseudo is Projector augmented-wave + core cor, Zval = 15.0
     Generated using "atomic" code by A. Dal Corso v.5.0.99 svn rev. 10869
     Shape of augmentation charge: PSQ
     Using radial grid of 1187 points,  6 beta functions with: 
                l(1) =   0
                l(2) =   0
                l(3) =   1
                l(4) =   1
                l(5) =   2
                l(6) =   2
     Q(r) pseudized with 0 coefficients 


     PseudoPot. # 3 for Au read from file:
     ./pseudo/Au.pbe-dn-kjpaw_psl.0.1.UPF
     MD5 check sum: 5c9b92683623e7ae2ab3f8e525febab6
     Pseudo is Projector augmented-wave + core cor, Zval = 11.0
     Generated using "atomic" code by A. Dal Corso v.5.0.2 svn rev. 9415
     Shape of augmentation charge: PSQ
     Using radial grid of 1279 points,  6 beta functions with: 
                l(1) =   0
                l(2) =   0
                l(3) =   1
                l(4) =   1
                l(5) =   2
                l(6) =   2
     Q(r) pseudized with 0 coefficients 


     atomic species   valence    mass     pseudopotential
        Mn1           15.00    54.93800     Mn( 1.00)
        Mn2           15.00    54.93800     Mn( 1.00)
        Au            11.00   196.96600     Au( 1.00)

     Starting magnetic structure 
     atomic species   magnetization
        Mn1          1.000
        Mn2         -1.000
        Au           0.000


     Full LDA+U calculation (l_max = 2) with parameters (eV):
     U(  1) =   3.1200   J(  1) =   0.7000   B(  1) =   0.0803
     U(  2) =   3.1200   J(  2) =   0.7000   B(  2) =   0.0803



      4 Sym. Ops., with inversion, found



   Cartesian axes

     site n.     atom                  positions (alat units)
         1           Mn1 tau(   1) = (   0.3535534  -0.3535534   0.0000000  )
         2           Mn2 tau(   2) = (   0.0000000   0.0000000   0.0000000  )
         3           Mn1 tau(   3) = (   0.0000000  -0.3535534   0.0000000  )
         4           Mn1 tau(   4) = (   0.3535534  -0.7071068   0.0000000  )
         5           Mn1 tau(   5) = (  -0.3535534  -0.3535534   0.0000000  )
         6           Mn2 tau(   6) = (   0.0000000  -0.7071068   0.0000000  )
         7           Mn1 tau(   7) = (  -0.3535534  -0.7071068   0.0000000  )
         8           Mn1 tau(   8) = (   0.0000000  -1.0606602   0.0000000  )
         9           Au  tau(   9) = (  -0.1767767  -0.1767767  -0.1470216  )
        10           Au  tau(  10) = (   0.1767767  -0.5303301  -0.1470216  )
        11           Au  tau(  11) = (  -0.1767767  -0.5303301  -0.1470216  )
        12           Au  tau(  12) = (   0.1767767  -0.8838835  -0.1470216  )
        13           Au  tau(  13) = (  -0.5303301  -0.5303301  -0.1470216  )
        14           Au  tau(  14) = (  -0.1767767  -0.8838835  -0.1470216  )
        15           Au  tau(  15) = (   0.5303301  -0.5303301  -0.1470216  )
        16           Au  tau(  16) = (   0.1767767  -0.1767767  -0.1470216  )
        17           Au  tau(  17) = (   0.3535534  -0.3535534  -0.3124210  )
        18           Au  tau(  18) = (   0.0000000   0.0000000  -0.3124210  )
        19           Au  tau(  19) = (   0.0000000  -0.3535534  -0.3124210  )
        20           Au  tau(  20) = (   0.3535534  -0.7071068  -0.3124210  )
        21           Au  tau(  21) = (  -0.3535534  -0.3535534  -0.3124210  )
        22           Au  tau(  22) = (  -0.0000000  -0.7071068  -0.3124210  )
        23           Au  tau(  23) = (  -0.3535534  -0.7071068  -0.3124210  )
        24           Au  tau(  24) = (   0.0000000  -1.0606602  -0.3124210  )

     number of k points=    30 (tetrahedron method)
                       cart. coord. in units 2pi/alat
        k(    1) = (   0.0000000   0.0000000   0.0000000), wk =   0.0156250
        k(    2) = (   0.0000000   0.0000000  -0.5441376), wk =   0.0312500
        k(    3) = (   0.0000000   0.0000000   1.0882752), wk =   0.0156250
        k(    4) = (  -0.1767767  -0.1767767  -0.1360344), wk =   0.0312500
        k(    5) = (  -0.1767767  -0.1767767  -0.6801720), wk =   0.0312500
        k(    6) = (  -0.1767767  -0.1767767   0.9522408), wk =   0.0312500
        k(    7) = (  -0.1767767  -0.1767767   0.4081032), wk =   0.0312500
        k(    8) = (   0.3535534   0.3535534   0.2720688), wk =   0.0156250
        k(    9) = (   0.3535534   0.3535534  -0.2720688), wk =   0.0312500
        k(   10) = (   0.3535534   0.3535534   1.3603439), wk =   0.0156250
        k(   11) = (   0.1767767  -0.1767767   0.0000000), wk =   0.0312500
        k(   12) = (   0.1767767  -0.1767767  -0.5441376), wk =   0.0625000
        k(   13) = (   0.1767767  -0.1767767   1.0882752), wk =   0.0312500
        k(   14) = (   0.0000000  -0.3535534  -0.1360344), wk =   0.0625000
        k(   15) = (   0.0000000  -0.3535534  -0.6801720), wk =   0.0625000
        k(   16) = (   0.0000000  -0.3535534   0.9522408), wk =   0.0625000
        k(   17) = (   0.0000000  -0.3535534   0.4081032), wk =   0.0625000
        k(   18) = (   0.5303301   0.1767767   0.2720688), wk =   0.0312500
        k(   19) = (   0.5303301   0.1767767  -0.2720688), wk =   0.0625000
        k(   20) = (   0.5303301   0.1767767   1.3603439), wk =   0.0312500
        k(   21) = (  -0.3535534   0.3535534   0.0000000), wk =   0.0156250
        k(   22) = (  -0.3535534   0.3535534  -0.5441376), wk =   0.0312500
        k(   23) = (  -0.3535534   0.3535534   1.0882752), wk =   0.0156250
        k(   24) = (  -0.5303301   0.1767767  -0.1360344), wk =   0.0312500
        k(   25) = (  -0.5303301   0.1767767  -0.6801720), wk =   0.0312500
        k(   26) = (  -0.5303301   0.1767767   0.9522408), wk =   0.0312500
        k(   27) = (  -0.5303301   0.1767767   0.4081032), wk =   0.0312500
        k(   28) = (   0.0000000   0.7071068   0.2720688), wk =   0.0156250
        k(   29) = (   0.0000000   0.7071068  -0.2720688), wk =   0.0312500
        k(   30) = (   0.0000000   0.7071068   1.3603439), wk =   0.0156250

     Dense  grid:   362619 G-vectors     FFT dimensions: ( 120, 120,  60)

     Smooth grid:   109493 G-vectors     FFT dimensions: (  80,  80,  45)

     Estimated max dynamical RAM per process >     286.87 MB

     Estimated total dynamical RAM >       4.48 GB
     Generating pointlists ...
     new r_m :   0.1196 (alat units)  2.1549 (a.u.) for type    1
     new r_m :   0.1196 (alat units)  2.1549 (a.u.) for type    2
     new r_m :   0.1196 (alat units)  2.1549 (a.u.) for type    3

     Check: negative/imaginary core charge=   -0.000006    0.000000

     Initial potential from superposition of free atoms

     starting charge  295.99426, renormalised to  296.00000
     Number of +U iterations with fixed ns =  0
     Starting occupations:
 --- enter write_ns ---
 LDA+U parameters:
U(  1) =   3.1200   J(  1) =   0.7000   B(  1) =   0.0803
U(  2) =   3.1200   J(  2) =   0.7000   B(  2) =   0.0803
atom    1   Tr[ns(na)] (up, down, total) =   5.00000  0.00000  5.00000
   spin  1
    eigenvalues: 
  1.000  1.000  1.000  1.000  1.000
    eigenvectors:
  1.000  0.000  0.000  0.000  0.000
  0.000  1.000  0.000  0.000  0.000
  0.000  0.000  1.000  0.000  0.000
  0.000  0.000  0.000  1.000  0.000
  0.000  0.000  0.000  0.000  1.000
    occupations:
  1.000  0.000  0.000  0.000  0.000
  0.000  1.000  0.000  0.000  0.000
  0.000  0.000  1.000  0.000  0.000
  0.000  0.000  0.000  1.000  0.000
  0.000  0.000  0.000  0.000  1.000
   spin  2
    eigenvalues: 
  0.000  0.000  0.000  0.000  0.000
    eigenvectors:
  1.000  0.000  0.000  0.000  0.000
  0.000  1.000  0.000  0.000  0.000
  0.000  0.000  1.000  0.000  0.000
  0.000  0.000  0.000  1.000  0.000
  0.000  0.000  0.000  0.000  1.000
    occupations:
  0.000  0.000  0.000  0.000  0.000
  0.000  0.000  0.000  0.000  0.000
  0.000  0.000  0.000  0.000  0.000
  0.000  0.000  0.000  0.000  0.000
  0.000  0.000  0.000  0.000  0.000
atomic mag. moment =     5.000000
atom    2   Tr[ns(na)] (up, down, total) =   0.00000  5.00000  5.00000
   spin  1
    eigenvalues: 
  0.000  0.000  0.000  0.000  0.000
    eigenvectors:
  1.000  0.000  0.000  0.000  0.000
  0.000  1.000  0.000  0.000  0.000
  0.000  0.000  1.000  0.000  0.000
  0.000  0.000  0.000  1.000  0.000
  0.000  0.000  0.000  0.000  1.000
    occupations:
  0.000  0.000  0.000  0.000  0.000
  0.000  0.000  0.000  0.000  0.000
  0.000  0.000  0.000  0.000  0.000
  0.000  0.000  0.000  0.000  0.000
  0.000  0.000  0.000  0.000  0.000
   spin  2
    eigenvalues: 
  1.000  1.000  1.000  1.000  1.000
    eigenvectors:
  1.000  0.000  0.000  0.000  0.000
  0.000  1.000  0.000  0.000  0.000
  0.000  0.000  1.000  0.000  0.000
  0.000  0.000  0.000  1.000  0.000
  0.000  0.000  0.000  0.000  1.000
    occupations:
  1.000  0.000  0.000  0.000  0.000
  0.000  1.000  0.000  0.000  0.000
  0.000  0.000  1.000  0.000  0.000
  0.000  0.000  0.000  1.000  0.000
  0.000  0.000  0.000  0.000  1.000
atomic mag. moment =    -5.000000
atom    3   Tr[ns(na)] (up, down, total) =   5.00000  0.00000  5.00000
   spin  1
    eigenvalues: 
  1.000  1.000  1.000  1.000  1.000
    eigenvectors:
  1.000  0.000  0.000  0.000  0.000
  0.000  1.000  0.000  0.000  0.000
  0.000  0.000  1.000  0.000  0.000
  0.000  0.000  0.000  1.000  0.000
  0.000  0.000  0.000  0.000  1.000
    occupations:
  1.000  0.000  0.000  0.000  0.000
  0.000  1.000  0.000  0.000  0.000
  0.000  0.000  1.000  0.000  0.000
  0.000  0.000  0.000  1.000  0.000
  0.000  0.000  0.000  0.000  1.000
   spin  2
    eigenvalues: 
  0.000  0.000  0.000  0.000  0.000
    eigenvectors:
  1.000  0.000  0.000  0.000  0.000
  0.000  1.000  0.000  0.000  0.000
  0.000  0.000  1.000  0.000  0.000
  0.000  0.000  0.000  1.000  0.000
  0.000  0.000  0.000  0.000  1.000
    occupations:
  0.000  0.000  0.000  0.000  0.000
  0.000  0.000  0.000  0.000  0.000
  0.000  0.000  0.000  0.000  0.000
  0.000  0.000  0.000  0.000  0.000
  0.000  0.000  0.000  0.000  0.000
atomic mag. moment =     5.000000
atom    4   Tr[ns(na)] (up, down, total) =   5.00000  0.00000  5.00000
   spin  1
    eigenvalues: 
  1.000  1.000  1.000  1.000  1.000
    eigenvectors:
  1.000  0.000  0.000  0.000  0.000
  0.000  1.000  0.000  0.000  0.000
  0.000  0.000  1.000  0.000  0.000
  0.000  0.000  0.000  1.000  0.000
  0.000  0.000  0.000  0.000  1.000
    occupations:
  1.000  0.000  0.000  0.000  0.000
  0.000  1.000  0.000  0.000  0.000
  0.000  0.000  1.000  0.000  0.000
  0.000  0.000  0.000  1.000  0.000
  0.000  0.000  0.000  0.000  1.000
   spin  2
    eigenvalues: 
  0.000  0.000  0.000  0.000  0.000
    eigenvectors:
  1.000  0.000  0.000  0.000  0.000
  0.000  1.000  0.000  0.000  0.000
  0.000  0.000  1.000  0.000  0.000
  0.000  0.000  0.000  1.000  0.000
  0.000  0.000  0.000  0.000  1.000
    occupations:
  0.000  0.000  0.000  0.000  0.000
  0.000  0.000  0.000  0.000  0.000
  0.000  0.000  0.000  0.000  0.000
  0.000  0.000  0.000  0.000  0.000
  0.000  0.000  0.000  0.000  0.000
atomic mag. moment =     5.000000
atom    5   Tr[ns(na)] (up, down, total) =   5.00000  0.00000  5.00000
   spin  1
    eigenvalues: 
  1.000  1.000  1.000  1.000  1.000
    eigenvectors:
  1.000  0.000  0.000  0.000  0.000
  0.000  1.000  0.000  0.000  0.000
  0.000  0.000  1.000  0.000  0.000
  0.000  0.000  0.000  1.000  0.000
  0.000  0.000  0.000  0.000  1.000
    occupations:
  1.000  0.000  0.000  0.000  0.000
  0.000  1.000  0.000  0.000  0.000
  0.000  0.000  1.000  0.000  0.000
  0.000  0.000  0.000  1.000  0.000
  0.000  0.000  0.000  0.000  1.000
   spin  2
    eigenvalues: 
  0.000  0.000  0.000  0.000  0.000
    eigenvectors:
  1.000  0.000  0.000  0.000  0.000
  0.000  1.000  0.000  0.000  0.000
  0.000  0.000  1.000  0.000  0.000
  0.000  0.000  0.000  1.000  0.000
  0.000  0.000  0.000  0.000  1.000
    occupations:
  0.000  0.000  0.000  0.000  0.000
  0.000  0.000  0.000  0.000  0.000
  0.000  0.000  0.000  0.000  0.000
  0.000  0.000  0.000  0.000  0.000
  0.000  0.000  0.000  0.000  0.000
atomic mag. moment =     5.000000
atom    6   Tr[ns(na)] (up, down, total) =   0.00000  5.00000  5.00000
   spin  1
    eigenvalues: 
  0.000  0.000  0.000  0.000  0.000
    eigenvectors:
  1.000  0.000  0.000  0.000  0.000
  0.000  1.000  0.000  0.000  0.000
  0.000  0.000  1.000  0.000  0.000
  0.000  0.000  0.000  1.000  0.000
  0.000  0.000  0.000  0.000  1.000
    occupations:
  0.000  0.000  0.000  0.000  0.000
  0.000  0.000  0.000  0.000  0.000
  0.000  0.000  0.000  0.000  0.000
  0.000  0.000  0.000  0.000  0.000
  0.000  0.000  0.000  0.000  0.000
   spin  2
    eigenvalues: 
  1.000  1.000  1.000  1.000  1.000
    eigenvectors:
  1.000  0.000  0.000  0.000  0.000
  0.000  1.000  0.000  0.000  0.000
  0.000  0.000  1.000  0.000  0.000
  0.000  0.000  0.000  1.000  0.000
  0.000  0.000  0.000  0.000  1.000
    occupations:
  1.000  0.000  0.000  0.000  0.000
  0.000  1.000  0.000  0.000  0.000
  0.000  0.000  1.000  0.000  0.000
  0.000  0.000  0.000  1.000  0.000
  0.000  0.000  0.000  0.000  1.000
atomic mag. moment =    -5.000000
atom    7   Tr[ns(na)] (up, down, total) =   5.00000  0.00000  5.00000
   spin  1
    eigenvalues: 
  1.000  1.000  1.000  1.000  1.000
    eigenvectors:
  1.000  0.000  0.000  0.000  0.000
  0.000  1.000  0.000  0.000  0.000
  0.000  0.000  1.000  0.000  0.000
  0.000  0.000  0.000  1.000  0.000
  0.000  0.000  0.000  0.000  1.000
    occupations:
  1.000  0.000  0.000  0.000  0.000
  0.000  1.000  0.000  0.000  0.000
  0.000  0.000  1.000  0.000  0.000
  0.000  0.000  0.000  1.000  0.000
  0.000  0.000  0.000  0.000  1.000
   spin  2
    eigenvalues: 
  0.000  0.000  0.000  0.000  0.000
    eigenvectors:
  1.000  0.000  0.000  0.000  0.000
  0.000  1.000  0.000  0.000  0.000
  0.000  0.000  1.000  0.000  0.000
  0.000  0.000  0.000  1.000  0.000
  0.000  0.000  0.000  0.000  1.000
    occupations:
  0.000  0.000  0.000  0.000  0.000
  0.000  0.000  0.000  0.000  0.000
  0.000  0.000  0.000  0.000  0.000
  0.000  0.000  0.000  0.000  0.000
  0.000  0.000  0.000  0.000  0.000
atomic mag. moment =     5.000000
atom    8   Tr[ns(na)] (up, down, total) =   5.00000  0.00000  5.00000
   spin  1
    eigenvalues: 
  1.000  1.000  1.000  1.000  1.000
    eigenvectors:
  1.000  0.000  0.000  0.000  0.000
  0.000  1.000  0.000  0.000  0.000
  0.000  0.000  1.000  0.000  0.000
  0.000  0.000  0.000  1.000  0.000
  0.000  0.000  0.000  0.000  1.000
    occupations:
  1.000  0.000  0.000  0.000  0.000
  0.000  1.000  0.000  0.000  0.000
  0.000  0.000  1.000  0.000  0.000
  0.000  0.000  0.000  1.000  0.000
  0.000  0.000  0.000  0.000  1.000
   spin  2
    eigenvalues: 
  0.000  0.000  0.000  0.000  0.000
    eigenvectors:
  1.000  0.000  0.000  0.000  0.000
  0.000  1.000  0.000  0.000  0.000
  0.000  0.000  1.000  0.000  0.000
  0.000  0.000  0.000  1.000  0.000
  0.000  0.000  0.000  0.000  1.000
    occupations:
  0.000  0.000  0.000  0.000  0.000
  0.000  0.000  0.000  0.000  0.000
  0.000  0.000  0.000  0.000  0.000
  0.000  0.000  0.000  0.000  0.000
  0.000  0.000  0.000  0.000  0.000
atomic mag. moment =     5.000000
N of occupied +U levels =   40.000000
 --- exit write_ns ---
 Atomic wfc used for LDA+U Projector are NOT orthogonalized
     Starting wfcs are  224 randomized atomic wfcs
     Checking if some PAW data can be deallocated... 

     total cpu time spent up to now is       24.6 secs

     Self-consistent Calculation

     iteration #  1     ecut=    45.00 Ry     beta= 0.10
     Davidson diagonalization with overlap
     ethr =  1.00E-02,  avg # of iterations =  4.3
 --- enter write_ns ---
 LDA+U parameters:
U(  1) =   3.1200   J(  1) =   0.7000   B(  1) =   0.0803
U(  2) =   3.1200   J(  2) =   0.7000   B(  2) =   0.0803
atom    1   Tr[ns(na)] (up, down, total) =   5.01495  0.27233  5.28728
   spin  1
    eigenvalues: 
  1.003  1.003  1.003  1.003  1.004
    eigenvectors:
  0.001  0.000  0.000  0.999  0.000
  0.003  0.500  0.497  0.000  0.000
  0.003  0.500  0.497  0.000  0.000
  0.000  0.000  0.000  0.000  1.000
  0.993  0.000  0.007  0.000  0.000
    occupations:
  1.003 -0.000 -0.000 -0.000  0.000
 -0.000  1.003  0.000  0.000  0.000
 -0.000  0.000  1.003 -0.000  0.000
 -0.000  0.000 -0.000  1.004 -0.000
  0.000  0.000  0.000 -0.000  1.003
   spin  2
    eigenvalues: 
  0.039  0.051  0.055  0.056  0.071
    eigenvectors:
  0.000  0.969  0.000  0.030  0.001
  0.000  0.014  0.500  0.483  0.003
  0.000  0.014  0.500  0.483  0.003
  0.999  0.000  0.001  0.000  0.000
  0.000  0.002  0.000  0.004  0.994
    occupations:
  0.052  0.000  0.000 -0.000 -0.001
  0.000  0.055  0.000  0.000  0.001
  0.000  0.000  0.055 -0.000  0.001
 -0.000  0.000 -0.000  0.039 -0.000
 -0.001  0.001  0.001 -0.000  0.071
atomic mag. moment =     4.742625
atom    2   Tr[ns(na)] (up, down, total) =   0.27859  5.01468  5.29327
   spin  1
    eigenvalues: 
  0.043  0.054  0.055  0.055  0.071
    eigenvectors:
  0.000  0.729  0.000  0.271  0.000
  0.000  0.134  0.500  0.363  0.003
  0.000  0.134  0.500  0.363  0.003
  1.000  0.000  0.000  0.000  0.000
  0.000  0.002  0.000  0.003  0.995
    occupations:
  0.055  0.000  0.000 -0.000 -0.000
  0.000  0.055  0.000 -0.000  0.001
  0.000  0.000  0.055  0.000  0.001
 -0.000 -0.000  0.000  0.043 -0.000
 -0.000  0.001  0.001 -0.000  0.071
   spin  2
    eigenvalues: 
  1.003  1.003  1.003  1.003  1.003
    eigenvectors:
  0.001  0.000  0.000  0.999  0.000
  0.000  0.500  0.500  0.000  0.000
  0.000  0.500  0.500  0.000  0.000
  0.000  0.000  0.000  0.000  1.000
  0.999  0.000  0.000  0.001  0.000
    occupations:
  1.003  0.000  0.000 -0.000 -0.000
  0.000  1.003 -0.000 -0.000  0.000
  0.000 -0.000  1.003  0.000  0.000
 -0.000 -0.000  0.000  1.003 -0.000
 -0.000  0.000  0.000 -0.000  1.003
atomic mag. moment =    -4.736093
atom    3   Tr[ns(na)] (up, down, total) =   5.01474  0.27414  5.28887
   spin  1
    eigenvalues: 
  1.003  1.003  1.003  1.003  1.003
    eigenvectors:
  0.000  0.000  0.000  0.986  0.014
  0.000  0.004  0.996  0.000  0.000
  0.000  0.996  0.004  0.000  0.000
  0.000  0.000  0.000  0.014  0.986
  1.000  0.000  0.000  0.000  0.000
    occupations:
  1.003 -0.000  0.000 -0.000 -0.000
 -0.000  1.003  0.000 -0.000  0.000
  0.000  0.000  1.003 -0.000 -0.000
 -0.000 -0.000 -0.000  1.003  0.000
 -0.000  0.000 -0.000  0.000  1.003
   spin  2
    eigenvalues: 
  0.041  0.051  0.054  0.055  0.073
    eigenvectors:
  0.038  0.826  0.034  0.102  0.000
  0.000  0.038  0.960  0.000  0.002
  0.000  0.101  0.003  0.895  0.000
  0.962  0.035  0.001  0.003  0.000
  0.000  0.000  0.002  0.000  0.998
    occupations:
  0.051 -0.001  0.001  0.002 -0.000
 -0.001  0.054  0.000 -0.000  0.001
  0.001  0.000  0.055  0.000  0.000
  0.002 -0.000  0.000  0.041 -0.000
 -0.000  0.001  0.000 -0.000  0.073
atomic mag. moment =     4.740602
atom    4   Tr[ns(na)] (up, down, total) =   5.01474  0.27414  5.28887
   spin  1
    eigenvalues: 
  1.003  1.003  1.003  1.003  1.003
    eigenvectors:
  0.000  0.000  0.000  0.986  0.014
  0.000  0.996  0.004  0.000  0.000
  0.000  0.004  0.996  0.000  0.000
  0.000  0.000  0.000  0.014  0.986
  1.000  0.000  0.000  0.000  0.000
    occupations:
  1.003  0.000 -0.000  0.000 -0.000
  0.000  1.003  0.000  0.000 -0.000
 -0.000  0.000  1.003  0.000  0.000
  0.000  0.000  0.000  1.003 -0.000
 -0.000 -0.000  0.000 -0.000  1.003
   spin  2
    eigenvalues: 
  0.041  0.051  0.054  0.055  0.073
    eigenvectors:
  0.038  0.826  0.034  0.102  0.000
  0.000  0.101  0.003  0.895  0.000
  0.000  0.038  0.960  0.000  0.002
  0.962  0.035  0.001  0.003  0.000
  0.000  0.000  0.002  0.000  0.998
    occupations:
  0.051  0.001 -0.001 -0.002 -0.000
  0.001  0.055  0.000 -0.000  0.000
 -0.001  0.000  0.054  0.000  0.001
 -0.002 -0.000  0.000  0.041  0.000
 -0.000  0.000  0.001  0.000  0.073
atomic mag. moment =     4.740602
atom    5   Tr[ns(na)] (up, down, total) =   5.01498  0.27315  5.28814
   spin  1
    eigenvalues: 
  1.003  1.003  1.003  1.003  1.004
    eigenvectors:
  0.000  0.000  0.001  0.999  0.000
  0.002  0.500  0.498  0.000  0.000
  0.002  0.500  0.498  0.000  0.000
  0.000  0.000  0.000  0.000  1.000
  0.997  0.000  0.003  0.000  0.000
    occupations:
  1.003  0.000  0.000 -0.000  0.000
  0.000  1.003  0.000  0.000  0.000
  0.000  0.000  1.003 -0.000  0.000
 -0.000  0.000 -0.000  1.004 -0.000
  0.000  0.000  0.000 -0.000  1.003
   spin  2
    eigenvalues: 
  0.039  0.052  0.056  0.056  0.071
    eigenvectors:
  0.000  0.965  0.000  0.034  0.001
  0.000  0.016  0.500  0.481  0.002
  0.000  0.016  0.500  0.481  0.002
  0.999  0.000  0.001  0.000  0.000
  0.000  0.002  0.000  0.004  0.994
    occupations:
  0.052  0.001  0.001 -0.000 -0.001
  0.001  0.056  0.000  0.000  0.001
  0.001  0.000  0.056 -0.000  0.001
 -0.000  0.000 -0.000  0.039 -0.000
 -0.001  0.001  0.001 -0.000  0.071
atomic mag. moment =     4.741831
atom    6   Tr[ns(na)] (up, down, total) =   0.27874  5.01482  5.29356
   spin  1
    eigenvalues: 
  0.043  0.055  0.055  0.055  0.071
    eigenvectors:
  0.000  0.884  0.000  0.116  0.000
  0.000  0.058  0.500  0.439  0.003
  0.000  0.058  0.500  0.439  0.003
  1.000  0.000  0.000  0.000  0.000
  0.000  0.001  0.000  0.005  0.994
    occupations:
  0.055  0.000  0.000 -0.000 -0.000
  0.000  0.055  0.000 -0.000  0.001
  0.000  0.000  0.055  0.000  0.001
 -0.000 -0.000  0.000  0.043 -0.000
 -0.000  0.001  0.001 -0.000  0.071
   spin  2
    eigenvalues: 
  1.003  1.003  1.003  1.003  1.003
    eigenvectors:
  0.000  0.000  0.002  0.998  0.000
  0.002  0.500  0.497  0.001  0.000
  0.002  0.500  0.497  0.001  0.000
  0.000  0.000  0.000  0.000  1.000
  0.996  0.000  0.004  0.000  0.000
    occupations:
  1.003  0.000  0.000 -0.000 -0.000
  0.000  1.003  0.000  0.000  0.000
  0.000  0.000  1.003 -0.000  0.000
 -0.000  0.000 -0.000  1.003 -0.000
 -0.000  0.000  0.000 -0.000  1.003
atomic mag. moment =    -4.736084
atom    7   Tr[ns(na)] (up, down, total) =   5.01474  0.27414  5.28887
   spin  1
    eigenvalues: 
  1.003  1.003  1.003  1.003  1.003
    eigenvectors:
  0.000  0.000  0.000  0.986  0.014
  0.000  0.996  0.004  0.000  0.000
  0.000  0.004  0.996  0.000  0.000
  0.000  0.000  0.000  0.014  0.986
  1.000  0.000  0.000  0.000  0.000
    occupations:
  1.003  0.000 -0.000  0.000 -0.000
  0.000  1.003  0.000  0.000 -0.000
 -0.000  0.000  1.003  0.000  0.000
  0.000  0.000  0.000  1.003 -0.000
 -0.000 -0.000  0.000 -0.000  1.003
   spin  2
    eigenvalues: 
  0.041  0.051  0.054  0.055  0.073
    eigenvectors:
  0.038  0.826  0.034  0.102  0.000
  0.000  0.101  0.003  0.895  0.000
  0.000  0.038  0.960  0.000  0.002
  0.962  0.035  0.001  0.003  0.000
  0.000  0.000  0.002  0.000  0.998
    occupations:
  0.051  0.001 -0.001 -0.002 -0.000
  0.001  0.055  0.000 -0.000  0.000
 -0.001  0.000  0.054  0.000  0.001
 -0.002 -0.000  0.000  0.041  0.000
 -0.000  0.000  0.001  0.000  0.073
atomic mag. moment =     4.740602
atom    8   Tr[ns(na)] (up, down, total) =   5.01474  0.27414  5.28887
   spin  1
    eigenvalues: 
  1.003  1.003  1.003  1.003  1.003
    eigenvectors:
  0.000  0.000  0.000  0.986  0.014
  0.000  0.004  0.996  0.000  0.000
  0.000  0.996  0.004  0.000  0.000
  0.000  0.000  0.000  0.014  0.986
  1.000  0.000  0.000  0.000  0.000
    occupations:
  1.003 -0.000  0.000 -0.000 -0.000
 -0.000  1.003  0.000 -0.000  0.000
  0.000  0.000  1.003 -0.000 -0.000
 -0.000 -0.000 -0.000  1.003  0.000
 -0.000  0.000 -0.000  0.000  1.003
   spin  2
    eigenvalues: 
  0.041  0.051  0.054  0.055  0.073
    eigenvectors:
  0.038  0.826  0.034  0.102  0.000
  0.000  0.038  0.960  0.000  0.002
  0.000  0.101  0.003  0.895  0.000
  0.962  0.035  0.001  0.003  0.000
  0.000  0.000  0.002  0.000  0.998
    occupations:
  0.051 -0.001  0.001  0.002 -0.000
 -0.001  0.054  0.000 -0.000  0.001
  0.001  0.000  0.055  0.000  0.000
  0.002 -0.000  0.000  0.041 -0.000
 -0.000  0.001  0.000 -0.000  0.073
atomic mag. moment =     4.740602
N of occupied +U levels =   42.317741
 --- exit write_ns ---

     total cpu time spent up to now is       94.2 secs

     total energy              =  -14679.20627108 Ry
     Harris-Foulkes estimate   =  -14669.82814043 Ry
     estimated scf accuracy    <      21.27924307 Ry

     total magnetization       =    21.04 Bohr mag/cell
     absolute magnetization    =    43.52 Bohr mag/cell

     iteration #  2     ecut=    45.00 Ry     beta= 0.10
     Davidson diagonalization with overlap
     ethr =  7.19E-03,  avg # of iterations =  1.0

     total cpu time spent up to now is      131.5 secs

     total energy              =  -14692.15949217 Ry
     Harris-Foulkes estimate   =  -14679.31052380 Ry
     estimated scf accuracy    <      17.16780611 Ry

     total magnetization       =    20.78 Bohr mag/cell
     absolute magnetization    =    43.09 Bohr mag/cell

     iteration #  3     ecut=    45.00 Ry     beta= 0.10
     Davidson diagonalization with overlap
     ethr =  5.80E-03,  avg # of iterations =  2.2

     total cpu time spent up to now is      177.0 secs

     total energy              =  -14693.92395798 Ry
     Harris-Foulkes estimate   =  -14693.79492702 Ry
     estimated scf accuracy    <       4.11711981 Ry

     total magnetization       =    18.64 Bohr mag/cell
     absolute magnetization    =    39.13 Bohr mag/cell

     iteration #  4     ecut=    45.00 Ry     beta= 0.10
     Davidson diagonalization with overlap
     ethr =  1.39E-03,  avg # of iterations =  4.8

     total cpu time spent up to now is      237.2 secs

     total energy              =  -14693.35913656 Ry
     Harris-Foulkes estimate   =  -14693.97096627 Ry
     estimated scf accuracy    <       4.69336462 Ry

     total magnetization       =    18.53 Bohr mag/cell
     absolute magnetization    =    38.87 Bohr mag/cell

     iteration #  5     ecut=    45.00 Ry     beta= 0.10
     Davidson diagonalization with overlap
     ethr =  1.39E-03,  avg # of iterations =  4.9

     total cpu time spent up to now is      307.4 secs

     total energy              =  -14693.89060112 Ry
     Harris-Foulkes estimate   =  -14693.85388654 Ry
     estimated scf accuracy    <       0.18053332 Ry

     total magnetization       =    17.75 Bohr mag/cell
     absolute magnetization    =    37.82 Bohr mag/cell

     iteration #  6     ecut=    45.00 Ry     beta= 0.10
     Davidson diagonalization with overlap
     ethr =  6.10E-05,  avg # of iterations =  3.8

     total cpu time spent up to now is      384.9 secs

     total energy              =  -14693.98052315 Ry
     Harris-Foulkes estimate   =  -14693.94470190 Ry
     estimated scf accuracy    <       0.26221239 Ry

     total magnetization       =    17.16 Bohr mag/cell
     absolute magnetization    =    36.94 Bohr mag/cell

     iteration #  7     ecut=    45.00 Ry     beta= 0.10
     Davidson diagonalization with overlap
     ethr =  6.10E-05,  avg # of iterations =  1.9

     total cpu time spent up to now is      427.4 secs

     total energy              =  -14693.93869057 Ry
     Harris-Foulkes estimate   =  -14693.99783260 Ry
     estimated scf accuracy    <       0.72959168 Ry

     total magnetization       =    16.94 Bohr mag/cell
     absolute magnetization    =    36.78 Bohr mag/cell

     iteration #  8     ecut=    45.00 Ry     beta= 0.10
     Davidson diagonalization with overlap
     ethr =  6.10E-05,  avg # of iterations =  1.8

     total cpu time spent up to now is      469.4 secs

     total energy              =  -14693.91449267 Ry
     Harris-Foulkes estimate   =  -14693.95365719 Ry
     estimated scf accuracy    <       0.27697629 Ry

     total magnetization       =    17.12 Bohr mag/cell
     absolute magnetization    =    36.87 Bohr mag/cell

     iteration #  9     ecut=    45.00 Ry     beta= 0.10
     Davidson diagonalization with overlap
     ethr =  6.10E-05,  avg # of iterations =  2.2

     total cpu time spent up to now is      516.8 secs

     total energy              =  -14693.93493142 Ry
     Harris-Foulkes estimate   =  -14693.93512294 Ry
     estimated scf accuracy    <       0.02808908 Ry

     total magnetization       =    17.13 Bohr mag/cell
     absolute magnetization    =    36.92 Bohr mag/cell

     iteration # 10     ecut=    45.00 Ry     beta= 0.10
     Davidson diagonalization with overlap
     ethr =  9.49E-06,  avg # of iterations =  1.9

     total cpu time spent up to now is      558.5 secs

     total energy              =  -14693.93852713 Ry
     Harris-Foulkes estimate   =  -14693.93634054 Ry
     estimated scf accuracy    <       0.00748281 Ry

     total magnetization       =    17.11 Bohr mag/cell
     absolute magnetization    =    36.87 Bohr mag/cell

     iteration # 11     ecut=    45.00 Ry     beta= 0.10
     Davidson diagonalization with overlap
     ethr =  2.53E-06,  avg # of iterations =  4.5

     total cpu time spent up to now is      616.9 secs

     total energy              =  -14693.93857638 Ry
     Harris-Foulkes estimate   =  -14693.93934648 Ry
     estimated scf accuracy    <       0.00744905 Ry

     total magnetization       =    17.05 Bohr mag/cell
     absolute magnetization    =    36.77 Bohr mag/cell

     iteration # 12     ecut=    45.00 Ry     beta= 0.10
     Davidson diagonalization with overlap
     ethr =  2.52E-06,  avg # of iterations =  2.1

     total cpu time spent up to now is      659.9 secs

     total energy              =  -14693.93971265 Ry
     Harris-Foulkes estimate   =  -14693.93923892 Ry
     estimated scf accuracy    <       0.00104712 Ry

     total magnetization       =    17.04 Bohr mag/cell
     absolute magnetization    =    36.80 Bohr mag/cell

     iteration # 13     ecut=    45.00 Ry     beta= 0.10
     Davidson diagonalization with overlap
     ethr =  3.54E-07,  avg # of iterations =  3.2

     total cpu time spent up to now is      714.9 secs

     total energy              =  -14693.94014165 Ry
     Harris-Foulkes estimate   =  -14693.93989809 Ry
     estimated scf accuracy    <       0.00054037 Ry

     total magnetization       =    17.02 Bohr mag/cell
     absolute magnetization    =    36.77 Bohr mag/cell

     iteration # 14     ecut=    45.00 Ry     beta= 0.10
     Davidson diagonalization with overlap
     ethr =  1.83E-07,  avg # of iterations =  2.1

     total cpu time spent up to now is      759.6 secs

     total energy              =  -14693.94026508 Ry
     Harris-Foulkes estimate   =  -14693.94024919 Ry
     estimated scf accuracy    <       0.00040157 Ry

     total magnetization       =    16.99 Bohr mag/cell
     absolute magnetization    =    36.76 Bohr mag/cell

     iteration # 15     ecut=    45.00 Ry     beta= 0.10
     Davidson diagonalization with overlap
     ethr =  1.36E-07,  avg # of iterations =  1.7

     total cpu time spent up to now is      801.0 secs

     total energy              =  -14693.94033387 Ry
     Harris-Foulkes estimate   =  -14693.94030506 Ry
     estimated scf accuracy    <       0.00010471 Ry

     total magnetization       =    16.97 Bohr mag/cell
     absolute magnetization    =    36.74 Bohr mag/cell

     iteration # 16     ecut=    45.00 Ry     beta= 0.10
     Davidson diagonalization with overlap
     ethr =  3.54E-08,  avg # of iterations =  2.0

     total cpu time spent up to now is      844.5 secs

     total energy              =  -14693.94036454 Ry
     Harris-Foulkes estimate   =  -14693.94035235 Ry
     estimated scf accuracy    <       0.00009736 Ry

     total magnetization       =    16.97 Bohr mag/cell
     absolute magnetization    =    36.73 Bohr mag/cell

     iteration # 17     ecut=    45.00 Ry     beta= 0.10
     Davidson diagonalization with overlap
     ethr =  3.29E-08,  avg # of iterations =  1.9

     total cpu time spent up to now is      886.5 secs

     total energy              =  -14693.94038213 Ry
     Harris-Foulkes estimate   =  -14693.94037987 Ry
     estimated scf accuracy    <       0.00006392 Ry

     total magnetization       =    16.95 Bohr mag/cell
     absolute magnetization    =    36.73 Bohr mag/cell

     iteration # 18     ecut=    45.00 Ry     beta= 0.10
     Davidson diagonalization with overlap
     ethr =  2.16E-08,  avg # of iterations =  1.0

     total cpu time spent up to now is      923.9 secs

     total energy              =  -14693.94039213 Ry
     Harris-Foulkes estimate   =  -14693.94038939 Ry
     estimated scf accuracy    <       0.00004199 Ry

     total magnetization       =    16.95 Bohr mag/cell
     absolute magnetization    =    36.73 Bohr mag/cell

     iteration # 19     ecut=    45.00 Ry     beta= 0.10
     Davidson diagonalization with overlap
     ethr =  1.42E-08,  avg # of iterations =  1.0

     total cpu time spent up to now is      961.2 secs

     total energy              =  -14693.94039865 Ry
     Harris-Foulkes estimate   =  -14693.94039475 Ry
     estimated scf accuracy    <       0.00002377 Ry

     total magnetization       =    16.95 Bohr mag/cell
     absolute magnetization    =    36.73 Bohr mag/cell

     iteration # 20     ecut=    45.00 Ry     beta= 0.10
     Davidson diagonalization with overlap
     ethr =  8.03E-09,  avg # of iterations =  1.0

     total cpu time spent up to now is      998.6 secs

     total energy              =  -14693.94040338 Ry
     Harris-Foulkes estimate   =  -14693.94039995 Ry
     estimated scf accuracy    <       0.00002044 Ry

     total magnetization       =    16.95 Bohr mag/cell
     absolute magnetization    =    36.73 Bohr mag/cell

     iteration # 21     ecut=    45.00 Ry     beta= 0.10
     Davidson diagonalization with overlap
     ethr =  6.91E-09,  avg # of iterations =  1.1

     total cpu time spent up to now is     1036.3 secs

     total energy              =  -14693.94040750 Ry
     Harris-Foulkes estimate   =  -14693.94040424 Ry
     estimated scf accuracy    <       0.00000948 Ry

     total magnetization       =    16.95 Bohr mag/cell
     absolute magnetization    =    36.73 Bohr mag/cell

     iteration # 22     ecut=    45.00 Ry     beta= 0.10
     Davidson diagonalization with overlap
     ethr =  3.20E-09,  avg # of iterations =  1.0

     total cpu time spent up to now is     1073.6 secs

     total energy              =  -14693.94041042 Ry
     Harris-Foulkes estimate   =  -14693.94040752 Ry
     estimated scf accuracy    <       0.00001347 Ry

     total magnetization       =    16.95 Bohr mag/cell
     absolute magnetization    =    36.73 Bohr mag/cell

     iteration # 23     ecut=    45.00 Ry     beta= 0.10
     Davidson diagonalization with overlap
     ethr =  3.20E-09,  avg # of iterations =  1.1

     total cpu time spent up to now is     1111.6 secs

     total energy              =  -14693.94041197 Ry
     Harris-Foulkes estimate   =  -14693.94041050 Ry
     estimated scf accuracy    <       0.00001799 Ry

     total magnetization       =    16.95 Bohr mag/cell
     absolute magnetization    =    36.73 Bohr mag/cell

     iteration # 24     ecut=    45.00 Ry     beta= 0.10
     Davidson diagonalization with overlap
     ethr =  3.20E-09,  avg # of iterations =  1.0

     total cpu time spent up to now is     1148.9 secs

     total energy              =  -14693.94041324 Ry
     Harris-Foulkes estimate   =  -14693.94041203 Ry
     estimated scf accuracy    <       0.00001245 Ry

     total magnetization       =    16.95 Bohr mag/cell
     absolute magnetization    =    36.73 Bohr mag/cell

     iteration # 25     ecut=    45.00 Ry     beta= 0.10
     Davidson diagonalization with overlap
     ethr =  3.20E-09,  avg # of iterations =  1.0

     total cpu time spent up to now is     1186.2 secs

     total energy              =  -14693.94041392 Ry
     Harris-Foulkes estimate   =  -14693.94041309 Ry
     estimated scf accuracy    <       0.00001104 Ry

     total magnetization       =    16.95 Bohr mag/cell
     absolute magnetization    =    36.73 Bohr mag/cell

     iteration # 26     ecut=    45.00 Ry     beta= 0.10
     Davidson diagonalization with overlap
     ethr =  3.20E-09,  avg # of iterations =  1.0

     total cpu time spent up to now is     1223.5 secs

     total energy              =  -14693.94041488 Ry
     Harris-Foulkes estimate   =  -14693.94041394 Ry
     estimated scf accuracy    <       0.00000740 Ry

     total magnetization       =    16.95 Bohr mag/cell
     absolute magnetization    =    36.73 Bohr mag/cell

     iteration # 27     ecut=    45.00 Ry     beta= 0.10
     Davidson diagonalization with overlap
     ethr =  2.50E-09,  avg # of iterations =  1.0

     total cpu time spent up to now is     1260.8 secs

     total energy              =  -14693.94041573 Ry
     Harris-Foulkes estimate   =  -14693.94041491 Ry
     estimated scf accuracy    <       0.00000736 Ry

     total magnetization       =    16.95 Bohr mag/cell
     absolute magnetization    =    36.73 Bohr mag/cell

     iteration # 28     ecut=    45.00 Ry     beta= 0.10
     Davidson diagonalization with overlap
     ethr =  2.49E-09,  avg # of iterations =  1.0

     total cpu time spent up to now is     1298.3 secs

     total energy              =  -14693.94041668 Ry
     Harris-Foulkes estimate   =  -14693.94041580 Ry
     estimated scf accuracy    <       0.00000738 Ry

     total magnetization       =    16.95 Bohr mag/cell
     absolute magnetization    =    36.73 Bohr mag/cell

     iteration # 29     ecut=    45.00 Ry     beta= 0.10
     Davidson diagonalization with overlap
     ethr =  2.49E-09,  avg # of iterations =  1.0

     total cpu time spent up to now is     1335.5 secs

     total energy              =  -14693.94041458 Ry
     Harris-Foulkes estimate   =  -14693.94041671 Ry
     estimated scf accuracy    <       0.00000717 Ry

     total magnetization       =    16.95 Bohr mag/cell
     absolute magnetization    =    36.73 Bohr mag/cell

     iteration # 30     ecut=    45.00 Ry     beta= 0.10
     Davidson diagonalization with overlap
     ethr =  2.42E-09,  avg # of iterations =  2.0

     total cpu time spent up to now is     1378.5 secs

     total energy              =  -14693.94041374 Ry
     Harris-Foulkes estimate   =  -14693.94041531 Ry
     estimated scf accuracy    <       0.00005513 Ry

     total magnetization       =    16.95 Bohr mag/cell
     absolute magnetization    =    36.73 Bohr mag/cell

     iteration # 31     ecut=    45.00 Ry     beta= 0.10
     Davidson diagonalization with overlap
     ethr =  2.42E-09,  avg # of iterations =  1.8

     total cpu time spent up to now is     1420.6 secs

     total energy              =  -14693.94041723 Ry
     Harris-Foulkes estimate   =  -14693.94041687 Ry
     estimated scf accuracy    <       0.00000349 Ry

     total magnetization       =    16.95 Bohr mag/cell
     absolute magnetization    =    36.73 Bohr mag/cell

     iteration # 32     ecut=    45.00 Ry     beta= 0.10
     Davidson diagonalization with overlap
     ethr =  1.18E-09,  avg # of iterations =  1.0

     total cpu time spent up to now is     1457.9 secs

     total energy              =  -14693.94041761 Ry
     Harris-Foulkes estimate   =  -14693.94041725 Ry
     estimated scf accuracy    <       0.00000167 Ry

     total magnetization       =    16.95 Bohr mag/cell
     absolute magnetization    =    36.73 Bohr mag/cell

     iteration # 33     ecut=    45.00 Ry     beta= 0.10
     Davidson diagonalization with overlap
     ethr =  5.63E-10,  avg # of iterations =  1.0

     total cpu time spent up to now is     1495.4 secs

     total energy              =  -14693.94041795 Ry
     Harris-Foulkes estimate   =  -14693.94041760 Ry
     estimated scf accuracy    <       0.00000182 Ry

     total magnetization       =    16.95 Bohr mag/cell
     absolute magnetization    =    36.73 Bohr mag/cell

     iteration # 34     ecut=    45.00 Ry     beta= 0.10
     Davidson diagonalization with overlap
     ethr =  5.63E-10,  avg # of iterations =  1.1

     total cpu time spent up to now is     1533.0 secs

     total energy              =  -14693.94041817 Ry
     Harris-Foulkes estimate   =  -14693.94041801 Ry
     estimated scf accuracy    <       0.00000232 Ry

     total magnetization       =    16.95 Bohr mag/cell
     absolute magnetization    =    36.73 Bohr mag/cell

     iteration # 35     ecut=    45.00 Ry     beta= 0.10
     Davidson diagonalization with overlap
     ethr =  5.63E-10,  avg # of iterations =  1.0

     total cpu time spent up to now is     1570.3 secs

     total energy              =  -14693.94041832 Ry
     Harris-Foulkes estimate   =  -14693.94041818 Ry
     estimated scf accuracy    <       0.00000951 Ry

     total magnetization       =    16.95 Bohr mag/cell
     absolute magnetization    =    36.73 Bohr mag/cell

     iteration # 36     ecut=    45.00 Ry     beta= 0.10
     Davidson diagonalization with overlap
     ethr =  5.63E-10,  avg # of iterations =  1.0

     total cpu time spent up to now is     1607.7 secs

     total energy              =  -14693.94041871 Ry
     Harris-Foulkes estimate   =  -14693.94041842 Ry
     estimated scf accuracy    <       0.00000224 Ry

     total magnetization       =    16.95 Bohr mag/cell
     absolute magnetization    =    36.73 Bohr mag/cell

     iteration # 37     ecut=    45.00 Ry     beta= 0.10
     Davidson diagonalization with overlap
     ethr =  5.63E-10,  avg # of iterations =  1.0

     total cpu time spent up to now is     1645.0 secs

     total energy              =  -14693.94041887 Ry
     Harris-Foulkes estimate   =  -14693.94041855 Ry
     estimated scf accuracy    <       0.00000436 Ry

     total magnetization       =    16.95 Bohr mag/cell
     absolute magnetization    =    36.73 Bohr mag/cell

     iteration # 38     ecut=    45.00 Ry     beta= 0.10
     Davidson diagonalization with overlap
     ethr =  5.63E-10,  avg # of iterations =  1.0

     total cpu time spent up to now is     1682.4 secs

     total energy              =  -14693.94041860 Ry
     Harris-Foulkes estimate   =  -14693.94041854 Ry
     estimated scf accuracy    <       0.00000598 Ry

     total magnetization       =    16.95 Bohr mag/cell
     absolute magnetization    =    36.73 Bohr mag/cell

     iteration # 39     ecut=    45.00 Ry     beta= 0.10
     Davidson diagonalization with overlap
     ethr =  5.63E-10,  avg # of iterations =  1.0

     total cpu time spent up to now is     1719.8 secs

     total energy              =  -14693.94041851 Ry
     Harris-Foulkes estimate   =  -14693.94041843 Ry
     estimated scf accuracy    <       0.00000537 Ry

     total magnetization       =    16.95 Bohr mag/cell
     absolute magnetization    =    36.73 Bohr mag/cell

     iteration # 40     ecut=    45.00 Ry     beta= 0.10
     Davidson diagonalization with overlap
     ethr =  5.63E-10,  avg # of iterations =  1.0

     total cpu time spent up to now is     1757.2 secs

     total energy              =  -14693.94041842 Ry
     Harris-Foulkes estimate   =  -14693.94041825 Ry
     estimated scf accuracy    <       0.00000424 Ry

     total magnetization       =    16.95 Bohr mag/cell
     absolute magnetization    =    36.73 Bohr mag/cell

     iteration # 41     ecut=    45.00 Ry     beta= 0.10
     Davidson diagonalization with overlap
     ethr =  5.63E-10,  avg # of iterations =  1.0

     total cpu time spent up to now is     1794.5 secs

     total energy              =  -14693.94041839 Ry
     Harris-Foulkes estimate   =  -14693.94041825 Ry
     estimated scf accuracy    <       0.00000238 Ry

     total magnetization       =    16.95 Bohr mag/cell
     absolute magnetization    =    36.73 Bohr mag/cell

     iteration # 42     ecut=    45.00 Ry     beta= 0.10
     Davidson diagonalization with overlap
     ethr =  5.63E-10,  avg # of iterations =  1.0

     total cpu time spent up to now is     1831.9 secs

     total energy              =  -14693.94041860 Ry
     Harris-Foulkes estimate   =  -14693.94041861 Ry
     estimated scf accuracy    <       0.00000137 Ry

     total magnetization       =    16.95 Bohr mag/cell
     absolute magnetization    =    36.73 Bohr mag/cell

     iteration # 43     ecut=    45.00 Ry     beta= 0.10
     Davidson diagonalization with overlap
     ethr =  4.64E-10,  avg # of iterations =  1.0
 
     Magnetic moment per site:
     atom:    1    charge:   13.5467    magn:    4.1847    constr:    0.0000
     atom:    2    charge:   13.5268    magn:   -4.3095    constr:    0.0000
     atom:    3    charge:   13.5442    magn:    4.2013    constr:    0.0000
     atom:    4    charge:   13.5442    magn:    4.2013    constr:    0.0000
     atom:    5    charge:   13.5461    magn:    4.1855    constr:    0.0000
     atom:    6    charge:   13.5274    magn:   -4.3042    constr:    0.0000
     atom:    7    charge:   13.5442    magn:    4.2013    constr:    0.0000
     atom:    8    charge:   13.5442    magn:    4.2013    constr:    0.0000
     atom:    9    charge:    9.0942    magn:    0.0224    constr:    0.0000
     atom:   10    charge:    9.0912    magn:    0.0064    constr:    0.0000
     atom:   11    charge:    9.0898    magn:    0.0107    constr:    0.0000
     atom:   12    charge:    9.0898    magn:    0.0107    constr:    0.0000
     atom:   13    charge:    9.0912    magn:    0.0045    constr:    0.0000
     atom:   14    charge:    9.0933    magn:    0.0240    constr:    0.0000
     atom:   15    charge:    9.0899    magn:    0.0107    constr:    0.0000
     atom:   16    charge:    9.0899    magn:    0.0107    constr:    0.0000
     atom:   17    charge:    9.0933    magn:    0.0240    constr:    0.0000
     atom:   18    charge:    9.0912    magn:    0.0045    constr:    0.0000
     atom:   19    charge:    9.0898    magn:    0.0107    constr:    0.0000
     atom:   20    charge:    9.0898    magn:    0.0107    constr:    0.0000
     atom:   21    charge:    9.0942    magn:    0.0224    constr:    0.0000
     atom:   22    charge:    9.0912    magn:    0.0064    constr:    0.0000
     atom:   23    charge:    9.0899    magn:    0.0107    constr:    0.0000
     atom:   24    charge:    9.0899    magn:    0.0107    constr:    0.0000

     total cpu time spent up to now is     1869.2 secs

     End of self-consistent calculation
 --- enter write_ns ---
 LDA+U parameters:
U(  1) =   3.1200   J(  1) =   0.7000   B(  1) =   0.0803
U(  2) =   3.1200   J(  2) =   0.7000   B(  2) =   0.0803
atom    1   Tr[ns(na)] (up, down, total) =   4.96504  0.77802  5.74305
   spin  1
    eigenvalues: 
  0.982  0.992  0.992  0.997  1.002
    eigenvectors:
  0.000  0.021  0.000  0.979  0.000
  0.000  0.489  0.499  0.011  0.001
  0.000  0.489  0.499  0.011  0.001
  0.000  0.000  0.002  0.000  0.998
  0.999  0.001  0.000  0.000  0.000
    occupations:
  0.996 -0.000 -0.000 -0.000  0.000
 -0.000  0.992 -0.000 -0.000  0.000
 -0.000 -0.000  0.992  0.000  0.000
 -0.000 -0.000  0.000  1.002 -0.000
  0.000  0.000  0.000 -0.000  0.982
   spin  2
    eigenvalues: 
  0.066  0.124  0.151  0.159  0.277
    eigenvectors:
  0.000  0.978  0.000  0.021  0.001
  0.000  0.010  0.500  0.483  0.007
  0.000  0.010  0.500  0.483  0.007
  1.000  0.000  0.000  0.000  0.000
  0.000  0.002  0.000  0.013  0.986
    occupations:
  0.125 -0.003 -0.003 -0.000  0.005
 -0.003  0.156  0.005 -0.001  0.010
 -0.003  0.005  0.156  0.001  0.010
 -0.000 -0.001  0.001  0.066 -0.000
  0.005  0.010  0.010 -0.000  0.275
atomic mag. moment =     4.187017
atom    2   Tr[ns(na)] (up, down, total) =   0.67927  4.97665  5.65592
   spin  1
    eigenvalues: 
  0.072  0.118  0.142  0.142  0.204
    eigenvectors:
  0.000  0.987  0.013  0.000  0.000
  0.002  0.005  0.434  0.498  0.060
  0.002  0.005  0.434  0.498  0.060
  0.995  0.000  0.000  0.005  0.000
  0.000  0.002  0.118  0.000  0.880
    occupations:
  0.118  0.002  0.002 -0.000 -0.002
  0.002  0.146  0.004 -0.003  0.014
  0.002  0.004  0.146  0.003  0.014
 -0.000 -0.003  0.003  0.073 -0.000
 -0.002  0.014  0.014 -0.000  0.197
   spin  2
    eigenvalues: 
  0.989  0.994  0.994  0.998  1.002
    eigenvectors:
  0.001  0.000  0.049  0.950  0.000
  0.016  0.500  0.459  0.025  0.000
  0.016  0.500  0.459  0.025  0.000
  0.000  0.000  0.000  0.000  1.000
  0.968  0.000  0.032  0.000  0.000
    occupations:
  0.998 -0.001 -0.001 -0.000 -0.000
 -0.001  0.994  0.000 -0.000 -0.001
 -0.001  0.000  0.994  0.000 -0.001
 -0.000 -0.000  0.000  1.002 -0.000
 -0.000 -0.001 -0.001 -0.000  0.989
atomic mag. moment =    -4.297384
atom    3   Tr[ns(na)] (up, down, total) =   4.96563  0.76413  5.72977
   spin  1
    eigenvalues: 
  0.982  0.993  0.993  0.996  1.001
    eigenvectors:
  0.000  0.003  0.016  0.973  0.008
  0.000  0.279  0.700  0.020  0.001
  0.000  0.716  0.283  0.000  0.001
  0.000  0.002  0.000  0.007  0.991
  0.999  0.000  0.000  0.000  0.000
    occupations:
  0.996  0.000 -0.000 -0.000 -0.000
  0.000  0.993 -0.000  0.000  0.000
 -0.000 -0.000  0.993  0.000 -0.000
 -0.000  0.000  0.000  1.001 -0.000
 -0.000  0.000 -0.000 -0.000  0.982
   spin  2
    eigenvalues: 
  0.069  0.133  0.141  0.157  0.265
    eigenvectors:
  0.000  0.902  0.012  0.076  0.010
  0.001  0.070  0.006  0.921  0.002
  0.000  0.019  0.961  0.002  0.018
  0.998  0.000  0.000  0.001  0.000
  0.000  0.009  0.022  0.000  0.970
    occupations:
  0.136  0.006  0.003 -0.000 -0.013
  0.006  0.155 -0.000  0.003  0.006
  0.003 -0.000  0.143  0.001 -0.016
 -0.000  0.003  0.001  0.069  0.001
 -0.013  0.006 -0.016  0.001  0.261
atomic mag. moment =     4.201499
atom    4   Tr[ns(na)] (up, down, total) =   4.96563  0.76413  5.72977
   spin  1
    eigenvalues: 
  0.982  0.993  0.993  0.996  1.001
    eigenvectors:
  0.000  0.003  0.016  0.973  0.008
  0.000  0.716  0.283  0.000  0.001
  0.000  0.279  0.700  0.020  0.001
  0.000  0.002  0.000  0.007  0.991
  0.999  0.000  0.000  0.000  0.000
    occupations:
  0.996 -0.000  0.000  0.000 -0.000
 -0.000  0.993 -0.000 -0.000 -0.000
  0.000 -0.000  0.993 -0.000  0.000
  0.000 -0.000 -0.000  1.001  0.000
 -0.000 -0.000  0.000  0.000  0.982
   spin  2
    eigenvalues: 
  0.069  0.133  0.141  0.157  0.265
    eigenvectors:
  0.000  0.902  0.012  0.076  0.010
  0.000  0.019  0.961  0.002  0.018
  0.001  0.070  0.006  0.921  0.002
  0.998  0.000  0.000  0.001  0.000
  0.000  0.009  0.022  0.000  0.970
    occupations:
  0.136  0.003  0.006  0.000 -0.013
  0.003  0.143 -0.000 -0.001 -0.016
  0.006 -0.000  0.155 -0.003  0.006
  0.000 -0.001 -0.003  0.069 -0.001
 -0.013 -0.016  0.006 -0.001  0.261
atomic mag. moment =     4.201499
atom    5   Tr[ns(na)] (up, down, total) =   4.96520  0.77690  5.74210
   spin  1
    eigenvalues: 
  0.983  0.992  0.992  0.997  1.002
    eigenvectors:
  0.000  0.020  0.000  0.979  0.000
  0.000  0.489  0.499  0.010  0.001
  0.000  0.489  0.499  0.010  0.001
  0.000  0.000  0.003  0.000  0.997
  0.999  0.001  0.000  0.000  0.000
    occupations:
  0.996 -0.000 -0.000 -0.000  0.000
 -0.000  0.992 -0.000 -0.000  0.000
 -0.000 -0.000  0.992  0.000  0.000
 -0.000 -0.000  0.000  1.002 -0.000
  0.000  0.000  0.000 -0.000  0.983
   spin  2
    eigenvalues: 
  0.066  0.125  0.152  0.159  0.275
    eigenvectors:
  0.000  0.980  0.000  0.020  0.000
  0.000  0.009  0.500  0.483  0.008
  0.000  0.009  0.500  0.483  0.008
  0.999  0.000  0.001  0.000  0.000
  0.000  0.002  0.000  0.015  0.983
    occupations:
  0.125 -0.003 -0.003 -0.000  0.004
 -0.003  0.156  0.004 -0.001  0.010
 -0.003  0.004  0.156  0.001  0.010
 -0.000 -0.001  0.001  0.066 -0.000
  0.004  0.010  0.010 -0.000  0.273
atomic mag. moment =     4.188304
atom    6   Tr[ns(na)] (up, down, total) =   0.68228  4.97574  5.65802
   spin  1
    eigenvalues: 
  0.072  0.120  0.140  0.142  0.209
    eigenvectors:
  0.000  0.989  0.000  0.011  0.000
  0.002  0.005  0.498  0.431  0.064
  0.002  0.005  0.498  0.431  0.064
  0.997  0.000  0.003  0.000  0.000
  0.000  0.001  0.000  0.127  0.872
    occupations:
  0.120  0.002  0.002 -0.000 -0.000
  0.002  0.145  0.005 -0.003  0.016
  0.002  0.005  0.145  0.003  0.016
 -0.000 -0.003  0.003  0.072 -0.000
 -0.000  0.016  0.016 -0.000  0.200
   spin  2
    eigenvalues: 
  0.989  0.994  0.994  0.998  1.002
    eigenvectors:
  0.000  0.000  0.087  0.913  0.000
  0.012  0.500  0.445  0.043  0.000
  0.012  0.500  0.445  0.043  0.000
  0.000  0.000  0.000  0.000  1.000
  0.975  0.000  0.024  0.001  0.000
    occupations:
  0.998 -0.001 -0.001 -0.000  0.000
 -0.001  0.994  0.000 -0.000 -0.001
 -0.001  0.000  0.994  0.000 -0.001
 -0.000 -0.000  0.000  1.002 -0.000
  0.000 -0.001 -0.001 -0.000  0.989
atomic mag. moment =    -4.293460
atom    7   Tr[ns(na)] (up, down, total) =   4.96563  0.76413  5.72977
   spin  1
    eigenvalues: 
  0.982  0.993  0.993  0.996  1.001
    eigenvectors:
  0.000  0.003  0.016  0.973  0.008
  0.000  0.716  0.283  0.000  0.001
  0.000  0.279  0.700  0.020  0.001
  0.000  0.002  0.000  0.007  0.991
  0.999  0.000  0.000  0.000  0.000
    occupations:
  0.996 -0.000  0.000  0.000 -0.000
 -0.000  0.993 -0.000 -0.000 -0.000
  0.000 -0.000  0.993 -0.000  0.000
  0.000 -0.000 -0.000  1.001  0.000
 -0.000 -0.000  0.000  0.000  0.982
   spin  2
    eigenvalues: 
  0.069  0.133  0.141  0.157  0.265
    eigenvectors:
  0.000  0.902  0.012  0.076  0.010
  0.000  0.019  0.961  0.002  0.018
  0.001  0.070  0.006  0.921  0.002
  0.998  0.000  0.000  0.001  0.000
  0.000  0.009  0.022  0.000  0.970
    occupations:
  0.136  0.003  0.006  0.000 -0.013
  0.003  0.143 -0.000 -0.001 -0.016
  0.006 -0.000  0.155 -0.003  0.006
  0.000 -0.001 -0.003  0.069 -0.001
 -0.013 -0.016  0.006 -0.001  0.261
atomic mag. moment =     4.201499
atom    8   Tr[ns(na)] (up, down, total) =   4.96563  0.76413  5.72977
   spin  1
    eigenvalues: 
  0.982  0.993  0.993  0.996  1.001
    eigenvectors:
  0.000  0.003  0.016  0.973  0.008
  0.000  0.279  0.700  0.020  0.001
  0.000  0.716  0.283  0.000  0.001
  0.000  0.002  0.000  0.007  0.991
  0.999  0.000  0.000  0.000  0.000
    occupations:
  0.996  0.000 -0.000 -0.000 -0.000
  0.000  0.993 -0.000  0.000  0.000
 -0.000 -0.000  0.993  0.000 -0.000
 -0.000  0.000  0.000  1.001 -0.000
 -0.000  0.000 -0.000 -0.000  0.982
   spin  2
    eigenvalues: 
  0.069  0.133  0.141  0.157  0.265
    eigenvectors:
  0.000  0.902  0.012  0.076  0.010
  0.001  0.070  0.006  0.921  0.002
  0.000  0.019  0.961  0.002  0.018
  0.998  0.000  0.000  0.001  0.000
  0.000  0.009  0.022  0.000  0.970
    occupations:
  0.136  0.006  0.003 -0.000 -0.013
  0.006  0.155 -0.000  0.003  0.006
  0.003 -0.000  0.143  0.001 -0.016
 -0.000  0.003  0.001  0.069  0.001
 -0.013  0.006 -0.016  0.001  0.261
atomic mag. moment =     4.201499
N of occupied +U levels =   45.718172
 --- exit write_ns ---

 ------ SPIN UP ------------


          k = 0.0000 0.0000 0.0000 ( 13629 PWs)   bands (ev):

   -66.3680 -66.3679 -66.3678 -66.3678 -66.3266 -66.3245 -61.9335 -61.9298
   -35.1435 -35.1434 -35.1433 -35.1432 -35.1156 -35.1149 -35.1114 -35.1112
   -35.1111 -35.1110 -35.0752 -35.0749 -35.0742 -35.0741 -35.0448 -35.0427
   -35.0425 -35.0399 -30.7604 -30.7588 -30.7572 -30.7565 -30.7559 -30.7518
     5.9261   7.4840   7.6331   8.0264   8.1506   8.2615   8.3808   8.4093
     8.6991   8.7011   8.9241   9.1675   9.3042   9.3159   9.3329   9.4095
     9.4396   9.4584   9.4585   9.4833   9.4912   9.5685   9.5904   9.6366
     9.6633   9.6836   9.6854   9.7262   9.7360   9.8004   9.9004   9.9218
     9.9415   9.9417   9.9539   9.9733   9.9918  10.0052  10.0300  10.0808
    10.2230  10.2570  10.2611  10.2619  10.2633  10.2922  10.3399  10.3795
    10.3815  10.4398  10.4791  10.4851  10.5119  10.5344  10.6218  10.6245
    10.6256  10.6391  10.7914  10.8149  10.8399  10.8660  10.9874  11.0589
    11.0944  11.1259  11.1638  11.2399  11.2580  11.3251  11.3261  11.4890
    11.5312  11.6406  11.7094  11.8126  11.8159  11.8178  11.8220  11.8295
    11.8636  11.8690  11.9206  11.9698  11.9851  12.0793  12.0972  12.2607
    12.2639  12.2725  12.2771  12.2815  12.2926  12.3523  12.3715  12.4175
    12.4380  12.4896  12.5089  12.5114  12.5184  12.5551  12.6301  12.6896
    12.6898  12.7195  12.7364  12.8082  12.8430  12.9306  13.0208  13.0299
    13.0736  13.1019  13.2572  13.2612  13.3451  13.3855  13.4446  14.0977
    14.9912  15.0214  15.0867  15.9462  15.9624  16.4891  16.4931  16.5615
    16.6584  17.0760  17.1371  17.4047  17.6346  17.7548  17.8117  18.1693
    18.2350  18.4798  18.8663  18.9011  19.1023  19.1993  19.3001  19.3188
    19.3384  19.3984

          k = 0.0000 0.0000-0.5441 ( 13704 PWs)   bands (ev):

   -66.3680 -66.3679 -66.3678 -66.3678 -66.3266 -66.3245 -61.9335 -61.9298
   -35.1435 -35.1434 -35.1433 -35.1432 -35.1156 -35.1149 -35.1114 -35.1112
   -35.1111 -35.1110 -35.0752 -35.0749 -35.0742 -35.0741 -35.0448 -35.0427
   -35.0425 -35.0399 -30.7605 -30.7588 -30.7573 -30.7565 -30.7559 -30.7518
     6.5180   7.5578   8.0378   8.1328   8.3873   8.4462   8.6579   8.6869
     8.6876   8.7973   8.8195   8.8427   8.8991   8.9770   9.0309   9.0450
     9.1061   9.1297   9.1574   9.3977   9.4610   9.5394   9.6166   9.6322
     9.6325   9.6629   9.6760   9.6954   9.7173   9.7186   9.7264   9.7321
     9.7385   9.7616   9.8008   9.8477   9.9257   9.9553  10.0241  10.0506
    10.1325  10.2182  10.2311  10.3064  10.3216  10.3314  10.4517  10.4708
    10.4826  10.4901  10.4964  10.5468  10.5720  10.5771  10.5931  10.5951
    10.6707  10.7870  10.8375  10.9711  10.9976  11.1206  11.2376  11.2467
    11.2490  11.3250  11.4549  11.5490  11.5702  11.5924  11.6152  11.6164
    11.6343  11.6825  11.6950  11.7368  11.8386  11.8420  11.8444  11.9025
    11.9206  11.9337  11.9353  11.9388  11.9687  12.0849  12.0950  12.0976
    12.1031  12.1776  12.2097  12.2152  12.2463  12.2636  12.2925  12.2948
    12.3538  12.3843  12.3851  12.4126  12.5696  12.5994  12.6266  12.6470
    12.6961  12.7549  12.7937  12.8847  12.9325  12.9595  12.9918  13.0742
    13.0769  13.2043  13.2249  13.2263  13.5823  13.6012  13.9831  14.0987
    14.1394  14.1414  14.5204  15.3051  15.6294  15.8739  15.8786  15.9976
    16.7028  16.9678  17.0177  17.4617  17.4721  17.5658  17.5809  17.6081
    17.7866  17.9515  18.3331  18.5697  18.8064  18.8778  19.0427  19.1063
    19.3070  19.5040

          k = 0.0000 0.0000 1.0883 ( 13706 PWs)   bands (ev):

   -66.3680 -66.3679 -66.3678 -66.3678 -66.3266 -66.3245 -61.9336 -61.9298
   -35.1436 -35.1434 -35.1434 -35.1432 -35.1157 -35.1149 -35.1114 -35.1112
   -35.1111 -35.1110 -35.0752 -35.0749 -35.0742 -35.0741 -35.0448 -35.0427
   -35.0425 -35.0399 -30.7606 -30.7588 -30.7574 -30.7565 -30.7559 -30.7517
     7.7857   8.0230   8.1482   8.2588   8.3276   8.3621   8.4941   8.6623
     8.6650   8.6985   8.7022   8.7358   8.8038   8.8784   8.9167   9.0181
     9.0691   9.1837   9.2417   9.3296   9.3365   9.4585   9.4589   9.4974
     9.5688   9.5962   9.6503   9.6739   9.6850   9.7161   9.7599   9.7631
     9.8034   9.8299   9.8805   9.9406   9.9497   9.9537  10.0106  10.0642
    10.0662  10.0759  10.2259  10.2437  10.2561  10.2636  10.2901  10.3131
    10.3207  10.3473  10.3714  10.3723  10.3802  10.3882  10.4420  10.4491
    10.6268  10.6824  10.7105  10.8397  10.8400  10.9108  10.9208  11.0318
    11.2351  11.4305  11.4663  11.4810  11.5119  11.5206  11.5225  11.5328
    11.6219  11.7066  11.7671  11.8162  11.8170  11.8269  11.8639  11.9052
    11.9491  12.0370  12.0919  12.1835  12.1960  12.2201  12.2293  12.2315
    12.2603  12.2647  12.3524  12.3604  12.3773  12.4313  12.4781  12.5091
    12.6295  12.6883  12.6905  12.7039  12.7313  12.7390  12.7406  12.7683
    12.8355  12.9328  13.0653  13.1033  13.1071  13.1535  13.2452  13.2574
    13.2602  13.2884  13.2937  13.2968  13.3837  13.4222  13.4483  13.4603
    13.7842  13.7865  14.0976  14.9918  15.0876  15.1478  15.9483  15.9919
    16.6533  16.8034  16.8131  17.2474  17.2893  17.4486  17.5369  17.7072
    17.7302  17.8723  18.1560  18.1671  18.4167  18.5850  18.8674  18.9273
    19.2244  19.3636

          k =-0.1768-0.1768-0.1360 ( 13673 PWs)   bands (ev):

   -66.3680 -66.3679 -66.3679 -66.3678 -66.3264 -66.3247 -61.9334 -61.9298
   -35.1435 -35.1434 -35.1433 -35.1432 -35.1156 -35.1149 -35.1113 -35.1112
   -35.1111 -35.1110 -35.0750 -35.0748 -35.0743 -35.0743 -35.0447 -35.0428
   -35.0424 -35.0400 -30.7604 -30.7588 -30.7572 -30.7565 -30.7559 -30.7518
     6.0884   7.2586   7.6301   7.7694   8.3461   8.4011   8.4755   8.6025
     8.6122   8.7720   9.0514   9.1392   9.1591   9.2723   9.2726   9.2905
     9.3287   9.4123   9.4411   9.4566   9.4777   9.4839   9.5318   9.5658
     9.5838   9.5991   9.6305   9.6611   9.8624   9.8716   9.9042   9.9154
     9.9164   9.9741   9.9997  10.0680  10.0737  10.0763  10.0819  10.1717
    10.1799  10.1976  10.2507  10.3104  10.3406  10.3440  10.3902  10.4215
    10.4449  10.4918  10.5154  10.5424  10.5548  10.5933  10.6274  10.6747
    10.6803  10.7217  10.7969  10.8111  10.9272  10.9452  10.9482  11.0216
    11.0674  11.0733  11.0759  11.1873  11.2640  11.3087  11.4041  11.4519
    11.5279  11.5750  11.6583  11.6674  11.6896  11.7012  11.7103  11.8152
    11.8313  11.8711  11.8992  11.9212  11.9305  11.9911  11.9973  12.0642
    12.0661  12.1305  12.1617  12.1798  12.2546  12.2755  12.2863  12.3331
    12.3408  12.3609  12.3675  12.5509  12.5779  12.5934  12.5980  12.6262
    12.6950  12.7807  12.8514  12.8565  12.8734  12.9281  12.9734  13.0031
    13.0527  13.0622  13.0966  13.2585  13.6072  14.2046  14.3878  14.7366
    15.1961  15.3612  15.6695  15.8374  15.8628  16.1907  16.4840  16.4886
    16.4940  16.9730  17.1441  17.2942  17.6376  17.6499  17.6771  17.7741
    17.9072  18.1975  18.4051  18.4916  18.7172  18.8239  18.8811  18.9801
    19.0042  19.8421

          k =-0.1768-0.1768-0.6802 ( 13666 PWs)   bands (ev):

   -66.3679 -66.3679 -66.3678 -66.3678 -66.3265 -66.3247 -61.9334 -61.9299
   -35.1435 -35.1434 -35.1433 -35.1432 -35.1156 -35.1149 -35.1114 -35.1113
   -35.1111 -35.1110 -35.0750 -35.0748 -35.0743 -35.0743 -35.0447 -35.0428
   -35.0424 -35.0400 -30.7605 -30.7588 -30.7573 -30.7565 -30.7559 -30.7518
     6.9378   6.9879   8.2699   8.3378   8.3379   8.3996   8.5397   8.7101
     8.7363   8.7723   8.8834   8.8931   8.8941   8.9029   8.9771   9.1049
     9.1268   9.2841   9.2957   9.3352   9.4053   9.4730   9.4872   9.5855
     9.5903   9.5943   9.6058   9.6287   9.6398   9.7030   9.7057   9.7389
     9.7601   9.7812   9.8868   9.9131   9.9354   9.9496   9.9891  10.0320
    10.2895  10.3002  10.3274  10.3306  10.3710  10.3806  10.4035  10.4063
    10.4262  10.5041  10.5118  10.5386  10.5990  10.7326  10.7358  10.7390
    10.7553  10.7604  10.8939  10.9530  11.0136  11.0210  11.1001  11.1145
    11.1487  11.2576  11.2672  11.3054  11.3417  11.3875  11.4734  11.5280
    11.5350  11.6373  11.6505  11.7090  11.7265  11.7275  11.7534  11.8477
    11.8774  11.9123  11.9292  11.9733  12.0195  12.0214  12.0522  12.0628
    12.0708  12.1292  12.1521  12.2020  12.2144  12.2709  12.2950  12.3318
    12.3383  12.3616  12.4102  12.5041  12.5894  12.6058  12.6074  12.6308
    12.6495  12.6689  12.8327  12.8436  12.9703  13.0370  13.0527  13.0625
    13.0829  13.2070  13.2157  13.3046  13.8468  14.1056  14.5172  14.5272
    14.8628  14.9259  15.0298  15.1025  15.4972  15.6101  16.3345  16.3765
    16.3978  16.5825  16.6975  16.7099  17.1629  17.4747  17.5216  17.6635
    17.7773  17.8749  17.8816  17.9775  18.3625  18.4033  18.8767  19.0439
    20.0205  20.3965

          k =-0.1768-0.1768 0.9522 ( 13713 PWs)   bands (ev):

   -66.3679 -66.3679 -66.3678 -66.3678 -66.3265 -66.3247 -61.9335 -61.9299
   -35.1436 -35.1434 -35.1434 -35.1432 -35.1156 -35.1149 -35.1114 -35.1113
   -35.1111 -35.1110 -35.0750 -35.0748 -35.0743 -35.0742 -35.0447 -35.0428
   -35.0424 -35.0400 -30.7606 -30.7588 -30.7574 -30.7565 -30.7559 -30.7517
     7.6418   7.7412   8.2912   8.3326   8.4213   8.4332   8.5979   8.6138
     8.6596   8.6669   8.7088   8.7533   8.7702   8.7964   8.8795   8.9535
     9.0643   9.1144   9.1788   9.3132   9.3338   9.3450   9.3686   9.3940
     9.4578   9.5334   9.5849   9.5851   9.6023   9.6767   9.7105   9.7707
     9.7999   9.8015   9.8496   9.8690   9.8761  10.0245  10.0421  10.0529
    10.0534  10.0630  10.2186  10.2236  10.3113  10.3629  10.3942  10.4039
    10.4509  10.4712  10.4762  10.5795  10.6237  10.6554  10.6605  10.6824
    10.7741  10.7994  10.8456  10.9020  10.9577  11.0030  11.0606  11.1160
    11.3188  11.3393  11.3441  11.4647  11.5361  11.6068  11.6584  11.6769
    11.7099  11.7571  11.8075  11.8461  11.9168  11.9277  11.9392  11.9764
    12.0259  12.0289  12.0593  12.1164  12.1367  12.1583  12.1614  12.2190
    12.2285  12.2364  12.2444  12.2643  12.3251  12.3371  12.4366  12.4725
    12.4727  12.5855  12.5892  12.6254  12.7393  12.7446  12.8002  12.8219
    12.8506  12.8715  12.9127  12.9601  12.9930  13.0119  13.0936  13.1137
    13.1165  13.1339  13.1759  13.2306  13.2587  13.2821  13.6748  13.8052
    13.8713  13.9140  13.9559  14.2693  14.7632  14.8668  16.0425  16.1186
    16.3558  16.4617  16.8064  17.1096  17.2991  17.3416  17.5471  17.5613
    17.6866  17.6974  18.2608  18.3491  18.7687  18.8256  18.9325  18.9574
    19.4705  19.5599

          k =-0.1768-0.1768 0.4081 ( 13683 PWs)   bands (ev):

   -66.3679 -66.3679 -66.3678 -66.3678 -66.3265 -66.3247 -61.9334 -61.9299
   -35.1435 -35.1434 -35.1433 -35.1433 -35.1156 -35.1149 -35.1114 -35.1112
   -35.1111 -35.1110 -35.0750 -35.0748 -35.0743 -35.0743 -35.0447 -35.0428
   -35.0424 -35.0400 -30.7605 -30.7588 -30.7573 -30.7565 -30.7559 -30.7518
     6.3837   7.8997   8.0072   8.0559   8.2805   8.4285   8.4953   8.5973
     8.6227   8.6351   8.7473   8.9473   8.9970   9.0126   9.0127   9.0492
     9.1591   9.2287   9.2660   9.2816   9.3226   9.4550   9.5276   9.5676
     9.6003   9.6070   9.6124   9.6425   9.7342   9.7349   9.7410   9.7815
     9.7856   9.8344   9.9037   9.9312   9.9366  10.0204  10.0515  10.0672
    10.1417  10.2063  10.2520  10.2628  10.2892  10.2897  10.3801  10.3896
    10.4326  10.4571  10.4956  10.5531  10.5636  10.7119  10.7736  10.8338
    10.8778  10.9413  11.0602  11.1027  11.1523  11.1620  11.2839  11.3181
    11.3253  11.3271  11.3753  11.3934  11.4108  11.5132  11.6160  11.6188
    11.6391  11.7085  11.7286  11.8951  11.9103  11.9298  11.9453  11.9700
    11.9807  12.0027  12.0395  12.0429  12.0777  12.1495  12.1698  12.1724
    12.2176  12.2274  12.2631  12.2667  12.2685  12.3044  12.3159  12.3281
    12.3386  12.3637  12.4070  12.4329  12.4972  12.5326  12.5776  12.5865
    12.6425  12.6765  12.7330  12.7390  12.7683  12.8906  12.8917  12.8961
    12.9784  13.0057  13.1620  13.2412  13.2673  13.3293  13.4251  13.6372
    13.9139  14.0284  14.9967  15.3749  15.5583  15.6111  16.1195  16.2800
    16.6276  16.8616  17.0475  17.4202  17.4918  17.4997  17.6237  17.7975
    17.9015  17.9045  18.1900  18.4594  18.7468  18.9146  19.0633  19.1139
    19.7707  19.9173

          k = 0.3536 0.3536 0.2721 ( 13708 PWs)   bands (ev):

   -66.3679 -66.3679 -66.3679 -66.3679 -66.3263 -66.3248 -61.9333 -61.9299
   -35.1434 -35.1434 -35.1433 -35.1433 -35.1156 -35.1149 -35.1113 -35.1113
   -35.1110 -35.1110 -35.0747 -35.0747 -35.0746 -35.0746 -35.0446 -35.0429
   -35.0423 -35.0401 -30.7604 -30.7588 -30.7572 -30.7565 -30.7559 -30.7518
     6.5541   6.5545   8.0134   8.0141   8.1085   8.1087   8.6865   8.6875
     8.8136   8.8142   8.8438   8.8439   9.2919   9.2920   9.2951   9.2952
     9.3343   9.3345   9.4487   9.4489   9.4574   9.4576   9.5332   9.5333
     9.5663   9.5665   9.6685   9.6685   9.6773   9.6777   9.8252   9.8259
     9.9675   9.9676  10.0645  10.0647  10.1085  10.1091  10.2437  10.2438
    10.2882  10.2882  10.3020  10.3023  10.3583  10.3585  10.4154  10.4158
    10.5162  10.5167  10.5941  10.5945  10.5970  10.5972  10.6781  10.6783
    10.6822  10.6825  10.9152  10.9153  10.9800  10.9804  11.0129  11.0129
    11.0594  11.0599  11.2648  11.2651  11.3119  11.3122  11.3543  11.3544
    11.4267  11.4269  11.4436  11.4438  11.5729  11.5733  11.6999  11.7006
    11.7059  11.7061  11.8758  11.8762  11.9029  11.9031  11.9785  11.9793
    12.0652  12.0657  12.1105  12.1108  12.1849  12.1850  12.2734  12.2737
    12.3214  12.3217  12.4269  12.4270  12.5039  12.5041  12.6155  12.6160
    12.7542  12.7545  12.7772  12.7777  12.9825  12.9825  12.9985  12.9999
    13.1104  13.1105  13.1240  13.1247  14.6011  14.6015  15.5153  15.5212
    15.5538  15.5558  15.6882  15.6895  16.0555  16.0557  16.0772  16.0784
    16.7984  16.7993  16.9364  16.9373  17.2000  17.2057  17.6631  17.6693
    17.8795  17.8829  18.0187  18.0244  18.0644  18.0672  18.8065  18.8099
    19.8639  19.8644

          k = 0.3536 0.3536-0.2721 ( 13700 PWs)   bands (ev):

   -66.3679 -66.3679 -66.3679 -66.3679 -66.3263 -66.3248 -61.9334 -61.9299
   -35.1435 -35.1434 -35.1433 -35.1433 -35.1156 -35.1149 -35.1113 -35.1113
   -35.1110 -35.1110 -35.0747 -35.0746 -35.0746 -35.0746 -35.0446 -35.0429
   -35.0423 -35.0401 -30.7605 -30.7588 -30.7573 -30.7565 -30.7559 -30.7518
     6.5546   7.5686   8.0147   8.1110   8.3581   8.5285   8.5864   8.6304
     8.6471   8.6848   8.7934   8.8077   8.8927   8.9385   9.0329   9.2248
     9.2263   9.2570   9.3326   9.3609   9.3884   9.3899   9.4055   9.4496
     9.4630   9.5357   9.5528   9.6264   9.6354   9.6673   9.7208   9.7950
     9.8141   9.8691   9.8945   9.9233  10.0717  10.1135  10.1167  10.1347
    10.1814  10.2638  10.2757  10.3138  10.3383  10.4398  10.4415  10.4550
    10.4565  10.4662  10.4957  10.6172  10.6544  10.6913  10.7508  10.7596
    10.8547  10.9122  10.9591  10.9713  11.0633  11.0795  11.1353  11.1661
    11.1764  11.2714  11.3310  11.3759  11.4621  11.4732  11.5373  11.5732
    11.5843  11.5997  11.6588  11.7364  11.7368  11.8139  11.8271  11.8792
    11.9048  11.9589  11.9874  12.0041  12.0365  12.0380  12.0722  12.0919
    12.1226  12.1306  12.1470  12.2213  12.2509  12.2613  12.2863  12.3004
    12.3110  12.3553  12.3668  12.3916  12.5742  12.5831  12.5937  12.6410
    12.6778  12.7521  12.7854  12.8008  12.9179  12.9181  12.9192  12.9753
    13.1019  13.1127  13.1576  13.2088  13.4162  13.4997  14.0445  14.1746
    14.7126  14.9312  15.1564  15.3813  15.6937  15.8344  15.9168  16.1919
    16.3058  16.6913  16.7306  16.9833  17.2638  17.4752  17.7135  17.7333
    17.7873  17.8353  17.9603  18.0698  18.4635  18.6336  18.8025  19.4882
    19.7767  19.8149

          k = 0.3536 0.3536 1.3603 ( 13692 PWs)   bands (ev):

   -66.3679 -66.3679 -66.3679 -66.3679 -66.3263 -66.3249 -61.9334 -61.9300
   -35.1435 -35.1435 -35.1433 -35.1433 -35.1156 -35.1149 -35.1113 -35.1113
   -35.1110 -35.1110 -35.0747 -35.0746 -35.0746 -35.0745 -35.0446 -35.0429
   -35.0423 -35.0401 -30.7606 -30.7588 -30.7574 -30.7565 -30.7559 -30.7517
     7.5685   7.5685   8.3514   8.3521   8.5296   8.5300   8.5896   8.5897
     8.6031   8.6032   8.6438   8.6440   8.8785   8.8786   8.9461   8.9462
     8.9789   8.9790   9.2377   9.2378   9.2564   9.2569   9.3080   9.3085
     9.4259   9.4260   9.4545   9.4547   9.6993   9.6994   9.7679   9.7680
     9.7809   9.7820   9.8799   9.8799   9.8816   9.8825   9.9565   9.9567
    10.1609  10.1610  10.2170  10.2175  10.2957  10.2960  10.4397  10.4398
    10.5450  10.5452  10.6003  10.6004  10.7524  10.7525  10.8402  10.8409
    10.9155  10.9156  11.0922  11.0927  11.1639  11.1642  11.3561  11.3562
    11.4027  11.4028  11.6635  11.6638  11.7478  11.7482  11.8328  11.8328
    11.8455  11.8460  11.8754  11.8755  11.9720  11.9724  12.0037  12.0038
    12.0276  12.0278  12.0446  12.0448  12.0831  12.0838  12.1290  12.1290
    12.1638  12.1641  12.1661  12.1665  12.2542  12.2544  12.2781  12.2784
    12.2959  12.2960  12.3505  12.3514  12.5654  12.5657  12.6907  12.6918
    12.7653  12.7658  12.7805  12.7808  12.8850  12.8851  12.9103  12.9105
    13.1332  13.1337  13.1949  13.1949  13.4235  13.4238  13.5029  13.5031
    14.0891  14.0896  14.1695  14.1700  14.9418  14.9420  15.1134  15.1134
    16.4956  16.5036  16.9771  16.9829  17.3205  17.3264  17.5671  17.5757
    17.6493  17.6526  18.4522  18.4541  18.7945  18.7965  19.4744  19.4747
    19.9219  19.9239

          k = 0.1768-0.1768 0.0000 ( 13644 PWs)   bands (ev):

   -66.3680 -66.3679 -66.3678 -66.3678 -66.3264 -66.3247 -61.9334 -61.9298
   -35.1435 -35.1434 -35.1433 -35.1432 -35.1156 -35.1149 -35.1113 -35.1112
   -35.1111 -35.1110 -35.0751 -35.0748 -35.0744 -35.0742 -35.0447 -35.0428
   -35.0424 -35.0400 -30.7604 -30.7588 -30.7572 -30.7565 -30.7559 -30.7518
     6.0506   6.9495   8.0235   8.1028   8.2090   8.2619   8.4377   8.4678
     8.5823   8.6140   8.8353   9.0189   9.2250   9.3349   9.3514   9.3921
     9.4253   9.4520   9.5059   9.5196   9.5640   9.5731   9.6003   9.6078
     9.6268   9.6605   9.6765   9.6801   9.7850   9.8129   9.8144   9.8392
     9.8591   9.8935   9.9028  10.0055  10.0066  10.0924  10.1218  10.1373
    10.1463  10.1878  10.2317  10.2338  10.2671  10.3569  10.3877  10.4173
    10.4803  10.5092  10.5169  10.5401  10.5456  10.5617  10.5965  10.6851
    10.7011  10.7521  10.8395  10.8458  10.9273  10.9737  11.0332  11.0773
    11.1311  11.1844  11.1998  11.2389  11.3151  11.3778  11.3793  11.4338
    11.5504  11.5638  11.6439  11.6934  11.7902  11.8050  11.8125  11.8413
    11.8941  11.9105  11.9294  11.9640  11.9692  12.0213  12.1462  12.1822
    12.2021  12.2066  12.2507  12.2606  12.2663  12.3279  12.3448  12.3669
    12.3938  12.4226  12.4685  12.4890  12.5578  12.6054  12.6491  12.6790
    12.7115  12.7537  12.7726  12.8108  12.8322  12.8487  12.8849  12.8955
    12.9734  13.0602  13.1059  13.1077  13.2393  13.3496  14.0324  14.0511
    14.9479  15.2165  15.3561  15.7978  16.3414  16.3740  16.4911  16.5942
    16.7087  16.9668  17.1254  17.2308  17.3123  17.7297  17.7845  17.9060
    17.9889  18.2330  18.4015  18.7527  18.7672  19.0315  19.1670  19.4990
    19.5392  19.6518

          k = 0.1768-0.1768-0.5441 ( 13695 PWs)   bands (ev):

   -66.3679 -66.3679 -66.3679 -66.3678 -66.3265 -66.3247 -61.9334 -61.9299
   -35.1435 -35.1434 -35.1434 -35.1432 -35.1156 -35.1149 -35.1113 -35.1112
   -35.1111 -35.1110 -35.0751 -35.0748 -35.0744 -35.0742 -35.0447 -35.0428
   -35.0424 -35.0400 -30.7605 -30.7588 -30.7573 -30.7565 -30.7559 -30.7518
     6.6324   7.4797   7.6664   8.2834   8.4604   8.5489   8.6261   8.6902
     8.7434   8.8148   8.8315   8.8498   8.8855   9.0030   9.0614   9.0881
     9.1059   9.1187   9.2363   9.2495   9.3375   9.4066   9.4279   9.5028
     9.5263   9.5522   9.5876   9.6394   9.6534   9.6904   9.7069   9.7566
     9.8033   9.8097   9.8210   9.8956   9.9545   9.9842  10.0253  10.1394
    10.2367  10.2662  10.3291  10.3933  10.4207  10.4232  10.4765  10.5061
    10.5221  10.5651  10.6294  10.6357  10.6626  10.6952  10.7116  10.7891
    10.8192  10.8327  10.8685  10.9715  10.9971  11.0923  11.1664  11.2525
    11.3457  11.3781  11.3785  11.3996  11.4664  11.4948  11.5157  11.5622
    11.6157  11.6168  11.6392  11.7101  11.7204  11.7557  11.8136  11.8683
    11.8876  11.8937  12.0029  12.0060  12.0101  12.0279  12.0557  12.0868
    12.1387  12.1665  12.2085  12.2140  12.2163  12.2511  12.3074  12.3218
    12.3288  12.3731  12.3775  12.4043  12.4540  12.5304  12.5957  12.6128
    12.6743  12.7366  12.7590  12.7789  12.8356  12.9552  13.0230  13.0876
[...]
    11.9389  11.9389  11.9852  11.9855  12.0641  12.0660  12.0982  12.0983
    12.1028  12.1029  12.2516  12.2521  12.3160  12.3169  12.3367  12.3367
    12.6280  12.6288  12.6615  12.6617  12.7803  12.7807  12.7815  12.7818
    12.8581  12.8583  14.1321  14.1324  14.4164  14.4165  15.4543  15.4543
    15.6662  15.6668  15.7550  15.7551  16.0046  16.0051  16.1315  16.1317
    16.8441  16.8444  17.0081  17.0084  17.0351  17.0356  17.3560  17.3569
    17.3866  17.3875  17.4466  17.4484  17.4761  17.4769  17.6791  17.6792
    17.6956  17.6961  17.8573  17.8578  18.2595  18.2597  18.3019  18.3031
    18.4824  18.4825  18.7857  18.7858  19.4410  19.4414  20.0393  20.0393
    20.3098  20.3101

          k =-0.3536 0.3536-0.5441 ( 13686 PWs)   bands (ev):

   -66.5805 -66.5803 -61.8181 -61.8181 -61.8180 -61.8180 -61.7830 -61.7824
   -35.3411 -35.3359 -35.3241 -35.3227 -35.3007 -35.2970 -30.6557 -30.6557
   -30.6556 -30.6556 -30.6423 -30.6423 -30.6422 -30.6422 -30.6388 -30.6388
   -30.6387 -30.6387 -30.6180 -30.6171 -30.6098 -30.6091 -30.6047 -30.6041
     7.0557   7.0560   8.0598   8.0600   8.7356   8.7362   8.8489   8.8493
     8.9719   8.9726   9.1096   9.1098   9.2087   9.2091   9.3050   9.3056
     9.3767   9.3775   9.4089   9.4091   9.4530   9.4532   9.5252   9.5258
     9.7334   9.7336   9.7591   9.7594   9.8394   9.8401   9.9924   9.9928
    10.0432  10.0433  10.1870  10.1874  10.2020  10.2021  10.3980  10.3981
    10.4538  10.4539  10.6154  10.6156  10.7033  10.7038  10.8544  10.8546
    10.9039  10.9043  10.9934  10.9935  11.0226  11.0227  11.0632  11.0642
    11.1279  11.1279  11.2153  11.2156  11.4170  11.4173  11.4222  11.4228
    11.5432  11.5448  11.6076  11.6082  11.7367  11.7371  11.8465  11.8472
    11.8841  11.8844  12.0067  12.0070  12.0948  12.0960  12.2360  12.2360
    12.3225  12.3228  12.3440  12.3441  12.3771  12.3775  12.4341  12.4343
    12.5744  12.5746  12.6626  12.6630  12.8054  12.8055  12.9675  12.9677
    13.1659  13.1664  13.5008  13.5018  14.0266  14.0267  14.6940  14.6943
    15.0219  15.0223  15.6123  15.6125  15.7629  15.7632  15.9656  15.9660
    17.0967  17.0977  17.1958  17.1961  17.2655  17.2658  17.3458  17.3473
    17.3614  17.3619  17.4480  17.4485  17.4698  17.4704  17.6343  17.6346
    17.7424  17.7425  17.8042  17.8043  18.0462  18.0469  18.3353  18.3356
    18.5089  18.5090  18.8110  18.8119  19.0744  19.0745  19.4585  19.4586
    20.6280  20.6282

          k =-0.3536 0.3536 1.0883 ( 13708 PWs)   bands (ev):

   -66.5805 -66.5803 -61.8181 -61.8181 -61.8181 -61.8181 -61.7830 -61.7824
   -35.3411 -35.3359 -35.3241 -35.3227 -35.3007 -35.2970 -30.6557 -30.6557
   -30.6556 -30.6556 -30.6422 -30.6422 -30.6422 -30.6422 -30.6389 -30.6389
   -30.6388 -30.6388 -30.6180 -30.6172 -30.6098 -30.6091 -30.6047 -30.6041
     8.1564   8.1566   8.3810   8.3815   8.4814   8.4815   8.6826   8.6829
     8.7582   8.7587   8.9507   8.9508   8.9818   8.9831   9.1551   9.1560
     9.2390   9.2392   9.5622   9.5622   9.6407   9.6422   9.6994   9.6996
     9.7294   9.7298   9.7820   9.7822   9.9197   9.9199   9.9359   9.9364
     9.9509   9.9513  10.0024  10.0031  10.1155  10.1165  10.1489  10.1492
    10.1960  10.1963  10.3808  10.3813  10.4509  10.4515  10.5538  10.5543
    10.7290  10.7294  10.7862  10.7863  10.9475  10.9481  11.1215  11.1217
    11.2713  11.2720  11.3549  11.3559  11.5022  11.5032  11.5444  11.5447
    11.5887  11.5901  11.7195  11.7212  11.8363  11.8371  11.9760  11.9764
    12.0428  12.0430  12.1293  12.1297  12.1579  12.1581  12.2604  12.2604
    12.3127  12.3131  12.4815  12.4819  12.4895  12.4896  12.5302  12.5305
    12.5613  12.5617  12.7786  12.7786  12.7875  12.7877  12.9903  12.9904
    13.1021  13.1025  13.8747  13.8747  14.0553  14.0555  14.3533  14.3534
    14.7373  14.7373  15.3882  15.3886  15.6579  15.6581  15.8833  15.8837
    16.9540  16.9542  17.1048  17.1055  17.2355  17.2362  17.3733  17.3748
    17.3811  17.3814  17.4425  17.4428  17.5124  17.5124  17.6168  17.6169
    17.7458  17.7468  17.8296  17.8297  17.8796  17.8797  17.9994  17.9994
    18.3066  18.3070  18.3432  18.3444  18.5203  18.5214  19.3090  19.3090
    19.8895  19.8901

          k =-0.5303 0.1768-0.1360 ( 13660 PWs)   bands (ev):

   -66.5805 -66.5803 -61.8185 -61.8185 -61.8176 -61.8176 -61.7830 -61.7824
   -35.3411 -35.3359 -35.3241 -35.3227 -35.3006 -35.2969 -30.6557 -30.6557
   -30.6555 -30.6555 -30.6428 -30.6428 -30.6418 -30.6418 -30.6388 -30.6388
   -30.6384 -30.6384 -30.6179 -30.6170 -30.6099 -30.6093 -30.6046 -30.6040
     6.6503   6.6507   7.7451   7.7454   8.5490   8.5498   8.8930   8.8937
     9.0311   9.0317   9.0661   9.0661   9.3204   9.3211   9.3992   9.4006
     9.5193   9.5194   9.6015   9.6017   9.7117   9.7117   9.8031   9.8031
     9.8981   9.8982   9.9373   9.9379   9.9671   9.9674  10.0443  10.0444
    10.0693  10.0695  10.1143  10.1145  10.2463  10.2468  10.3483  10.3483
    10.4005  10.4006  10.4837  10.4838  10.6476  10.6495  10.6995  10.6998
    10.8604  10.8605  10.8614  10.8615  10.9603  10.9604  11.1027  11.1033
    11.1244  11.1244  11.2008  11.2009  11.3058  11.3059  11.4228  11.4229
    11.5177  11.5181  11.5968  11.5968  11.6200  11.6202  11.6845  11.6846
    11.8155  11.8164  11.8465  11.8474  12.0075  12.0078  12.0973  12.0974
    12.1757  12.1762  12.2707  12.2716  12.3866  12.3873  12.5187  12.5189
    12.5559  12.5561  12.6307  12.6310  12.8129  12.8131  12.9328  12.9333
    13.2810  13.2815  13.9603  13.9608  14.6728  14.6731  15.1229  15.1232
    15.3717  15.3720  15.8560  15.8563  15.8746  15.8753  16.2184  16.2189
    16.9093  16.9094  17.1303  17.1309  17.2482  17.2489  17.3136  17.3137
    17.4151  17.4166  17.4604  17.4610  17.4924  17.4929  17.6876  17.6880
    17.7641  17.7643  17.9650  17.9652  18.1940  18.1950  18.4068  18.4069
    18.5343  18.5348  18.6124  18.6125  19.1160  19.1161  19.9144  19.9146
    20.6884  20.6885

          k =-0.5303 0.1768-0.6802 ( 13694 PWs)   bands (ev):

   -66.5805 -66.5803 -61.8185 -61.8185 -61.8176 -61.8176 -61.7830 -61.7824
   -35.3411 -35.3359 -35.3241 -35.3227 -35.3007 -35.2970 -30.6557 -30.6557
   -30.6555 -30.6555 -30.6427 -30.6427 -30.6417 -30.6417 -30.6389 -30.6389
   -30.6385 -30.6385 -30.6180 -30.6171 -30.6099 -30.6092 -30.6046 -30.6040
     7.4237   7.4241   7.5281   7.5283   8.8605   8.8611   8.9254   8.9265
     9.0516   9.0522   9.1484   9.1485   9.2349   9.2350   9.2592   9.2601
     9.3712   9.3715   9.3875   9.3876   9.3960   9.3960   9.5864   9.5866
     9.6159   9.6161   9.7312   9.7314   9.8851   9.8854   9.9511   9.9514
    10.1020  10.1021  10.2211  10.2212  10.3382  10.3383  10.3642  10.3643
    10.4820  10.4821  10.5070  10.5073  10.6143  10.6144  10.7408  10.7415
    10.9135  10.9149  11.0078  11.0079  11.0244  11.0251  11.0581  11.0582
    11.1341  11.1343  11.1889  11.1889  11.2985  11.2990  11.3878  11.3888
    11.4610  11.4617  11.5386  11.5406  11.6776  11.6776  11.7842  11.7846
    11.9789  11.9792  12.0475  12.0482  12.1469  12.1474  12.1809  12.1810
    12.2539  12.2541  12.2970  12.2972  12.4205  12.4207  12.4862  12.4863
    12.5440  12.5443  12.6915  12.6918  12.8057  12.8057  13.2851  13.2852
    13.5292  13.5294  13.7571  13.7573  13.8195  13.8198  14.4875  14.4875
    14.8866  14.8868  15.5416  15.5416  15.7412  15.7415  16.3332  16.3333
    17.0671  17.0682  17.1878  17.1884  17.3396  17.3398  17.3603  17.3610
    17.4355  17.4361  17.4638  17.4643  17.5442  17.5448  17.6118  17.6127
    17.6803  17.6803  17.9025  17.9025  18.0142  18.0147  18.4082  18.4082
    18.4746  18.4755  18.7824  18.7828  18.9233  18.9234  19.1951  19.1952
    20.0411  20.0413

          k =-0.5303 0.1768 0.9522 ( 13712 PWs)   bands (ev):

   -66.5805 -66.5803 -61.8186 -61.8186 -61.8176 -61.8176 -61.7830 -61.7824
   -35.3411 -35.3359 -35.3241 -35.3227 -35.3007 -35.2970 -30.6558 -30.6558
   -30.6555 -30.6555 -30.6427 -30.6427 -30.6417 -30.6417 -30.6390 -30.6390
   -30.6386 -30.6386 -30.6180 -30.6172 -30.6098 -30.6092 -30.6046 -30.6040
     8.0140   8.0140   8.1720   8.1723   8.6454   8.6457   8.7136   8.7142
     8.8552   8.8555   8.9521   8.9521   9.0285   9.0294   9.1934   9.1944
     9.3011   9.3015   9.4267   9.4268   9.5517   9.5522   9.6065   9.6076
     9.6948   9.6957   9.7330   9.7333   9.8380   9.8384   9.8805   9.8807
     9.9534   9.9541  10.1009  10.1012  10.1588  10.1590  10.1962  10.1962
    10.2413  10.2415  10.4337  10.4340  10.6340  10.6346  10.7021  10.7025
    10.8057  10.8061  10.9113  10.9114  10.9872  10.9881  11.1607  11.1612
    11.2581  11.2583  11.3367  11.3369  11.4616  11.4621  11.5274  11.5291
    11.6883  11.6896  11.7163  11.7168  11.8620  11.8627  12.0030  12.0034
    12.0299  12.0302  12.0666  12.0670  12.1868  12.1871  12.2429  12.2430
    12.3229  12.3230  12.4085  12.4091  12.4527  12.4529  12.5607  12.5609
    12.5983  12.5985  12.6981  12.6983  12.8721  12.8724  13.0239  13.0241
    13.0665  13.0666  13.6687  13.6688  13.7666  13.7670  14.2490  14.2490
    14.6103  14.6105  15.1566  15.1567  15.7522  15.7526  16.0490  16.0490
    16.9465  16.9469  17.0993  17.1004  17.2528  17.2532  17.3487  17.3493
    17.4159  17.4159  17.4257  17.4260  17.4973  17.4979  17.6107  17.6108
    17.7200  17.7208  17.7658  17.7658  17.8126  17.8130  18.1938  18.1942
    18.2970  18.2971  18.4773  18.4783  18.5697  18.5707  18.6603  18.6604
    20.1067  20.1068

          k =-0.5303 0.1768 0.4081 ( 13670 PWs)   bands (ev):

   -66.5805 -66.5803 -61.8186 -61.8186 -61.8176 -61.8176 -61.7830 -61.7824
   -35.3411 -35.3359 -35.3241 -35.3227 -35.3007 -35.2970 -30.6558 -30.6558
   -30.6555 -30.6555 -30.6427 -30.6427 -30.6417 -30.6417 -30.6389 -30.6389
   -30.6385 -30.6385 -30.6180 -30.6171 -30.6099 -30.6092 -30.6046 -30.6040
     6.9294   6.9297   8.5009   8.5014   8.5432   8.5433   8.7178   8.7183
     8.7739   8.7751   9.1103   9.1104   9.2480   9.2485   9.3084   9.3085
     9.3986   9.3993   9.4324   9.4338   9.5463   9.5464   9.6042   9.6047
     9.7252   9.7256   9.7836   9.7838   9.8919   9.8920   9.9845   9.9847
    10.0104  10.0105  10.1155  10.1157  10.1565  10.1570  10.3717  10.3719
    10.4397  10.4402  10.5342  10.5343  10.7335  10.7345  10.8007  10.8011
    10.9242  10.9247  11.0489  11.0489  11.1288  11.1289  11.1322  11.1325
    11.1632  11.1633  11.3082  11.3083  11.4569  11.4577  11.4888  11.4891
    11.5797  11.5809  11.7171  11.7176  11.7772  11.7773  11.8004  11.8005
    11.8916  11.8921  12.0377  12.0385  12.0804  12.0813  12.1655  12.1661
    12.2138  12.2140  12.3457  12.3463  12.3968  12.3968  12.4898  12.4899
    12.5842  12.5843  12.6914  12.6919  12.7219  12.7222  12.8313  12.8317
    12.8935  12.8938  13.3139  13.3145  14.4365  14.4369  14.8172  14.8173
    15.1938  15.1945  15.4250  15.4251  15.4930  15.4930  15.8564  15.8565
    16.9209  16.9213  17.1137  17.1150  17.2558  17.2560  17.2811  17.2816
    17.3760  17.3767  17.4631  17.4634  17.5206  17.5213  17.6485  17.6494
    17.7300  17.7302  17.8779  17.8779  17.9927  17.9930  18.2712  18.2715
    18.3525  18.3527  18.6239  18.6245  19.5244  19.5244  19.8710  19.8712
    20.0617  20.0619

          k = 0.0000 0.7071 0.2721 ( 13680 PWs)   bands (ev):

   -66.5805 -66.5803 -61.8187 -61.8187 -61.8174 -61.8174 -61.7830 -61.7824
   -35.3412 -35.3359 -35.3241 -35.3227 -35.3006 -35.2969 -30.6558 -30.6558
   -30.6555 -30.6555 -30.6430 -30.6430 -30.6416 -30.6416 -30.6389 -30.6389
   -30.6383 -30.6383 -30.6179 -30.6171 -30.6100 -30.6094 -30.6046 -30.6040
     7.0350   7.0355   7.1545   7.1547   8.7298   8.7314   8.9567   8.9568
     9.1115   9.1117   9.1563   9.1565   9.3214   9.3218   9.3756   9.3766
     9.4242   9.4242   9.4783   9.4786   9.6622   9.6622   9.7649   9.7653
     9.8837   9.8838   9.8935   9.8936   9.9087   9.9098  10.0790  10.0795
    10.1578  10.1578  10.1849  10.1851  10.2243  10.2244  10.2601  10.2603
    10.4796  10.4797  10.5618  10.5625  10.6440  10.6441  10.7232  10.7247
    10.7989  10.7991  11.0638  11.0641  11.1097  11.1101  11.1576  11.1578
    11.1762  11.1762  11.1767  11.1776  11.2330  11.2336  11.3165  11.3170
    11.3701  11.3708  11.4179  11.4179  11.5735  11.5735  11.7069  11.7083
    11.7117  11.7120  11.7482  11.7483  11.9285  11.9290  12.1241  12.1242
    12.1860  12.1863  12.2852  12.2864  12.4046  12.4057  12.4500  12.4504
    12.5988  12.5992  12.6529  12.6530  12.8763  12.8766  13.1518  13.1520
    13.6318  13.6329  14.0091  14.0093  14.6642  14.6645  14.9439  14.9443
    15.0506  15.0508  15.6821  15.6823  15.8001  15.8009  16.3225  16.3230
    17.0799  17.0800  17.1955  17.1964  17.3167  17.3180  17.3667  17.3679
    17.4400  17.4403  17.4985  17.4987  17.6717  17.6729  17.7231  17.7248
    17.8506  17.8507  18.0164  18.0166  18.1722  18.1725  18.2211  18.2218
    18.5021  18.5030  18.7518  18.7520  19.1635  19.1639  19.4491  19.4498
    20.6245  20.6250

          k = 0.0000 0.7071-0.2721 ( 13688 PWs)   bands (ev):

   -66.5805 -66.5803 -61.8187 -61.8187 -61.8174 -61.8174 -61.7830 -61.7824
   -35.3411 -35.3359 -35.3241 -35.3227 -35.3007 -35.2970 -30.6558 -30.6558
   -30.6555 -30.6555 -30.6430 -30.6430 -30.6415 -30.6415 -30.6390 -30.6390
   -30.6384 -30.6384 -30.6180 -30.6171 -30.6100 -30.6093 -30.6046 -30.6040
     7.0916   7.0918   7.9848   7.9852   8.7973   8.7975   8.8351   8.8361
     8.8475   8.8478   9.1470   9.1471   9.2177   9.2179   9.2823   9.2827
     9.3372   9.3375   9.4618   9.4638   9.4674   9.4675   9.6880   9.6881
     9.6928   9.6930   9.8627   9.8631   9.8767   9.8769   9.9275   9.9277
    10.1207  10.1208  10.1841  10.1846  10.2104  10.2106  10.2240  10.2241
    10.3305  10.3307  10.5949  10.5949  10.6785  10.6788  10.7928  10.7928
    10.8673  10.8674  11.0842  11.0844  11.1216  11.1216  11.1642  11.1647
    11.1978  11.1979  11.2271  11.2273  11.3270  11.3273  11.3482  11.3496
    11.5161  11.5161  11.6226  11.6237  11.6548  11.6551  11.8104  11.8108
    11.9272  11.9283  12.0915  12.0916  12.1068  12.1072  12.1579  12.1580
    12.2177  12.2178  12.2884  12.2887  12.3403  12.3408  12.5964  12.5965
    12.6217  12.6220  12.6542  12.6544  12.7620  12.7622  13.1478  13.1479
    13.2295  13.2297  13.4978  13.4981  14.1477  14.1478  14.5161  14.5167
    15.2424  15.2425  15.3616  15.3619  15.6462  15.6464  16.3619  16.3622
    16.7185  16.7186  17.1781  17.1795  17.2974  17.2980  17.3331  17.3334
    17.4730  17.4736  17.4821  17.4828  17.5536  17.5538  17.6096  17.6103
    17.7174  17.7180  17.9153  17.9155  18.0621  18.0625  18.2435  18.2438
    18.4125  18.4135  18.4790  18.4793  18.6777  18.6781  19.3183  19.3185
    20.7904  20.7905

          k = 0.0000 0.7071 1.3603 ( 13696 PWs)   bands (ev):

   -66.5805 -66.5803 -61.8188 -61.8188 -61.8174 -61.8174 -61.7830 -61.7824
   -35.3411 -35.3359 -35.3241 -35.3227 -35.3007 -35.2970 -30.6558 -30.6558
   -30.6555 -30.6555 -30.6429 -30.6429 -30.6415 -30.6415 -30.6391 -30.6391
   -30.6385 -30.6385 -30.6181 -30.6172 -30.6099 -30.6093 -30.6046 -30.6039
     7.9035   7.9036   8.0760   8.0764   8.6936   8.6938   8.7255   8.7262
     8.9549   8.9551   8.9650   8.9652   9.0764   9.0771   9.1966   9.1970
     9.3221   9.3222   9.3803   9.3804   9.4380   9.4384   9.5577   9.5581
     9.5962   9.5980   9.7665   9.7668   9.8571   9.8572   9.8590   9.8599
     9.8866   9.8867  10.1702  10.1703  10.1787  10.1788  10.2223  10.2224
    10.2327  10.2330  10.4624  10.4629  10.6589  10.6597  10.8276  10.8278
    11.0179  11.0196  11.0636  11.0639  11.1607  11.1609  11.1761  11.1762
    11.2780  11.2782  11.4175  11.4175  11.4414  11.4423  11.5778  11.5781
    11.5950  11.5968  11.6800  11.6804  11.8984  11.8988  11.9700  11.9708
    12.0623  12.0627  12.1212  12.1218  12.1236  12.1239  12.2767  12.2777
    12.2993  12.2995  12.3233  12.3234  12.4310  12.4311  12.5904  12.5906
    12.5980  12.5983  12.6536  12.6537  12.7476  12.7481  13.0684  13.0689
    13.1546  13.1548  13.2743  13.2745  13.6483  13.6495  14.0129  14.0131
    14.6658  14.6662  15.0415  15.0422  15.8384  15.8388  16.3494  16.3497
    16.5795  16.5796  17.0308  17.0323  17.2098  17.2101  17.3498  17.3513
    17.4118  17.4119  17.4281  17.4281  17.5335  17.5335  17.5919  17.5922
    17.7015  17.7020  17.7368  17.7379  17.7548  17.7549  18.1250  18.1250
    18.3829  18.3829  18.4017  18.4020  18.5021  18.5032  18.7450  18.7465
    20.8146  20.8152

     the Fermi energy is    15.5626 ev

!    total energy              =  -14693.94041925 Ry
     Harris-Foulkes estimate   =  -14693.94041850 Ry
     estimated scf accuracy    <       0.00000097 Ry

     total all-electron energy =   -626921.536141 Ry

     The total energy is the sum of the following terms:

     one-electron contribution =    -698.52126901 Ry
     hartree contribution      =     651.66843212 Ry
     xc contribution           =    -738.11433429 Ry
     ewald contribution        =   -2207.56121140 Ry
     Hubbard energy            =       0.45749284 Ry
     one-center paw contrib.   =  -11701.86952950 Ry

     total magnetization       =    16.95 Bohr mag/cell
     absolute magnetization    =    36.73 Bohr mag/cell

     convergence has been achieved in  43 iterations

     Writing output data file mnau2.save/
 
     init_run     :     21.18s CPU     22.04s WALL (       1 calls)
     electrons    :   1792.40s CPU   1844.80s WALL (       1 calls)

     Called by init_run:
     wfcinit      :     18.84s CPU     19.54s WALL (       1 calls)
     potinit      :      1.21s CPU      1.28s WALL (       1 calls)
     hinit0       :      0.70s CPU      0.73s WALL (       1 calls)

     Called by electrons:
     c_bands      :   1517.70s CPU   1560.37s WALL (      43 calls)
     sum_band     :    226.25s CPU    233.94s WALL (      43 calls)
     v_of_rho     :      3.79s CPU      3.83s WALL (      44 calls)
     newd         :     14.21s CPU     15.89s WALL (      44 calls)
     PAW_pot      :     30.48s CPU     30.58s WALL (      44 calls)
     mix_rho      :      0.66s CPU      0.70s WALL (      43 calls)

     Called by c_bands:
     init_us_2    :     16.85s CPU     16.95s WALL (    5280 calls)
     cegterg      :   1430.35s CPU   1472.04s WALL (    2580 calls)

     Called by sum_band:
     sum_band:bec :      2.30s CPU      2.32s WALL (    2580 calls)
     addusdens    :     27.57s CPU     30.11s WALL (      43 calls)

     Called by *egterg:
     h_psi        :    708.88s CPU    731.33s WALL (    7107 calls)
     s_psi        :    103.80s CPU    104.05s WALL (    7167 calls)
     g_psi        :      3.80s CPU      3.82s WALL (    4467 calls)
     cdiaghg      :    404.17s CPU    411.16s WALL (    7047 calls)

     Called by h_psi:
     h_psi:pot    :    673.46s CPU    691.59s WALL (    7107 calls)
     h_psi:calbec :     98.53s CPU    104.02s WALL (    7107 calls)
     vloc_psi     :    473.58s CPU    485.22s WALL (    7107 calls)
     add_vuspsi   :    101.28s CPU    102.29s WALL (    7107 calls)
     vhpsi        :     30.91s CPU     31.05s WALL (    7107 calls)

     General routines
     calbec       :    164.74s CPU    172.09s WALL (   19434 calls)
     fft          :      1.92s CPU      1.94s WALL (    1096 calls)
     ffts         :      0.09s CPU      0.09s WALL (     174 calls)
     fftw         :    533.73s CPU    546.70s WALL ( 2386686 calls)
     interpolate  :      0.21s CPU      0.21s WALL (      88 calls)
     davcio       :      0.00s CPU      0.94s WALL (      60 calls)
 
     Parallel routines
     fft_scatt_xy :     65.69s CPU     67.16s WALL ( 2387956 calls)
     fft_scatt_yz :    176.62s CPU    181.43s WALL ( 2387956 calls)

     Hubbard U routines
     new_ns       :     10.03s CPU     10.46s WALL (      43 calls)
     vhpsi        :     30.91s CPU     31.05s WALL (    7107 calls)
 
     PWSCF        : 30m18.54s CPU    31m42.48s WALL

 
   This run was terminated on:  13:52:29  26Mar2019            

=------------------------------------------------------------------------------=
   JOB DONE.
=------------------------------------------------------------------------------=
