
     Program PWSCF v.6.3MaX starts on 26Mar2019 at 12:57:32 

     This program is part of the open-source Quantum ESPRESSO suite
     for quantum simulation of materials; please cite
         "P. Giannozzi et al., J. Phys.:Condens. Matter 21 395502 (2009);
         "P. Giannozzi et al., J. Phys.:Condens. Matter 29 465901 (2017);
          URL http://www.quantum-espresso.org", 
     in publications or presentations arising from this work. More details at
     http://www.quantum-espresso.org/quote

     Parallel version (MPI), running on    16 processors

     MPI processes distributed on     1 nodes
     R & G space division:  proc/nbgrp/npool/nimage =      16
     Waiting for input...
     Reading input from standard input

     Current dimensions of program PWSCF are:
     Max number of different atomic species (ntypx) = 10
     Max number of k-points (npk) =  40000
     Max angular momentum in pseudopotentials (lmaxx) =  3
     Message from routine read_upf::
     Pseudo file ./pseudo/Mn.pbe-spn-kjpaw_psl.0.3.1.UPF has been successfully fixed on the fly.
To avoid this message in the future you can permanently fix 
 your pseudo files following instructions given in: 
https://gitlab.com/QEF/q-e/blob/master/upftools/how_to_fix_upf.md
               file Mn.pbe-spn-kjpaw_psl.0.3.1.UPF: wavefunction(s)  3P 3D renormalized
     Message from routine read_upf::
     Pseudo file ./pseudo/Mn.pbe-spn-kjpaw_psl.0.3.1.UPF has been successfully fixed on the fly.
To avoid this message in the future you can permanently fix 
 your pseudo files following instructions given in: 
https://gitlab.com/QEF/q-e/blob/master/upftools/how_to_fix_upf.md
               file Mn.pbe-spn-kjpaw_psl.0.3.1.UPF: wavefunction(s)  3P 3D renormalized
     Message from routine read_upf::
     Pseudo file ./pseudo/Au.pbe-dn-kjpaw_psl.0.1.UPF has been successfully fixed on the fly.
To avoid this message in the future you can permanently fix 
 your pseudo files following instructions given in: 
https://gitlab.com/QEF/q-e/blob/master/upftools/how_to_fix_upf.md
               file Au.pbe-dn-kjpaw_psl.0.1.UPF: wavefunction(s)  6S 6P 5D renormalized

     Subspace diagonalization in iterative solution of the eigenvalue problem:
     one sub-group per band group will be used
     scalapack distributed-memory algorithm (size of sub-group:  2*  2 procs)

 
     Parallelization info
     --------------------
     sticks:   dense  smooth     PW     G-vecs:    dense   smooth      PW
     Min         646     290     84                22663     6843    1075
     Max         647     291     85                22664     6844    1077
     Sum       10349    4645   1353               362619   109493   17211
 


     bravais-lattice index     =            0
     lattice parameter (alat)  =      18.0125  a.u.
     unit-cell volume          =    2685.0513 (a.u.)^3
     number of atoms/cell      =           24
     number of atomic types    =            3
     number of electrons       =       296.00
     number of Kohn-Sham states=          178
     kinetic-energy cutoff     =      45.0000  Ry
     charge density cutoff     =     400.0000  Ry
     convergence threshold     =      1.0E-06
     mixing beta               =       0.1000
     number of iterations used =            8  plain     mixing
     Exchange-correlation      = SLA PW PBX PBC ( 1  4  3  4 0 0)

     celldm(1)=  18.012490  celldm(2)=   0.000000  celldm(3)=   0.000000
     celldm(4)=   0.000000  celldm(5)=   0.000000  celldm(6)=   0.000000

     crystal axes: (cart. coord. in units of alat)
               a(1) = (   0.707107  -0.707107   0.000000 )  
               a(2) = (  -0.707107  -0.707107   0.000000 )  
               a(3) = (   0.176777   0.176777  -0.459443 )  

     reciprocal axes: (cart. coord. in units 2 pi/alat)
               b(1) = (  0.707107 -0.707107  0.000000 )  
               b(2) = ( -0.707107 -0.707107 -0.544138 )  
               b(3) = (  0.000000  0.000000 -2.176550 )  


     PseudoPot. # 1 for Mn read from file:
     ./pseudo/Mn.pbe-spn-kjpaw_psl.0.3.1.UPF
     MD5 check sum: 7eef95dd2aae66803482eea66ebeebf1
     Pseudo is Projector augmented-wave + core cor, Zval = 15.0
     Generated using "atomic" code by A. Dal Corso v.5.0.99 svn rev. 10869
     Shape of augmentation charge: PSQ
     Using radial grid of 1187 points,  6 beta functions with: 
                l(1) =   0
                l(2) =   0
                l(3) =   1
                l(4) =   1
                l(5) =   2
                l(6) =   2
     Q(r) pseudized with 0 coefficients 


     PseudoPot. # 2 for Mn read from file:
     ./pseudo/Mn.pbe-spn-kjpaw_psl.0.3.1.UPF
     MD5 check sum: 7eef95dd2aae66803482eea66ebeebf1
     Pseudo is Projector augmented-wave + core cor, Zval = 15.0
     Generated using "atomic" code by A. Dal Corso v.5.0.99 svn rev. 10869
     Shape of augmentation charge: PSQ
     Using radial grid of 1187 points,  6 beta functions with: 
                l(1) =   0
                l(2) =   0
                l(3) =   1
                l(4) =   1
                l(5) =   2
                l(6) =   2
     Q(r) pseudized with 0 coefficients 


     PseudoPot. # 3 for Au read from file:
     ./pseudo/Au.pbe-dn-kjpaw_psl.0.1.UPF
     MD5 check sum: 5c9b92683623e7ae2ab3f8e525febab6
     Pseudo is Projector augmented-wave + core cor, Zval = 11.0
     Generated using "atomic" code by A. Dal Corso v.5.0.2 svn rev. 9415
     Shape of augmentation charge: PSQ
     Using radial grid of 1279 points,  6 beta functions with: 
                l(1) =   0
                l(2) =   0
                l(3) =   1
                l(4) =   1
                l(5) =   2
                l(6) =   2
     Q(r) pseudized with 0 coefficients 


     atomic species   valence    mass     pseudopotential
        Mn1           15.00    54.93800     Mn( 1.00)
        Mn2           15.00    54.93800     Mn( 1.00)
        Au            11.00   196.96600     Au( 1.00)

     Starting magnetic structure 
     atomic species   magnetization
        Mn1          1.000
        Mn2         -1.000
        Au           0.000


     Full LDA+U calculation (l_max = 2) with parameters (eV):
     U(  1) =   3.1200   J(  1) =   0.7000   B(  1) =   0.0803
     U(  2) =   3.1200   J(  2) =   0.7000   B(  2) =   0.0803



      2 Sym. Ops. (no inversion) found ( 1 have fractional translation)



   Cartesian axes

     site n.     atom                  positions (alat units)
         1           Mn1 tau(   1) = (   0.3535534  -0.3535534   0.0000000  )
         2           Mn1 tau(   2) = (   0.0000000   0.0000000   0.0000000  )
         3           Mn2 tau(   3) = (   0.0000000  -0.3535534   0.0000000  )
         4           Mn1 tau(   4) = (   0.3535534  -0.7071068   0.0000000  )
         5           Mn2 tau(   5) = (  -0.3535534  -0.3535534   0.0000000  )
         6           Mn2 tau(   6) = (   0.0000000  -0.7071068   0.0000000  )
         7           Mn1 tau(   7) = (  -0.3535534  -0.7071068   0.0000000  )
         8           Mn1 tau(   8) = (   0.0000000  -1.0606602   0.0000000  )
         9           Au  tau(   9) = (  -0.1767767  -0.1767767  -0.1470216  )
        10           Au  tau(  10) = (   0.1767767  -0.5303301  -0.1470216  )
        11           Au  tau(  11) = (  -0.1767767  -0.5303301  -0.1470216  )
        12           Au  tau(  12) = (   0.1767767  -0.8838835  -0.1470216  )
        13           Au  tau(  13) = (  -0.5303301  -0.5303301  -0.1470216  )
        14           Au  tau(  14) = (  -0.1767767  -0.8838835  -0.1470216  )
        15           Au  tau(  15) = (   0.5303301  -0.5303301  -0.1470216  )
        16           Au  tau(  16) = (   0.1767767  -0.1767767  -0.1470216  )
        17           Au  tau(  17) = (   0.3535534  -0.3535534  -0.3124210  )
        18           Au  tau(  18) = (   0.0000000   0.0000000  -0.3124210  )
        19           Au  tau(  19) = (   0.0000000  -0.3535534  -0.3124210  )
        20           Au  tau(  20) = (   0.3535534  -0.7071068  -0.3124210  )
        21           Au  tau(  21) = (  -0.3535534  -0.3535534  -0.3124210  )
        22           Au  tau(  22) = (  -0.0000000  -0.7071068  -0.3124210  )
        23           Au  tau(  23) = (  -0.3535534  -0.7071068  -0.3124210  )
        24           Au  tau(  24) = (   0.0000000  -1.0606602  -0.3124210  )

     number of k points=    30 (tetrahedron method)
                       cart. coord. in units 2pi/alat
        k(    1) = (   0.0000000   0.0000000   0.0000000), wk =   0.0156250
        k(    2) = (   0.0000000   0.0000000  -0.5441376), wk =   0.0312500
        k(    3) = (   0.0000000   0.0000000   1.0882752), wk =   0.0156250
        k(    4) = (  -0.1767767  -0.1767767  -0.1360344), wk =   0.0312500
        k(    5) = (  -0.1767767  -0.1767767  -0.6801720), wk =   0.0312500
        k(    6) = (  -0.1767767  -0.1767767   0.9522408), wk =   0.0312500
        k(    7) = (  -0.1767767  -0.1767767   0.4081032), wk =   0.0312500
        k(    8) = (   0.3535534   0.3535534   0.2720688), wk =   0.0156250
        k(    9) = (   0.3535534   0.3535534  -0.2720688), wk =   0.0312500
        k(   10) = (   0.3535534   0.3535534   1.3603439), wk =   0.0156250
        k(   11) = (   0.1767767  -0.1767767   0.0000000), wk =   0.0312500
        k(   12) = (   0.1767767  -0.1767767  -0.5441376), wk =   0.0625000
        k(   13) = (   0.1767767  -0.1767767   1.0882752), wk =   0.0312500
        k(   14) = (   0.0000000  -0.3535534  -0.1360344), wk =   0.0625000
        k(   15) = (   0.0000000  -0.3535534  -0.6801720), wk =   0.0625000
        k(   16) = (   0.0000000  -0.3535534   0.9522408), wk =   0.0625000
        k(   17) = (   0.0000000  -0.3535534   0.4081032), wk =   0.0625000
        k(   18) = (   0.5303301   0.1767767   0.2720688), wk =   0.0312500
        k(   19) = (   0.5303301   0.1767767  -0.2720688), wk =   0.0625000
        k(   20) = (   0.5303301   0.1767767   1.3603439), wk =   0.0312500
        k(   21) = (  -0.3535534   0.3535534   0.0000000), wk =   0.0156250
        k(   22) = (  -0.3535534   0.3535534  -0.5441376), wk =   0.0312500
        k(   23) = (  -0.3535534   0.3535534   1.0882752), wk =   0.0156250
        k(   24) = (  -0.5303301   0.1767767  -0.1360344), wk =   0.0312500
        k(   25) = (  -0.5303301   0.1767767  -0.6801720), wk =   0.0312500
        k(   26) = (  -0.5303301   0.1767767   0.9522408), wk =   0.0312500
        k(   27) = (  -0.5303301   0.1767767   0.4081032), wk =   0.0312500
        k(   28) = (   0.0000000   0.7071068   0.2720688), wk =   0.0156250
        k(   29) = (   0.0000000   0.7071068  -0.2720688), wk =   0.0312500
        k(   30) = (   0.0000000   0.7071068   1.3603439), wk =   0.0156250

     Dense  grid:   362619 G-vectors     FFT dimensions: ( 120, 120,  60)

     Smooth grid:   109493 G-vectors     FFT dimensions: (  80,  80,  45)

     Estimated max dynamical RAM per process >     286.87 MB

     Estimated total dynamical RAM >       4.48 GB
     Generating pointlists ...
     new r_m :   0.1196 (alat units)  2.1549 (a.u.) for type    1
     new r_m :   0.1196 (alat units)  2.1549 (a.u.) for type    2
     new r_m :   0.1196 (alat units)  2.1549 (a.u.) for type    3

     Check: negative/imaginary core charge=   -0.000006    0.000000

     Initial potential from superposition of free atoms

     starting charge  295.99426, renormalised to  296.00000
     Number of +U iterations with fixed ns =  0
     Starting occupations:
 --- enter write_ns ---
 LDA+U parameters:
U(  1) =   3.1200   J(  1) =   0.7000   B(  1) =   0.0803
U(  2) =   3.1200   J(  2) =   0.7000   B(  2) =   0.0803
atom    1   Tr[ns(na)] (up, down, total) =   5.00000  0.00000  5.00000
   spin  1
    eigenvalues: 
  1.000  1.000  1.000  1.000  1.000
    eigenvectors:
  1.000  0.000  0.000  0.000  0.000
  0.000  1.000  0.000  0.000  0.000
  0.000  0.000  1.000  0.000  0.000
  0.000  0.000  0.000  1.000  0.000
  0.000  0.000  0.000  0.000  1.000
    occupations:
  1.000  0.000  0.000  0.000  0.000
  0.000  1.000  0.000  0.000  0.000
  0.000  0.000  1.000  0.000  0.000
  0.000  0.000  0.000  1.000  0.000
  0.000  0.000  0.000  0.000  1.000
   spin  2
    eigenvalues: 
  0.000  0.000  0.000  0.000  0.000
    eigenvectors:
  1.000  0.000  0.000  0.000  0.000
  0.000  1.000  0.000  0.000  0.000
  0.000  0.000  1.000  0.000  0.000
  0.000  0.000  0.000  1.000  0.000
  0.000  0.000  0.000  0.000  1.000
    occupations:
  0.000  0.000  0.000  0.000  0.000
  0.000  0.000  0.000  0.000  0.000
  0.000  0.000  0.000  0.000  0.000
  0.000  0.000  0.000  0.000  0.000
  0.000  0.000  0.000  0.000  0.000
atomic mag. moment =     5.000000
atom    2   Tr[ns(na)] (up, down, total) =   5.00000  0.00000  5.00000
   spin  1
    eigenvalues: 
  1.000  1.000  1.000  1.000  1.000
    eigenvectors:
  1.000  0.000  0.000  0.000  0.000
  0.000  1.000  0.000  0.000  0.000
  0.000  0.000  1.000  0.000  0.000
  0.000  0.000  0.000  1.000  0.000
  0.000  0.000  0.000  0.000  1.000
    occupations:
  1.000  0.000  0.000  0.000  0.000
  0.000  1.000  0.000  0.000  0.000
  0.000  0.000  1.000  0.000  0.000
  0.000  0.000  0.000  1.000  0.000
  0.000  0.000  0.000  0.000  1.000
   spin  2
    eigenvalues: 
  0.000  0.000  0.000  0.000  0.000
    eigenvectors:
  1.000  0.000  0.000  0.000  0.000
  0.000  1.000  0.000  0.000  0.000
  0.000  0.000  1.000  0.000  0.000
  0.000  0.000  0.000  1.000  0.000
  0.000  0.000  0.000  0.000  1.000
    occupations:
  0.000  0.000  0.000  0.000  0.000
  0.000  0.000  0.000  0.000  0.000
  0.000  0.000  0.000  0.000  0.000
  0.000  0.000  0.000  0.000  0.000
  0.000  0.000  0.000  0.000  0.000
atomic mag. moment =     5.000000
atom    3   Tr[ns(na)] (up, down, total) =   0.00000  5.00000  5.00000
   spin  1
    eigenvalues: 
  0.000  0.000  0.000  0.000  0.000
    eigenvectors:
  1.000  0.000  0.000  0.000  0.000
  0.000  1.000  0.000  0.000  0.000
  0.000  0.000  1.000  0.000  0.000
  0.000  0.000  0.000  1.000  0.000
  0.000  0.000  0.000  0.000  1.000
    occupations:
  0.000  0.000  0.000  0.000  0.000
  0.000  0.000  0.000  0.000  0.000
  0.000  0.000  0.000  0.000  0.000
  0.000  0.000  0.000  0.000  0.000
  0.000  0.000  0.000  0.000  0.000
   spin  2
    eigenvalues: 
  1.000  1.000  1.000  1.000  1.000
    eigenvectors:
  1.000  0.000  0.000  0.000  0.000
  0.000  1.000  0.000  0.000  0.000
  0.000  0.000  1.000  0.000  0.000
  0.000  0.000  0.000  1.000  0.000
  0.000  0.000  0.000  0.000  1.000
    occupations:
  1.000  0.000  0.000  0.000  0.000
  0.000  1.000  0.000  0.000  0.000
  0.000  0.000  1.000  0.000  0.000
  0.000  0.000  0.000  1.000  0.000
  0.000  0.000  0.000  0.000  1.000
atomic mag. moment =    -5.000000
atom    4   Tr[ns(na)] (up, down, total) =   5.00000  0.00000  5.00000
   spin  1
    eigenvalues: 
  1.000  1.000  1.000  1.000  1.000
    eigenvectors:
  1.000  0.000  0.000  0.000  0.000
  0.000  1.000  0.000  0.000  0.000
  0.000  0.000  1.000  0.000  0.000
  0.000  0.000  0.000  1.000  0.000
  0.000  0.000  0.000  0.000  1.000
    occupations:
  1.000  0.000  0.000  0.000  0.000
  0.000  1.000  0.000  0.000  0.000
  0.000  0.000  1.000  0.000  0.000
  0.000  0.000  0.000  1.000  0.000
  0.000  0.000  0.000  0.000  1.000
   spin  2
    eigenvalues: 
  0.000  0.000  0.000  0.000  0.000
    eigenvectors:
  1.000  0.000  0.000  0.000  0.000
  0.000  1.000  0.000  0.000  0.000
  0.000  0.000  1.000  0.000  0.000
  0.000  0.000  0.000  1.000  0.000
  0.000  0.000  0.000  0.000  1.000
    occupations:
  0.000  0.000  0.000  0.000  0.000
  0.000  0.000  0.000  0.000  0.000
  0.000  0.000  0.000  0.000  0.000
  0.000  0.000  0.000  0.000  0.000
  0.000  0.000  0.000  0.000  0.000
atomic mag. moment =     5.000000
atom    5   Tr[ns(na)] (up, down, total) =   0.00000  5.00000  5.00000
   spin  1
    eigenvalues: 
  0.000  0.000  0.000  0.000  0.000
    eigenvectors:
  1.000  0.000  0.000  0.000  0.000
  0.000  1.000  0.000  0.000  0.000
  0.000  0.000  1.000  0.000  0.000
  0.000  0.000  0.000  1.000  0.000
  0.000  0.000  0.000  0.000  1.000
    occupations:
  0.000  0.000  0.000  0.000  0.000
  0.000  0.000  0.000  0.000  0.000
  0.000  0.000  0.000  0.000  0.000
  0.000  0.000  0.000  0.000  0.000
  0.000  0.000  0.000  0.000  0.000
   spin  2
    eigenvalues: 
  1.000  1.000  1.000  1.000  1.000
    eigenvectors:
  1.000  0.000  0.000  0.000  0.000
  0.000  1.000  0.000  0.000  0.000
  0.000  0.000  1.000  0.000  0.000
  0.000  0.000  0.000  1.000  0.000
  0.000  0.000  0.000  0.000  1.000
    occupations:
  1.000  0.000  0.000  0.000  0.000
  0.000  1.000  0.000  0.000  0.000
  0.000  0.000  1.000  0.000  0.000
  0.000  0.000  0.000  1.000  0.000
  0.000  0.000  0.000  0.000  1.000
atomic mag. moment =    -5.000000
atom    6   Tr[ns(na)] (up, down, total) =   0.00000  5.00000  5.00000
   spin  1
    eigenvalues: 
  0.000  0.000  0.000  0.000  0.000
    eigenvectors:
  1.000  0.000  0.000  0.000  0.000
  0.000  1.000  0.000  0.000  0.000
  0.000  0.000  1.000  0.000  0.000
  0.000  0.000  0.000  1.000  0.000
  0.000  0.000  0.000  0.000  1.000
    occupations:
  0.000  0.000  0.000  0.000  0.000
  0.000  0.000  0.000  0.000  0.000
  0.000  0.000  0.000  0.000  0.000
  0.000  0.000  0.000  0.000  0.000
  0.000  0.000  0.000  0.000  0.000
   spin  2
    eigenvalues: 
  1.000  1.000  1.000  1.000  1.000
    eigenvectors:
  1.000  0.000  0.000  0.000  0.000
  0.000  1.000  0.000  0.000  0.000
  0.000  0.000  1.000  0.000  0.000
  0.000  0.000  0.000  1.000  0.000
  0.000  0.000  0.000  0.000  1.000
    occupations:
  1.000  0.000  0.000  0.000  0.000
  0.000  1.000  0.000  0.000  0.000
  0.000  0.000  1.000  0.000  0.000
  0.000  0.000  0.000  1.000  0.000
  0.000  0.000  0.000  0.000  1.000
atomic mag. moment =    -5.000000
atom    7   Tr[ns(na)] (up, down, total) =   5.00000  0.00000  5.00000
   spin  1
    eigenvalues: 
  1.000  1.000  1.000  1.000  1.000
    eigenvectors:
  1.000  0.000  0.000  0.000  0.000
  0.000  1.000  0.000  0.000  0.000
  0.000  0.000  1.000  0.000  0.000
  0.000  0.000  0.000  1.000  0.000
  0.000  0.000  0.000  0.000  1.000
    occupations:
  1.000  0.000  0.000  0.000  0.000
  0.000  1.000  0.000  0.000  0.000
  0.000  0.000  1.000  0.000  0.000
  0.000  0.000  0.000  1.000  0.000
  0.000  0.000  0.000  0.000  1.000
   spin  2
    eigenvalues: 
  0.000  0.000  0.000  0.000  0.000
    eigenvectors:
  1.000  0.000  0.000  0.000  0.000
  0.000  1.000  0.000  0.000  0.000
  0.000  0.000  1.000  0.000  0.000
  0.000  0.000  0.000  1.000  0.000
  0.000  0.000  0.000  0.000  1.000
    occupations:
  0.000  0.000  0.000  0.000  0.000
  0.000  0.000  0.000  0.000  0.000
  0.000  0.000  0.000  0.000  0.000
  0.000  0.000  0.000  0.000  0.000
  0.000  0.000  0.000  0.000  0.000
atomic mag. moment =     5.000000
atom    8   Tr[ns(na)] (up, down, total) =   5.00000  0.00000  5.00000
   spin  1
    eigenvalues: 
  1.000  1.000  1.000  1.000  1.000
    eigenvectors:
  1.000  0.000  0.000  0.000  0.000
  0.000  1.000  0.000  0.000  0.000
  0.000  0.000  1.000  0.000  0.000
  0.000  0.000  0.000  1.000  0.000
  0.000  0.000  0.000  0.000  1.000
    occupations:
  1.000  0.000  0.000  0.000  0.000
  0.000  1.000  0.000  0.000  0.000
  0.000  0.000  1.000  0.000  0.000
  0.000  0.000  0.000  1.000  0.000
  0.000  0.000  0.000  0.000  1.000
   spin  2
    eigenvalues: 
  0.000  0.000  0.000  0.000  0.000
    eigenvectors:
  1.000  0.000  0.000  0.000  0.000
  0.000  1.000  0.000  0.000  0.000
  0.000  0.000  1.000  0.000  0.000
  0.000  0.000  0.000  1.000  0.000
  0.000  0.000  0.000  0.000  1.000
    occupations:
  0.000  0.000  0.000  0.000  0.000
  0.000  0.000  0.000  0.000  0.000
  0.000  0.000  0.000  0.000  0.000
  0.000  0.000  0.000  0.000  0.000
  0.000  0.000  0.000  0.000  0.000
atomic mag. moment =     5.000000
N of occupied +U levels =   40.000000
 --- exit write_ns ---
 Atomic wfc used for LDA+U Projector are NOT orthogonalized
     Starting wfcs are  224 randomized atomic wfcs
     Checking if some PAW data can be deallocated... 

     total cpu time spent up to now is       23.3 secs

     Self-consistent Calculation

     iteration #  1     ecut=    45.00 Ry     beta= 0.10
     Davidson diagonalization with overlap
     ethr =  1.00E-02,  avg # of iterations =  4.5
 --- enter write_ns ---
 LDA+U parameters:
U(  1) =   3.1200   J(  1) =   0.7000   B(  1) =   0.0803
U(  2) =   3.1200   J(  2) =   0.7000   B(  2) =   0.0803
atom    1   Tr[ns(na)] (up, down, total) =   5.01493  0.27292  5.28785
   spin  1
    eigenvalues: 
  1.003  1.003  1.003  1.003  1.004
    eigenvectors:
  0.001  0.000  0.001  0.997  0.001
  0.001  0.853  0.146  0.000  0.000
  0.001  0.146  0.853  0.001  0.000
  0.000  0.000  0.000  0.001  0.999
  0.997  0.002  0.000  0.001  0.000
    occupations:
  1.003 -0.000 -0.000  0.000  0.000
 -0.000  1.003  0.000  0.000 -0.000
 -0.000  0.000  1.003  0.000  0.000
  0.000  0.000  0.000  1.004  0.000
  0.000 -0.000  0.000  0.000  1.003
   spin  2
    eigenvalues: 
  0.040  0.051  0.054  0.055  0.072
    eigenvectors:
  0.008  0.935  0.012  0.045  0.000
  0.000  0.056  0.368  0.573  0.003
  0.000  0.002  0.618  0.375  0.005
  0.992  0.007  0.001  0.000  0.000
  0.000  0.000  0.000  0.007  0.992
    occupations:
  0.051  0.001  0.000 -0.001  0.000
  0.001  0.055  0.001 -0.000  0.001
  0.000  0.001  0.055  0.000  0.001
 -0.001 -0.000  0.000  0.040 -0.000
  0.000  0.001  0.001 -0.000  0.072
atomic mag. moment =     4.742012
atom    2   Tr[ns(na)] (up, down, total) =   5.01493  0.27292  5.28785
   spin  1
    eigenvalues: 
  1.003  1.003  1.003  1.003  1.004
    eigenvectors:
  0.001  0.000  0.001  0.997  0.001
  0.001  0.146  0.853  0.001  0.000
  0.001  0.853  0.146  0.000  0.000
  0.000  0.000  0.000  0.001  0.999
  0.997  0.002  0.000  0.001  0.000
    occupations:
  1.003 -0.000 -0.000 -0.000  0.000
 -0.000  1.003  0.000 -0.000  0.000
 -0.000  0.000  1.003 -0.000 -0.000
 -0.000 -0.000 -0.000  1.004 -0.000
  0.000  0.000 -0.000 -0.000  1.003
   spin  2
    eigenvalues: 
  0.040  0.051  0.054  0.055  0.072
    eigenvectors:
  0.008  0.935  0.012  0.045  0.000
  0.000  0.002  0.618  0.375  0.005
  0.000  0.056  0.368  0.573  0.003
  0.992  0.007  0.001  0.000  0.000
  0.000  0.000  0.000  0.007  0.992
    occupations:
  0.051  0.000  0.001  0.001  0.000
  0.000  0.055  0.001 -0.000  0.001
  0.001  0.001  0.055  0.000  0.001
  0.001 -0.000  0.000  0.040  0.000
  0.000  0.001  0.001  0.000  0.072
atomic mag. moment =     4.742012
atom    3   Tr[ns(na)] (up, down, total) =   0.27462  5.01488  5.28951
   spin  1
    eigenvalues: 
  0.041  0.053  0.055  0.055  0.071
    eigenvectors:
  0.000  0.955  0.000  0.045  0.001
  0.000  0.022  0.500  0.473  0.006
  0.000  0.022  0.500  0.473  0.006
  1.000  0.000  0.000  0.000  0.000
  0.000  0.002  0.000  0.009  0.988
    occupations:
  0.053  0.000  0.000 -0.000 -0.000
  0.000  0.055  0.000 -0.000  0.001
  0.000  0.000  0.055  0.000  0.001
 -0.000 -0.000  0.000  0.041 -0.000
 -0.000  0.001  0.001 -0.000  0.070
   spin  2
    eigenvalues: 
  1.003  1.003  1.003  1.003  1.004
    eigenvectors:
  0.000  0.000  0.001  0.999  0.000
  0.000  0.500  0.500  0.000  0.000
  0.000  0.500  0.500  0.000  0.000
  0.000  0.000  0.000  0.000  1.000
  1.000  0.000  0.000  0.000  0.000
    occupations:
  1.003 -0.000 -0.000 -0.000  0.000
 -0.000  1.003  0.000  0.000  0.000
 -0.000  0.000  1.003 -0.000  0.000
 -0.000  0.000 -0.000  1.004 -0.000
  0.000  0.000  0.000 -0.000  1.003
atomic mag. moment =    -4.740259
atom    4   Tr[ns(na)] (up, down, total) =   5.01456  0.27461  5.28917
   spin  1
    eigenvalues: 
  1.002  1.003  1.003  1.003  1.003
    eigenvectors:
  0.000  0.000  0.000  1.000  0.000
  0.000  0.500  0.500  0.000  0.000
  0.000  0.500  0.500  0.000  0.000
  0.000  0.000  0.000  0.000  1.000
  1.000  0.000  0.000  0.000  0.000
    occupations:
  1.003  0.000  0.000 -0.000 -0.000
  0.000  1.003  0.000  0.000 -0.000
  0.000  0.000  1.003 -0.000 -0.000
 -0.000  0.000 -0.000  1.003 -0.000
 -0.000 -0.000 -0.000 -0.000  1.002
   spin  2
    eigenvalues: 
  0.041  0.052  0.054  0.055  0.072
    eigenvectors:
  0.000  0.950  0.049  0.000  0.002
  0.000  0.024  0.476  0.500  0.000
  0.000  0.024  0.476  0.500  0.000
  1.000  0.000  0.000  0.000  0.000
  0.000  0.002  0.000  0.000  0.998
    occupations:
  0.052  0.000  0.000 -0.000 -0.001
  0.000  0.055 -0.001  0.000  0.000
  0.000 -0.001  0.055 -0.000  0.000
 -0.000  0.000 -0.000  0.041 -0.000
 -0.001  0.000  0.000 -0.000  0.072
atomic mag. moment =     4.739951
atom    5   Tr[ns(na)] (up, down, total) =   0.27603  5.01488  5.29091
   spin  1
    eigenvalues: 
  0.042  0.053  0.054  0.055  0.071
    eigenvectors:
  0.006  0.758  0.216  0.018  0.002
  0.000  0.084  0.524  0.387  0.005
  0.000  0.153  0.257  0.586  0.003
  0.994  0.003  0.003  0.000  0.000
  0.000  0.001  0.000  0.009  0.990
    occupations:
  0.054  0.000  0.000  0.001  0.001
  0.000  0.054  0.001 -0.000  0.001
  0.000  0.001  0.055  0.000  0.001
  0.001 -0.000  0.000  0.042 -0.000
  0.001  0.001  0.001 -0.000  0.071
   spin  2
    eigenvalues: 
  1.003  1.003  1.003  1.003  1.004
    eigenvectors:
  0.000  0.000  0.002  0.993  0.005
  0.004  0.232  0.762  0.002  0.000
  0.000  0.766  0.234  0.000  0.000
  0.000  0.000  0.000  0.005  0.995
  0.996  0.002  0.002  0.000  0.000
    occupations:
  1.003  0.000 -0.000 -0.000  0.000
  0.000  1.003 -0.000 -0.000  0.000
 -0.000 -0.000  1.003 -0.000  0.000
 -0.000 -0.000 -0.000  1.004 -0.000
  0.000  0.000  0.000 -0.000  1.003
atomic mag. moment =    -4.738853
atom    6   Tr[ns(na)] (up, down, total) =   0.27603  5.01488  5.29091
   spin  1
    eigenvalues: 
  0.042  0.053  0.054  0.055  0.071
    eigenvectors:
  0.006  0.758  0.216  0.018  0.002
  0.000  0.153  0.257  0.586  0.003
  0.000  0.084  0.524  0.387  0.005
  0.994  0.003  0.003  0.000  0.000
  0.000  0.001  0.000  0.009  0.990
    occupations:
  0.054  0.000  0.000 -0.001  0.001
  0.000  0.055  0.001 -0.000  0.001
  0.000  0.001  0.054  0.000  0.001
 -0.001 -0.000  0.000  0.042  0.000
  0.001  0.001  0.001  0.000  0.071
   spin  2
    eigenvalues: 
  1.003  1.003  1.003  1.003  1.004
    eigenvectors:
  0.000  0.000  0.002  0.993  0.005
  0.000  0.766  0.234  0.000  0.000
  0.004  0.232  0.762  0.002  0.000
  0.000  0.000  0.000  0.005  0.995
  0.996  0.002  0.002  0.000  0.000
    occupations:
  1.003 -0.000  0.000  0.000  0.000
 -0.000  1.003 -0.000  0.000  0.000
  0.000 -0.000  1.003  0.000  0.000
  0.000  0.000  0.000  1.004  0.000
  0.000  0.000  0.000  0.000  1.003
atomic mag. moment =    -4.738853
atom    7   Tr[ns(na)] (up, down, total) =   5.01484  0.27641  5.29125
   spin  1
    eigenvalues: 
  1.003  1.003  1.003  1.003  1.004
    eigenvectors:
  0.000  0.000  0.000  1.000  0.000
  0.000  0.500  0.500  0.000  0.000
  0.000  0.500  0.500  0.000  0.000
  0.000  0.000  0.000  0.000  1.000
  0.999  0.000  0.000  0.000  0.000
    occupations:
  1.003  0.000  0.000 -0.000  0.000
  0.000  1.003 -0.000 -0.000  0.000
  0.000 -0.000  1.003  0.000  0.000
 -0.000 -0.000  0.000  1.004 -0.000
  0.000  0.000  0.000 -0.000  1.003
   spin  2
    eigenvalues: 
  0.041  0.053  0.054  0.056  0.072
    eigenvectors:
  0.000  0.932  0.000  0.067  0.000
  0.000  0.034  0.500  0.461  0.005
  0.000  0.034  0.500  0.461  0.005
  1.000  0.000  0.000  0.000  0.000
  0.000  0.000  0.000  0.011  0.989
    occupations:
  0.053  0.001  0.001 -0.000  0.000
  0.001  0.055  0.001 -0.000  0.001
  0.001  0.001  0.055  0.000  0.001
 -0.000 -0.000  0.000  0.041 -0.000
  0.000  0.001  0.001 -0.000  0.072
atomic mag. moment =     4.738430
atom    8   Tr[ns(na)] (up, down, total) =   5.01477  0.27266  5.28743
   spin  1
    eigenvalues: 
  1.003  1.003  1.003  1.003  1.004
    eigenvectors:
  0.000  0.000  0.000  1.000  0.000
  0.000  0.500  0.500  0.000  0.000
  0.000  0.500  0.500  0.000  0.000
  0.000  0.001  0.000  0.000  0.999
  0.999  0.000  0.001  0.000  0.000
    occupations:
  1.003 -0.000 -0.000 -0.000  0.000
 -0.000  1.003  0.000 -0.000 -0.000
 -0.000  0.000  1.003  0.000 -0.000
 -0.000 -0.000  0.000  1.004 -0.000
  0.000 -0.000 -0.000 -0.000  1.003
   spin  2
    eigenvalues: 
  0.041  0.050  0.054  0.054  0.073
    eigenvectors:
  0.000  0.991  0.000  0.009  0.000
  0.000  0.004  0.500  0.495  0.000
  0.000  0.004  0.500  0.495  0.000
  0.999  0.000  0.001  0.000  0.000
  0.000  0.000  0.000  0.000  0.999
    occupations:
  0.050  0.000  0.000 -0.000 -0.000
  0.000  0.054  0.000 -0.000  0.000
  0.000  0.000  0.054  0.000  0.000
 -0.000 -0.000  0.000  0.041 -0.000
 -0.000  0.000  0.000 -0.000  0.073
atomic mag. moment =     4.742115
N of occupied +U levels =   42.314878
 --- exit write_ns ---

     total cpu time spent up to now is       92.2 secs

     total energy              =  -14679.20560819 Ry
     Harris-Foulkes estimate   =  -14669.80229688 Ry
     estimated scf accuracy    <      21.27953802 Ry

     total magnetization       =    10.52 Bohr mag/cell
     absolute magnetization    =    43.54 Bohr mag/cell

     iteration #  2     ecut=    45.00 Ry     beta= 0.10
     Davidson diagonalization with overlap
     ethr =  7.19E-03,  avg # of iterations =  1.0

     total cpu time spent up to now is      127.8 secs

     total energy              =  -14692.15058650 Ry
     Harris-Foulkes estimate   =  -14679.31036701 Ry
     estimated scf accuracy    <      17.16894785 Ry

     total magnetization       =    10.38 Bohr mag/cell
     absolute magnetization    =    43.11 Bohr mag/cell

     iteration #  3     ecut=    45.00 Ry     beta= 0.10
     Davidson diagonalization with overlap
     ethr =  5.80E-03,  avg # of iterations =  2.1

     total cpu time spent up to now is      171.6 secs

     total energy              =  -14693.83302478 Ry
     Harris-Foulkes estimate   =  -14693.76519548 Ry
     estimated scf accuracy    <       4.09684340 Ry

     total magnetization       =     9.28 Bohr mag/cell
     absolute magnetization    =    39.26 Bohr mag/cell

     iteration #  4     ecut=    45.00 Ry     beta= 0.10
     Davidson diagonalization with overlap
     ethr =  1.38E-03,  avg # of iterations =  5.6

     total cpu time spent up to now is      236.8 secs

     total energy              =  -14693.47197769 Ry
     Harris-Foulkes estimate   =  -14693.87418135 Ry
     estimated scf accuracy    <       4.39473481 Ry

     total magnetization       =     9.23 Bohr mag/cell
     absolute magnetization    =    39.03 Bohr mag/cell

     iteration #  5     ecut=    45.00 Ry     beta= 0.10
     Davidson diagonalization with overlap
     ethr =  1.38E-03,  avg # of iterations =  4.4

     total cpu time spent up to now is      299.5 secs

     total energy              =  -14693.85289927 Ry
     Harris-Foulkes estimate   =  -14693.83112186 Ry
     estimated scf accuracy    <       0.31468660 Ry

     total magnetization       =     8.85 Bohr mag/cell
     absolute magnetization    =    38.25 Bohr mag/cell

     iteration #  6     ecut=    45.00 Ry     beta= 0.10
     Davidson diagonalization with overlap
     ethr =  1.06E-04,  avg # of iterations =  4.0

     total cpu time spent up to now is      377.3 secs

     total energy              =  -14693.96225238 Ry
     Harris-Foulkes estimate   =  -14693.94331945 Ry
     estimated scf accuracy    <       0.27782362 Ry

     total magnetization       =     8.39 Bohr mag/cell
     absolute magnetization    =    37.14 Bohr mag/cell

     iteration #  7     ecut=    45.00 Ry     beta= 0.10
     Davidson diagonalization with overlap
     ethr =  9.39E-05,  avg # of iterations =  1.0

     total cpu time spent up to now is      412.9 secs

     total energy              =  -14693.92457471 Ry
     Harris-Foulkes estimate   =  -14693.97048115 Ry
     estimated scf accuracy    <       0.56786994 Ry

     total magnetization       =     8.28 Bohr mag/cell
     absolute magnetization    =    37.08 Bohr mag/cell

     iteration #  8     ecut=    45.00 Ry     beta= 0.10
     Davidson diagonalization with overlap
     ethr =  9.39E-05,  avg # of iterations =  1.1

     total cpu time spent up to now is      448.9 secs

     total energy              =  -14693.92976624 Ry
     Harris-Foulkes estimate   =  -14693.93923610 Ry
     estimated scf accuracy    <       0.18000699 Ry

     total magnetization       =     8.41 Bohr mag/cell
     absolute magnetization    =    37.12 Bohr mag/cell

     iteration #  9     ecut=    45.00 Ry     beta= 0.10
     Davidson diagonalization with overlap
     ethr =  6.08E-05,  avg # of iterations =  1.9

     total cpu time spent up to now is      489.1 secs

     total energy              =  -14693.93234554 Ry
     Harris-Foulkes estimate   =  -14693.93745462 Ry
     estimated scf accuracy    <       0.05312945 Ry

     total magnetization       =     8.40 Bohr mag/cell
     absolute magnetization    =    37.05 Bohr mag/cell

     iteration # 10     ecut=    45.00 Ry     beta= 0.10
     Davidson diagonalization with overlap
     ethr =  1.79E-05,  avg # of iterations =  2.7

     total cpu time spent up to now is      536.3 secs

     total energy              =  -14693.93958000 Ry
     Harris-Foulkes estimate   =  -14693.93716337 Ry
     estimated scf accuracy    <       0.00727397 Ry

     total magnetization       =     8.40 Bohr mag/cell
     absolute magnetization    =    37.04 Bohr mag/cell

     iteration # 11     ecut=    45.00 Ry     beta= 0.10
     Davidson diagonalization with overlap
     ethr =  2.46E-06,  avg # of iterations =  4.9

     total cpu time spent up to now is      598.1 secs

     total energy              =  -14693.94048156 Ry
     Harris-Foulkes estimate   =  -14693.94009776 Ry
     estimated scf accuracy    <       0.00552711 Ry

     total magnetization       =     8.35 Bohr mag/cell
     absolute magnetization    =    36.92 Bohr mag/cell

     iteration # 12     ecut=    45.00 Ry     beta= 0.10
     Davidson diagonalization with overlap
     ethr =  1.87E-06,  avg # of iterations =  1.1

     total cpu time spent up to now is      634.2 secs

     total energy              =  -14693.94166151 Ry
     Harris-Foulkes estimate   =  -14693.94075162 Ry
     estimated scf accuracy    <       0.00161783 Ry

     total magnetization       =     8.35 Bohr mag/cell
     absolute magnetization    =    36.93 Bohr mag/cell

     iteration # 13     ecut=    45.00 Ry     beta= 0.10
     Davidson diagonalization with overlap
     ethr =  5.47E-07,  avg # of iterations =  2.2

     total cpu time spent up to now is      677.6 secs

     total energy              =  -14693.94184561 Ry
     Harris-Foulkes estimate   =  -14693.94182715 Ry
     estimated scf accuracy    <       0.00086884 Ry

     total magnetization       =     8.32 Bohr mag/cell
     absolute magnetization    =    36.86 Bohr mag/cell

     iteration # 14     ecut=    45.00 Ry     beta= 0.10
     Davidson diagonalization with overlap
     ethr =  2.94E-07,  avg # of iterations =  2.0

     total cpu time spent up to now is      718.4 secs

     total energy              =  -14693.94189559 Ry
     Harris-Foulkes estimate   =  -14693.94191172 Ry
     estimated scf accuracy    <       0.00023786 Ry

     total magnetization       =     8.31 Bohr mag/cell
     absolute magnetization    =    36.85 Bohr mag/cell

     iteration # 15     ecut=    45.00 Ry     beta= 0.10
     Davidson diagonalization with overlap
     ethr =  8.04E-08,  avg # of iterations =  3.1

     total cpu time spent up to now is      779.8 secs

     total energy              =  -14693.94199018 Ry
     Harris-Foulkes estimate   =  -14693.94200388 Ry
     estimated scf accuracy    <       0.00021642 Ry

     total magnetization       =     8.31 Bohr mag/cell
     absolute magnetization    =    36.86 Bohr mag/cell

     iteration # 16     ecut=    45.00 Ry     beta= 0.10
     Davidson diagonalization with overlap
     ethr =  7.31E-08,  avg # of iterations =  2.0

     total cpu time spent up to now is      821.1 secs

     total energy              =  -14693.94200279 Ry
     Harris-Foulkes estimate   =  -14693.94199268 Ry
     estimated scf accuracy    <       0.00001898 Ry

     total magnetization       =     8.30 Bohr mag/cell
     absolute magnetization    =    36.84 Bohr mag/cell

     iteration # 17     ecut=    45.00 Ry     beta= 0.10
     Davidson diagonalization with overlap
     ethr =  6.41E-09,  avg # of iterations =  2.4

     total cpu time spent up to now is      865.0 secs

     total energy              =  -14693.94200838 Ry
     Harris-Foulkes estimate   =  -14693.94200170 Ry
     estimated scf accuracy    <       0.00000829 Ry

     total magnetization       =     8.29 Bohr mag/cell
     absolute magnetization    =    36.84 Bohr mag/cell

     iteration # 18     ecut=    45.00 Ry     beta= 0.10
     Davidson diagonalization with overlap
     ethr =  2.80E-09,  avg # of iterations =  1.1

     total cpu time spent up to now is      901.1 secs

     total energy              =  -14693.94201386 Ry
     Harris-Foulkes estimate   =  -14693.94200712 Ry
     estimated scf accuracy    <       0.00000619 Ry

     total magnetization       =     8.29 Bohr mag/cell
     absolute magnetization    =    36.83 Bohr mag/cell

     iteration # 19     ecut=    45.00 Ry     beta= 0.10
     Davidson diagonalization with overlap
     ethr =  2.09E-09,  avg # of iterations =  2.4

     total cpu time spent up to now is      944.4 secs

     total energy              =  -14693.94201473 Ry
     Harris-Foulkes estimate   =  -14693.94201085 Ry
     estimated scf accuracy    <       0.00000161 Ry

     total magnetization       =     8.29 Bohr mag/cell
     absolute magnetization    =    36.83 Bohr mag/cell

     iteration # 20     ecut=    45.00 Ry     beta= 0.10
     Davidson diagonalization with overlap
     ethr =  5.44E-10,  avg # of iterations =  3.0
 
     Magnetic moment per site:
     atom:    1    charge:   13.5449    magn:    4.1948    constr:    0.0000
     atom:    2    charge:   13.5449    magn:    4.1948    constr:    0.0000
     atom:    3    charge:   13.5362    magn:   -4.2491    constr:    0.0000
     atom:    4    charge:   13.5413    magn:    4.2117    constr:    0.0000
     atom:    5    charge:   13.5334    magn:   -4.2694    constr:    0.0000
     atom:    6    charge:   13.5334    magn:   -4.2694    constr:    0.0000
     atom:    7    charge:   13.5436    magn:    4.2124    constr:    0.0000
     atom:    8    charge:   13.5425    magn:    4.2013    constr:    0.0000
     atom:    9    charge:    9.0908    magn:   -0.0126    constr:    0.0000
     atom:   10    charge:    9.0908    magn:   -0.0126    constr:    0.0000
     atom:   11    charge:    9.0930    magn:   -0.0287    constr:    0.0000
     atom:   12    charge:    9.0921    magn:   -0.0066    constr:    0.0000
     atom:   13    charge:    9.0910    magn:    0.0214    constr:    0.0000
     atom:   14    charge:    9.0910    magn:    0.0214    constr:    0.0000
     atom:   15    charge:    9.0904    magn:    0.0433    constr:    0.0000
     atom:   16    charge:    9.0903    magn:   -0.0004    constr:    0.0000
     atom:   17    charge:    9.0901    magn:   -0.0012    constr:    0.0000
     atom:   18    charge:    9.0901    magn:   -0.0012    constr:    0.0000
     atom:   19    charge:    9.0928    magn:   -0.0403    constr:    0.0000
     atom:   20    charge:    9.0934    magn:   -0.0056    constr:    0.0000
     atom:   21    charge:    9.0915    magn:    0.0088    constr:    0.0000
     atom:   22    charge:    9.0915    magn:    0.0088    constr:    0.0000
     atom:   23    charge:    9.0905    magn:    0.0177    constr:    0.0000
     atom:   24    charge:    9.0899    magn:    0.0372    constr:    0.0000

     total cpu time spent up to now is      991.6 secs

     End of self-consistent calculation
 --- enter write_ns ---
 LDA+U parameters:
U(  1) =   3.1200   J(  1) =   0.7000   B(  1) =   0.0803
U(  2) =   3.1200   J(  2) =   0.7000   B(  2) =   0.0803
atom    1   Tr[ns(na)] (up, down, total) =   4.96522  0.77063  5.73584
   spin  1
    eigenvalues: 
  0.983  0.992  0.992  0.996  1.002
    eigenvectors:
  0.000  0.033  0.002  0.962  0.003
  0.000  0.642  0.328  0.030  0.000
  0.000  0.325  0.670  0.005  0.000
  0.000  0.000  0.000  0.003  0.997
  0.999  0.000  0.001  0.000  0.000
    occupations:
  0.996 -0.001 -0.000  0.000  0.000
 -0.001  0.992 -0.000 -0.000 -0.000
 -0.000 -0.000  0.992 -0.000  0.000
  0.000 -0.000 -0.000  1.002 -0.000
  0.000 -0.000  0.000 -0.000  0.983
   spin  2
    eigenvalues: 
  0.067  0.129  0.149  0.157  0.267
    eigenvectors:
  0.000  0.994  0.000  0.003  0.002
  0.000  0.000  0.999  0.000  0.000
  0.000  0.003  0.000  0.990  0.007
  1.000  0.000  0.000  0.000  0.000
  0.000  0.002  0.000  0.006  0.992
    occupations:
  0.130  0.000 -0.001 -0.000  0.006
  0.000  0.149 -0.000 -0.001 -0.002
 -0.001 -0.000  0.158 -0.001  0.009
 -0.000 -0.001 -0.001  0.067  0.000
  0.006 -0.002  0.009  0.000  0.266
atomic mag. moment =     4.194591
atom    2   Tr[ns(na)] (up, down, total) =   4.96522  0.77063  5.73584
   spin  1
    eigenvalues: 
  0.983  0.992  0.992  0.996  1.002
    eigenvectors:
  0.000  0.033  0.002  0.962  0.003
  0.000  0.325  0.670  0.005  0.000
  0.000  0.642  0.328  0.030  0.000
  0.000  0.000  0.000  0.003  0.997
  0.999  0.000  0.001  0.000  0.000
    occupations:
  0.996 -0.000 -0.001 -0.000  0.000
 -0.000  0.992 -0.000  0.000  0.000
 -0.001 -0.000  0.992  0.000 -0.000
 -0.000  0.000  0.000  1.002  0.000
  0.000  0.000 -0.000  0.000  0.983
   spin  2
    eigenvalues: 
  0.067  0.129  0.149  0.157  0.267
    eigenvectors:
  0.000  0.994  0.000  0.003  0.002
  0.000  0.003  0.000  0.990  0.007
  0.000  0.000  0.999  0.000  0.000
  1.000  0.000  0.000  0.000  0.000
  0.000  0.002  0.000  0.006  0.992
    occupations:
  0.130 -0.001  0.000  0.000  0.006
 -0.001  0.158 -0.000  0.001  0.009
  0.000 -0.000  0.149  0.001 -0.002
  0.000  0.001  0.001  0.067 -0.000
  0.006  0.009 -0.002 -0.000  0.266
atomic mag. moment =     4.194591
atom    3   Tr[ns(na)] (up, down, total) =   0.72687  4.96987  5.69673
   spin  1
    eigenvalues: 
  0.069  0.121  0.145  0.146  0.245
    eigenvectors:
  0.000  0.957  0.038  0.000  0.005
  0.000  0.021  0.467  0.500  0.012
  0.000  0.021  0.467  0.500  0.012
  1.000  0.000  0.000  0.000  0.000
  0.000  0.002  0.027  0.000  0.971
    occupations:
  0.123  0.004  0.004 -0.000  0.008
  0.004  0.146  0.000 -0.001  0.011
  0.004  0.000  0.146  0.001  0.011
 -0.000 -0.001  0.001  0.069 -0.000
  0.008  0.011  0.011 -0.000  0.242
   spin  2
    eigenvalues: 
  0.986  0.992  0.993  0.997  1.002
    eigenvectors:
  0.003  0.000  0.049  0.948  0.000
  0.001  0.500  0.474  0.025  0.000
  0.001  0.500  0.474  0.025  0.000
  0.000  0.000  0.000  0.000  1.000
  0.995  0.000  0.003  0.002  0.000
    occupations:
  0.997 -0.001 -0.001 -0.000 -0.001
 -0.001  0.993  0.000 -0.000 -0.000
 -0.001  0.000  0.993  0.000 -0.000
 -0.000 -0.000  0.000  1.002 -0.000
 -0.001 -0.000 -0.000 -0.000  0.986
atomic mag. moment =    -4.243004
atom    4   Tr[ns(na)] (up, down, total) =   4.96610  0.75362  5.71972
   spin  1
    eigenvalues: 
  0.983  0.991  0.993  0.997  1.001
    eigenvectors:
  0.001  0.000  0.044  0.955  0.000
  0.001  0.500  0.477  0.022  0.000
  0.001  0.500  0.477  0.022  0.000
  0.000  0.001  0.000  0.000  0.999
  0.997  0.000  0.002  0.001  0.000
    occupations:
  0.997  0.001  0.001 -0.000  0.000
  0.001  0.992  0.001 -0.000  0.000
  0.001  0.001  0.992  0.000  0.000
 -0.000 -0.000  0.000  1.001 -0.000
  0.000  0.000  0.000 -0.000  0.983
   spin  2
    eigenvalues: 
  0.069  0.126  0.150  0.155  0.254
    eigenvectors:
  0.000  0.939  0.048  0.000  0.013
  0.000  0.026  0.470  0.500  0.004
  0.000  0.026  0.470  0.500  0.004
  1.000  0.000  0.000  0.000  0.000
  0.000  0.009  0.012  0.000  0.980
    occupations:
  0.129  0.005  0.005  0.000 -0.014
  0.005  0.152 -0.003 -0.000 -0.006
  0.005 -0.003  0.152  0.000 -0.006
  0.000 -0.000  0.000  0.069 -0.000
 -0.014 -0.006 -0.006 -0.000  0.252
atomic mag. moment =     4.212485
atom    5   Tr[ns(na)] (up, down, total) =   0.71185  4.97220  5.68405
   spin  1
    eigenvalues: 
  0.071  0.127  0.136  0.144  0.234
    eigenvectors:
  0.000  0.991  0.002  0.002  0.005
  0.000  0.000  0.380  0.583  0.037
  0.003  0.004  0.605  0.388  0.000
  0.997  0.001  0.002  0.001  0.000
  0.000  0.005  0.012  0.027  0.957
    occupations:
  0.128  0.002  0.001 -0.001  0.007
  0.002  0.145  0.004 -0.000  0.018
  0.001  0.004  0.139  0.003  0.000
 -0.001 -0.000  0.003  0.071 -0.000
  0.007  0.018  0.000 -0.000  0.230
   spin  2
    eigenvalues: 
  0.986  0.993  0.994  0.997  1.002
    eigenvectors:
  0.011  0.052  0.002  0.932  0.003
  0.010  0.345  0.633  0.012  0.000
  0.001  0.590  0.362  0.046  0.001
  0.000  0.000  0.000  0.003  0.996
  0.978  0.012  0.003  0.007  0.000
    occupations:
  0.997 -0.001 -0.001 -0.000 -0.001
 -0.001  0.994 -0.001  0.000 -0.001
 -0.001 -0.001  0.994  0.000 -0.000
 -0.000  0.000  0.000  1.002 -0.000
 -0.001 -0.001 -0.000 -0.000  0.986
atomic mag. moment =    -4.260356
atom    6   Tr[ns(na)] (up, down, total) =   0.71185  4.97220  5.68405
   spin  1
    eigenvalues: 
  0.071  0.127  0.136  0.144  0.234
    eigenvectors:
  0.000  0.991  0.002  0.002  0.005
  0.003  0.004  0.605  0.388  0.000
  0.000  0.000  0.380  0.583  0.037
  0.997  0.001  0.002  0.001  0.000
  0.000  0.005  0.012  0.027  0.957
    occupations:
  0.128  0.001  0.002  0.001  0.007
  0.001  0.139  0.004 -0.003  0.000
  0.002  0.004  0.145  0.000  0.018
  0.001 -0.003  0.000  0.071  0.000
  0.007  0.000  0.018  0.000  0.230
   spin  2
    eigenvalues: 
  0.986  0.993  0.994  0.997  1.002
    eigenvectors:
  0.011  0.052  0.002  0.932  0.003
  0.001  0.590  0.362  0.046  0.001
  0.010  0.345  0.633  0.012  0.000
  0.000  0.000  0.000  0.003  0.996
  0.978  0.012  0.003  0.007  0.000
    occupations:
  0.997 -0.001 -0.001  0.000 -0.001
 -0.001  0.994 -0.001 -0.000 -0.000
 -0.001 -0.001  0.994 -0.000 -0.001
  0.000 -0.000 -0.000  1.002  0.000
 -0.001 -0.000 -0.001  0.000  0.986
atomic mag. moment =    -4.260356
atom    7   Tr[ns(na)] (up, down, total) =   4.96732  0.75753  5.72485
   spin  1
    eigenvalues: 
  0.984  0.992  0.994  0.996  1.001
    eigenvectors:
  0.003  0.007  0.000  0.991  0.000
  0.001  0.495  0.500  0.003  0.000
  0.001  0.495  0.500  0.003  0.000
  0.000  0.000  0.000  0.000  1.000
  0.994  0.002  0.000  0.003  0.000
    occupations:
  0.996 -0.000 -0.000 -0.000 -0.001
 -0.000  0.993 -0.001 -0.000  0.000
 -0.000 -0.001  0.993  0.000  0.000
 -0.000 -0.000  0.000  1.001 -0.000
 -0.001  0.000  0.000 -0.000  0.984
   spin  2
    eigenvalues: 
  0.068  0.124  0.150  0.156  0.259
    eigenvectors:
  0.000  0.964  0.034  0.000  0.002
  0.000  0.016  0.479  0.500  0.005
  0.000  0.016  0.479  0.500  0.005
  1.000  0.000  0.000  0.000  0.000
  0.000  0.004  0.008  0.000  0.988
    occupations:
  0.125 -0.003 -0.003 -0.000  0.006
 -0.003  0.153 -0.003 -0.000  0.008
 -0.003 -0.003  0.153  0.000  0.008
 -0.000 -0.000  0.000  0.068 -0.000
  0.006  0.008  0.008 -0.000  0.257
atomic mag. moment =     4.209792
atom    8   Tr[ns(na)] (up, down, total) =   4.96494  0.76406  5.72900
   spin  1
    eigenvalues: 
  0.983  0.992  0.993  0.996  1.001
    eigenvectors:
  0.000  0.000  0.012  0.988  0.000
  0.000  0.500  0.494  0.006  0.000
  0.000  0.500  0.494  0.006  0.000
  0.000  0.000  0.000  0.000  1.000
  1.000  0.000  0.000  0.000  0.000
    occupations:
  0.996  0.000  0.000 -0.000  0.000
  0.000  0.992  0.000  0.000 -0.000
  0.000  0.000  0.992 -0.000 -0.000
 -0.000  0.000 -0.000  1.001 -0.000
  0.000 -0.000 -0.000 -0.000  0.983
   spin  2
    eigenvalues: 
  0.069  0.129  0.151  0.153  0.262
    eigenvectors:
  0.000  0.726  0.273  0.000  0.001
  0.001  0.136  0.351  0.499  0.013
  0.001  0.136  0.351  0.499  0.013
  0.999  0.000  0.000  0.001  0.000
  0.000  0.003  0.025  0.000  0.973
    occupations:
  0.135  0.007  0.007 -0.000 -0.003
  0.007  0.150 -0.003  0.002 -0.013
  0.007 -0.003  0.150 -0.002 -0.013
 -0.000  0.002 -0.002  0.069 -0.000
 -0.003 -0.013 -0.013 -0.000  0.259
atomic mag. moment =     4.200886
N of occupied +U levels =   45.710091
 --- exit write_ns ---

 ------ SPIN UP ------------


          k = 0.0000 0.0000 0.0000 ( 13629 PWs)   bands (ev):

   -66.4070 -66.3845 -66.3631 -66.3492 -66.3488 -61.9001 -61.8997 -61.8803
   -35.1771 -35.1569 -35.1499 -35.1419 -35.1296 -35.1295 -35.1171 -35.1130
   -35.1069 -35.0974 -35.0808 -35.0800 -35.0762 -35.0606 -35.0603 -30.7297
   -30.7295 -30.7270 -30.7268 -30.7209 -30.7208 -30.7106 -30.7034 -30.7030
     5.9506   7.5529   7.6311   8.0871   8.1567   8.3307   8.4418   8.4695
     8.7050   8.7080   9.0399   9.1574   9.3555   9.3821   9.3969   9.4062
     9.4488   9.4649   9.5395   9.5603   9.5675   9.6032   9.6061   9.6298
     9.6399   9.6429   9.7115   9.8300   9.8641   9.9409   9.9464   9.9504
     9.9687  10.0140  10.0159  10.0383  10.0608  10.1199  10.1878  10.2198
    10.2321  10.2656  10.2669  10.3035  10.3135  10.3372  10.4229  10.4244
    10.4863  10.4913  10.5030  10.5092  10.5202  10.5902  10.6270  10.6635
    10.7283  10.7493  10.8418  10.8750  11.0326  11.0744  11.0860  11.1203
    11.1671  11.1676  11.3298  11.3319  11.3715  11.3859  11.4691  11.5718
    11.7162  11.7938  11.8171  11.8187  11.8256  11.8320  11.8707  11.8967
    11.9623  12.0025  12.0144  12.1456  12.2007  12.2296  12.2683  12.2747
    12.2771  12.3268  12.3555  12.3666  12.3695  12.4198  12.4723  12.5125
    12.5215  12.5298  12.5708  12.6282  12.6810  12.6923  12.6970  12.7664
    12.8389  12.9096  12.9419  13.1165  13.1603  13.2260  13.2556  13.2683
    13.2702  13.2988  14.1268  14.5869  15.0443  15.0945  15.3426  15.8499
    16.2755  16.4552  16.6295  16.7464  16.8529  16.8962  17.1047  17.1119
    17.3120  17.3816  17.4329  17.5000  17.7271  17.8131  17.8317  18.1675
    18.3451  18.5964  19.1133  19.1264  19.3408  19.3744  19.4383  19.4518
    19.4579  19.6787

          k = 0.0000 0.0000-0.5441 ( 13704 PWs)   bands (ev):

   -66.4070 -66.3845 -66.3631 -66.3492 -66.3488 -61.9001 -61.8998 -61.8803
   -35.1771 -35.1570 -35.1499 -35.1419 -35.1296 -35.1295 -35.1171 -35.1130
   -35.1069 -35.0975 -35.0808 -35.0800 -35.0762 -35.0606 -35.0603 -30.7297
   -30.7295 -30.7271 -30.7268 -30.7208 -30.7208 -30.7107 -30.7034 -30.7030
     6.5410   7.5933   8.0891   8.1383   8.4270   8.4643   8.7002   8.7143
     8.7522   8.8161   8.9090   8.9354   8.9755   9.0522   9.0643   9.0899
     9.1251   9.1723   9.2369   9.4098   9.5655   9.6213   9.6286   9.6356
     9.6492   9.6854   9.7001   9.7128   9.7363   9.7645   9.7802   9.8446
     9.8662   9.9018   9.9265   9.9630   9.9668   9.9748  10.0215  10.0820
    10.1121  10.2214  10.2688  10.3264  10.3447  10.4139  10.4612  10.5072
    10.5212  10.5631  10.5926  10.5970  10.6893  10.6919  10.8095  10.8283
    10.8903  10.9269  10.9288  10.9462  10.9545  11.1255  11.2269  11.3391
    11.4296  11.4609  11.5116  11.5479  11.5983  11.6427  11.6627  11.6855
    11.7381  11.7668  11.8464  11.8831  11.8863  11.9114  11.9140  11.9420
    11.9484  11.9737  12.0093  12.0670  12.1076  12.1299  12.1540  12.2130
    12.2266  12.2662  12.2831  12.2961  12.3268  12.3574  12.4486  12.4763
    12.5206  12.6158  12.6247  12.6620  12.6628  12.7211  12.7968  12.8218
    12.8713  12.9046  12.9135  13.0443  13.0721  13.1158  13.1367  13.4499
    13.5322  14.0319  14.0485  14.0733  14.1203  14.2994  15.1829  15.1944
    15.6582  15.6795  15.7052  16.8346  16.9970  17.0798  17.0906  17.1650
    17.1844  17.2869  17.4632  17.5304  17.5553  17.7363  17.7669  17.8217
    17.8356  18.1717  18.3368  18.6005  19.0917  19.2107  19.2475  19.2961
    19.3470  19.5164

          k = 0.0000 0.0000 1.0883 ( 13706 PWs)   bands (ev):

   -66.4070 -66.3845 -66.3631 -66.3492 -66.3489 -61.9001 -61.8998 -61.8803
   -35.1771 -35.1570 -35.1499 -35.1419 -35.1297 -35.1295 -35.1171 -35.1130
   -35.1069 -35.0975 -35.0808 -35.0800 -35.0762 -35.0606 -35.0603 -30.7298
   -30.7295 -30.7271 -30.7269 -30.7208 -30.7207 -30.7107 -30.7034 -30.7030
     7.7913   8.0728   8.1143   8.3550   8.4044   8.4395   8.5091   8.6416
     8.7040   8.7080   8.7153   8.8436   8.9061   8.9907   8.9950   9.1102
     9.1365   9.1809   9.2100   9.4296   9.4309   9.4628   9.5194   9.5343
     9.5676   9.6070   9.6689   9.6862   9.7602   9.7650   9.8271   9.8378
     9.9111   9.9494   9.9498   9.9730  10.0213  10.0242  10.0455  10.1153
    10.1155  10.1533  10.2315  10.2510  10.2617  10.2696  10.2813  10.2954
    10.3057  10.3743  10.3772  10.4510  10.5113  10.5705  10.5851  10.6659
    10.6805  10.7708  10.8796  10.9227  10.9299  11.0052  11.1571  11.3022
    11.3321  11.4132  11.4792  11.4823  11.5739  11.6850  11.7178  11.7395
    11.7766  11.7785  11.8181  11.8237  11.9312  11.9599  11.9865  11.9989
    12.1049  12.1340  12.1617  12.2075  12.2631  12.2678  12.3194  12.3463
    12.3568  12.3900  12.4332  12.5123  12.5307  12.6041  12.6603  12.6940
    12.6941  12.7085  12.7100  12.7423  12.7680  12.9202  12.9511  13.0704
    13.0972  13.1040  13.1085  13.1462  13.2680  13.2697  13.2945  13.3267
    13.3290  13.5349  13.5762  13.6765  13.6886  14.1243  14.7409  15.0468
    15.0938  15.4618  15.9795  16.2318  16.8162  16.9521  17.0903  17.0977
    17.1454  17.3121  17.4638  17.4697  17.5433  17.5891  17.5932  17.7878
    17.8901  18.1677  18.1729  18.3332  18.4472  18.9650  19.1189  19.1782
    19.2038  19.2723

          k =-0.1768-0.1768-0.1360 ( 13673 PWs)   bands (ev):

   -66.4070 -66.3845 -66.3631 -66.3492 -66.3488 -61.9001 -61.8997 -61.8803
   -35.1771 -35.1569 -35.1499 -35.1419 -35.1296 -35.1295 -35.1171 -35.1130
   -35.1069 -35.0974 -35.0808 -35.0800 -35.0762 -35.0606 -35.0603 -30.7297
   -30.7295 -30.7270 -30.7268 -30.7209 -30.7208 -30.7106 -30.7034 -30.7030
     6.1124   7.2914   7.6951   7.7624   8.4082   8.4721   8.4753   8.6338
     8.6468   8.8151   9.1296   9.2298   9.2384   9.2944   9.3254   9.3367
     9.3600   9.4044   9.4582   9.4787   9.4908   9.5308   9.5655   9.5890
     9.6659   9.6762   9.6936   9.7357   9.8575   9.9208   9.9281   9.9982
    10.0273  10.0658  10.0825  10.0915  10.1037  10.1519  10.1816  10.1843
    10.2393  10.2662  10.2987  10.3072  10.3929  10.4273  10.4312  10.4570
    10.4956  10.5068  10.5777  10.6027  10.6369  10.6849  10.6940  10.7243
    10.7309  10.8386  10.9143  10.9320  10.9854  10.9877  11.0623  11.0962
    11.1149  11.1587  11.2593  11.3242  11.3311  11.4291  11.4591  11.5192
    11.6359  11.6838  11.6973  11.7263  11.7676  11.7999  11.8299  11.8386
    11.9095  11.9118  11.9456  11.9729  12.0763  12.1204  12.1406  12.1709
    12.2012  12.2523  12.2875  12.3098  12.3364  12.3391  12.3532  12.4147
    12.4953  12.5434  12.5806  12.5942  12.7271  12.7571  12.7920  12.8123
    12.8444  12.9057  12.9546  12.9723  13.0797  13.1615  13.1615  13.4275
    14.1367  14.2541  14.6309  14.6946  15.3015  15.3937  15.5692  15.6634
    16.2115  16.3861  16.4271  16.6096  16.7568  16.8210  17.1047  17.1709
    17.2639  17.3036  17.4468  17.4668  17.5849  17.7066  17.8876  18.0563
    18.2696  18.3234  18.7028  18.7280  18.8286  18.8331  19.0028  19.1359
    19.2361  19.7352

          k =-0.1768-0.1768-0.6802 ( 13666 PWs)   bands (ev):

   -66.4070 -66.3845 -66.3631 -66.3492 -66.3488 -61.9001 -61.8998 -61.8803
   -35.1771 -35.1570 -35.1499 -35.1419 -35.1296 -35.1295 -35.1171 -35.1130
   -35.1069 -35.0975 -35.0808 -35.0800 -35.0762 -35.0606 -35.0603 -30.7297
   -30.7295 -30.7271 -30.7268 -30.7208 -30.7208 -30.7107 -30.7034 -30.7030
     6.9449   7.0341   8.3072   8.3443   8.3771   8.4125   8.5912   8.7696
     8.7919   8.8077   8.9008   8.9099   8.9332   8.9711   9.1240   9.1351
     9.1878   9.3417   9.3771   9.4371   9.4575   9.4600   9.5320   9.6075
     9.6153   9.6565   9.6825   9.6966   9.7015   9.7310   9.7755   9.7879
     9.8102   9.9009   9.9219   9.9437   9.9547  10.0096  10.0956  10.1496
    10.2874  10.3075  10.3143  10.3561  10.3805  10.4369  10.4379  10.4857
    10.5469  10.5479  10.6386  10.6392  10.7072  10.7218  10.7751  10.7962
    10.8806  10.9329  10.9818  11.0055  11.0833  11.1066  11.1344  11.1961
    11.1991  11.2981  11.3607  11.4180  11.4399  11.5140  11.6079  11.6254
    11.6934  11.7078  11.7346  11.7349  11.7613  11.7647  11.8550  11.9143
    11.9449  11.9944  11.9963  12.0283  12.0876  12.1319  12.1446  12.1801
    12.2235  12.2917  12.2923  12.3004  12.3282  12.3865  12.4377  12.4635
    12.4882  12.5728  12.5754  12.6178  12.6491  12.6843  12.7723  12.8043
    12.9428  12.9443  12.9719  13.0841  13.1034  13.1707  13.2136  13.7425
    13.8993  14.1074  14.3676  14.7177  14.8612  14.8850  15.0594  15.4439
    15.5353  15.9611  16.1164  16.4079  16.5287  16.6149  16.6472  17.1125
    17.1657  17.3155  17.3969  17.4415  17.4883  17.6440  17.6962  17.8013
    17.9341  18.0757  18.1570  18.2511  18.3314  18.6039  18.9707  19.2737
    20.1012  20.4617

          k =-0.1768-0.1768 0.9522 ( 13713 PWs)   bands (ev):

   -66.4070 -66.3845 -66.3631 -66.3492 -66.3489 -61.9001 -61.8998 -61.8803
   -35.1771 -35.1570 -35.1499 -35.1419 -35.1297 -35.1295 -35.1171 -35.1130
   -35.1069 -35.0975 -35.0808 -35.0800 -35.0762 -35.0606 -35.0603 -30.7298
   -30.7295 -30.7271 -30.7269 -30.7208 -30.7207 -30.7107 -30.7034 -30.7030
     7.6467   7.7885   8.2620   8.4556   8.4661   8.4860   8.6078   8.6106
     8.6573   8.7041   8.7862   8.7990   8.8083   8.9330   8.9520   9.0892
     9.1201   9.1761   9.2075   9.3433   9.3856   9.3974   9.4528   9.4567
     9.4715   9.5443   9.5557   9.6571   9.6961   9.7542   9.7934   9.8135
     9.8417   9.8800   9.8930   9.9274  10.0224  10.0241  10.0954  10.0980
    10.1516  10.1726  10.2857  10.3026  10.3522  10.3870  10.3929  10.4173
    10.4837  10.5492  10.5675  10.5912  10.6640  10.7443  10.7472  10.7990
    10.8053  10.8339  10.9804  10.9808  11.0131  11.1841  11.2210  11.3565
    11.3714  11.4352  11.4517  11.5112  11.6028  11.6208  11.7309  11.7901
    11.8628  11.9087  11.9131  11.9584  11.9712  11.9921  11.9922  12.0148
    12.1047  12.1350  12.1365  12.1678  12.1749  12.2315  12.2653  12.2861
    12.3224  12.3353  12.3678  12.4083  12.4563  12.5079  12.5251  12.5845
    12.6057  12.6778  12.7758  12.8133  12.8341  12.8750  12.9084  12.9129
    12.9306  12.9679  12.9736  13.0654  13.0888  13.1506  13.1953  13.3048
    13.3250  13.6093  13.6288  13.7744  13.9097  13.9594  14.1230  14.7991
    14.8423  15.5261  16.0578  16.1384  16.2435  16.6380  17.1001  17.1796
    17.2159  17.3513  17.3662  17.4243  17.5034  17.5901  17.6112  17.7316
    17.9724  18.0925  18.1680  18.5118  18.7876  18.8661  19.0747  19.1389
    19.5429  19.7438

          k =-0.1768-0.1768 0.4081 ( 13683 PWs)   bands (ev):

   -66.4070 -66.3845 -66.3631 -66.3492 -66.3488 -61.9001 -61.8998 -61.8803
   -35.1771 -35.1570 -35.1499 -35.1419 -35.1296 -35.1295 -35.1171 -35.1130
   -35.1069 -35.0975 -35.0808 -35.0800 -35.0762 -35.0606 -35.0603 -30.7297
   -30.7295 -30.7271 -30.7268 -30.7208 -30.7208 -30.7107 -30.7034 -30.7030
     6.4077   7.9544   8.0103   8.0985   8.3160   8.4773   8.5220   8.6483
     8.6616   8.6850   8.8291   8.9775   9.0488   9.0695   9.0917   9.1111
     9.2309   9.2338   9.2867   9.3441   9.4227   9.5402   9.5694   9.5788
     9.6179   9.6530   9.6870   9.6881   9.7229   9.7650   9.8363   9.8434
     9.8892   9.9101   9.9581   9.9801   9.9979  10.0549  10.0954  10.1273
    10.1668  10.2484  10.2548  10.3264  10.3453  10.4109  10.4508  10.4590
    10.5265  10.5382  10.6656  10.6819  10.7476  10.8159  10.8717  10.8854
    10.8925  10.9225  11.0418  11.1396  11.1982  11.3035  11.3209  11.3410
    11.3587  11.3970  11.4742  11.5115  11.5360  11.6417  11.6764  11.7568
    11.8187  11.8666  11.8965  11.9325  11.9480  11.9712  11.9900  11.9944
    12.0124  12.0438  12.1124  12.1438  12.1854  12.1989  12.2056  12.2430
    12.2499  12.2755  12.3046  12.3233  12.3356  12.3369  12.3560  12.4086
    12.4491  12.5209  12.5494  12.6086  12.6395  12.6450  12.7045  12.7623
    12.7916  12.8107  12.8411  12.8961  12.9552  13.0210  13.1984  13.3013
    13.3415  13.4311  13.5176  13.9212  14.0030  14.7686  14.9467  15.3640
    15.6230  15.7457  15.9483  16.7134  16.7932  16.9598  16.9735  17.2343
    17.2573  17.3864  17.4018  17.4555  17.6485  17.7229  17.8624  17.9642
    18.0179  18.2990  18.3609  18.3962  18.8527  19.0481  19.1020  19.3480
    19.8984  20.0965

          k = 0.3536 0.3536 0.2721 ( 13708 PWs)   bands (ev):

   -66.4070 -66.3845 -66.3631 -66.3492 -66.3488 -61.9001 -61.8997 -61.8803
   -35.1771 -35.1569 -35.1499 -35.1419 -35.1296 -35.1295 -35.1171 -35.1130
   -35.1069 -35.0974 -35.0808 -35.0800 -35.0762 -35.0606 -35.0603 -30.7297
   -30.7295 -30.7270 -30.7268 -30.7209 -30.7208 -30.7106 -30.7034 -30.7030
     6.5355   6.6268   8.0214   8.0258   8.1092   8.2232   8.6387   8.7484
     8.7681   8.8566   9.0105   9.0819   9.2717   9.2739   9.3103   9.3174
     9.4059   9.4268   9.4388   9.4722   9.5071   9.5403   9.5415   9.5745
     9.6014   9.6152   9.6655   9.6834   9.7451   9.8808   9.9126   9.9229
     9.9869  10.0615  10.0760  10.1528  10.1629  10.2040  10.2080  10.2805
    10.2843  10.3255  10.3284  10.3417  10.3907  10.4415  10.4485  10.4828
    10.5323  10.5703  10.6079  10.6776  10.6796  10.7002  10.7298  10.7873
    10.8044  10.9255  10.9438  10.9835  11.0053  11.0132  11.0991  11.1831
    11.2222  11.2550  11.2559  11.2717  11.3241  11.3248  11.3661  11.4233
    11.4499  11.5078  11.5385  11.6005  11.6595  11.7127  11.7490  11.7581
    11.8331  11.8656  11.8784  11.9399  12.0189  12.0398  12.1035  12.1331
    12.1425  12.1647  12.2047  12.2649  12.2886  12.3234  12.3723  12.4219
    12.4248  12.5331  12.5356  12.6138  12.6187  12.7215  12.7619  12.7859
    12.8558  12.9781  12.9796  13.0362  13.0724  13.1613  13.1653  14.0541
    14.6535  14.8449  14.9337  15.2928  15.4812  15.5722  15.7244  15.9784
    16.0014  16.0961  16.1424  16.1907  16.7154  17.0232  17.0934  17.1256
    17.1818  17.2539  17.3426  17.4088  17.5562  17.5838  17.6970  17.7892
    17.9915  18.0267  18.1465  18.3230  18.4180  18.4705  18.6313  19.2013
    19.7104  19.7141

          k = 0.3536 0.3536-0.2721 ( 13700 PWs)   bands (ev):

   -66.4070 -66.3845 -66.3631 -66.3492 -66.3488 -61.9001 -61.8998 -61.8803
   -35.1771 -35.1570 -35.1499 -35.1419 -35.1296 -35.1295 -35.1171 -35.1130
   -35.1069 -35.0975 -35.0808 -35.0800 -35.0762 -35.0606 -35.0603 -30.7297
   -30.7295 -30.7271 -30.7268 -30.7208 -30.7208 -30.7107 -30.7034 -30.7030
     6.5791   7.5991   8.0648   8.1153   8.4042   8.5682   8.5951   8.6593
     8.6847   8.7104   8.8999   8.9131   8.9439   9.0123   9.0264   9.2608
     9.2984   9.3428   9.3623   9.3667   9.4106   9.4487   9.5047   9.5231
     9.5585   9.5817   9.6275   9.6319   9.6855   9.7442   9.8087   9.8138
     9.9038   9.9459   9.9643   9.9737  10.0684  10.1637  10.1736  10.2091
    10.2259  10.2913  10.3390  10.3515  10.3753  10.4463  10.4537  10.5087
    10.5443  10.6020  10.6249  10.6860  10.7235  10.7612  10.8285  10.8979
    10.9012  10.9851  10.9854  11.0989  11.1247  11.1766  11.2311  11.2327
    11.2574  11.3529  11.4463  11.4479  11.5432  11.5442  11.5810  11.5967
    11.6308  11.6765  11.7517  11.8001  11.8383  11.8854  11.9385  11.9858
    11.9919  12.0173  12.0318  12.0629  12.0832  12.1558  12.1775  12.1795
    12.2137  12.2271  12.2735  12.2844  12.3105  12.3176  12.3392  12.4277
    12.4351  12.5648  12.5730  12.6212  12.6453  12.6668  12.7805  12.7945
    12.8564  12.9185  12.9189  13.0061  13.0695  13.1792  13.1889  13.2892
    13.4133  13.9198  13.9803  14.4548  14.9437  14.9801  15.3565  15.4698
    15.6422  15.7455  15.8032  16.3737  16.5995  16.6310  16.6997  17.2438
    17.2450  17.3343  17.3420  17.4755  17.5444  17.6317  17.8026  17.8518
    17.9600  18.1337  18.2223  18.2242  18.4428  18.8815  18.9022  19.7173
    19.9754  19.9843

          k = 0.3536 0.3536 1.3603 ( 13692 PWs)   bands (ev):

   -66.4070 -66.3845 -66.3631 -66.3492 -66.3489 -61.9001 -61.8998 -61.8803
   -35.1771 -35.1570 -35.1499 -35.1419 -35.1297 -35.1295 -35.1171 -35.1130
   -35.1069 -35.0975 -35.0808 -35.0800 -35.0762 -35.0606 -35.0603 -30.7298
   -30.7295 -30.7271 -30.7269 -30.7208 -30.7207 -30.7107 -30.7034 -30.7030
     7.5409   7.6571   8.2935   8.5124   8.5138   8.5225   8.5551   8.5622
     8.6307   8.7452   8.8103   8.8413   8.8539   8.8806   8.9230   8.9863
     9.1321   9.1806   9.2190   9.2395   9.2476   9.3307   9.3841   9.4475
     9.4504   9.4779   9.5165   9.5993   9.6877   9.7157   9.7789   9.7927
     9.8371   9.8612   9.9009   9.9438   9.9784   9.9967  10.1160  10.1288
    10.1432  10.1909  10.2435  10.3346  10.3684  10.4195  10.4449  10.5198
    10.5660  10.6080  10.6260  10.7546  10.7590  10.7698  10.8180  10.9312
    11.0098  11.0927  11.1267  11.1282  11.3205  11.3601  11.4150  11.4388
    11.5406  11.5446  11.6794  11.7291  11.8042  11.8151  11.8180  11.8648
    11.9080  11.9126  11.9429  11.9595  11.9821  12.0029  12.0126  12.0174
    12.0700  12.0716  12.0766  12.1010  12.1121  12.1740  12.2023  12.2189
    12.2239  12.2579  12.2739  12.2843  12.2862  12.2977  12.3345  12.4201
    12.4501  12.4693  12.6588  12.6787  12.7222  12.7277  12.7658  12.8232
    12.8598  12.9122  12.9329  12.9489  13.0197  13.1711  13.1955  13.2521
    13.3106  13.5153  13.5450  13.6630  13.8544  14.2862  14.3106  14.8695
    15.0045  15.0813  15.1141  15.6564  16.2404  16.7679  17.0881  17.2257
    17.2714  17.3630  17.3671  17.4473  17.4958  17.5939  17.6138  17.7634
    17.9528  18.0527  18.2532  18.5944  18.6749  19.0952  19.3674  19.6253
    19.9174  20.0964

          k = 0.1768-0.1768 0.0000 ( 13644 PWs)   bands (ev):

   -66.4070 -66.3845 -66.3631 -66.3492 -66.3488 -61.9001 -61.8997 -61.8803
   -35.1771 -35.1569 -35.1499 -35.1419 -35.1296 -35.1295 -35.1171 -35.1130
   -35.1069 -35.0974 -35.0808 -35.0800 -35.0762 -35.0606 -35.0603 -30.7297
   -30.7295 -30.7270 -30.7268 -30.7209 -30.7208 -30.7106 -30.7034 -30.7030
     6.0749   6.9802   8.0576   8.1578   8.2183   8.3355   8.4941   8.5228
     8.6089   8.6265   8.9535   9.0333   9.2435   9.3579   9.4097   9.4479
     9.4684   9.5102   9.5288   9.5548   9.5786   9.5961   9.6213   9.6483
     9.6697   9.6849   9.7259   9.7685   9.8093   9.8236   9.8966   9.9289
     9.9357   9.9470  10.0483  10.0601  10.0976  10.1307  10.1591  10.1909
    10.2300  10.2361  10.2687  10.3092  10.3509  10.3942  10.4208  10.4345
    10.5241  10.5344  10.5795  10.5936  10.5971  10.6604  10.6767  10.7676
    10.8300  10.8546  10.8868  10.9212  11.0683  11.0909  11.1052  11.1275
    11.1519  11.2987  11.3164  11.3452  11.3896  11.4531  11.4567  11.6168
    11.6836  11.7039  11.7533  11.7697  11.8249  11.8510  11.8961  11.9059
    11.9632  11.9678  11.9977  12.1045  12.1614  12.1855  12.2207  12.2237
    12.2643  12.2818  12.3039  12.3343  12.3695  12.3990  12.4016  12.4849
    12.5316  12.5519  12.6062  12.6604  12.6941  12.7098  12.7504  12.7736
    12.7857  12.8296  12.8598  12.8935  12.9673  13.0099  13.1023  13.1551
    13.3286  13.9548  13.9946  14.7295  15.1390  15.2352  15.4788  16.0377
    16.3047  16.4359  16.4820  16.6453  16.6982  16.8584  16.9848  17.1378
    17.2878  17.3436  17.4507  17.4796  17.6285  17.7462  17.9323  18.0619
    18.1905  18.2471  18.6421  18.8444  18.9201  19.2021  19.3468  19.6042
    19.7746  19.8271

          k = 0.1768-0.1768-0.5441 ( 13695 PWs)   bands (ev):

   -66.4070 -66.3845 -66.3631 -66.3492 -66.3488 -61.9001 -61.8998 -61.8803
   -35.1771 -35.1570 -35.1499 -35.1419 -35.1296 -35.1295 -35.1171 -35.1130
   -35.1069 -35.0975 -35.0808 -35.0800 -35.0762 -35.0606 -35.0603 -30.7297
   -30.7295 -30.7270 -30.7268 -30.7208 -30.7208 -30.7107 -30.7034 -30.7030
     6.6561   7.5100   7.6985   8.3094   8.4909   8.5734   8.6794   8.7391
     8.7810   8.8382   8.9175   8.9365   8.9529   9.0081   9.0736   9.1579
     9.1835   9.1939   9.2426   9.3108   9.4418   9.4721   9.4995   9.5401
     9.5545   9.6077   9.6568   9.6833   9.7099   9.7360   9.7708   9.8106
     9.8290   9.8646   9.9078   9.9483   9.9962  10.0187  10.1264  10.2041
    10.2574  10.3394  10.3578  10.4095  10.4343  10.4952  10.5281  10.5773
    10.5962  10.6430  10.6591  10.6954  10.7812  10.8166  10.8562  10.9094
    10.9172  10.9479  10.9578  10.9870  11.0367  11.1271  11.2379  11.3394
    11.3652  11.4014  11.4568  11.4815  11.5322  11.5556  11.5909  11.6103
    11.6825  11.7053  11.7585  11.7934  11.8292  11.8615  11.9022  11.9435
    11.9706  12.0047  12.0292  12.0814  12.1109  12.1347  12.1637  12.1887
    12.2193  12.2561  12.2659  12.2861  12.3230  12.3351  12.3646  12.4243
    12.4622  12.5175  12.5395  12.6145  12.6796  12.6919  12.7173  12.8368
    12.8893  12.9281  12.9664  13.0213  13.1001  13.2365  13.3324  13.3657
    13.5128  13.5780  13.7226  14.2482  14.6782  14.7858  15.1070  15.2047
    15.6832  15.8567  15.9310  16.1692  16.7873  16.8271  16.9670  17.2325
    17.2522  17.3269  17.4212  17.4940  17.5599  17.6169  17.7186  17.8252
    18.0616  18.2415  18.5226  18.6153  18.8879  18.9199  18.9981  19.2833
    19.7126  19.9822

          k = 0.1768-0.1768 1.0883 ( 13696 PWs)   bands (ev):

   -66.4070 -66.3845 -66.3631 -66.3492 -66.3489 -61.9001 -61.8998 -61.8803
   -35.1771 -35.1570 -35.1499 -35.1419 -35.1296 -35.1295 -35.1171 -35.1130
   -35.1069 -35.0975 -35.0808 -35.0800 -35.0762 -35.0606 -35.0603 -30.7297
   -30.7296 -30.7271 -30.7269 -30.7208 -30.7207 -30.7107 -30.7034 -30.7030
     7.8686   8.1454   8.1820   8.3955   8.4202   8.4880   8.5024   8.5683
     8.5919   8.6159   8.6772   8.7648   8.7827   8.8753   8.9919   9.0406
     9.0929   9.2818   9.3864   9.4150   9.4622   9.4847   9.5404   9.5776
     9.5845   9.6145   9.6343   9.6799   9.7230   9.7336   9.7707   9.8138
     9.8358   9.8981   9.9039   9.9157  10.0038  10.0484  10.0585  10.1042
    10.1329  10.1691  10.1761  10.2146  10.2334  10.2813  10.3142  10.3801
    10.3833  10.4055  10.4898  10.5094  10.5156  10.5924  10.6570  10.7221
    10.7441  10.7741  10.8061  10.9238  11.1646  11.2114  11.2658  11.2811
    11.3461  11.4072  11.4166  11.5411  11.5557  11.6620  11.7221  11.7594
    11.7806  11.8145  11.8489  11.8813  11.9254  11.9523  11.9794  11.9888
    12.0753  12.0858  12.1793  12.1931  12.2038  12.2586  12.2758  12.3063
    12.3479  12.3524  12.4043  12.4211  12.4626  12.5043  12.5288  12.5962
    12.6458  12.6720  12.7277  12.7519  12.7711  12.8355  12.8750  12.8871
    12.9308  12.9495  13.0213  13.0793  13.1024  13.1364  13.1649  13.2092
    13.3136  13.8573  13.9116  14.3027  14.3368  14.5525  14.7332  15.2232
    15.2888  15.5023  15.8001  15.8876  16.3482  16.7648  16.9377  16.9643
    17.1988  17.2687  17.3362  17.4306  17.4630  17.5422  17.6239  17.7610
    17.8219  17.9085  17.9976  18.1351  18.3683  18.4397  18.8349  18.9661
    19.1526  19.3762

          k = 0.0000-0.3536-0.1360 ( 13676 PWs)   bands (ev):

   -66.4070 -66.3845 -66.3631 -66.3492 -66.3488 -61.9001 -61.8997 -61.8803
   -35.1771 -35.1569 -35.1499 -35.1419 -35.1296 -35.1295 -35.1171 -35.1130
   -35.1069 -35.0974 -35.0808 -35.0800 -35.0762 -35.0606 -35.0603 -30.7297
   -30.7295 -30.7270 -30.7268 -30.7209 -30.7208 -30.7106 -30.7034 -30.7030
     6.2351   7.1264   7.3943   8.0708   8.2007   8.4445   8.6114   8.6651
     8.8087   8.8337   9.0608   9.1415   9.1807   9.3081   9.3204   9.3370
     9.3604   9.3894   9.4048   9.4238   9.4904   9.5272   9.5630   9.5993
     9.6377   9.6776   9.7314   9.7554   9.8694   9.8979   9.9382   9.9630
     9.9774  10.0267  10.0358  10.0709  10.1075  10.1554  10.1659  10.2059
    10.2557  10.2940  10.3172  10.3715  10.3823  10.4078  10.4447  10.5206
    10.5476  10.5735  10.6477  10.6697  10.7183  10.7402  10.7679  10.8017
    10.8369  10.8628  10.8829  10.9283  10.9704  11.0487  11.1121  11.1470
    11.1646  11.2313  11.2662  11.3103  11.3764  11.4006  11.4248  11.5433
    11.5625  11.6463  11.6906  11.7095  11.7355  11.7713  11.7910  11.8150
    11.8759  11.9109  11.9475  11.9717  12.0299  12.0782  12.1092  12.1592
    12.2189  12.2241  12.2598  12.2885  12.3150  12.3263  12.3860  12.4053
    12.4374  12.5036  12.5432  12.5821  12.6689  12.7488  12.7697  12.8072
    12.8340  12.9096  12.9440  13.0185  13.0655  13.1699  13.4195  13.4560
    13.8358  13.9063  14.7101  14.7702  15.2275  15.5495  15.7542  15.8139
    16.0383  16.2462  16.3476  16.5180  16.7357  16.8285  16.9940  17.1190
    17.2579  17.3780  17.4123  17.4920  17.5625  17.6893  17.8934  17.9890
    18.1300  18.3685  18.4889  18.5380  18.7900  18.9234  19.2612  19.4662
    19.5222  19.9592

          k = 0.0000-0.3536-0.6802 ( 13702 PWs)   bands (ev):

   -66.4070 -66.3845 -66.3631 -66.3492 -66.3488 -61.9001 -61.8998 -61.8803
   -35.1771 -35.1570 -35.1499 -35.1419 -35.1296 -35.1295 -35.1171 -35.1130
   -35.1069 -35.0975 -35.0808 -35.0800 -35.0762 -35.0606 -35.0603 -30.7297
   -30.7295 -30.7270 -30.7268 -30.7208 -30.7208 -30.7107 -30.7034 -30.7030
     7.0517   7.1435   7.8349   7.9069   8.5732   8.6549   8.7772   8.8038
     8.8416   8.8795   8.9412   8.9679   8.9890   9.0086   9.1159   9.1296
     9.2089   9.2270   9.2727   9.3364   9.3757   9.3982   9.4115   9.4495
     9.5181   9.5706   9.6060   9.6299   9.6666   9.7235   9.7574   9.7869
     9.8389   9.9296  10.0260  10.0657  10.0901  10.1410  10.1787  10.2281
    10.2855  10.3334  10.3490  10.3856  10.4201  10.4340  10.4762  10.5765
    10.6008  10.6565  10.6752  10.7014  10.7538  10.7822  10.8249  10.8540
    10.8903  10.9359  10.9706  10.9826  11.0659  11.1215  11.1742  11.1987
    11.2661  11.2992  11.3428  11.3995  11.4227  11.4643  11.5254  11.5515
    11.5634  11.6203  11.7131  11.7404  11.7856  11.8242  11.8525  11.8801
    11.9154  11.9468  12.0156  12.0416  12.0892  12.1163  12.1676  12.1908
    12.2158  12.2308  12.2796  12.3084  12.3267  12.3477  12.3628  12.4023
    12.4308  12.4999  12.5964  12.6186  12.6676  12.7008  12.7324  12.8637
    12.9000  12.9519  13.0145  13.0596  13.1277  13.2071  13.5752  13.7116
    13.8840  14.0253  14.1746  14.3899  14.8216  15.0125  15.2714  15.4634
    15.5709  15.6677  16.0697  16.2158  16.3401  16.6427  16.9694  17.1153
    17.2428  17.3247  17.4065  17.4815  17.5230  17.6415  17.7271  17.8027
    17.9144  17.9558  18.2017  18.3462  18.5349  19.0195  19.3327  19.4480
    19.7987  20.0139

          k = 0.0000-0.3536 0.9522 ( 13693 PWs)   bands (ev):

   -66.4070 -66.3845 -66.3631 -66.3492 -66.3489 -61.9001 -61.8998 -61.8803
   -35.1771 -35.1570 -35.1499 -35.1419 -35.1296 -35.1295 -35.1171 -35.1130
   -35.1069 -35.0975 -35.0808 -35.0800 -35.0762 -35.0606 -35.0603 -30.7297
   -30.7296 -30.7271 -30.7269 -30.7208 -30.7207 -30.7107 -30.7034 -30.7030
     7.7263   7.8526   8.3080   8.3212   8.3515   8.5180   8.5258   8.5615
     8.6559   8.7309   8.7793   8.8264   8.8473   8.9036   8.9928   9.0701
     9.1284   9.2221   9.2881   9.3092   9.3589   9.3898   9.3997   9.4621
     9.4882   9.5268   9.5572   9.6446   9.6664   9.7081   9.7321   9.7757
     9.7953   9.8396   9.8668   9.9441   9.9834  10.0286  10.0444  10.0832
    10.1261  10.2145  10.2487  10.3118  10.3752  10.4379  10.4738  10.4943
    10.5140  10.5615  10.6068  10.6579  10.6951  10.7251  10.8017  10.8145
    10.8746  10.9511  10.9828  11.0740  11.1122  11.1941  11.3165  11.3498
    11.3890  11.4302  11.4686  11.5441  11.6445  11.6724  11.7585  11.7783
    11.8096  11.8802  11.9042  11.9196  11.9500  11.9815  11.9971  12.0343
    12.0548  12.0876  12.1163  12.1221  12.1765  12.2142  12.2417  12.2750
    12.3108  12.3212  12.3382  12.3551  12.3964  12.4124  12.4582  12.5447
    12.5657  12.6006  12.6350  12.7005  12.7635  12.7873  12.8568  12.8808
    12.8974  12.9617  12.9839  13.0106  13.0847  13.1266  13.1693  13.1904
    13.4182  13.7222  13.8237  13.9060  14.0133  14.1262  14.5950  14.9499
    15.3434  15.5661  15.6621  15.7780  16.4899  16.7389  16.8546  17.1318
    17.2386  17.2820  17.3558  17.4270  17.4463  17.5108  17.5811  17.6799
    17.7668  17.8933  18.0956  18.1521  18.3995  18.4991  18.6611  19.2073
    19.5315  20.0089

          k = 0.0000-0.3536 0.4081 ( 13687 PWs)   bands (ev):

   -66.4070 -66.3845 -66.3631 -66.3492 -66.3488 -61.9001 -61.8998 -61.8803
   -35.1771 -35.1570 -35.1499 -35.1419 -35.1296 -35.1295 -35.1171 -35.1130
   -35.1069 -35.0975 -35.0808 -35.0800 -35.0762 -35.0606 -35.0603 -30.7297
   -30.7295 -30.7270 -30.7268 -30.7208 -30.7208 -30.7107 -30.7034 -30.7030
     6.5253   7.3887   8.1919   8.3219   8.4261   8.4519   8.5163   8.5855
     8.6609   8.7316   8.8849   9.0030   9.0326   9.0937   9.1109   9.1509
     9.1856   9.2277   9.2727   9.3423   9.4137   9.4655   9.5214   9.5515
     9.5617   9.6015   9.6196   9.6605   9.6746   9.6980   9.7621   9.8138
     9.8419   9.8594   9.9246   9.9375   9.9836  10.0347  10.0873  10.1520
    10.2616  10.2918  10.3678  10.4057  10.4571  10.5012  10.5387  10.5948
    10.6251  10.6656  10.7301  10.7645  10.8210  10.8635  10.9029  10.9292
    10.9651  11.0092  11.0398  11.0870  11.1606  11.1686  11.2826  11.3509
    11.4250  11.4298  11.4494  11.4959  11.5338  11.6157  11.6699  11.7317
    11.7638  11.8381  11.8642  11.8830  11.8999  11.9381  11.9704  11.9790
    12.0129  12.0394  12.0776  12.0899  12.1387  12.1608  12.1815  12.2211
    12.2339  12.2547  12.2912  12.3029  12.3340  12.3450  12.3663  12.4149
    12.4219  12.4828  12.5505  12.5816  12.6499  12.6614  12.6988  12.7314
    12.7743  12.8046  12.8415  12.8805  12.9113  12.9905  13.0114  13.0342
    13.0999  13.2082  14.3124  14.3720  14.4303  14.8292  14.9895  15.2225
    15.4063  15.8846  16.0281  16.4739  16.6163  16.7371  16.9901  17.0673
    17.2794  17.3513  17.3937  17.4873  17.6171  17.6985  17.7452  17.8421
    18.0273  18.1852  18.3273  18.5544  18.6953  18.8517  19.0968  19.4252
    20.0093  20.1837

          k = 0.5303 0.1768 0.2721 ( 13658 PWs)   bands (ev):

   -66.4070 -66.3845 -66.3631 -66.3492 -66.3488 -61.9001 -61.8997 -61.8803
   -35.1771 -35.1569 -35.1499 -35.1419 -35.1296 -35.1295 -35.1171 -35.1130
   -35.1069 -35.0975 -35.0808 -35.0800 -35.0762 -35.0606 -35.0603 -30.7297
   -30.7295 -30.7270 -30.7268 -30.7209 -30.7208 -30.7106 -30.7034 -30.7030
     6.6542   6.7405   7.5016   7.5702   8.4486   8.5687   8.6610   8.8126
     8.8343   8.8771   9.0557   9.0951   9.2559   9.2669   9.2731   9.3052
     9.3169   9.3300   9.3655   9.3935   9.4556   9.4846   9.5081   9.5500
     9.5895   9.6283   9.6485   9.7513   9.7742   9.8703   9.9334   9.9412
     9.9640  10.0162  10.1252  10.1725  10.1834  10.1937  10.2210  10.2523
    10.2862  10.3101  10.3553  10.4104  10.4651  10.4689  10.5130  10.5285
    10.5770  10.6436  10.6799  10.7150  10.7235  10.7677  10.7767  10.8527
    10.8760  10.9266  10.9516  10.9640  11.0106  11.0256  11.1231  11.1754
    11.2052  11.2466  11.2653  11.2915  11.3287  11.3478  11.3622  11.3746
    11.4116  11.4524  11.5404  11.5589  11.6495  11.6764  11.7343  11.7523
    11.7961  11.8373  11.8744  11.9498  11.9814  12.0041  12.0415  12.0887
    12.1389  12.2179  12.2350  12.2581  12.2908  12.3087  12.3577  12.3897
    12.4423  12.4943  12.5329  12.6517  12.6814  12.7150  12.7803  12.7973
    12.9064  12.9640  12.9917  13.0288  13.0870  13.1549  13.2715  14.0728
    14.5206  14.6477  14.7490  14.9642  15.2935  15.5171  15.5909  15.6982
    15.8983  16.1561  16.2100  16.3688  16.8484  16.9238  17.0694  17.2146
    17.2557  17.2747  17.4655  17.4977  17.5969  17.6490  17.7829  17.8429
    17.9347  18.0452  18.2086  18.3299  18.4362  18.4878  19.5601  19.9523
    19.9673  19.9980

          k = 0.5303 0.1768-0.2721 ( 13683 PWs)   bands (ev):

   -66.4070 -66.3845 -66.3631 -66.3492 -66.3488 -61.9001 -61.8998 -61.8803
   -35.1771 -35.1570 -35.1499 -35.1419 -35.1296 -35.1295 -35.1171 -35.1130
   -35.1069 -35.0975 -35.0808 -35.0800 -35.0762 -35.0606 -35.0603 -30.7297
   -30.7295 -30.7270 -30.7268 -30.7208 -30.7208 -30.7107 -30.7034 -30.7030
     6.6957   7.5342   7.6734   8.2141   8.4862   8.5074   8.6217   8.7215
[...]
    11.8202  11.8632  11.8720  11.9175  11.9622  11.9752  12.0345  12.0480
    12.0749  12.0973  12.1287  12.1842  12.2134  12.2502  12.2530  12.3233
    12.3374  12.3960  12.4356  12.4715  12.6385  12.6485  12.6516  12.7154
    12.7245  12.7710  12.7873  12.7879  12.8583  12.8639  12.8772  14.1132
    14.4243  14.5132  14.6223  15.5155  15.5319  15.7078  15.7489  15.7919
    16.0104  16.1309  16.1435  16.3461  16.6661  16.8501  16.9524  17.0232
    17.0315  17.3111  17.3189  17.4063  17.4252  17.4267  17.5119  17.5235
    17.5664  17.6169  17.6692  17.7712  17.9901  18.0891  18.2355  18.2745
    18.4649  18.4751  18.6787  18.7090  19.1518  19.4269  19.6780  20.0421
    20.1811  20.2811

          k =-0.3536 0.3536-0.5441 ( 13686 PWs)   bands (ev):

   -66.5122 -66.5118 -66.4761 -61.8452 -61.8345 -61.8023 -61.8022 -61.8016
   -35.2808 -35.2808 -35.2546 -35.2418 -35.2417 -35.2340 -35.2340 -35.2020
   -35.1914 -30.6765 -30.6723 -30.6676 -30.6638 -30.6626 -30.6575 -30.6347
   -30.6343 -30.6321 -30.6311 -30.6309 -30.6298 -30.6292 -30.6210 -30.6206
     7.0041   7.0506   7.9969   8.0576   8.6456   8.7200   8.7490   8.8392
     8.8602   8.8857   9.0609   9.0660   9.1361   9.1538   9.2291   9.2645
     9.2646   9.3241   9.3423   9.3787   9.4109   9.4222   9.4512   9.4987
     9.5873   9.7043   9.7083   9.7480   9.7518   9.8118   9.8662   9.8934
     9.9757  10.0054  10.0565  10.0754  10.1391  10.1987  10.3369  10.3742
    10.3915  10.4494  10.5146  10.5304  10.6384  10.6857  10.7904  10.8052
    10.8586  10.8742  10.8964  10.9322  10.9519  11.0151  11.0290  11.0626
    11.0766  11.1048  11.1425  11.1814  11.2319  11.2678  11.3458  11.3836
    11.4018  11.4104  11.4945  11.5750  11.5904  11.6083  11.6863  11.7684
    11.7726  11.8759  11.8899  11.9149  11.9222  11.9368  12.0347  12.0727
    12.1491  12.1602  12.1818  12.2508  12.3003  12.3379  12.3642  12.3755
    12.3911  12.4198  12.4235  12.5264  12.5726  12.6314  12.6869  12.7148
    12.7253  12.8568  12.9163  12.9737  13.1775  13.2113  13.2936  13.6463
    13.6860  14.0353  14.2602  14.6547  14.7420  15.1306  15.3650  15.6688
    15.7116  15.8707  16.1066  16.1620  16.2560  17.1172  17.2033  17.2178
    17.2556  17.3140  17.3370  17.3535  17.3929  17.4516  17.4885  17.5247
    17.5691  17.6458  17.7150  17.7758  17.9436  17.9446  18.0831  18.2526
    18.3432  18.4387  18.6337  18.7034  18.8786  19.0424  19.3990  19.3991
    20.4302  20.5428

          k =-0.3536 0.3536 1.0883 ( 13708 PWs)   bands (ev):

   -66.5121 -66.5118 -66.4762 -61.8452 -61.8345 -61.8023 -61.8022 -61.8016
   -35.2808 -35.2808 -35.2546 -35.2418 -35.2418 -35.2340 -35.2340 -35.2020
   -35.1914 -30.6765 -30.6723 -30.6677 -30.6638 -30.6626 -30.6575 -30.6348
   -30.6344 -30.6320 -30.6311 -30.6309 -30.6299 -30.6292 -30.6210 -30.6206
     8.1010   8.1440   8.3580   8.3652   8.3687   8.4763   8.5856   8.6480
     8.6656   8.7654   8.7979   8.8650   8.8819   8.9532   9.0150   9.1206
     9.1659   9.2047   9.5308   9.5480   9.5486   9.5555   9.6283   9.6734
     9.7170   9.7257   9.7558   9.7696   9.7847   9.8090   9.8485   9.9141
     9.9214   9.9294   9.9527  10.0035  10.0837  10.0889  10.1204  10.1280
    10.1336  10.1937  10.2193  10.3370  10.3583  10.3847  10.4952  10.5018
    10.5565  10.6674  10.6913  10.7195  10.7885  10.7906  10.8588  11.0188
    11.1142  11.1999  11.2775  11.3289  11.3527  11.3648  11.4466  11.4728
    11.5032  11.5432  11.6318  11.6593  11.7564  11.7709  11.8151  11.8729
    11.9071  12.0167  12.0252  12.0367  12.0828  12.0933  12.1436  12.1543
    12.2103  12.2126  12.2702  12.2883  12.3103  12.3177  12.4782  12.4937
    12.4940  12.5352  12.5583  12.5641  12.5732  12.7446  12.7724  12.7786
    12.8009  12.8172  12.9819  13.0045  13.0757  13.1157  13.1525  13.9155
    14.0695  14.0984  14.2664  14.6092  14.6273  14.9610  15.1370  15.3555
    15.4602  15.6191  15.8097  15.8354  16.0067  16.9961  17.0176  17.1222
    17.1754  17.3224  17.3232  17.3732  17.4294  17.4411  17.4978  17.5069
    17.5493  17.6150  17.7115  17.7227  17.8331  17.8453  17.8553  17.8799
    18.0756  18.2080  18.2817  18.2902  18.4245  18.4548  19.1156  19.3081
    19.7785  19.8050

          k =-0.5303 0.1768-0.1360 ( 13660 PWs)   bands (ev):

   -66.5122 -66.5118 -66.4762 -61.8452 -61.8345 -61.8023 -61.8022 -61.8016
   -35.2808 -35.2808 -35.2546 -35.2418 -35.2417 -35.2340 -35.2339 -35.2020
   -35.1914 -30.6765 -30.6723 -30.6676 -30.6638 -30.6625 -30.6575 -30.6347
   -30.6342 -30.6321 -30.6312 -30.6309 -30.6297 -30.6292 -30.6210 -30.6206
     6.5963   6.6516   7.6983   7.7390   8.4192   8.5608   8.8432   8.8664
     8.8984   8.9256   9.0192   9.0650   9.2466   9.2997   9.3703   9.3714
     9.4540   9.4638   9.5245   9.5389   9.5627   9.6335   9.7061   9.7339
     9.7713   9.7850   9.8585   9.9207   9.9370   9.9842   9.9927  10.0328
    10.0487  10.0801  10.0883  10.1036  10.1618  10.2229  10.2723  10.2973
    10.3469  10.3980  10.4031  10.4539  10.5541  10.5724  10.6151  10.6285
    10.7289  10.7396  10.8068  10.8398  10.8510  10.8877  10.9442  10.9550
    11.0338  11.1280  11.1401  11.1711  11.2130  11.2463  11.2644  11.3643
    11.3858  11.4060  11.4324  11.4922  11.5073  11.5637  11.6116  11.6455
    11.6560  11.7209  11.7981  11.8509  11.8742  11.9104  11.9715  12.0188
    12.0443  12.0824  12.1467  12.1602  12.2186  12.2190  12.2675  12.2965
    12.3544  12.4733  12.5417  12.5614  12.6354  12.6381  12.6706  12.7077
    12.7781  12.8087  12.8313  12.9838  13.0351  13.3071  13.4350  13.9565
    14.0808  14.7445  14.8965  15.2718  15.3119  15.3204  15.8137  15.8540
    15.9386  16.0881  16.3588  16.4359  16.6203  16.8524  16.8893  17.1478
    17.2282  17.3158  17.3322  17.4125  17.4477  17.4690  17.4893  17.5251
    17.6187  17.6326  17.7123  17.9726  18.0158  18.0370  18.2655  18.3182
    18.3904  18.4730  18.5365  18.5640  18.9075  19.0482  19.7429  19.8964
    20.5446  20.6168

          k =-0.5303 0.1768-0.6802 ( 13694 PWs)   bands (ev):

   -66.5122 -66.5118 -66.4761 -61.8452 -61.8345 -61.8023 -61.8022 -61.8016
   -35.2808 -35.2808 -35.2546 -35.2418 -35.2417 -35.2340 -35.2340 -35.2020
   -35.1914 -30.6765 -30.6723 -30.6676 -30.6638 -30.6626 -30.6575 -30.6347
   -30.6343 -30.6321 -30.6311 -30.6309 -30.6298 -30.6292 -30.6210 -30.6206
     7.3573   7.4075   7.4934   7.5324   8.7541   8.8355   8.8470   8.9166
     8.9956   8.9957   9.0377   9.0724   9.1415   9.1596   9.2108   9.2262
     9.2480   9.2941   9.3236   9.3439   9.3982   9.4200   9.4958   9.5447
     9.5742   9.5981   9.6117   9.6392   9.7613   9.8055   9.8250   9.9342
    10.0659  10.0841  10.1459  10.1904  10.2697  10.3155  10.3344  10.3843
    10.3939  10.4256  10.4660  10.4936  10.5582  10.5822  10.6605  10.6870
    10.7312  10.7350  10.8614  10.9328  10.9796  11.0124  11.0413  11.0660
    11.0944  11.1334  11.1367  11.1554  11.1719  11.1925  11.2457  11.2968
    11.3157  11.3431  11.3941  11.4817  11.5103  11.5917  11.6507  11.7420
    11.7521  11.8609  11.9035  11.9429  11.9586  12.0240  12.0712  12.0908
    12.1409  12.1705  12.1920  12.2225  12.2767  12.3036  12.3188  12.3470
    12.3750  12.4161  12.4183  12.5500  12.5972  12.6195  12.7126  12.7306
    12.8183  12.8472  12.9382  13.3003  13.5094  13.5441  13.7335  13.7398
    13.9578  14.0043  14.0361  14.5427  14.5711  14.9087  15.1645  15.6644
    15.8776  15.8839  16.0620  16.4803  16.4979  17.1011  17.1186  17.2291
    17.2597  17.3288  17.3612  17.4144  17.4227  17.4718  17.4867  17.5723
    17.6011  17.6438  17.7412  17.7872  17.9220  17.9879  18.1881  18.2379
    18.2685  18.3280  18.6580  18.6803  18.8775  18.9106  19.0677  19.1152
    19.8957  20.0181

          k =-0.5303 0.1768 0.9522 ( 13712 PWs)   bands (ev):

   -66.5121 -66.5118 -66.4762 -61.8452 -61.8345 -61.8022 -61.8022 -61.8016
   -35.2808 -35.2808 -35.2546 -35.2418 -35.2418 -35.2340 -35.2340 -35.2020
   -35.1914 -30.6765 -30.6723 -30.6676 -30.6638 -30.6626 -30.6575 -30.6348
   -30.6344 -30.6320 -30.6311 -30.6309 -30.6299 -30.6292 -30.6210 -30.6206
     7.9832   8.0055   8.0902   8.1170   8.5530   8.6264   8.6319   8.7050
     8.7526   8.8369   8.8497   8.9014   8.9074   8.9878   9.0666   9.1369
     9.2371   9.2531   9.3802   9.3885   9.4938   9.5498   9.5537   9.5832
     9.6266   9.6361   9.6689   9.7376   9.7380   9.7603   9.8072   9.8335
     9.8549   9.9436   9.9655  10.0513  10.0626  10.1477  10.1709  10.1743
    10.2219  10.2289  10.2989  10.3166  10.4910  10.5113  10.6658  10.6953
    10.7455  10.7686  10.7993  10.8408  10.8776  10.9345  11.0087  11.0560
    11.1342  11.1583  11.2426  11.3123  11.3207  11.4179  11.4188  11.5083
    11.5720  11.5993  11.6772  11.6788  11.7384  11.8355  11.8470  11.9229
    11.9284  11.9790  12.0178  12.0428  12.0598  12.0859  12.1225  12.1458
    12.1937  12.1993  12.2201  12.2703  12.2924  12.3153  12.3978  12.4236
    12.4527  12.4735  12.5559  12.5953  12.6197  12.6348  12.7086  12.7542
    12.8603  12.8838  12.9630  13.0329  13.0716  13.0831  13.1757  13.6654
    13.7994  13.8388  14.1239  14.2397  14.3844  14.7270  14.8703  15.3544
    15.3584  15.7959  15.9087  16.1180  16.1837  17.0340  17.0604  17.1479
    17.1953  17.2930  17.3228  17.3655  17.4204  17.4505  17.4620  17.4694
    17.5391  17.5963  17.6261  17.6470  17.7479  17.7538  17.9194  18.1367
    18.1813  18.2341  18.3907  18.4022  18.4325  18.4499  18.5968  18.6514
    19.8904  20.0814

          k =-0.5303 0.1768 0.4081 ( 13670 PWs)   bands (ev):

   -66.5122 -66.5118 -66.4762 -61.8452 -61.8345 -61.8022 -61.8022 -61.8016
   -35.2808 -35.2808 -35.2546 -35.2418 -35.2417 -35.2340 -35.2340 -35.2020
   -35.1914 -30.6765 -30.6723 -30.6676 -30.6638 -30.6626 -30.6575 -30.6347
   -30.6343 -30.6321 -30.6311 -30.6309 -30.6298 -30.6292 -30.6210 -30.6206
     6.8769   6.9272   8.4198   8.4573   8.4703   8.5382   8.6254   8.6597
     8.6860   8.7678   9.0507   9.0579   9.1446   9.2259   9.2272   9.2765
     9.2890   9.3049   9.3961   9.4202   9.4572   9.4649   9.5335   9.5760
     9.6620   9.6713   9.7142   9.7777   9.8096   9.8272   9.8595   9.8669
     9.9128   9.9643  10.0075  10.0666  10.0671  10.1534  10.2992  10.3129
    10.4233  10.4438  10.4568  10.5087  10.6330  10.6663  10.7560  10.7876
    10.8764  10.8841  10.9423  10.9811  11.0132  11.0372  11.0684  11.1077
    11.1149  11.1443  11.2023  11.2207  11.3129  11.3138  11.4258  11.4531
    11.5483  11.5856  11.6378  11.6648  11.6650  11.7061  11.7193  11.7909
    11.8309  11.8313  11.8691  11.8838  11.9348  11.9543  12.0376  12.0987
    12.1081  12.1768  12.1901  12.2191  12.2470  12.3035  12.3250  12.3367
    12.3864  12.4591  12.4657  12.5609  12.5831  12.6096  12.6160  12.6694
    12.7026  12.7937  12.8115  12.8538  12.8638  12.8937  12.9949  13.4196
    13.4467  14.5207  14.8449  14.9015  14.9042  15.1409  15.2042  15.4501
    15.4809  15.6248  15.8429  16.0268  16.3937  17.0055  17.0239  17.1012
    17.2395  17.3305  17.3624  17.3919  17.4041  17.4494  17.4636  17.4700
    17.6137  17.6296  17.7099  17.8475  17.8914  17.9136  18.0392  18.1907
    18.2252  18.2846  18.4450  18.5115  19.4167  19.5056  19.7702  19.8221
    19.8918  19.9557

          k = 0.0000 0.7071 0.2721 ( 13680 PWs)   bands (ev):

   -66.5122 -66.5118 -66.4762 -61.8452 -61.8345 -61.8022 -61.8022 -61.8016
   -35.2808 -35.2808 -35.2546 -35.2418 -35.2417 -35.2340 -35.2339 -35.2020
   -35.1914 -30.6765 -30.6723 -30.6676 -30.6638 -30.6625 -30.6575 -30.6347
   -30.6342 -30.6321 -30.6312 -30.6309 -30.6297 -30.6292 -30.6210 -30.6206
     6.9699   7.0333   7.1203   7.1533   8.6048   8.7463   8.8797   8.9374
     9.0128   9.0240   9.1359   9.1661   9.2335   9.2349   9.2713   9.2786
     9.3799   9.4299   9.4323   9.5250   9.5661   9.5717   9.6113   9.6556
     9.6962   9.7280   9.7640   9.8779  10.0215  10.0426  10.0427  10.0598
    10.0849  10.1091  10.1207  10.1706  10.1734  10.1907  10.2052  10.2219
    10.3522  10.4820  10.5036  10.5755  10.5758  10.6139  10.6987  10.7148
    10.7770  10.7828  10.8144  10.8283  10.8893  10.9650  11.0721  11.0829
    11.0864  11.1368  11.1557  11.1629  11.1795  11.1914  11.1950  11.2555
    11.2765  11.2791  11.3468  11.3699  11.3829  11.4627  11.4706  11.5210
    11.5565  11.6194  11.6915  11.7912  11.8337  11.8925  11.9446  12.0152
    12.0471  12.0716  12.0999  12.1733  12.1870  12.2472  12.2601  12.2842
    12.3569  12.4500  12.5951  12.6086  12.6427  12.6448  12.6980  12.7066
    12.7923  12.8199  12.8719  13.2970  13.4563  13.5621  13.5956  14.1065
    14.1999  14.5931  14.9414  15.0044  15.1934  15.2754  15.3675  15.7021
    15.8478  16.0417  16.3379  16.6586  16.7940  16.8868  16.9291  17.2027
    17.3104  17.3518  17.3800  17.4254  17.4777  17.5171  17.5980  17.6556
    17.6742  17.7204  17.8150  17.9578  18.0299  18.0873  18.1576  18.1857
    18.3715  18.4073  18.5490  18.6876  19.0990  19.1615  19.2681  19.2929
    20.6841  20.7129

          k = 0.0000 0.7071-0.2721 ( 13688 PWs)   bands (ev):

   -66.5122 -66.5118 -66.4762 -61.8452 -61.8345 -61.8022 -61.8022 -61.8016
   -35.2808 -35.2808 -35.2546 -35.2418 -35.2417 -35.2340 -35.2340 -35.2020
   -35.1914 -30.6765 -30.6723 -30.6676 -30.6638 -30.6626 -30.6575 -30.6347
   -30.6343 -30.6321 -30.6311 -30.6309 -30.6298 -30.6292 -30.6210 -30.6206
     7.0391   7.0895   7.9268   7.9653   8.7025   8.7236   8.7683   8.7997
     8.8101   8.8342   9.0829   9.0857   9.1249   9.1397   9.1609   9.2174
     9.2356   9.2983   9.3811   9.4174   9.4733   9.4781   9.5638   9.6039
     9.6404   9.6681   9.7357   9.7437   9.7644   9.8394   9.8875   9.9708
    10.0233  10.0856  10.0944  10.1102  10.1305  10.1901  10.2050  10.2238
    10.2580  10.2912  10.5019  10.5429  10.6003  10.6169  10.7174  10.7394
    10.8152  10.8783  10.9626  10.9698  11.0033  11.0633  11.1047  11.1213
    11.1536  11.1557  11.1704  11.1755  11.2030  11.2360  11.2880  11.3226
    11.4189  11.4387  11.4808  11.5043  11.5633  11.5934  11.6678  11.7171
    11.7787  11.8602  11.8949  11.9410  11.9695  12.0337  12.0773  12.1271
    12.1367  12.1538  12.1965  12.2160  12.2697  12.2731  12.3076  12.3079
    12.3487  12.4181  12.4548  12.6194  12.6242  12.6318  12.6760  12.6909
    12.7775  12.7999  12.8847  13.1536  13.2159  13.2459  13.3932  13.5740
    13.6100  14.2857  14.3703  14.6019  14.6028  15.2704  15.3946  15.4855
    15.6311  15.8485  16.2448  16.4179  16.5074  16.8018  16.8073  17.1932
    17.2856  17.3556  17.3828  17.4157  17.4298  17.4599  17.4887  17.5211
    17.6255  17.6650  17.7204  17.7631  17.9628  17.9755  18.1247  18.1762
    18.2141  18.2801  18.3622  18.3810  18.5308  18.5926  19.1846  19.2604
    20.6137  20.7761

          k = 0.0000 0.7071 1.3603 ( 13696 PWs)   bands (ev):

   -66.5121 -66.5118 -66.4762 -61.8452 -61.8345 -61.8022 -61.8022 -61.8016
   -35.2808 -35.2808 -35.2546 -35.2418 -35.2418 -35.2340 -35.2340 -35.2020
   -35.1914 -30.6765 -30.6723 -30.6676 -30.6638 -30.6626 -30.6575 -30.6348
   -30.6344 -30.6320 -30.6311 -30.6309 -30.6299 -30.6292 -30.6210 -30.6206
     7.8576   7.9167   7.9894   8.0067   8.5871   8.6480   8.6749   8.7313
     8.8247   8.8469   8.8741   8.9602   9.0481   9.0732   9.1097   9.1568
     9.1827   9.1894   9.2591   9.2945   9.4469   9.4905   9.5363   9.5581
     9.5812   9.6083   9.6173   9.6774   9.6873   9.7203   9.7782   9.7816
     9.8481   9.9558  10.0088  10.0610  10.0831  10.1780  10.1954  10.2149
    10.2366  10.2393  10.2803  10.2989  10.5222  10.5304  10.7931  10.8172
    10.9080  10.9599  10.9903  11.0069  11.0337  11.1151  11.1317  11.1479
    11.2313  11.2317  11.2656  11.2830  11.4128  11.4381  11.4888  11.5128
    11.5242  11.6533  11.6615  11.7143  11.8025  11.8800  11.9107  11.9317
    11.9508  11.9818  11.9944  12.0044  12.0259  12.0572  12.0686  12.1276
    12.1311  12.2303  12.2451  12.2711  12.2772  12.3093  12.3241  12.3505
    12.3993  12.4432  12.5111  12.6119  12.6121  12.6471  12.6527  12.6716
    12.6948  12.7190  12.8190  13.0732  13.1186  13.1961  13.2784  13.3684
    13.3905  13.6468  13.7826  14.1381  14.2854  14.5834  14.6564  15.4303
    15.5487  15.8681  16.1200  16.3136  16.4208  16.5888  16.7261  17.0461
    17.2330  17.2588  17.2783  17.3011  17.4090  17.4610  17.4734  17.4983
    17.5419  17.5699  17.5841  17.6324  17.6870  17.7240  17.8745  18.0754
    18.1960  18.2907  18.3451  18.4024  18.4514  18.4610  18.6070  18.6253
    20.6160  20.8267

     the Fermi energy is    15.5636 ev

!    total energy              =  -14693.94202930 Ry
     Harris-Foulkes estimate   =  -14693.94201443 Ry
     estimated scf accuracy    <       0.00000057 Ry

     total all-electron energy =   -626921.537751 Ry

     The total energy is the sum of the following terms:

     one-electron contribution =    -698.47220504 Ry
     hartree contribution      =     651.61184278 Ry
     xc contribution           =    -738.10708065 Ry
     ewald contribution        =   -2207.56121140 Ry
     Hubbard energy            =       0.45782909 Ry
     one-center paw contrib.   =  -11701.87120409 Ry

     total magnetization       =     8.29 Bohr mag/cell
     absolute magnetization    =    36.83 Bohr mag/cell

     convergence has been achieved in  20 iterations

     Writing output data file mnau2.save/
 
     init_run     :     19.96s CPU     20.69s WALL (       1 calls)
     electrons    :    944.02s CPU    968.63s WALL (       1 calls)

     Called by init_run:
     wfcinit      :     17.67s CPU     18.27s WALL (       1 calls)
     potinit      :      1.16s CPU      1.22s WALL (       1 calls)
     hinit0       :      0.71s CPU      0.74s WALL (       1 calls)

     Called by electrons:
     c_bands      :    822.02s CPU    842.19s WALL (      20 calls)
     sum_band     :    100.25s CPU    103.28s WALL (      20 calls)
     v_of_rho     :      1.68s CPU      1.71s WALL (      21 calls)
     newd         :      6.33s CPU      7.13s WALL (      21 calls)
     PAW_pot      :     14.38s CPU     14.44s WALL (      21 calls)
     mix_rho      :      0.25s CPU      0.48s WALL (      20 calls)

     Called by c_bands:
     init_us_2    :      5.96s CPU      6.01s WALL (    2520 calls)
     cegterg      :    782.87s CPU    802.47s WALL (    1200 calls)

     Called by sum_band:
     sum_band:bec :      0.84s CPU      0.84s WALL (    1200 calls)
     addusdens    :     12.07s CPU     13.06s WALL (      20 calls)

     Called by *egterg:
     h_psi        :    339.48s CPU    349.36s WALL (    4414 calls)
     s_psi        :     47.17s CPU     47.47s WALL (    4474 calls)
     g_psi        :      1.80s CPU      1.81s WALL (    3154 calls)
     cdiaghg      :    297.86s CPU    303.15s WALL (    4354 calls)

     Called by h_psi:
     h_psi:pot    :    324.00s CPU    332.05s WALL (    4414 calls)
     h_psi:calbec :     45.30s CPU     47.12s WALL (    4414 calls)
     vloc_psi     :    232.99s CPU    238.67s WALL (    4414 calls)
     add_vuspsi   :     45.67s CPU     46.24s WALL (    4414 calls)
     vhpsi        :     13.98s CPU     14.08s WALL (    4414 calls)

     General routines
     calbec       :     75.87s CPU     78.30s WALL (   11288 calls)
     fft          :      0.90s CPU      0.92s WALL (     521 calls)
     ffts         :      0.04s CPU      0.05s WALL (      82 calls)
     fftw         :    259.93s CPU    266.09s WALL ( 1166904 calls)
     interpolate  :      0.10s CPU      0.10s WALL (      42 calls)
     davcio       :      0.00s CPU      0.15s WALL (      60 calls)
 
     Parallel routines
     fft_scatt_xy :     31.92s CPU     32.63s WALL ( 1167507 calls)
     fft_scatt_yz :     88.70s CPU     91.01s WALL ( 1167507 calls)

     Hubbard U routines
     new_ns       :      3.87s CPU      4.10s WALL (      20 calls)
     vhpsi        :     13.98s CPU     14.08s WALL (    4414 calls)
 
     PWSCF        : 16m 9.34s CPU    16m50.46s WALL

 
   This run was terminated on:  13:14:23  26Mar2019            

=------------------------------------------------------------------------------=
   JOB DONE.
=------------------------------------------------------------------------------=
