
     Program PWSCF v.6.3MaX starts on 26Mar2019 at 13:19: 5 

     This program is part of the open-source Quantum ESPRESSO suite
     for quantum simulation of materials; please cite
         "P. Giannozzi et al., J. Phys.:Condens. Matter 21 395502 (2009);
         "P. Giannozzi et al., J. Phys.:Condens. Matter 29 465901 (2017);
          URL http://www.quantum-espresso.org", 
     in publications or presentations arising from this work. More details at
     http://www.quantum-espresso.org/quote

     Parallel version (MPI), running on    16 processors

     MPI processes distributed on     1 nodes
     R & G space division:  proc/nbgrp/npool/nimage =      16
     Waiting for input...
     Reading input from standard input

     Current dimensions of program PWSCF are:
     Max number of different atomic species (ntypx) = 10
     Max number of k-points (npk) =  40000
     Max angular momentum in pseudopotentials (lmaxx) =  3
     Message from routine read_upf::
     Pseudo file ./pseudo/Mn.pbe-spn-kjpaw_psl.0.3.1.UPF has been successfully fixed on the fly.
To avoid this message in the future you can permanently fix 
 your pseudo files following instructions given in: 
https://gitlab.com/QEF/q-e/blob/master/upftools/how_to_fix_upf.md
               file Mn.pbe-spn-kjpaw_psl.0.3.1.UPF: wavefunction(s)  3P 3D renormalized
     Message from routine read_upf::
     Pseudo file ./pseudo/Mn.pbe-spn-kjpaw_psl.0.3.1.UPF has been successfully fixed on the fly.
To avoid this message in the future you can permanently fix 
 your pseudo files following instructions given in: 
https://gitlab.com/QEF/q-e/blob/master/upftools/how_to_fix_upf.md
               file Mn.pbe-spn-kjpaw_psl.0.3.1.UPF: wavefunction(s)  3P 3D renormalized
     Message from routine read_upf::
     Pseudo file ./pseudo/Au.pbe-dn-kjpaw_psl.0.1.UPF has been successfully fixed on the fly.
To avoid this message in the future you can permanently fix 
 your pseudo files following instructions given in: 
https://gitlab.com/QEF/q-e/blob/master/upftools/how_to_fix_upf.md
               file Au.pbe-dn-kjpaw_psl.0.1.UPF: wavefunction(s)  6S 6P 5D renormalized

     Subspace diagonalization in iterative solution of the eigenvalue problem:
     one sub-group per band group will be used
     scalapack distributed-memory algorithm (size of sub-group:  2*  2 procs)

     Found symmetry operation: I + (  0.5000  0.0000  0.0000)
     This is a supercell, fractional translations are disabled
 
     Parallelization info
     --------------------
     sticks:   dense  smooth     PW     G-vecs:    dense   smooth      PW
     Min         646     290     84                22663     6843    1075
     Max         647     291     85                22664     6844    1077
     Sum       10349    4645   1353               362619   109493   17211
 


     bravais-lattice index     =            0
     lattice parameter (alat)  =      18.0125  a.u.
     unit-cell volume          =    2685.0513 (a.u.)^3
     number of atoms/cell      =           24
     number of atomic types    =            3
     number of electrons       =       296.00
     number of Kohn-Sham states=          178
     kinetic-energy cutoff     =      45.0000  Ry
     charge density cutoff     =     400.0000  Ry
     convergence threshold     =      1.0E-06
     mixing beta               =       0.1000
     number of iterations used =            8  plain     mixing
     Exchange-correlation      = SLA PW PBX PBC ( 1  4  3  4 0 0)

     celldm(1)=  18.012490  celldm(2)=   0.000000  celldm(3)=   0.000000
     celldm(4)=   0.000000  celldm(5)=   0.000000  celldm(6)=   0.000000

     crystal axes: (cart. coord. in units of alat)
               a(1) = (   0.707107  -0.707107   0.000000 )  
               a(2) = (  -0.707107  -0.707107   0.000000 )  
               a(3) = (   0.176777   0.176777  -0.459443 )  

     reciprocal axes: (cart. coord. in units 2 pi/alat)
               b(1) = (  0.707107 -0.707107  0.000000 )  
               b(2) = ( -0.707107 -0.707107 -0.544138 )  
               b(3) = (  0.000000  0.000000 -2.176550 )  


     PseudoPot. # 1 for Mn read from file:
     ./pseudo/Mn.pbe-spn-kjpaw_psl.0.3.1.UPF
     MD5 check sum: 7eef95dd2aae66803482eea66ebeebf1
     Pseudo is Projector augmented-wave + core cor, Zval = 15.0
     Generated using "atomic" code by A. Dal Corso v.5.0.99 svn rev. 10869
     Shape of augmentation charge: PSQ
     Using radial grid of 1187 points,  6 beta functions with: 
                l(1) =   0
                l(2) =   0
                l(3) =   1
                l(4) =   1
                l(5) =   2
                l(6) =   2
     Q(r) pseudized with 0 coefficients 


     PseudoPot. # 2 for Mn read from file:
     ./pseudo/Mn.pbe-spn-kjpaw_psl.0.3.1.UPF
     MD5 check sum: 7eef95dd2aae66803482eea66ebeebf1
     Pseudo is Projector augmented-wave + core cor, Zval = 15.0
     Generated using "atomic" code by A. Dal Corso v.5.0.99 svn rev. 10869
     Shape of augmentation charge: PSQ
     Using radial grid of 1187 points,  6 beta functions with: 
                l(1) =   0
                l(2) =   0
                l(3) =   1
                l(4) =   1
                l(5) =   2
                l(6) =   2
     Q(r) pseudized with 0 coefficients 


     PseudoPot. # 3 for Au read from file:
     ./pseudo/Au.pbe-dn-kjpaw_psl.0.1.UPF
     MD5 check sum: 5c9b92683623e7ae2ab3f8e525febab6
     Pseudo is Projector augmented-wave + core cor, Zval = 11.0
     Generated using "atomic" code by A. Dal Corso v.5.0.2 svn rev. 9415
     Shape of augmentation charge: PSQ
     Using radial grid of 1279 points,  6 beta functions with: 
                l(1) =   0
                l(2) =   0
                l(3) =   1
                l(4) =   1
                l(5) =   2
                l(6) =   2
     Q(r) pseudized with 0 coefficients 


     atomic species   valence    mass     pseudopotential
        Mn1           15.00    54.93800     Mn( 1.00)
        Mn2           15.00    54.93800     Mn( 1.00)
        Au            11.00   196.96600     Au( 1.00)

     Starting magnetic structure 
     atomic species   magnetization
        Mn1          1.000
        Mn2         -1.000
        Au           0.000


     Full LDA+U calculation (l_max = 2) with parameters (eV):
     U(  1) =   3.1200   J(  1) =   0.7000   B(  1) =   0.0803
     U(  2) =   3.1200   J(  2) =   0.7000   B(  2) =   0.0803



      4 Sym. Ops., with inversion, found



   Cartesian axes

     site n.     atom                  positions (alat units)
         1           Mn1 tau(   1) = (   0.3535534  -0.3535534   0.0000000  )
         2           Mn1 tau(   2) = (   0.0000000   0.0000000   0.0000000  )
         3           Mn2 tau(   3) = (   0.0000000  -0.3535534   0.0000000  )
         4           Mn2 tau(   4) = (   0.3535534  -0.7071068   0.0000000  )
         5           Mn2 tau(   5) = (  -0.3535534  -0.3535534   0.0000000  )
         6           Mn2 tau(   6) = (   0.0000000  -0.7071068   0.0000000  )
         7           Mn2 tau(   7) = (  -0.3535534  -0.7071068   0.0000000  )
         8           Mn2 tau(   8) = (   0.0000000  -1.0606602   0.0000000  )
         9           Au  tau(   9) = (  -0.1767767  -0.1767767  -0.1470216  )
        10           Au  tau(  10) = (   0.1767767  -0.5303301  -0.1470216  )
        11           Au  tau(  11) = (  -0.1767767  -0.5303301  -0.1470216  )
        12           Au  tau(  12) = (   0.1767767  -0.8838835  -0.1470216  )
        13           Au  tau(  13) = (  -0.5303301  -0.5303301  -0.1470216  )
        14           Au  tau(  14) = (  -0.1767767  -0.8838835  -0.1470216  )
        15           Au  tau(  15) = (   0.5303301  -0.5303301  -0.1470216  )
        16           Au  tau(  16) = (   0.1767767  -0.1767767  -0.1470216  )
        17           Au  tau(  17) = (   0.3535534  -0.3535534  -0.3124210  )
        18           Au  tau(  18) = (   0.0000000   0.0000000  -0.3124210  )
        19           Au  tau(  19) = (   0.0000000  -0.3535534  -0.3124210  )
        20           Au  tau(  20) = (   0.3535534  -0.7071068  -0.3124210  )
        21           Au  tau(  21) = (  -0.3535534  -0.3535534  -0.3124210  )
        22           Au  tau(  22) = (  -0.0000000  -0.7071068  -0.3124210  )
        23           Au  tau(  23) = (  -0.3535534  -0.7071068  -0.3124210  )
        24           Au  tau(  24) = (   0.0000000  -1.0606602  -0.3124210  )

     number of k points=    30 (tetrahedron method)
                       cart. coord. in units 2pi/alat
        k(    1) = (   0.0000000   0.0000000   0.0000000), wk =   0.0156250
        k(    2) = (   0.0000000   0.0000000  -0.5441376), wk =   0.0312500
        k(    3) = (   0.0000000   0.0000000   1.0882752), wk =   0.0156250
        k(    4) = (  -0.1767767  -0.1767767  -0.1360344), wk =   0.0312500
        k(    5) = (  -0.1767767  -0.1767767  -0.6801720), wk =   0.0312500
        k(    6) = (  -0.1767767  -0.1767767   0.9522408), wk =   0.0312500
        k(    7) = (  -0.1767767  -0.1767767   0.4081032), wk =   0.0312500
        k(    8) = (   0.3535534   0.3535534   0.2720688), wk =   0.0156250
        k(    9) = (   0.3535534   0.3535534  -0.2720688), wk =   0.0312500
        k(   10) = (   0.3535534   0.3535534   1.3603439), wk =   0.0156250
        k(   11) = (   0.1767767  -0.1767767   0.0000000), wk =   0.0312500
        k(   12) = (   0.1767767  -0.1767767  -0.5441376), wk =   0.0625000
        k(   13) = (   0.1767767  -0.1767767   1.0882752), wk =   0.0312500
        k(   14) = (   0.0000000  -0.3535534  -0.1360344), wk =   0.0625000
        k(   15) = (   0.0000000  -0.3535534  -0.6801720), wk =   0.0625000
        k(   16) = (   0.0000000  -0.3535534   0.9522408), wk =   0.0625000
        k(   17) = (   0.0000000  -0.3535534   0.4081032), wk =   0.0625000
        k(   18) = (   0.5303301   0.1767767   0.2720688), wk =   0.0312500
        k(   19) = (   0.5303301   0.1767767  -0.2720688), wk =   0.0625000
        k(   20) = (   0.5303301   0.1767767   1.3603439), wk =   0.0312500
        k(   21) = (  -0.3535534   0.3535534   0.0000000), wk =   0.0156250
        k(   22) = (  -0.3535534   0.3535534  -0.5441376), wk =   0.0312500
        k(   23) = (  -0.3535534   0.3535534   1.0882752), wk =   0.0156250
        k(   24) = (  -0.5303301   0.1767767  -0.1360344), wk =   0.0312500
        k(   25) = (  -0.5303301   0.1767767  -0.6801720), wk =   0.0312500
        k(   26) = (  -0.5303301   0.1767767   0.9522408), wk =   0.0312500
        k(   27) = (  -0.5303301   0.1767767   0.4081032), wk =   0.0312500
        k(   28) = (   0.0000000   0.7071068   0.2720688), wk =   0.0156250
        k(   29) = (   0.0000000   0.7071068  -0.2720688), wk =   0.0312500
        k(   30) = (   0.0000000   0.7071068   1.3603439), wk =   0.0156250

     Dense  grid:   362619 G-vectors     FFT dimensions: ( 120, 120,  60)

     Smooth grid:   109493 G-vectors     FFT dimensions: (  80,  80,  45)

     Estimated max dynamical RAM per process >     286.87 MB

     Estimated total dynamical RAM >       4.48 GB
     Generating pointlists ...
     new r_m :   0.1196 (alat units)  2.1549 (a.u.) for type    1
     new r_m :   0.1196 (alat units)  2.1549 (a.u.) for type    2
     new r_m :   0.1196 (alat units)  2.1549 (a.u.) for type    3

     Check: negative/imaginary core charge=   -0.000006    0.000000

     Initial potential from superposition of free atoms

     starting charge  295.99426, renormalised to  296.00000
     Number of +U iterations with fixed ns =  0
     Starting occupations:
 --- enter write_ns ---
 LDA+U parameters:
U(  1) =   3.1200   J(  1) =   0.7000   B(  1) =   0.0803
U(  2) =   3.1200   J(  2) =   0.7000   B(  2) =   0.0803
atom    1   Tr[ns(na)] (up, down, total) =   5.00000  0.00000  5.00000
   spin  1
    eigenvalues: 
  1.000  1.000  1.000  1.000  1.000
    eigenvectors:
  1.000  0.000  0.000  0.000  0.000
  0.000  1.000  0.000  0.000  0.000
  0.000  0.000  1.000  0.000  0.000
  0.000  0.000  0.000  1.000  0.000
  0.000  0.000  0.000  0.000  1.000
    occupations:
  1.000  0.000  0.000  0.000  0.000
  0.000  1.000  0.000  0.000  0.000
  0.000  0.000  1.000  0.000  0.000
  0.000  0.000  0.000  1.000  0.000
  0.000  0.000  0.000  0.000  1.000
   spin  2
    eigenvalues: 
  0.000  0.000  0.000  0.000  0.000
    eigenvectors:
  1.000  0.000  0.000  0.000  0.000
  0.000  1.000  0.000  0.000  0.000
  0.000  0.000  1.000  0.000  0.000
  0.000  0.000  0.000  1.000  0.000
  0.000  0.000  0.000  0.000  1.000
    occupations:
  0.000  0.000  0.000  0.000  0.000
  0.000  0.000  0.000  0.000  0.000
  0.000  0.000  0.000  0.000  0.000
  0.000  0.000  0.000  0.000  0.000
  0.000  0.000  0.000  0.000  0.000
atomic mag. moment =     5.000000
atom    2   Tr[ns(na)] (up, down, total) =   5.00000  0.00000  5.00000
   spin  1
    eigenvalues: 
  1.000  1.000  1.000  1.000  1.000
    eigenvectors:
  1.000  0.000  0.000  0.000  0.000
  0.000  1.000  0.000  0.000  0.000
  0.000  0.000  1.000  0.000  0.000
  0.000  0.000  0.000  1.000  0.000
  0.000  0.000  0.000  0.000  1.000
    occupations:
  1.000  0.000  0.000  0.000  0.000
  0.000  1.000  0.000  0.000  0.000
  0.000  0.000  1.000  0.000  0.000
  0.000  0.000  0.000  1.000  0.000
  0.000  0.000  0.000  0.000  1.000
   spin  2
    eigenvalues: 
  0.000  0.000  0.000  0.000  0.000
    eigenvectors:
  1.000  0.000  0.000  0.000  0.000
  0.000  1.000  0.000  0.000  0.000
  0.000  0.000  1.000  0.000  0.000
  0.000  0.000  0.000  1.000  0.000
  0.000  0.000  0.000  0.000  1.000
    occupations:
  0.000  0.000  0.000  0.000  0.000
  0.000  0.000  0.000  0.000  0.000
  0.000  0.000  0.000  0.000  0.000
  0.000  0.000  0.000  0.000  0.000
  0.000  0.000  0.000  0.000  0.000
atomic mag. moment =     5.000000
atom    3   Tr[ns(na)] (up, down, total) =   0.00000  5.00000  5.00000
   spin  1
    eigenvalues: 
  0.000  0.000  0.000  0.000  0.000
    eigenvectors:
  1.000  0.000  0.000  0.000  0.000
  0.000  1.000  0.000  0.000  0.000
  0.000  0.000  1.000  0.000  0.000
  0.000  0.000  0.000  1.000  0.000
  0.000  0.000  0.000  0.000  1.000
    occupations:
  0.000  0.000  0.000  0.000  0.000
  0.000  0.000  0.000  0.000  0.000
  0.000  0.000  0.000  0.000  0.000
  0.000  0.000  0.000  0.000  0.000
  0.000  0.000  0.000  0.000  0.000
   spin  2
    eigenvalues: 
  1.000  1.000  1.000  1.000  1.000
    eigenvectors:
  1.000  0.000  0.000  0.000  0.000
  0.000  1.000  0.000  0.000  0.000
  0.000  0.000  1.000  0.000  0.000
  0.000  0.000  0.000  1.000  0.000
  0.000  0.000  0.000  0.000  1.000
    occupations:
  1.000  0.000  0.000  0.000  0.000
  0.000  1.000  0.000  0.000  0.000
  0.000  0.000  1.000  0.000  0.000
  0.000  0.000  0.000  1.000  0.000
  0.000  0.000  0.000  0.000  1.000
atomic mag. moment =    -5.000000
atom    4   Tr[ns(na)] (up, down, total) =   0.00000  5.00000  5.00000
   spin  1
    eigenvalues: 
  0.000  0.000  0.000  0.000  0.000
    eigenvectors:
  1.000  0.000  0.000  0.000  0.000
  0.000  1.000  0.000  0.000  0.000
  0.000  0.000  1.000  0.000  0.000
  0.000  0.000  0.000  1.000  0.000
  0.000  0.000  0.000  0.000  1.000
    occupations:
  0.000  0.000  0.000  0.000  0.000
  0.000  0.000  0.000  0.000  0.000
  0.000  0.000  0.000  0.000  0.000
  0.000  0.000  0.000  0.000  0.000
  0.000  0.000  0.000  0.000  0.000
   spin  2
    eigenvalues: 
  1.000  1.000  1.000  1.000  1.000
    eigenvectors:
  1.000  0.000  0.000  0.000  0.000
  0.000  1.000  0.000  0.000  0.000
  0.000  0.000  1.000  0.000  0.000
  0.000  0.000  0.000  1.000  0.000
  0.000  0.000  0.000  0.000  1.000
    occupations:
  1.000  0.000  0.000  0.000  0.000
  0.000  1.000  0.000  0.000  0.000
  0.000  0.000  1.000  0.000  0.000
  0.000  0.000  0.000  1.000  0.000
  0.000  0.000  0.000  0.000  1.000
atomic mag. moment =    -5.000000
atom    5   Tr[ns(na)] (up, down, total) =   0.00000  5.00000  5.00000
   spin  1
    eigenvalues: 
  0.000  0.000  0.000  0.000  0.000
    eigenvectors:
  1.000  0.000  0.000  0.000  0.000
  0.000  1.000  0.000  0.000  0.000
  0.000  0.000  1.000  0.000  0.000
  0.000  0.000  0.000  1.000  0.000
  0.000  0.000  0.000  0.000  1.000
    occupations:
  0.000  0.000  0.000  0.000  0.000
  0.000  0.000  0.000  0.000  0.000
  0.000  0.000  0.000  0.000  0.000
  0.000  0.000  0.000  0.000  0.000
  0.000  0.000  0.000  0.000  0.000
   spin  2
    eigenvalues: 
  1.000  1.000  1.000  1.000  1.000
    eigenvectors:
  1.000  0.000  0.000  0.000  0.000
  0.000  1.000  0.000  0.000  0.000
  0.000  0.000  1.000  0.000  0.000
  0.000  0.000  0.000  1.000  0.000
  0.000  0.000  0.000  0.000  1.000
    occupations:
  1.000  0.000  0.000  0.000  0.000
  0.000  1.000  0.000  0.000  0.000
  0.000  0.000  1.000  0.000  0.000
  0.000  0.000  0.000  1.000  0.000
  0.000  0.000  0.000  0.000  1.000
atomic mag. moment =    -5.000000
atom    6   Tr[ns(na)] (up, down, total) =   0.00000  5.00000  5.00000
   spin  1
    eigenvalues: 
  0.000  0.000  0.000  0.000  0.000
    eigenvectors:
  1.000  0.000  0.000  0.000  0.000
  0.000  1.000  0.000  0.000  0.000
  0.000  0.000  1.000  0.000  0.000
  0.000  0.000  0.000  1.000  0.000
  0.000  0.000  0.000  0.000  1.000
    occupations:
  0.000  0.000  0.000  0.000  0.000
  0.000  0.000  0.000  0.000  0.000
  0.000  0.000  0.000  0.000  0.000
  0.000  0.000  0.000  0.000  0.000
  0.000  0.000  0.000  0.000  0.000
   spin  2
    eigenvalues: 
  1.000  1.000  1.000  1.000  1.000
    eigenvectors:
  1.000  0.000  0.000  0.000  0.000
  0.000  1.000  0.000  0.000  0.000
  0.000  0.000  1.000  0.000  0.000
  0.000  0.000  0.000  1.000  0.000
  0.000  0.000  0.000  0.000  1.000
    occupations:
  1.000  0.000  0.000  0.000  0.000
  0.000  1.000  0.000  0.000  0.000
  0.000  0.000  1.000  0.000  0.000
  0.000  0.000  0.000  1.000  0.000
  0.000  0.000  0.000  0.000  1.000
atomic mag. moment =    -5.000000
atom    7   Tr[ns(na)] (up, down, total) =   0.00000  5.00000  5.00000
   spin  1
    eigenvalues: 
  0.000  0.000  0.000  0.000  0.000
    eigenvectors:
  1.000  0.000  0.000  0.000  0.000
  0.000  1.000  0.000  0.000  0.000
  0.000  0.000  1.000  0.000  0.000
  0.000  0.000  0.000  1.000  0.000
  0.000  0.000  0.000  0.000  1.000
    occupations:
  0.000  0.000  0.000  0.000  0.000
  0.000  0.000  0.000  0.000  0.000
  0.000  0.000  0.000  0.000  0.000
  0.000  0.000  0.000  0.000  0.000
  0.000  0.000  0.000  0.000  0.000
   spin  2
    eigenvalues: 
  1.000  1.000  1.000  1.000  1.000
    eigenvectors:
  1.000  0.000  0.000  0.000  0.000
  0.000  1.000  0.000  0.000  0.000
  0.000  0.000  1.000  0.000  0.000
  0.000  0.000  0.000  1.000  0.000
  0.000  0.000  0.000  0.000  1.000
    occupations:
  1.000  0.000  0.000  0.000  0.000
  0.000  1.000  0.000  0.000  0.000
  0.000  0.000  1.000  0.000  0.000
  0.000  0.000  0.000  1.000  0.000
  0.000  0.000  0.000  0.000  1.000
atomic mag. moment =    -5.000000
atom    8   Tr[ns(na)] (up, down, total) =   0.00000  5.00000  5.00000
   spin  1
    eigenvalues: 
  0.000  0.000  0.000  0.000  0.000
    eigenvectors:
  1.000  0.000  0.000  0.000  0.000
  0.000  1.000  0.000  0.000  0.000
  0.000  0.000  1.000  0.000  0.000
  0.000  0.000  0.000  1.000  0.000
  0.000  0.000  0.000  0.000  1.000
    occupations:
  0.000  0.000  0.000  0.000  0.000
  0.000  0.000  0.000  0.000  0.000
  0.000  0.000  0.000  0.000  0.000
  0.000  0.000  0.000  0.000  0.000
  0.000  0.000  0.000  0.000  0.000
   spin  2
    eigenvalues: 
  1.000  1.000  1.000  1.000  1.000
    eigenvectors:
  1.000  0.000  0.000  0.000  0.000
  0.000  1.000  0.000  0.000  0.000
  0.000  0.000  1.000  0.000  0.000
  0.000  0.000  0.000  1.000  0.000
  0.000  0.000  0.000  0.000  1.000
    occupations:
  1.000  0.000  0.000  0.000  0.000
  0.000  1.000  0.000  0.000  0.000
  0.000  0.000  1.000  0.000  0.000
  0.000  0.000  0.000  1.000  0.000
  0.000  0.000  0.000  0.000  1.000
atomic mag. moment =    -5.000000
N of occupied +U levels =   40.000000
 --- exit write_ns ---
 Atomic wfc used for LDA+U Projector are NOT orthogonalized
     Starting wfcs are  224 randomized atomic wfcs
     Checking if some PAW data can be deallocated... 

     total cpu time spent up to now is       25.4 secs

     Self-consistent Calculation

     iteration #  1     ecut=    45.00 Ry     beta= 0.10
     Davidson diagonalization with overlap
     ethr =  1.00E-02,  avg # of iterations =  4.4
 --- enter write_ns ---
 LDA+U parameters:
U(  1) =   3.1200   J(  1) =   0.7000   B(  1) =   0.0803
U(  2) =   3.1200   J(  2) =   0.7000   B(  2) =   0.0803
atom    1   Tr[ns(na)] (up, down, total) =   5.01463  0.27702  5.29165
   spin  1
    eigenvalues: 
  1.003  1.003  1.003  1.003  1.003
    eigenvectors:
  0.001  0.000  0.000  0.999  0.000
  0.001  0.499  0.500  0.000  0.000
  0.001  0.499  0.500  0.000  0.000
  0.000  0.000  0.000  0.000  1.000
  0.997  0.003  0.000  0.001  0.000
    occupations:
  1.003 -0.000 -0.000 -0.000  0.000
 -0.000  1.003 -0.000  0.000  0.000
 -0.000 -0.000  1.003 -0.000  0.000
 -0.000  0.000 -0.000  1.003 -0.000
  0.000  0.000  0.000 -0.000  1.003
   spin  2
    eigenvalues: 
  0.043  0.054  0.055  0.055  0.071
    eigenvectors:
  0.000  0.000  0.990  0.009  0.001
  0.000  0.500  0.005  0.491  0.004
  0.000  0.500  0.005  0.491  0.004
  1.000  0.000  0.000  0.000  0.000
  0.000  0.000  0.001  0.009  0.991
    occupations:
  0.055  0.000  0.000 -0.000  0.001
  0.000  0.054  0.001 -0.000  0.001
  0.000  0.001  0.054  0.000  0.001
 -0.000 -0.000  0.000  0.043 -0.000
  0.001  0.001  0.001 -0.000  0.071
atomic mag. moment =     4.737603
atom    2   Tr[ns(na)] (up, down, total) =   5.01471  0.27779  5.29250
   spin  1
    eigenvalues: 
  1.003  1.003  1.003  1.003  1.003
    eigenvectors:
  0.000  0.000  0.004  0.995  0.000
  0.001  0.500  0.497  0.002  0.000
  0.001  0.500  0.497  0.002  0.000
  0.000  0.000  0.000  0.000  1.000
  0.998  0.000  0.001  0.000  0.000
    occupations:
  1.003 -0.000 -0.000 -0.000  0.000
 -0.000  1.003  0.000 -0.000 -0.000
 -0.000  0.000  1.003  0.000 -0.000
 -0.000 -0.000  0.000  1.003 -0.000
  0.000 -0.000 -0.000 -0.000  1.003
   spin  2
    eigenvalues: 
  0.043  0.054  0.055  0.055  0.071
    eigenvectors:
  0.000  0.000  0.768  0.230  0.002
  0.000  0.500  0.116  0.379  0.005
  0.000  0.500  0.116  0.379  0.005
  1.000  0.000  0.000  0.000  0.000
  0.000  0.000  0.000  0.012  0.988
    occupations:
  0.055  0.000  0.000 -0.000  0.001
  0.000  0.054  0.001 -0.000  0.001
  0.000  0.001  0.054  0.000  0.001
 -0.000 -0.000  0.000  0.043 -0.000
  0.001  0.001  0.001 -0.000  0.071
atomic mag. moment =     4.736913
atom    3   Tr[ns(na)] (up, down, total) =   0.27416  5.01474  5.28889
   spin  1
    eigenvalues: 
  0.041  0.051  0.054  0.055  0.073
    eigenvectors:
  0.000  0.980  0.000  0.020  0.000
  0.000  0.011  0.475  0.514  0.001
  0.000  0.010  0.525  0.465  0.000
  1.000  0.000  0.000  0.000  0.000
  0.000  0.000  0.000  0.001  0.999
    occupations:
  0.051  0.000  0.000 -0.000 -0.000
  0.000  0.054  0.000 -0.000  0.000
  0.000  0.000  0.054  0.000  0.000
 -0.000 -0.000  0.000  0.041 -0.000
 -0.000  0.000  0.000 -0.000  0.073
   spin  2
    eigenvalues: 
  1.003  1.003  1.003  1.003  1.003
    eigenvectors:
  0.000  0.000  0.000  1.000  0.000
  0.000  0.659  0.341  0.000  0.000
  0.000  0.341  0.659  0.000  0.000
  0.000  0.000  0.000  0.000  1.000
  1.000  0.000  0.000  0.000  0.000
    occupations:
  1.003 -0.000  0.000  0.000 -0.000
 -0.000  1.003  0.000  0.000 -0.000
  0.000  0.000  1.003  0.000 -0.000
  0.000  0.000  0.000  1.003 -0.000
 -0.000 -0.000 -0.000 -0.000  1.003
atomic mag. moment =    -4.740577
atom    4   Tr[ns(na)] (up, down, total) =   0.27416  5.01474  5.28889
   spin  1
    eigenvalues: 
  0.041  0.051  0.054  0.055  0.073
    eigenvectors:
  0.000  0.980  0.000  0.020  0.000
  0.000  0.010  0.525  0.465  0.000
  0.000  0.011  0.475  0.514  0.001
  1.000  0.000  0.000  0.000  0.000
  0.000  0.000  0.000  0.001  0.999
    occupations:
  0.051  0.000  0.000  0.000 -0.000
  0.000  0.054  0.000 -0.000  0.000
  0.000  0.000  0.054  0.000  0.000
  0.000 -0.000  0.000  0.041  0.000
 -0.000  0.000  0.000  0.000  0.073
   spin  2
    eigenvalues: 
  1.003  1.003  1.003  1.003  1.003
    eigenvectors:
  0.000  0.000  0.000  1.000  0.000
  0.000  0.341  0.659  0.000  0.000
  0.000  0.659  0.341  0.000  0.000
  0.000  0.000  0.000  0.000  1.000
  1.000  0.000  0.000  0.000  0.000
    occupations:
  1.003  0.000 -0.000 -0.000 -0.000
  0.000  1.003  0.000 -0.000 -0.000
 -0.000  0.000  1.003 -0.000 -0.000
 -0.000 -0.000 -0.000  1.003  0.000
 -0.000 -0.000 -0.000  0.000  1.003
atomic mag. moment =    -4.740577
atom    5   Tr[ns(na)] (up, down, total) =   0.27231  5.01503  5.28734
   spin  1
    eigenvalues: 
  0.039  0.051  0.054  0.056  0.072
    eigenvectors:
  0.000  0.965  0.000  0.035  0.000
  0.000  0.017  0.500  0.479  0.004
  0.000  0.017  0.500  0.479  0.004
  1.000  0.000  0.000  0.000  0.000
  0.000  0.001  0.000  0.008  0.992
    occupations:
  0.051  0.001  0.001 -0.000 -0.000
  0.001  0.055  0.001 -0.000  0.001
  0.001  0.001  0.055  0.000  0.001
 -0.000 -0.000  0.000  0.039 -0.000
 -0.000  0.001  0.001 -0.000  0.072
   spin  2
    eigenvalues: 
  1.003  1.003  1.003  1.003  1.004
    eigenvectors:
  0.000  0.000  0.000  0.999  0.000
  0.001  0.499  0.500  0.000  0.000
  0.001  0.499  0.500  0.000  0.000
  0.000  0.000  0.000  0.000  1.000
  0.998  0.001  0.000  0.000  0.000
    occupations:
  1.003  0.000  0.000 -0.000  0.000
  0.000  1.003 -0.000  0.000  0.000
  0.000 -0.000  1.003 -0.000  0.000
 -0.000  0.000 -0.000  1.004 -0.000
  0.000  0.000  0.000 -0.000  1.003
atomic mag. moment =    -4.742714
atom    6   Tr[ns(na)] (up, down, total) =   0.27200  5.01522  5.28722
   spin  1
    eigenvalues: 
  0.039  0.051  0.054  0.056  0.072
    eigenvectors:
  0.000  0.966  0.000  0.034  0.000
  0.000  0.017  0.500  0.479  0.004
  0.000  0.017  0.500  0.479  0.004
  0.999  0.000  0.001  0.000  0.000
  0.000  0.000  0.000  0.008  0.992
    occupations:
  0.051  0.001  0.001 -0.000 -0.000
  0.001  0.055  0.001 -0.000  0.001
  0.001  0.001  0.055  0.000  0.001
 -0.000 -0.000  0.000  0.039 -0.000
 -0.000  0.001  0.001 -0.000  0.072
   spin  2
    eigenvalues: 
  1.003  1.003  1.003  1.003  1.004
    eigenvectors:
  0.000  0.000  0.001  0.999  0.000
  0.000  0.500  0.499  0.000  0.000
  0.000  0.500  0.499  0.000  0.000
  0.000  0.000  0.000  0.000  1.000
  1.000  0.000  0.000  0.000  0.000
    occupations:
  1.003  0.000  0.000 -0.000  0.000
  0.000  1.003  0.000  0.000  0.000
  0.000  0.000  1.003 -0.000  0.000
 -0.000  0.000 -0.000  1.004 -0.000
  0.000  0.000  0.000 -0.000  1.003
atomic mag. moment =    -4.743214
atom    7   Tr[ns(na)] (up, down, total) =   0.27416  5.01474  5.28889
   spin  1
    eigenvalues: 
  0.041  0.051  0.054  0.055  0.073
    eigenvectors:
  0.000  0.980  0.000  0.020  0.000
  0.000  0.010  0.525  0.465  0.000
  0.000  0.011  0.475  0.514  0.001
  1.000  0.000  0.000  0.000  0.000
  0.000  0.000  0.000  0.001  0.999
    occupations:
  0.051  0.000  0.000  0.000 -0.000
  0.000  0.054  0.000 -0.000  0.000
  0.000  0.000  0.054  0.000  0.000
  0.000 -0.000  0.000  0.041  0.000
 -0.000  0.000  0.000  0.000  0.073
   spin  2
    eigenvalues: 
  1.003  1.003  1.003  1.003  1.003
    eigenvectors:
  0.000  0.000  0.000  1.000  0.000
  0.000  0.341  0.659  0.000  0.000
  0.000  0.659  0.341  0.000  0.000
  0.000  0.000  0.000  0.000  1.000
  1.000  0.000  0.000  0.000  0.000
    occupations:
  1.003  0.000 -0.000 -0.000 -0.000
  0.000  1.003  0.000 -0.000 -0.000
 -0.000  0.000  1.003 -0.000 -0.000
 -0.000 -0.000 -0.000  1.003  0.000
 -0.000 -0.000 -0.000  0.000  1.003
atomic mag. moment =    -4.740577
atom    8   Tr[ns(na)] (up, down, total) =   0.27416  5.01474  5.28889
   spin  1
    eigenvalues: 
  0.041  0.051  0.054  0.055  0.073
    eigenvectors:
  0.000  0.980  0.000  0.020  0.000
  0.000  0.011  0.475  0.514  0.001
  0.000  0.010  0.525  0.465  0.000
  1.000  0.000  0.000  0.000  0.000
  0.000  0.000  0.000  0.001  0.999
    occupations:
  0.051  0.000  0.000 -0.000 -0.000
  0.000  0.054  0.000 -0.000  0.000
  0.000  0.000  0.054  0.000  0.000
 -0.000 -0.000  0.000  0.041 -0.000
 -0.000  0.000  0.000 -0.000  0.073
   spin  2
    eigenvalues: 
  1.003  1.003  1.003  1.003  1.003
    eigenvectors:
  0.000  0.000  0.000  1.000  0.000
  0.000  0.659  0.341  0.000  0.000
  0.000  0.341  0.659  0.000  0.000
  0.000  0.000  0.000  0.000  1.000
  1.000  0.000  0.000  0.000  0.000
    occupations:
  1.003 -0.000  0.000  0.000 -0.000
 -0.000  1.003  0.000  0.000 -0.000
  0.000  0.000  1.003  0.000 -0.000
  0.000  0.000  0.000  1.003 -0.000
 -0.000 -0.000 -0.000 -0.000  1.003
atomic mag. moment =    -4.740577
N of occupied +U levels =   42.314285
 --- exit write_ns ---

     total cpu time spent up to now is       96.3 secs

     total energy              =  -14679.20984893 Ry
     Harris-Foulkes estimate   =  -14669.81436720 Ry
     estimated scf accuracy    <      21.27035366 Ry

     total magnetization       =   -21.00 Bohr mag/cell
     absolute magnetization    =    43.53 Bohr mag/cell

     iteration #  2     ecut=    45.00 Ry     beta= 0.10
     Davidson diagonalization with overlap
     ethr =  7.19E-03,  avg # of iterations =  1.0

     total cpu time spent up to now is      134.5 secs

     total energy              =  -14692.17166662 Ry
     Harris-Foulkes estimate   =  -14679.31467860 Ry
     estimated scf accuracy    <      17.16860610 Ry

     total magnetization       =   -20.70 Bohr mag/cell
     absolute magnetization    =    43.10 Bohr mag/cell

     iteration #  3     ecut=    45.00 Ry     beta= 0.10
     Davidson diagonalization with overlap
     ethr =  5.80E-03,  avg # of iterations =  2.2

     total cpu time spent up to now is      181.3 secs

     total energy              =  -14693.89586778 Ry
     Harris-Foulkes estimate   =  -14693.80965192 Ry
     estimated scf accuracy    <       4.10990302 Ry

     total magnetization       =   -18.60 Bohr mag/cell
     absolute magnetization    =    39.17 Bohr mag/cell

     iteration #  4     ecut=    45.00 Ry     beta= 0.10
     Davidson diagonalization with overlap
     ethr =  1.39E-03,  avg # of iterations =  5.1

     total cpu time spent up to now is      244.5 secs

     total energy              =  -14693.45310579 Ry
     Harris-Foulkes estimate   =  -14693.93998271 Ry
     estimated scf accuracy    <       4.48286938 Ry

     total magnetization       =   -18.51 Bohr mag/cell
     absolute magnetization    =    38.93 Bohr mag/cell

     iteration #  5     ecut=    45.00 Ry     beta= 0.10
     Davidson diagonalization with overlap
     ethr =  1.39E-03,  avg # of iterations =  4.8

     total cpu time spent up to now is      312.9 secs

     total energy              =  -14693.86507546 Ry
     Harris-Foulkes estimate   =  -14693.84461840 Ry
     estimated scf accuracy    <       0.28007863 Ry

     total magnetization       =   -17.85 Bohr mag/cell
     absolute magnetization    =    38.08 Bohr mag/cell

     iteration #  6     ecut=    45.00 Ry     beta= 0.10
     Davidson diagonalization with overlap
     ethr =  9.46E-05,  avg # of iterations =  3.9

     total cpu time spent up to now is      393.2 secs

     total energy              =  -14693.99137032 Ry
     Harris-Foulkes estimate   =  -14693.95208488 Ry
     estimated scf accuracy    <       0.28241873 Ry

     total magnetization       =   -17.10 Bohr mag/cell
     absolute magnetization    =    37.04 Bohr mag/cell

     iteration #  7     ecut=    45.00 Ry     beta= 0.10
     Davidson diagonalization with overlap
     ethr =  9.46E-05,  avg # of iterations =  1.7

     total cpu time spent up to now is      435.1 secs

     total energy              =  -14693.94912994 Ry
     Harris-Foulkes estimate   =  -14694.01240279 Ry
     estimated scf accuracy    <       0.82123234 Ry

     total magnetization       =   -16.86 Bohr mag/cell
     absolute magnetization    =    36.85 Bohr mag/cell

     iteration #  8     ecut=    45.00 Ry     beta= 0.10
     Davidson diagonalization with overlap
     ethr =  9.46E-05,  avg # of iterations =  1.2

     total cpu time spent up to now is      474.5 secs

     total energy              =  -14693.90067365 Ry
     Harris-Foulkes estimate   =  -14693.96342338 Ry
     estimated scf accuracy    <       0.34616656 Ry

     total magnetization       =   -17.06 Bohr mag/cell
     absolute magnetization    =    36.99 Bohr mag/cell

     iteration #  9     ecut=    45.00 Ry     beta= 0.10
     Davidson diagonalization with overlap
     ethr =  9.46E-05,  avg # of iterations =  2.1

     total cpu time spent up to now is      524.3 secs

     total energy              =  -14693.94315118 Ry
     Harris-Foulkes estimate   =  -14693.94264313 Ry
     estimated scf accuracy    <       0.00718109 Ry

     total magnetization       =   -17.10 Bohr mag/cell
     absolute magnetization    =    37.00 Bohr mag/cell

     iteration # 10     ecut=    45.00 Ry     beta= 0.10
     Davidson diagonalization with overlap
     ethr =  2.43E-06,  avg # of iterations =  4.1

     total cpu time spent up to now is      584.3 secs

     total energy              =  -14693.94497930 Ry
     Harris-Foulkes estimate   =  -14693.94351892 Ry
     estimated scf accuracy    <       0.00725124 Ry

     total magnetization       =   -17.08 Bohr mag/cell
     absolute magnetization    =    36.98 Bohr mag/cell

     iteration # 11     ecut=    45.00 Ry     beta= 0.10
     Davidson diagonalization with overlap
     ethr =  2.43E-06,  avg # of iterations =  1.4

     total cpu time spent up to now is      624.8 secs

     total energy              =  -14693.94569102 Ry
     Harris-Foulkes estimate   =  -14693.94530829 Ry
     estimated scf accuracy    <       0.01181152 Ry

     total magnetization       =   -17.04 Bohr mag/cell
     absolute magnetization    =    36.93 Bohr mag/cell

     iteration # 12     ecut=    45.00 Ry     beta= 0.10
     Davidson diagonalization with overlap
     ethr =  2.43E-06,  avg # of iterations =  2.7

     total cpu time spent up to now is      677.1 secs

     total energy              =  -14693.94749702 Ry
     Harris-Foulkes estimate   =  -14693.94686509 Ry
     estimated scf accuracy    <       0.00132875 Ry

     total magnetization       =   -17.00 Bohr mag/cell
     absolute magnetization    =    36.88 Bohr mag/cell

     iteration # 13     ecut=    45.00 Ry     beta= 0.10
     Davidson diagonalization with overlap
     ethr =  4.49E-07,  avg # of iterations =  2.2

     total cpu time spent up to now is      723.5 secs

     total energy              =  -14693.94789349 Ry
     Harris-Foulkes estimate   =  -14693.94766153 Ry
     estimated scf accuracy    <       0.00052938 Ry

     total magnetization       =   -16.97 Bohr mag/cell
     absolute magnetization    =    36.86 Bohr mag/cell

     iteration # 14     ecut=    45.00 Ry     beta= 0.10
     Davidson diagonalization with overlap
     ethr =  1.79E-07,  avg # of iterations =  1.9

     total cpu time spent up to now is      766.2 secs

     total energy              =  -14693.94803889 Ry
     Harris-Foulkes estimate   =  -14693.94792739 Ry
     estimated scf accuracy    <       0.00021486 Ry

     total magnetization       =   -16.95 Bohr mag/cell
     absolute magnetization    =    36.84 Bohr mag/cell

     iteration # 15     ecut=    45.00 Ry     beta= 0.10
     Davidson diagonalization with overlap
     ethr =  7.26E-08,  avg # of iterations =  2.1

     total cpu time spent up to now is      811.1 secs

     total energy              =  -14693.94811795 Ry
     Harris-Foulkes estimate   =  -14693.94805514 Ry
     estimated scf accuracy    <       0.00011135 Ry

     total magnetization       =   -16.94 Bohr mag/cell
     absolute magnetization    =    36.84 Bohr mag/cell

     iteration # 16     ecut=    45.00 Ry     beta= 0.10
     Davidson diagonalization with overlap
     ethr =  3.76E-08,  avg # of iterations =  2.4

     total cpu time spent up to now is      859.1 secs

     total energy              =  -14693.94814046 Ry
     Harris-Foulkes estimate   =  -14693.94812663 Ry
     estimated scf accuracy    <       0.00005372 Ry

     total magnetization       =   -16.92 Bohr mag/cell
     absolute magnetization    =    36.82 Bohr mag/cell

     iteration # 17     ecut=    45.00 Ry     beta= 0.10
     Davidson diagonalization with overlap
     ethr =  1.81E-08,  avg # of iterations =  2.1

     total cpu time spent up to now is      907.6 secs

     total energy              =  -14693.94815658 Ry
     Harris-Foulkes estimate   =  -14693.94814915 Ry
     estimated scf accuracy    <       0.00001953 Ry

     total magnetization       =   -16.91 Bohr mag/cell
     absolute magnetization    =    36.81 Bohr mag/cell

     iteration # 18     ecut=    45.00 Ry     beta= 0.10
     Davidson diagonalization with overlap
     ethr =  6.60E-09,  avg # of iterations =  2.1

     total cpu time spent up to now is      952.2 secs

     total energy              =  -14693.94815893 Ry
     Harris-Foulkes estimate   =  -14693.94815400 Ry
     estimated scf accuracy    <       0.00000836 Ry

     total magnetization       =   -16.90 Bohr mag/cell
     absolute magnetization    =    36.81 Bohr mag/cell

     iteration # 19     ecut=    45.00 Ry     beta= 0.10
     Davidson diagonalization with overlap
     ethr =  2.83E-09,  avg # of iterations =  1.9

     total cpu time spent up to now is      995.2 secs

     total energy              =  -14693.94816383 Ry
     Harris-Foulkes estimate   =  -14693.94815923 Ry
     estimated scf accuracy    <       0.00000574 Ry

     total magnetization       =   -16.90 Bohr mag/cell
     absolute magnetization    =    36.81 Bohr mag/cell

     iteration # 20     ecut=    45.00 Ry     beta= 0.10
     Davidson diagonalization with overlap
     ethr =  1.94E-09,  avg # of iterations =  1.5

     total cpu time spent up to now is     1036.0 secs

     total energy              =  -14693.94816703 Ry
     Harris-Foulkes estimate   =  -14693.94816346 Ry
     estimated scf accuracy    <       0.00000346 Ry

     total magnetization       =   -16.90 Bohr mag/cell
     absolute magnetization    =    36.81 Bohr mag/cell

     iteration # 21     ecut=    45.00 Ry     beta= 0.10
     Davidson diagonalization with overlap
     ethr =  1.17E-09,  avg # of iterations =  2.1

     total cpu time spent up to now is     1080.9 secs

     total energy              =  -14693.94816900 Ry
     Harris-Foulkes estimate   =  -14693.94816685 Ry
     estimated scf accuracy    <       0.00000103 Ry

     total magnetization       =   -16.90 Bohr mag/cell
     absolute magnetization    =    36.81 Bohr mag/cell

     iteration # 22     ecut=    45.00 Ry     beta= 0.10
     Davidson diagonalization with overlap
     ethr =  3.49E-10,  avg # of iterations =  2.4

     total cpu time spent up to now is     1127.4 secs

     total energy              =  -14693.94816994 Ry
     Harris-Foulkes estimate   =  -14693.94816827 Ry
     estimated scf accuracy    <       0.00000110 Ry

     total magnetization       =   -16.90 Bohr mag/cell
     absolute magnetization    =    36.81 Bohr mag/cell

     iteration # 23     ecut=    45.00 Ry     beta= 0.10
     Davidson diagonalization with overlap
     ethr =  3.49E-10,  avg # of iterations =  1.9
 
     Magnetic moment per site:
     atom:    1    charge:   13.5273    magn:    4.2984    constr:    0.0000
     atom:    2    charge:   13.5265    magn:    4.3021    constr:    0.0000
     atom:    3    charge:   13.5433    magn:   -4.2049    constr:    0.0000
     atom:    4    charge:   13.5433    magn:   -4.2049    constr:    0.0000
     atom:    5    charge:   13.5483    magn:   -4.1715    constr:    0.0000
     atom:    6    charge:   13.5479    magn:   -4.1732    constr:    0.0000
     atom:    7    charge:   13.5433    magn:   -4.2049    constr:    0.0000
     atom:    8    charge:   13.5433    magn:   -4.2049    constr:    0.0000
     atom:    9    charge:    9.0903    magn:   -0.0181    constr:    0.0000
     atom:   10    charge:    9.0901    magn:   -0.0186    constr:    0.0000
     atom:   11    charge:    9.0887    magn:   -0.0330    constr:    0.0000
     atom:   12    charge:    9.0887    magn:   -0.0330    constr:    0.0000
     atom:   13    charge:    9.0916    magn:   -0.0068    constr:    0.0000
     atom:   14    charge:    9.0914    magn:   -0.0074    constr:    0.0000
     atom:   15    charge:    9.0924    magn:    0.0100    constr:    0.0000
     atom:   16    charge:    9.0924    magn:    0.0100    constr:    0.0000
     atom:   17    charge:    9.0914    magn:   -0.0074    constr:    0.0000
     atom:   18    charge:    9.0916    magn:   -0.0068    constr:    0.0000
     atom:   19    charge:    9.0887    magn:   -0.0330    constr:    0.0000
     atom:   20    charge:    9.0887    magn:   -0.0330    constr:    0.0000
     atom:   21    charge:    9.0903    magn:   -0.0181    constr:    0.0000
     atom:   22    charge:    9.0901    magn:   -0.0186    constr:    0.0000
     atom:   23    charge:    9.0924    magn:    0.0100    constr:    0.0000
     atom:   24    charge:    9.0924    magn:    0.0100    constr:    0.0000

     total cpu time spent up to now is     1170.7 secs

     End of self-consistent calculation
 --- enter write_ns ---
 LDA+U parameters:
U(  1) =   3.1200   J(  1) =   0.7000   B(  1) =   0.0803
U(  2) =   3.1200   J(  2) =   0.7000   B(  2) =   0.0803
atom    1   Tr[ns(na)] (up, down, total) =   4.97422  0.68843  5.66265
   spin  1
    eigenvalues: 
  0.986  0.993  0.995  0.998  1.002
    eigenvectors:
  0.047  0.096  0.000  0.857  0.000
  0.007  0.436  0.500  0.058  0.000
  0.007  0.436  0.500  0.058  0.000
  0.000  0.000  0.000  0.000  1.000
  0.940  0.032  0.000  0.028  0.000
    occupations:
  0.997 -0.001 -0.001 -0.000 -0.002
 -0.001  0.994 -0.000 -0.000 -0.000
 -0.001 -0.000  0.994  0.000 -0.000
 -0.000 -0.000  0.000  1.002 -0.000
 -0.002 -0.000 -0.000 -0.000  0.987
   spin  2
    eigenvalues: 
  0.073  0.124  0.136  0.143  0.213
    eigenvectors:
  0.000  0.975  0.000  0.013  0.012
  0.003  0.010  0.497  0.457  0.034
  0.003  0.010  0.497  0.457  0.034
  0.994  0.000  0.006  0.000  0.000
  0.000  0.005  0.000  0.073  0.921
    occupations:
  0.125  0.003  0.003 -0.000  0.009
  0.003  0.142  0.006 -0.003  0.012
  0.003  0.006  0.142  0.003  0.012
 -0.000 -0.003  0.003  0.073 -0.000
  0.009  0.012  0.012 -0.000  0.207
atomic mag. moment =     4.285793
atom    2   Tr[ns(na)] (up, down, total) =   4.97464  0.68537  5.66000
   spin  1
    eigenvalues: 
  0.986  0.993  0.995  0.998  1.002
    eigenvectors:
  0.046  0.096  0.000  0.858  0.000
  0.006  0.437  0.500  0.057  0.000
  0.006  0.437  0.500  0.057  0.000
  0.000  0.000  0.000  0.000  1.000
  0.942  0.030  0.000  0.028  0.000
    occupations:
  0.997 -0.001 -0.001 -0.000 -0.002
 -0.001  0.994 -0.000 -0.000 -0.000
 -0.001 -0.000  0.994  0.000 -0.000
 -0.000 -0.000  0.000  1.002 -0.000
 -0.002 -0.000 -0.000 -0.000  0.987
   spin  2
    eigenvalues: 
  0.073  0.122  0.138  0.142  0.210
    eigenvectors:
  0.000  0.970  0.000  0.018  0.012
  0.003  0.013  0.497  0.453  0.034
  0.003  0.013  0.497  0.453  0.034
  0.995  0.000  0.005  0.000  0.000
  0.000  0.005  0.000  0.076  0.919
    occupations:
  0.123  0.004  0.004 -0.000  0.009
  0.004  0.142  0.005 -0.003  0.012
  0.004  0.005  0.142  0.003  0.012
 -0.000 -0.003  0.003  0.074 -0.000
  0.009  0.012  0.012 -0.000  0.204
atomic mag. moment =     4.289270
atom    3   Tr[ns(na)] (up, down, total) =   0.76198  4.96628  5.72826
   spin  1
    eigenvalues: 
  0.069  0.131  0.152  0.157  0.254
    eigenvectors:
  0.000  0.792  0.200  0.001  0.008
  0.000  0.104  0.351  0.543  0.002
  0.000  0.102  0.439  0.457  0.002
  1.000  0.000  0.000  0.000  0.000
  0.000  0.002  0.010  0.000  0.988
    occupations:
  0.136  0.007  0.006  0.000 -0.010
  0.007  0.152 -0.004  0.000 -0.004
  0.006 -0.004  0.152 -0.000 -0.005
  0.000  0.000 -0.000  0.069 -0.000
 -0.010 -0.004 -0.005 -0.000  0.253
   spin  2
    eigenvalues: 
  0.983  0.993  0.993  0.996  1.001
    eigenvectors:
  0.002  0.002  0.000  0.996  0.000
  0.000  0.535  0.464  0.001  0.000
  0.000  0.463  0.536  0.001  0.000
  0.000  0.000  0.000  0.000  1.000
  0.998  0.000  0.000  0.002  0.000
    occupations:
  0.996  0.000  0.000  0.000 -0.001
  0.000  0.993 -0.000 -0.000  0.000
  0.000 -0.000  0.993  0.000  0.000
  0.000 -0.000  0.000  1.001  0.000
 -0.001  0.000  0.000  0.000  0.983
atomic mag. moment =    -4.204296
atom    4   Tr[ns(na)] (up, down, total) =   0.76198  4.96628  5.72826
   spin  1
    eigenvalues: 
  0.069  0.131  0.152  0.157  0.254
    eigenvectors:
  0.000  0.792  0.200  0.001  0.008
  0.000  0.102  0.439  0.457  0.002
  0.000  0.104  0.351  0.543  0.002
  1.000  0.000  0.000  0.000  0.000
  0.000  0.002  0.010  0.000  0.988
    occupations:
  0.136  0.006  0.007 -0.000 -0.010
  0.006  0.152 -0.004  0.000 -0.005
  0.007 -0.004  0.152 -0.000 -0.004
 -0.000  0.000 -0.000  0.069  0.000
 -0.010 -0.005 -0.004  0.000  0.253
   spin  2
    eigenvalues: 
  0.983  0.993  0.993  0.996  1.001
    eigenvectors:
  0.002  0.002  0.000  0.996  0.000
  0.000  0.463  0.536  0.001  0.000
  0.000  0.535  0.464  0.001  0.000
  0.000  0.000  0.000  0.000  1.000
  0.998  0.000  0.000  0.002  0.000
    occupations:
  0.996  0.000  0.000 -0.000 -0.001
  0.000  0.993 -0.000 -0.000  0.000
  0.000 -0.000  0.993  0.000  0.000
 -0.000 -0.000  0.000  1.001 -0.000
 -0.001  0.000  0.000 -0.000  0.983
atomic mag. moment =    -4.204296
atom    5   Tr[ns(na)] (up, down, total) =   0.79026  4.96390  5.75416
   spin  1
    eigenvalues: 
  0.066  0.132  0.159  0.159  0.274
    eigenvectors:
  0.000  0.956  0.000  0.043  0.001
  0.000  0.021  0.500  0.477  0.002
  0.000  0.021  0.500  0.477  0.002
  1.000  0.000  0.000  0.000  0.000
  0.000  0.002  0.000  0.003  0.995
    occupations:
  0.133 -0.004 -0.004 -0.000  0.005
 -0.004  0.159 -0.000  0.001  0.005
 -0.004 -0.000  0.159 -0.001  0.005
 -0.000  0.001 -0.001  0.066 -0.000
  0.005  0.005  0.005 -0.000  0.273
   spin  2
    eigenvalues: 
  0.982  0.992  0.992  0.996  1.002
    eigenvectors:
  0.003  0.019  0.000  0.979  0.000
  0.000  0.491  0.500  0.009  0.000
  0.000  0.491  0.500  0.009  0.000
  0.000  0.000  0.000  0.000  1.000
  0.997  0.000  0.000  0.003  0.000
    occupations:
  0.996 -0.000 -0.000 -0.000  0.001
 -0.000  0.992 -0.000 -0.000 -0.000
 -0.000 -0.000  0.992  0.000 -0.000
 -0.000 -0.000  0.000  1.002 -0.000
  0.001 -0.000 -0.000 -0.000  0.982
atomic mag. moment =    -4.173645
atom    6   Tr[ns(na)] (up, down, total) =   0.78900  4.96398  5.75297
   spin  1
    eigenvalues: 
  0.066  0.132  0.158  0.160  0.273
    eigenvectors:
  0.000  0.954  0.045  0.000  0.001
  0.000  0.022  0.476  0.500  0.002
  0.000  0.022  0.476  0.500  0.002
  1.000  0.000  0.000  0.000  0.000
  0.000  0.002  0.003  0.000  0.995
    occupations:
  0.133 -0.004 -0.004 -0.000  0.005
 -0.004  0.159 -0.001  0.001  0.006
 -0.004 -0.001  0.159 -0.001  0.006
 -0.000  0.001 -0.001  0.066 -0.000
  0.005  0.006  0.006 -0.000  0.272
   spin  2
    eigenvalues: 
  0.982  0.992  0.992  0.996  1.002
    eigenvectors:
  0.003  0.019  0.000  0.978  0.000
  0.000  0.490  0.500  0.010  0.000
  0.000  0.490  0.500  0.010  0.000
  0.000  0.000  0.000  0.000  1.000
  0.997  0.000  0.000  0.003  0.000
    occupations:
  0.996 -0.000 -0.000 -0.000  0.001
 -0.000  0.992 -0.000 -0.000 -0.000
 -0.000 -0.000  0.992  0.000 -0.000
 -0.000 -0.000  0.000  1.002 -0.000
  0.001 -0.000 -0.000 -0.000  0.982
atomic mag. moment =    -4.174979
atom    7   Tr[ns(na)] (up, down, total) =   0.76198  4.96628  5.72826
   spin  1
    eigenvalues: 
  0.069  0.131  0.152  0.157  0.254
    eigenvectors:
  0.000  0.792  0.200  0.001  0.008
  0.000  0.102  0.439  0.457  0.002
  0.000  0.104  0.351  0.543  0.002
  1.000  0.000  0.000  0.000  0.000
  0.000  0.002  0.010  0.000  0.988
    occupations:
  0.136  0.006  0.007 -0.000 -0.010
  0.006  0.152 -0.004  0.000 -0.005
  0.007 -0.004  0.152 -0.000 -0.004
 -0.000  0.000 -0.000  0.069  0.000
 -0.010 -0.005 -0.004  0.000  0.253
   spin  2
    eigenvalues: 
  0.983  0.993  0.993  0.996  1.001
    eigenvectors:
  0.002  0.002  0.000  0.996  0.000
  0.000  0.463  0.536  0.001  0.000
  0.000  0.535  0.464  0.001  0.000
  0.000  0.000  0.000  0.000  1.000
  0.998  0.000  0.000  0.002  0.000
    occupations:
  0.996  0.000  0.000 -0.000 -0.001
  0.000  0.993 -0.000 -0.000  0.000
  0.000 -0.000  0.993  0.000  0.000
 -0.000 -0.000  0.000  1.001 -0.000
 -0.001  0.000  0.000 -0.000  0.983
atomic mag. moment =    -4.204296
atom    8   Tr[ns(na)] (up, down, total) =   0.76198  4.96628  5.72826
   spin  1
    eigenvalues: 
  0.069  0.131  0.152  0.157  0.254
    eigenvectors:
  0.000  0.792  0.200  0.001  0.008
  0.000  0.104  0.351  0.543  0.002
  0.000  0.102  0.439  0.457  0.002
  1.000  0.000  0.000  0.000  0.000
  0.000  0.002  0.010  0.000  0.988
    occupations:
  0.136  0.007  0.006  0.000 -0.010
  0.007  0.152 -0.004  0.000 -0.004
  0.006 -0.004  0.152 -0.000 -0.005
  0.000  0.000 -0.000  0.069 -0.000
 -0.010 -0.004 -0.005 -0.000  0.253
   spin  2
    eigenvalues: 
  0.983  0.993  0.993  0.996  1.001
    eigenvectors:
  0.002  0.002  0.000  0.996  0.000
  0.000  0.535  0.464  0.001  0.000
  0.000  0.463  0.536  0.001  0.000
  0.000  0.000  0.000  0.000  1.000
  0.998  0.000  0.000  0.002  0.000
    occupations:
  0.996  0.000  0.000  0.000 -0.001
  0.000  0.993 -0.000 -0.000  0.000
  0.000 -0.000  0.993  0.000  0.000
  0.000 -0.000  0.000  1.001  0.000
 -0.001  0.000  0.000  0.000  0.983
atomic mag. moment =    -4.204296
N of occupied +U levels =   45.742816
 --- exit write_ns ---

 ------ SPIN UP ------------


          k = 0.0000 0.0000 0.0000 ( 13629 PWs)   bands (ev):

   -66.6092 -66.5982 -61.8274 -61.8274 -61.8273 -61.8273 -61.7676 -61.7668
   -35.3652 -35.3549 -35.3432 -35.3354 -35.3327 -35.3240 -30.6625 -30.6619
   -30.6619 -30.6616 -30.6529 -30.6525 -30.6523 -30.6520 -30.6492 -30.6490
   -30.6489 -30.6488 -30.6029 -30.6020 -30.5960 -30.5956 -30.5874 -30.5873
     6.0077   7.5931   7.7952   8.1358   8.2836   8.5091   8.6696   8.6825
     8.7091   8.7109   9.1045   9.3249   9.4281   9.4710   9.5289   9.5582
     9.5886   9.6131   9.6289   9.6582   9.6724   9.7509   9.8297   9.8320
     9.8554   9.8860   9.9329   9.9400   9.9487   9.9703  10.0572  10.0973
    10.1288  10.1630  10.2283  10.2682  10.2751  10.3063  10.3361  10.3472
    10.3623  10.3688  10.3798  10.3837  10.3899  10.4062  10.5151  10.5489
    10.5765  10.6508  10.7022  10.7386  10.8241  10.8594  11.0582  11.0854
    11.0997  11.1191  11.1432  11.1529  11.2436  11.3370  11.3373  11.3575
    11.4587  11.5024  11.5134  11.5663  11.6919  11.7741  11.7795  11.7795
    11.8251  11.8298  11.8992  12.0702  12.0917  12.1747  12.2695  12.2720
    12.3214  12.3404  12.3674  12.3723  12.3768  12.5154  12.5260  12.6749
    12.6851  12.6894  12.7069  12.7160  12.7321  12.7957  12.8052  12.9759
    13.1595  13.2872  13.2947  14.0736  14.1928  14.2211  15.0823  15.1829
    15.2059  15.5693  15.6258  15.8935  16.4145  16.5794  16.5845  16.6276
    16.7673  16.7801  16.8648  17.0788  17.1452  17.1619  17.1917  17.3127
    17.3616  17.3859  17.4087  17.4634  17.5604  17.5821  17.5839  17.5864
    17.6361  17.7003  17.8653  18.1046  18.1228  18.1439  18.1651  18.1866
    18.8864  19.2113  19.5353  19.5364  19.5517  19.6019  19.7718  19.7802
    19.7813  20.0507

          k = 0.0000 0.0000-0.5441 ( 13704 PWs)   bands (ev):

   -66.6091 -66.5982 -61.8275 -61.8274 -61.8273 -61.8273 -61.7676 -61.7668
   -35.3652 -35.3549 -35.3432 -35.3355 -35.3327 -35.3240 -30.6625 -30.6620
   -30.6619 -30.6616 -30.6529 -30.6525 -30.6523 -30.6520 -30.6493 -30.6490
   -30.6490 -30.6488 -30.6029 -30.6021 -30.5959 -30.5955 -30.5874 -30.5873
     6.5940   7.6901   8.1292   8.2691   8.4783   8.5858   8.8502   8.8733
     8.8997   8.9859   9.1016   9.1132   9.1565   9.1784   9.2234   9.2341
     9.3314   9.3571   9.4487   9.5248   9.6109   9.6649   9.6684   9.7527
     9.7642   9.8475   9.8501   9.8511   9.8873   9.9393   9.9605   9.9822
     9.9941  10.0647  10.1193  10.1198  10.1279  10.1814  10.2171  10.2485
    10.3550  10.3584  10.3716  10.4225  10.5301  10.5647  10.5978  10.6028
    10.7963  10.8245  10.8774  10.9057  10.9161  10.9518  11.0232  11.0278
    11.0360  11.0823  11.2478  11.3250  11.3390  11.3403  11.4746  11.5641
    11.5939  11.7682  11.7753  11.7984  11.8165  11.8315  11.8598  11.9239
    11.9286  11.9477  11.9618  12.0509  12.0766  12.1575  12.1715  12.2731
    12.3543  12.3628  12.3949  12.4122  12.4337  12.5233  12.5462  12.6349
    12.6951  12.7010  12.7151  12.7774  12.8082  12.8389  12.8392  12.8624
    12.8900  13.1730  13.8123  13.8461  13.8662  14.0150  14.0631  14.4410
    14.5006  14.9468  15.0606  15.1464  16.1161  16.7160  16.7806  16.9198
    16.9223  16.9414  16.9525  17.0847  17.1467  17.1655  17.2729  17.3252
    17.3684  17.3921  17.4342  17.4372  17.4388  17.4555  17.5678  17.7331
    17.7419  17.7915  17.8911  17.9625  17.9740  18.0862  18.0949  18.1324
    18.2385  18.7450  18.7645  18.8990  19.4019  19.5274  19.6153  19.7106
    19.7127  19.7428

          k = 0.0000 0.0000 1.0883 ( 13706 PWs)   bands (ev):

   -66.6091 -66.5982 -61.8274 -61.8274 -61.8273 -61.8273 -61.7675 -61.7668
   -35.3652 -35.3549 -35.3432 -35.3355 -35.3327 -35.3241 -30.6625 -30.6620
   -30.6619 -30.6616 -30.6528 -30.6524 -30.6523 -30.6519 -30.6494 -30.6491
   -30.6491 -30.6489 -30.6030 -30.6021 -30.5959 -30.5955 -30.5874 -30.5872
     7.7897   8.0828   8.2831   8.5133   8.6055   8.6171   8.6582   8.7054
     8.7136   8.9497   8.9532   9.0089   9.0732   9.1341   9.2067   9.2109
     9.2770   9.4230   9.4677   9.5341   9.5577   9.6019   9.6246   9.6954
     9.7565   9.7603   9.8262   9.8300   9.8545   9.8881   9.8881   9.9326
     9.9486  10.0535  10.0589  10.0590  10.1178  10.1665  10.2298  10.2686
    10.2795  10.2860  10.2958  10.3343  10.3390  10.3760  10.3777  10.4012
    10.4237  10.4306  10.6047  10.7326  10.9089  10.9242  10.9523  11.0261
    11.0860  11.3065  11.3544  11.3551  11.3845  11.4415  11.4808  11.6177
    11.6197  11.6611  11.7654  11.8281  11.8288  11.8488  11.8655  12.0574
    12.0616  12.0915  12.2195  12.2710  12.2993  12.3402  12.3624  12.3646
    12.3999  12.5092  12.5148  12.5192  12.5796  12.6012  12.6431  12.6695
    12.6863  12.7034  12.7124  12.7414  12.7539  12.9586  13.0631  13.0808
    13.1127  13.1838  13.2874  13.2981  13.5284  13.5324  14.1122  14.1597
    14.2562  15.0805  15.2076  15.4561  15.5332  16.5792  16.6422  16.7155
    16.7805  16.8781  16.8933  17.1220  17.1531  17.1836  17.2773  17.2809
    17.4416  17.4487  17.4903  17.5101  17.5225  17.5336  17.5884  17.6056
    17.6530  17.6732  17.7937  17.8449  17.9408  17.9748  18.1545  18.1578
    18.1688  18.2002  18.6979  18.7815  18.9970  19.2608  19.4055  19.4757
    19.5095  19.7640

          k =-0.1768-0.1768-0.1360 ( 13673 PWs)   bands (ev):

   -66.6092 -66.5982 -61.8281 -61.8276 -61.8272 -61.8267 -61.7676 -61.7668
   -35.3652 -35.3549 -35.3432 -35.3354 -35.3327 -35.3240 -30.6626 -30.6620
   -30.6619 -30.6615 -30.6529 -30.6526 -30.6522 -30.6520 -30.6492 -30.6490
   -30.6489 -30.6488 -30.6029 -30.6020 -30.5960 -30.5956 -30.5874 -30.5873
     6.1683   7.3644   7.7293   7.9187   8.5127   8.5609   8.5984   8.7795
     8.8179   8.9121   9.2210   9.3137   9.3702   9.4446   9.4538   9.4853
     9.5303   9.5517   9.5725   9.6234   9.6749   9.6773   9.7397   9.7440
     9.7880   9.8203   9.8253   9.9034   9.9844  10.0125  10.0920  10.0938
    10.1512  10.1940  10.2110  10.2304  10.2632  10.2802  10.3169  10.3701
    10.3839  10.4082  10.4628  10.4934  10.5219  10.5507  10.5789  10.6104
    10.6337  10.6867  10.7309  10.7736  10.9729  10.9744  10.9850  11.0543
    11.0583  11.0762  11.0997  11.1299  11.2579  11.3214  11.3253  11.4305
    11.4389  11.5031  11.5040  11.5518  11.6171  11.6182  11.6294  11.7659
    11.8714  11.8787  11.8867  11.8916  12.0480  12.1345  12.1644  12.1996
    12.2195  12.2468  12.3040  12.3206  12.4090  12.4409  12.4910  12.5077
    12.6035  12.6828  12.6848  12.6903  12.7476  12.8199  12.8997  12.9413
    13.0335  13.9431  13.9533  13.9903  14.4857  14.6535  14.9265  15.2765
    15.3762  15.4181  15.4541  15.8347  16.1998  16.2590  16.2894  16.6842
    16.9205  16.9604  16.9631  17.1036  17.1987  17.2133  17.2645  17.2791
    17.3543  17.3848  17.4384  17.4475  17.4796  17.4934  17.5665  17.5875
    17.7071  17.8089  18.0885  18.1175  18.1239  18.1399  18.2635  18.4170
    18.7018  18.7796  18.9453  19.0607  19.2173  19.2393  19.4523  19.5513
    19.5897  20.1277

          k =-0.1768-0.1768-0.6802 ( 13666 PWs)   bands (ev):

   -66.6091 -66.5982 -61.8281 -61.8276 -61.8272 -61.8267 -61.7676 -61.7668
   -35.3652 -35.3549 -35.3432 -35.3355 -35.3327 -35.3240 -30.6626 -30.6620
   -30.6619 -30.6615 -30.6528 -30.6526 -30.6522 -30.6520 -30.6493 -30.6491
   -30.6490 -30.6488 -30.6029 -30.6021 -30.5959 -30.5955 -30.5874 -30.5873
     6.9814   7.1239   8.3298   8.4296   8.4385   8.5413   8.7253   8.8934
     8.9141   9.0633   9.0659   9.0945   9.1282   9.1309   9.2738   9.3898
     9.4326   9.4450   9.4542   9.5021   9.5977   9.6336   9.6660   9.6714
     9.7046   9.7704   9.7791   9.8296   9.8816   9.8865   9.8985   9.9466
    10.0135  10.0684  10.0825  10.1537  10.1594  10.1748  10.2290  10.2726
    10.3427  10.3653  10.4598  10.4731  10.5940  10.6455  10.6621  10.6685
    10.7061  10.7104  10.8054  10.8666  10.9849  11.0318  11.0384  11.0559
    11.1176  11.1518  11.1606  11.2701  11.2790  11.3099  11.4683  11.4706
    11.5814  11.6593  11.6701  11.6893  11.7703  11.7746  11.7848  11.8254
    11.8284  11.8332  11.9046  12.0982  12.1142  12.1625  12.1629  12.3063
    12.3355  12.3620  12.3845  12.3864  12.4045  12.4388  12.4474  12.5061
    12.5327  12.6760  12.7150  12.7151  12.7277  12.8395  12.8894  12.9203
    13.2820  13.4398  13.5644  13.9205  14.1661  14.3518  14.4709  14.6972
    15.0667  15.1617  15.3248  15.4736  15.9939  16.2488  16.2761  16.3720
    16.9837  16.9913  17.0883  17.0977  17.1006  17.2432  17.2811  17.3521
    17.3531  17.3715  17.4365  17.4381  17.4400  17.5173  17.5405  17.6810
    17.7321  17.7478  17.8794  17.9094  17.9938  18.0394  18.0474  18.1807
    18.3857  18.5400  18.6147  18.6181  18.6533  19.0399  19.3137  19.6176
    20.4532  20.7031

          k =-0.1768-0.1768 0.9522 ( 13713 PWs)   bands (ev):

   -66.6091 -66.5982 -61.8281 -61.8276 -61.8271 -61.8267 -61.7675 -61.7668
   -35.3652 -35.3549 -35.3432 -35.3355 -35.3327 -35.3241 -30.6626 -30.6620
   -30.6619 -30.6615 -30.6528 -30.6526 -30.6521 -30.6520 -30.6493 -30.6491
   -30.6491 -30.6489 -30.6030 -30.6021 -30.5959 -30.5955 -30.5874 -30.5873
     7.6880   7.8588   8.3752   8.5718   8.6360   8.6412   8.7004   8.7100
     8.7797   8.8725   8.9607   8.9694   9.0136   9.1433   9.1532   9.2079
     9.2233   9.3964   9.4293   9.4483   9.4752   9.5450   9.6098   9.6541
     9.6613   9.7556   9.7850   9.7897   9.8655   9.8738   9.9002   9.9660
     9.9920  10.0535  10.0771  10.1189  10.1410  10.1430  10.1925  10.3057
    10.3127  10.3411  10.3715  10.3869  10.4127  10.4484  10.5163  10.5470
    10.5853  10.6678  10.7250  10.7859  10.8961  10.9988  11.0558  11.0913
    11.1410  11.3406  11.3543  11.3802  11.4255  11.4530  11.5457  11.5784
    11.6051  11.6705  11.8782  11.8853  11.8951  11.9096  11.9593  12.0005
    12.0713  12.0731  12.2127  12.2198  12.2432  12.2724  12.3017  12.3124
    12.3712  12.4299  12.4823  12.5063  12.5311  12.5402  12.5701  12.5939
    12.6345  12.6696  12.7483  12.8188  12.8284  12.8676  12.9056  12.9693
    13.0320  13.1286  13.3886  13.3910  13.4533  13.6893  13.7157  13.7773
    14.7149  14.7452  14.8683  15.5997  15.7341  15.9120  16.0868  16.4919
    17.0076  17.0537  17.0942  17.1111  17.1202  17.1978  17.2139  17.2497
    17.4036  17.4435  17.4666  17.4772  17.4902  17.5228  17.5311  17.6065
    17.6293  17.7178  17.7543  17.7963  17.8843  17.9538  18.0804  18.0934
    18.3068  18.3700  18.4375  18.9721  19.1320  19.2321  19.4878  19.5339
    19.8890  20.0357

          k =-0.1768-0.1768 0.4081 ( 13683 PWs)   bands (ev):

   -66.6091 -66.5982 -61.8281 -61.8276 -61.8271 -61.8267 -61.7676 -61.7668
   -35.3652 -35.3549 -35.3432 -35.3355 -35.3327 -35.3240 -30.6626 -30.6620
   -30.6619 -30.6615 -30.6528 -30.6526 -30.6522 -30.6520 -30.6492 -30.6491
   -30.6490 -30.6489 -30.6029 -30.6021 -30.5959 -30.5955 -30.5874 -30.5873
     6.4636   7.9900   8.1496   8.2256   8.4306   8.5579   8.6669   8.7829
     8.8207   8.8920   8.9617   9.1030   9.2119   9.2530   9.2652   9.3102
     9.3487   9.4030   9.4340   9.4943   9.5840   9.6162   9.6197   9.6979
     9.7865   9.7884   9.8453   9.8481   9.9304   9.9846   9.9910  10.0454
    10.0785  10.0938  10.1318  10.1367  10.1808  10.2356  10.2477  10.2973
    10.3388  10.3656  10.3675  10.4293  10.4729  10.6147  10.6152  10.7090
    10.7990  10.8721  10.8897  10.9479  10.9738  10.9969  11.0185  11.0251
    11.1625  11.1989  11.2404  11.3796  11.3910  11.4367  11.4541  11.5480
    11.7174  11.7472  11.7480  11.7774  11.8211  11.8583  11.9045  11.9389
    11.9455  11.9626  12.0146  12.0734  12.1263  12.1423  12.2119  12.2214
    12.2609  12.2817  12.3247  12.3720  12.3930  12.4900  12.5224  12.5440
    12.6016  12.6959  12.7145  12.7208  12.7353  12.7927  12.8152  13.0020
    13.0493  13.1570  13.2988  13.4000  13.8024  13.9771  14.1209  14.4247
    14.7923  15.0499  15.0669  15.3052  15.9381  16.3516  16.4656  16.6440
    17.0056  17.0289  17.0847  17.0869  17.2019  17.2095  17.3110  17.3130
    17.3152  17.4035  17.4474  17.4570  17.4711  17.5107  17.5738  17.6496
    17.6828  17.7325  17.8784  17.9911  18.0196  18.0497  18.2614  18.2914
    18.4065  18.7075  18.8605  18.9377  19.0071  19.2429  19.3283  19.7098
    20.3480  20.4912

          k = 0.3536 0.3536 0.2721 ( 13708 PWs)   bands (ev):

   -66.6092 -66.5982 -61.8284 -61.8276 -61.8271 -61.8264 -61.7676 -61.7668
   -35.3652 -35.3549 -35.3432 -35.3354 -35.3327 -35.3240 -30.6626 -30.6621
   -30.6619 -30.6615 -30.6529 -30.6527 -30.6521 -30.6520 -30.6491 -30.6491
   -30.6489 -30.6489 -30.6029 -30.6020 -30.5960 -30.5956 -30.5874 -30.5873
     6.5676   6.7168   7.9965   8.2193   8.2234   8.2535   8.7514   8.8664
     8.9642   9.0403   9.3096   9.3098   9.3125   9.3721   9.3829   9.4223
     9.4555   9.4893   9.5951   9.6116   9.6616   9.6704   9.6847   9.6854
     9.6889   9.7816   9.8337   9.8569   9.9520  10.0397  10.1049  10.1327
    10.1337  10.1667  10.1972  10.2396  10.2554  10.2647  10.3566  10.3627
    10.4040  10.4773  10.4829  10.5112  10.5691  10.6095  10.6484  10.6655
    10.6680  10.7329  10.7861  10.9076  10.9828  10.9847  11.0394  11.0396
    11.1522  11.1609  11.2286  11.2432  11.2503  11.2749  11.2927  11.3032
    11.3827  11.3942  11.5018  11.5436  11.5601  11.6387  11.6506  11.6901
    11.7197  11.7430  11.8238  11.8503  11.9380  11.9688  12.0802  12.1926
    12.2135  12.2204  12.2267  12.2803  12.3026  12.4404  12.4449  12.4800
    12.5455  12.6793  12.6919  12.7039  12.7185  12.8265  12.9107  12.9166
    13.2837  14.0613  14.3799  14.6809  14.6852  14.8181  14.9674  14.9745
    15.3603  15.6904  15.7137  15.8136  15.8217  15.8381  15.8590  16.9469
    16.9976  17.0061  17.0382  17.0849  17.2016  17.3007  17.3775  17.3981
    17.4051  17.4136  17.4277  17.4299  17.4409  17.4952  17.5234  17.5377
    17.7796  17.8331  17.9654  18.1050  18.1543  18.2581  18.2876  18.3343
    18.3751  18.4613  18.5604  18.7171  18.7380  18.7784  19.0458  19.5662
    20.1304  20.1367

          k = 0.3536 0.3536-0.2721 ( 13700 PWs)   bands (ev):

   -66.6091 -66.5982 -61.8284 -61.8277 -61.8271 -61.8264 -61.7676 -61.7668
   -35.3652 -35.3549 -35.3432 -35.3355 -35.3327 -35.3240 -30.6626 -30.6621
   -30.6619 -30.6615 -30.6528 -30.6527 -30.6521 -30.6520 -30.6492 -30.6491
   -30.6490 -30.6489 -30.6029 -30.6021 -30.5959 -30.5955 -30.5874 -30.5873
     6.6368   7.6733   8.0952   8.2359   8.5458   8.6152   8.7314   8.8148
     8.8300   8.9002   9.0403   9.0825   9.1479   9.1930   9.2191   9.3780
     9.4237   9.4686   9.5399   9.5584   9.5837   9.6022   9.6055   9.6107
     9.6200   9.6915   9.7691   9.8577   9.9449   9.9578   9.9801  10.0151
    10.0949  10.1296  10.1514  10.1679  10.2226  10.2675  10.3039  10.3242
    10.3338  10.3502  10.4145  10.4399  10.5736  10.6210  10.6343  10.6660
    10.7349  10.7555  10.8834  10.9468  10.9733  11.0602  11.0700  11.0981
    11.1324  11.2151  11.2431  11.2957  11.3804  11.4379  11.4464  11.5104
    11.5560  11.5992  11.6135  11.6675  11.7084  11.7346  11.7794  11.8599
    11.9084  11.9636  12.0444  12.0824  12.1315  12.1567  12.1677  12.2288
    12.2783  12.2820  12.3044  12.3688  12.3760  12.3809  12.4545  12.4940
    12.5753  12.6629  12.6689  12.6792  12.7468  12.7946  12.9204  12.9919
    12.9922  13.2325  13.5816  13.6861  13.7555  14.5817  14.8179  14.8364
    15.0876  15.1101  15.2952  15.5053  15.7484  15.7997  16.0250  16.3371
    17.0415  17.0763  17.0796  17.1411  17.2073  17.2845  17.2911  17.3080
    17.3269  17.3744  17.4481  17.4825  17.4843  17.4861  17.6008  17.6911
    17.6916  17.7242  17.7619  17.8878  18.0068  18.1239  18.1604  18.3413
    18.3732  18.5315  18.5896  18.6178  18.6887  19.2090  19.3518  20.0631
    20.2570  20.3734

          k = 0.3536 0.3536 1.3603 ( 13692 PWs)   bands (ev):

   -66.6091 -66.5982 -61.8284 -61.8277 -61.8270 -61.8264 -61.7675 -61.7668
   -35.3652 -35.3549 -35.3432 -35.3355 -35.3327 -35.3241 -30.6626 -30.6621
   -30.6619 -30.6615 -30.6528 -30.6527 -30.6520 -30.6520 -30.6493 -30.6492
   -30.6490 -30.6490 -30.6030 -30.6021 -30.5959 -30.5955 -30.5874 -30.5873
     7.6050   7.7337   8.4032   8.5080   8.6596   8.7149   8.7466   8.7499
     8.7792   8.7829   8.9122   8.9989   9.0938   9.1067   9.1232   9.1418
     9.2172   9.3477   9.3831   9.4057   9.4752   9.5331   9.5924   9.6057
     9.6134   9.6260   9.6939   9.7629   9.9144   9.9272   9.9452   9.9610
    10.0132  10.0229  10.1094  10.1187  10.1221  10.1848  10.1971  10.2892
    10.3221  10.3680  10.3755  10.4183  10.4514  10.5902  10.6139  10.6452
    10.7136  10.7637  10.8543  10.8657  11.0459  11.1762  11.1914  11.2772
    11.3520  11.3674  11.3682  11.3861  11.4258  11.4803  11.7035  11.7252
    11.7285  11.8002  11.8123  11.8582  11.8622  11.9058  11.9324  11.9918
    11.9987  12.0723  12.1888  12.1905  12.2130  12.2695  12.2754  12.2879
    12.2906  12.3191  12.3697  12.3847  12.3984  12.4183  12.4250  12.4293
    12.6491  12.6620  12.6655  12.7682  12.8080  12.8286  12.8746  12.9624
    13.0519  13.1485  13.3076  13.3361  13.3577  13.3691  13.8213  14.0834
    14.8617  14.9094  14.9325  14.9750  15.1688  15.6767  15.8854  16.3989
    17.0229  17.0274  17.0509  17.1109  17.2074  17.2108  17.2788  17.3630
    17.3819  17.4288  17.4571  17.4899  17.4957  17.5079  17.5352  17.5442
    17.6839  17.7074  17.7248  17.7749  17.9123  17.9653  18.0101  18.0166
    18.3160  18.3699  18.5695  18.7681  19.1048  19.4547  19.5539  20.2519
    20.2750  20.3372

          k = 0.1768-0.1768 0.0000 ( 13644 PWs)   bands (ev):

   -66.6092 -66.5982 -61.8274 -61.8274 -61.8273 -61.8273 -61.7675 -61.7669
   -35.3652 -35.3549 -35.3432 -35.3354 -35.3327 -35.3240 -30.6624 -30.6619
   -30.6619 -30.6617 -30.6528 -30.6524 -30.6524 -30.6521 -30.6492 -30.6490
   -30.6490 -30.6488 -30.6029 -30.6020 -30.5959 -30.5956 -30.5874 -30.5873
     6.1322   7.0453   8.2108   8.2148   8.3364   8.5011   8.6170   8.6212
     8.7272   8.7787   9.0348   9.2908   9.3000   9.4085   9.4572   9.5930
     9.6044   9.6373   9.6426   9.7256   9.7456   9.7638   9.8218   9.8261
     9.8437   9.8549   9.8939   9.9164   9.9563   9.9751  10.0340  10.0649
    10.1423  10.1438  10.1533  10.1949  10.1975  10.2331  10.2388  10.3441
    10.3766  10.4356  10.4382  10.4580  10.4625  10.5224  10.6293  10.6398
    10.6442  10.6631  10.7735  10.8122  10.8483  10.8861  11.0571  11.0888
    11.1068  11.1305  11.2254  11.2324  11.2449  11.3347  11.3814  11.4107
    11.4529  11.4713  11.5236  11.6385  11.6554  11.7112  11.8076  11.8124
    11.8468  11.9091  11.9480  12.0544  12.0671  12.1610  12.1790  12.2108
    12.2219  12.2607  12.2690  12.2867  12.3626  12.4992  12.5407  12.5762
    12.5982  12.6493  12.6910  12.7167  12.7440  12.8048  12.8069  12.8509
    12.8966  13.1847  13.7839  13.7928  14.2071  14.5352  15.1837  15.2915
    15.4123  15.5994  15.6884  15.9209  16.2082  16.2996  16.4075  16.5417
    16.7654  16.7874  16.8926  17.0136  17.0926  17.1507  17.2043  17.3476
    17.4071  17.4105  17.4253  17.4592  17.5374  17.5692  17.5972  17.6218
    17.6655  17.7165  17.9060  18.0817  18.1385  18.1482  18.1506  18.2456
    18.5472  18.6656  18.9337  19.2549  19.5166  19.5285  19.7843  19.8082
    20.2628  20.3710

          k = 0.1768-0.1768-0.5441 ( 13695 PWs)   bands (ev):

   -66.6091 -66.5982 -61.8274 -61.8274 -61.8273 -61.8273 -61.7675 -61.7669
   -35.3652 -35.3549 -35.3432 -35.3355 -35.3327 -35.3240 -30.6624 -30.6620
   -30.6619 -30.6617 -30.6528 -30.6524 -30.6524 -30.6520 -30.6492 -30.6491
   -30.6490 -30.6489 -30.6029 -30.6021 -30.5959 -30.5955 -30.5874 -30.5873
     6.7112   7.5785   7.7897   8.3643   8.6080   8.6846   8.8615   8.8865
     8.8987   9.0261   9.0655   9.0685   9.0992   9.1876   9.2629   9.2955
     9.3439   9.3509   9.4464   9.4747   9.5446   9.5811   9.6411   9.6739
     9.6928   9.7208   9.7902   9.8204   9.8256   9.9483   9.9822  10.0086
    10.0117  10.0388  10.0715  10.1600  10.2188  10.2782  10.2791  10.3249
    10.3813  10.4066  10.5265  10.5333  10.5539  10.6873  10.6878  10.7241
    10.8280  10.8540  10.8801  10.9298  10.9508  10.9995  11.0089  11.0343
    11.0838  11.1867  11.2053  11.2849  11.3431  11.3908  11.4757  11.5099
    11.5183  11.5748  11.7465  11.7530  11.7619  11.7853  11.8332  11.8818
    11.9076  11.9384  12.0387  12.0625  12.0805  12.1984  12.2061  12.2279
    12.2990  12.3320  12.3403  12.3826  12.4305  12.4345  12.4904  12.5059
    12.5716  12.6223  12.6684  12.7575  12.7903  12.8289  12.9137  13.0453
    13.1757  13.1910  13.2684  13.6382  13.8863  14.1154  14.2169  14.7719
    14.9406  15.0644  15.0733  15.3523  15.8858  16.1658  16.4019  16.4125
    17.0721  17.1010  17.1246  17.1590  17.1995  17.2439  17.3090  17.3124
    17.3660  17.3736  17.4039  17.4355  17.4636  17.5167  17.5914  17.6987
    17.7376  17.7736  17.8083  17.8470  17.8748  18.0786  18.1017  18.2863
    18.4478  18.6590  18.9446  19.0728  19.1740  19.2540  19.3298  19.6128
    20.0154  20.3234

          k = 0.1768-0.1768 1.0883 ( 13696 PWs)   bands (ev):

   -66.6091 -66.5982 -61.8274 -61.8274 -61.8273 -61.8273 -61.7674 -61.7669
   -35.3652 -35.3549 -35.3432 -35.3355 -35.3327 -35.3241 -30.6624 -30.6620
   -30.6619 -30.6617 -30.6528 -30.6524 -30.6523 -30.6520 -30.6493 -30.6492
   -30.6490 -30.6489 -30.6030 -30.6021 -30.5959 -30.5955 -30.5874 -30.5873
     7.8831   8.1627   8.3372   8.4999   8.5733   8.6062   8.6372   8.6572
     8.6793   8.8455   8.9345   8.9598   8.9836   8.9988   9.1578   9.2979
     9.3420   9.4050   9.4606   9.4953   9.6392   9.6464   9.6515   9.6731
     9.7054   9.7630   9.7732   9.8014   9.8902   9.8961   9.8962   9.9102
     9.9283  10.0015  10.0214  10.0330  10.1578  10.1669  10.1756  10.2194
    10.2341  10.2502  10.2867  10.3466  10.3552  10.4196  10.4356  10.5378
    10.5532  10.7109  10.7260  10.7452  10.8640  10.9005  11.0125  11.1241
    11.2049  11.2349  11.3296  11.3499  11.3798  11.4626  11.4924  11.6347
    11.6595  11.7090  11.7166  11.7863  11.7911  11.8710  11.9152  12.0091
    12.0377  12.0796  12.1049  12.2062  12.2173  12.2843  12.3250  12.3394
    12.4184  12.4439  12.4489  12.4830  12.5183  12.5386  12.5408  12.5707
    12.5858  12.6217  12.7294  12.7618  12.8008  12.8207  12.9520  13.0767
    13.0828  13.1079  13.5587  13.6298  13.8973  13.9513  14.0607  14.1946
    14.5986  15.0711  15.1974  15.3044  15.3295  16.2030  16.2380  16.7459
    16.7757  16.8547  17.0385  17.0717  17.1564  17.1844  17.2418  17.3502
    17.4250  17.4256  17.5008  17.5093  17.5154  17.5367  17.5370  17.6260
    17.6594  17.7191  17.7967  17.8164  17.9347  17.9466  18.1273  18.1552
    18.1922  18.3477  18.4427  18.5271  18.7120  18.8292  19.2441  19.2755
    19.3449  19.8092

          k = 0.0000-0.3536-0.1360 ( 13676 PWs)   bands (ev):

   -66.6092 -66.5982 -61.8280 -61.8274 -61.8273 -61.8268 -61.7675 -61.7669
   -35.3652 -35.3549 -35.3432 -35.3354 -35.3327 -35.3240 -30.6624 -30.6620
   -30.6619 -30.6617 -30.6528 -30.6526 -30.6523 -30.6521 -30.6491 -30.6490
   -30.6490 -30.6489 -30.6029 -30.6020 -30.5959 -30.5956 -30.5874 -30.5873
     6.2911   7.1897   7.4639   8.1381   8.3358   8.5949   8.7721   8.8445
     8.9090   8.9185   9.1560   9.2659   9.3446   9.3820   9.4117   9.4598
     9.4935   9.5526   9.5890   9.6226   9.6653   9.6829   9.7473   9.7662
     9.7935   9.8406   9.8856   9.9607   9.9941  10.0181  10.0449  10.0587
    10.0832  10.0987  10.1976  10.2265  10.2904  10.2915  10.3367  10.3658
    10.3756  10.4118  10.4365  10.5049  10.5114  10.5648  10.6364  10.7233
    10.7285  10.7350  10.8423  10.8482  10.9314  10.9538  10.9979  11.0897
    11.1174  11.1394  11.1641  11.1924  11.2796  11.3127  11.3158  11.3667
    11.3963  11.4571  11.5513  11.5642  11.5791  11.6878  11.7229  11.7515
    11.7825  11.7962  11.9916  12.0118  12.0314  12.0402  12.1050  12.1184
    12.1838  12.2089  12.2314  12.3429  12.3447  12.3605  12.4573  12.5705
    12.5722  12.6088  12.6814  12.7378  12.7408  12.8287  12.8378  13.0694
    13.2858  13.5346  13.5844  14.2266  14.4648  14.7159  15.0854  15.2161
    15.3916  15.4675  15.7237  15.7499  15.9194  16.0423  16.2111  16.6961
    16.7661  16.9187  16.9850  17.0731  17.2115  17.2914  17.3004  17.3176
    17.3491  17.4079  17.4543  17.4751  17.4820  17.5410  17.5543  17.6156
    17.7502  17.8832  17.9199  18.1359  18.1606  18.1899  18.2229  18.4057
    18.4620  18.7069  18.8700  18.9018  19.1975  19.3488  19.6574  19.7940
    19.8591  20.2368

          k = 0.0000-0.3536-0.6802 ( 13702 PWs)   bands (ev):

   -66.6091 -66.5982 -61.8280 -61.8274 -61.8273 -61.8268 -61.7675 -61.7669
   -35.3652 -35.3549 -35.3432 -35.3355 -35.3327 -35.3240 -30.6624 -30.6620
   -30.6619 -30.6617 -30.6527 -30.6525 -30.6522 -30.6521 -30.6492 -30.6491
   -30.6490 -30.6489 -30.6029 -30.6021 -30.5959 -30.5955 -30.5874 -30.5873
     7.0915   7.2317   7.8875   7.9829   8.6803   8.7849   8.8881   8.9298
     8.9348   9.0827   9.0907   9.1235   9.1632   9.1643   9.2589   9.3655
     9.3709   9.3906   9.4474   9.4671   9.4894   9.5408   9.5924   9.6554
     9.6682   9.6916   9.7341   9.7445   9.8482   9.8692   9.9064   9.9691
    10.0168  10.1131  10.1378  10.1952  10.2559  10.2936  10.2950  10.3038
    10.3775  10.4702  10.5475  10.5917  10.5930  10.6703  10.6824  10.7065
    10.7613  10.7651  10.8592  10.9323  10.9498  10.9850  11.0541  11.0625
    11.0984  11.1335  11.2142  11.2168  11.3024  11.3040  11.4261  11.4488
    11.5109  11.5383  11.6008  11.6041  11.7414  11.7453  11.7953  11.8255
    11.8770  11.9420  12.0244  12.0812  12.1257  12.1349  12.1877  12.1973
    12.2072  12.3091  12.3306  12.3679  12.3959  12.4374  12.4994  12.5046
    12.5131  12.6477  12.6831  12.7419  12.7654  12.8216  12.9907  13.2472
    13.2957  13.4890  13.6018  13.7023  13.9301  14.3260  14.3822  14.7647
    14.8826  15.2359  15.4644  15.5551  15.7429  15.9734  15.9748  16.6612
    16.7260  17.1185  17.1920  17.2225  17.2415  17.2860  17.3074  17.3436
    17.3661  17.3913  17.4055  17.4258  17.4667  17.5443  17.6528  17.6803
    17.6965  17.7188  17.8505  17.9811  18.0181  18.0416  18.0897  18.2383
    18.2960  18.4002  18.5924  18.7281  18.9136  19.2538  19.6865  19.7465
    20.0690  20.3429

          k = 0.0000-0.3536 0.9522 ( 13693 PWs)   bands (ev):

   -66.6091 -66.5982 -61.8280 -61.8275 -61.8273 -61.8268 -61.7674 -61.7669
   -35.3652 -35.3549 -35.3432 -35.3355 -35.3327 -35.3241 -30.6624 -30.6620
   -30.6619 -30.6617 -30.6527 -30.6525 -30.6522 -30.6520 -30.6493 -30.6491
   -30.6491 -30.6489 -30.6030 -30.6021 -30.5959 -30.5955 -30.5874 -30.5873
     7.7795   7.9292   8.3891   8.4205   8.4498   8.6674   8.6961   8.7654
     8.7719   8.8280   8.9692   8.9985   9.0309   9.0614   9.1491   9.2816
     9.3131   9.3536   9.4274   9.4435   9.4928   9.5450   9.5523   9.6569
     9.6642   9.7304   9.7836   9.7964   9.7993   9.8646   9.8873   9.9385
     9.9514   9.9688  10.0710  10.0867  10.1258  10.1593  10.1870  10.2466
    10.2627  10.3177  10.3577  10.4054  10.5132  10.6167  10.6648  10.6886
    10.6928  10.7403  10.7595  10.8132  10.8817  11.0022  11.1063  11.1797
    11.2009  11.2369  11.3330  11.3861  11.3927  11.4810  11.5089  11.5675
    11.6468  11.7485  11.7855  11.8205  11.8691  11.9175  11.9886  11.9931
    12.0439  12.0443  12.0895  12.1714  12.2297  12.2469  12.2956  12.3130
    12.3304  12.3485  12.3842  12.4131  12.4747  12.5414  12.5546  12.5886
    12.6013  12.6344  12.6546  12.6979  12.8545  12.8950  12.9436  13.0113
    13.0988  13.2178  13.4306  13.6136  13.6292  13.6922  13.7058  14.0765
    14.7349  14.9575  15.0498  15.3110  15.5150  15.6243  16.1831  16.5329
    16.8250  17.0231  17.1016  17.1638  17.1813  17.1941  17.2400  17.3164
    17.3863  17.4417  17.4531  17.4715  17.5114  17.5221  17.5532  17.6015
    17.6159  17.6889  17.7325  17.7518  17.9395  17.9889  18.1058  18.1707
    18.1792  18.3874  18.4688  18.5113  18.6552  18.9575  18.9818  19.4036
    19.8682  20.2541

          k = 0.0000-0.3536 0.4081 ( 13687 PWs)   bands (ev):

   -66.6091 -66.5982 -61.8280 -61.8275 -61.8273 -61.8268 -61.7675 -61.7669
   -35.3652 -35.3549 -35.3432 -35.3355 -35.3327 -35.3240 -30.6624 -30.6620
   -30.6619 -30.6617 -30.6527 -30.6525 -30.6522 -30.6521 -30.6492 -30.6491
   -30.6490 -30.6489 -30.6029 -30.6021 -30.5959 -30.5955 -30.5874 -30.5873
     6.5821   7.4530   8.3142   8.4498   8.5347   8.5590   8.6969   8.7221
     8.7825   8.8701   9.0273   9.1143   9.1433   9.2580   9.2842   9.3338
     9.3502   9.3651   9.4428   9.4922   9.5555   9.5931   9.6696   9.6777
     9.7392   9.7641   9.8217   9.8241   9.8667   9.9741   9.9798   9.9938
    10.0156  10.0306  10.0732  10.1143  10.1838  10.2474  10.2523  10.2772
    10.3803  10.4183  10.5444  10.5559  10.5831  10.6839  10.7391  10.7608
    10.8665  10.8955  10.9020  10.9798  10.9874  11.0290  11.0987  11.1395
    11.1505  11.1715  11.1857  11.3302  11.3312  11.4158  11.5104  11.6041
    11.6692  11.6809  11.6988  11.7007  11.8169  11.8477  11.8739  11.8924
    11.9570  11.9977  12.0010  12.0292  12.1088  12.1489  12.1710  12.1980
    12.2500  12.2771  12.3254  12.3567  12.4088  12.4669  12.5184  12.5292
    12.5403  12.5582  12.6879  12.7297  12.7706  12.7801  12.7984  12.8252
    12.9469  12.9873  13.0074  13.8734  13.9917  14.3423  14.4368  14.5379
    14.7899  14.8463  15.2644  15.3736  15.7258  16.1169  16.1347  16.6538
    16.7996  17.0576  17.0632  17.1475  17.1849  17.2693  17.2811  17.3226
    17.3850  17.3896  17.4419  17.4491  17.4666  17.4725  17.5286  17.6094
    17.6515  17.8648  17.8764  17.9372  17.9797  18.0327  18.1759  18.2391
    18.4439  18.5506  18.6917  18.9709  19.1761  19.2557  19.3347  19.7689
    20.2429  20.5056

          k = 0.5303 0.1768 0.2721 ( 13658 PWs)   bands (ev):

   -66.6092 -66.5982 -61.8282 -61.8274 -61.8273 -61.8266 -61.7675 -61.7669
   -35.3652 -35.3549 -35.3432 -35.3354 -35.3327 -35.3240 -30.6624 -30.6620
   -30.6619 -30.6616 -30.6527 -30.6526 -30.6522 -30.6521 -30.6491 -30.6490
   -30.6489 -30.6489 -30.6029 -30.6020 -30.5960 -30.5956 -30.5874 -30.5873
     6.6860   6.8303   7.5319   7.6597   8.5476   8.7241   8.7566   8.9351
     9.0123   9.0223   9.2514   9.2691   9.3089   9.3478   9.3836   9.4218
     9.4256   9.5017   9.5029   9.5577   9.6256   9.6306   9.6703   9.7131
     9.8455   9.8662   9.8701   9.8716   9.9084   9.9706   9.9830  10.0913
[...]
    11.6770  11.6770  11.7124  11.7124  11.7343  11.7344  11.8165  11.8166
    11.8932  11.8937  11.9843  11.9845  12.0008  12.0009  12.1065  12.1071
    12.1739  12.1739  12.2152  12.2154  12.2460  12.2465  12.2936  12.2940
    12.3498  12.3500  12.3833  12.3834  12.5332  12.5333  12.6337  12.6338
    12.6904  12.6905  12.7870  12.7876  12.8113  12.8114  12.8612  12.8615
    12.8855  12.8856  12.9960  12.9961  13.1184  13.1184  14.6520  14.6526
    15.0713  15.0719  15.8194  15.8201  15.9778  15.9778  16.4705  16.4708
    16.8230  16.8243  17.1559  17.1636  17.1710  17.1714  17.6981  17.7064
    18.3505  18.3510  18.5315  18.5322  18.6573  18.6573  19.2822  19.2824
    19.9454  19.9457

          k =-0.3536 0.3536-0.5441 ( 13686 PWs)   bands (ev):

   -66.3816 -66.3816 -66.3816 -66.3816 -66.2980 -66.2969 -61.9672 -61.9603
   -35.1454 -35.1454 -35.1452 -35.1452 -35.1216 -35.1215 -35.1215 -35.1215
   -35.1024 -35.1024 -35.1021 -35.1021 -35.0759 -35.0754 -35.0297 -35.0285
   -35.0129 -35.0115 -30.8030 -30.7959 -30.7880 -30.7824 -30.7817 -30.7755
     6.9677   6.9681   7.9525   7.9528   8.5806   8.5807   8.6854   8.6854
     8.6998   8.6998   8.9798   8.9800   9.0382   9.0383   9.0933   9.0935
     9.1075   9.1076   9.1964   9.1966   9.2639   9.2645   9.3043   9.3048
     9.4088   9.4089   9.5760   9.5761   9.6526   9.6530   9.7372   9.7373
     9.8142   9.8144   9.9006   9.9007   9.9437   9.9438  10.1338  10.1338
    10.2354  10.2354  10.4073  10.4075  10.4716  10.4717  10.5600  10.5602
    10.7188  10.7190  10.7935  10.7938  10.8361  10.8364  10.8809  10.8811
    10.9708  10.9709  10.9904  10.9904  11.1112  11.1113  11.1409  11.1409
    11.2823  11.2825  11.3414  11.3414  11.3621  11.3622  11.4691  11.4692
    11.5551  11.5552  11.5947  11.5947  11.6650  11.6651  11.8087  11.8089
    11.8517  11.8519  11.8647  11.8649  11.9761  11.9763  12.0471  12.0471
    12.1221  12.1222  12.2161  12.2163  12.2480  12.2481  12.2752  12.2757
    12.3615  12.3617  12.4008  12.4008  12.4906  12.4908  12.5560  12.5562
    12.6853  12.6855  12.7266  12.7268  12.8210  12.8211  13.0568  13.0571
    13.1284  13.1284  13.5221  13.5221  13.5482  13.5483  14.0995  14.1002
    14.4761  14.4762  14.7229  14.7230  16.0326  16.0348  16.2403  16.2414
    16.5795  16.5799  16.7393  16.7401  17.4615  17.4630  17.7162  17.7210
    17.8121  17.8134  18.0391  18.0434  18.4909  18.4918  19.1032  19.1037
    20.2213  20.2220

          k =-0.3536 0.3536 1.0883 ( 13708 PWs)   bands (ev):

   -66.3816 -66.3816 -66.3816 -66.3816 -66.2980 -66.2969 -61.9673 -61.9603
   -35.1455 -35.1455 -35.1452 -35.1452 -35.1216 -35.1215 -35.1215 -35.1215
   -35.1024 -35.1024 -35.1021 -35.1021 -35.0759 -35.0754 -35.0296 -35.0285
   -35.0129 -35.0115 -30.8030 -30.7959 -30.7881 -30.7824 -30.7818 -30.7754
     8.0756   8.0758   8.3045   8.3051   8.3552   8.3552   8.5002   8.5004
     8.5531   8.5533   8.6228   8.6230   8.7424   8.7430   8.8654   8.8658
     8.9404   8.9408   9.4778   9.4781   9.5182   9.5183   9.5259   9.5262
     9.5641   9.5641   9.6540   9.6546   9.6699   9.6703   9.7316   9.7317
     9.7370   9.7373   9.8568   9.8571   9.9937   9.9940  10.0410  10.0414
    10.1064  10.1066  10.1155  10.1157  10.1399  10.1403  10.2714  10.2714
    10.2965  10.2965  10.4421  10.4425  10.6056  10.6057  10.6357  10.6358
    10.6834  10.6836  10.7823  10.7824  11.0951  11.0954  11.1559  11.1563
    11.3285  11.3285  11.3779  11.3782  11.6319  11.6320  11.7409  11.7410
    11.7980  11.7980  11.8081  11.8087  11.8768  11.8771  11.9153  11.9154
    12.0019  12.0019  12.0776  12.0780  12.1295  12.1296  12.1503  12.1505
    12.2308  12.2310  12.2341  12.2343  12.2911  12.2915  12.4018  12.4018
    12.4323  12.4324  12.5422  12.5423  12.5996  12.5997  12.6752  12.6753
    12.8049  12.8058  12.8080  12.8083  12.8330  12.8331  13.0002  13.0007
    13.1234  13.1234  13.1454  13.1457  13.3180  13.3181  14.5328  14.5338
    14.8995  14.9011  15.3527  15.3535  15.4848  15.4849  15.5311  15.5318
    15.9455  15.9455  16.0068  16.0070  17.3222  17.3222  17.4113  17.4147
    17.5772  17.5855  17.7837  17.7852  17.9558  17.9641  18.7128  18.7130
    19.6237  19.6240

          k =-0.5303 0.1768-0.1360 ( 13660 PWs)   bands (ev):

   -66.3819 -66.3819 -66.3813 -66.3813 -66.2980 -66.2969 -61.9672 -61.9602
   -35.1453 -35.1453 -35.1452 -35.1452 -35.1216 -35.1216 -35.1215 -35.1215
   -35.1023 -35.1023 -35.1022 -35.1022 -35.0759 -35.0754 -35.0297 -35.0285
   -35.0129 -35.0115 -30.8030 -30.7958 -30.7879 -30.7825 -30.7816 -30.7755
     6.5669   6.5672   7.6509   7.6512   8.3452   8.3452   8.7438   8.7439
     8.8308   8.8312   8.8382   8.8382   9.1948   9.1951   9.2959   9.2961
     9.3240   9.3242   9.3812   9.3814   9.4219   9.4221   9.5142   9.5143
     9.5784   9.5785   9.7589   9.7591   9.8596   9.8600   9.8712   9.8714
     9.9246   9.9249   9.9513   9.9514  10.0635  10.0637  10.1365  10.1366
    10.2259  10.2259  10.2393  10.2396  10.3723  10.3724  10.5019  10.5020
    10.6107  10.6108  10.6332  10.6332  10.7130  10.7130  10.7667  10.7669
    10.8120  10.8121  10.8380  10.8381  10.9640  10.9642  11.0258  11.0261
    11.1956  11.1957  11.2672  11.2674  11.3707  11.3710  11.3871  11.3873
    11.5090  11.5091  11.5962  11.5963  11.6035  11.6036  11.7233  11.7233
    11.8176  11.8177  11.8278  11.8279  11.9388  11.9391  11.9950  11.9951
    12.0709  12.0710  12.1658  12.1661  12.2224  12.2229  12.2722  12.2726
    12.3199  12.3202  12.4060  12.4061  12.4886  12.4888  12.5859  12.5862
    12.6596  12.6598  12.7347  12.7349  12.9554  12.9557  12.9916  12.9917
    13.1483  13.1485  13.2365  13.2369  13.7188  13.7190  14.4113  14.4119
    15.2075  15.2076  15.7716  15.7723  16.2824  16.2837  16.5991  16.6011
    16.7346  16.7361  16.9212  16.9224  17.3025  17.3089  17.6597  17.6633
    17.9924  17.9959  18.1353  18.1371  18.5171  18.5175  19.4562  19.4565
    20.3264  20.3267

          k =-0.5303 0.1768-0.6802 ( 13694 PWs)   bands (ev):

   -66.3819 -66.3819 -66.3813 -66.3813 -66.2980 -66.2969 -61.9672 -61.9603
   -35.1454 -35.1454 -35.1452 -35.1452 -35.1216 -35.1216 -35.1215 -35.1215
   -35.1023 -35.1023 -35.1022 -35.1022 -35.0759 -35.0754 -35.0297 -35.0285
   -35.0129 -35.0115 -30.8030 -30.7959 -30.7880 -30.7824 -30.7817 -30.7755
     7.3410   7.3413   7.4266   7.4270   8.7097   8.7097   8.7726   8.7727
     8.9128   8.9130   8.9717   8.9719   8.9998   9.0000   9.0704   9.0705
     9.1076   9.1076   9.1550   9.1552   9.2147   9.2149   9.2299   9.2301
     9.3814   9.3817   9.5158   9.5159   9.6024   9.6025   9.7410   9.7412
     9.9359   9.9360  10.0190  10.0191  10.1580  10.1581  10.2052  10.2053
    10.2343  10.2345  10.3121  10.3122  10.5002  10.5004  10.5051  10.5052
    10.5918  10.5918  10.6256  10.6258  10.8223  10.8225  10.8561  10.8561
    10.8762  10.8762  10.9914  10.9914  11.0203  11.0203  11.0822  11.0824
    11.1716  11.1716  11.2138  11.2138  11.3418  11.3420  11.4926  11.4928
    11.5142  11.5143  11.6409  11.6410  11.6501  11.6501  11.7568  11.7568
    11.8140  11.8141  11.8542  11.8542  11.9807  11.9810  12.0432  12.0433
    12.0785  12.0786  12.1774  12.1776  12.2332  12.2336  12.3066  12.3069
    12.3349  12.3351  12.3673  12.3674  12.5069  12.5070  12.6121  12.6122
    12.6926  12.6926  12.7703  12.7706  12.8006  12.8008  13.1635  13.1637
    13.2318  13.2321  13.8818  13.8821  13.8911  13.8911  14.2875  14.2878
    14.4917  14.4924  14.9645  14.9645  15.3691  15.3691  16.3463  16.3486
    16.6256  16.6270  16.9721  16.9751  17.3687  17.3704  17.6845  17.6881
    17.9227  17.9228  18.0861  18.0880  18.4241  18.4273  18.7192  18.7200
    19.6970  19.6972

          k =-0.5303 0.1768 0.9522 ( 13712 PWs)   bands (ev):

   -66.3818 -66.3818 -66.3814 -66.3814 -66.2980 -66.2969 -61.9672 -61.9603
   -35.1454 -35.1454 -35.1453 -35.1453 -35.1216 -35.1216 -35.1215 -35.1215
   -35.1023 -35.1023 -35.1022 -35.1022 -35.0759 -35.0754 -35.0296 -35.0285
   -35.0129 -35.0115 -30.8030 -30.7959 -30.7881 -30.7824 -30.7818 -30.7754
     7.9313   7.9316   8.0116   8.0119   8.5425   8.5428   8.5785   8.5785
     8.6269   8.6269   8.6578   8.6578   8.8340   8.8344   8.9132   8.9136
     9.0082   9.0084   9.3001   9.3003   9.3947   9.3949   9.4269   9.4270
     9.4833   9.4835   9.5272   9.5273   9.5585   9.5585   9.6267   9.6269
     9.6968   9.6968   9.8785   9.8785   9.9218   9.9218   9.9679   9.9679
    10.1201  10.1205  10.1693  10.1694  10.3499  10.3499  10.4659  10.4660
    10.5517  10.5519  10.6496  10.6498  10.7168  10.7168  10.7587  10.7587
    10.8227  10.8228  10.9875  10.9876  11.1130  11.1130  11.1777  11.1779
    11.4245  11.4249  11.4797  11.4799  11.5491  11.5492  11.6977  11.6977
    11.7926  11.7926  11.8858  11.8861  11.8990  11.8991  11.9761  11.9761
    12.0189  12.0190  12.1071  12.1071  12.1137  12.1139  12.1358  12.1360
    12.1823  12.1824  12.2180  12.2180  12.2925  12.2927  12.3125  12.3128
    12.3330  12.3332  12.4000  12.4000  12.4498  12.4499  12.6109  12.6113
    12.7268  12.7268  12.8686  12.8690  12.9664  12.9665  13.0036  13.0037
    13.1095  13.1095  13.1269  13.1272  13.2736  13.2737  13.9636  13.9637
    14.4924  14.4927  14.8607  14.8623  15.2361  15.2367  15.9421  15.9429
    16.0053  16.0059  16.6681  16.6690  17.2550  17.2560  17.4408  17.4419
    17.6287  17.6341  17.7910  17.7937  18.0499  18.0544  18.2486  18.2522
    19.6378  19.6383

          k =-0.5303 0.1768 0.4081 ( 13670 PWs)   bands (ev):

   -66.3818 -66.3818 -66.3814 -66.3814 -66.2980 -66.2969 -61.9672 -61.9603
   -35.1454 -35.1454 -35.1453 -35.1453 -35.1216 -35.1216 -35.1215 -35.1215
   -35.1023 -35.1023 -35.1022 -35.1022 -35.0759 -35.0754 -35.0297 -35.0285
   -35.0129 -35.0115 -30.8030 -30.7959 -30.7880 -30.7824 -30.7817 -30.7755
     6.8432   6.8436   8.3209   8.3210   8.3962   8.3964   8.5182   8.5183
     8.5856   8.5857   8.9432   8.9436   9.0920   9.0922   9.1795   9.1796
     9.1928   9.1931   9.2136   9.2136   9.2974   9.2974   9.3201   9.3203
     9.4935   9.4938   9.5661   9.5662   9.6090   9.6093   9.6550   9.6551
     9.7124   9.7127   9.8661   9.8661   9.9296   9.9297  10.1043  10.1045
    10.2369  10.2370  10.3481  10.3482  10.5049  10.5050  10.5660  10.5661
    10.7308  10.7309  10.7679  10.7679  10.8607  10.8607  10.8853  10.8856
    10.9902  10.9905  11.0848  11.0850  11.1461  11.1462  11.2651  11.2651
    11.3326  11.3326  11.4311  11.4311  11.4814  11.4815  11.5262  11.5263
    11.6260  11.6261  11.6584  11.6585  11.7657  11.7657  11.8425  11.8428
    11.9587  11.9587  12.0044  12.0044  12.0532  12.0535  12.0819  12.0819
    12.1597  12.1598  12.1793  12.1794  12.2914  12.2915  12.3063  12.3066
    12.3303  12.3307  12.3964  12.3965  12.5058  12.5059  12.5668  12.5671
    12.6342  12.6345  12.6781  12.6782  12.7862  12.7863  12.8025  12.8029
    12.9062  12.9063  12.9774  12.9777  13.1828  13.1829  13.8052  13.8058
    15.1266  15.1268  15.4690  15.4694  15.5198  15.5208  15.7763  15.7780
    16.2582  16.2584  16.9920  16.9944  17.4282  17.4311  17.5704  17.5762
    17.7462  17.7494  17.8997  17.9049  19.1472  19.1473  19.4414  19.4415
    19.5976  19.5981

          k = 0.0000 0.7071 0.2721 ( 13680 PWs)   bands (ev):

   -66.3820 -66.3820 -66.3812 -66.3812 -66.2980 -66.2969 -61.9672 -61.9602
   -35.1453 -35.1453 -35.1453 -35.1453 -35.1216 -35.1216 -35.1215 -35.1215
   -35.1023 -35.1023 -35.1022 -35.1022 -35.0759 -35.0754 -35.0297 -35.0285
   -35.0129 -35.0115 -30.8030 -30.7958 -30.7879 -30.7825 -30.7816 -30.7755
     6.9861   6.9863   7.0321   7.0327   8.5900   8.5900   8.7317   8.7319
     8.9944   8.9947   9.0022   9.0024   9.1262   9.1262   9.1598   9.1600
     9.2474   9.2475   9.3218   9.3220   9.3530   9.3532   9.3951   9.3953
     9.5421   9.5422   9.6118   9.6119   9.8907   9.8908   9.9283   9.9284
     9.9776   9.9778  10.0336  10.0340  10.0790  10.0793  10.1026  10.1030
    10.2257  10.2258  10.4455  10.4456  10.4795  10.4797  10.5305  10.5307
    10.6714  10.6715  10.6777  10.6778  10.7838  10.7839  10.7895  10.7895
    10.8517  10.8517  10.8919  10.8919  10.9888  10.9889  11.0541  11.0543
    11.0800  11.0801  11.1621  11.1623  11.3786  11.3788  11.3805  11.3806
    11.4024  11.4024  11.4456  11.4457  11.4774  11.4775  11.6173  11.6174
    11.6344  11.6346  11.7581  11.7583  11.7587  11.7588  11.9677  11.9680
    12.0174  12.0176  12.1675  12.1679  12.2387  12.2392  12.2759  12.2764
    12.3446  12.3448  12.3826  12.3828  12.4411  12.4412  12.6109  12.6112
    12.6689  12.6691  12.7317  12.7318  12.9792  12.9797  12.9999  13.0000
    13.3344  13.3346  13.7125  13.7131  13.8421  13.8424  14.6749  14.6759
    15.3668  15.3669  15.6843  15.6851  15.8566  15.8574  16.2625  16.2631
    16.9754  16.9787  17.1530  17.1580  17.4839  17.4844  17.6343  17.6408
    17.8595  17.8599  18.0347  18.0349  18.7707  18.7730  18.8133  18.8148
    20.4721  20.4726

          k = 0.0000 0.7071-0.2721 ( 13688 PWs)   bands (ev):

   -66.3819 -66.3819 -66.3813 -66.3813 -66.2980 -66.2969 -61.9672 -61.9603
   -35.1453 -35.1453 -35.1453 -35.1453 -35.1216 -35.1216 -35.1215 -35.1215
   -35.1023 -35.1023 -35.1022 -35.1022 -35.0759 -35.0754 -35.0297 -35.0285
   -35.0129 -35.0115 -30.8030 -30.7959 -30.7880 -30.7824 -30.7817 -30.7755
     7.0088   7.0091   7.8527   7.8530   8.6468   8.6469   8.6565   8.6566
     8.6623   8.6625   9.0215   9.0215   9.0349   9.0352   9.0490   9.0490
     9.1316   9.1318   9.1772   9.1774   9.3204   9.3206   9.3386   9.3387
     9.4425   9.4428   9.5248   9.5248   9.5983   9.5984   9.7538   9.7538
     9.9038   9.9039   9.9848   9.9849  10.0300  10.0302  10.0613  10.0613
    10.1082  10.1085  10.4100  10.4102  10.4854  10.4856  10.5172  10.5173
    10.6584  10.6585  10.7493  10.7493  10.8011  10.8011  10.8637  10.8637
    10.8878  10.8879  11.0124  11.0124  11.0687  11.0687  11.1600  11.1601
    11.3411  11.3413  11.3769  11.3769  11.4141  11.4141  11.5080  11.5083
    11.5524  11.5525  11.6127  11.6129  11.7362  11.7362  11.8432  11.8432
    11.8548  11.8549  11.9784  11.9785  12.0104  12.0104  12.0480  12.0481
    12.0934  12.0936  12.1688  12.1690  12.2323  12.2324  12.3182  12.3185
    12.3377  12.3379  12.3385  12.3387  12.4967  12.4967  12.5260  12.5261
    12.6669  12.6672  12.7228  12.7229  12.7591  12.7594  13.0061  13.0062
    13.2027  13.2028  13.3368  13.3370  13.6871  13.6874  13.8132  13.8133
    14.9043  14.9047  15.1122  15.1129  15.8540  15.8555  16.1280  16.1282
    16.5819  16.5826  16.8277  16.8279  17.2972  17.3013  17.6907  17.6948
    17.8049  17.8075  17.8617  17.8636  17.9832  17.9844  18.8003  18.8016
    20.4754  20.4757

          k = 0.0000 0.7071 1.3603 ( 13696 PWs)   bands (ev):

   -66.3819 -66.3819 -66.3813 -66.3813 -66.2981 -66.2969 -61.9672 -61.9603
   -35.1454 -35.1454 -35.1453 -35.1453 -35.1216 -35.1216 -35.1215 -35.1215
   -35.1023 -35.1023 -35.1022 -35.1022 -35.0759 -35.0754 -35.0296 -35.0285
   -35.0129 -35.0115 -30.8030 -30.7959 -30.7881 -30.7824 -30.7818 -30.7754
     7.8231   7.8234   7.8837   7.8840   8.5825   8.5828   8.6172   8.6173
     8.6760   8.6761   8.7168   8.7169   8.9928   8.9931   9.0071   9.0072
     9.0793   9.0793   9.0900   9.0904   9.2288   9.2291   9.2498   9.2499
     9.3893   9.3897   9.4607   9.4608   9.5377   9.5378   9.5476   9.5478
     9.6933   9.6935   9.8566   9.8567   9.9215   9.9216  10.0520  10.0521
    10.0721  10.0721  10.1937  10.1939  10.4713  10.4713  10.4954  10.4956
    10.6908  10.6911  10.7105  10.7106  10.8659  10.8660  10.9491  10.9492
    11.0936  11.0940  11.0973  11.0974  11.3084  11.3086  11.3569  11.3572
    11.4807  11.4810  11.5173  11.5174  11.5724  11.5726  11.7212  11.7214
    11.8555  11.8556  11.8808  11.8811  11.9992  11.9993  12.0129  12.0130
    12.0251  12.0252  12.0504  12.0505  12.0744  12.0747  12.0926  12.0927
    12.0950  12.0951  12.2194  12.2194  12.2404  12.2409  12.2781  12.2781
    12.3285  12.3288  12.3980  12.3982  12.4472  12.4475  12.4747  12.4748
    12.5792  12.5793  12.6671  12.6676  12.7750  12.7753  12.8239  12.8240
    13.0308  13.0309  13.2722  13.2724  13.4372  13.4375  13.6715  13.6715
    13.8666  13.8667  14.8140  14.8157  15.1163  15.1169  16.2854  16.2861
    16.5464  16.5492  16.5768  16.5779  16.6840  16.6842  17.3434  17.3474
    17.6527  17.6537  17.9131  17.9142  17.9285  17.9361  18.1779  18.1854
    20.4744  20.4748

     the Fermi energy is    15.5493 ev

!    total energy              =  -14693.94817733 Ry
     Harris-Foulkes estimate   =  -14693.94816945 Ry
     estimated scf accuracy    <       0.00000032 Ry

     total all-electron energy =   -626921.543899 Ry

     The total energy is the sum of the following terms:

     one-electron contribution =    -698.48642970 Ry
     hartree contribution      =     651.60876929 Ry
     xc contribution           =    -738.10092210 Ry
     ewald contribution        =   -2207.56121140 Ry
     Hubbard energy            =       0.46057418 Ry
     one-center paw contrib.   =  -11701.86895761 Ry

     total magnetization       =   -16.90 Bohr mag/cell
     absolute magnetization    =    36.81 Bohr mag/cell

     convergence has been achieved in  23 iterations

     Writing output data file mnau2.save/
 
     init_run     :     21.85s CPU     22.69s WALL (       1 calls)
     electrons    :   1115.18s CPU   1149.59s WALL (       1 calls)

     Called by init_run:
     wfcinit      :     19.49s CPU     20.19s WALL (       1 calls)
     potinit      :      1.21s CPU      1.27s WALL (       1 calls)
     hinit0       :      0.69s CPU      0.72s WALL (       1 calls)

     Called by electrons:
     c_bands      :    963.68s CPU    988.67s WALL (      23 calls)
     sum_band     :    125.05s CPU    129.23s WALL (      23 calls)
     v_of_rho     :      2.15s CPU      2.18s WALL (      24 calls)
     newd         :      7.98s CPU      8.92s WALL (      24 calls)
     PAW_pot      :     16.84s CPU     16.90s WALL (      24 calls)
     mix_rho      :      0.35s CPU      0.37s WALL (      23 calls)

     Called by c_bands:
     init_us_2    :      9.85s CPU      9.90s WALL (    2880 calls)
     cegterg      :    916.31s CPU    940.65s WALL (    1380 calls)

     Called by sum_band:
     sum_band:bec :      1.15s CPU      1.16s WALL (    1380 calls)
     addusdens    :     15.14s CPU     16.74s WALL (      23 calls)

     Called by *egterg:
     h_psi        :    409.00s CPU    421.66s WALL (    4890 calls)
     s_psi        :     61.42s CPU     61.70s WALL (    4950 calls)
     g_psi        :      2.19s CPU      2.21s WALL (    3450 calls)
     cdiaghg      :    318.90s CPU    324.35s WALL (    4830 calls)

     Called by h_psi:
     h_psi:pot    :    386.13s CPU    396.06s WALL (    4890 calls)
     h_psi:calbec :     58.80s CPU     61.12s WALL (    4890 calls)
     vloc_psi     :    267.36s CPU    274.19s WALL (    4890 calls)
     add_vuspsi   :     59.92s CPU     60.72s WALL (    4890 calls)
     vhpsi        :     20.00s CPU     20.10s WALL (    4890 calls)

     General routines
     calbec       :     96.78s CPU     99.92s WALL (   12600 calls)
     fft          :      1.14s CPU      1.17s WALL (     596 calls)
     ffts         :      0.05s CPU      0.05s WALL (      94 calls)
     fftw         :    298.51s CPU    305.82s WALL ( 1326952 calls)
     interpolate  :      0.12s CPU      0.12s WALL (      48 calls)
     davcio       :      0.01s CPU      0.50s WALL (      60 calls)
 
     Parallel routines
     fft_scatt_xy :     37.96s CPU     38.82s WALL ( 1327642 calls)
     fft_scatt_yz :     98.65s CPU    101.41s WALL ( 1327642 calls)

     Hubbard U routines
     new_ns       :      5.69s CPU      5.97s WALL (      23 calls)
     vhpsi        :     20.00s CPU     20.10s WALL (    4890 calls)
 
     PWSCF        : 19m 3.46s CPU    19m54.13s WALL

 
   This run was terminated on:  13:38:59  26Mar2019            

=------------------------------------------------------------------------------=
   JOB DONE.
=------------------------------------------------------------------------------=
