
     Program PWSCF v.6.3MaX starts on 26Mar2019 at 11:59: 6 

     This program is part of the open-source Quantum ESPRESSO suite
     for quantum simulation of materials; please cite
         "P. Giannozzi et al., J. Phys.:Condens. Matter 21 395502 (2009);
         "P. Giannozzi et al., J. Phys.:Condens. Matter 29 465901 (2017);
          URL http://www.quantum-espresso.org", 
     in publications or presentations arising from this work. More details at
     http://www.quantum-espresso.org/quote

     Parallel version (MPI), running on    16 processors

     MPI processes distributed on     1 nodes
     R & G space division:  proc/nbgrp/npool/nimage =      16
     Waiting for input...
     Reading input from standard input

     Current dimensions of program PWSCF are:
     Max number of different atomic species (ntypx) = 10
     Max number of k-points (npk) =  40000
     Max angular momentum in pseudopotentials (lmaxx) =  3
     Message from routine read_upf::
     Pseudo file ./pseudo/Mn.pbe-spn-kjpaw_psl.0.3.1.UPF has been successfully fixed on the fly.
To avoid this message in the future you can permanently fix 
 your pseudo files following instructions given in: 
https://gitlab.com/QEF/q-e/blob/master/upftools/how_to_fix_upf.md
               file Mn.pbe-spn-kjpaw_psl.0.3.1.UPF: wavefunction(s)  3P 3D renormalized
     Message from routine read_upf::
     Pseudo file ./pseudo/Mn.pbe-spn-kjpaw_psl.0.3.1.UPF has been successfully fixed on the fly.
To avoid this message in the future you can permanently fix 
 your pseudo files following instructions given in: 
https://gitlab.com/QEF/q-e/blob/master/upftools/how_to_fix_upf.md
               file Mn.pbe-spn-kjpaw_psl.0.3.1.UPF: wavefunction(s)  3P 3D renormalized
     Message from routine read_upf::
     Pseudo file ./pseudo/Au.pbe-dn-kjpaw_psl.0.1.UPF has been successfully fixed on the fly.
To avoid this message in the future you can permanently fix 
 your pseudo files following instructions given in: 
https://gitlab.com/QEF/q-e/blob/master/upftools/how_to_fix_upf.md
               file Au.pbe-dn-kjpaw_psl.0.1.UPF: wavefunction(s)  6S 6P 5D renormalized

     Subspace diagonalization in iterative solution of the eigenvalue problem:
     one sub-group per band group will be used
     scalapack distributed-memory algorithm (size of sub-group:  2*  2 procs)

 
     Parallelization info
     --------------------
     sticks:   dense  smooth     PW     G-vecs:    dense   smooth      PW
     Min         646     290     84                22663     6843    1075
     Max         647     291     85                22664     6844    1077
     Sum       10349    4645   1353               362619   109493   17211
 


     bravais-lattice index     =            0
     lattice parameter (alat)  =      18.0125  a.u.
     unit-cell volume          =    2685.0513 (a.u.)^3
     number of atoms/cell      =           24
     number of atomic types    =            3
     number of electrons       =       296.00
     number of Kohn-Sham states=          178
     kinetic-energy cutoff     =      45.0000  Ry
     charge density cutoff     =     400.0000  Ry
     convergence threshold     =      1.0E-06
     mixing beta               =       0.1000
     number of iterations used =            8  plain     mixing
     Exchange-correlation      = SLA PW PBX PBC ( 1  4  3  4 0 0)

     celldm(1)=  18.012490  celldm(2)=   0.000000  celldm(3)=   0.000000
     celldm(4)=   0.000000  celldm(5)=   0.000000  celldm(6)=   0.000000

     crystal axes: (cart. coord. in units of alat)
               a(1) = (   0.707107  -0.707107   0.000000 )  
               a(2) = (  -0.707107  -0.707107   0.000000 )  
               a(3) = (   0.176777   0.176777  -0.459443 )  

     reciprocal axes: (cart. coord. in units 2 pi/alat)
               b(1) = (  0.707107 -0.707107  0.000000 )  
               b(2) = ( -0.707107 -0.707107 -0.544138 )  
               b(3) = (  0.000000  0.000000 -2.176550 )  


     PseudoPot. # 1 for Mn read from file:
     ./pseudo/Mn.pbe-spn-kjpaw_psl.0.3.1.UPF
     MD5 check sum: 7eef95dd2aae66803482eea66ebeebf1
     Pseudo is Projector augmented-wave + core cor, Zval = 15.0
     Generated using "atomic" code by A. Dal Corso v.5.0.99 svn rev. 10869
     Shape of augmentation charge: PSQ
     Using radial grid of 1187 points,  6 beta functions with: 
                l(1) =   0
                l(2) =   0
                l(3) =   1
                l(4) =   1
                l(5) =   2
                l(6) =   2
     Q(r) pseudized with 0 coefficients 


     PseudoPot. # 2 for Mn read from file:
     ./pseudo/Mn.pbe-spn-kjpaw_psl.0.3.1.UPF
     MD5 check sum: 7eef95dd2aae66803482eea66ebeebf1
     Pseudo is Projector augmented-wave + core cor, Zval = 15.0
     Generated using "atomic" code by A. Dal Corso v.5.0.99 svn rev. 10869
     Shape of augmentation charge: PSQ
     Using radial grid of 1187 points,  6 beta functions with: 
                l(1) =   0
                l(2) =   0
                l(3) =   1
                l(4) =   1
                l(5) =   2
                l(6) =   2
     Q(r) pseudized with 0 coefficients 


     PseudoPot. # 3 for Au read from file:
     ./pseudo/Au.pbe-dn-kjpaw_psl.0.1.UPF
     MD5 check sum: 5c9b92683623e7ae2ab3f8e525febab6
     Pseudo is Projector augmented-wave + core cor, Zval = 11.0
     Generated using "atomic" code by A. Dal Corso v.5.0.2 svn rev. 9415
     Shape of augmentation charge: PSQ
     Using radial grid of 1279 points,  6 beta functions with: 
                l(1) =   0
                l(2) =   0
                l(3) =   1
                l(4) =   1
                l(5) =   2
                l(6) =   2
     Q(r) pseudized with 0 coefficients 


     atomic species   valence    mass     pseudopotential
        Mn1           15.00    54.93800     Mn( 1.00)
        Mn2           15.00    54.93800     Mn( 1.00)
        Au            11.00   196.96600     Au( 1.00)

     Starting magnetic structure 
     atomic species   magnetization
        Mn1          1.000
        Mn2         -1.000
        Au           0.000


     Full LDA+U calculation (l_max = 2) with parameters (eV):
     U(  1) =   3.1200   J(  1) =   0.7000   B(  1) =   0.0803
     U(  2) =   3.1200   J(  2) =   0.7000   B(  2) =   0.0803



      2 Sym. Ops., with inversion, found



   Cartesian axes

     site n.     atom                  positions (alat units)
         1           Mn1 tau(   1) = (   0.3535534  -0.3535534   0.0000000  )
         2           Mn1 tau(   2) = (   0.0000000   0.0000000   0.0000000  )
         3           Mn2 tau(   3) = (   0.0000000  -0.3535534   0.0000000  )
         4           Mn1 tau(   4) = (   0.3535534  -0.7071068   0.0000000  )
         5           Mn2 tau(   5) = (  -0.3535534  -0.3535534   0.0000000  )
         6           Mn1 tau(   6) = (   0.0000000  -0.7071068   0.0000000  )
         7           Mn1 tau(   7) = (  -0.3535534  -0.7071068   0.0000000  )
         8           Mn2 tau(   8) = (   0.0000000  -1.0606602   0.0000000  )
         9           Au  tau(   9) = (  -0.1767767  -0.1767767  -0.1470216  )
        10           Au  tau(  10) = (   0.1767767  -0.5303301  -0.1470216  )
        11           Au  tau(  11) = (  -0.1767767  -0.5303301  -0.1470216  )
        12           Au  tau(  12) = (   0.1767767  -0.8838835  -0.1470216  )
        13           Au  tau(  13) = (  -0.5303301  -0.5303301  -0.1470216  )
        14           Au  tau(  14) = (  -0.1767767  -0.8838835  -0.1470216  )
        15           Au  tau(  15) = (   0.5303301  -0.5303301  -0.1470216  )
        16           Au  tau(  16) = (   0.1767767  -0.1767767  -0.1470216  )
        17           Au  tau(  17) = (   0.3535534  -0.3535534  -0.3124210  )
        18           Au  tau(  18) = (   0.0000000   0.0000000  -0.3124210  )
        19           Au  tau(  19) = (   0.0000000  -0.3535534  -0.3124210  )
        20           Au  tau(  20) = (   0.3535534  -0.7071068  -0.3124210  )
        21           Au  tau(  21) = (  -0.3535534  -0.3535534  -0.3124210  )
        22           Au  tau(  22) = (  -0.0000000  -0.7071068  -0.3124210  )
        23           Au  tau(  23) = (  -0.3535534  -0.7071068  -0.3124210  )
        24           Au  tau(  24) = (   0.0000000  -1.0606602  -0.3124210  )

     number of k points=    36 (tetrahedron method)
                       cart. coord. in units 2pi/alat
        k(    1) = (   0.0000000   0.0000000   0.0000000), wk =   0.0156250
        k(    2) = (   0.0000000   0.0000000  -0.5441376), wk =   0.0312500
        k(    3) = (   0.0000000   0.0000000   1.0882752), wk =   0.0156250
        k(    4) = (  -0.1767767  -0.1767767  -0.1360344), wk =   0.0312500
        k(    5) = (  -0.1767767  -0.1767767  -0.6801720), wk =   0.0312500
        k(    6) = (  -0.1767767  -0.1767767   0.9522408), wk =   0.0312500
        k(    7) = (  -0.1767767  -0.1767767   0.4081032), wk =   0.0312500
        k(    8) = (   0.3535534   0.3535534   0.2720688), wk =   0.0156250
        k(    9) = (   0.3535534   0.3535534  -0.2720688), wk =   0.0312500
        k(   10) = (   0.3535534   0.3535534   1.3603439), wk =   0.0156250
        k(   11) = (   0.1767767  -0.1767767   0.0000000), wk =   0.0312500
        k(   12) = (   0.1767767  -0.1767767  -0.5441376), wk =   0.0312500
        k(   13) = (   0.1767767  -0.1767767   1.0882752), wk =   0.0312500
        k(   14) = (   0.0000000  -0.3535534  -0.1360344), wk =   0.0312500
        k(   15) = (   0.0000000  -0.3535534  -0.6801720), wk =   0.0312500
        k(   16) = (   0.0000000  -0.3535534   0.9522408), wk =   0.0312500
        k(   17) = (   0.0000000  -0.3535534   0.4081032), wk =   0.0312500
        k(   18) = (   0.5303301   0.1767767   0.2720688), wk =   0.0312500
        k(   19) = (   0.5303301   0.1767767  -0.2720688), wk =   0.0312500
        k(   20) = (   0.5303301   0.1767767   1.3603439), wk =   0.0312500
        k(   21) = (  -0.3535534   0.3535534   0.0000000), wk =   0.0156250
        k(   22) = (  -0.3535534   0.3535534  -0.5441376), wk =   0.0312500
        k(   23) = (  -0.3535534   0.3535534   1.0882752), wk =   0.0156250
        k(   24) = (  -0.5303301   0.1767767  -0.1360344), wk =   0.0312500
        k(   25) = (  -0.5303301   0.1767767  -0.6801720), wk =   0.0312500
        k(   26) = (  -0.5303301   0.1767767   0.9522408), wk =   0.0312500
        k(   27) = (  -0.5303301   0.1767767   0.4081032), wk =   0.0312500
        k(   28) = (   0.0000000   0.7071068   0.2720688), wk =   0.0156250
        k(   29) = (   0.0000000   0.7071068  -0.2720688), wk =   0.0312500
        k(   30) = (   0.0000000   0.7071068   1.3603439), wk =   0.0156250
        k(   31) = (   0.1767767  -0.1767767   0.5441376), wk =   0.0312500
        k(   32) = (   0.3535534   0.0000000   0.1360344), wk =   0.0312500
        k(   33) = (   0.3535534   0.0000000   0.6801720), wk =   0.0312500
        k(   34) = (   0.3535534   0.0000000  -0.9522408), wk =   0.0312500
        k(   35) = (   0.3535534   0.0000000  -0.4081032), wk =   0.0312500
        k(   36) = (  -0.1767767  -0.5303301   0.2720688), wk =   0.0312500

     Dense  grid:   362619 G-vectors     FFT dimensions: ( 120, 120,  60)

     Smooth grid:   109493 G-vectors     FFT dimensions: (  80,  80,  45)

     Estimated max dynamical RAM per process >     321.00 MB

     Estimated total dynamical RAM >       5.02 GB
     Generating pointlists ...
     new r_m :   0.1196 (alat units)  2.1549 (a.u.) for type    1
     new r_m :   0.1196 (alat units)  2.1549 (a.u.) for type    2
     new r_m :   0.1196 (alat units)  2.1549 (a.u.) for type    3

     Check: negative/imaginary core charge=   -0.000006    0.000000

     Initial potential from superposition of free atoms

     starting charge  295.99426, renormalised to  296.00000
     Number of +U iterations with fixed ns =  0
     Starting occupations:
 --- enter write_ns ---
 LDA+U parameters:
U(  1) =   3.1200   J(  1) =   0.7000   B(  1) =   0.0803
U(  2) =   3.1200   J(  2) =   0.7000   B(  2) =   0.0803
atom    1   Tr[ns(na)] (up, down, total) =   5.00000  0.00000  5.00000
   spin  1
    eigenvalues: 
  1.000  1.000  1.000  1.000  1.000
    eigenvectors:
  1.000  0.000  0.000  0.000  0.000
  0.000  1.000  0.000  0.000  0.000
  0.000  0.000  1.000  0.000  0.000
  0.000  0.000  0.000  1.000  0.000
  0.000  0.000  0.000  0.000  1.000
    occupations:
  1.000  0.000  0.000  0.000  0.000
  0.000  1.000  0.000  0.000  0.000
  0.000  0.000  1.000  0.000  0.000
  0.000  0.000  0.000  1.000  0.000
  0.000  0.000  0.000  0.000  1.000
   spin  2
    eigenvalues: 
  0.000  0.000  0.000  0.000  0.000
    eigenvectors:
  1.000  0.000  0.000  0.000  0.000
  0.000  1.000  0.000  0.000  0.000
  0.000  0.000  1.000  0.000  0.000
  0.000  0.000  0.000  1.000  0.000
  0.000  0.000  0.000  0.000  1.000
    occupations:
  0.000  0.000  0.000  0.000  0.000
  0.000  0.000  0.000  0.000  0.000
  0.000  0.000  0.000  0.000  0.000
  0.000  0.000  0.000  0.000  0.000
  0.000  0.000  0.000  0.000  0.000
atomic mag. moment =     5.000000
atom    2   Tr[ns(na)] (up, down, total) =   5.00000  0.00000  5.00000
   spin  1
    eigenvalues: 
  1.000  1.000  1.000  1.000  1.000
    eigenvectors:
  1.000  0.000  0.000  0.000  0.000
  0.000  1.000  0.000  0.000  0.000
  0.000  0.000  1.000  0.000  0.000
  0.000  0.000  0.000  1.000  0.000
  0.000  0.000  0.000  0.000  1.000
    occupations:
  1.000  0.000  0.000  0.000  0.000
  0.000  1.000  0.000  0.000  0.000
  0.000  0.000  1.000  0.000  0.000
  0.000  0.000  0.000  1.000  0.000
  0.000  0.000  0.000  0.000  1.000
   spin  2
    eigenvalues: 
  0.000  0.000  0.000  0.000  0.000
    eigenvectors:
  1.000  0.000  0.000  0.000  0.000
  0.000  1.000  0.000  0.000  0.000
  0.000  0.000  1.000  0.000  0.000
  0.000  0.000  0.000  1.000  0.000
  0.000  0.000  0.000  0.000  1.000
    occupations:
  0.000  0.000  0.000  0.000  0.000
  0.000  0.000  0.000  0.000  0.000
  0.000  0.000  0.000  0.000  0.000
  0.000  0.000  0.000  0.000  0.000
  0.000  0.000  0.000  0.000  0.000
atomic mag. moment =     5.000000
atom    3   Tr[ns(na)] (up, down, total) =   0.00000  5.00000  5.00000
   spin  1
    eigenvalues: 
  0.000  0.000  0.000  0.000  0.000
    eigenvectors:
  1.000  0.000  0.000  0.000  0.000
  0.000  1.000  0.000  0.000  0.000
  0.000  0.000  1.000  0.000  0.000
  0.000  0.000  0.000  1.000  0.000
  0.000  0.000  0.000  0.000  1.000
    occupations:
  0.000  0.000  0.000  0.000  0.000
  0.000  0.000  0.000  0.000  0.000
  0.000  0.000  0.000  0.000  0.000
  0.000  0.000  0.000  0.000  0.000
  0.000  0.000  0.000  0.000  0.000
   spin  2
    eigenvalues: 
  1.000  1.000  1.000  1.000  1.000
    eigenvectors:
  1.000  0.000  0.000  0.000  0.000
  0.000  1.000  0.000  0.000  0.000
  0.000  0.000  1.000  0.000  0.000
  0.000  0.000  0.000  1.000  0.000
  0.000  0.000  0.000  0.000  1.000
    occupations:
  1.000  0.000  0.000  0.000  0.000
  0.000  1.000  0.000  0.000  0.000
  0.000  0.000  1.000  0.000  0.000
  0.000  0.000  0.000  1.000  0.000
  0.000  0.000  0.000  0.000  1.000
atomic mag. moment =    -5.000000
atom    4   Tr[ns(na)] (up, down, total) =   5.00000  0.00000  5.00000
   spin  1
    eigenvalues: 
  1.000  1.000  1.000  1.000  1.000
    eigenvectors:
  1.000  0.000  0.000  0.000  0.000
  0.000  1.000  0.000  0.000  0.000
  0.000  0.000  1.000  0.000  0.000
  0.000  0.000  0.000  1.000  0.000
  0.000  0.000  0.000  0.000  1.000
    occupations:
  1.000  0.000  0.000  0.000  0.000
  0.000  1.000  0.000  0.000  0.000
  0.000  0.000  1.000  0.000  0.000
  0.000  0.000  0.000  1.000  0.000
  0.000  0.000  0.000  0.000  1.000
   spin  2
    eigenvalues: 
  0.000  0.000  0.000  0.000  0.000
    eigenvectors:
  1.000  0.000  0.000  0.000  0.000
  0.000  1.000  0.000  0.000  0.000
  0.000  0.000  1.000  0.000  0.000
  0.000  0.000  0.000  1.000  0.000
  0.000  0.000  0.000  0.000  1.000
    occupations:
  0.000  0.000  0.000  0.000  0.000
  0.000  0.000  0.000  0.000  0.000
  0.000  0.000  0.000  0.000  0.000
  0.000  0.000  0.000  0.000  0.000
  0.000  0.000  0.000  0.000  0.000
atomic mag. moment =     5.000000
atom    5   Tr[ns(na)] (up, down, total) =   0.00000  5.00000  5.00000
   spin  1
    eigenvalues: 
  0.000  0.000  0.000  0.000  0.000
    eigenvectors:
  1.000  0.000  0.000  0.000  0.000
  0.000  1.000  0.000  0.000  0.000
  0.000  0.000  1.000  0.000  0.000
  0.000  0.000  0.000  1.000  0.000
  0.000  0.000  0.000  0.000  1.000
    occupations:
  0.000  0.000  0.000  0.000  0.000
  0.000  0.000  0.000  0.000  0.000
  0.000  0.000  0.000  0.000  0.000
  0.000  0.000  0.000  0.000  0.000
  0.000  0.000  0.000  0.000  0.000
   spin  2
    eigenvalues: 
  1.000  1.000  1.000  1.000  1.000
    eigenvectors:
  1.000  0.000  0.000  0.000  0.000
  0.000  1.000  0.000  0.000  0.000
  0.000  0.000  1.000  0.000  0.000
  0.000  0.000  0.000  1.000  0.000
  0.000  0.000  0.000  0.000  1.000
    occupations:
  1.000  0.000  0.000  0.000  0.000
  0.000  1.000  0.000  0.000  0.000
  0.000  0.000  1.000  0.000  0.000
  0.000  0.000  0.000  1.000  0.000
  0.000  0.000  0.000  0.000  1.000
atomic mag. moment =    -5.000000
atom    6   Tr[ns(na)] (up, down, total) =   5.00000  0.00000  5.00000
   spin  1
    eigenvalues: 
  1.000  1.000  1.000  1.000  1.000
    eigenvectors:
  1.000  0.000  0.000  0.000  0.000
  0.000  1.000  0.000  0.000  0.000
  0.000  0.000  1.000  0.000  0.000
  0.000  0.000  0.000  1.000  0.000
  0.000  0.000  0.000  0.000  1.000
    occupations:
  1.000  0.000  0.000  0.000  0.000
  0.000  1.000  0.000  0.000  0.000
  0.000  0.000  1.000  0.000  0.000
  0.000  0.000  0.000  1.000  0.000
  0.000  0.000  0.000  0.000  1.000
   spin  2
    eigenvalues: 
  0.000  0.000  0.000  0.000  0.000
    eigenvectors:
  1.000  0.000  0.000  0.000  0.000
  0.000  1.000  0.000  0.000  0.000
  0.000  0.000  1.000  0.000  0.000
  0.000  0.000  0.000  1.000  0.000
  0.000  0.000  0.000  0.000  1.000
    occupations:
  0.000  0.000  0.000  0.000  0.000
  0.000  0.000  0.000  0.000  0.000
  0.000  0.000  0.000  0.000  0.000
  0.000  0.000  0.000  0.000  0.000
  0.000  0.000  0.000  0.000  0.000
atomic mag. moment =     5.000000
atom    7   Tr[ns(na)] (up, down, total) =   5.00000  0.00000  5.00000
   spin  1
    eigenvalues: 
  1.000  1.000  1.000  1.000  1.000
    eigenvectors:
  1.000  0.000  0.000  0.000  0.000
  0.000  1.000  0.000  0.000  0.000
  0.000  0.000  1.000  0.000  0.000
  0.000  0.000  0.000  1.000  0.000
  0.000  0.000  0.000  0.000  1.000
    occupations:
  1.000  0.000  0.000  0.000  0.000
  0.000  1.000  0.000  0.000  0.000
  0.000  0.000  1.000  0.000  0.000
  0.000  0.000  0.000  1.000  0.000
  0.000  0.000  0.000  0.000  1.000
   spin  2
    eigenvalues: 
  0.000  0.000  0.000  0.000  0.000
    eigenvectors:
  1.000  0.000  0.000  0.000  0.000
  0.000  1.000  0.000  0.000  0.000
  0.000  0.000  1.000  0.000  0.000
  0.000  0.000  0.000  1.000  0.000
  0.000  0.000  0.000  0.000  1.000
    occupations:
  0.000  0.000  0.000  0.000  0.000
  0.000  0.000  0.000  0.000  0.000
  0.000  0.000  0.000  0.000  0.000
  0.000  0.000  0.000  0.000  0.000
  0.000  0.000  0.000  0.000  0.000
atomic mag. moment =     5.000000
atom    8   Tr[ns(na)] (up, down, total) =   0.00000  5.00000  5.00000
   spin  1
    eigenvalues: 
  0.000  0.000  0.000  0.000  0.000
    eigenvectors:
  1.000  0.000  0.000  0.000  0.000
  0.000  1.000  0.000  0.000  0.000
  0.000  0.000  1.000  0.000  0.000
  0.000  0.000  0.000  1.000  0.000
  0.000  0.000  0.000  0.000  1.000
    occupations:
  0.000  0.000  0.000  0.000  0.000
  0.000  0.000  0.000  0.000  0.000
  0.000  0.000  0.000  0.000  0.000
  0.000  0.000  0.000  0.000  0.000
  0.000  0.000  0.000  0.000  0.000
   spin  2
    eigenvalues: 
  1.000  1.000  1.000  1.000  1.000
    eigenvectors:
  1.000  0.000  0.000  0.000  0.000
  0.000  1.000  0.000  0.000  0.000
  0.000  0.000  1.000  0.000  0.000
  0.000  0.000  0.000  1.000  0.000
  0.000  0.000  0.000  0.000  1.000
    occupations:
  1.000  0.000  0.000  0.000  0.000
  0.000  1.000  0.000  0.000  0.000
  0.000  0.000  1.000  0.000  0.000
  0.000  0.000  0.000  1.000  0.000
  0.000  0.000  0.000  0.000  1.000
atomic mag. moment =    -5.000000
N of occupied +U levels =   40.000000
 --- exit write_ns ---
 Atomic wfc used for LDA+U Projector are NOT orthogonalized
     Starting wfcs are  224 randomized atomic wfcs
     Checking if some PAW data can be deallocated... 

     total cpu time spent up to now is       28.8 secs

     Self-consistent Calculation

     iteration #  1     ecut=    45.00 Ry     beta= 0.10
     Davidson diagonalization with overlap
     ethr =  1.00E-02,  avg # of iterations =  4.6
 --- enter write_ns ---
 LDA+U parameters:
U(  1) =   3.1200   J(  1) =   0.7000   B(  1) =   0.0803
U(  2) =   3.1200   J(  2) =   0.7000   B(  2) =   0.0803
atom    1   Tr[ns(na)] (up, down, total) =   5.01479  0.27285  5.28764
   spin  1
    eigenvalues: 
  1.003  1.003  1.003  1.003  1.004
    eigenvectors:
  0.000  0.000  0.000  0.992  0.008
  0.000  0.897  0.103  0.000  0.000
  0.003  0.103  0.895  0.000  0.000
  0.000  0.000  0.000  0.008  0.992
  0.997  0.000  0.003  0.000  0.000
    occupations:
  1.003  0.000 -0.000  0.000  0.000
  0.000  1.003 -0.000  0.000 -0.000
 -0.000 -0.000  1.003  0.000  0.000
  0.000  0.000  0.000  1.004  0.000
  0.000 -0.000  0.000  0.000  1.003
   spin  2
    eigenvalues: 
  0.041  0.050  0.054  0.055  0.073
    eigenvectors:
  0.039  0.881  0.023  0.057  0.000
  0.000  0.062  0.000  0.938  0.000
  0.000  0.023  0.973  0.002  0.002
  0.961  0.034  0.002  0.003  0.000
  0.000  0.000  0.002  0.000  0.998
    occupations:
  0.050  0.001 -0.000 -0.002 -0.000
  0.001  0.054  0.000 -0.000 -0.000
 -0.000  0.000  0.054  0.000  0.001
 -0.002 -0.000  0.000  0.041 -0.000
 -0.000 -0.000  0.001 -0.000  0.073
atomic mag. moment =     4.741946
atom    2   Tr[ns(na)] (up, down, total) =   5.01487  0.27597  5.29083
   spin  1
    eigenvalues: 
  1.003  1.003  1.003  1.003  1.004
    eigenvectors:
  0.000  0.001  0.003  0.981  0.014
  0.001  0.034  0.963  0.002  0.000
  0.002  0.962  0.034  0.002  0.000
  0.000  0.000  0.000  0.014  0.986
  0.997  0.003  0.000  0.000  0.000
    occupations:
  1.003 -0.000 -0.000 -0.000  0.000
 -0.000  1.003  0.000 -0.000  0.000
 -0.000  0.000  1.003  0.000 -0.000
 -0.000 -0.000  0.000  1.004 -0.000
  0.000  0.000 -0.000 -0.000  1.003
   spin  2
    eigenvalues: 
  0.041  0.052  0.054  0.056  0.073
    eigenvectors:
  0.027  0.729  0.176  0.069  0.000
  0.000  0.045  0.625  0.323  0.007
  0.000  0.205  0.194  0.598  0.004
  0.973  0.021  0.005  0.001  0.000
  0.000  0.000  0.001  0.009  0.989
    occupations:
  0.053 -0.000  0.001  0.002  0.000
 -0.000  0.055  0.001 -0.000  0.001
  0.001  0.001  0.055  0.000  0.001
  0.002 -0.000  0.000  0.041 -0.000
  0.000  0.001  0.001 -0.000  0.072
atomic mag. moment =     4.738897
atom    3   Tr[ns(na)] (up, down, total) =   0.27746  5.01472  5.29218
   spin  1
    eigenvalues: 
  0.042  0.054  0.055  0.056  0.071
    eigenvectors:
  0.007  0.918  0.013  0.062  0.000
  0.000  0.000  0.850  0.143  0.007
  0.000  0.075  0.132  0.791  0.001
  0.993  0.007  0.000  0.000  0.000
  0.000  0.000  0.004  0.004  0.991
    occupations:
  0.054  0.000  0.001  0.001 -0.000
  0.000  0.055  0.000  0.000  0.001
  0.001  0.000  0.055 -0.000  0.001
  0.001  0.000 -0.000  0.042 -0.000
 -0.000  0.001  0.001 -0.000  0.071
   spin  2
    eigenvalues: 
  1.003  1.003  1.003  1.003  1.003
    eigenvectors:
  0.000  0.000  0.000  0.995  0.005
  0.001  0.105  0.894  0.000  0.000
  0.000  0.895  0.105  0.000  0.000
  0.000  0.000  0.000  0.005  0.995
  0.999  0.000  0.001  0.000  0.000
    occupations:
  1.003 -0.000 -0.000 -0.000  0.000
 -0.000  1.003  0.000  0.000  0.000
 -0.000  0.000  1.003  0.000 -0.000
 -0.000  0.000  0.000  1.003 -0.000
  0.000  0.000 -0.000 -0.000  1.003
atomic mag. moment =    -4.737256
atom    4   Tr[ns(na)] (up, down, total) =   5.01481  0.27419  5.28900
   spin  1
    eigenvalues: 
  1.003  1.003  1.003  1.003  1.004
    eigenvectors:
  0.000  0.001  0.000  0.992  0.006
  0.001  0.329  0.669  0.001  0.000
  0.001  0.667  0.331  0.001  0.000
  0.000  0.000  0.000  0.006  0.993
  0.997  0.002  0.000  0.000  0.000
    occupations:
  1.003  0.000 -0.000 -0.000  0.000
  0.000  1.003  0.000  0.000  0.000
 -0.000  0.000  1.003 -0.000 -0.000
 -0.000  0.000 -0.000  1.004 -0.000
  0.000  0.000 -0.000 -0.000  1.003
   spin  2
    eigenvalues: 
  0.040  0.052  0.055  0.056  0.071
    eigenvectors:
  0.006  0.943  0.000  0.049  0.001
  0.000  0.006  0.837  0.151  0.006
  0.000  0.042  0.160  0.796  0.002
  0.993  0.007  0.000  0.000  0.000
  0.000  0.002  0.003  0.004  0.992
    occupations:
  0.052  0.000  0.001  0.001 -0.001
  0.000  0.055  0.000  0.000  0.001
  0.001  0.000  0.055 -0.000  0.001
  0.001  0.000 -0.000  0.040 -0.000
 -0.001  0.001  0.001 -0.000  0.071
atomic mag. moment =     4.740618
atom    5   Tr[ns(na)] (up, down, total) =   0.27511  5.01490  5.29000
   spin  1
    eigenvalues: 
  0.041  0.053  0.055  0.056  0.071
    eigenvectors:
  0.022  0.925  0.005  0.047  0.001
  0.000  0.001  0.959  0.029  0.010
  0.000  0.052  0.026  0.921  0.001
  0.978  0.021  0.000  0.001  0.000
  0.000  0.001  0.010  0.002  0.988
    occupations:
  0.053 -0.000  0.001  0.002 -0.001
 -0.000  0.055  0.000 -0.000  0.002
  0.001  0.000  0.055  0.000  0.000
  0.002 -0.000  0.000  0.041  0.000
 -0.001  0.002  0.000  0.000  0.071
   spin  2
    eigenvalues: 
  1.003  1.003  1.003  1.003  1.004
    eigenvectors:
  0.000  0.000  0.002  0.989  0.009
  0.007  0.024  0.967  0.002  0.000
  0.002  0.975  0.024  0.000  0.000
  0.000  0.000  0.000  0.009  0.990
  0.992  0.001  0.008  0.000  0.000
    occupations:
  1.003  0.000 -0.000 -0.000  0.000
  0.000  1.003  0.000  0.000  0.000
 -0.000  0.000  1.003 -0.000  0.000
 -0.000  0.000 -0.000  1.004 -0.000
  0.000  0.000  0.000 -0.000  1.003
atomic mag. moment =    -4.739785
atom    6   Tr[ns(na)] (up, down, total) =   5.01501  0.27420  5.28920
   spin  1
    eigenvalues: 
  1.003  1.003  1.003  1.003  1.004
    eigenvectors:
  0.000  0.003  0.002  0.966  0.029
  0.007  0.087  0.904  0.000  0.001
  0.000  0.908  0.086  0.005  0.000
  0.000  0.001  0.000  0.028  0.970
  0.992  0.000  0.007  0.000  0.000
    occupations:
  1.003 -0.000 -0.000 -0.000 -0.000
 -0.000  1.003  0.000  0.000  0.000
 -0.000  0.000  1.003 -0.000  0.000
 -0.000  0.000 -0.000  1.004  0.000
 -0.000  0.000  0.000  0.000  1.003
   spin  2
    eigenvalues: 
  0.041  0.051  0.054  0.056  0.072
    eigenvectors:
  0.041  0.877  0.000  0.081  0.001
  0.000  0.023  0.736  0.238  0.003
  0.000  0.060  0.263  0.677  0.000
  0.959  0.040  0.000  0.002  0.000
  0.000  0.001  0.001  0.003  0.995
    occupations:
  0.051 -0.001  0.001  0.002 -0.001
 -0.001  0.054 -0.000 -0.000  0.001
  0.001 -0.000  0.055 -0.000 -0.000
  0.002 -0.000 -0.000  0.041 -0.000
 -0.001  0.001 -0.000 -0.000  0.072
atomic mag. moment =     4.740811
atom    7   Tr[ns(na)] (up, down, total) =   5.01481  0.27419  5.28900
   spin  1
    eigenvalues: 
  1.003  1.003  1.003  1.003  1.004
    eigenvectors:
  0.000  0.001  0.000  0.992  0.006
  0.001  0.329  0.669  0.001  0.000
  0.001  0.667  0.331  0.001  0.000
  0.000  0.000  0.000  0.006  0.993
  0.997  0.002  0.000  0.000  0.000
    occupations:
  1.003  0.000 -0.000 -0.000  0.000
  0.000  1.003  0.000  0.000  0.000
 -0.000  0.000  1.003 -0.000 -0.000
 -0.000  0.000 -0.000  1.004 -0.000
  0.000  0.000 -0.000 -0.000  1.003
   spin  2
    eigenvalues: 
  0.040  0.052  0.055  0.056  0.071
    eigenvectors:
  0.006  0.943  0.000  0.049  0.001
  0.000  0.006  0.837  0.151  0.006
  0.000  0.042  0.160  0.796  0.002
  0.993  0.007  0.000  0.000  0.000
  0.000  0.002  0.003  0.004  0.992
    occupations:
  0.052  0.000  0.001  0.001 -0.001
  0.000  0.055  0.000  0.000  0.001
  0.001  0.000  0.055 -0.000  0.001
  0.001  0.000 -0.000  0.040 -0.000
 -0.001  0.001  0.001 -0.000  0.071
atomic mag. moment =     4.740618
atom    8   Tr[ns(na)] (up, down, total) =   0.27746  5.01472  5.29218
   spin  1
    eigenvalues: 
  0.042  0.054  0.055  0.056  0.071
    eigenvectors:
  0.007  0.918  0.013  0.062  0.000
  0.000  0.000  0.850  0.143  0.007
  0.000  0.075  0.132  0.791  0.001
  0.993  0.007  0.000  0.000  0.000
  0.000  0.000  0.004  0.004  0.991
    occupations:
  0.054  0.000  0.001  0.001 -0.000
  0.000  0.055  0.000  0.000  0.001
  0.001  0.000  0.055 -0.000  0.001
  0.001  0.000 -0.000  0.042 -0.000
 -0.000  0.001  0.001 -0.000  0.071
   spin  2
    eigenvalues: 
  1.003  1.003  1.003  1.003  1.003
    eigenvectors:
  0.000  0.000  0.000  0.995  0.005
  0.001  0.105  0.894  0.000  0.000
  0.000  0.895  0.105  0.000  0.000
  0.000  0.000  0.000  0.005  0.995
  0.999  0.000  0.001  0.000  0.000
    occupations:
  1.003 -0.000 -0.000 -0.000  0.000
 -0.000  1.003  0.000  0.000  0.000
 -0.000  0.000  1.003  0.000 -0.000
 -0.000  0.000  0.000  1.003 -0.000
  0.000  0.000 -0.000 -0.000  1.003
atomic mag. moment =    -4.737256
N of occupied +U levels =   42.320040
 --- exit write_ns ---

     total cpu time spent up to now is      115.0 secs

     total energy              =  -14679.20499755 Ry
     Harris-Foulkes estimate   =  -14669.84905978 Ry
     estimated scf accuracy    <      21.29004880 Ry

     total magnetization       =    10.50 Bohr mag/cell
     absolute magnetization    =    43.52 Bohr mag/cell

     iteration #  2     ecut=    45.00 Ry     beta= 0.10
     Davidson diagonalization with overlap
     ethr =  7.19E-03,  avg # of iterations =  1.0

     total cpu time spent up to now is      159.2 secs

     total energy              =  -14692.13618399 Ry
     Harris-Foulkes estimate   =  -14679.30911659 Ry
     estimated scf accuracy    <      17.16792755 Ry

     total magnetization       =    10.35 Bohr mag/cell
     absolute magnetization    =    43.09 Bohr mag/cell

     iteration #  3     ecut=    45.00 Ry     beta= 0.10
     Davidson diagonalization with overlap
     ethr =  5.80E-03,  avg # of iterations =  2.2

     total cpu time spent up to now is      212.6 secs

     total energy              =  -14693.80358144 Ry
     Harris-Foulkes estimate   =  -14693.73881353 Ry
     estimated scf accuracy    <       4.08583913 Ry

     total magnetization       =     9.32 Bohr mag/cell
     absolute magnetization    =    39.23 Bohr mag/cell

     iteration #  4     ecut=    45.00 Ry     beta= 0.10
     Davidson diagonalization with overlap
     ethr =  1.38E-03,  avg # of iterations =  5.5

     total cpu time spent up to now is      291.2 secs

     total energy              =  -14693.46628282 Ry
     Harris-Foulkes estimate   =  -14693.84487832 Ry
     estimated scf accuracy    <       4.37604110 Ry

     total magnetization       =     9.27 Bohr mag/cell
     absolute magnetization    =    39.01 Bohr mag/cell

     iteration #  5     ecut=    45.00 Ry     beta= 0.10
     Davidson diagonalization with overlap
     ethr =  1.38E-03,  avg # of iterations =  4.7

     total cpu time spent up to now is      370.9 secs

     total energy              =  -14693.84928452 Ry
     Harris-Foulkes estimate   =  -14693.82684256 Ry
     estimated scf accuracy    <       0.29935985 Ry

     total magnetization       =     8.92 Bohr mag/cell
     absolute magnetization    =    38.19 Bohr mag/cell

     iteration #  6     ecut=    45.00 Ry     beta= 0.10
     Davidson diagonalization with overlap
     ethr =  1.01E-04,  avg # of iterations =  3.8

     total cpu time spent up to now is      466.3 secs

     total energy              =  -14693.97738374 Ry
     Harris-Foulkes estimate   =  -14693.94021160 Ry
     estimated scf accuracy    <       0.28818586 Ry

     total magnetization       =     8.46 Bohr mag/cell
     absolute magnetization    =    37.06 Bohr mag/cell

     iteration #  7     ecut=    45.00 Ry     beta= 0.10
     Davidson diagonalization with overlap
     ethr =  9.74E-05,  avg # of iterations =  1.4

     total cpu time spent up to now is      513.1 secs

     total energy              =  -14693.94645112 Ry
     Harris-Foulkes estimate   =  -14693.99966442 Ry
     estimated scf accuracy    <       0.84764040 Ry

     total magnetization       =     8.23 Bohr mag/cell
     absolute magnetization    =    36.90 Bohr mag/cell

     iteration #  8     ecut=    45.00 Ry     beta= 0.10
     Davidson diagonalization with overlap
     ethr =  9.74E-05,  avg # of iterations =  1.0

     total cpu time spent up to now is      557.4 secs

     total energy              =  -14693.90983410 Ry
     Harris-Foulkes estimate   =  -14693.95763120 Ry
     estimated scf accuracy    <       0.40624989 Ry

     total magnetization       =     8.40 Bohr mag/cell
     absolute magnetization    =    37.00 Bohr mag/cell

     iteration #  9     ecut=    45.00 Ry     beta= 0.10
     Davidson diagonalization with overlap
     ethr =  9.74E-05,  avg # of iterations =  2.0

     total cpu time spent up to now is      609.0 secs

     total energy              =  -14693.92877799 Ry
     Harris-Foulkes estimate   =  -14693.93154487 Ry
     estimated scf accuracy    <       0.06573569 Ry

     total magnetization       =     8.47 Bohr mag/cell
     absolute magnetization    =    37.02 Bohr mag/cell

     iteration # 10     ecut=    45.00 Ry     beta= 0.10
     Davidson diagonalization with overlap
     ethr =  2.22E-05,  avg # of iterations =  1.2

     total cpu time spent up to now is      654.2 secs

     total energy              =  -14693.93097437 Ry
     Harris-Foulkes estimate   =  -14693.93135091 Ry
     estimated scf accuracy    <       0.01952260 Ry

     total magnetization       =     8.46 Bohr mag/cell
     absolute magnetization    =    36.96 Bohr mag/cell

     iteration # 11     ecut=    45.00 Ry     beta= 0.10
     Davidson diagonalization with overlap
     ethr =  6.60E-06,  avg # of iterations =  4.1

     total cpu time spent up to now is      725.0 secs

     total energy              =  -14693.93383792 Ry
     Harris-Foulkes estimate   =  -14693.93274896 Ry
     estimated scf accuracy    <       0.00345677 Ry

     total magnetization       =     8.45 Bohr mag/cell
     absolute magnetization    =    36.93 Bohr mag/cell

     iteration # 12     ecut=    45.00 Ry     beta= 0.10
     Davidson diagonalization with overlap
     ethr =  1.17E-06,  avg # of iterations =  3.0

     total cpu time spent up to now is      782.8 secs

     total energy              =  -14693.93495068 Ry
     Harris-Foulkes estimate   =  -14693.93407529 Ry
     estimated scf accuracy    <       0.00135589 Ry

     total magnetization       =     8.43 Bohr mag/cell
     absolute magnetization    =    36.88 Bohr mag/cell

     iteration # 13     ecut=    45.00 Ry     beta= 0.10
     Davidson diagonalization with overlap
     ethr =  4.58E-07,  avg # of iterations =  2.3

     total cpu time spent up to now is      835.5 secs

     total energy              =  -14693.93515702 Ry
     Harris-Foulkes estimate   =  -14693.93508186 Ry
     estimated scf accuracy    <       0.00091228 Ry

     total magnetization       =     8.40 Bohr mag/cell
     absolute magnetization    =    36.82 Bohr mag/cell

     iteration # 14     ecut=    45.00 Ry     beta= 0.10
     Davidson diagonalization with overlap
     ethr =  3.08E-07,  avg # of iterations =  2.2

     total cpu time spent up to now is      892.5 secs

     total energy              =  -14693.93536987 Ry
     Harris-Foulkes estimate   =  -14693.93531036 Ry
     estimated scf accuracy    <       0.00011389 Ry

     total magnetization       =     8.38 Bohr mag/cell
     absolute magnetization    =    36.81 Bohr mag/cell

     iteration # 15     ecut=    45.00 Ry     beta= 0.10
     Davidson diagonalization with overlap
     ethr =  3.85E-08,  avg # of iterations =  2.8

     total cpu time spent up to now is      951.1 secs

     total energy              =  -14693.93540164 Ry
     Harris-Foulkes estimate   =  -14693.93538407 Ry
     estimated scf accuracy    <       0.00005198 Ry

     total magnetization       =     8.37 Bohr mag/cell
     absolute magnetization    =    36.79 Bohr mag/cell

     iteration # 16     ecut=    45.00 Ry     beta= 0.10
     Davidson diagonalization with overlap
     ethr =  1.76E-08,  avg # of iterations =  2.1

     total cpu time spent up to now is     1004.2 secs

     total energy              =  -14693.93542260 Ry
     Harris-Foulkes estimate   =  -14693.93540752 Ry
     estimated scf accuracy    <       0.00001960 Ry

     total magnetization       =     8.37 Bohr mag/cell
     absolute magnetization    =    36.79 Bohr mag/cell

     iteration # 17     ecut=    45.00 Ry     beta= 0.10
     Davidson diagonalization with overlap
     ethr =  6.62E-09,  avg # of iterations =  2.8

     total cpu time spent up to now is     1068.7 secs

     total energy              =  -14693.93543160 Ry
     Harris-Foulkes estimate   =  -14693.93542592 Ry
     estimated scf accuracy    <       0.00000853 Ry

     total magnetization       =     8.36 Bohr mag/cell
     absolute magnetization    =    36.78 Bohr mag/cell

     iteration # 18     ecut=    45.00 Ry     beta= 0.10
     Davidson diagonalization with overlap
     ethr =  2.88E-09,  avg # of iterations =  1.3

     total cpu time spent up to now is     1115.0 secs

     total energy              =  -14693.93543944 Ry
     Harris-Foulkes estimate   =  -14693.93543236 Ry
     estimated scf accuracy    <       0.00000612 Ry

     total magnetization       =     8.36 Bohr mag/cell
     absolute magnetization    =    36.78 Bohr mag/cell

     iteration # 19     ecut=    45.00 Ry     beta= 0.10
     Davidson diagonalization with overlap
     ethr =  2.07E-09,  avg # of iterations =  2.2

     total cpu time spent up to now is     1168.3 secs

     total energy              =  -14693.93544429 Ry
     Harris-Foulkes estimate   =  -14693.93544090 Ry
     estimated scf accuracy    <       0.00000123 Ry

     total magnetization       =     8.35 Bohr mag/cell
     absolute magnetization    =    36.78 Bohr mag/cell

     iteration # 20     ecut=    45.00 Ry     beta= 0.10
     Davidson diagonalization with overlap
     ethr =  4.14E-10,  avg # of iterations =  2.6
 
     Magnetic moment per site:
     atom:    1    charge:   13.5451    magn:    4.1916    constr:    0.0000
     atom:    2    charge:   13.5414    magn:    4.2234    constr:    0.0000
     atom:    3    charge:   13.5320    magn:   -4.2796    constr:    0.0000
     atom:    4    charge:   13.5434    magn:    4.2063    constr:    0.0000
     atom:    5    charge:   13.5358    magn:   -4.2488    constr:    0.0000
     atom:    6    charge:   13.5405    magn:    4.2135    constr:    0.0000
     atom:    7    charge:   13.5434    magn:    4.2063    constr:    0.0000
     atom:    8    charge:   13.5320    magn:   -4.2796    constr:    0.0000
     atom:    9    charge:    9.0918    magn:   -0.0186    constr:    0.0000
     atom:   10    charge:    9.0905    magn:    0.0173    constr:    0.0000
     atom:   11    charge:    9.0931    magn:    0.0022    constr:    0.0000
     atom:   12    charge:    9.0909    magn:   -0.0142    constr:    0.0000
     atom:   13    charge:    9.0916    magn:   -0.0032    constr:    0.0000
     atom:   14    charge:    9.0905    magn:    0.0151    constr:    0.0000
     atom:   15    charge:    9.0935    magn:    0.0250    constr:    0.0000
     atom:   16    charge:    9.0919    magn:    0.0067    constr:    0.0000
     atom:   17    charge:    9.0905    magn:    0.0151    constr:    0.0000
     atom:   18    charge:    9.0916    magn:   -0.0032    constr:    0.0000
     atom:   19    charge:    9.0909    magn:   -0.0142    constr:    0.0000
     atom:   20    charge:    9.0931    magn:    0.0022    constr:    0.0000
     atom:   21    charge:    9.0918    magn:   -0.0186    constr:    0.0000
     atom:   22    charge:    9.0905    magn:    0.0173    constr:    0.0000
     atom:   23    charge:    9.0935    magn:    0.0250    constr:    0.0000
     atom:   24    charge:    9.0919    magn:    0.0067    constr:    0.0000

     total cpu time spent up to now is     1224.1 secs

     End of self-consistent calculation
 --- enter write_ns ---
 LDA+U parameters:
U(  1) =   3.1200   J(  1) =   0.7000   B(  1) =   0.0803
U(  2) =   3.1200   J(  2) =   0.7000   B(  2) =   0.0803
atom    1   Tr[ns(na)] (up, down, total) =   4.96341  0.77220  5.73561
   spin  1
    eigenvalues: 
  0.981  0.992  0.992  0.997  1.001
    eigenvectors:
  0.000  0.010  0.040  0.939  0.010
  0.003  0.604  0.391  0.003  0.000
  0.001  0.383  0.568  0.048  0.000
  0.000  0.000  0.001  0.009  0.989
  0.997  0.003  0.000  0.000  0.000
    occupations:
  0.996  0.000  0.001  0.001  0.000
  0.000  0.992  0.000 -0.000 -0.001
  0.001  0.000  0.992 -0.000  0.000
  0.001 -0.000 -0.000  1.001 -0.000
  0.000 -0.001  0.000 -0.000  0.981
   spin  2
    eigenvalues: 
  0.069  0.136  0.141  0.155  0.271
    eigenvectors:
  0.000  0.366  0.554  0.075  0.004
  0.001  0.619  0.353  0.009  0.019
  0.003  0.009  0.074  0.914  0.001
  0.997  0.001  0.000  0.002  0.000
  0.000  0.004  0.019  0.000  0.977
    occupations:
  0.141  0.004  0.004  0.001 -0.008
  0.004  0.140  0.000 -0.001 -0.018
  0.004  0.000  0.154 -0.004  0.003
  0.001 -0.001 -0.004  0.070 -0.001
 -0.008 -0.018  0.003 -0.001  0.268
atomic mag. moment =     4.191212
atom    2   Tr[ns(na)] (up, down, total) =   4.96839  0.74595  5.71434
   spin  1
    eigenvalues: 
  0.984  0.992  0.994  0.997  1.002
    eigenvectors:
  0.001  0.018  0.026  0.944  0.012
  0.002  0.444  0.553  0.001  0.000
  0.005  0.532  0.422  0.039  0.003
  0.000  0.001  0.000  0.014  0.985
  0.992  0.006  0.000  0.002  0.000
    occupations:
  0.997 -0.000 -0.001 -0.001 -0.000
 -0.000  0.993 -0.001  0.000  0.000
 -0.001 -0.001  0.993  0.000  0.001
 -0.001  0.000  0.000  1.002 -0.000
 -0.000  0.000  0.001 -0.000  0.984
   spin  2
    eigenvalues: 
  0.069  0.121  0.143  0.152  0.260
    eigenvectors:
  0.000  0.960  0.000  0.038  0.002
  0.001  0.032  0.042  0.892  0.033
  0.000  0.002  0.953  0.043  0.001
  0.999  0.000  0.000  0.001  0.000
  0.000  0.005  0.005  0.026  0.964
    occupations:
  0.123 -0.005 -0.002  0.000  0.007
 -0.005  0.154  0.001  0.003  0.020
 -0.002  0.001  0.144  0.001 -0.004
  0.000  0.003  0.001  0.069  0.000
  0.007  0.020 -0.004  0.000  0.256
atomic mag. moment =     4.222436
atom    3   Tr[ns(na)] (up, down, total) =   0.70201  4.97378  5.67579
   spin  1
    eigenvalues: 
  0.071  0.121  0.142  0.144  0.224
    eigenvectors:
  0.000  0.997  0.001  0.001  0.000
  0.000  0.002  0.841  0.098  0.059
  0.002  0.000  0.122  0.860  0.016
  0.998  0.000  0.001  0.001  0.000
  0.000  0.000  0.035  0.040  0.925
    occupations:
  0.121 -0.001 -0.001 -0.000 -0.002
 -0.001  0.147  0.003 -0.001  0.019
 -0.001  0.003  0.145  0.003  0.010
 -0.000 -0.001  0.003  0.071  0.000
 -0.002  0.019  0.010  0.000  0.218
   spin  2
    eigenvalues: 
  0.988  0.993  0.994  0.998  1.002
    eigenvectors:
  0.000  0.001  0.024  0.970  0.005
  0.004  0.557  0.433  0.006  0.000
  0.007  0.440  0.533  0.019  0.002
  0.000  0.001  0.000  0.005  0.993
  0.989  0.000  0.010  0.001  0.000
    occupations:
  0.998 -0.000 -0.001 -0.000  0.000
 -0.000  0.993  0.000 -0.000 -0.000
 -0.001  0.000  0.993  0.000 -0.000
 -0.000 -0.000  0.000  1.002  0.000
  0.000 -0.000 -0.000  0.000  0.988
atomic mag. moment =    -4.271767
atom    4   Tr[ns(na)] (up, down, total) =   4.96620  0.76037  5.72657
   spin  1
    eigenvalues: 
  0.983  0.992  0.992  0.997  1.002
    eigenvectors:
  0.000  0.009  0.018  0.971  0.003
  0.000  0.135  0.856  0.008  0.000
  0.000  0.853  0.126  0.017  0.003
  0.000  0.003  0.000  0.004  0.993
  0.999  0.000  0.001  0.000  0.000
    occupations:
  0.997 -0.000 -0.001 -0.000  0.000
 -0.000  0.992  0.000 -0.000  0.000
 -0.001  0.000  0.992  0.001  0.000
 -0.000 -0.000  0.001  1.002 -0.000
  0.000  0.000  0.000 -0.000  0.983
   spin  2
    eigenvalues: 
  0.068  0.124  0.149  0.152  0.267
    eigenvectors:
  0.000  0.988  0.007  0.005  0.000
  0.000  0.002  0.052  0.921  0.024
  0.000  0.010  0.939  0.047  0.004
  0.999  0.000  0.001  0.000  0.000
  0.000  0.000  0.001  0.027  0.972
    occupations:
  0.125 -0.001 -0.003  0.000 -0.000
 -0.001  0.155  0.002 -0.002  0.018
 -0.003  0.002  0.149  0.002  0.007
  0.000 -0.002  0.002  0.068 -0.000
 -0.000  0.018  0.007 -0.000  0.264
atomic mag. moment =     4.205826
atom    5   Tr[ns(na)] (up, down, total) =   0.72600  4.96992  5.69592
   spin  1
    eigenvalues: 
  0.070  0.121  0.143  0.145  0.247
    eigenvectors:
  0.000  0.945  0.052  0.003  0.000
  0.000  0.011  0.045  0.881  0.063
  0.002  0.044  0.895  0.059  0.000
  0.998  0.000  0.001  0.000  0.000
  0.000  0.000  0.007  0.057  0.936
    occupations:
  0.123  0.003  0.004 -0.000  0.001
  0.003  0.151 -0.000 -0.001  0.025
  0.004 -0.000  0.142  0.003  0.002
 -0.000 -0.001  0.003  0.070  0.001
  0.001  0.025  0.002  0.001  0.240
   spin  2
    eigenvalues: 
  0.986  0.992  0.993  0.997  1.002
    eigenvectors:
  0.000  0.023  0.040  0.920  0.016
  0.001  0.323  0.669  0.007  0.000
  0.000  0.653  0.290  0.055  0.002
  0.000  0.000  0.000  0.018  0.982
  0.999  0.000  0.000  0.000  0.000
    occupations:
  0.997 -0.000 -0.001 -0.001 -0.000
 -0.000  0.993  0.000  0.000 -0.000
 -0.001  0.000  0.993  0.000  0.000
 -0.001  0.000  0.000  1.002 -0.000
 -0.000 -0.000  0.000 -0.000  0.986
atomic mag. moment =    -4.243918
atom    6   Tr[ns(na)] (up, down, total) =   4.96598  0.75140  5.71738
   spin  1
    eigenvalues: 
  0.983  0.992  0.993  0.997  1.002
    eigenvectors:
  0.002  0.001  0.051  0.935  0.012
  0.006  0.440  0.519  0.035  0.000
  0.002  0.552  0.427  0.018  0.002
  0.000  0.001  0.003  0.010  0.986
  0.991  0.006  0.000  0.003  0.000
    occupations:
  0.997  0.001  0.000 -0.001  0.001
  0.001  0.993  0.001  0.000  0.001
  0.000  0.001  0.992  0.001 -0.000
 -0.001  0.000  0.001  1.002  0.000
  0.001  0.001 -0.000  0.000  0.983
   spin  2
    eigenvalues: 
  0.069  0.128  0.144  0.155  0.255
    eigenvectors:
  0.000  0.926  0.005  0.048  0.022
  0.000  0.044  0.000  0.949  0.006
  0.001  0.003  0.988  0.000  0.008
  0.998  0.000  0.001  0.000  0.000
  0.000  0.027  0.006  0.002  0.964
    occupations:
  0.132  0.004  0.001 -0.000 -0.019
  0.004  0.155 -0.001  0.002  0.009
  0.001 -0.001  0.144  0.002 -0.010
 -0.000  0.002  0.002  0.070  0.001
 -0.019  0.009 -0.010  0.001  0.251
atomic mag. moment =     4.214586
atom    7   Tr[ns(na)] (up, down, total) =   4.96620  0.76037  5.72657
   spin  1
    eigenvalues: 
  0.983  0.992  0.992  0.997  1.002
    eigenvectors:
  0.000  0.009  0.018  0.971  0.003
  0.000  0.135  0.856  0.008  0.000
  0.000  0.853  0.126  0.017  0.003
  0.000  0.003  0.000  0.004  0.993
  0.999  0.000  0.001  0.000  0.000
    occupations:
  0.997 -0.000 -0.001 -0.000  0.000
 -0.000  0.992  0.000 -0.000  0.000
 -0.001  0.000  0.992  0.001  0.000
 -0.000 -0.000  0.001  1.002 -0.000
  0.000  0.000  0.000 -0.000  0.983
   spin  2
    eigenvalues: 
  0.068  0.124  0.149  0.152  0.267
    eigenvectors:
  0.000  0.988  0.007  0.005  0.000
  0.000  0.002  0.052  0.921  0.024
  0.000  0.010  0.939  0.047  0.004
  0.999  0.000  0.001  0.000  0.000
  0.000  0.000  0.001  0.027  0.972
    occupations:
  0.125 -0.001 -0.003  0.000 -0.000
 -0.001  0.155  0.002 -0.002  0.018
 -0.003  0.002  0.149  0.002  0.007
  0.000 -0.002  0.002  0.068 -0.000
 -0.000  0.018  0.007 -0.000  0.264
atomic mag. moment =     4.205826
atom    8   Tr[ns(na)] (up, down, total) =   0.70201  4.97378  5.67579
   spin  1
    eigenvalues: 
  0.071  0.121  0.142  0.144  0.224
    eigenvectors:
  0.000  0.997  0.001  0.001  0.000
  0.000  0.002  0.841  0.098  0.059
  0.002  0.000  0.122  0.860  0.016
  0.998  0.000  0.001  0.001  0.000
  0.000  0.000  0.035  0.040  0.925
    occupations:
  0.121 -0.001 -0.001 -0.000 -0.002
 -0.001  0.147  0.003 -0.001  0.019
 -0.001  0.003  0.145  0.003  0.010
 -0.000 -0.001  0.003  0.071  0.000
 -0.002  0.019  0.010  0.000  0.218
   spin  2
    eigenvalues: 
  0.988  0.993  0.994  0.998  1.002
    eigenvectors:
  0.000  0.001  0.024  0.970  0.005
  0.004  0.557  0.433  0.006  0.000
  0.007  0.440  0.533  0.019  0.002
  0.000  0.001  0.000  0.005  0.993
  0.989  0.000  0.010  0.001  0.000
    occupations:
  0.998 -0.000 -0.001 -0.000  0.000
 -0.000  0.993  0.000 -0.000 -0.000
 -0.001  0.000  0.993  0.000 -0.000
 -0.000 -0.000  0.000  1.002  0.000
  0.000 -0.000 -0.000  0.000  0.988
atomic mag. moment =    -4.271767
N of occupied +U levels =   45.667970
 --- exit write_ns ---

 ------ SPIN UP ------------


          k = 0.0000 0.0000 0.0000 ( 13629 PWs)   bands (ev):

   -66.4150 -66.4017 -66.3679 -66.3672 -66.3449 -61.8914 -61.8907 -61.8904
   -35.1886 -35.1873 -35.1627 -35.1553 -35.1553 -35.1312 -35.1233 -35.1169
   -35.1102 -35.0898 -35.0896 -35.0845 -35.0814 -35.0804 -35.0505 -30.7241
   -30.7203 -30.7202 -30.7187 -30.7172 -30.7167 -30.7150 -30.7131 -30.7055
     5.9492   7.5516   7.6309   8.0860   8.1503   8.3248   8.4506   8.4767
     8.7058   8.7067   9.0376   9.1640   9.3516   9.3888   9.4232   9.4316
     9.4491   9.4672   9.4954   9.5597   9.5689   9.6042   9.6281   9.6427
     9.6667   9.6789   9.7051   9.7202   9.8481   9.8756   9.9417   9.9449
     9.9473   9.9557   9.9935  10.0201  10.0465  10.0900  10.1378  10.2349
    10.2619  10.2639  10.2688  10.3084  10.3428  10.3617  10.3648  10.4490
    10.4776  10.4980  10.5165  10.5240  10.5717  10.6194  10.6484  10.6972
    10.7972  10.8146  10.8564  10.9195  11.0597  11.0666  11.0928  11.1338
    11.1517  11.1707  11.2598  11.3316  11.3344  11.3956  11.4325  11.6155
    11.6941  11.8060  11.8178  11.8236  11.8244  11.8358  11.8605  11.9220
    11.9290  11.9781  12.0934  12.1358  12.2335  12.2469  12.2497  12.2700
    12.2721  12.2739  12.3163  12.3584  12.3806  12.4431  12.4682  12.5145
    12.5234  12.5438  12.5521  12.5726  12.6859  12.6958  12.6976  12.7267
    12.8675  12.9286  12.9308  13.0065  13.0198  13.2432  13.2682  13.2709
    13.2710  13.3610  14.1224  15.0189  15.0587  15.0919  15.2095  15.7270
    16.2358  16.3757  16.4856  16.6878  16.8661  17.0178  17.0819  17.0895
    17.3129  17.4546  17.4681  17.5343  17.6637  17.8345  17.9579  18.1689
    18.4892  18.5636  19.1000  19.1387  19.1469  19.3223  19.4028  19.4550
    19.5598  19.6649

          k = 0.0000 0.0000-0.5441 ( 13704 PWs)   bands (ev):

   -66.4150 -66.4017 -66.3680 -66.3672 -66.3449 -61.8915 -61.8908 -61.8904
   -35.1886 -35.1873 -35.1627 -35.1553 -35.1553 -35.1312 -35.1234 -35.1169
   -35.1102 -35.0898 -35.0896 -35.0846 -35.0814 -35.0804 -35.0505 -30.7241
   -30.7203 -30.7203 -30.7187 -30.7172 -30.7167 -30.7150 -30.7131 -30.7055
     6.5397   7.5912   8.0904   8.1412   8.4243   8.4597   8.7031   8.7442
     8.7533   8.8278   8.8788   8.8932   8.9796   9.0309   9.1016   9.1184
     9.1477   9.1775   9.2291   9.4129   9.5618   9.6249   9.6345   9.6395
     9.6629   9.6669   9.6925   9.7103   9.7271   9.7498   9.7643   9.7686
     9.7881   9.8353   9.8971   9.9575   9.9660   9.9979  10.0432  10.0736
    10.2088  10.2570  10.3160  10.3440  10.3502  10.4442  10.4680  10.5053
    10.5193  10.5662  10.5930  10.5984  10.6058  10.6153  10.7845  10.8136
    10.8792  10.9222  10.9761  11.0187  11.1453  11.1773  11.2645  11.3094
    11.3182  11.4227  11.5181  11.5652  11.5873  11.6212  11.6607  11.6945
    11.7290  11.8084  11.8406  11.8466  11.8911  11.8980  11.9223  11.9429
    11.9437  11.9533  12.0219  12.0945  12.0991  12.1584  12.1727  12.2073
    12.2473  12.2671  12.2770  12.3173  12.3404  12.3560  12.3616  12.4136
    12.4841  12.5287  12.6291  12.6448  12.6902  12.7464  12.7631  12.8130
    12.8530  12.9295  12.9572  13.0329  13.0611  13.1743  13.2047  13.4704
    13.5018  13.9032  13.9974  14.0571  14.1215  14.4567  15.1508  15.2237
    15.7108  15.7467  15.7745  16.6457  16.8698  16.9831  17.0337  17.1767
    17.2797  17.3644  17.4327  17.5843  17.6026  17.6601  17.7133  17.8635
    17.9409  18.2126  18.4127  18.6363  19.0740  19.1326  19.1854  19.3152
    19.3413  19.5902

          k = 0.0000 0.0000 1.0883 ( 13706 PWs)   bands (ev):

   -66.4150 -66.4017 -66.3680 -66.3672 -66.3449 -61.8915 -61.8908 -61.8904
   -35.1886 -35.1873 -35.1627 -35.1553 -35.1553 -35.1313 -35.1234 -35.1169
   -35.1102 -35.0898 -35.0896 -35.0846 -35.0814 -35.0804 -35.0505 -30.7241
   -30.7204 -30.7204 -30.7187 -30.7172 -30.7167 -30.7149 -30.7130 -30.7055
     7.7895   8.0748   8.1464   8.3247   8.3625   8.4411   8.5384   8.6883
     8.7057   8.7071   8.7342   8.8457   8.8776   8.9159   9.0169   9.0950
     9.1347   9.1864   9.2400   9.4278   9.4446   9.4673   9.5091   9.5680
     9.6069   9.6338   9.6632   9.6713   9.7166   9.7646   9.7681   9.8228
     9.8340   9.9154   9.9471   9.9545   9.9582  10.0265  10.0648  10.0727
    10.1093  10.2257  10.2484  10.2626  10.2675  10.2860  10.2966  10.3057
    10.3385  10.3765  10.3791  10.4181  10.5137  10.5811  10.6144  10.6218
    10.6990  10.8578  10.9051  10.9254  10.9667  11.0316  11.1607  11.3163
    11.3371  11.4290  11.4757  11.4841  11.5494  11.6087  11.6243  11.6811
    11.7552  11.8198  11.8228  11.8256  11.8740  11.9107  11.9914  12.0704
    12.0760  12.1529  12.1768  12.2258  12.2649  12.2701  12.3440  12.3578
    12.3647  12.4351  12.4378  12.4683  12.5158  12.6149  12.6794  12.6966
    12.6989  12.7164  12.7286  12.7442  12.7621  12.8629  12.9906  13.0846
    13.1107  13.1180  13.1494  13.2689  13.2716  13.2726  13.2836  13.2957
    13.3679  13.3864  13.4090  13.6286  13.6792  14.1244  15.0392  15.0931
    15.1578  15.2820  15.8145  16.3745  16.7894  16.8689  17.0296  17.1107
    17.2351  17.2809  17.3935  17.4585  17.4912  17.5992  17.6878  17.8936
    17.9001  18.1677  18.2042  18.2210  18.4654  18.9807  19.1697  19.1902
    19.2263  19.3851

          k =-0.1768-0.1768-0.1360 ( 13673 PWs)   bands (ev):

   -66.4150 -66.4017 -66.3679 -66.3672 -66.3449 -61.8913 -61.8909 -61.8903
   -35.1886 -35.1873 -35.1627 -35.1553 -35.1553 -35.1312 -35.1233 -35.1169
   -35.1103 -35.0898 -35.0895 -35.0846 -35.0812 -35.0805 -35.0505 -30.7241
   -30.7203 -30.7202 -30.7187 -30.7172 -30.7167 -30.7150 -30.7131 -30.7055
     6.1112   7.2845   7.6940   7.7698   8.3824   8.4532   8.5297   8.6440
     8.6506   8.8016   9.1257   9.1831   9.2321   9.3081   9.3294   9.3385
     9.3541   9.4604   9.4668   9.4954   9.5030   9.5418   9.5646   9.5985
     9.6231   9.6461   9.6885   9.6958   9.8867   9.8921   9.9229   9.9772
     9.9977  10.0198  10.0472  10.0793  10.1061  10.1143  10.1652  10.1999
    10.2410  10.2672  10.3296  10.3380  10.3862  10.4019  10.4490  10.4729
    10.5153  10.5718  10.5762  10.5871  10.6294  10.6646  10.6968  10.7165
    10.7943  10.8991  10.9328  10.9672  10.9902  11.0143  11.0568  11.0796
    11.1098  11.1683  11.2653  11.3041  11.3404  11.3950  11.4335  11.5727
    11.6522  11.6832  11.6917  11.7055  11.7493  11.7882  11.8421  11.8718
    11.8924  11.9169  11.9969  12.0114  12.0339  12.0957  12.1479  12.1635
    12.2229  12.2281  12.2659  12.3063  12.3230  12.3363  12.3646  12.3828
    12.5203  12.5796  12.5867  12.6064  12.6305  12.7442  12.7819  12.8111
    12.8506  12.8875  12.9330  12.9758  13.0329  13.0758  13.1800  13.4331
    14.1265  14.2547  14.7192  14.9851  15.2208  15.4598  15.5880  15.6096
    16.0529  16.2154  16.4564  16.4811  16.7554  16.8948  17.0621  17.1614
    17.2929  17.3475  17.4497  17.5123  17.6828  17.7650  17.9264  18.0608
    18.1301  18.3248  18.7170  18.7619  18.8605  18.9047  19.0071  19.1240
    19.1517  19.8637

          k =-0.1768-0.1768-0.6802 ( 13666 PWs)   bands (ev):

   -66.4150 -66.4017 -66.3679 -66.3672 -66.3449 -61.8914 -61.8909 -61.8903
   -35.1886 -35.1873 -35.1627 -35.1553 -35.1553 -35.1312 -35.1234 -35.1169
   -35.1103 -35.0898 -35.0895 -35.0846 -35.0812 -35.0805 -35.0505 -30.7241
   -30.7203 -30.7203 -30.7188 -30.7172 -30.7167 -30.7150 -30.7130 -30.7055
     6.9565   7.0176   8.3063   8.3419   8.3838   8.4175   8.5915   8.7470
     8.7841   8.8280   8.9057   8.9251   8.9623   8.9927   9.0966   9.1344
     9.1782   9.3620   9.3670   9.4030   9.4595   9.4875   9.5338   9.5997
     9.6044   9.6213   9.6568   9.6807   9.6942   9.7199   9.7667   9.8024
     9.8165   9.8404   9.9262   9.9503   9.9636   9.9681  10.0111  10.1585
    10.3153  10.3383  10.3676  10.3868  10.4087  10.4227  10.4833  10.5050
    10.5331  10.5663  10.6007  10.6533  10.6793  10.7417  10.7478  10.8386
    10.8683  10.9231  10.9600  11.0509  11.0736  11.1174  11.1613  11.1813
    11.2605  11.3135  11.3378  11.4439  11.4456  11.5143  11.5524  11.6280
    11.6522  11.7139  11.7186  11.7485  11.7710  11.8174  11.8427  11.9153
    11.9475  11.9834  12.0038  12.0483  12.0584  12.1145  12.1564  12.1605
    12.2279  12.2895  12.3016  12.3169  12.3391  12.3571  12.4130  12.4676
    12.4871  12.5193  12.5899  12.6080  12.6470  12.6795  12.7779  12.7919
    12.8141  12.9815  13.0050  13.0681  13.0952  13.1779  13.2516  13.7509
    13.8877  14.1325  14.5167  14.6026  14.8187  14.9487  15.0469  15.4556
    15.5121  16.0450  16.2124  16.3202  16.4450  16.5717  16.6818  17.0163
    17.1808  17.2934  17.3893  17.4213  17.5646  17.6248  17.6964  17.8819
    17.9001  18.0060  18.1198  18.3359  18.4407  18.6583  19.0006  19.1967
    20.1242  20.4784

          k =-0.1768-0.1768 0.9522 ( 13713 PWs)   bands (ev):

   -66.4150 -66.4017 -66.3680 -66.3672 -66.3449 -61.8914 -61.8909 -61.8903
   -35.1886 -35.1873 -35.1627 -35.1553 -35.1553 -35.1313 -35.1234 -35.1169
   -35.1103 -35.0898 -35.0895 -35.0846 -35.0812 -35.0805 -35.0505 -30.7241
   -30.7204 -30.7204 -30.7188 -30.7172 -30.7167 -30.7150 -30.7130 -30.7055
     7.6554   7.7745   8.3138   8.3988   8.4487   8.5013   8.6191   8.6316
     8.6920   8.7153   8.7658   8.8030   8.8516   8.8546   8.9091   9.0974
     9.1004   9.1591   9.2223   9.3360   9.3671   9.3915   9.4492   9.4782
     9.4895   9.5998   9.6078   9.6494   9.6938   9.7245   9.7754   9.8089
     9.8514   9.8644   9.8745   9.9071   9.9523  10.0563  10.0647  10.0783
    10.1143  10.1667  10.2270  10.3261  10.3333  10.4139  10.4260  10.4498
    10.5061  10.5546  10.5945  10.6418  10.6592  10.7086  10.7695  10.8247
    10.8874  10.9267  10.9493  10.9697  11.0205  11.0742  11.1874  11.3141
    11.3899  11.4096  11.5179  11.5320  11.6241  11.6644  11.6978  11.7574
    11.8109  11.8743  11.9061  11.9262  11.9393  11.9945  12.0007  12.0593
    12.0758  12.1074  12.1484  12.1633  12.1981  12.2197  12.2691  12.3081
    12.3163  12.3308  12.4075  12.4377  12.4598  12.4794  12.5437  12.5911
    12.6436  12.6973  12.7486  12.7686  12.8336  12.8588  12.8824  12.9278
    12.9684  12.9974  13.0325  13.0775  13.1126  13.1424  13.2103  13.2480
    13.2554  13.5042  13.7199  13.7595  13.8651  13.8938  14.2076  14.7715
    14.8359  15.7449  16.0384  16.1164  16.3564  16.5124  17.0730  17.1175
    17.2126  17.2854  17.3803  17.4494  17.4764  17.5691  17.6186  17.7564
    17.8658  18.0036  18.2685  18.5933  18.9168  18.9525  19.0623  19.1741
    19.5516  19.6803

          k =-0.1768-0.1768 0.4081 ( 13683 PWs)   bands (ev):

   -66.4150 -66.4017 -66.3679 -66.3672 -66.3449 -61.8913 -61.8909 -61.8903
   -35.1886 -35.1873 -35.1627 -35.1553 -35.1553 -35.1312 -35.1234 -35.1169
   -35.1103 -35.0898 -35.0895 -35.0846 -35.0812 -35.0805 -35.0505 -30.7241
   -30.7203 -30.7203 -30.7188 -30.7172 -30.7167 -30.7150 -30.7130 -30.7055
     6.4061   7.9540   8.0109   8.1010   8.3132   8.4768   8.5221   8.6453
     8.6880   8.6921   8.8275   8.9840   9.0413   9.0528   9.0857   9.0901
     9.2110   9.2570   9.3132   9.3289   9.4019   9.5330   9.5619   9.5808
     9.6128   9.6321   9.6923   9.7023   9.7609   9.7695   9.8025   9.8345
     9.8643   9.8913   9.9460   9.9543  10.0256  10.0636  10.0864  10.1544
    10.1608  10.2211  10.2702  10.2791  10.3801  10.3970  10.4277  10.4773
    10.4978  10.5431  10.6414  10.7052  10.7948  10.8281  10.8598  10.8860
    10.9523  11.0104  11.0752  11.1813  11.2375  11.2939  11.3165  11.3467
    11.3784  11.3966  11.4276  11.5032  11.5291  11.5749  11.6626  11.7134
    11.7981  11.8443  11.9051  11.9264  11.9312  11.9642  11.9820  12.0107
    12.0249  12.0958  12.1074  12.1204  12.1712  12.1886  12.2124  12.2315
    12.2586  12.2711  12.2839  12.3132  12.3289  12.3409  12.3685  12.4066
    12.4490  12.5006  12.5680  12.5967  12.6284  12.6695  12.7229  12.7424
    12.7641  12.8048  12.8789  12.9042  12.9663  13.1051  13.2043  13.2682
    13.2991  13.3995  13.5147  13.8941  13.9417  14.8767  15.0017  15.3900
    15.6087  15.7606  16.0164  16.5537  16.7783  16.8873  17.0345  17.1203
    17.2680  17.3921  17.4781  17.5238  17.6462  17.6889  17.8425  17.9611
    18.0339  18.2400  18.3575  18.5668  18.8866  19.0318  19.1123  19.3462
    19.8550  20.0306

          k = 0.3536 0.3536 0.2721 ( 13708 PWs)   bands (ev):

   -66.4150 -66.4017 -66.3679 -66.3673 -66.3449 -61.8912 -61.8910 -61.8903
   -35.1886 -35.1873 -35.1627 -35.1553 -35.1553 -35.1312 -35.1233 -35.1169
   -35.1103 -35.0899 -35.0895 -35.0846 -35.0810 -35.0807 -35.0505 -30.7241
   -30.7203 -30.7203 -30.7188 -30.7172 -30.7167 -30.7151 -30.7130 -30.7056
     6.5589   6.5968   8.0228   8.1009   8.1025   8.1307   8.6968   8.7839
     8.8189   8.8494   8.9306   8.9775   9.2838   9.2930   9.3305   9.3419
     9.3827   9.4266   9.4477   9.4648   9.5325   9.5342   9.5427   9.5719
     9.5963   9.6571   9.6640   9.6828   9.7635   9.8272   9.8525   9.8890
     9.9671  10.0666  10.0757  10.1107  10.1337  10.1737  10.2458  10.2922
    10.3147  10.3219  10.3529  10.3540  10.3852  10.4246  10.4986  10.5160
    10.5312  10.5876  10.6065  10.6528  10.6619  10.6777  10.6841  10.8147
    10.8617  10.9179  10.9650  10.9851  11.0175  11.0475  11.0662  11.0851
    11.2247  11.2480  11.3200  11.3224  11.3261  11.3461  11.4285  11.4404
    11.4463  11.5272  11.5668  11.5753  11.6978  11.6999  11.7158  11.7549
    11.8458  11.8766  11.9002  11.9272  11.9780  12.0100  12.0588  12.1128
    12.1400  12.1899  12.1919  12.2642  12.2774  12.3208  12.4055  12.4240
    12.4324  12.5046  12.6068  12.6173  12.6303  12.6603  12.7530  12.7824
    12.8397  12.9700  12.9861  12.9996  13.0238  13.1105  13.1310  14.0862
    14.6107  14.9706  15.0982  15.4898  15.5210  15.5664  15.7427  15.7899
    15.8520  16.0839  16.0919  16.1545  16.6342  16.8065  17.0197  17.0695
    17.2345  17.2796  17.4165  17.6184  17.6534  17.6814  17.7514  17.8012
    17.9375  18.0277  18.1084  18.2499  18.3453  18.4548  18.8162  19.0778
    19.8769  19.8973

          k = 0.3536 0.3536-0.2721 ( 13700 PWs)   bands (ev):

   -66.4150 -66.4017 -66.3679 -66.3673 -66.3449 -61.8912 -61.8911 -61.8903
   -35.1886 -35.1873 -35.1627 -35.1553 -35.1553 -35.1312 -35.1234 -35.1169
   -35.1103 -35.0899 -35.0895 -35.0846 -35.0810 -35.0807 -35.0505 -30.7241
   -30.7203 -30.7203 -30.7188 -30.7172 -30.7167 -30.7150 -30.7130 -30.7055
     6.5778   7.5949   8.0636   8.1144   8.4075   8.5752   8.6158   8.6710
     8.6934   8.7325   8.8360   8.8916   8.9316   9.0262   9.0899   9.2543
     9.2675   9.2865   9.3648   9.4079   9.4128   9.4600   9.4948   9.5222
     9.5412   9.5704   9.5917   9.6471   9.7017   9.7229   9.7676   9.8458
     9.8856   9.9100   9.9347   9.9608  10.1156  10.1369  10.1574  10.2128
    10.2705  10.2938  10.3276  10.3628  10.4044  10.4379  10.4650  10.5153
    10.5210  10.5982  10.6019  10.7255  10.7430  10.8191  10.8525  10.8914
    10.9289  10.9736  11.0226  11.0632  11.1138  11.1657  11.1978  11.2460
    11.3197  11.3732  11.4255  11.4728  11.5131  11.5282  11.5947  11.6252
    11.6488  11.6691  11.6936  11.7630  11.8469  11.8736  11.9189  11.9784
    11.9846  12.0149  12.0293  12.0516  12.0902  12.1049  12.1785  12.2108
    12.2362  12.2650  12.2727  12.2901  12.3022  12.3348  12.3620  12.4215
    12.4606  12.5370  12.5608  12.6035  12.6501  12.6874  12.7635  12.7846
    12.8380  12.8926  12.9335  12.9608  13.0782  13.1298  13.1719  13.3054
    13.4560  13.8469  14.0364  14.5084  14.9461  15.0360  15.3057  15.4973
    15.6701  15.8050  15.8074  16.3076  16.5063  16.6319  16.6602  17.1856
    17.2564  17.3072  17.4183  17.5085  17.5881  17.6471  17.8014  17.8572
    17.9573  18.0999  18.1832  18.2704  18.5497  18.8186  18.9350  19.7247
    19.8416  19.9483

          k = 0.3536 0.3536 1.3603 ( 13692 PWs)   bands (ev):

   -66.4150 -66.4017 -66.3679 -66.3673 -66.3449 -61.8912 -61.8911 -61.8903
   -35.1886 -35.1873 -35.1627 -35.1553 -35.1553 -35.1313 -35.1234 -35.1169
   -35.1103 -35.0899 -35.0895 -35.0846 -35.0810 -35.0807 -35.0505 -30.7241
   -30.7204 -30.7204 -30.7188 -30.7172 -30.7166 -30.7150 -30.7130 -30.7055
     7.5681   7.6204   8.3500   8.4438   8.5269   8.5930   8.6047   8.6062
     8.6433   8.6452   8.7275   8.7507   8.8841   8.9285   8.9508   8.9829
     9.0576   9.1680   9.2355   9.2582   9.2758   9.3096   9.3417   9.4267
     9.4634   9.5176   9.5270   9.7025   9.7107   9.7639   9.7793   9.7820
     9.8493   9.8567   9.8714   9.8892   9.9629   9.9755   9.9991  10.0325
    10.1625  10.2178  10.2705  10.3021  10.3867  10.4311  10.4505  10.5393
    10.5451  10.6105  10.6247  10.7578  10.8434  10.8727  10.9085  10.9193
    11.0319  11.0562  11.0923  11.1435  11.1656  11.3630  11.4199  11.4352
    11.4718  11.6667  11.7125  11.7358  11.7443  11.8285  11.8359  11.8457
    11.8766  11.8786  11.9615  11.9747  11.9995  12.0047  12.0153  12.0382
    12.0519  12.0641  12.0801  12.1215  12.1258  12.1398  12.1577  12.1707
    12.2573  12.2646  12.2759  12.2850  12.2935  12.3180  12.3391  12.3537
    12.4257  12.5708  12.6238  12.6954  12.7415  12.7612  12.7677  12.7857
    12.7971  12.8849  12.9199  12.9448  13.1349  13.1358  13.1881  13.2039
    13.4284  13.4357  13.5069  13.8003  13.9409  14.0947  14.1920  14.9662
    14.9760  15.0065  15.1126  15.9667  16.4819  16.6024  17.0074  17.0573
    17.2646  17.3269  17.3573  17.4525  17.4711  17.5889  17.6381  17.7154
    17.8257  17.9465  18.4492  18.6436  18.8339  19.0944  19.4852  19.9117
    19.9302  19.9521

          k = 0.1768-0.1768 0.0000 ( 13644 PWs)   bands (ev):

   -66.4150 -66.4017 -66.3679 -66.3672 -66.3449 -61.8913 -61.8909 -61.8903
   -35.1886 -35.1873 -35.1627 -35.1553 -35.1553 -35.1312 -35.1233 -35.1169
   -35.1103 -35.0898 -35.0895 -35.0846 -35.0812 -35.0805 -35.0505 -30.7241
   -30.7203 -30.7202 -30.7187 -30.7172 -30.7167 -30.7150 -30.7131 -30.7055
     6.0736   6.9785   8.0585   8.1564   8.2123   8.3303   8.5009   8.5244
     8.6081   8.6289   8.9488   9.0352   9.2529   9.3477   9.4237   9.4344
     9.4612   9.5234   9.5321   9.5591   9.5939   9.6056   9.6159   9.6228
     9.6659   9.6894   9.7287   9.7698   9.8166   9.8422   9.8489   9.8707
     9.8999   9.9346  10.0357  10.0523  10.0944  10.1329  10.1505  10.1887
    10.2382  10.2554  10.2752  10.2884  10.3723  10.4102  10.4275  10.4858
    10.5171  10.5270  10.5387  10.5746  10.6015  10.6875  10.7126  10.8230
    10.8430  10.8596  10.8940  10.9932  11.0533  11.0824  11.1031  11.1049
    11.1743  11.2289  11.3258  11.3855  11.3946  11.4144  11.4987  11.5781
    11.6295  11.7153  11.7413  11.8103  11.8273  11.8686  11.8873  11.9290
    11.9432  11.9738  12.0356  12.0866  12.1529  12.1849  12.2121  12.2310
    12.2650  12.2705  12.2820  12.3149  12.3223  12.3819  12.4237  12.4837
    12.5410  12.5699  12.6128  12.6489  12.6706  12.6732  12.7480  12.7598
    12.8282  12.8504  12.8624  12.8777  12.9243  12.9961  13.1027  13.1771
    13.3377  13.9515  13.9647  14.9375  15.1148  15.2211  15.4752  15.9932
    16.2825  16.3995  16.4700  16.4866  16.7240  16.9670  16.9999  17.1313
    17.2481  17.3913  17.4475  17.4875  17.5818  17.8249  18.0238  18.0496
    18.1616  18.2347  18.5934  18.8527  18.9229  19.2346  19.3691  19.5985
    19.6800  19.8228

          k = 0.1768-0.1768-0.5441 ( 13695 PWs)   bands (ev):

   -66.4150 -66.4017 -66.3679 -66.3672 -66.3449 -61.8914 -61.8909 -61.8903
   -35.1886 -35.1873 -35.1627 -35.1553 -35.1553 -35.1312 -35.1234 -35.1169
   -35.1103 -35.0899 -35.0895 -35.0846 -35.0812 -35.0805 -35.0505 -30.7241
   -30.7203 -30.7203 -30.7188 -30.7172 -30.7167 -30.7150 -30.7130 -30.7055
     6.6548   7.5091   7.6958   8.3068   8.4988   8.5781   8.6803   8.7433
     8.7770   8.8391   8.8449   8.9216   8.9667   9.0814   9.1048   9.1378
     9.1533   9.2148   9.2732   9.2990   9.4463   9.4558   9.4750   9.5186
     9.5542   9.6316   9.6473   9.6737   9.7158   9.7346   9.7457   9.7995
     9.8101   9.8603   9.9146   9.9440  10.0026  10.0280  10.1516  10.1907
    10.2471  10.3305  10.3461  10.4336  10.4592  10.4990  10.5346  10.5730
    10.5996  10.6482  10.6760  10.6999  10.7407  10.8013  10.8299  10.8873
    10.8963  10.9288  11.0078  11.0509  11.0644  11.1470  11.2171  11.3451
    11.4009  11.4300  11.4544  11.4986  11.5304  11.5723  11.5791  11.6206
    11.6516  11.6611  11.7016  11.7927  11.8216  11.8532  11.8893  11.9409
    11.9637  11.9954  12.0754  12.1085  12.1194  12.1372  12.1637  12.2062
    12.2144  12.2424  12.2455  12.3069  12.3267  12.3454  12.3494  12.3576
    12.4150  12.5217  12.5468  12.5690  12.6588  12.7120  12.7305  12.8068
    12.8412  12.9736  13.0401  13.0747  13.1801  13.2315  13.2712  13.3381
    13.5138  13.5863  13.7383  14.1872  14.7490  14.7867  15.0707  15.2438
    15.6667  15.8896  15.9460  16.1350  16.6311  16.7324  17.1070  17.1941
    17.3115  17.3914  17.4664  17.5027  17.5758  17.6315  17.7537  17.9449
    18.0036  18.0912  18.4337  18.5662  18.9113  19.0145  19.0526  19.2518
    19.7137  19.9968

          k = 0.1768-0.1768 1.0883 ( 13696 PWs)   bands (ev):

   -66.4150 -66.4017 -66.3680 -66.3672 -66.3449 -61.8914 -61.8909 -61.8903
   -35.1886 -35.1873 -35.1627 -35.1553 -35.1553 -35.1313 -35.1234 -35.1169
   -35.1103 -35.0899 -35.0895 -35.0846 -35.0812 -35.0805 -35.0505 -30.7241
   -30.7204 -30.7204 -30.7188 -30.7172 -30.7167 -30.7150 -30.7130 -30.7055
     7.8650   8.1450   8.2047   8.3913   8.4083   8.4654   8.4962   8.5507
     8.5996   8.6572   8.6921   8.7692   8.8019   8.8289   8.9678   9.0216
     9.1151   9.3065   9.4242   9.4349   9.4646   9.4783   9.5242   9.5418
     9.5917   9.6120   9.6260   9.6642   9.6865   9.7584   9.7828   9.8098
     9.8401   9.8649   9.8777   9.9160  10.0023  10.0516  10.0668  10.0901
    10.1125  10.1529  10.1972  10.2202  10.2333  10.2904  10.3176  10.3499
    10.3845  10.4034  10.4886  10.4996  10.5888  10.6246  10.6676  10.7066
    10.7536  10.7804  10.8135  10.9215  11.1505  11.1964  11.2847  11.3002
    11.3414  11.3615  11.4671  11.5332  11.6038  11.6239  11.6745  11.7250
    11.7729  11.8015  11.8259  11.8515  11.9402  11.9511  11.9679  12.0546
    12.0613  12.1082  12.1746  12.1831  12.2254  12.2587  12.2774  12.3244
    12.3343  12.3694  12.3913  12.4094  12.4792  12.4944  12.5400  12.5807
    12.6144  12.6776  12.7476  12.7578  12.7886  12.8220  12.8356  12.8590
    12.9263  12.9511  13.0801  13.0857  13.1182  13.1501  13.1892  13.1939
    13.3238  13.8390  13.9802  14.1422  14.2279  14.5546  14.9882  15.2160
    15.2891  15.4750  15.7502  16.0008  16.3061  16.6947  16.8255  17.0430
    17.1389  17.2072  17.3654  17.4622  17.4967  17.5522  17.6299  17.8065
    17.8508  17.9700  18.0552  18.1442  18.2539  18.4372  18.8360  18.9681
    19.1476  19.3899

          k = 0.0000-0.3536-0.1360 ( 13676 PWs)   bands (ev):

   -66.4150 -66.4017 -66.3680 -66.3671 -66.3449 -61.8913 -61.8907 -61.8905
   -35.1886 -35.1873 -35.1627 -35.1553 -35.1553 -35.1312 -35.1233 -35.1169
   -35.1102 -35.0900 -35.0894 -35.0846 -35.0813 -35.0804 -35.0505 -30.7241
   -30.7203 -30.7202 -30.7187 -30.7172 -30.7167 -30.7150 -30.7131 -30.7055
     6.2335   7.1260   7.3891   8.0812   8.1965   8.4270   8.6260   8.6678
     8.8138   8.8298   9.0681   9.1508   9.1666   9.2697   9.2949   9.3157
     9.3644   9.3783   9.4602   9.4693   9.4846   9.5381   9.5723   9.6104
     9.6345   9.6631   9.7179   9.7308   9.8475   9.9041   9.9255   9.9585
    10.0002  10.0124  10.0181  10.0382  10.0869  10.1427  10.1729  10.2055
    10.2270  10.2647  10.3444  10.3719  10.3905  10.4355  10.4708  10.5495
    10.5575  10.5971  10.6350  10.6643  10.7141  10.7340  10.7649  10.8047
    10.8487  10.8774  10.8964  10.9461  10.9815  11.0652  11.0982  11.1627
    11.1712  11.2213  11.2457  11.3396  11.3577  11.3938  11.4215  11.5584
    11.5776  11.6309  11.6900  11.7251  11.7438  11.7683  11.7999  11.8153
    11.8648  11.8854  11.9523  12.0203  12.0537  12.0662  12.1195  12.1514
    12.1965  12.2023  12.2357  12.2638  12.3118  12.3261  12.3650  12.4212
    12.4465  12.4718  12.5137  12.5646  12.6443  12.6985  12.8134  12.8407
    12.8606  12.8963  12.9483  13.0214  13.0616  13.1750  13.3721  13.4533
    13.8161  13.9777  14.6531  14.9542  15.1550  15.5940  15.7435  15.8204
    16.0167  16.2452  16.2960  16.5081  16.6607  16.7821  17.0007  17.0950
    17.2248  17.3950  17.4901  17.5136  17.6196  17.7094  17.9158  18.0108
    18.1381  18.3897  18.4198  18.5566  18.7332  18.9537  19.2644  19.4720
    19.5627  20.0009

          k = 0.0000-0.3536-0.6802 ( 13702 PWs)   bands (ev):

   -66.4150 -66.4017 -66.3681 -66.3671 -66.3449 -61.8913 -61.8907 -61.8906
   -35.1886 -35.1873 -35.1627 -35.1553 -35.1553 -35.1312 -35.1234 -35.1169
   -35.1102 -35.0900 -35.0894 -35.0846 -35.0813 -35.0804 -35.0505 -30.7241
   -30.7203 -30.7203 -30.7187 -30.7172 -30.7167 -30.7150 -30.7131 -30.7055
     7.0600   7.1295   7.8417   7.9000   8.5770   8.6539   8.7803   8.8030
     8.8236   8.8671   8.9340   8.9850   9.0092   9.0613   9.0837   9.1270
     9.1768   9.2164   9.2933   9.3095   9.3663   9.4118   9.4357   9.4666
     9.5273   9.5737   9.6005   9.6178   9.6566   9.6818   9.7519   9.8119
     9.8533   9.9437   9.9771  10.0221  10.1070  10.1154  10.1683  10.2345
    10.2736  10.3205  10.3440  10.3944  10.4070  10.5039  10.5199  10.5857
    10.6325  10.6515  10.6641  10.6863  10.7433  10.7957  10.8136  10.8619
    10.8730  10.9162  10.9629  10.9960  11.0757  11.1169  11.1649  11.2231
    11.2880  11.3373  11.3715  11.3882  11.4265  11.4621  11.5221  11.5400
    11.5935  11.6161  11.6944  11.7099  11.7564  11.7750  11.8070  11.8567
    11.9593  11.9967  12.0341  12.0539  12.0963  12.1128  12.1511  12.1672
    12.2129  12.2374  12.2757  12.3160  12.3387  12.3606  12.3683  12.3999
    12.4122  12.4553  12.5184  12.6099  12.6607  12.7024  12.7506  12.8193
    12.8915  13.0245  13.0310  13.0620  13.1193  13.3870  13.5185  13.7087
    13.8003  14.0299  14.3104  14.3503  14.6449  15.1555  15.2929  15.4136
    15.5937  15.6598  16.0619  16.1547  16.3635  16.5531  17.0279  17.1680
    17.2801  17.2877  17.4155  17.5127  17.5791  17.5984  17.7284  17.8227
    17.9068  18.0097  18.0359  18.3896  18.5641  19.0378  19.3798  19.4654
    19.6943  20.0397

          k = 0.0000-0.3536 0.9522 ( 13693 PWs)   bands (ev):

   -66.4150 -66.4017 -66.3681 -66.3671 -66.3449 -61.8913 -61.8907 -61.8906
   -35.1886 -35.1873 -35.1627 -35.1553 -35.1553 -35.1313 -35.1234 -35.1169
   -35.1102 -35.0900 -35.0894 -35.0846 -35.0813 -35.0804 -35.0505 -30.7241
   -30.7204 -30.7204 -30.7187 -30.7172 -30.7167 -30.7150 -30.7130 -30.7055
     7.7275   7.8434   8.3250   8.3318   8.3912   8.4583   8.4673   8.5871
     8.7072   8.7422   8.7929   8.8261   8.8402   8.8771   8.9916   9.0287
     9.1619   9.2150   9.2857   9.3086   9.3431   9.3890   9.4413   9.4612
     9.4871   9.5348   9.6092   9.6376   9.6513   9.6643   9.7008   9.7266
     9.7820   9.8406   9.9095   9.9474   9.9708   9.9915  10.0430  10.1020
    10.1256  10.1532  10.2398  10.3307  10.3887  10.4339  10.5010  10.5379
    10.5660  10.5794  10.5981  10.6555  10.6954  10.7510  10.7714  10.8336
    10.8553  10.8888  10.9615  11.1021  11.1497  11.2345  11.2865  11.3630
    11.3689  11.4083  11.4931  11.5843  11.6505  11.6663  11.7179  11.7325
    11.7745  11.8516  11.8549  11.9463  11.9602  11.9850  11.9979  12.0382
    12.0623  12.1320  12.1449  12.1632  12.1801  12.1956  12.2143  12.2440
    12.3003  12.3402  12.3571  12.3597  12.3913  12.4357  12.4529  12.4777
    12.5099  12.6359  12.6712  12.6956  12.7262  12.7710  12.8319  12.8888
    12.9406  12.9769  13.0150  13.0684  13.0979  13.1413  13.1691  13.2076
    13.3471  13.7050  13.7974  13.8627  13.9943  14.2083  14.5940  14.9416
    15.1840  15.5993  15.7911  15.9263  16.5255  16.6800  16.7484  17.0714
    17.2372  17.2770  17.3532  17.3960  17.4660  17.5084  17.6047  17.7628
    17.8019  17.9084  17.9760  18.2445  18.3891  18.5389  18.5806  19.2119
    19.5453  20.0055

          k = 0.0000-0.3536 0.4081 ( 13687 PWs)   bands (ev):

   -66.4150 -66.4017 -66.3681 -66.3671 -66.3449 -61.8913 -61.8907 -61.8906
   -35.1886 -35.1873 -35.1627 -35.1553 -35.1553 -35.1312 -35.1234 -35.1169
   -35.1102 -35.0900 -35.0894 -35.0846 -35.0813 -35.0804 -35.0505 -30.7241
   -30.7203 -30.7203 -30.7187 -30.7172 -30.7167 -30.7150 -30.7130 -30.7055
     6.5233   7.3879   8.1972   8.3230   8.4307   8.4431   8.5220   8.5845
     8.6592   8.7294   8.8813   9.0105   9.0523   9.1096   9.1342   9.1504
     9.1704   9.2040   9.2221   9.3632   9.4426   9.4581   9.4735   9.5436
     9.5589   9.5878   9.6388   9.6575   9.6653   9.6864   9.7391   9.7837
     9.8420   9.8641   9.9056   9.9518   9.9907  10.0609  10.1136  10.1429
    10.2566  10.2868  10.3747  10.4338  10.4824  10.5095  10.5822  10.6088
    10.6202  10.6374  10.6959  10.7191  10.8112  10.8594  10.8799  10.9019
    10.9612  11.0360  11.0792  11.1114  11.1681  11.2677  11.2825  11.3563
    11.4231  11.4388  11.4502  11.4907  11.5370  11.5821  11.6169  11.7082
    11.7327  11.8330  11.8673  11.9087  11.9322  11.9642  11.9663  11.9937
    12.0097  12.0370  12.0664  12.1055  12.1267  12.1600  12.1774  12.1982
    12.2178  12.2344  12.2672  12.3070  12.3462  12.3494  12.3927  12.4085
    12.4456  12.5078  12.5213  12.5656  12.6152  12.6643  12.6923  12.7091
    12.7576  12.7787  12.8095  12.8961  12.9380  12.9682  13.0366  13.0994
    13.1479  13.1988  14.2082  14.3034  14.3129  14.9182  15.2385  15.2600
    15.4302  15.7504  16.2393  16.4308  16.5732  16.7087  16.8127  17.0483
    17.3184  17.3631  17.4180  17.5274  17.5385  17.6879  17.7347  17.7943
    18.0474  18.2554  18.3706  18.5494  18.7103  18.9125  19.0658  19.4206
    20.0105  20.1923

          k = 0.5303 0.1768 0.2721 ( 13658 PWs)   bands (ev):

   -66.4150 -66.4017 -66.3679 -66.3673 -66.3449 -61.8912 -61.8910 -61.8903
   -35.1886 -35.1873 -35.1627 -35.1553 -35.1553 -35.1312 -35.1233 -35.1169
   -35.1103 -35.0900 -35.0893 -35.0846 -35.0812 -35.0806 -35.0505 -30.7241
   -30.7203 -30.7203 -30.7188 -30.7172 -30.7166 -30.7151 -30.7130 -30.7055
     6.6756   6.7111   7.5215   7.5540   8.4637   8.5102   8.7201   8.8256
     8.8752   8.9034   8.9691   9.0120   9.2237   9.2620   9.2785   9.3000
     9.3216   9.3627   9.4026   9.4285   9.4574   9.4896   9.5042   9.5695
     9.5960   9.6642   9.6742   9.7334   9.7696   9.7873   9.8986   9.9227
     9.9683   9.9899  10.1263  10.1504  10.1899  10.2082  10.2420  10.2526
    10.2853  10.3280  10.3891  10.3992  10.4409  10.4510  10.4671  10.5409
    10.5949  10.6249  10.6813  10.7174  10.7417  10.7848  10.8134  10.8505
    10.8710  10.8869  10.9234  10.9811  11.0025  11.0834  11.1112  11.1318
    11.2159  11.2774  11.2900  11.3271  11.3314  11.3465  11.3747  11.3971
    11.4976  11.5164  11.5405  11.5539  11.5970  11.6586  11.7110  11.7375
    11.8049  11.8425  11.8437  11.9322  11.9520  12.0264  12.0518  12.0781
    12.0927  12.1816  12.1967  12.2553  12.3001  12.3127  12.3572  12.3912
    12.4707  12.5260  12.5430  12.6071  12.6572  12.7168  12.8053  12.8646
    12.8980  12.9096  12.9747  13.0216  13.0667  13.1354  13.2732  14.0930
    14.5448  14.6540  14.8284  15.0289  15.3848  15.4391  15.6069  15.6813
    15.7375  16.0620  16.1981  16.3388  16.8413  16.9669  17.0934  17.1456
    17.2610  17.3306  17.4781  17.5964  17.6811  17.7314  17.7682  17.8389
    17.9017  18.0445  18.1222  18.2977  18.4235  18.4868  19.6816  19.8727
    20.0713  20.0743

[...]
    11.8128  11.8367  11.8737  11.9056  11.9240  11.9584  12.0197  12.1040
    12.1504  12.1689  12.1858  12.2261  12.2533  12.2798  12.3149  12.3520
    12.3959  12.4222  12.4837  12.5414  12.5773  12.6079  12.6326  12.7083
    12.7308  12.7832  12.8114  12.8339  12.8531  12.9173  12.9824  13.3698
    13.5113  14.4642  14.7647  14.8431  14.9744  15.2081  15.3666  15.4266
    15.5559  15.6088  15.7961  15.9885  16.3470  16.9774  17.0059  17.1357
    17.2329  17.2723  17.3511  17.3864  17.4093  17.4929  17.5289  17.5549
    17.5905  17.6031  17.6992  17.8139  17.8791  17.9386  18.0285  18.1013
    18.2509  18.3063  18.4481  18.5581  19.4076  19.5057  19.7648  19.8132
    19.8924  19.9544

          k = 0.0000 0.7071 0.2721 ( 13680 PWs)   bands (ev):

   -66.5155 -66.5149 -66.4879 -61.8517 -61.8287 -61.8095 -61.8088 -61.8057
   -35.2814 -35.2814 -35.2724 -35.2520 -35.2518 -35.2334 -35.2332 -35.2065
   -35.2036 -30.6863 -30.6772 -30.6709 -30.6618 -30.6577 -30.6498 -30.6432
   -30.6427 -30.6426 -30.6380 -30.6354 -30.6316 -30.6293 -30.6279 -30.6235
     6.9682   7.0411   7.1239   7.1540   8.5998   8.7373   8.8874   8.9549
     9.0138   9.0272   9.1180   9.1681   9.1870   9.2437   9.3200   9.3453
     9.3917   9.3934   9.4216   9.4389   9.4928   9.6176   9.6621   9.6862
     9.7600   9.7600   9.8858   9.8893   9.9090   9.9258  10.0205  10.0623
    10.0731  10.1151  10.1410  10.1555  10.1862  10.2134  10.2276  10.2515
    10.3485  10.4520  10.4860  10.5745  10.5821  10.6449  10.6660  10.6987
    10.7350  10.7683  10.8123  10.8364  10.8603  11.0463  11.0604  11.0998
    11.1113  11.1545  11.1693  11.1700  11.1880  11.1953  11.2309  11.2397
    11.3170  11.3465  11.3567  11.3810  11.4163  11.4444  11.4715  11.5623
    11.5790  11.7143  11.7234  11.7252  11.7434  11.7517  11.9122  11.9390
    12.0398  12.1013  12.1140  12.1210  12.2081  12.2623  12.2935  12.3030
    12.4180  12.4228  12.4470  12.5974  12.6157  12.6558  12.6845  12.7081
    12.8275  12.8859  13.0046  13.1436  13.4859  13.6268  13.7351  14.0072
    14.2669  14.6663  14.9327  14.9695  15.0339  15.3111  15.3826  15.6791
    15.7606  16.1187  16.3039  16.3704  16.8297  17.0686  17.1835  17.1883
    17.3074  17.3406  17.4285  17.4452  17.5025  17.5069  17.6412  17.6708
    17.6814  17.7090  17.8112  17.8342  18.0149  18.1240  18.1444  18.1895
    18.2290  18.4861  18.5828  18.7078  18.9657  19.1104  19.2640  19.4089
    20.5569  20.5790

          k = 0.0000 0.7071-0.2721 ( 13688 PWs)   bands (ev):

   -66.5155 -66.5149 -66.4879 -61.8517 -61.8287 -61.8095 -61.8088 -61.8057
   -35.2814 -35.2814 -35.2724 -35.2520 -35.2518 -35.2335 -35.2332 -35.2065
   -35.2036 -30.6863 -30.6771 -30.6709 -30.6618 -30.6578 -30.6499 -30.6432
   -30.6428 -30.6427 -30.6380 -30.6354 -30.6316 -30.6293 -30.6280 -30.6234
     7.0387   7.0964   7.9249   7.9687   8.7003   8.7284   8.7625   8.8083
     8.8199   8.8301   9.0643   9.1067   9.1355   9.1454   9.1866   9.2606
     9.2735   9.2994   9.3228   9.4046   9.4265   9.4698   9.4817   9.6509
     9.6644   9.6891   9.7130   9.7254   9.8550   9.8681   9.8905   9.9236
     9.9989  10.0697  10.0770  10.1152  10.1810  10.1898  10.2127  10.2230
    10.2704  10.3114  10.5043  10.5570  10.6145  10.6333  10.6955  10.7370
    10.7740  10.8273  10.8943  10.9773  11.0312  11.0815  11.1056  11.1328
    11.1520  11.1653  11.1848  11.1955  11.2035  11.2585  11.2859  11.3336
    11.4072  11.4481  11.5095  11.5779  11.5897  11.6288  11.6459  11.6683
    11.7882  11.8083  11.8822  11.9322  11.9853  12.0376  12.0681  12.1242
    12.1384  12.1664  12.1924  12.2141  12.2374  12.2894  12.3089  12.3283
    12.3578  12.4064  12.4137  12.6054  12.6219  12.6534  12.6831  12.6942
    12.7602  12.8341  12.8992  13.1572  13.2184  13.2590  13.4276  13.5652
    13.5836  14.1932  14.4084  14.5456  14.7417  15.3185  15.3922  15.5299
    15.6724  15.7428  16.1884  16.3199  16.4949  16.8464  16.8824  17.2059
    17.2868  17.3324  17.3597  17.4085  17.4632  17.4674  17.5207  17.5651
    17.5945  17.6525  17.7115  17.7894  17.8750  18.0144  18.0911  18.1797
    18.2056  18.3224  18.3400  18.4275  18.5290  18.6276  19.1599  19.2346
    20.6209  20.7611

          k = 0.0000 0.7071 1.3603 ( 13696 PWs)   bands (ev):

   -66.5155 -66.5149 -66.4879 -61.8517 -61.8287 -61.8095 -61.8088 -61.8057
   -35.2814 -35.2814 -35.2724 -35.2520 -35.2518 -35.2335 -35.2332 -35.2066
   -35.2036 -30.6863 -30.6771 -30.6710 -30.6617 -30.6579 -30.6499 -30.6432
   -30.6428 -30.6427 -30.6380 -30.6354 -30.6315 -30.6292 -30.6281 -30.6234
     7.8257   7.9080   7.9970   8.0744   8.5863   8.6118   8.7043   8.7365
     8.8202   8.8416   8.9552   8.9626   9.0510   9.0560   9.0839   9.1047
     9.2093   9.2390   9.2783   9.3210   9.3931   9.4548   9.4846   9.5008
     9.5598   9.6065   9.6212   9.6514   9.7063   9.7617   9.8311   9.8558
     9.8638   9.8867   9.9465  10.0476  10.1716  10.1723  10.1844  10.2176
    10.2266  10.2295  10.2863  10.4613  10.4660  10.6520  10.6718  10.8370
    10.8470  10.9038  11.0019  11.0187  11.0607  11.0912  11.1483  11.1759
    11.2248  11.2339  11.2749  11.3490  11.4157  11.4481  11.4498  11.5216
    11.5728  11.6162  11.6324  11.6904  11.7276  11.8863  11.9161  11.9251
    11.9614  11.9777  11.9935  12.0155  12.0594  12.0691  12.0991  12.1192
    12.1195  12.2167  12.2619  12.2739  12.2974  12.3032  12.3266  12.3610
    12.3990  12.4410  12.5229  12.5912  12.5984  12.6227  12.6569  12.6708
    12.7190  12.7491  12.8667  13.0593  13.1373  13.1453  13.2712  13.3845
    13.4046  13.6493  13.8200  14.0056  14.2895  14.6708  14.8922  15.0362
    15.6093  15.8380  16.3191  16.3327  16.4673  16.5607  16.7358  17.0547
    17.1921  17.2800  17.3197  17.3490  17.4076  17.4311  17.4444  17.4879
    17.5231  17.5891  17.6214  17.6733  17.7070  17.7202  17.7400  18.0712
    18.1107  18.2719  18.3659  18.3665  18.3942  18.4857  18.5804  18.7062
    20.5973  20.7836

          k = 0.1768-0.1768 0.5441 ( 13695 PWs)   bands (ev):

   -66.5155 -66.5149 -66.4879 -61.8517 -61.8287 -61.8095 -61.8089 -61.8056
   -35.2814 -35.2814 -35.2724 -35.2520 -35.2518 -35.2335 -35.2332 -35.2065
   -35.2036 -30.6863 -30.6771 -30.6709 -30.6618 -30.6578 -30.6499 -30.6432
   -30.6428 -30.6427 -30.6380 -30.6354 -30.6313 -30.6295 -30.6280 -30.6234
     6.6909   7.5481   7.7661   8.3412   8.5408   8.6226   8.8222   8.8483
     8.8850   8.9284   9.0195   9.0315   9.0996   9.1199   9.1474   9.2039
     9.2587   9.3251   9.3663   9.4114   9.5301   9.5620   9.5774   9.6196
     9.6412   9.6904   9.7009   9.7668   9.7927   9.8123   9.8617   9.9093
     9.9179   9.9487  10.0377  10.0548  10.1884  10.2121  10.2606  10.2763
    10.3391  10.4719  10.5118  10.5279  10.5549  10.5860  10.6521  10.6744
    10.6995  10.7510  10.7731  10.8643  10.8811  10.9266  10.9726  11.0313
    11.0407  11.1166  11.1249  11.1497  11.2739  11.3424  11.3822  11.4114
    11.4987  11.5104  11.5787  11.6241  11.6750  11.6807  11.7736  11.8135
    11.8598  11.8785  11.8938  11.9349  11.9818  12.0564  12.0877  12.1027
    12.1590  12.1776  12.2078  12.2534  12.3189  12.3349  12.3616  12.3821
    12.3878  12.4274  12.4763  12.5580  12.6169  12.6601  12.7217  12.7654
    12.8144  12.8391  12.8908  12.9554  13.1855  13.2290  13.3578  13.3658
    13.5980  14.0314  14.2076  14.4893  14.7124  15.0265  15.3607  15.5169
    15.6355  16.0137  16.2250  16.5017  16.6478  17.0396  17.0995  17.1555
    17.2028  17.2983  17.3087  17.3224  17.3846  17.4596  17.4983  17.5549
    17.5919  17.6226  17.7364  17.7431  17.8357  17.9400  17.9749  18.1854
    18.4100  18.5139  18.8348  18.9489  19.1033  19.1775  19.3281  19.4522
    19.8975  20.1000

          k = 0.3536 0.0000 0.1360 ( 13676 PWs)   bands (ev):

   -66.5156 -66.5148 -66.4879 -61.8517 -61.8287 -61.8092 -61.8092 -61.8056
   -35.2814 -35.2814 -35.2724 -35.2520 -35.2518 -35.2334 -35.2332 -35.2065
   -35.2036 -30.6863 -30.6771 -30.6709 -30.6618 -30.6577 -30.6500 -30.6432
   -30.6427 -30.6426 -30.6380 -30.6354 -30.6309 -30.6299 -30.6279 -30.6235
     6.2714   7.1569   7.4519   8.1116   8.2603   8.5637   8.7274   8.7957
     8.8589   8.8725   9.1352   9.2019   9.2624   9.3422   9.3847   9.4117
     9.4317   9.4881   9.5260   9.5485   9.5883   9.6474   9.6805   9.7357
     9.7561   9.7660   9.8198   9.8496   9.9487   9.9813  10.0049  10.0162
    10.0283  10.0780  10.1139  10.1288  10.1704  10.2483  10.2901  10.3191
    10.3266  10.3802  10.4269  10.4400  10.4972  10.5382  10.5707  10.6630
    10.6844  10.7498  10.7791  10.7976  10.8913  10.9190  10.9287  10.9528
    10.9773  11.0016  11.0920  11.1300  11.1505  11.1975  11.2717  11.2888
    11.3179  11.3558  11.4330  11.4482  11.5262  11.5806  11.6420  11.7046
    11.7347  11.7881  11.8118  11.8509  11.9131  11.9558  11.9940  12.0188
    12.0664  12.1034  12.1215  12.1877  12.2348  12.2613  12.3042  12.3604
    12.4026  12.4382  12.5064  12.5578  12.5874  12.6110  12.6725  12.6807
    12.7676  12.8099  12.9095  12.9457  13.2137  13.2797  13.6479  13.7941
    14.3849  14.5863  14.9419  15.1711  15.3303  15.5523  15.6942  15.8607
    15.8824  16.0709  16.2351  16.5066  16.6377  16.9868  17.0095  17.1255
    17.3038  17.3182  17.3364  17.3768  17.4266  17.4376  17.4645  17.5107
    17.5857  17.6517  17.7566  17.9482  17.9792  18.1312  18.2142  18.3070
    18.3267  18.6634  18.7201  18.7634  19.0610  19.2085  19.4808  19.7309
    19.7765  20.2676

          k = 0.3536 0.0000 0.6802 ( 13702 PWs)   bands (ev):

   -66.5156 -66.5148 -66.4879 -61.8517 -61.8287 -61.8092 -61.8091 -61.8057
   -35.2814 -35.2814 -35.2724 -35.2520 -35.2518 -35.2335 -35.2332 -35.2065
   -35.2036 -30.6863 -30.6771 -30.6709 -30.6618 -30.6578 -30.6500 -30.6432
   -30.6427 -30.6427 -30.6380 -30.6354 -30.6309 -30.6299 -30.6280 -30.6234
     7.0927   7.1779   7.8918   7.9387   8.6115   8.7420   8.8639   8.8950
     8.9107   8.9789   9.0224   9.0658   9.1297   9.1650   9.2063   9.2516
     9.2688   9.3109   9.3967   9.4214   9.4700   9.4963   9.5272   9.5475
     9.6029   9.6480   9.6622   9.7204   9.7704   9.8207   9.8781   9.8816
     9.9482  10.0135  10.0776  10.1169  10.1674  10.2587  10.3164  10.3481
    10.3560  10.4091  10.4412  10.4666  10.5372  10.5803  10.6572  10.6861
    10.7290  10.7695  10.8010  10.8203  10.8675  10.9224  10.9814  10.9938
    11.0440  11.1027  11.1393  11.1511  11.2134  11.2423  11.2787  11.3554
    11.4096  11.4290  11.4864  11.5420  11.5986  11.6279  11.7074  11.7604
    11.8010  11.8306  11.8723  11.9433  11.9803  12.0064  12.0689  12.1223
    12.1392  12.1646  12.1966  12.2546  12.2706  12.2860  12.3575  12.3693
    12.3977  12.4339  12.4910  12.5659  12.5728  12.6131  12.7424  12.7721
    12.8247  12.8634  12.9371  13.0202  13.1711  13.5520  13.6028  13.8100
    13.8753  14.1640  14.1975  14.7683  14.9466  15.0853  15.3821  15.5175
    15.7191  16.0367  16.0525  16.2469  16.6010  16.9600  17.0992  17.1758
    17.1894  17.2947  17.3429  17.3625  17.4081  17.4612  17.4977  17.5584
    17.6060  17.6323  17.6740  17.7927  17.8533  17.9605  18.0008  18.1706
    18.2166  18.3425  18.4649  18.5837  18.8336  19.2214  19.6205  19.6818
    19.9422  20.1687

          k = 0.3536 0.0000-0.9522 ( 13693 PWs)   bands (ev):

   -66.5156 -66.5147 -66.4879 -61.8517 -61.8287 -61.8092 -61.8091 -61.8057
   -35.2814 -35.2814 -35.2724 -35.2520 -35.2518 -35.2335 -35.2332 -35.2066
   -35.2036 -30.6863 -30.6771 -30.6710 -30.6617 -30.6579 -30.6500 -30.6432
   -30.6428 -30.6427 -30.6380 -30.6354 -30.6308 -30.6299 -30.6281 -30.6234
     7.7676   7.8820   8.3777   8.4219   8.4512   8.5647   8.5886   8.6562
     8.7544   8.7787   8.8705   8.9311   8.9929   9.0420   9.1008   9.1842
     9.2260   9.2935   9.3453   9.3702   9.4188   9.5231   9.5437   9.5925
     9.6223   9.6543   9.6843   9.7350   9.7904   9.7951   9.8546   9.8755
     9.8863   9.9035   9.9526  10.0252  10.0706  10.0903  10.1531  10.1892
    10.2664  10.2898  10.3210  10.3718  10.5197  10.5677  10.5949  10.6324
    10.6922  10.7087  10.7466  10.7747  10.8147  10.8678  10.9410  10.9850
    11.0573  11.1189  11.2365  11.2612  11.3257  11.3958  11.4286  11.4810
    11.5271  11.6403  11.6861  11.7410  11.7899  11.8530  11.8730  11.8771
    11.9540  11.9693  12.0048  12.0508  12.0716  12.1079  12.1378  12.1967
    12.2586  12.2880  12.3043  12.3171  12.3438  12.4150  12.4310  12.4629
    12.5148  12.5424  12.5708  12.6419  12.6512  12.6997  12.7318  12.7673
    12.8495  12.8819  12.9420  13.0504  13.0662  13.1271  13.3216  13.5586
    13.5833  13.6908  13.8477  13.9154  14.0251  14.8997  15.0702  15.3407
    15.5125  15.6306  15.7682  16.5008  16.5221  16.7710  17.0631  17.1614
    17.1715  17.2513  17.2762  17.3131  17.4380  17.4476  17.4708  17.5085
    17.5694  17.6110  17.6695  17.6804  17.7477  17.8890  17.9293  18.0240
    18.1687  18.2314  18.3926  18.5583  18.6144  18.7330  18.8634  19.3189
    19.7535  20.1548

          k = 0.3536 0.0000-0.4081 ( 13687 PWs)   bands (ev):

   -66.5156 -66.5148 -66.4879 -61.8517 -61.8287 -61.8092 -61.8091 -61.8057
   -35.2814 -35.2814 -35.2724 -35.2520 -35.2518 -35.2335 -35.2332 -35.2065
   -35.2036 -30.6863 -30.6771 -30.6709 -30.6618 -30.6578 -30.6500 -30.6432
   -30.6427 -30.6427 -30.6380 -30.6354 -30.6309 -30.6299 -30.6280 -30.6234
     6.5615   7.4303   8.2671   8.3849   8.4962   8.5214   8.6344   8.6471
     8.7586   8.8331   8.9909   9.0805   9.1346   9.1719   9.1832   9.2432
     9.3081   9.3433   9.3819   9.3938   9.4991   9.5179   9.5805   9.6458
     9.6692   9.6890   9.7527   9.8125   9.8283   9.8534   9.8680   9.9241
     9.9723   9.9972  10.0049  10.0434  10.1110  10.1559  10.2014  10.2514
    10.3342  10.3635  10.4777  10.5455  10.5512  10.6015  10.7035  10.7133
    10.7262  10.8537  10.8779  10.9433  10.9832  10.9976  11.0209  11.0512
    11.1102  11.1257  11.2008  11.2207  11.2648  11.3834  11.4281  11.4602
    11.5133  11.5499  11.6203  11.6550  11.7084  11.7594  11.7921  11.8390
    11.8704  11.9262  11.9387  11.9756  12.0237  12.0708  12.0803  12.1207
    12.1683  12.1979  12.2095  12.2176  12.2500  12.3135  12.3215  12.3426
    12.4088  12.4617  12.5022  12.5326  12.5975  12.6164  12.6579  12.7372
    12.7666  12.7851  12.8108  12.8346  12.9089  12.9644  13.0051  13.0955
    14.0247  14.1227  14.3575  14.5277  14.8427  14.9227  15.0498  15.1549
    15.7018  16.1258  16.2905  16.3763  16.5578  16.8857  17.0894  17.1241
    17.2270  17.2964  17.3314  17.3633  17.4135  17.4158  17.5200  17.5463
    17.6296  17.6464  17.7142  17.7914  17.9028  17.9868  18.0315  18.1609
    18.3269  18.4261  18.5329  18.8452  19.1011  19.1738  19.2304  19.6351
    20.1575  20.4110

          k =-0.1768-0.5303 0.2721 ( 13683 PWs)   bands (ev):

   -66.5155 -66.5149 -66.4879 -61.8517 -61.8287 -61.8095 -61.8089 -61.8057
   -35.2814 -35.2814 -35.2724 -35.2520 -35.2518 -35.2335 -35.2332 -35.2065
   -35.2036 -30.6863 -30.6771 -30.6709 -30.6618 -30.6578 -30.6499 -30.6432
   -30.6427 -30.6427 -30.6380 -30.6354 -30.6313 -30.6295 -30.6280 -30.6234
     6.7315   7.5722   7.7222   8.2861   8.5562   8.5815   8.7299   8.8020
     8.8604   8.9018   8.9930   9.0196   9.0924   9.1715   9.2594   9.2830
     9.2881   9.3308   9.4142   9.4201   9.4570   9.4630   9.5044   9.6104
     9.6306   9.6577   9.7094   9.7402   9.8137   9.8523   9.8964   9.9603
    10.0063  10.0376  10.0724  10.0938  10.2239  10.2380  10.2567  10.3208
    10.3530  10.3693  10.3830  10.4704  10.5383  10.5960  10.6617  10.6981
    10.7358  10.7992  10.8790  10.9004  10.9236  10.9731  11.0023  11.0524
    11.0971  11.1334  11.1682  11.2500  11.2689  11.3136  11.3348  11.3782
    11.4253  11.4733  11.5341  11.5895  11.6067  11.6359  11.7097  11.7655
    11.8260  11.8340  11.8850  11.9396  11.9661  11.9958  12.0733  12.0992
    12.1406  12.1852  12.2315  12.2622  12.2792  12.3016  12.3049  12.3233
    12.4228  12.4547  12.4735  12.5494  12.5641  12.6296  12.6577  12.7625
    12.7829  12.8159  12.8663  12.9636  13.2069  13.2960  13.3152  13.3495
    13.8020  14.0338  14.6151  14.7241  15.1405  15.2813  15.4185  15.5177
    15.5577  15.6826  15.9905  16.1543  16.6012  16.9357  17.0124  17.1640
    17.2574  17.3052  17.3231  17.3820  17.4418  17.4728  17.5115  17.5375
    17.5787  17.5986  17.7256  17.8233  17.9358  17.9963  18.0811  18.1317
    18.2764  18.3984  18.4397  18.5043  18.5796  18.7464  19.1870  19.9716
    20.1760  20.3532

     the Fermi energy is    15.5754 ev

!    total energy              =  -14693.93545831 Ry
     Harris-Foulkes estimate   =  -14693.93544396 Ry
     estimated scf accuracy    <       0.00000046 Ry

     total all-electron energy =   -626921.531180 Ry

     The total energy is the sum of the following terms:

     one-electron contribution =    -698.44640045 Ry
     hartree contribution      =     651.61091423 Ry
     xc contribution           =    -738.11812113 Ry
     ewald contribution        =   -2207.56121140 Ry
     Hubbard energy            =       0.45463910 Ry
     one-center paw contrib.   =  -11701.87527865 Ry

     total magnetization       =     8.35 Bohr mag/cell
     absolute magnetization    =    36.78 Bohr mag/cell

     convergence has been achieved in  20 iterations

     Writing output data file mnau2.save/
 
     init_run     :     24.85s CPU     26.09s WALL (       1 calls)
     electrons    :   1162.76s CPU   1195.72s WALL (       1 calls)

     Called by init_run:
     wfcinit      :     22.58s CPU     23.39s WALL (       1 calls)
     potinit      :      1.19s CPU      1.24s WALL (       1 calls)
     hinit0       :      0.66s CPU      0.94s WALL (       1 calls)

     Called by electrons:
     c_bands      :   1017.75s CPU   1044.95s WALL (      20 calls)
     sum_band     :    122.49s CPU    126.55s WALL (      20 calls)
     v_of_rho     :      1.80s CPU      1.82s WALL (      21 calls)
     newd         :      6.78s CPU      7.58s WALL (      21 calls)
     PAW_pot      :     14.56s CPU     14.65s WALL (      21 calls)
     mix_rho      :      0.28s CPU      0.34s WALL (      20 calls)

     Called by c_bands:
     init_us_2    :      9.45s CPU      9.50s WALL (    3024 calls)
     cegterg      :    969.11s CPU    995.62s WALL (    1440 calls)

     Called by sum_band:
     sum_band:bec :      1.12s CPU      1.14s WALL (    1440 calls)
     addusdens    :     12.83s CPU     14.09s WALL (      20 calls)

     Called by *egterg:
     h_psi        :    420.31s CPU    433.46s WALL (    5325 calls)
     s_psi        :     63.63s CPU     63.93s WALL (    5397 calls)
     g_psi        :      2.32s CPU      2.33s WALL (    3813 calls)
     cdiaghg      :    356.92s CPU    364.05s WALL (    5253 calls)

     Called by h_psi:
     h_psi:pot    :    399.17s CPU    409.68s WALL (    5325 calls)
     h_psi:calbec :     59.63s CPU     62.14s WALL (    5325 calls)
     vloc_psi     :    278.00s CPU    285.22s WALL (    5325 calls)
     add_vuspsi   :     61.49s CPU     62.28s WALL (    5325 calls)
     vhpsi        :     18.47s CPU     18.56s WALL (    5325 calls)

     General routines
     calbec       :     97.95s CPU    101.32s WALL (   13602 calls)
     fft          :      0.89s CPU      0.95s WALL (     521 calls)
     ffts         :      0.04s CPU      0.05s WALL (      82 calls)
     fftw         :    309.37s CPU    317.16s WALL ( 1400380 calls)
     interpolate  :      0.11s CPU      0.11s WALL (      42 calls)
     davcio       :      0.00s CPU      0.57s WALL (      72 calls)
 
     Parallel routines
     fft_scatt_xy :     39.06s CPU     39.97s WALL ( 1400983 calls)
     fft_scatt_yz :    102.12s CPU    105.07s WALL ( 1400983 calls)

     Hubbard U routines
     new_ns       :      5.48s CPU      5.83s WALL (      20 calls)
     vhpsi        :     18.47s CPU     18.56s WALL (    5325 calls)
 
     PWSCF        : 19m53.20s CPU    20m44.42s WALL

 
   This run was terminated on:  12:19:50  26Mar2019            

=------------------------------------------------------------------------------=
   JOB DONE.
=------------------------------------------------------------------------------=
