
     Program PWSCF v.6.3MaX starts on 26Mar2019 at 11:47: 5 

     This program is part of the open-source Quantum ESPRESSO suite
     for quantum simulation of materials; please cite
         "P. Giannozzi et al., J. Phys.:Condens. Matter 21 395502 (2009);
         "P. Giannozzi et al., J. Phys.:Condens. Matter 29 465901 (2017);
          URL http://www.quantum-espresso.org", 
     in publications or presentations arising from this work. More details at
     http://www.quantum-espresso.org/quote

     Parallel version (MPI), running on    16 processors

     MPI processes distributed on     1 nodes
     R & G space division:  proc/nbgrp/npool/nimage =      16
     Waiting for input...
     Reading input from standard input

     Current dimensions of program PWSCF are:
     Max number of different atomic species (ntypx) = 10
     Max number of k-points (npk) =  40000
     Max angular momentum in pseudopotentials (lmaxx) =  3
     Message from routine read_upf::
     Pseudo file ./pseudo/Mn.pbe-spn-kjpaw_psl.0.3.1.UPF has been successfully fixed on the fly.
To avoid this message in the future you can permanently fix 
 your pseudo files following instructions given in: 
https://gitlab.com/QEF/q-e/blob/master/upftools/how_to_fix_upf.md
               file Mn.pbe-spn-kjpaw_psl.0.3.1.UPF: wavefunction(s)  3P 3D renormalized
     Message from routine read_upf::
     Pseudo file ./pseudo/Au.pbe-dn-kjpaw_psl.0.1.UPF has been successfully fixed on the fly.
To avoid this message in the future you can permanently fix 
 your pseudo files following instructions given in: 
https://gitlab.com/QEF/q-e/blob/master/upftools/how_to_fix_upf.md
               file Au.pbe-dn-kjpaw_psl.0.1.UPF: wavefunction(s)  6S 6P 5D renormalized

     Subspace diagonalization in iterative solution of the eigenvalue problem:
     one sub-group per band group will be used
     scalapack distributed-memory algorithm (size of sub-group:  2*  2 procs)

     Found symmetry operation: I + (  0.5000  0.0000  0.0000)
     This is a supercell, fractional translations are disabled
 
     Parallelization info
     --------------------
     sticks:   dense  smooth     PW     G-vecs:    dense   smooth      PW
     Min         646     290     84                22663     6843    1075
     Max         647     291     85                22664     6844    1077
     Sum       10349    4645   1353               362619   109493   17211
 


     bravais-lattice index     =            0
     lattice parameter (alat)  =      18.0125  a.u.
     unit-cell volume          =    2685.0513 (a.u.)^3
     number of atoms/cell      =           24
     number of atomic types    =            2
     number of electrons       =       296.00
     number of Kohn-Sham states=          178
     kinetic-energy cutoff     =      45.0000  Ry
     charge density cutoff     =     400.0000  Ry
     convergence threshold     =      1.0E-06
     mixing beta               =       0.1000
     number of iterations used =            8  plain     mixing
     Exchange-correlation      = SLA PW PBX PBC ( 1  4  3  4 0 0)

     celldm(1)=  18.012490  celldm(2)=   0.000000  celldm(3)=   0.000000
     celldm(4)=   0.000000  celldm(5)=   0.000000  celldm(6)=   0.000000

     crystal axes: (cart. coord. in units of alat)
               a(1) = (   0.707107  -0.707107   0.000000 )  
               a(2) = (  -0.707107  -0.707107   0.000000 )  
               a(3) = (   0.176777   0.176777  -0.459443 )  

     reciprocal axes: (cart. coord. in units 2 pi/alat)
               b(1) = (  0.707107 -0.707107  0.000000 )  
               b(2) = ( -0.707107 -0.707107 -0.544138 )  
               b(3) = (  0.000000  0.000000 -2.176550 )  


     PseudoPot. # 1 for Mn read from file:
     ./pseudo/Mn.pbe-spn-kjpaw_psl.0.3.1.UPF
     MD5 check sum: 7eef95dd2aae66803482eea66ebeebf1
     Pseudo is Projector augmented-wave + core cor, Zval = 15.0
     Generated using "atomic" code by A. Dal Corso v.5.0.99 svn rev. 10869
     Shape of augmentation charge: PSQ
     Using radial grid of 1187 points,  6 beta functions with: 
                l(1) =   0
                l(2) =   0
                l(3) =   1
                l(4) =   1
                l(5) =   2
                l(6) =   2
     Q(r) pseudized with 0 coefficients 


     PseudoPot. # 2 for Au read from file:
     ./pseudo/Au.pbe-dn-kjpaw_psl.0.1.UPF
     MD5 check sum: 5c9b92683623e7ae2ab3f8e525febab6
     Pseudo is Projector augmented-wave + core cor, Zval = 11.0
     Generated using "atomic" code by A. Dal Corso v.5.0.2 svn rev. 9415
     Shape of augmentation charge: PSQ
     Using radial grid of 1279 points,  6 beta functions with: 
                l(1) =   0
                l(2) =   0
                l(3) =   1
                l(4) =   1
                l(5) =   2
                l(6) =   2
     Q(r) pseudized with 0 coefficients 


     atomic species   valence    mass     pseudopotential
        Mn            15.00    54.93800     Mn( 1.00)
        Au            11.00   196.96600     Au( 1.00)

     Starting magnetic structure 
     atomic species   magnetization
        Mn           0.000
        Au           0.000


     Full LDA+U calculation (l_max = 2) with parameters (eV):
     U(  1) =   3.1200   J(  1) =   0.7000   B(  1) =   0.0803



      4 Sym. Ops., with inversion, found



   Cartesian axes

     site n.     atom                  positions (alat units)
         1           Mn  tau(   1) = (   0.3535534  -0.3535534   0.0000000  )
         2           Mn  tau(   2) = (   0.0000000   0.0000000   0.0000000  )
         3           Mn  tau(   3) = (   0.0000000  -0.3535534   0.0000000  )
         4           Mn  tau(   4) = (   0.3535534  -0.7071068   0.0000000  )
         5           Mn  tau(   5) = (  -0.3535534  -0.3535534   0.0000000  )
         6           Mn  tau(   6) = (   0.0000000  -0.7071068   0.0000000  )
         7           Mn  tau(   7) = (  -0.3535534  -0.7071068   0.0000000  )
         8           Mn  tau(   8) = (   0.0000000  -1.0606602   0.0000000  )
         9           Au  tau(   9) = (  -0.1767767  -0.1767767  -0.1470216  )
        10           Au  tau(  10) = (   0.1767767  -0.5303301  -0.1470216  )
        11           Au  tau(  11) = (  -0.1767767  -0.5303301  -0.1470216  )
        12           Au  tau(  12) = (   0.1767767  -0.8838835  -0.1470216  )
        13           Au  tau(  13) = (  -0.5303301  -0.5303301  -0.1470216  )
        14           Au  tau(  14) = (  -0.1767767  -0.8838835  -0.1470216  )
        15           Au  tau(  15) = (   0.5303301  -0.5303301  -0.1470216  )
        16           Au  tau(  16) = (   0.1767767  -0.1767767  -0.1470216  )
        17           Au  tau(  17) = (   0.3535534  -0.3535534  -0.3124210  )
        18           Au  tau(  18) = (   0.0000000   0.0000000  -0.3124210  )
        19           Au  tau(  19) = (   0.0000000  -0.3535534  -0.3124210  )
        20           Au  tau(  20) = (   0.3535534  -0.7071068  -0.3124210  )
        21           Au  tau(  21) = (  -0.3535534  -0.3535534  -0.3124210  )
        22           Au  tau(  22) = (  -0.0000000  -0.7071068  -0.3124210  )
        23           Au  tau(  23) = (  -0.3535534  -0.7071068  -0.3124210  )
        24           Au  tau(  24) = (   0.0000000  -1.0606602  -0.3124210  )

     number of k points=    30 (tetrahedron method)
                       cart. coord. in units 2pi/alat
        k(    1) = (   0.0000000   0.0000000   0.0000000), wk =   0.0156250
        k(    2) = (   0.0000000   0.0000000  -0.5441376), wk =   0.0312500
        k(    3) = (   0.0000000   0.0000000   1.0882752), wk =   0.0156250
        k(    4) = (  -0.1767767  -0.1767767  -0.1360344), wk =   0.0312500
        k(    5) = (  -0.1767767  -0.1767767  -0.6801720), wk =   0.0312500
        k(    6) = (  -0.1767767  -0.1767767   0.9522408), wk =   0.0312500
        k(    7) = (  -0.1767767  -0.1767767   0.4081032), wk =   0.0312500
        k(    8) = (   0.3535534   0.3535534   0.2720688), wk =   0.0156250
        k(    9) = (   0.3535534   0.3535534  -0.2720688), wk =   0.0312500
        k(   10) = (   0.3535534   0.3535534   1.3603439), wk =   0.0156250
        k(   11) = (   0.1767767  -0.1767767   0.0000000), wk =   0.0312500
        k(   12) = (   0.1767767  -0.1767767  -0.5441376), wk =   0.0625000
        k(   13) = (   0.1767767  -0.1767767   1.0882752), wk =   0.0312500
        k(   14) = (   0.0000000  -0.3535534  -0.1360344), wk =   0.0625000
        k(   15) = (   0.0000000  -0.3535534  -0.6801720), wk =   0.0625000
        k(   16) = (   0.0000000  -0.3535534   0.9522408), wk =   0.0625000
        k(   17) = (   0.0000000  -0.3535534   0.4081032), wk =   0.0625000
        k(   18) = (   0.5303301   0.1767767   0.2720688), wk =   0.0312500
        k(   19) = (   0.5303301   0.1767767  -0.2720688), wk =   0.0625000
        k(   20) = (   0.5303301   0.1767767   1.3603439), wk =   0.0312500
        k(   21) = (  -0.3535534   0.3535534   0.0000000), wk =   0.0156250
        k(   22) = (  -0.3535534   0.3535534  -0.5441376), wk =   0.0312500
        k(   23) = (  -0.3535534   0.3535534   1.0882752), wk =   0.0156250
        k(   24) = (  -0.5303301   0.1767767  -0.1360344), wk =   0.0312500
        k(   25) = (  -0.5303301   0.1767767  -0.6801720), wk =   0.0312500
        k(   26) = (  -0.5303301   0.1767767   0.9522408), wk =   0.0312500
        k(   27) = (  -0.5303301   0.1767767   0.4081032), wk =   0.0312500
        k(   28) = (   0.0000000   0.7071068   0.2720688), wk =   0.0156250
        k(   29) = (   0.0000000   0.7071068  -0.2720688), wk =   0.0312500
        k(   30) = (   0.0000000   0.7071068   1.3603439), wk =   0.0156250

     Dense  grid:   362619 G-vectors     FFT dimensions: ( 120, 120,  60)

     Smooth grid:   109493 G-vectors     FFT dimensions: (  80,  80,  45)

     Estimated max dynamical RAM per process >     281.58 MB

     Estimated total dynamical RAM >       4.40 GB
     Generating pointlists ...
     new r_m :   0.1196 (alat units)  2.1549 (a.u.) for type    1
     new r_m :   0.1196 (alat units)  2.1549 (a.u.) for type    2

     Check: negative/imaginary core charge=   -0.000006    0.000000

     Initial potential from superposition of free atoms

     starting charge  295.99426, renormalised to  296.00000
     Number of +U iterations with fixed ns =  0
     Starting occupations:
 --- enter write_ns ---
 LDA+U parameters:
U(  1) =   3.1200   J(  1) =   0.7000   B(  1) =   0.0803
atom    1   Tr[ns(na)] (up, down, total) =   2.50000  2.50000  5.00000
   spin  1
    eigenvalues: 
  0.500  0.500  0.500  0.500  0.500
    eigenvectors:
  1.000  0.000  0.000  0.000  0.000
  0.000  1.000  0.000  0.000  0.000
  0.000  0.000  1.000  0.000  0.000
  0.000  0.000  0.000  1.000  0.000
  0.000  0.000  0.000  0.000  1.000
    occupations:
  0.500  0.000  0.000  0.000  0.000
  0.000  0.500  0.000  0.000  0.000
  0.000  0.000  0.500  0.000  0.000
  0.000  0.000  0.000  0.500  0.000
  0.000  0.000  0.000  0.000  0.500
   spin  2
    eigenvalues: 
  0.500  0.500  0.500  0.500  0.500
    eigenvectors:
  1.000  0.000  0.000  0.000  0.000
  0.000  1.000  0.000  0.000  0.000
  0.000  0.000  1.000  0.000  0.000
  0.000  0.000  0.000  1.000  0.000
  0.000  0.000  0.000  0.000  1.000
    occupations:
  0.500  0.000  0.000  0.000  0.000
  0.000  0.500  0.000  0.000  0.000
  0.000  0.000  0.500  0.000  0.000
  0.000  0.000  0.000  0.500  0.000
  0.000  0.000  0.000  0.000  0.500
atomic mag. moment =     0.000000
atom    2   Tr[ns(na)] (up, down, total) =   2.50000  2.50000  5.00000
   spin  1
    eigenvalues: 
  0.500  0.500  0.500  0.500  0.500
    eigenvectors:
  1.000  0.000  0.000  0.000  0.000
  0.000  1.000  0.000  0.000  0.000
  0.000  0.000  1.000  0.000  0.000
  0.000  0.000  0.000  1.000  0.000
  0.000  0.000  0.000  0.000  1.000
    occupations:
  0.500  0.000  0.000  0.000  0.000
  0.000  0.500  0.000  0.000  0.000
  0.000  0.000  0.500  0.000  0.000
  0.000  0.000  0.000  0.500  0.000
  0.000  0.000  0.000  0.000  0.500
   spin  2
    eigenvalues: 
  0.500  0.500  0.500  0.500  0.500
    eigenvectors:
  1.000  0.000  0.000  0.000  0.000
  0.000  1.000  0.000  0.000  0.000
  0.000  0.000  1.000  0.000  0.000
  0.000  0.000  0.000  1.000  0.000
  0.000  0.000  0.000  0.000  1.000
    occupations:
  0.500  0.000  0.000  0.000  0.000
  0.000  0.500  0.000  0.000  0.000
  0.000  0.000  0.500  0.000  0.000
  0.000  0.000  0.000  0.500  0.000
  0.000  0.000  0.000  0.000  0.500
atomic mag. moment =     0.000000
atom    3   Tr[ns(na)] (up, down, total) =   2.50000  2.50000  5.00000
   spin  1
    eigenvalues: 
  0.500  0.500  0.500  0.500  0.500
    eigenvectors:
  1.000  0.000  0.000  0.000  0.000
  0.000  1.000  0.000  0.000  0.000
  0.000  0.000  1.000  0.000  0.000
  0.000  0.000  0.000  1.000  0.000
  0.000  0.000  0.000  0.000  1.000
    occupations:
  0.500  0.000  0.000  0.000  0.000
  0.000  0.500  0.000  0.000  0.000
  0.000  0.000  0.500  0.000  0.000
  0.000  0.000  0.000  0.500  0.000
  0.000  0.000  0.000  0.000  0.500
   spin  2
    eigenvalues: 
  0.500  0.500  0.500  0.500  0.500
    eigenvectors:
  1.000  0.000  0.000  0.000  0.000
  0.000  1.000  0.000  0.000  0.000
  0.000  0.000  1.000  0.000  0.000
  0.000  0.000  0.000  1.000  0.000
  0.000  0.000  0.000  0.000  1.000
    occupations:
  0.500  0.000  0.000  0.000  0.000
  0.000  0.500  0.000  0.000  0.000
  0.000  0.000  0.500  0.000  0.000
  0.000  0.000  0.000  0.500  0.000
  0.000  0.000  0.000  0.000  0.500
atomic mag. moment =     0.000000
atom    4   Tr[ns(na)] (up, down, total) =   2.50000  2.50000  5.00000
   spin  1
    eigenvalues: 
  0.500  0.500  0.500  0.500  0.500
    eigenvectors:
  1.000  0.000  0.000  0.000  0.000
  0.000  1.000  0.000  0.000  0.000
  0.000  0.000  1.000  0.000  0.000
  0.000  0.000  0.000  1.000  0.000
  0.000  0.000  0.000  0.000  1.000
    occupations:
  0.500  0.000  0.000  0.000  0.000
  0.000  0.500  0.000  0.000  0.000
  0.000  0.000  0.500  0.000  0.000
  0.000  0.000  0.000  0.500  0.000
  0.000  0.000  0.000  0.000  0.500
   spin  2
    eigenvalues: 
  0.500  0.500  0.500  0.500  0.500
    eigenvectors:
  1.000  0.000  0.000  0.000  0.000
  0.000  1.000  0.000  0.000  0.000
  0.000  0.000  1.000  0.000  0.000
  0.000  0.000  0.000  1.000  0.000
  0.000  0.000  0.000  0.000  1.000
    occupations:
  0.500  0.000  0.000  0.000  0.000
  0.000  0.500  0.000  0.000  0.000
  0.000  0.000  0.500  0.000  0.000
  0.000  0.000  0.000  0.500  0.000
  0.000  0.000  0.000  0.000  0.500
atomic mag. moment =     0.000000
atom    5   Tr[ns(na)] (up, down, total) =   2.50000  2.50000  5.00000
   spin  1
    eigenvalues: 
  0.500  0.500  0.500  0.500  0.500
    eigenvectors:
  1.000  0.000  0.000  0.000  0.000
  0.000  1.000  0.000  0.000  0.000
  0.000  0.000  1.000  0.000  0.000
  0.000  0.000  0.000  1.000  0.000
  0.000  0.000  0.000  0.000  1.000
    occupations:
  0.500  0.000  0.000  0.000  0.000
  0.000  0.500  0.000  0.000  0.000
  0.000  0.000  0.500  0.000  0.000
  0.000  0.000  0.000  0.500  0.000
  0.000  0.000  0.000  0.000  0.500
   spin  2
    eigenvalues: 
  0.500  0.500  0.500  0.500  0.500
    eigenvectors:
  1.000  0.000  0.000  0.000  0.000
  0.000  1.000  0.000  0.000  0.000
  0.000  0.000  1.000  0.000  0.000
  0.000  0.000  0.000  1.000  0.000
  0.000  0.000  0.000  0.000  1.000
    occupations:
  0.500  0.000  0.000  0.000  0.000
  0.000  0.500  0.000  0.000  0.000
  0.000  0.000  0.500  0.000  0.000
  0.000  0.000  0.000  0.500  0.000
  0.000  0.000  0.000  0.000  0.500
atomic mag. moment =     0.000000
atom    6   Tr[ns(na)] (up, down, total) =   2.50000  2.50000  5.00000
   spin  1
    eigenvalues: 
  0.500  0.500  0.500  0.500  0.500
    eigenvectors:
  1.000  0.000  0.000  0.000  0.000
  0.000  1.000  0.000  0.000  0.000
  0.000  0.000  1.000  0.000  0.000
  0.000  0.000  0.000  1.000  0.000
  0.000  0.000  0.000  0.000  1.000
    occupations:
  0.500  0.000  0.000  0.000  0.000
  0.000  0.500  0.000  0.000  0.000
  0.000  0.000  0.500  0.000  0.000
  0.000  0.000  0.000  0.500  0.000
  0.000  0.000  0.000  0.000  0.500
   spin  2
    eigenvalues: 
  0.500  0.500  0.500  0.500  0.500
    eigenvectors:
  1.000  0.000  0.000  0.000  0.000
  0.000  1.000  0.000  0.000  0.000
  0.000  0.000  1.000  0.000  0.000
  0.000  0.000  0.000  1.000  0.000
  0.000  0.000  0.000  0.000  1.000
    occupations:
  0.500  0.000  0.000  0.000  0.000
  0.000  0.500  0.000  0.000  0.000
  0.000  0.000  0.500  0.000  0.000
  0.000  0.000  0.000  0.500  0.000
  0.000  0.000  0.000  0.000  0.500
atomic mag. moment =     0.000000
atom    7   Tr[ns(na)] (up, down, total) =   2.50000  2.50000  5.00000
   spin  1
    eigenvalues: 
  0.500  0.500  0.500  0.500  0.500
    eigenvectors:
  1.000  0.000  0.000  0.000  0.000
  0.000  1.000  0.000  0.000  0.000
  0.000  0.000  1.000  0.000  0.000
  0.000  0.000  0.000  1.000  0.000
  0.000  0.000  0.000  0.000  1.000
    occupations:
  0.500  0.000  0.000  0.000  0.000
  0.000  0.500  0.000  0.000  0.000
  0.000  0.000  0.500  0.000  0.000
  0.000  0.000  0.000  0.500  0.000
  0.000  0.000  0.000  0.000  0.500
   spin  2
    eigenvalues: 
  0.500  0.500  0.500  0.500  0.500
    eigenvectors:
  1.000  0.000  0.000  0.000  0.000
  0.000  1.000  0.000  0.000  0.000
  0.000  0.000  1.000  0.000  0.000
  0.000  0.000  0.000  1.000  0.000
  0.000  0.000  0.000  0.000  1.000
    occupations:
  0.500  0.000  0.000  0.000  0.000
  0.000  0.500  0.000  0.000  0.000
  0.000  0.000  0.500  0.000  0.000
  0.000  0.000  0.000  0.500  0.000
  0.000  0.000  0.000  0.000  0.500
atomic mag. moment =     0.000000
atom    8   Tr[ns(na)] (up, down, total) =   2.50000  2.50000  5.00000
   spin  1
    eigenvalues: 
  0.500  0.500  0.500  0.500  0.500
    eigenvectors:
  1.000  0.000  0.000  0.000  0.000
  0.000  1.000  0.000  0.000  0.000
  0.000  0.000  1.000  0.000  0.000
  0.000  0.000  0.000  1.000  0.000
  0.000  0.000  0.000  0.000  1.000
    occupations:
  0.500  0.000  0.000  0.000  0.000
  0.000  0.500  0.000  0.000  0.000
  0.000  0.000  0.500  0.000  0.000
  0.000  0.000  0.000  0.500  0.000
  0.000  0.000  0.000  0.000  0.500
   spin  2
    eigenvalues: 
  0.500  0.500  0.500  0.500  0.500
    eigenvectors:
  1.000  0.000  0.000  0.000  0.000
  0.000  1.000  0.000  0.000  0.000
  0.000  0.000  1.000  0.000  0.000
  0.000  0.000  0.000  1.000  0.000
  0.000  0.000  0.000  0.000  1.000
    occupations:
  0.500  0.000  0.000  0.000  0.000
  0.000  0.500  0.000  0.000  0.000
  0.000  0.000  0.500  0.000  0.000
  0.000  0.000  0.000  0.500  0.000
  0.000  0.000  0.000  0.000  0.500
atomic mag. moment =     0.000000
N of occupied +U levels =   40.000000
 --- exit write_ns ---
 Atomic wfc used for LDA+U Projector are NOT orthogonalized
     Starting wfcs are  224 randomized atomic wfcs
     Checking if some PAW data can be deallocated... 

     total cpu time spent up to now is       23.4 secs

     Self-consistent Calculation

     iteration #  1     ecut=    45.00 Ry     beta= 0.10
     Davidson diagonalization with overlap
     ethr =  1.00E-02,  avg # of iterations =  2.6
 --- enter write_ns ---
 LDA+U parameters:
U(  1) =   3.1200   J(  1) =   0.7000   B(  1) =   0.0803
atom    1   Tr[ns(na)] (up, down, total) =   4.31956  4.32553  8.64509
   spin  1
    eigenvalues: 
  0.788  0.832  0.836  0.875  0.989
    eigenvectors:
  0.000  0.000  0.011  0.989  0.000
  0.004  0.500  0.491  0.005  0.000
  0.004  0.500  0.491  0.005  0.000
  0.000  0.000  0.000  0.000  1.000
  0.992  0.000  0.007  0.001  0.000
    occupations:
  0.874  0.003  0.003 -0.000 -0.002
  0.003  0.834  0.002 -0.000 -0.003
  0.003  0.002  0.834  0.000 -0.003
 -0.000 -0.000  0.000  0.989 -0.000
 -0.002 -0.003 -0.003 -0.000  0.789
   spin  2
    eigenvalues: 
  0.790  0.833  0.835  0.878  0.989
    eigenvectors:
  0.001  0.000  0.001  0.998  0.000
  0.002  0.500  0.498  0.000  0.000
  0.002  0.500  0.498  0.000  0.000
  0.000  0.000  0.000  0.000  1.000
  0.995  0.000  0.004  0.001  0.000
    occupations:
  0.878  0.001  0.001 -0.000 -0.003
  0.001  0.834  0.001 -0.000 -0.002
  0.001  0.001  0.834  0.000 -0.002
 -0.000 -0.000  0.000  0.989 -0.000
 -0.003 -0.002 -0.002 -0.000  0.791
atomic mag. moment =    -0.005975
atom    2   Tr[ns(na)] (up, down, total) =   4.33007  4.33087  8.66094
   spin  1
    eigenvalues: 
  0.789  0.833  0.838  0.880  0.989
    eigenvectors:
  0.001  0.013  0.000  0.987  0.000
  0.000  0.493  0.500  0.006  0.000
  0.000  0.493  0.500  0.006  0.000
  0.000  0.000  0.000  0.000  1.000
  0.999  0.000  0.000  0.001  0.000
    occupations:
  0.880  0.004  0.004 -0.000 -0.002
  0.004  0.836 -0.003  0.001  0.000
  0.004 -0.003  0.836 -0.001  0.000
 -0.000  0.001 -0.001  0.989 -0.000
 -0.002  0.000  0.000 -0.000  0.790
   spin  2
    eigenvalues: 
  0.792  0.833  0.839  0.878  0.989
    eigenvectors:
  0.000  0.000  0.002  0.998  0.000
  0.000  0.500  0.499  0.001  0.000
  0.000  0.500  0.499  0.001  0.000
  0.000  0.000  0.000  0.000  1.000
  0.999  0.000  0.001  0.000  0.000
    occupations:
  0.877  0.001  0.001 -0.000  0.001
  0.001  0.836  0.003  0.002 -0.001
  0.001  0.003  0.836 -0.002 -0.001
 -0.000  0.002 -0.002  0.989 -0.000
  0.001 -0.001 -0.001 -0.000  0.792
atomic mag. moment =    -0.000804
atom    3   Tr[ns(na)] (up, down, total) =   4.33686  4.33558  8.67244
   spin  1
    eigenvalues: 
  0.794  0.836  0.837  0.881  0.989
    eigenvectors:
  0.000  0.001  0.004  0.995  0.000
  0.001  0.650  0.345  0.004  0.000
  0.001  0.349  0.648  0.001  0.000
  0.000  0.000  0.000  0.000  1.000
  0.998  0.000  0.002  0.000  0.000
    occupations:
  0.881  0.003  0.002 -0.001  0.000
  0.003  0.836  0.001  0.001 -0.001
  0.002  0.001  0.837 -0.001 -0.002
 -0.001  0.001 -0.001  0.989 -0.001
  0.000 -0.001 -0.002 -0.001  0.794
   spin  2
    eigenvalues: 
  0.794  0.835  0.837  0.880  0.989
    eigenvectors:
  0.000  0.004  0.006  0.989  0.000
  0.001  0.027  0.967  0.005  0.000
  0.000  0.968  0.025  0.006  0.000
  0.000  0.000  0.000  0.000  1.000
  0.998  0.000  0.002  0.000  0.000
    occupations:
  0.879  0.003  0.003  0.000 -0.000
  0.003  0.837  0.000  0.001 -0.002
  0.003  0.000  0.836 -0.001 -0.001
  0.000  0.001 -0.001  0.989  0.001
 -0.000 -0.002 -0.001  0.001  0.794
atomic mag. moment =     0.001284
atom    4   Tr[ns(na)] (up, down, total) =   4.33686  4.33558  8.67244
   spin  1
    eigenvalues: 
  0.794  0.836  0.837  0.881  0.989
    eigenvectors:
  0.000  0.001  0.004  0.995  0.000
  0.001  0.349  0.648  0.001  0.000
  0.001  0.650  0.345  0.004  0.000
  0.000  0.000  0.000  0.000  1.000
  0.998  0.000  0.002  0.000  0.000
    occupations:
  0.881  0.002  0.003  0.001  0.000
  0.002  0.837  0.001  0.001 -0.002
  0.003  0.001  0.836 -0.001 -0.001
  0.001  0.001 -0.001  0.989  0.001
  0.000 -0.002 -0.001  0.001  0.794
   spin  2
    eigenvalues: 
  0.794  0.835  0.837  0.880  0.989
    eigenvectors:
  0.000  0.004  0.006  0.989  0.000
  0.000  0.968  0.025  0.006  0.000
  0.001  0.027  0.967  0.005  0.000
  0.000  0.000  0.000  0.000  1.000
  0.998  0.000  0.002  0.000  0.000
    occupations:
  0.879  0.003  0.003 -0.000 -0.000
  0.003  0.836  0.000  0.001 -0.001
  0.003  0.000  0.837 -0.001 -0.002
 -0.000  0.001 -0.001  0.989 -0.001
 -0.000 -0.001 -0.002 -0.001  0.794
atomic mag. moment =     0.001284
atom    5   Tr[ns(na)] (up, down, total) =   4.33817  4.33873  8.67690
   spin  1
    eigenvalues: 
  0.792  0.837  0.838  0.881  0.989
    eigenvectors:
  0.000  0.001  0.000  0.999  0.000
  0.005  0.494  0.500  0.001  0.000
  0.005  0.494  0.500  0.001  0.000
  0.000  0.000  0.000  0.000  1.000
  0.990  0.010  0.000  0.000  0.000
    occupations:
  0.881  0.001  0.001 -0.000  0.000
  0.001  0.837 -0.000 -0.001 -0.003
  0.001 -0.000  0.837  0.001 -0.003
 -0.000 -0.001  0.001  0.989 -0.000
  0.000 -0.003 -0.003 -0.000  0.793
   spin  2
    eigenvalues: 
  0.792  0.838  0.839  0.881  0.989
    eigenvectors:
  0.000  0.000  0.001  0.999  0.000
  0.004  0.500  0.496  0.000  0.000
  0.004  0.500  0.496  0.000  0.000
  0.000  0.000  0.000  0.000  1.000
  0.992  0.000  0.008  0.000  0.000
    occupations:
  0.881  0.001  0.001 -0.000 -0.001
  0.001  0.838  0.001 -0.000 -0.003
  0.001  0.001  0.838  0.000 -0.003
 -0.000 -0.000  0.000  0.989 -0.000
 -0.001 -0.003 -0.003 -0.000  0.792
atomic mag. moment =    -0.000562
atom    6   Tr[ns(na)] (up, down, total) =   4.31405  4.31670  8.63075
   spin  1
    eigenvalues: 
  0.790  0.831  0.832  0.872  0.989
    eigenvectors:
  0.000  0.014  0.000  0.986  0.000
  0.004  0.489  0.500  0.007  0.000
  0.004  0.489  0.500  0.007  0.000
  0.000  0.000  0.000  0.000  1.000
  0.992  0.008  0.000  0.000  0.000
    occupations:
  0.871  0.003  0.003 -0.000 -0.000
  0.003  0.832 -0.000 -0.001 -0.003
  0.003 -0.000  0.832  0.001 -0.003
 -0.000 -0.001  0.001  0.989 -0.000
 -0.000 -0.003 -0.003 -0.000  0.790
   spin  2
    eigenvalues: 
  0.791  0.831  0.832  0.873  0.989
    eigenvectors:
  0.000  0.001  0.000  0.999  0.000
  0.007  0.492  0.500  0.001  0.000
  0.007  0.492  0.500  0.001  0.000
  0.000  0.000  0.000  0.000  1.000
  0.985  0.014  0.000  0.000  0.000
    occupations:
  0.873 -0.001 -0.001 -0.000  0.002
 -0.001  0.831 -0.001  0.001 -0.003
 -0.001 -0.001  0.831 -0.001 -0.003
 -0.000  0.001 -0.001  0.989 -0.000
  0.002 -0.003 -0.003 -0.000  0.792
atomic mag. moment =    -0.002651
atom    7   Tr[ns(na)] (up, down, total) =   4.33686  4.33558  8.67244
   spin  1
    eigenvalues: 
  0.794  0.836  0.837  0.881  0.989
    eigenvectors:
  0.000  0.001  0.004  0.995  0.000
  0.001  0.349  0.648  0.001  0.000
  0.001  0.650  0.345  0.004  0.000
  0.000  0.000  0.000  0.000  1.000
  0.998  0.000  0.002  0.000  0.000
    occupations:
  0.881  0.002  0.003  0.001  0.000
  0.002  0.837  0.001  0.001 -0.002
  0.003  0.001  0.836 -0.001 -0.001
  0.001  0.001 -0.001  0.989  0.001
  0.000 -0.002 -0.001  0.001  0.794
   spin  2
    eigenvalues: 
  0.794  0.835  0.837  0.880  0.989
    eigenvectors:
  0.000  0.004  0.006  0.989  0.000
  0.000  0.968  0.025  0.006  0.000
  0.001  0.027  0.967  0.005  0.000
  0.000  0.000  0.000  0.000  1.000
  0.998  0.000  0.002  0.000  0.000
    occupations:
  0.879  0.003  0.003 -0.000 -0.000
  0.003  0.836  0.000  0.001 -0.001
  0.003  0.000  0.837 -0.001 -0.002
 -0.000  0.001 -0.001  0.989 -0.001
 -0.000 -0.001 -0.002 -0.001  0.794
atomic mag. moment =     0.001284
atom    8   Tr[ns(na)] (up, down, total) =   4.33686  4.33558  8.67244
   spin  1
    eigenvalues: 
  0.794  0.836  0.837  0.881  0.989
    eigenvectors:
  0.000  0.001  0.004  0.995  0.000
  0.001  0.650  0.345  0.004  0.000
  0.001  0.349  0.648  0.001  0.000
  0.000  0.000  0.000  0.000  1.000
  0.998  0.000  0.002  0.000  0.000
    occupations:
  0.881  0.003  0.002 -0.001  0.000
  0.003  0.836  0.001  0.001 -0.001
  0.002  0.001  0.837 -0.001 -0.002
 -0.001  0.001 -0.001  0.989 -0.001
  0.000 -0.001 -0.002 -0.001  0.794
   spin  2
    eigenvalues: 
  0.794  0.835  0.837  0.880  0.989
    eigenvectors:
  0.000  0.004  0.006  0.989  0.000
  0.001  0.027  0.967  0.005  0.000
  0.000  0.968  0.025  0.006  0.000
  0.000  0.000  0.000  0.000  1.000
  0.998  0.000  0.002  0.000  0.000
    occupations:
  0.879  0.003  0.003  0.000 -0.000
  0.003  0.837  0.000  0.001 -0.002
  0.003  0.000  0.836 -0.001 -0.001
  0.000  0.001 -0.001  0.989  0.001
 -0.000 -0.002 -0.001  0.001  0.794
atomic mag. moment =     0.001284
N of occupied +U levels =   69.303444
 --- exit write_ns ---

     total cpu time spent up to now is       71.4 secs

     total energy              =  -14687.22323386 Ry
     Harris-Foulkes estimate   =  -14694.22002230 Ry
     estimated scf accuracy    <      43.80014595 Ry

     total magnetization       =    -0.01 Bohr mag/cell
     absolute magnetization    =     0.10 Bohr mag/cell

     iteration #  2     ecut=    45.00 Ry     beta= 0.10
     Davidson diagonalization with overlap
     ethr =  1.00E-02,  avg # of iterations =  2.0

     total cpu time spent up to now is      113.8 secs

     total energy              =  -14691.49904785 Ry
     Harris-Foulkes estimate   =  -14691.96677784 Ry
     estimated scf accuracy    <       5.05612759 Ry

     total magnetization       =     0.06 Bohr mag/cell
     absolute magnetization    =     0.27 Bohr mag/cell

     iteration #  3     ecut=    45.00 Ry     beta= 0.10
     Davidson diagonalization with overlap
     ethr =  1.71E-03,  avg # of iterations =  2.1

     total cpu time spent up to now is      156.2 secs

     total energy              =  -14691.58146918 Ry
     Harris-Foulkes estimate   =  -14691.77020983 Ry
     estimated scf accuracy    <       6.85716134 Ry

     total magnetization       =     0.01 Bohr mag/cell
     absolute magnetization    =     0.26 Bohr mag/cell

     iteration #  4     ecut=    45.00 Ry     beta= 0.10
     Davidson diagonalization with overlap
     ethr =  1.71E-03,  avg # of iterations =  1.1

     total cpu time spent up to now is      193.2 secs

     total energy              =  -14691.55490247 Ry
     Harris-Foulkes estimate   =  -14691.72940993 Ry
     estimated scf accuracy    <       3.86605738 Ry

     total magnetization       =     0.05 Bohr mag/cell
     absolute magnetization    =     0.29 Bohr mag/cell

     iteration #  5     ecut=    45.00 Ry     beta= 0.10
     Davidson diagonalization with overlap
     ethr =  1.31E-03,  avg # of iterations =  1.1

     total cpu time spent up to now is      230.6 secs

     total energy              =  -14691.57424417 Ry
     Harris-Foulkes estimate   =  -14691.84757077 Ry
     estimated scf accuracy    <      11.15396158 Ry

     total magnetization       =    -0.04 Bohr mag/cell
     absolute magnetization    =     0.28 Bohr mag/cell

     iteration #  6     ecut=    45.00 Ry     beta= 0.10
     Davidson diagonalization with overlap
     ethr =  1.31E-03,  avg # of iterations =  1.1

     total cpu time spent up to now is      267.6 secs

     total energy              =  -14691.74584700 Ry
     Harris-Foulkes estimate   =  -14691.78692895 Ry
     estimated scf accuracy    <       2.58565416 Ry

     total magnetization       =     0.05 Bohr mag/cell
     absolute magnetization    =     0.57 Bohr mag/cell

     iteration #  7     ecut=    45.00 Ry     beta= 0.10
     Davidson diagonalization with overlap
     ethr =  8.74E-04,  avg # of iterations =  1.1

     total cpu time spent up to now is      304.7 secs

     total energy              =  -14691.71508736 Ry
     Harris-Foulkes estimate   =  -14691.77096741 Ry
     estimated scf accuracy    <       0.88154254 Ry

     total magnetization       =     0.06 Bohr mag/cell
     absolute magnetization    =     0.70 Bohr mag/cell

     iteration #  8     ecut=    45.00 Ry     beta= 0.10
     Davidson diagonalization with overlap
     ethr =  2.98E-04,  avg # of iterations =  1.9

     total cpu time spent up to now is      346.1 secs

     total energy              =  -14691.82057604 Ry
     Harris-Foulkes estimate   =  -14691.75414977 Ry
     estimated scf accuracy    <       0.24795406 Ry

     total magnetization       =     0.11 Bohr mag/cell
     absolute magnetization    =     1.09 Bohr mag/cell

     iteration #  9     ecut=    45.00 Ry     beta= 0.10
     Davidson diagonalization with overlap
     ethr =  8.38E-05,  avg # of iterations =  3.2

     total cpu time spent up to now is      396.4 secs

     total energy              =  -14691.88147296 Ry
     Harris-Foulkes estimate   =  -14691.88256713 Ry
     estimated scf accuracy    <       0.75051031 Ry

     total magnetization       =     0.06 Bohr mag/cell
     absolute magnetization    =     2.75 Bohr mag/cell

     iteration # 10     ecut=    45.00 Ry     beta= 0.10
     Davidson diagonalization with overlap
     ethr =  8.38E-05,  avg # of iterations =  1.0

     total cpu time spent up to now is      433.4 secs

     total energy              =  -14691.83358814 Ry
     Harris-Foulkes estimate   =  -14691.88739860 Ry
     estimated scf accuracy    <       0.62974190 Ry

     total magnetization       =    -0.05 Bohr mag/cell
     absolute magnetization    =     3.06 Bohr mag/cell

     iteration # 11     ecut=    45.00 Ry     beta= 0.10
     Davidson diagonalization with overlap
     ethr =  8.38E-05,  avg # of iterations =  2.6

     total cpu time spent up to now is      479.7 secs

     total energy              =  -14691.87631598 Ry
     Harris-Foulkes estimate   =  -14691.87746637 Ry
     estimated scf accuracy    <       0.17412662 Ry

     total magnetization       =    -0.23 Bohr mag/cell
     absolute magnetization    =     3.82 Bohr mag/cell

     iteration # 12     ecut=    45.00 Ry     beta= 0.10
     Davidson diagonalization with overlap
     ethr =  5.88E-05,  avg # of iterations =  1.1

     total cpu time spent up to now is      516.9 secs

     total energy              =  -14691.86031208 Ry
     Harris-Foulkes estimate   =  -14691.87894589 Ry
     estimated scf accuracy    <       0.19886340 Ry

     total magnetization       =    -0.23 Bohr mag/cell
     absolute magnetization    =     3.92 Bohr mag/cell

     iteration # 13     ecut=    45.00 Ry     beta= 0.10
     Davidson diagonalization with overlap
     ethr =  5.88E-05,  avg # of iterations =  1.0

     total cpu time spent up to now is      553.5 secs

     total energy              =  -14691.88326022 Ry
     Harris-Foulkes estimate   =  -14691.87185360 Ry
     estimated scf accuracy    <       0.26166160 Ry

     total magnetization       =     0.35 Bohr mag/cell
     absolute magnetization    =     2.57 Bohr mag/cell

     iteration # 14     ecut=    45.00 Ry     beta= 0.10
     Davidson diagonalization with overlap
     ethr =  5.88E-05,  avg # of iterations =  1.0

     total cpu time spent up to now is      590.1 secs

     total energy              =  -14691.89591506 Ry
     Harris-Foulkes estimate   =  -14691.89448197 Ry
     estimated scf accuracy    <       0.10944312 Ry

     total magnetization       =     1.46 Bohr mag/cell
     absolute magnetization    =     2.78 Bohr mag/cell

     iteration # 15     ecut=    45.00 Ry     beta= 0.10
     Davidson diagonalization with overlap
     ethr =  3.70E-05,  avg # of iterations =  1.0

     total cpu time spent up to now is      626.9 secs

     total energy              =  -14691.90172726 Ry
     Harris-Foulkes estimate   =  -14691.89624233 Ry
     estimated scf accuracy    <       0.11008432 Ry

     total magnetization       =     1.65 Bohr mag/cell
     absolute magnetization    =     2.94 Bohr mag/cell

     iteration # 16     ecut=    45.00 Ry     beta= 0.10
     Davidson diagonalization with overlap
     ethr =  3.70E-05,  avg # of iterations =  1.0

     total cpu time spent up to now is      663.6 secs

     total energy              =  -14691.88533571 Ry
     Harris-Foulkes estimate   =  -14691.90338908 Ry
     estimated scf accuracy    <       0.10227782 Ry

     total magnetization       =     1.81 Bohr mag/cell
     absolute magnetization    =     3.39 Bohr mag/cell

     iteration # 17     ecut=    45.00 Ry     beta= 0.10
     Davidson diagonalization with overlap
     ethr =  3.46E-05,  avg # of iterations =  1.0

     total cpu time spent up to now is      700.3 secs

     total energy              =  -14691.87853542 Ry
     Harris-Foulkes estimate   =  -14691.89036048 Ry
     estimated scf accuracy    <       0.13556958 Ry

     total magnetization       =     1.13 Bohr mag/cell
     absolute magnetization    =     2.39 Bohr mag/cell

     iteration # 18     ecut=    45.00 Ry     beta= 0.10
     Davidson diagonalization with overlap
     ethr =  3.46E-05,  avg # of iterations =  1.0

     total cpu time spent up to now is      737.1 secs

     total energy              =  -14691.89282900 Ry
     Harris-Foulkes estimate   =  -14691.88912030 Ry
     estimated scf accuracy    <       0.07325405 Ry

     total magnetization       =     0.07 Bohr mag/cell
     absolute magnetization    =     2.05 Bohr mag/cell

     iteration # 19     ecut=    45.00 Ry     beta= 0.10
     Davidson diagonalization with overlap
     ethr =  2.47E-05,  avg # of iterations =  1.0

     total cpu time spent up to now is      773.8 secs

     total energy              =  -14691.87490076 Ry
     Harris-Foulkes estimate   =  -14691.89421505 Ry
     estimated scf accuracy    <       0.04901003 Ry

     total magnetization       =     0.30 Bohr mag/cell
     absolute magnetization    =     2.42 Bohr mag/cell

     iteration # 20     ecut=    45.00 Ry     beta= 0.10
     Davidson diagonalization with overlap
     ethr =  1.66E-05,  avg # of iterations =  1.0

     total cpu time spent up to now is      810.7 secs

     total energy              =  -14691.87672089 Ry
     Harris-Foulkes estimate   =  -14691.88253957 Ry
     estimated scf accuracy    <       0.12162502 Ry

     total magnetization       =     0.32 Bohr mag/cell
     absolute magnetization    =     1.24 Bohr mag/cell

     iteration # 21     ecut=    45.00 Ry     beta= 0.10
     Davidson diagonalization with overlap
     ethr =  1.66E-05,  avg # of iterations =  1.0

     total cpu time spent up to now is      847.4 secs

     total energy              =  -14691.88180585 Ry
     Harris-Foulkes estimate   =  -14691.87955814 Ry
     estimated scf accuracy    <       0.05176491 Ry

     total magnetization       =     0.09 Bohr mag/cell
     absolute magnetization    =     0.96 Bohr mag/cell

     iteration # 22     ecut=    45.00 Ry     beta= 0.10
     Davidson diagonalization with overlap
     ethr =  1.66E-05,  avg # of iterations =  1.0

     total cpu time spent up to now is      884.2 secs

     total energy              =  -14691.88348884 Ry
     Harris-Foulkes estimate   =  -14691.88371600 Ry
     estimated scf accuracy    <       0.02375639 Ry

     total magnetization       =     0.32 Bohr mag/cell
     absolute magnetization    =     1.33 Bohr mag/cell

     iteration # 23     ecut=    45.00 Ry     beta= 0.10
     Davidson diagonalization with overlap
     ethr =  8.03E-06,  avg # of iterations =  1.1

     total cpu time spent up to now is      921.7 secs

     total energy              =  -14691.88098985 Ry
     Harris-Foulkes estimate   =  -14691.88364547 Ry
     estimated scf accuracy    <       0.02219115 Ry

     total magnetization       =     0.34 Bohr mag/cell
     absolute magnetization    =     1.35 Bohr mag/cell

     iteration # 24     ecut=    45.00 Ry     beta= 0.10
     Davidson diagonalization with overlap
     ethr =  7.50E-06,  avg # of iterations =  1.0

     total cpu time spent up to now is      958.3 secs

     total energy              =  -14691.88090642 Ry
     Harris-Foulkes estimate   =  -14691.88177077 Ry
     estimated scf accuracy    <       0.02597657 Ry

     total magnetization       =     0.02 Bohr mag/cell
     absolute magnetization    =     1.34 Bohr mag/cell

     iteration # 25     ecut=    45.00 Ry     beta= 0.10
     Davidson diagonalization with overlap
     ethr =  7.50E-06,  avg # of iterations =  1.2

     total cpu time spent up to now is      995.8 secs

     total energy              =  -14691.88239906 Ry
     Harris-Foulkes estimate   =  -14691.88122217 Ry
     estimated scf accuracy    <       0.02657689 Ry

     total magnetization       =    -0.14 Bohr mag/cell
     absolute magnetization    =     1.42 Bohr mag/cell

     iteration # 26     ecut=    45.00 Ry     beta= 0.10
     Davidson diagonalization with overlap
     ethr =  7.50E-06,  avg # of iterations =  1.0

     total cpu time spent up to now is     1032.4 secs

     total energy              =  -14691.87729158 Ry
     Harris-Foulkes estimate   =  -14691.88268010 Ry
     estimated scf accuracy    <       0.02681733 Ry

     total magnetization       =    -0.03 Bohr mag/cell
     absolute magnetization    =     1.46 Bohr mag/cell

     iteration # 27     ecut=    45.00 Ry     beta= 0.10
     Davidson diagonalization with overlap
     ethr =  7.50E-06,  avg # of iterations =  1.1

     total cpu time spent up to now is     1070.0 secs

     total energy              =  -14691.88063892 Ry
     Harris-Foulkes estimate   =  -14691.87905871 Ry
     estimated scf accuracy    <       0.01455381 Ry

     total magnetization       =     0.32 Bohr mag/cell
     absolute magnetization    =     0.83 Bohr mag/cell

     iteration # 28     ecut=    45.00 Ry     beta= 0.10
     Davidson diagonalization with overlap
     ethr =  4.92E-06,  avg # of iterations =  1.2

     total cpu time spent up to now is     1107.8 secs

     total energy              =  -14691.88069657 Ry
     Harris-Foulkes estimate   =  -14691.88108398 Ry
     estimated scf accuracy    <       0.02094467 Ry

     total magnetization       =     0.47 Bohr mag/cell
     absolute magnetization    =     0.97 Bohr mag/cell

     iteration # 29     ecut=    45.00 Ry     beta= 0.10
     Davidson diagonalization with overlap
     ethr =  4.92E-06,  avg # of iterations =  1.0

     total cpu time spent up to now is     1144.5 secs

     total energy              =  -14691.88053859 Ry
     Harris-Foulkes estimate   =  -14691.88081321 Ry
     estimated scf accuracy    <       0.01950307 Ry

     total magnetization       =     0.43 Bohr mag/cell
     absolute magnetization    =     0.97 Bohr mag/cell

     iteration # 30     ecut=    45.00 Ry     beta= 0.10
     Davidson diagonalization with overlap
     ethr =  4.92E-06,  avg # of iterations =  1.0

     total cpu time spent up to now is     1181.1 secs

     total energy              =  -14691.88039607 Ry
     Harris-Foulkes estimate   =  -14691.88057389 Ry
     estimated scf accuracy    <       0.02204835 Ry

     total magnetization       =     0.37 Bohr mag/cell
     absolute magnetization    =     0.94 Bohr mag/cell

     iteration # 31     ecut=    45.00 Ry     beta= 0.10
     Davidson diagonalization with overlap
     ethr =  4.92E-06,  avg # of iterations =  1.0

     total cpu time spent up to now is     1217.7 secs

     total energy              =  -14691.88047279 Ry
     Harris-Foulkes estimate   =  -14691.88075702 Ry
     estimated scf accuracy    <       0.01967801 Ry

     total magnetization       =     0.45 Bohr mag/cell
     absolute magnetization    =     0.96 Bohr mag/cell

     iteration # 32     ecut=    45.00 Ry     beta= 0.10
     Davidson diagonalization with overlap
     ethr =  4.92E-06,  avg # of iterations =  1.0

     total cpu time spent up to now is     1254.3 secs

     total energy              =  -14691.88067388 Ry
     Harris-Foulkes estimate   =  -14691.88050030 Ry
     estimated scf accuracy    <       0.01755953 Ry

     total magnetization       =     0.41 Bohr mag/cell
     absolute magnetization    =     0.94 Bohr mag/cell

     iteration # 33     ecut=    45.00 Ry     beta= 0.10
     Davidson diagonalization with overlap
     ethr =  4.92E-06,  avg # of iterations =  1.0

     total cpu time spent up to now is     1290.9 secs

     total energy              =  -14691.87944464 Ry
     Harris-Foulkes estimate   =  -14691.88068155 Ry
     estimated scf accuracy    <       0.01797263 Ry

     total magnetization       =     0.44 Bohr mag/cell
     absolute magnetization    =     0.98 Bohr mag/cell

     iteration # 34     ecut=    45.00 Ry     beta= 0.10
     Davidson diagonalization with overlap
     ethr =  4.92E-06,  avg # of iterations =  1.1

     total cpu time spent up to now is     1328.4 secs

     total energy              =  -14691.87993258 Ry
     Harris-Foulkes estimate   =  -14691.87967430 Ry
     estimated scf accuracy    <       0.01449401 Ry

     total magnetization       =     0.34 Bohr mag/cell
     absolute magnetization    =     0.87 Bohr mag/cell

     iteration # 35     ecut=    45.00 Ry     beta= 0.10
     Davidson diagonalization with overlap
     ethr =  4.90E-06,  avg # of iterations =  1.0

     total cpu time spent up to now is     1365.0 secs

     total energy              =  -14691.88015206 Ry
     Harris-Foulkes estimate   =  -14691.87996458 Ry
     estimated scf accuracy    <       0.01457420 Ry

     total magnetization       =     0.42 Bohr mag/cell
     absolute magnetization    =     0.92 Bohr mag/cell

     iteration # 36     ecut=    45.00 Ry     beta= 0.10
     Davidson diagonalization with overlap
     ethr =  4.90E-06,  avg # of iterations =  1.0

     total cpu time spent up to now is     1401.6 secs

     total energy              =  -14691.88128662 Ry
     Harris-Foulkes estimate   =  -14691.88046979 Ry
     estimated scf accuracy    <       0.01738243 Ry

     total magnetization       =     0.11 Bohr mag/cell
     absolute magnetization    =     0.97 Bohr mag/cell

     iteration # 37     ecut=    45.00 Ry     beta= 0.10
     Davidson diagonalization with overlap
     ethr =  4.90E-06,  avg # of iterations =  1.0

     total cpu time spent up to now is     1438.3 secs

     total energy              =  -14691.88062994 Ry
     Harris-Foulkes estimate   =  -14691.88147297 Ry
     estimated scf accuracy    <       0.01698491 Ry

     total magnetization       =     0.31 Bohr mag/cell
     absolute magnetization    =     1.09 Bohr mag/cell

     iteration # 38     ecut=    45.00 Ry     beta= 0.10
     Davidson diagonalization with overlap
     ethr =  4.90E-06,  avg # of iterations =  1.0

     total cpu time spent up to now is     1474.9 secs

     total energy              =  -14691.88061554 Ry
     Harris-Foulkes estimate   =  -14691.88123383 Ry
     estimated scf accuracy    <       0.02243308 Ry

     total magnetization       =     0.24 Bohr mag/cell
     absolute magnetization    =     1.04 Bohr mag/cell

     iteration # 39     ecut=    45.00 Ry     beta= 0.10
     Davidson diagonalization with overlap
     ethr =  4.90E-06,  avg # of iterations =  1.0

     total cpu time spent up to now is     1511.6 secs

     total energy              =  -14691.88051965 Ry
     Harris-Foulkes estimate   =  -14691.88069748 Ry
     estimated scf accuracy    <       0.01642885 Ry

     total magnetization       =     0.32 Bohr mag/cell
     absolute magnetization    =     1.01 Bohr mag/cell

     iteration # 40     ecut=    45.00 Ry     beta= 0.10
     Davidson diagonalization with overlap
     ethr =  4.90E-06,  avg # of iterations =  1.0

     total cpu time spent up to now is     1548.2 secs

     total energy              =  -14691.88059491 Ry
     Harris-Foulkes estimate   =  -14691.88056229 Ry
     estimated scf accuracy    <       0.01755400 Ry

     total magnetization       =     0.41 Bohr mag/cell
     absolute magnetization    =     1.00 Bohr mag/cell

     iteration # 41     ecut=    45.00 Ry     beta= 0.10
     Davidson diagonalization with overlap
     ethr =  4.90E-06,  avg # of iterations =  1.3

     total cpu time spent up to now is     1586.3 secs

     total energy              =  -14691.88042155 Ry
     Harris-Foulkes estimate   =  -14691.88066197 Ry
     estimated scf accuracy    <       0.01812329 Ry

     total magnetization       =     0.43 Bohr mag/cell
     absolute magnetization    =     0.98 Bohr mag/cell

     iteration # 42     ecut=    45.00 Ry     beta= 0.10
     Davidson diagonalization with overlap
     ethr =  4.90E-06,  avg # of iterations =  1.1

     total cpu time spent up to now is     1623.6 secs

     total energy              =  -14691.88135475 Ry
     Harris-Foulkes estimate   =  -14691.88050439 Ry
     estimated scf accuracy    <       0.01529467 Ry

     total magnetization       =     0.48 Bohr mag/cell
     absolute magnetization    =     1.01 Bohr mag/cell

     iteration # 43     ecut=    45.00 Ry     beta= 0.10
     Davidson diagonalization with overlap
     ethr =  4.90E-06,  avg # of iterations =  1.0

     total cpu time spent up to now is     1660.2 secs

     total energy              =  -14691.88144544 Ry
     Harris-Foulkes estimate   =  -14691.88146177 Ry
     estimated scf accuracy    <       0.01872340 Ry

     total magnetization       =     0.38 Bohr mag/cell
     absolute magnetization    =     1.00 Bohr mag/cell

     iteration # 44     ecut=    45.00 Ry     beta= 0.10
     Davidson diagonalization with overlap
     ethr =  4.90E-06,  avg # of iterations =  1.0

     total cpu time spent up to now is     1697.1 secs

     total energy              =  -14691.87909275 Ry
     Harris-Foulkes estimate   =  -14691.88145040 Ry
     estimated scf accuracy    <       0.02046855 Ry

     total magnetization       =     0.41 Bohr mag/cell
     absolute magnetization    =     1.01 Bohr mag/cell

     iteration # 45     ecut=    45.00 Ry     beta= 0.10
     Davidson diagonalization with overlap
     ethr =  4.90E-06,  avg # of iterations =  1.0

     total cpu time spent up to now is     1733.7 secs

     total energy              =  -14691.88147588 Ry
     Harris-Foulkes estimate   =  -14691.87984246 Ry
     estimated scf accuracy    <       0.01423067 Ry

     total magnetization       =     0.11 Bohr mag/cell
     absolute magnetization    =     0.96 Bohr mag/cell

     iteration # 46     ecut=    45.00 Ry     beta= 0.10
     Davidson diagonalization with overlap
     ethr =  4.81E-06,  avg # of iterations =  1.0

     total cpu time spent up to now is     1770.3 secs

     total energy              =  -14691.87902733 Ry
     Harris-Foulkes estimate   =  -14691.88167550 Ry
     estimated scf accuracy    <       0.01944347 Ry

     total magnetization       =     0.02 Bohr mag/cell
     absolute magnetization    =     1.14 Bohr mag/cell

     iteration # 47     ecut=    45.00 Ry     beta= 0.10
     Davidson diagonalization with overlap
     ethr =  4.81E-06,  avg # of iterations =  1.1

     total cpu time spent up to now is     1807.7 secs

     total energy              =  -14691.87943399 Ry
     Harris-Foulkes estimate   =  -14691.87967769 Ry
     estimated scf accuracy    <       0.02160357 Ry

     total magnetization       =    -0.12 Bohr mag/cell
     absolute magnetization    =     1.03 Bohr mag/cell

     iteration # 48     ecut=    45.00 Ry     beta= 0.10
     Davidson diagonalization with overlap
     ethr =  4.81E-06,  avg # of iterations =  1.0

     total cpu time spent up to now is     1844.3 secs

     total energy              =  -14691.87955734 Ry
     Harris-Foulkes estimate   =  -14691.87958285 Ry
     estimated scf accuracy    <       0.02068939 Ry

     total magnetization       =    -0.08 Bohr mag/cell
     absolute magnetization    =     1.00 Bohr mag/cell

     iteration # 49     ecut=    45.00 Ry     beta= 0.10
     Davidson diagonalization with overlap
     ethr =  4.81E-06,  avg # of iterations =  1.0

     total cpu time spent up to now is     1880.9 secs

     total energy              =  -14691.87963224 Ry
     Harris-Foulkes estimate   =  -14691.87959975 Ry
     estimated scf accuracy    <       0.01577492 Ry

     total magnetization       =    -0.06 Bohr mag/cell
     absolute magnetization    =     1.01 Bohr mag/cell

     iteration # 50     ecut=    45.00 Ry     beta= 0.10
     Davidson diagonalization with overlap
     ethr =  4.81E-06,  avg # of iterations =  1.5

     total cpu time spent up to now is     1920.0 secs

     total energy              =  -14691.87973590 Ry
     Harris-Foulkes estimate   =  -14691.87977481 Ry
     estimated scf accuracy    <       0.01730319 Ry

     total magnetization       =     0.12 Bohr mag/cell
     absolute magnetization    =     1.03 Bohr mag/cell

     iteration # 51     ecut=    45.00 Ry     beta= 0.10
     Davidson diagonalization with overlap
     ethr =  4.81E-06,  avg # of iterations =  1.0

     total cpu time spent up to now is     1956.5 secs

     total energy              =  -14691.87898592 Ry
     Harris-Foulkes estimate   =  -14691.87973869 Ry
     estimated scf accuracy    <       0.01851721 Ry

     total magnetization       =     0.13 Bohr mag/cell
     absolute magnetization    =     1.02 Bohr mag/cell

     iteration # 52     ecut=    45.00 Ry     beta= 0.10
     Davidson diagonalization with overlap
     ethr =  4.81E-06,  avg # of iterations =  1.0

     total cpu time spent up to now is     1993.1 secs

     total energy              =  -14691.87941230 Ry
     Harris-Foulkes estimate   =  -14691.87947243 Ry
     estimated scf accuracy    <       0.01686888 Ry

     total magnetization       =    -0.24 Bohr mag/cell
     absolute magnetization    =     0.98 Bohr mag/cell

     iteration # 53     ecut=    45.00 Ry     beta= 0.10
     Davidson diagonalization with overlap
     ethr =  4.81E-06,  avg # of iterations =  1.0

     total cpu time spent up to now is     2029.6 secs

     total energy              =  -14691.87946425 Ry
     Harris-Foulkes estimate   =  -14691.87942299 Ry
     estimated scf accuracy    <       0.01530551 Ry

     total magnetization       =    -0.25 Bohr mag/cell
     absolute magnetization    =     0.96 Bohr mag/cell

     iteration # 54     ecut=    45.00 Ry     beta= 0.10
     Davidson diagonalization with overlap
     ethr =  4.81E-06,  avg # of iterations =  1.0

     total cpu time spent up to now is     2066.2 secs

     total energy              =  -14691.88148126 Ry
     Harris-Foulkes estimate   =  -14691.87946423 Ry
     estimated scf accuracy    <       0.01552235 Ry

     total magnetization       =    -0.26 Bohr mag/cell
     absolute magnetization    =     0.97 Bohr mag/cell

     iteration # 55     ecut=    45.00 Ry     beta= 0.10
     Davidson diagonalization with overlap
     ethr =  4.81E-06,  avg # of iterations =  1.0

     total cpu time spent up to now is     2102.8 secs

     total energy              =  -14691.87984249 Ry
     Harris-Foulkes estimate   =  -14691.88175830 Ry
     estimated scf accuracy    <       0.01623507 Ry

     total magnetization       =    -0.25 Bohr mag/cell
     absolute magnetization    =     1.12 Bohr mag/cell

     iteration # 56     ecut=    45.00 Ry     beta= 0.10
     Davidson diagonalization with overlap
     ethr =  4.81E-06,  avg # of iterations =  1.0

     total cpu time spent up to now is     2139.3 secs

     total energy              =  -14691.87933256 Ry
     Harris-Foulkes estimate   =  -14691.88037773 Ry
     estimated scf accuracy    <       0.02821941 Ry

     total magnetization       =    -0.27 Bohr mag/cell
     absolute magnetization    =     1.17 Bohr mag/cell

     iteration # 57     ecut=    45.00 Ry     beta= 0.10
     Davidson diagonalization with overlap
     ethr =  4.81E-06,  avg # of iterations =  1.0

     total cpu time spent up to now is     2175.9 secs

     total energy              =  -14691.87926262 Ry
     Harris-Foulkes estimate   =  -14691.87957865 Ry
     estimated scf accuracy    <       0.01914045 Ry

     total magnetization       =    -0.44 Bohr mag/cell
     absolute magnetization    =     1.18 Bohr mag/cell

     iteration # 58     ecut=    45.00 Ry     beta= 0.10
     Davidson diagonalization with overlap
     ethr =  4.81E-06,  avg # of iterations =  1.3

     total cpu time spent up to now is     2213.8 secs

     total energy              =  -14691.87872966 Ry
     Harris-Foulkes estimate   =  -14691.87945885 Ry
     estimated scf accuracy    <       0.02785853 Ry

     total magnetization       =    -0.40 Bohr mag/cell
     absolute magnetization    =     1.13 Bohr mag/cell

     iteration # 59     ecut=    45.00 Ry     beta= 0.10
     Davidson diagonalization with overlap
     ethr =  4.81E-06,  avg # of iterations =  1.1

     total cpu time spent up to now is     2251.1 secs

     total energy              =  -14691.88029593 Ry
     Harris-Foulkes estimate   =  -14691.87891508 Ry
     estimated scf accuracy    <       0.01749960 Ry

     total magnetization       =    -0.26 Bohr mag/cell
     absolute magnetization    =     1.01 Bohr mag/cell

     iteration # 60     ecut=    45.00 Ry     beta= 0.10
     Davidson diagonalization with overlap
     ethr =  4.81E-06,  avg # of iterations =  1.0

     total cpu time spent up to now is     2287.6 secs

     total energy              =  -14691.87941042 Ry
     Harris-Foulkes estimate   =  -14691.88050943 Ry
     estimated scf accuracy    <       0.02375467 Ry

     total magnetization       =    -0.16 Bohr mag/cell
     absolute magnetization    =     1.14 Bohr mag/cell

     iteration # 61     ecut=    45.00 Ry     beta= 0.10
     Davidson diagonalization with overlap
     ethr =  4.81E-06,  avg # of iterations =  1.0

     total cpu time spent up to now is     2324.4 secs

     total energy              =  -14691.87908624 Ry
     Harris-Foulkes estimate   =  -14691.87992797 Ry
     estimated scf accuracy    <       0.05730137 Ry

     total magnetization       =    -0.21 Bohr mag/cell
     absolute magnetization    =     1.02 Bohr mag/cell

     iteration # 62     ecut=    45.00 Ry     beta= 0.10
     Davidson diagonalization with overlap
     ethr =  4.81E-06,  avg # of iterations =  1.0

     total cpu time spent up to now is     2360.9 secs

     total energy              =  -14691.87979568 Ry
     Harris-Foulkes estimate   =  -14691.87968999 Ry
     estimated scf accuracy    <       0.02140519 Ry

     total magnetization       =    -0.26 Bohr mag/cell
     absolute magnetization    =     1.05 Bohr mag/cell

     iteration # 63     ecut=    45.00 Ry     beta= 0.10
     Davidson diagonalization with overlap
     ethr =  4.81E-06,  avg # of iterations =  1.0

     total cpu time spent up to now is     2397.6 secs

     total energy              =  -14691.87944553 Ry
     Harris-Foulkes estimate   =  -14691.87998328 Ry
     estimated scf accuracy    <       0.02621457 Ry

     total magnetization       =    -0.32 Bohr mag/cell
     absolute magnetization    =     1.12 Bohr mag/cell

     iteration # 64     ecut=    45.00 Ry     beta= 0.10
     Davidson diagonalization with overlap
     ethr =  4.81E-06,  avg # of iterations =  1.0

     total cpu time spent up to now is     2434.2 secs

     total energy              =  -14691.87752841 Ry
     Harris-Foulkes estimate   =  -14691.87948286 Ry
     estimated scf accuracy    <       0.02623022 Ry

     total magnetization       =    -0.26 Bohr mag/cell
     absolute magnetization    =     1.05 Bohr mag/cell

     iteration # 65     ecut=    45.00 Ry     beta= 0.10
     Davidson diagonalization with overlap
     ethr =  4.81E-06,  avg # of iterations =  1.0

     total cpu time spent up to now is     2470.7 secs

     total energy              =  -14691.87809175 Ry
     Harris-Foulkes estimate   =  -14691.87805138 Ry
     estimated scf accuracy    <       0.01635298 Ry

     total magnetization       =    -0.19 Bohr mag/cell
     absolute magnetization    =     0.90 Bohr mag/cell

     iteration # 66     ecut=    45.00 Ry     beta= 0.10
     Davidson diagonalization with overlap
     ethr =  4.81E-06,  avg # of iterations =  1.0

     total cpu time spent up to now is     2507.4 secs

     total energy              =  -14691.87826116 Ry
     Harris-Foulkes estimate   =  -14691.87831583 Ry
     estimated scf accuracy    <       0.02558664 Ry

     total magnetization       =    -0.34 Bohr mag/cell
     absolute magnetization    =     1.08 Bohr mag/cell

     iteration # 67     ecut=    45.00 Ry     beta= 0.10
     Davidson diagonalization with overlap
     ethr =  4.81E-06,  avg # of iterations =  1.0

     total cpu time spent up to now is     2543.9 secs

     total energy              =  -14691.87825968 Ry
     Harris-Foulkes estimate   =  -14691.87835895 Ry
     estimated scf accuracy    <       0.02630780 Ry

     total magnetization       =    -0.47 Bohr mag/cell
     absolute magnetization    =     1.18 Bohr mag/cell

     iteration # 68     ecut=    45.00 Ry     beta= 0.10
     Davidson diagonalization with overlap
     ethr =  4.81E-06,  avg # of iterations =  1.0

     total cpu time spent up to now is     2580.4 secs

     total energy              =  -14691.87867645 Ry
     Harris-Foulkes estimate   =  -14691.87835227 Ry
     estimated scf accuracy    <       0.03035017 Ry

     total magnetization       =    -0.36 Bohr mag/cell
     absolute magnetization    =     1.11 Bohr mag/cell

     iteration # 69     ecut=    45.00 Ry     beta= 0.10
     Davidson diagonalization with overlap
     ethr =  4.81E-06,  avg # of iterations =  1.0

     total cpu time spent up to now is     2617.0 secs

     total energy              =  -14691.88008436 Ry
     Harris-Foulkes estimate   =  -14691.87975013 Ry
     estimated scf accuracy    <       0.03010176 Ry

     total magnetization       =    -0.46 Bohr mag/cell
     absolute magnetization    =     1.27 Bohr mag/cell

     iteration # 70     ecut=    45.00 Ry     beta= 0.10
     Davidson diagonalization with overlap
     ethr =  4.81E-06,  avg # of iterations =  1.0

     total cpu time spent up to now is     2653.5 secs

     total energy              =  -14691.87746797 Ry
     Harris-Foulkes estimate   =  -14691.88012480 Ry
     estimated scf accuracy    <       0.02334598 Ry

     total magnetization       =    -0.36 Bohr mag/cell
     absolute magnetization    =     1.28 Bohr mag/cell

     iteration # 71     ecut=    45.00 Ry     beta= 0.10
     Davidson diagonalization with overlap
     ethr =  4.81E-06,  avg # of iterations =  1.0

     total cpu time spent up to now is     2690.1 secs

     total energy              =  -14691.87723780 Ry
     Harris-Foulkes estimate   =  -14691.87851282 Ry
     estimated scf accuracy    <       0.04623737 Ry

     total magnetization       =    -0.41 Bohr mag/cell
     absolute magnetization    =     1.06 Bohr mag/cell

     iteration # 72     ecut=    45.00 Ry     beta= 0.10
     Davidson diagonalization with overlap
     ethr =  4.81E-06,  avg # of iterations =  1.0

     total cpu time spent up to now is     2726.7 secs

     total energy              =  -14691.87876086 Ry
     Harris-Foulkes estimate   =  -14691.87796468 Ry
     estimated scf accuracy    <       0.01579935 Ry

     total magnetization       =    -0.62 Bohr mag/cell
     absolute magnetization    =     0.99 Bohr mag/cell

     iteration # 73     ecut=    45.00 Ry     beta= 0.10
     Davidson diagonalization with overlap
     ethr =  4.81E-06,  avg # of iterations =  1.0

     total cpu time spent up to now is     2763.3 secs

     total energy              =  -14691.87904007 Ry
     Harris-Foulkes estimate   =  -14691.87898215 Ry
     estimated scf accuracy    <       0.01949758 Ry

     total magnetization       =    -0.79 Bohr mag/cell
     absolute magnetization    =     1.11 Bohr mag/cell

     iteration # 74     ecut=    45.00 Ry     beta= 0.10
     Davidson diagonalization with overlap
     ethr =  4.81E-06,  avg # of iterations =  1.0

     total cpu time spent up to now is     2799.9 secs

     total energy              =  -14691.87918110 Ry
     Harris-Foulkes estimate   =  -14691.87921563 Ry
     estimated scf accuracy    <       0.02150436 Ry

     total magnetization       =    -0.83 Bohr mag/cell
     absolute magnetization    =     1.22 Bohr mag/cell

     iteration # 75     ecut=    45.00 Ry     beta= 0.10
     Davidson diagonalization with overlap
     ethr =  4.81E-06,  avg # of iterations =  1.0

     total cpu time spent up to now is     2836.6 secs

     total energy              =  -14691.87906865 Ry
     Harris-Foulkes estimate   =  -14691.87919411 Ry
     estimated scf accuracy    <       0.02100797 Ry

     total magnetization       =    -0.85 Bohr mag/cell
     absolute magnetization    =     1.21 Bohr mag/cell

     iteration # 76     ecut=    45.00 Ry     beta= 0.10
     Davidson diagonalization with overlap
     ethr =  4.81E-06,  avg # of iterations =  1.0

     total cpu time spent up to now is     2873.1 secs

     total energy              =  -14691.87929185 Ry
     Harris-Foulkes estimate   =  -14691.87908675 Ry
     estimated scf accuracy    <       0.01999553 Ry

     total magnetization       =    -0.83 Bohr mag/cell
     absolute magnetization    =     1.18 Bohr mag/cell

     iteration # 77     ecut=    45.00 Ry     beta= 0.10
     Davidson diagonalization with overlap
     ethr =  4.81E-06,  avg # of iterations =  1.1

     total cpu time spent up to now is     2910.3 secs

     total energy              =  -14691.87769736 Ry
     Harris-Foulkes estimate   =  -14691.87931834 Ry
     estimated scf accuracy    <       0.02239647 Ry

     total magnetization       =    -0.89 Bohr mag/cell
     absolute magnetization    =     1.25 Bohr mag/cell

     iteration # 78     ecut=    45.00 Ry     beta= 0.10
     Davidson diagonalization with overlap
     ethr =  4.81E-06,  avg # of iterations =  1.0

     total cpu time spent up to now is     2947.2 secs

     total energy              =  -14691.87863771 Ry
     Harris-Foulkes estimate   =  -14691.87838503 Ry
     estimated scf accuracy    <       0.01811630 Ry

     total magnetization       =    -0.73 Bohr mag/cell
     absolute magnetization    =     1.03 Bohr mag/cell

     iteration # 79     ecut=    45.00 Ry     beta= 0.10
     Davidson diagonalization with overlap
     ethr =  4.81E-06,  avg # of iterations =  1.0

     total cpu time spent up to now is     2983.9 secs

     total energy              =  -14691.87846139 Ry
     Harris-Foulkes estimate   =  -14691.87863835 Ry
     estimated scf accuracy    <       0.01938718 Ry

     total magnetization       =    -0.76 Bohr mag/cell
     absolute magnetization    =     1.07 Bohr mag/cell

     iteration # 80     ecut=    45.00 Ry     beta= 0.10
     Davidson diagonalization with overlap
     ethr =  4.81E-06,  avg # of iterations =  1.0

     total cpu time spent up to now is     3020.7 secs

     total energy              =  -14691.87854844 Ry
     Harris-Foulkes estimate   =  -14691.87851021 Ry
     estimated scf accuracy    <       0.01824357 Ry

     total magnetization       =    -0.69 Bohr mag/cell
     absolute magnetization    =     1.02 Bohr mag/cell

     iteration # 81     ecut=    45.00 Ry     beta= 0.10
     Davidson diagonalization with overlap
     ethr =  4.81E-06,  avg # of iterations =  1.0

     total cpu time spent up to now is     3057.5 secs

     total energy              =  -14691.87873906 Ry
     Harris-Foulkes estimate   =  -14691.87855795 Ry
     estimated scf accuracy    <       0.01841279 Ry

     total magnetization       =    -0.69 Bohr mag/cell
     absolute magnetization    =     1.04 Bohr mag/cell

     iteration # 82     ecut=    45.00 Ry     beta= 0.10
     Davidson diagonalization with overlap
     ethr =  4.81E-06,  avg # of iterations =  1.0

     total cpu time spent up to now is     3094.2 secs

     total energy              =  -14691.87828577 Ry
     Harris-Foulkes estimate   =  -14691.87884801 Ry
     estimated scf accuracy    <       0.01675712 Ry

     total magnetization       =    -0.78 Bohr mag/cell
     absolute magnetization    =     1.08 Bohr mag/cell

     iteration # 83     ecut=    45.00 Ry     beta= 0.10
     Davidson diagonalization with overlap
     ethr =  4.81E-06,  avg # of iterations =  1.0

     total cpu time spent up to now is     3130.9 secs

     total energy              =  -14691.87883954 Ry
     Harris-Foulkes estimate   =  -14691.87848255 Ry
     estimated scf accuracy    <       0.01411011 Ry

     total magnetization       =    -0.70 Bohr mag/cell
     absolute magnetization    =     1.03 Bohr mag/cell

     iteration # 84     ecut=    45.00 Ry     beta= 0.10
     Davidson diagonalization with overlap
     ethr =  4.77E-06,  avg # of iterations =  1.0

     total cpu time spent up to now is     3167.4 secs

     total energy              =  -14691.87883428 Ry
     Harris-Foulkes estimate   =  -14691.87887219 Ry
     estimated scf accuracy    <       0.01710141 Ry

     total magnetization       =    -0.74 Bohr mag/cell
     absolute magnetization    =     1.09 Bohr mag/cell

     iteration # 85     ecut=    45.00 Ry     beta= 0.10
     Davidson diagonalization with overlap
     ethr =  4.77E-06,  avg # of iterations =  1.0

     total cpu time spent up to now is     3204.1 secs

     total energy              =  -14691.87821609 Ry
     Harris-Foulkes estimate   =  -14691.87888998 Ry
     estimated scf accuracy    <       0.01979796 Ry

     total magnetization       =    -0.70 Bohr mag/cell
     absolute magnetization    =     1.05 Bohr mag/cell

     iteration # 86     ecut=    45.00 Ry     beta= 0.10
     Davidson diagonalization with overlap
     ethr =  4.77E-06,  avg # of iterations =  1.0

     total cpu time spent up to now is     3240.6 secs

     total energy              =  -14691.87924955 Ry
     Harris-Foulkes estimate   =  -14691.87882061 Ry
     estimated scf accuracy    <       0.01300249 Ry

     total magnetization       =    -0.80 Bohr mag/cell
     absolute magnetization    =     1.15 Bohr mag/cell

     iteration # 87     ecut=    45.00 Ry     beta= 0.10
     Davidson diagonalization with overlap
     ethr =  4.39E-06,  avg # of iterations =  1.0

     total cpu time spent up to now is     3277.2 secs

     total energy              =  -14691.87987824 Ry
     Harris-Foulkes estimate   =  -14691.87953899 Ry
     estimated scf accuracy    <       0.02452647 Ry

     total magnetization       =    -1.02 Bohr mag/cell
     absolute magnetization    =     1.36 Bohr mag/cell

     iteration # 88     ecut=    45.00 Ry     beta= 0.10
     Davidson diagonalization with overlap
     ethr =  4.39E-06,  avg # of iterations =  1.0

     total cpu time spent up to now is     3313.9 secs

     total energy              =  -14691.87999196 Ry
     Harris-Foulkes estimate   =  -14691.87995317 Ry
     estimated scf accuracy    <       0.02867987 Ry

     total magnetization       =    -1.00 Bohr mag/cell
     absolute magnetization    =     1.41 Bohr mag/cell

     iteration # 89     ecut=    45.00 Ry     beta= 0.10
     Davidson diagonalization with overlap
     ethr =  4.39E-06,  avg # of iterations =  1.0

     total cpu time spent up to now is     3350.5 secs

     total energy              =  -14691.87959263 Ry
     Harris-Foulkes estimate   =  -14691.88002607 Ry
     estimated scf accuracy    <       0.02825696 Ry

     total magnetization       =    -1.04 Bohr mag/cell
     absolute magnetization    =     1.45 Bohr mag/cell

     iteration # 90     ecut=    45.00 Ry     beta= 0.10
     Davidson diagonalization with overlap
     ethr =  4.39E-06,  avg # of iterations =  1.0

     total cpu time spent up to now is     3387.2 secs

     total energy              =  -14691.87961752 Ry
     Harris-Foulkes estimate   =  -14691.87976161 Ry
     estimated scf accuracy    <       0.03049937 Ry

     total magnetization       =    -0.93 Bohr mag/cell
     absolute magnetization    =     1.36 Bohr mag/cell

     iteration # 91     ecut=    45.00 Ry     beta= 0.10
     Davidson diagonalization with overlap
     ethr =  4.39E-06,  avg # of iterations =  1.1

     total cpu time spent up to now is     3424.5 secs

     total energy              =  -14691.87970195 Ry
     Harris-Foulkes estimate   =  -14691.87967842 Ry
     estimated scf accuracy    <       0.02957911 Ry

     total magnetization       =    -0.90 Bohr mag/cell
     absolute magnetization    =     1.33 Bohr mag/cell

     iteration # 92     ecut=    45.00 Ry     beta= 0.10
     Davidson diagonalization with overlap
     ethr =  4.39E-06,  avg # of iterations =  1.0

     total cpu time spent up to now is     3461.2 secs

     total energy              =  -14691.88009840 Ry
     Harris-Foulkes estimate   =  -14691.87970682 Ry
     estimated scf accuracy    <       0.02890018 Ry

     total magnetization       =    -0.92 Bohr mag/cell
     absolute magnetization    =     1.34 Bohr mag/cell

     iteration # 93     ecut=    45.00 Ry     beta= 0.10
     Davidson diagonalization with overlap
     ethr =  4.39E-06,  avg # of iterations =  1.0

     total cpu time spent up to now is     3497.8 secs

     total energy              =  -14691.88007899 Ry
     Harris-Foulkes estimate   =  -14691.88044740 Ry
     estimated scf accuracy    <       0.03057281 Ry

     total magnetization       =    -1.03 Bohr mag/cell
     absolute magnetization    =     1.57 Bohr mag/cell

     iteration # 94     ecut=    45.00 Ry     beta= 0.10
     Davidson diagonalization with overlap
     ethr =  4.39E-06,  avg # of iterations =  1.0

     total cpu time spent up to now is     3534.2 secs

     total energy              =  -14691.87934190 Ry
     Harris-Foulkes estimate   =  -14691.88032390 Ry
     estimated scf accuracy    <       0.03694897 Ry

     total magnetization       =    -0.97 Bohr mag/cell
     absolute magnetization    =     1.54 Bohr mag/cell

     iteration # 95     ecut=    45.00 Ry     beta= 0.10
     Davidson diagonalization with overlap
     ethr =  4.39E-06,  avg # of iterations =  1.0

     total cpu time spent up to now is     3571.2 secs

     total energy              =  -14691.88083688 Ry
     Harris-Foulkes estimate   =  -14691.87977365 Ry
     estimated scf accuracy    <       0.02812276 Ry

     total magnetization       =    -0.82 Bohr mag/cell
     absolute magnetization    =     1.39 Bohr mag/cell

     iteration # 96     ecut=    45.00 Ry     beta= 0.10
     Davidson diagonalization with overlap
     ethr =  4.39E-06,  avg # of iterations =  1.0

     total cpu time spent up to now is     3607.9 secs

     total energy              =  -14691.88173839 Ry
     Harris-Foulkes estimate   =  -14691.88204323 Ry
     estimated scf accuracy    <       0.04926334 Ry

     total magnetization       =    -1.23 Bohr mag/cell
     absolute magnetization    =     1.85 Bohr mag/cell

     iteration # 97     ecut=    45.00 Ry     beta= 0.10
     Davidson diagonalization with overlap
     ethr =  4.39E-06,  avg # of iterations =  1.0

     total cpu time spent up to now is     3644.5 secs

     total energy              =  -14691.88192209 Ry
     Harris-Foulkes estimate   =  -14691.88293596 Ry
     estimated scf accuracy    <       0.05014813 Ry

     total magnetization       =    -1.62 Bohr mag/cell
     absolute magnetization    =     2.13 Bohr mag/cell

     iteration # 98     ecut=    45.00 Ry     beta= 0.10
     Davidson diagonalization with overlap
     ethr =  4.39E-06,  avg # of iterations =  1.0

     total cpu time spent up to now is     3681.2 secs

     total energy              =  -14691.87942164 Ry
     Harris-Foulkes estimate   =  -14691.88239330 Ry
     estimated scf accuracy    <       0.06028634 Ry

     total magnetization       =    -1.46 Bohr mag/cell
     absolute magnetization    =     1.99 Bohr mag/cell

     iteration # 99     ecut=    45.00 Ry     beta= 0.10
     Davidson diagonalization with overlap
     ethr =  4.39E-06,  avg # of iterations =  1.0

     total cpu time spent up to now is     3717.9 secs

     total energy              =  -14691.87813253 Ry
     Harris-Foulkes estimate   =  -14691.88116716 Ry
     estimated scf accuracy    <       0.02683782 Ry

     total magnetization       =    -0.68 Bohr mag/cell
     absolute magnetization    =     1.68 Bohr mag/cell

     iteration #100     ecut=    45.00 Ry     beta= 0.10
     Davidson diagonalization with overlap
     ethr =  4.39E-06,  avg # of iterations =  1.0
 
     Magnetic moment per site:
     atom:    1    charge:   13.6651    magn:   -0.0009    constr:    0.0000
     atom:    2    charge:   13.6645    magn:    0.0062    constr:    0.0000
     atom:    3    charge:   13.6636    magn:   -0.0287    constr:    0.0000
     atom:    4    charge:   13.6636    magn:   -0.0287    constr:    0.0000
     atom:    5    charge:   13.6648    magn:   -0.0027    constr:    0.0000
     atom:    6    charge:   13.6650    magn:    0.0416    constr:    0.0000
     atom:    7    charge:   13.6636    magn:   -0.0287    constr:    0.0000
     atom:    8    charge:   13.6636    magn:   -0.0287    constr:    0.0000
     atom:    9    charge:    9.0374    magn:   -0.0001    constr:    0.0000
     atom:   10    charge:    9.0364    magn:    0.0070    constr:    0.0000
     atom:   11    charge:    9.0371    magn:   -0.0014    constr:    0.0000
     atom:   12    charge:    9.0371    magn:   -0.0014    constr:    0.0000
     atom:   13    charge:    9.0357    magn:    0.0026    constr:    0.0000
     atom:   14    charge:    9.0366    magn:    0.0017    constr:    0.0000
     atom:   15    charge:    9.0374    magn:   -0.0004    constr:    0.0000
     atom:   16    charge:    9.0374    magn:   -0.0004    constr:    0.0000
     atom:   17    charge:    9.0366    magn:    0.0017    constr:    0.0000
     atom:   18    charge:    9.0357    magn:    0.0026    constr:    0.0000
     atom:   19    charge:    9.0371    magn:   -0.0014    constr:    0.0000
     atom:   20    charge:    9.0371    magn:   -0.0014    constr:    0.0000
     atom:   21    charge:    9.0374    magn:   -0.0001    constr:    0.0000
     atom:   22    charge:    9.0364    magn:    0.0070    constr:    0.0000
     atom:   23    charge:    9.0374    magn:   -0.0004    constr:    0.0000
     atom:   24    charge:    9.0374    magn:   -0.0004    constr:    0.0000

     total cpu time spent up to now is     3754.5 secs

     total energy              =  -14691.87940536 Ry
     Harris-Foulkes estimate   =  -14691.87932078 Ry
     estimated scf accuracy    <       0.02550086 Ry

     total magnetization       =    -0.57 Bohr mag/cell
     absolute magnetization    =     1.30 Bohr mag/cell

     End of self-consistent calculation

     convergence NOT achieved after 100 iterations: stopping

     Writing output data file mnau2.save/
 
     init_run     :     20.39s CPU     21.20s WALL (       1 calls)
     electrons    :   3657.30s CPU   3731.69s WALL (       1 calls)

     Called by init_run:
     wfcinit      :     18.54s CPU     19.17s WALL (       1 calls)
     potinit      :      1.03s CPU      1.06s WALL (       1 calls)
     hinit0       :      0.49s CPU      0.57s WALL (       1 calls)

     Called by electrons:
     c_bands      :   3052.89s CPU   3109.08s WALL (     100 calls)
     sum_band     :    502.72s CPU    517.52s WALL (     100 calls)
     v_of_rho     :      8.43s CPU      8.53s WALL (     101 calls)
     newd         :     22.22s CPU     24.76s WALL (     101 calls)
     PAW_pot      :     69.61s CPU     69.80s WALL (     101 calls)
     mix_rho      :      1.57s CPU      1.60s WALL (     100 calls)

     Called by c_bands:
     init_us_2    :     24.26s CPU     24.36s WALL (   12120 calls)
     cegterg      :   2844.31s CPU   2899.00s WALL (    6000 calls)

     Called by sum_band:
     sum_band:bec :      4.30s CPU      4.34s WALL (    6000 calls)
     addusdens    :     39.27s CPU     42.01s WALL (     100 calls)

     Called by *egterg:
     h_psi        :   1577.92s CPU   1614.11s WALL (   12750 calls)
     s_psi        :    204.64s CPU    204.93s WALL (   12810 calls)
     g_psi        :      7.76s CPU      7.79s WALL (    6690 calls)
     cdiaghg      :    573.00s CPU    584.58s WALL (   12690 calls)

     Called by h_psi:
     h_psi:pot    :   1491.34s CPU   1527.04s WALL (   12750 calls)
     h_psi:calbec :    216.79s CPU    226.81s WALL (   12750 calls)
     vloc_psi     :   1075.90s CPU   1101.12s WALL (   12750 calls)
     add_vuspsi   :    198.52s CPU    199.01s WALL (   12750 calls)
     vhpsi        :     81.87s CPU     82.29s WALL (   12750 calls)

     General routines
     calbec       :    392.61s CPU    408.03s WALL (   37560 calls)
     fft          :      4.86s CPU      4.95s WALL (    2525 calls)
     ffts         :      0.24s CPU      0.24s WALL (     402 calls)
     fftw         :   1229.71s CPU   1257.75s WALL ( 5378488 calls)
     interpolate  :      0.50s CPU      0.50s WALL (     202 calls)
     davcio       :      0.02s CPU      5.71s WALL (     138 calls)
 
     Parallel routines
     fft_scatt_xy :    148.91s CPU    152.09s WALL ( 5381415 calls)
     fft_scatt_yz :    434.25s CPU    444.88s WALL ( 5381415 calls)

     Hubbard U routines
     new_ns       :     22.29s CPU     23.00s WALL (     100 calls)
     vhpsi        :     81.87s CPU     82.29s WALL (   12750 calls)
 
     PWSCF        :     1h 1m CPU        1h 1m WALL

       2h
 
   This run was terminated on:  12:49:53  26Mar2019            

=------------------------------------------------------------------------------=
   JOB DONE.
=------------------------------------------------------------------------------=
