
     Program PWSCF v.6.3MaX starts on 28Mar2019 at 17:36:21 

     This program is part of the open-source Quantum ESPRESSO suite
     for quantum simulation of materials; please cite
         "P. Giannozzi et al., J. Phys.:Condens. Matter 21 395502 (2009);
         "P. Giannozzi et al., J. Phys.:Condens. Matter 29 465901 (2017);
          URL http://www.quantum-espresso.org", 
     in publications or presentations arising from this work. More details at
     http://www.quantum-espresso.org/quote

     Parallel version (MPI), running on    32 processors

     MPI processes distributed on     2 nodes
     R & G space division:  proc/nbgrp/npool/nimage =      32
     Waiting for input...
     Reading input from standard input

     Current dimensions of program PWSCF are:
     Max number of different atomic species (ntypx) = 10
     Max number of k-points (npk) =  40000
     Max angular momentum in pseudopotentials (lmaxx) =  3
     Message from routine read_upf::
     Pseudo file ./pseudo/Mn.pbe-spn-kjpaw_psl.0.3.1.UPF has been successfully fixed on the fly.
To avoid this message in the future you can permanently fix 
 your pseudo files following instructions given in: 
https://gitlab.com/QEF/q-e/blob/master/upftools/how_to_fix_upf.md
               file Mn.pbe-spn-kjpaw_psl.0.3.1.UPF: wavefunction(s)  3P 3D renormalized
     Message from routine read_upf::
     Pseudo file ./pseudo/Mn.pbe-spn-kjpaw_psl.0.3.1.UPF has been successfully fixed on the fly.
To avoid this message in the future you can permanently fix 
 your pseudo files following instructions given in: 
https://gitlab.com/QEF/q-e/blob/master/upftools/how_to_fix_upf.md
               file Mn.pbe-spn-kjpaw_psl.0.3.1.UPF: wavefunction(s)  3P 3D renormalized
     Message from routine read_upf::
     Pseudo file ./pseudo/Au.pbe-dn-kjpaw_psl.0.1.UPF has been successfully fixed on the fly.
To avoid this message in the future you can permanently fix 
 your pseudo files following instructions given in: 
https://gitlab.com/QEF/q-e/blob/master/upftools/how_to_fix_upf.md
               file Au.pbe-dn-kjpaw_psl.0.1.UPF: wavefunction(s)  6S 6P 5D renormalized

     Subspace diagonalization in iterative solution of the eigenvalue problem:
     one sub-group per band group will be used
     scalapack distributed-memory algorithm (size of sub-group:  4*  4 procs)

 
     Parallelization info
     --------------------
     sticks:   dense  smooth     PW     G-vecs:    dense   smooth      PW
     Min         323     145     42                11331     3421     537
     Max         324     146     43                11333     3423     539
     Sum       10349    4645   1353               362619   109493   17211
 


     bravais-lattice index     =            0
     lattice parameter (alat)  =      18.0125  a.u.
     unit-cell volume          =    2685.0513 (a.u.)^3
     number of atoms/cell      =           24
     number of atomic types    =            3
     number of electrons       =       296.00
     number of Kohn-Sham states=          178
     kinetic-energy cutoff     =      45.0000  Ry
     charge density cutoff     =     400.0000  Ry
     convergence threshold     =      1.0E-06
     mixing beta               =       0.1000
     number of iterations used =            8  plain     mixing
     Exchange-correlation      = SLA PW PBX PBC ( 1  4  3  4 0 0)

     celldm(1)=  18.012490  celldm(2)=   0.000000  celldm(3)=   0.000000
     celldm(4)=   0.000000  celldm(5)=   0.000000  celldm(6)=   0.000000

     crystal axes: (cart. coord. in units of alat)
               a(1) = (   0.707107  -0.707107   0.000000 )  
               a(2) = (  -0.707107  -0.707107   0.000000 )  
               a(3) = (   0.176777   0.176777  -0.459443 )  

     reciprocal axes: (cart. coord. in units 2 pi/alat)
               b(1) = (  0.707107 -0.707107  0.000000 )  
               b(2) = ( -0.707107 -0.707107 -0.544138 )  
               b(3) = (  0.000000  0.000000 -2.176550 )  


     PseudoPot. # 1 for Mn read from file:
     ./pseudo/Mn.pbe-spn-kjpaw_psl.0.3.1.UPF
     MD5 check sum: 7eef95dd2aae66803482eea66ebeebf1
     Pseudo is Projector augmented-wave + core cor, Zval = 15.0
     Generated using "atomic" code by A. Dal Corso v.5.0.99 svn rev. 10869
     Shape of augmentation charge: PSQ
     Using radial grid of 1187 points,  6 beta functions with: 
                l(1) =   0
                l(2) =   0
                l(3) =   1
                l(4) =   1
                l(5) =   2
                l(6) =   2
     Q(r) pseudized with 0 coefficients 


     PseudoPot. # 2 for Mn read from file:
     ./pseudo/Mn.pbe-spn-kjpaw_psl.0.3.1.UPF
     MD5 check sum: 7eef95dd2aae66803482eea66ebeebf1
     Pseudo is Projector augmented-wave + core cor, Zval = 15.0
     Generated using "atomic" code by A. Dal Corso v.5.0.99 svn rev. 10869
     Shape of augmentation charge: PSQ
     Using radial grid of 1187 points,  6 beta functions with: 
                l(1) =   0
                l(2) =   0
                l(3) =   1
                l(4) =   1
                l(5) =   2
                l(6) =   2
     Q(r) pseudized with 0 coefficients 


     PseudoPot. # 3 for Au read from file:
     ./pseudo/Au.pbe-dn-kjpaw_psl.0.1.UPF
     MD5 check sum: 5c9b92683623e7ae2ab3f8e525febab6
     Pseudo is Projector augmented-wave + core cor, Zval = 11.0
     Generated using "atomic" code by A. Dal Corso v.5.0.2 svn rev. 9415
     Shape of augmentation charge: PSQ
     Using radial grid of 1279 points,  6 beta functions with: 
                l(1) =   0
                l(2) =   0
                l(3) =   1
                l(4) =   1
                l(5) =   2
                l(6) =   2
     Q(r) pseudized with 0 coefficients 


     atomic species   valence    mass     pseudopotential
        Mn1           15.00    54.93800     Mn( 1.00)
        Mn2           15.00    54.93800     Mn( 1.00)
        Au            11.00   196.96600     Au( 1.00)

     Starting magnetic structure 
     atomic species   magnetization
        Mn1          1.000
        Mn2         -1.000
        Au           0.000


     Full LDA+U calculation (l_max = 2) with parameters (eV):
     U(  1) =   3.1200   J(  1) =   0.7000   B(  1) =   0.0803
     U(  2) =   3.1200   J(  2) =   0.7000   B(  2) =   0.0803



      4 Sym. Ops., with inversion, found ( 2 have fractional translation)



   Cartesian axes

     site n.     atom                  positions (alat units)
         1           Mn1 tau(   1) = (   0.3535534  -0.3535534   0.0000000  )
         2           Mn2 tau(   2) = (   0.0000000   0.0000000   0.0000000  )
         3           Mn1 tau(   3) = (   0.0000000  -0.3535534   0.0000000  )
         4           Mn2 tau(   4) = (   0.3535534  -0.7071068   0.0000000  )
         5           Mn2 tau(   5) = (  -0.3535534  -0.3535534   0.0000000  )
         6           Mn1 tau(   6) = (   0.0000000  -0.7071068   0.0000000  )
         7           Mn2 tau(   7) = (  -0.3535534  -0.7071068   0.0000000  )
         8           Mn1 tau(   8) = (   0.0000000  -1.0606602   0.0000000  )
         9           Au  tau(   9) = (  -0.1767767  -0.1767767  -0.1470216  )
        10           Au  tau(  10) = (   0.1767767  -0.5303301  -0.1470216  )
        11           Au  tau(  11) = (  -0.1767767  -0.5303301  -0.1470216  )
        12           Au  tau(  12) = (   0.1767767  -0.8838835  -0.1470216  )
        13           Au  tau(  13) = (  -0.5303301  -0.5303301  -0.1470216  )
        14           Au  tau(  14) = (  -0.1767767  -0.8838835  -0.1470216  )
        15           Au  tau(  15) = (   0.5303301  -0.5303301  -0.1470216  )
        16           Au  tau(  16) = (   0.1767767  -0.1767767  -0.1470216  )
        17           Au  tau(  17) = (   0.3535534  -0.3535534  -0.3124210  )
        18           Au  tau(  18) = (   0.0000000   0.0000000  -0.3124210  )
        19           Au  tau(  19) = (   0.0000000  -0.3535534  -0.3124210  )
        20           Au  tau(  20) = (   0.3535534  -0.7071068  -0.3124210  )
        21           Au  tau(  21) = (  -0.3535534  -0.3535534  -0.3124210  )
        22           Au  tau(  22) = (  -0.0000000  -0.7071068  -0.3124210  )
        23           Au  tau(  23) = (  -0.3535534  -0.7071068  -0.3124210  )
        24           Au  tau(  24) = (   0.0000000  -1.0606602  -0.3124210  )

     number of k points=   170 (tetrahedron method)

     Number of k-points >= 100: set verbosity='high' to print them.

     Dense  grid:   362619 G-vectors     FFT dimensions: ( 120, 120,  60)

     Smooth grid:   109493 G-vectors     FFT dimensions: (  80,  80,  45)

     Estimated max dynamical RAM per process >     547.93 MB

     Estimated total dynamical RAM >      17.12 GB
     Generating pointlists ...
     new r_m :   0.1196 (alat units)  2.1549 (a.u.) for type    1
     new r_m :   0.1196 (alat units)  2.1549 (a.u.) for type    2
     new r_m :   0.1196 (alat units)  2.1549 (a.u.) for type    3

     Check: negative/imaginary core charge=   -0.000006    0.000000

     Initial potential from superposition of free atoms

     starting charge  295.99426, renormalised to  296.00000
     Number of +U iterations with fixed ns =  0
     Starting occupations:
 --- enter write_ns ---
 LDA+U parameters:
U(  1) =   3.1200   J(  1) =   0.7000   B(  1) =   0.0803
U(  2) =   3.1200   J(  2) =   0.7000   B(  2) =   0.0803
atom    1   Tr[ns(na)] (up, down, total) =   5.00000  0.00000  5.00000
   spin  1
    eigenvalues: 
  1.000  1.000  1.000  1.000  1.000
    eigenvectors:
  1.000  0.000  0.000  0.000  0.000
  0.000  1.000  0.000  0.000  0.000
  0.000  0.000  1.000  0.000  0.000
  0.000  0.000  0.000  1.000  0.000
  0.000  0.000  0.000  0.000  1.000
    occupations:
  1.000  0.000  0.000  0.000  0.000
  0.000  1.000  0.000  0.000  0.000
  0.000  0.000  1.000  0.000  0.000
  0.000  0.000  0.000  1.000  0.000
  0.000  0.000  0.000  0.000  1.000
   spin  2
    eigenvalues: 
  0.000  0.000  0.000  0.000  0.000
    eigenvectors:
  1.000  0.000  0.000  0.000  0.000
  0.000  1.000  0.000  0.000  0.000
  0.000  0.000  1.000  0.000  0.000
  0.000  0.000  0.000  1.000  0.000
  0.000  0.000  0.000  0.000  1.000
    occupations:
  0.000  0.000  0.000  0.000  0.000
  0.000  0.000  0.000  0.000  0.000
  0.000  0.000  0.000  0.000  0.000
  0.000  0.000  0.000  0.000  0.000
  0.000  0.000  0.000  0.000  0.000
atomic mag. moment =     5.000000
atom    2   Tr[ns(na)] (up, down, total) =   0.00000  5.00000  5.00000
   spin  1
    eigenvalues: 
  0.000  0.000  0.000  0.000  0.000
    eigenvectors:
  1.000  0.000  0.000  0.000  0.000
  0.000  1.000  0.000  0.000  0.000
  0.000  0.000  1.000  0.000  0.000
  0.000  0.000  0.000  1.000  0.000
  0.000  0.000  0.000  0.000  1.000
    occupations:
  0.000  0.000  0.000  0.000  0.000
  0.000  0.000  0.000  0.000  0.000
  0.000  0.000  0.000  0.000  0.000
  0.000  0.000  0.000  0.000  0.000
  0.000  0.000  0.000  0.000  0.000
   spin  2
    eigenvalues: 
  1.000  1.000  1.000  1.000  1.000
    eigenvectors:
  1.000  0.000  0.000  0.000  0.000
  0.000  1.000  0.000  0.000  0.000
  0.000  0.000  1.000  0.000  0.000
  0.000  0.000  0.000  1.000  0.000
  0.000  0.000  0.000  0.000  1.000
    occupations:
  1.000  0.000  0.000  0.000  0.000
  0.000  1.000  0.000  0.000  0.000
  0.000  0.000  1.000  0.000  0.000
  0.000  0.000  0.000  1.000  0.000
  0.000  0.000  0.000  0.000  1.000
atomic mag. moment =    -5.000000
atom    3   Tr[ns(na)] (up, down, total) =   5.00000  0.00000  5.00000
   spin  1
    eigenvalues: 
  1.000  1.000  1.000  1.000  1.000
    eigenvectors:
  1.000  0.000  0.000  0.000  0.000
  0.000  1.000  0.000  0.000  0.000
  0.000  0.000  1.000  0.000  0.000
  0.000  0.000  0.000  1.000  0.000
  0.000  0.000  0.000  0.000  1.000
    occupations:
  1.000  0.000  0.000  0.000  0.000
  0.000  1.000  0.000  0.000  0.000
  0.000  0.000  1.000  0.000  0.000
  0.000  0.000  0.000  1.000  0.000
  0.000  0.000  0.000  0.000  1.000
   spin  2
    eigenvalues: 
  0.000  0.000  0.000  0.000  0.000
    eigenvectors:
  1.000  0.000  0.000  0.000  0.000
  0.000  1.000  0.000  0.000  0.000
  0.000  0.000  1.000  0.000  0.000
  0.000  0.000  0.000  1.000  0.000
  0.000  0.000  0.000  0.000  1.000
    occupations:
  0.000  0.000  0.000  0.000  0.000
  0.000  0.000  0.000  0.000  0.000
  0.000  0.000  0.000  0.000  0.000
  0.000  0.000  0.000  0.000  0.000
  0.000  0.000  0.000  0.000  0.000
atomic mag. moment =     5.000000
atom    4   Tr[ns(na)] (up, down, total) =   0.00000  5.00000  5.00000
   spin  1
    eigenvalues: 
  0.000  0.000  0.000  0.000  0.000
    eigenvectors:
  1.000  0.000  0.000  0.000  0.000
  0.000  1.000  0.000  0.000  0.000
  0.000  0.000  1.000  0.000  0.000
  0.000  0.000  0.000  1.000  0.000
  0.000  0.000  0.000  0.000  1.000
    occupations:
  0.000  0.000  0.000  0.000  0.000
  0.000  0.000  0.000  0.000  0.000
  0.000  0.000  0.000  0.000  0.000
  0.000  0.000  0.000  0.000  0.000
  0.000  0.000  0.000  0.000  0.000
   spin  2
    eigenvalues: 
  1.000  1.000  1.000  1.000  1.000
    eigenvectors:
  1.000  0.000  0.000  0.000  0.000
  0.000  1.000  0.000  0.000  0.000
  0.000  0.000  1.000  0.000  0.000
  0.000  0.000  0.000  1.000  0.000
  0.000  0.000  0.000  0.000  1.000
    occupations:
  1.000  0.000  0.000  0.000  0.000
  0.000  1.000  0.000  0.000  0.000
  0.000  0.000  1.000  0.000  0.000
  0.000  0.000  0.000  1.000  0.000
  0.000  0.000  0.000  0.000  1.000
atomic mag. moment =    -5.000000
atom    5   Tr[ns(na)] (up, down, total) =   0.00000  5.00000  5.00000
   spin  1
    eigenvalues: 
  0.000  0.000  0.000  0.000  0.000
    eigenvectors:
  1.000  0.000  0.000  0.000  0.000
  0.000  1.000  0.000  0.000  0.000
  0.000  0.000  1.000  0.000  0.000
  0.000  0.000  0.000  1.000  0.000
  0.000  0.000  0.000  0.000  1.000
    occupations:
  0.000  0.000  0.000  0.000  0.000
  0.000  0.000  0.000  0.000  0.000
  0.000  0.000  0.000  0.000  0.000
  0.000  0.000  0.000  0.000  0.000
  0.000  0.000  0.000  0.000  0.000
   spin  2
    eigenvalues: 
  1.000  1.000  1.000  1.000  1.000
    eigenvectors:
  1.000  0.000  0.000  0.000  0.000
  0.000  1.000  0.000  0.000  0.000
  0.000  0.000  1.000  0.000  0.000
  0.000  0.000  0.000  1.000  0.000
  0.000  0.000  0.000  0.000  1.000
    occupations:
  1.000  0.000  0.000  0.000  0.000
  0.000  1.000  0.000  0.000  0.000
  0.000  0.000  1.000  0.000  0.000
  0.000  0.000  0.000  1.000  0.000
  0.000  0.000  0.000  0.000  1.000
atomic mag. moment =    -5.000000
atom    6   Tr[ns(na)] (up, down, total) =   5.00000  0.00000  5.00000
   spin  1
    eigenvalues: 
  1.000  1.000  1.000  1.000  1.000
    eigenvectors:
  1.000  0.000  0.000  0.000  0.000
  0.000  1.000  0.000  0.000  0.000
  0.000  0.000  1.000  0.000  0.000
  0.000  0.000  0.000  1.000  0.000
  0.000  0.000  0.000  0.000  1.000
    occupations:
  1.000  0.000  0.000  0.000  0.000
  0.000  1.000  0.000  0.000  0.000
  0.000  0.000  1.000  0.000  0.000
  0.000  0.000  0.000  1.000  0.000
  0.000  0.000  0.000  0.000  1.000
   spin  2
    eigenvalues: 
  0.000  0.000  0.000  0.000  0.000
    eigenvectors:
  1.000  0.000  0.000  0.000  0.000
  0.000  1.000  0.000  0.000  0.000
  0.000  0.000  1.000  0.000  0.000
  0.000  0.000  0.000  1.000  0.000
  0.000  0.000  0.000  0.000  1.000
    occupations:
  0.000  0.000  0.000  0.000  0.000
  0.000  0.000  0.000  0.000  0.000
  0.000  0.000  0.000  0.000  0.000
  0.000  0.000  0.000  0.000  0.000
  0.000  0.000  0.000  0.000  0.000
atomic mag. moment =     5.000000
atom    7   Tr[ns(na)] (up, down, total) =   0.00000  5.00000  5.00000
   spin  1
    eigenvalues: 
  0.000  0.000  0.000  0.000  0.000
    eigenvectors:
  1.000  0.000  0.000  0.000  0.000
  0.000  1.000  0.000  0.000  0.000
  0.000  0.000  1.000  0.000  0.000
  0.000  0.000  0.000  1.000  0.000
  0.000  0.000  0.000  0.000  1.000
    occupations:
  0.000  0.000  0.000  0.000  0.000
  0.000  0.000  0.000  0.000  0.000
  0.000  0.000  0.000  0.000  0.000
  0.000  0.000  0.000  0.000  0.000
  0.000  0.000  0.000  0.000  0.000
   spin  2
    eigenvalues: 
  1.000  1.000  1.000  1.000  1.000
    eigenvectors:
  1.000  0.000  0.000  0.000  0.000
  0.000  1.000  0.000  0.000  0.000
  0.000  0.000  1.000  0.000  0.000
  0.000  0.000  0.000  1.000  0.000
  0.000  0.000  0.000  0.000  1.000
    occupations:
  1.000  0.000  0.000  0.000  0.000
  0.000  1.000  0.000  0.000  0.000
  0.000  0.000  1.000  0.000  0.000
  0.000  0.000  0.000  1.000  0.000
  0.000  0.000  0.000  0.000  1.000
atomic mag. moment =    -5.000000
atom    8   Tr[ns(na)] (up, down, total) =   5.00000  0.00000  5.00000
   spin  1
    eigenvalues: 
  1.000  1.000  1.000  1.000  1.000
    eigenvectors:
  1.000  0.000  0.000  0.000  0.000
  0.000  1.000  0.000  0.000  0.000
  0.000  0.000  1.000  0.000  0.000
  0.000  0.000  0.000  1.000  0.000
  0.000  0.000  0.000  0.000  1.000
    occupations:
  1.000  0.000  0.000  0.000  0.000
  0.000  1.000  0.000  0.000  0.000
  0.000  0.000  1.000  0.000  0.000
  0.000  0.000  0.000  1.000  0.000
  0.000  0.000  0.000  0.000  1.000
   spin  2
    eigenvalues: 
  0.000  0.000  0.000  0.000  0.000
    eigenvectors:
  1.000  0.000  0.000  0.000  0.000
  0.000  1.000  0.000  0.000  0.000
  0.000  0.000  1.000  0.000  0.000
  0.000  0.000  0.000  1.000  0.000
  0.000  0.000  0.000  0.000  1.000
    occupations:
  0.000  0.000  0.000  0.000  0.000
  0.000  0.000  0.000  0.000  0.000
  0.000  0.000  0.000  0.000  0.000
  0.000  0.000  0.000  0.000  0.000
  0.000  0.000  0.000  0.000  0.000
atomic mag. moment =     5.000000
N of occupied +U levels =   40.000000
 --- exit write_ns ---
 Atomic wfc used for LDA+U Projector are NOT orthogonalized
     Starting wfcs are  224 randomized atomic wfcs
     Checking if some PAW data can be deallocated... 

     total cpu time spent up to now is      167.5 secs

     Self-consistent Calculation

     iteration #  1     ecut=    45.00 Ry     beta= 0.10
     Davidson diagonalization with overlap
     ethr =  1.00E-02,  avg # of iterations =  4.6
 --- enter write_ns ---
 LDA+U parameters:
U(  1) =   3.1200   J(  1) =   0.7000   B(  1) =   0.0803
U(  2) =   3.1200   J(  2) =   0.7000   B(  2) =   0.0803
atom    1   Tr[ns(na)] (up, down, total) =   5.01497  0.27420  5.28917
   spin  1
    eigenvalues: 
  1.003  1.003  1.003  1.003  1.004
    eigenvectors:
  0.000  0.001  0.001  0.972  0.026
  0.005  0.018  0.976  0.000  0.000
  0.001  0.980  0.018  0.002  0.000
  0.000  0.000  0.000  0.026  0.974
  0.994  0.000  0.005  0.000  0.000
    occupations:
  1.003 -0.000 -0.000 -0.000 -0.000
 -0.000  1.003  0.000  0.000  0.000
 -0.000  0.000  1.003 -0.000  0.000
 -0.000  0.000 -0.000  1.004  0.000
 -0.000  0.000  0.000  0.000  1.003
   spin  2
    eigenvalues: 
  0.041  0.051  0.054  0.056  0.072
    eigenvectors:
  0.030  0.942  0.002  0.025  0.001
  0.000  0.015  0.718  0.265  0.002
  0.000  0.012  0.279  0.707  0.001
  0.970  0.029  0.000  0.000  0.000
  0.000  0.001  0.000  0.003  0.996
    occupations:
  0.051 -0.001  0.001  0.002 -0.001
 -0.001  0.055 -0.001 -0.000  0.001
  0.001 -0.001  0.055 -0.000 -0.000
  0.002 -0.000 -0.000  0.041 -0.000
 -0.001  0.001 -0.000 -0.000  0.072
atomic mag. moment =     4.740771
atom    2   Tr[ns(na)] (up, down, total) =   0.27479  5.01490  5.28970
   spin  1
    eigenvalues: 
  0.041  0.051  0.054  0.056  0.073
    eigenvectors:
  0.030  0.943  0.001  0.024  0.001
  0.000  0.010  0.785  0.203  0.002
  0.000  0.016  0.213  0.771  0.001
  0.969  0.030  0.000  0.000  0.000
  0.000  0.001  0.001  0.002  0.996
    occupations:
  0.051 -0.000  0.001  0.002 -0.001
 -0.000  0.055 -0.001 -0.000  0.001
  0.001 -0.001  0.055 -0.000 -0.000
  0.002 -0.000 -0.000  0.042 -0.000
 -0.001  0.001 -0.000 -0.000  0.072
   spin  2
    eigenvalues: 
  1.003  1.003  1.003  1.003  1.004
    eigenvectors:
  0.001  0.000  0.000  0.968  0.031
  0.003  0.005  0.991  0.000  0.000
  0.001  0.994  0.005  0.000  0.000
  0.000  0.000  0.000  0.031  0.969
  0.995  0.000  0.003  0.001  0.000
    occupations:
  1.003  0.000  0.000 -0.000 -0.000
  0.000  1.003 -0.000 -0.000  0.000
  0.000 -0.000  1.003 -0.000 -0.000
 -0.000 -0.000 -0.000  1.004  0.000
 -0.000  0.000 -0.000  0.000  1.003
atomic mag. moment =    -4.740108
atom    3   Tr[ns(na)] (up, down, total) =   5.01481  0.27598  5.29080
   spin  1
    eigenvalues: 
  1.003  1.003  1.003  1.003  1.004
    eigenvectors:
  0.000  0.000  0.000  1.000  0.000
  0.001  0.500  0.499  0.000  0.000
  0.001  0.500  0.499  0.000  0.000
  0.000  0.000  0.000  0.000  1.000
  0.998  0.000  0.002  0.000  0.000
    occupations:
  1.003 -0.000 -0.000 -0.000 -0.000
 -0.000  1.003  0.000 -0.000  0.000
 -0.000  0.000  1.003  0.000  0.000
 -0.000 -0.000  0.000  1.004 -0.000
 -0.000  0.000  0.000 -0.000  1.003
   spin  2
    eigenvalues: 
  0.041  0.052  0.055  0.056  0.072
    eigenvectors:
  0.000  0.980  0.000  0.020  0.000
  0.000  0.010  0.500  0.489  0.002
  0.000  0.010  0.500  0.489  0.002
  1.000  0.000  0.000  0.000  0.000
  0.000  0.000  0.000  0.003  0.997
    occupations:
  0.052  0.000  0.000 -0.000 -0.000
  0.000  0.056  0.000  0.000  0.001
  0.000  0.000  0.056 -0.000  0.001
 -0.000  0.000 -0.000  0.041 -0.000
 -0.000  0.001  0.001 -0.000  0.072
atomic mag. moment =     4.738830
atom    4   Tr[ns(na)] (up, down, total) =   0.27599  5.01477  5.29076
   spin  1
    eigenvalues: 
  0.041  0.052  0.055  0.056  0.072
    eigenvectors:
  0.000  0.979  0.000  0.021  0.000
  0.000  0.011  0.500  0.488  0.002
  0.000  0.011  0.500  0.488  0.002
  1.000  0.000  0.000  0.000  0.000
  0.000  0.000  0.000  0.003  0.997
    occupations:
  0.052  0.000  0.000 -0.000 -0.000
  0.000  0.056  0.000  0.000  0.001
  0.000  0.000  0.056 -0.000  0.001
 -0.000  0.000 -0.000  0.041 -0.000
 -0.000  0.001  0.001 -0.000  0.072
   spin  2
    eigenvalues: 
  1.003  1.003  1.003  1.003  1.004
    eigenvectors:
  0.000  0.000  0.000  1.000  0.000
  0.001  0.500  0.499  0.000  0.000
  0.001  0.500  0.499  0.000  0.000
  0.000  0.000  0.000  0.000  1.000
  0.999  0.000  0.001  0.000  0.000
    occupations:
  1.003 -0.000 -0.000 -0.000 -0.000
 -0.000  1.003  0.000 -0.000  0.000
 -0.000  0.000  1.003  0.000  0.000
 -0.000 -0.000  0.000  1.004 -0.000
 -0.000  0.000  0.000 -0.000  1.003
atomic mag. moment =    -4.738779
atom    5   Tr[ns(na)] (up, down, total) =   0.27479  5.01490  5.28970
   spin  1
    eigenvalues: 
  0.041  0.051  0.054  0.056  0.073
    eigenvectors:
  0.030  0.943  0.001  0.024  0.001
  0.000  0.016  0.213  0.771  0.001
  0.000  0.010  0.785  0.203  0.002
  0.969  0.030  0.000  0.000  0.000
  0.000  0.001  0.001  0.002  0.996
    occupations:
  0.051  0.001 -0.000 -0.002 -0.001
  0.001  0.055 -0.001  0.000 -0.000
 -0.000 -0.001  0.055  0.000  0.001
 -0.002  0.000  0.000  0.042  0.000
 -0.001 -0.000  0.001  0.000  0.072
   spin  2
    eigenvalues: 
  1.003  1.003  1.003  1.003  1.004
    eigenvectors:
  0.001  0.000  0.000  0.968  0.031
  0.001  0.994  0.005  0.000  0.000
  0.003  0.005  0.991  0.000  0.000
  0.000  0.000  0.000  0.031  0.969
  0.995  0.000  0.003  0.001  0.000
    occupations:
  1.003  0.000  0.000  0.000 -0.000
  0.000  1.003 -0.000  0.000 -0.000
  0.000 -0.000  1.003  0.000  0.000
  0.000  0.000  0.000  1.004 -0.000
 -0.000 -0.000  0.000 -0.000  1.003
atomic mag. moment =    -4.740108
atom    6   Tr[ns(na)] (up, down, total) =   5.01497  0.27420  5.28917
   spin  1
    eigenvalues: 
  1.003  1.003  1.003  1.003  1.004
    eigenvectors:
  0.000  0.001  0.001  0.972  0.026
  0.001  0.980  0.018  0.002  0.000
  0.005  0.018  0.976  0.000  0.000
  0.000  0.000  0.000  0.026  0.974
  0.994  0.000  0.005  0.000  0.000
    occupations:
  1.003 -0.000 -0.000  0.000 -0.000
 -0.000  1.003  0.000  0.000  0.000
 -0.000  0.000  1.003 -0.000  0.000
  0.000  0.000 -0.000  1.004 -0.000
 -0.000  0.000  0.000 -0.000  1.003
   spin  2
    eigenvalues: 
  0.041  0.051  0.054  0.056  0.072
    eigenvectors:
  0.030  0.942  0.002  0.025  0.001
  0.000  0.012  0.279  0.707  0.001
  0.000  0.015  0.718  0.265  0.002
  0.970  0.029  0.000  0.000  0.000
  0.000  0.001  0.000  0.003  0.996
    occupations:
  0.051  0.001 -0.001 -0.002 -0.001
  0.001  0.055 -0.001  0.000 -0.000
 -0.001 -0.001  0.055  0.000  0.001
 -0.002  0.000  0.000  0.041  0.000
 -0.001 -0.000  0.001  0.000  0.072
atomic mag. moment =     4.740771
atom    7   Tr[ns(na)] (up, down, total) =   0.27599  5.01477  5.29076
   spin  1
    eigenvalues: 
  0.041  0.052  0.055  0.056  0.072
    eigenvectors:
  0.000  0.979  0.000  0.021  0.000
  0.000  0.011  0.500  0.488  0.002
  0.000  0.011  0.500  0.488  0.002
  1.000  0.000  0.000  0.000  0.000
  0.000  0.000  0.000  0.003  0.997
    occupations:
  0.052  0.000  0.000 -0.000 -0.000
  0.000  0.056  0.000  0.000  0.001
  0.000  0.000  0.056 -0.000  0.001
 -0.000  0.000 -0.000  0.041 -0.000
 -0.000  0.001  0.001 -0.000  0.072
   spin  2
    eigenvalues: 
  1.003  1.003  1.003  1.003  1.004
    eigenvectors:
  0.000  0.000  0.000  1.000  0.000
  0.001  0.500  0.499  0.000  0.000
  0.001  0.500  0.499  0.000  0.000
  0.000  0.000  0.000  0.000  1.000
  0.999  0.000  0.001  0.000  0.000
    occupations:
  1.003 -0.000 -0.000 -0.000 -0.000
 -0.000  1.003  0.000 -0.000  0.000
 -0.000  0.000  1.003  0.000  0.000
 -0.000 -0.000  0.000  1.004 -0.000
 -0.000  0.000  0.000 -0.000  1.003
atomic mag. moment =    -4.738779
atom    8   Tr[ns(na)] (up, down, total) =   5.01481  0.27598  5.29080
   spin  1
    eigenvalues: 
  1.003  1.003  1.003  1.003  1.004
    eigenvectors:
  0.000  0.000  0.000  1.000  0.000
  0.001  0.500  0.499  0.000  0.000
  0.001  0.500  0.499  0.000  0.000
  0.000  0.000  0.000  0.000  1.000
  0.998  0.000  0.002  0.000  0.000
    occupations:
  1.003 -0.000 -0.000 -0.000 -0.000
 -0.000  1.003  0.000 -0.000  0.000
 -0.000  0.000  1.003  0.000  0.000
 -0.000 -0.000  0.000  1.004 -0.000
 -0.000  0.000  0.000 -0.000  1.003
   spin  2
    eigenvalues: 
  0.041  0.052  0.055  0.056  0.072
    eigenvectors:
  0.000  0.980  0.000  0.020  0.000
  0.000  0.010  0.500  0.489  0.002
  0.000  0.010  0.500  0.489  0.002
  1.000  0.000  0.000  0.000  0.000
  0.000  0.000  0.000  0.003  0.997
    occupations:
  0.052  0.000  0.000 -0.000 -0.000
  0.000  0.056  0.000  0.000  0.001
  0.000  0.000  0.056 -0.000  0.001
 -0.000  0.000 -0.000  0.041 -0.000
 -0.000  0.001  0.001 -0.000  0.072
atomic mag. moment =     4.738830
N of occupied +U levels =   42.320861
 --- exit write_ns ---

     total cpu time spent up to now is      654.1 secs

     total energy              =  -14679.21622947 Ry
     Harris-Foulkes estimate   =  -14669.84780725 Ry
     estimated scf accuracy    <      21.27685320 Ry

     total magnetization       =    -0.00 Bohr mag/cell
     absolute magnetization    =    43.50 Bohr mag/cell

     iteration #  2     ecut=    45.00 Ry     beta= 0.10
     Davidson diagonalization with overlap
     ethr =  7.19E-03,  avg # of iterations =  1.0

     total cpu time spent up to now is      949.4 secs

     total energy              =  -14692.15498074 Ry
     Harris-Foulkes estimate   =  -14679.32127621 Ry
     estimated scf accuracy    <      17.16264305 Ry

     total magnetization       =    -0.00 Bohr mag/cell
     absolute magnetization    =    43.07 Bohr mag/cell

     iteration #  3     ecut=    45.00 Ry     beta= 0.10
     Davidson diagonalization with overlap
     ethr =  5.80E-03,  avg # of iterations =  2.1

     total cpu time spent up to now is     1298.6 secs

     total energy              =  -14693.81625273 Ry
     Harris-Foulkes estimate   =  -14693.75521842 Ry
     estimated scf accuracy    <       4.06892177 Ry

     total magnetization       =     0.00 Bohr mag/cell
     absolute magnetization    =    39.22 Bohr mag/cell

     iteration #  4     ecut=    45.00 Ry     beta= 0.10
     Davidson diagonalization with overlap
     ethr =  1.37E-03,  avg # of iterations =  5.5

     total cpu time spent up to now is     1808.6 secs

     total energy              =  -14693.49762790 Ry
     Harris-Foulkes estimate   =  -14693.85620057 Ry
     estimated scf accuracy    <       4.34229553 Ry

     total magnetization       =     0.00 Bohr mag/cell
     absolute magnetization    =    39.01 Bohr mag/cell

     iteration #  5     ecut=    45.00 Ry     beta= 0.10
     Davidson diagonalization with overlap
     ethr =  1.37E-03,  avg # of iterations =  4.5

     total cpu time spent up to now is     2278.0 secs

     total energy              =  -14693.84781015 Ry
     Harris-Foulkes estimate   =  -14693.83761440 Ry
     estimated scf accuracy    <       0.32291758 Ry

     total magnetization       =    -0.00 Bohr mag/cell
     absolute magnetization    =    38.21 Bohr mag/cell

     iteration #  6     ecut=    45.00 Ry     beta= 0.10
     Davidson diagonalization with overlap
     ethr =  1.09E-04,  avg # of iterations =  3.8

     total cpu time spent up to now is     2819.0 secs

     total energy              =  -14693.98467970 Ry
     Harris-Foulkes estimate   =  -14693.94663180 Ry
     estimated scf accuracy    <       0.28261971 Ry

     total magnetization       =     0.00 Bohr mag/cell
     absolute magnetization    =    37.08 Bohr mag/cell

     iteration #  7     ecut=    45.00 Ry     beta= 0.10
     Davidson diagonalization with overlap
     ethr =  9.55E-05,  avg # of iterations =  2.0

     total cpu time spent up to now is     3149.5 secs

     total energy              =  -14693.87129369 Ry
     Harris-Foulkes estimate   =  -14694.01368428 Ry
     estimated scf accuracy    <       0.92767744 Ry

     total magnetization       =    -0.00 Bohr mag/cell
     absolute magnetization    =    36.92 Bohr mag/cell

     iteration #  8     ecut=    45.00 Ry     beta= 0.10
     Davidson diagonalization with overlap
     ethr =  9.55E-05,  avg # of iterations =  2.1

     total cpu time spent up to now is     3583.1 secs

     total energy              =  -14693.93801138 Ry
     Harris-Foulkes estimate   =  -14693.94175663 Ry
     estimated scf accuracy    <       0.05184706 Ry

     total magnetization       =     0.00 Bohr mag/cell
     absolute magnetization    =    36.96 Bohr mag/cell

     iteration #  9     ecut=    45.00 Ry     beta= 0.10
     Davidson diagonalization with overlap
     ethr =  1.75E-05,  avg # of iterations =  2.1

     total cpu time spent up to now is     3916.6 secs

     total energy              =  -14693.93889326 Ry
     Harris-Foulkes estimate   =  -14693.93911917 Ry
     estimated scf accuracy    <       0.02672889 Ry

     total magnetization       =     0.00 Bohr mag/cell
     absolute magnetization    =    36.99 Bohr mag/cell

     iteration # 10     ecut=    45.00 Ry     beta= 0.10
     Davidson diagonalization with overlap
     ethr =  9.03E-06,  avg # of iterations =  3.6

     total cpu time spent up to now is     4377.5 secs

     total energy              =  -14693.94193913 Ry
     Harris-Foulkes estimate   =  -14693.94135674 Ry
     estimated scf accuracy    <       0.00293783 Ry

     total magnetization       =    -0.00 Bohr mag/cell
     absolute magnetization    =    36.90 Bohr mag/cell

     iteration # 11     ecut=    45.00 Ry     beta= 0.10
     Davidson diagonalization with overlap
     ethr =  9.93E-07,  avg # of iterations =  3.9

     total cpu time spent up to now is     4864.5 secs

     total energy              =  -14693.94246556 Ry
     Harris-Foulkes estimate   =  -14693.94226153 Ry
     estimated scf accuracy    <       0.00067356 Ry

     total magnetization       =    -0.00 Bohr mag/cell
     absolute magnetization    =    36.86 Bohr mag/cell

     iteration # 12     ecut=    45.00 Ry     beta= 0.10
     Davidson diagonalization with overlap
     ethr =  2.28E-07,  avg # of iterations =  3.3

     total cpu time spent up to now is     5465.2 secs

     total energy              =  -14693.94262083 Ry
     Harris-Foulkes estimate   =  -14693.94271092 Ry
     estimated scf accuracy    <       0.00049886 Ry

     total magnetization       =     0.00 Bohr mag/cell
     absolute magnetization    =    36.83 Bohr mag/cell

     iteration # 13     ecut=    45.00 Ry     beta= 0.10
     Davidson diagonalization with overlap
     ethr =  1.69E-07,  avg # of iterations =  2.0

     total cpu time spent up to now is     5862.2 secs

     total energy              =  -14693.94272425 Ry
     Harris-Foulkes estimate   =  -14693.94270050 Ry
     estimated scf accuracy    <       0.00003048 Ry

     total magnetization       =     0.00 Bohr mag/cell
     absolute magnetization    =    36.81 Bohr mag/cell

     iteration # 14     ecut=    45.00 Ry     beta= 0.10
     Davidson diagonalization with overlap
     ethr =  1.03E-08,  avg # of iterations =  3.1

     total cpu time spent up to now is     6314.3 secs

     total energy              =  -14693.94274415 Ry
     Harris-Foulkes estimate   =  -14693.94272751 Ry
     estimated scf accuracy    <       0.00001740 Ry

     total magnetization       =     0.00 Bohr mag/cell
     absolute magnetization    =    36.81 Bohr mag/cell

     iteration # 15     ecut=    45.00 Ry     beta= 0.10
     Davidson diagonalization with overlap
     ethr =  5.88E-09,  avg # of iterations =  2.6

     total cpu time spent up to now is     6750.1 secs

     total energy              =  -14693.94275519 Ry
     Harris-Foulkes estimate   =  -14693.94274652 Ry
     estimated scf accuracy    <       0.00000797 Ry

     total magnetization       =     0.00 Bohr mag/cell
     absolute magnetization    =    36.81 Bohr mag/cell

     iteration # 16     ecut=    45.00 Ry     beta= 0.10
     Davidson diagonalization with overlap
     ethr =  2.69E-09,  avg # of iterations =  1.7

     total cpu time spent up to now is     7086.4 secs

     total energy              =  -14693.94276344 Ry
     Harris-Foulkes estimate   =  -14693.94275536 Ry
     estimated scf accuracy    <       0.00000491 Ry

     total magnetization       =     0.00 Bohr mag/cell
     absolute magnetization    =    36.80 Bohr mag/cell

     iteration # 17     ecut=    45.00 Ry     beta= 0.10
     Davidson diagonalization with overlap
     ethr =  1.66E-09,  avg # of iterations =  2.8
 
     Magnetic moment per site:
     atom:    1    charge:   13.5414    magn:    4.2140    constr:    0.0000
     atom:    2    charge:   13.5415    magn:   -4.2140    constr:    0.0000
     atom:    3    charge:   13.5377    magn:    4.2437    constr:    0.0000
     atom:    4    charge:   13.5376    magn:   -4.2437    constr:    0.0000
     atom:    5    charge:   13.5415    magn:   -4.2140    constr:    0.0000
     atom:    6    charge:   13.5414    magn:    4.2140    constr:    0.0000
     atom:    7    charge:   13.5376    magn:   -4.2437    constr:    0.0000
     atom:    8    charge:   13.5377    magn:    4.2437    constr:    0.0000
     atom:    9    charge:    9.0915    magn:   -0.0254    constr:    0.0000
     atom:   10    charge:    9.0916    magn:    0.0254    constr:    0.0000
     atom:   11    charge:    9.0914    magn:   -0.0103    constr:    0.0000
     atom:   12    charge:    9.0914    magn:    0.0103    constr:    0.0000
     atom:   13    charge:    9.0915    magn:   -0.0254    constr:    0.0000
     atom:   14    charge:    9.0916    magn:    0.0254    constr:    0.0000
     atom:   15    charge:    9.0914    magn:   -0.0103    constr:    0.0000
     atom:   16    charge:    9.0914    magn:    0.0103    constr:    0.0000
     atom:   17    charge:    9.0916    magn:    0.0254    constr:    0.0000
     atom:   18    charge:    9.0915    magn:   -0.0254    constr:    0.0000
     atom:   19    charge:    9.0914    magn:    0.0103    constr:    0.0000
     atom:   20    charge:    9.0914    magn:   -0.0103    constr:    0.0000
     atom:   21    charge:    9.0915    magn:   -0.0254    constr:    0.0000
     atom:   22    charge:    9.0916    magn:    0.0254    constr:    0.0000
     atom:   23    charge:    9.0914    magn:   -0.0103    constr:    0.0000
     atom:   24    charge:    9.0914    magn:    0.0103    constr:    0.0000

     total cpu time spent up to now is     7564.4 secs

     End of self-consistent calculation
 --- enter write_ns ---
 LDA+U parameters:
U(  1) =   3.1200   J(  1) =   0.7000   B(  1) =   0.0803
U(  2) =   3.1200   J(  2) =   0.7000   B(  2) =   0.0803
atom    1   Tr[ns(na)] (up, down, total) =   4.96594  0.75191  5.71785
   spin  1
    eigenvalues: 
  0.983  0.991  0.993  0.997  1.002
    eigenvectors:
  0.000  0.004  0.004  0.979  0.013
  0.008  0.391  0.593  0.008  0.000
  0.000  0.602  0.398  0.000  0.001
  0.000  0.000  0.001  0.013  0.986
  0.992  0.004  0.004  0.000  0.000
    occupations:
  0.997  0.000 -0.000 -0.000  0.000
  0.000  0.992  0.001  0.000  0.001
 -0.000  0.001  0.992  0.000  0.000
 -0.000  0.000  0.000  1.002  0.000
  0.000  0.001  0.000  0.000  0.983
   spin  2
    eigenvalues: 
  0.069  0.127  0.140  0.153  0.263
    eigenvectors:
  0.000  0.913  0.007  0.068  0.012
  0.001  0.074  0.057  0.867  0.001
  0.001  0.000  0.921  0.062  0.017
  0.998  0.000  0.000  0.001  0.000
  0.000  0.013  0.015  0.001  0.970
    occupations:
  0.131  0.006  0.003 -0.000 -0.015
  0.006  0.151  0.003  0.003  0.004
  0.003  0.003  0.142  0.002 -0.016
 -0.000  0.003  0.002  0.069  0.001
 -0.015  0.004 -0.016  0.001  0.259
atomic mag. moment =     4.214030
atom    2   Tr[ns(na)] (up, down, total) =   0.75200  4.96596  5.71796
   spin  1
    eigenvalues: 
  0.069  0.127  0.140  0.153  0.263
    eigenvectors:
  0.000  0.913  0.007  0.068  0.012
  0.001  0.074  0.057  0.867  0.001
  0.001  0.000  0.921  0.062  0.017
  0.998  0.000  0.000  0.001  0.000
  0.000  0.013  0.015  0.001  0.970
    occupations:
  0.131  0.006  0.003 -0.000 -0.015
  0.006  0.151  0.003  0.003  0.004
  0.003  0.003  0.142  0.002 -0.016
 -0.000  0.003  0.002  0.069  0.001
 -0.015  0.004 -0.016  0.001  0.259
   spin  2
    eigenvalues: 
  0.983  0.991  0.993  0.997  1.002
    eigenvectors:
  0.000  0.004  0.004  0.979  0.013
  0.008  0.391  0.593  0.008  0.000
  0.000  0.602  0.398  0.000  0.001
  0.000  0.000  0.001  0.013  0.986
  0.992  0.004  0.004  0.000  0.000
    occupations:
  0.997  0.000 -0.000 -0.000  0.000
  0.000  0.992  0.001  0.000  0.001
 -0.000  0.001  0.992  0.000  0.000
 -0.000  0.000  0.000  1.002  0.000
  0.000  0.001  0.000  0.000  0.983
atomic mag. moment =    -4.213963
atom    3   Tr[ns(na)] (up, down, total) =   4.96990  0.73038  5.70028
   spin  1
    eigenvalues: 
  0.985  0.993  0.993  0.997  1.002
    eigenvectors:
  0.002  0.000  0.028  0.970  0.000
  0.001  0.499  0.485  0.014  0.001
  0.001  0.499  0.485  0.014  0.001
  0.000  0.002  0.000  0.000  0.998
  0.996  0.000  0.001  0.002  0.000
    occupations:
  0.997 -0.000 -0.000 -0.000  0.000
 -0.000  0.993  0.000 -0.000 -0.000
 -0.000  0.000  0.993  0.000 -0.000
 -0.000 -0.000  0.000  1.002 -0.000
  0.000 -0.000 -0.000 -0.000  0.985
   spin  2
    eigenvalues: 
  0.070  0.121  0.144  0.152  0.244
    eigenvectors:
  0.000  0.981  0.000  0.019  0.000
  0.001  0.009  0.499  0.473  0.018
  0.001  0.009  0.499  0.473  0.018
  0.998  0.000  0.002  0.000  0.000
  0.000  0.001  0.000  0.035  0.964
    occupations:
  0.121 -0.003 -0.003 -0.000  0.001
 -0.003  0.149  0.005 -0.002  0.012
 -0.003  0.005  0.149  0.002  0.012
 -0.000 -0.002  0.002  0.070 -0.000
  0.001  0.012  0.012 -0.000  0.241
atomic mag. moment =     4.239527
atom    4   Tr[ns(na)] (up, down, total) =   0.73030  4.96989  5.70019
   spin  1
    eigenvalues: 
  0.070  0.121  0.144  0.152  0.244
    eigenvectors:
  0.000  0.981  0.000  0.018  0.000
  0.001  0.009  0.499  0.473  0.018
  0.001  0.009  0.499  0.473  0.018
  0.998  0.000  0.002  0.000  0.000
  0.000  0.001  0.000  0.035  0.964
    occupations:
  0.121 -0.003 -0.003 -0.000  0.001
 -0.003  0.149  0.005 -0.002  0.012
 -0.003  0.005  0.149  0.002  0.012
 -0.000 -0.002  0.002  0.070 -0.000
  0.001  0.012  0.012 -0.000  0.241
   spin  2
    eigenvalues: 
  0.985  0.993  0.993  0.997  1.002
    eigenvectors:
  0.002  0.000  0.028  0.970  0.000
  0.001  0.499  0.485  0.014  0.001
  0.001  0.499  0.485  0.014  0.001
  0.000  0.002  0.000  0.000  0.998
  0.996  0.000  0.001  0.002  0.000
    occupations:
  0.997 -0.000 -0.000 -0.000  0.000
 -0.000  0.993  0.000 -0.000 -0.000
 -0.000  0.000  0.993  0.000 -0.000
 -0.000 -0.000  0.000  1.002 -0.000
  0.000 -0.000 -0.000 -0.000  0.985
atomic mag. moment =    -4.239589
atom    5   Tr[ns(na)] (up, down, total) =   0.75200  4.96596  5.71796
   spin  1
    eigenvalues: 
  0.069  0.127  0.140  0.153  0.263
    eigenvectors:
  0.000  0.913  0.007  0.068  0.012
  0.001  0.000  0.921  0.062  0.017
  0.001  0.074  0.057  0.867  0.001
  0.998  0.000  0.000  0.001  0.000
  0.000  0.013  0.015  0.001  0.970
    occupations:
  0.131  0.003  0.006  0.000 -0.015
  0.003  0.142  0.003 -0.002 -0.016
  0.006  0.003  0.151 -0.003  0.004
  0.000 -0.002 -0.003  0.069 -0.001
 -0.015 -0.016  0.004 -0.001  0.259
   spin  2
    eigenvalues: 
  0.983  0.991  0.993  0.997  1.002
    eigenvectors:
  0.000  0.004  0.004  0.979  0.013
  0.000  0.602  0.398  0.000  0.001
  0.008  0.391  0.593  0.008  0.000
  0.000  0.000  0.001  0.013  0.986
  0.992  0.004  0.004  0.000  0.000
    occupations:
  0.997 -0.000  0.000  0.000  0.000
 -0.000  0.992  0.001 -0.000  0.000
  0.000  0.001  0.992 -0.000  0.001
  0.000 -0.000 -0.000  1.002 -0.000
  0.000  0.000  0.001 -0.000  0.983
atomic mag. moment =    -4.213963
atom    6   Tr[ns(na)] (up, down, total) =   4.96594  0.75191  5.71785
   spin  1
    eigenvalues: 
  0.983  0.991  0.993  0.997  1.002
    eigenvectors:
  0.000  0.004  0.004  0.979  0.013
  0.000  0.602  0.398  0.000  0.001
  0.008  0.391  0.593  0.008  0.000
  0.000  0.000  0.001  0.013  0.986
  0.992  0.004  0.004  0.000  0.000
    occupations:
  0.997 -0.000  0.000  0.000  0.000
 -0.000  0.992  0.001 -0.000  0.000
  0.000  0.001  0.992 -0.000  0.001
  0.000 -0.000 -0.000  1.002 -0.000
  0.000  0.000  0.001 -0.000  0.983
   spin  2
    eigenvalues: 
  0.069  0.127  0.140  0.153  0.263
    eigenvectors:
  0.000  0.913  0.007  0.068  0.012
  0.001  0.000  0.921  0.062  0.017
  0.001  0.074  0.057  0.867  0.001
  0.998  0.000  0.000  0.001  0.000
  0.000  0.013  0.015  0.001  0.970
    occupations:
  0.131  0.003  0.006  0.000 -0.015
  0.003  0.142  0.003 -0.002 -0.016
  0.006  0.003  0.151 -0.003  0.004
  0.000 -0.002 -0.003  0.069 -0.001
 -0.015 -0.016  0.004 -0.001  0.259
atomic mag. moment =     4.214030
atom    7   Tr[ns(na)] (up, down, total) =   0.73030  4.96989  5.70019
   spin  1
    eigenvalues: 
  0.070  0.121  0.144  0.152  0.244
    eigenvectors:
  0.000  0.981  0.000  0.018  0.000
  0.001  0.009  0.499  0.473  0.018
  0.001  0.009  0.499  0.473  0.018
  0.998  0.000  0.002  0.000  0.000
  0.000  0.001  0.000  0.035  0.964
    occupations:
  0.121 -0.003 -0.003 -0.000  0.001
 -0.003  0.149  0.005 -0.002  0.012
 -0.003  0.005  0.149  0.002  0.012
 -0.000 -0.002  0.002  0.070 -0.000
  0.001  0.012  0.012 -0.000  0.241
   spin  2
    eigenvalues: 
  0.985  0.993  0.993  0.997  1.002
    eigenvectors:
  0.002  0.000  0.028  0.970  0.000
  0.001  0.499  0.485  0.014  0.001
  0.001  0.499  0.485  0.014  0.001
  0.000  0.002  0.000  0.000  0.998
  0.996  0.000  0.001  0.002  0.000
    occupations:
  0.997 -0.000 -0.000 -0.000  0.000
 -0.000  0.993  0.000 -0.000 -0.000
 -0.000  0.000  0.993  0.000 -0.000
 -0.000 -0.000  0.000  1.002 -0.000
  0.000 -0.000 -0.000 -0.000  0.985
atomic mag. moment =    -4.239589
atom    8   Tr[ns(na)] (up, down, total) =   4.96990  0.73038  5.70028
   spin  1
    eigenvalues: 
  0.985  0.993  0.993  0.997  1.002
    eigenvectors:
  0.002  0.000  0.028  0.970  0.000
  0.001  0.499  0.485  0.014  0.001
  0.001  0.499  0.485  0.014  0.001
  0.000  0.002  0.000  0.000  0.998
  0.996  0.000  0.001  0.002  0.000
    occupations:
  0.997 -0.000 -0.000 -0.000  0.000
 -0.000  0.993  0.000 -0.000 -0.000
 -0.000  0.000  0.993  0.000 -0.000
 -0.000 -0.000  0.000  1.002 -0.000
  0.000 -0.000 -0.000 -0.000  0.985
   spin  2
    eigenvalues: 
  0.070  0.121  0.144  0.152  0.244
    eigenvectors:
  0.000  0.981  0.000  0.019  0.000
  0.001  0.009  0.499  0.473  0.018
  0.001  0.009  0.499  0.473  0.018
  0.998  0.000  0.002  0.000  0.000
  0.000  0.001  0.000  0.035  0.964
    occupations:
  0.121 -0.003 -0.003 -0.000  0.001
 -0.003  0.149  0.005 -0.002  0.012
 -0.003  0.005  0.149  0.002  0.012
 -0.000 -0.002  0.002  0.070 -0.000
  0.001  0.012  0.012 -0.000  0.241
atomic mag. moment =     4.239527
N of occupied +U levels =   45.672563
 --- exit write_ns ---

     Number of k-points >= 100: set verbosity='high' to print the bands.

     the Fermi energy is    15.6088 ev

!    total energy              =  -14693.94279014 Ry
     Harris-Foulkes estimate   =  -14693.94276544 Ry
     estimated scf accuracy    <       0.00000081 Ry

     total all-electron energy =   -626921.538512 Ry

     The total energy is the sum of the following terms:

     one-electron contribution =    -698.43841217 Ry
     hartree contribution      =     651.58512609 Ry
     xc contribution           =    -738.10884923 Ry
     ewald contribution        =   -2207.56121140 Ry
     Hubbard energy            =       0.45541677 Ry
     one-center paw contrib.   =  -11701.87486019 Ry

     total magnetization       =    -0.00 Bohr mag/cell
     absolute magnetization    =    36.80 Bohr mag/cell

     convergence has been achieved in  17 iterations

     Writing output data file mnau2.save/
 
     init_run     :    158.57s CPU    161.34s WALL (       1 calls)
     electrons    :   7261.03s CPU   7397.73s WALL (       1 calls)

     Called by init_run:
     wfcinit      :    156.13s CPU    158.69s WALL (       1 calls)
     potinit      :      1.01s CPU      1.05s WALL (       1 calls)
     hinit0       :      0.80s CPU      0.92s WALL (       1 calls)

     Called by electrons:
     c_bands      :   6427.46s CPU   6543.91s WALL (      17 calls)
     sum_band     :    817.65s CPU    836.83s WALL (      17 calls)
     v_of_rho     :      1.47s CPU      1.49s WALL (      18 calls)
     newd         :      4.89s CPU      4.92s WALL (      18 calls)
     PAW_pot      :      9.91s CPU      9.99s WALL (      18 calls)
     mix_rho      :      0.28s CPU      0.30s WALL (      17 calls)

     Called by c_bands:
     init_us_2    :     31.31s CPU     31.51s WALL (   12240 calls)
     cegterg      :   6242.84s CPU   6355.92s WALL (    5780 calls)

     Called by sum_band:
     sum_band:bec :      8.27s CPU      8.33s WALL (    5780 calls)
     addusdens    :      8.23s CPU      8.31s WALL (      17 calls)

     Called by *egterg:
     h_psi        :   3569.12s CPU   3637.07s WALL (   23367 calls)
     s_psi        :    264.36s CPU    264.78s WALL (   23707 calls)
     g_psi        :      7.89s CPU      7.94s WALL (   17247 calls)
     cdiaghg      :   1745.89s CPU   1787.78s WALL (   23027 calls)

     Called by h_psi:
     h_psi:pot    :   3450.99s CPU   3518.13s WALL (   23367 calls)
     h_psi:calbec :    296.72s CPU    306.86s WALL (   23367 calls)
     vloc_psi     :   2900.80s CPU   2957.42s WALL (   23367 calls)
     add_vuspsi   :    253.15s CPU    253.61s WALL (   23367 calls)
     vhpsi        :    111.18s CPU    111.95s WALL (   23367 calls)

     General routines
     calbec       :    503.12s CPU    518.86s WALL (   58634 calls)
     fft          :      1.03s CPU      1.16s WALL (     446 calls)
     ffts         :      0.08s CPU      0.08s WALL (      70 calls)
     fftw         :   3352.38s CPU   3417.65s WALL ( 5799326 calls)
     interpolate  :      0.12s CPU      0.12s WALL (      36 calls)
     davcio       :      0.01s CPU      3.02s WALL (     340 calls)
 
     Parallel routines
     fft_scatt_xy :    182.88s CPU    185.78s WALL ( 5799842 calls)
     fft_scatt_yz :   2379.29s CPU   2429.85s WALL ( 5799842 calls)

     Hubbard U routines
     new_ns       :     21.56s CPU     23.57s WALL (      17 calls)
     vhpsi        :    111.18s CPU    111.95s WALL (   23367 calls)
 
     PWSCF        :     2h 5m CPU        5h 2m WALL

      10h
 
   This run was terminated on:  19:46:43  28Mar2019            

=------------------------------------------------------------------------------=
   JOB DONE.
=------------------------------------------------------------------------------=
