
     Program PWSCF v.6.3MaX starts on  1Apr2019 at  6: 0:52 

     This program is part of the open-source Quantum ESPRESSO suite
     for quantum simulation of materials; please cite
         "P. Giannozzi et al., J. Phys.:Condens. Matter 21 395502 (2009);
         "P. Giannozzi et al., J. Phys.:Condens. Matter 29 465901 (2017);
          URL http://www.quantum-espresso.org", 
     in publications or presentations arising from this work. More details at
     http://www.quantum-espresso.org/quote

     Parallel version (MPI), running on    32 processors

     MPI processes distributed on     1 nodes
     R & G space division:  proc/nbgrp/npool/nimage =      32
     Waiting for input...
     Reading input from standard input

     Current dimensions of program PWSCF are:
     Max number of different atomic species (ntypx) = 10
     Max number of k-points (npk) =  40000
     Max angular momentum in pseudopotentials (lmaxx) =  3
     Message from routine read_upf::
     Pseudo file ./pseudo/Mn.pbe-spn-kjpaw_psl.0.3.1.UPF has been successfully fixed on the fly.
To avoid this message in the future you can permanently fix 
 your pseudo files following instructions given in: 
https://gitlab.com/QEF/q-e/blob/master/upftools/how_to_fix_upf.md
               file Mn.pbe-spn-kjpaw_psl.0.3.1.UPF: wavefunction(s)  3P 3D renormalized
     Message from routine read_upf::
     Pseudo file ./pseudo/Mn.pbe-spn-kjpaw_psl.0.3.1.UPF has been successfully fixed on the fly.
To avoid this message in the future you can permanently fix 
 your pseudo files following instructions given in: 
https://gitlab.com/QEF/q-e/blob/master/upftools/how_to_fix_upf.md
               file Mn.pbe-spn-kjpaw_psl.0.3.1.UPF: wavefunction(s)  3P 3D renormalized
     Message from routine read_upf::
     Pseudo file ./pseudo/Au.pbe-dn-kjpaw_psl.0.1.UPF has been successfully fixed on the fly.
To avoid this message in the future you can permanently fix 
 your pseudo files following instructions given in: 
https://gitlab.com/QEF/q-e/blob/master/upftools/how_to_fix_upf.md
               file Au.pbe-dn-kjpaw_psl.0.1.UPF: wavefunction(s)  6S 6P 5D renormalized

     Subspace diagonalization in iterative solution of the eigenvalue problem:
     one sub-group per band group will be used
     scalapack distributed-memory algorithm (size of sub-group:  4*  4 procs)

 
     Parallelization info
     --------------------
     sticks:   dense  smooth     PW     G-vecs:    dense   smooth      PW
     Min         323     145     42                11331     3421     537
     Max         324     146     43                11333     3423     539
     Sum       10349    4645   1353               362619   109493   17211
 


     bravais-lattice index     =            0
     lattice parameter (alat)  =      18.0125  a.u.
     unit-cell volume          =    2685.0513 (a.u.)^3
     number of atoms/cell      =           24
     number of atomic types    =            3
     number of electrons       =       296.00
     number of Kohn-Sham states=          178
     kinetic-energy cutoff     =      45.0000  Ry
     charge density cutoff     =     400.0000  Ry
     convergence threshold     =      1.0E-06
     mixing beta               =       0.1000
     number of iterations used =            8  plain     mixing
     Exchange-correlation      = SLA PW PBX PBC ( 1  4  3  4 0 0)

     celldm(1)=  18.012490  celldm(2)=   0.000000  celldm(3)=   0.000000
     celldm(4)=   0.000000  celldm(5)=   0.000000  celldm(6)=   0.000000

     crystal axes: (cart. coord. in units of alat)
               a(1) = (   0.707107  -0.707107   0.000000 )  
               a(2) = (  -0.707107  -0.707107   0.000000 )  
               a(3) = (   0.176777   0.176777  -0.459443 )  

     reciprocal axes: (cart. coord. in units 2 pi/alat)
               b(1) = (  0.707107 -0.707107  0.000000 )  
               b(2) = ( -0.707107 -0.707107 -0.544138 )  
               b(3) = (  0.000000  0.000000 -2.176550 )  


     PseudoPot. # 1 for Mn read from file:
     ./pseudo/Mn.pbe-spn-kjpaw_psl.0.3.1.UPF
     MD5 check sum: 7eef95dd2aae66803482eea66ebeebf1
     Pseudo is Projector augmented-wave + core cor, Zval = 15.0
     Generated using "atomic" code by A. Dal Corso v.5.0.99 svn rev. 10869
     Shape of augmentation charge: PSQ
     Using radial grid of 1187 points,  6 beta functions with: 
                l(1) =   0
                l(2) =   0
                l(3) =   1
                l(4) =   1
                l(5) =   2
                l(6) =   2
     Q(r) pseudized with 0 coefficients 


     PseudoPot. # 2 for Mn read from file:
     ./pseudo/Mn.pbe-spn-kjpaw_psl.0.3.1.UPF
     MD5 check sum: 7eef95dd2aae66803482eea66ebeebf1
     Pseudo is Projector augmented-wave + core cor, Zval = 15.0
     Generated using "atomic" code by A. Dal Corso v.5.0.99 svn rev. 10869
     Shape of augmentation charge: PSQ
     Using radial grid of 1187 points,  6 beta functions with: 
                l(1) =   0
                l(2) =   0
                l(3) =   1
                l(4) =   1
                l(5) =   2
                l(6) =   2
     Q(r) pseudized with 0 coefficients 


     PseudoPot. # 3 for Au read from file:
     ./pseudo/Au.pbe-dn-kjpaw_psl.0.1.UPF
     MD5 check sum: 5c9b92683623e7ae2ab3f8e525febab6
     Pseudo is Projector augmented-wave + core cor, Zval = 11.0
     Generated using "atomic" code by A. Dal Corso v.5.0.2 svn rev. 9415
     Shape of augmentation charge: PSQ
     Using radial grid of 1279 points,  6 beta functions with: 
                l(1) =   0
                l(2) =   0
                l(3) =   1
                l(4) =   1
                l(5) =   2
                l(6) =   2
     Q(r) pseudized with 0 coefficients 


     atomic species   valence    mass     pseudopotential
        Mn1           15.00    54.93800     Mn( 1.00)
        Mn2           15.00    54.93800     Mn( 1.00)
        Au            11.00   196.96600     Au( 1.00)

     Starting magnetic structure 
     atomic species   magnetization
        Mn1          1.000
        Mn2         -1.000
        Au           0.000


     Full LDA+U calculation (l_max = 2) with parameters (eV):
     U(  1) =   3.1200   J(  1) =   0.7000   B(  1) =   0.0803
     U(  2) =   3.1200   J(  2) =   0.7000   B(  2) =   0.0803



      2 Sym. Ops. (no inversion) found ( 1 have fractional translation)



   Cartesian axes

     site n.     atom                  positions (alat units)
         1           Mn1 tau(   1) = (   0.3535534  -0.3535534   0.0000000  )
         2           Mn1 tau(   2) = (   0.0000000   0.0000000   0.0000000  )
         3           Mn2 tau(   3) = (   0.0000000  -0.3535534   0.0000000  )
         4           Mn1 tau(   4) = (   0.3535534  -0.7071068   0.0000000  )
         5           Mn2 tau(   5) = (  -0.3535534  -0.3535534   0.0000000  )
         6           Mn2 tau(   6) = (   0.0000000  -0.7071068   0.0000000  )
         7           Mn1 tau(   7) = (  -0.3535534  -0.7071068   0.0000000  )
         8           Mn1 tau(   8) = (   0.0000000  -1.0606602   0.0000000  )
         9           Au  tau(   9) = (  -0.1767767  -0.1767767  -0.1470216  )
        10           Au  tau(  10) = (   0.1767767  -0.5303301  -0.1470216  )
        11           Au  tau(  11) = (  -0.1767767  -0.5303301  -0.1470216  )
        12           Au  tau(  12) = (   0.1767767  -0.8838835  -0.1470216  )
        13           Au  tau(  13) = (  -0.5303301  -0.5303301  -0.1470216  )
        14           Au  tau(  14) = (  -0.1767767  -0.8838835  -0.1470216  )
        15           Au  tau(  15) = (   0.5303301  -0.5303301  -0.1470216  )
        16           Au  tau(  16) = (   0.1767767  -0.1767767  -0.1470216  )
        17           Au  tau(  17) = (   0.3535534  -0.3535534  -0.3124210  )
        18           Au  tau(  18) = (   0.0000000   0.0000000  -0.3124210  )
        19           Au  tau(  19) = (   0.0000000  -0.3535534  -0.3124210  )
        20           Au  tau(  20) = (   0.3535534  -0.7071068  -0.3124210  )
        21           Au  tau(  21) = (  -0.3535534  -0.3535534  -0.3124210  )
        22           Au  tau(  22) = (  -0.0000000  -0.7071068  -0.3124210  )
        23           Au  tau(  23) = (  -0.3535534  -0.7071068  -0.3124210  )
        24           Au  tau(  24) = (   0.0000000  -1.0606602  -0.3124210  )

     number of k points=   170 (tetrahedron method)

     Number of k-points >= 100: set verbosity='high' to print them.

     Dense  grid:   362619 G-vectors     FFT dimensions: ( 120, 120,  60)

     Smooth grid:   109493 G-vectors     FFT dimensions: (  80,  80,  45)

     Estimated max dynamical RAM per process >     547.93 MB

     Estimated total dynamical RAM >      17.12 GB
     Generating pointlists ...
     new r_m :   0.1196 (alat units)  2.1549 (a.u.) for type    1
     new r_m :   0.1196 (alat units)  2.1549 (a.u.) for type    2
     new r_m :   0.1196 (alat units)  2.1549 (a.u.) for type    3

     Check: negative/imaginary core charge=   -0.000006    0.000000

     Initial potential from superposition of free atoms

     starting charge  295.99426, renormalised to  296.00000
     Number of +U iterations with fixed ns =  0
     Starting occupations:
 --- enter write_ns ---
 LDA+U parameters:
U(  1) =   3.1200   J(  1) =   0.7000   B(  1) =   0.0803
U(  2) =   3.1200   J(  2) =   0.7000   B(  2) =   0.0803
atom    1   Tr[ns(na)] (up, down, total) =   5.00000  0.00000  5.00000
   spin  1
    eigenvalues: 
  1.000  1.000  1.000  1.000  1.000
    eigenvectors:
  1.000  0.000  0.000  0.000  0.000
  0.000  1.000  0.000  0.000  0.000
  0.000  0.000  1.000  0.000  0.000
  0.000  0.000  0.000  1.000  0.000
  0.000  0.000  0.000  0.000  1.000
    occupations:
  1.000  0.000  0.000  0.000  0.000
  0.000  1.000  0.000  0.000  0.000
  0.000  0.000  1.000  0.000  0.000
  0.000  0.000  0.000  1.000  0.000
  0.000  0.000  0.000  0.000  1.000
   spin  2
    eigenvalues: 
  0.000  0.000  0.000  0.000  0.000
    eigenvectors:
  1.000  0.000  0.000  0.000  0.000
  0.000  1.000  0.000  0.000  0.000
  0.000  0.000  1.000  0.000  0.000
  0.000  0.000  0.000  1.000  0.000
  0.000  0.000  0.000  0.000  1.000
    occupations:
  0.000  0.000  0.000  0.000  0.000
  0.000  0.000  0.000  0.000  0.000
  0.000  0.000  0.000  0.000  0.000
  0.000  0.000  0.000  0.000  0.000
  0.000  0.000  0.000  0.000  0.000
atomic mag. moment =     5.000000
atom    2   Tr[ns(na)] (up, down, total) =   5.00000  0.00000  5.00000
   spin  1
    eigenvalues: 
  1.000  1.000  1.000  1.000  1.000
    eigenvectors:
  1.000  0.000  0.000  0.000  0.000
  0.000  1.000  0.000  0.000  0.000
  0.000  0.000  1.000  0.000  0.000
  0.000  0.000  0.000  1.000  0.000
  0.000  0.000  0.000  0.000  1.000
    occupations:
  1.000  0.000  0.000  0.000  0.000
  0.000  1.000  0.000  0.000  0.000
  0.000  0.000  1.000  0.000  0.000
  0.000  0.000  0.000  1.000  0.000
  0.000  0.000  0.000  0.000  1.000
   spin  2
    eigenvalues: 
  0.000  0.000  0.000  0.000  0.000
    eigenvectors:
  1.000  0.000  0.000  0.000  0.000
  0.000  1.000  0.000  0.000  0.000
  0.000  0.000  1.000  0.000  0.000
  0.000  0.000  0.000  1.000  0.000
  0.000  0.000  0.000  0.000  1.000
    occupations:
  0.000  0.000  0.000  0.000  0.000
  0.000  0.000  0.000  0.000  0.000
  0.000  0.000  0.000  0.000  0.000
  0.000  0.000  0.000  0.000  0.000
  0.000  0.000  0.000  0.000  0.000
atomic mag. moment =     5.000000
atom    3   Tr[ns(na)] (up, down, total) =   0.00000  5.00000  5.00000
   spin  1
    eigenvalues: 
  0.000  0.000  0.000  0.000  0.000
    eigenvectors:
  1.000  0.000  0.000  0.000  0.000
  0.000  1.000  0.000  0.000  0.000
  0.000  0.000  1.000  0.000  0.000
  0.000  0.000  0.000  1.000  0.000
  0.000  0.000  0.000  0.000  1.000
    occupations:
  0.000  0.000  0.000  0.000  0.000
  0.000  0.000  0.000  0.000  0.000
  0.000  0.000  0.000  0.000  0.000
  0.000  0.000  0.000  0.000  0.000
  0.000  0.000  0.000  0.000  0.000
   spin  2
    eigenvalues: 
  1.000  1.000  1.000  1.000  1.000
    eigenvectors:
  1.000  0.000  0.000  0.000  0.000
  0.000  1.000  0.000  0.000  0.000
  0.000  0.000  1.000  0.000  0.000
  0.000  0.000  0.000  1.000  0.000
  0.000  0.000  0.000  0.000  1.000
    occupations:
  1.000  0.000  0.000  0.000  0.000
  0.000  1.000  0.000  0.000  0.000
  0.000  0.000  1.000  0.000  0.000
  0.000  0.000  0.000  1.000  0.000
  0.000  0.000  0.000  0.000  1.000
atomic mag. moment =    -5.000000
atom    4   Tr[ns(na)] (up, down, total) =   5.00000  0.00000  5.00000
   spin  1
    eigenvalues: 
  1.000  1.000  1.000  1.000  1.000
    eigenvectors:
  1.000  0.000  0.000  0.000  0.000
  0.000  1.000  0.000  0.000  0.000
  0.000  0.000  1.000  0.000  0.000
  0.000  0.000  0.000  1.000  0.000
  0.000  0.000  0.000  0.000  1.000
    occupations:
  1.000  0.000  0.000  0.000  0.000
  0.000  1.000  0.000  0.000  0.000
  0.000  0.000  1.000  0.000  0.000
  0.000  0.000  0.000  1.000  0.000
  0.000  0.000  0.000  0.000  1.000
   spin  2
    eigenvalues: 
  0.000  0.000  0.000  0.000  0.000
    eigenvectors:
  1.000  0.000  0.000  0.000  0.000
  0.000  1.000  0.000  0.000  0.000
  0.000  0.000  1.000  0.000  0.000
  0.000  0.000  0.000  1.000  0.000
  0.000  0.000  0.000  0.000  1.000
    occupations:
  0.000  0.000  0.000  0.000  0.000
  0.000  0.000  0.000  0.000  0.000
  0.000  0.000  0.000  0.000  0.000
  0.000  0.000  0.000  0.000  0.000
  0.000  0.000  0.000  0.000  0.000
atomic mag. moment =     5.000000
atom    5   Tr[ns(na)] (up, down, total) =   0.00000  5.00000  5.00000
   spin  1
    eigenvalues: 
  0.000  0.000  0.000  0.000  0.000
    eigenvectors:
  1.000  0.000  0.000  0.000  0.000
  0.000  1.000  0.000  0.000  0.000
  0.000  0.000  1.000  0.000  0.000
  0.000  0.000  0.000  1.000  0.000
  0.000  0.000  0.000  0.000  1.000
    occupations:
  0.000  0.000  0.000  0.000  0.000
  0.000  0.000  0.000  0.000  0.000
  0.000  0.000  0.000  0.000  0.000
  0.000  0.000  0.000  0.000  0.000
  0.000  0.000  0.000  0.000  0.000
   spin  2
    eigenvalues: 
  1.000  1.000  1.000  1.000  1.000
    eigenvectors:
  1.000  0.000  0.000  0.000  0.000
  0.000  1.000  0.000  0.000  0.000
  0.000  0.000  1.000  0.000  0.000
  0.000  0.000  0.000  1.000  0.000
  0.000  0.000  0.000  0.000  1.000
    occupations:
  1.000  0.000  0.000  0.000  0.000
  0.000  1.000  0.000  0.000  0.000
  0.000  0.000  1.000  0.000  0.000
  0.000  0.000  0.000  1.000  0.000
  0.000  0.000  0.000  0.000  1.000
atomic mag. moment =    -5.000000
atom    6   Tr[ns(na)] (up, down, total) =   0.00000  5.00000  5.00000
   spin  1
    eigenvalues: 
  0.000  0.000  0.000  0.000  0.000
    eigenvectors:
  1.000  0.000  0.000  0.000  0.000
  0.000  1.000  0.000  0.000  0.000
  0.000  0.000  1.000  0.000  0.000
  0.000  0.000  0.000  1.000  0.000
  0.000  0.000  0.000  0.000  1.000
    occupations:
  0.000  0.000  0.000  0.000  0.000
  0.000  0.000  0.000  0.000  0.000
  0.000  0.000  0.000  0.000  0.000
  0.000  0.000  0.000  0.000  0.000
  0.000  0.000  0.000  0.000  0.000
   spin  2
    eigenvalues: 
  1.000  1.000  1.000  1.000  1.000
    eigenvectors:
  1.000  0.000  0.000  0.000  0.000
  0.000  1.000  0.000  0.000  0.000
  0.000  0.000  1.000  0.000  0.000
  0.000  0.000  0.000  1.000  0.000
  0.000  0.000  0.000  0.000  1.000
    occupations:
  1.000  0.000  0.000  0.000  0.000
  0.000  1.000  0.000  0.000  0.000
  0.000  0.000  1.000  0.000  0.000
  0.000  0.000  0.000  1.000  0.000
  0.000  0.000  0.000  0.000  1.000
atomic mag. moment =    -5.000000
atom    7   Tr[ns(na)] (up, down, total) =   5.00000  0.00000  5.00000
   spin  1
    eigenvalues: 
  1.000  1.000  1.000  1.000  1.000
    eigenvectors:
  1.000  0.000  0.000  0.000  0.000
  0.000  1.000  0.000  0.000  0.000
  0.000  0.000  1.000  0.000  0.000
  0.000  0.000  0.000  1.000  0.000
  0.000  0.000  0.000  0.000  1.000
    occupations:
  1.000  0.000  0.000  0.000  0.000
  0.000  1.000  0.000  0.000  0.000
  0.000  0.000  1.000  0.000  0.000
  0.000  0.000  0.000  1.000  0.000
  0.000  0.000  0.000  0.000  1.000
   spin  2
    eigenvalues: 
  0.000  0.000  0.000  0.000  0.000
    eigenvectors:
  1.000  0.000  0.000  0.000  0.000
  0.000  1.000  0.000  0.000  0.000
  0.000  0.000  1.000  0.000  0.000
  0.000  0.000  0.000  1.000  0.000
  0.000  0.000  0.000  0.000  1.000
    occupations:
  0.000  0.000  0.000  0.000  0.000
  0.000  0.000  0.000  0.000  0.000
  0.000  0.000  0.000  0.000  0.000
  0.000  0.000  0.000  0.000  0.000
  0.000  0.000  0.000  0.000  0.000
atomic mag. moment =     5.000000
atom    8   Tr[ns(na)] (up, down, total) =   5.00000  0.00000  5.00000
   spin  1
    eigenvalues: 
  1.000  1.000  1.000  1.000  1.000
    eigenvectors:
  1.000  0.000  0.000  0.000  0.000
  0.000  1.000  0.000  0.000  0.000
  0.000  0.000  1.000  0.000  0.000
  0.000  0.000  0.000  1.000  0.000
  0.000  0.000  0.000  0.000  1.000
    occupations:
  1.000  0.000  0.000  0.000  0.000
  0.000  1.000  0.000  0.000  0.000
  0.000  0.000  1.000  0.000  0.000
  0.000  0.000  0.000  1.000  0.000
  0.000  0.000  0.000  0.000  1.000
   spin  2
    eigenvalues: 
  0.000  0.000  0.000  0.000  0.000
    eigenvectors:
  1.000  0.000  0.000  0.000  0.000
  0.000  1.000  0.000  0.000  0.000
  0.000  0.000  1.000  0.000  0.000
  0.000  0.000  0.000  1.000  0.000
  0.000  0.000  0.000  0.000  1.000
    occupations:
  0.000  0.000  0.000  0.000  0.000
  0.000  0.000  0.000  0.000  0.000
  0.000  0.000  0.000  0.000  0.000
  0.000  0.000  0.000  0.000  0.000
  0.000  0.000  0.000  0.000  0.000
atomic mag. moment =     5.000000
N of occupied +U levels =   40.000000
 --- exit write_ns ---
 Atomic wfc used for LDA+U Projector are NOT orthogonalized
     Starting wfcs are  224 randomized atomic wfcs
     Checking if some PAW data can be deallocated... 

     total cpu time spent up to now is      324.3 secs

     Self-consistent Calculation

     iteration #  1     ecut=    45.00 Ry     beta= 0.10
     Davidson diagonalization with overlap
     ethr =  1.00E-02,  avg # of iterations =  4.5
 --- enter write_ns ---
 LDA+U parameters:
U(  1) =   3.1200   J(  1) =   0.7000   B(  1) =   0.0803
U(  2) =   3.1200   J(  2) =   0.7000   B(  2) =   0.0803
atom    1   Tr[ns(na)] (up, down, total) =   5.01493  0.27452  5.28945
   spin  1
    eigenvalues: 
  1.003  1.003  1.003  1.003  1.004
    eigenvectors:
  0.001  0.000  0.001  0.997  0.001
  0.001  0.998  0.000  0.000  0.000
  0.001  0.000  0.998  0.001  0.000
  0.000  0.000  0.000  0.001  0.999
  0.997  0.001  0.001  0.001  0.000
    occupations:
  1.003 -0.000 -0.000  0.000  0.000
 -0.000  1.003  0.000  0.000 -0.000
 -0.000  0.000  1.003  0.000  0.000
  0.000  0.000  0.000  1.004  0.000
  0.000 -0.000  0.000  0.000  1.003
   spin  2
    eigenvalues: 
  0.040  0.051  0.054  0.056  0.073
    eigenvectors:
  0.005  0.966  0.005  0.023  0.001
  0.000  0.027  0.382  0.589  0.002
  0.000  0.002  0.612  0.383  0.003
  0.994  0.005  0.001  0.000  0.000
  0.000  0.001  0.000  0.005  0.994
    occupations:
  0.051  0.001  0.000 -0.001  0.001
  0.001  0.055  0.001 -0.000  0.001
  0.000  0.001  0.055  0.000  0.001
 -0.001 -0.000  0.000  0.040 -0.000
  0.001  0.001  0.001 -0.000  0.073
atomic mag. moment =     4.740414
atom    2   Tr[ns(na)] (up, down, total) =   5.01493  0.27452  5.28945
   spin  1
    eigenvalues: 
  1.003  1.003  1.003  1.003  1.004
    eigenvectors:
  0.001  0.000  0.001  0.997  0.001
  0.001  0.000  0.998  0.001  0.000
  0.001  0.998  0.000  0.000  0.000
  0.000  0.000  0.000  0.001  0.999
  0.997  0.001  0.001  0.001  0.000
    occupations:
  1.003 -0.000 -0.000 -0.000  0.000
 -0.000  1.003  0.000 -0.000  0.000
 -0.000  0.000  1.003 -0.000 -0.000
 -0.000 -0.000 -0.000  1.004 -0.000
  0.000  0.000 -0.000 -0.000  1.003
   spin  2
    eigenvalues: 
  0.040  0.051  0.054  0.056  0.073
    eigenvectors:
  0.005  0.966  0.005  0.023  0.001
  0.000  0.002  0.612  0.383  0.003
  0.000  0.027  0.382  0.589  0.002
  0.994  0.005  0.001  0.000  0.000
  0.000  0.001  0.000  0.005  0.994
    occupations:
  0.051  0.000  0.001  0.001  0.001
  0.000  0.055  0.001 -0.000  0.001
  0.001  0.001  0.055  0.000  0.001
  0.001 -0.000  0.000  0.040  0.000
  0.001  0.001  0.001  0.000  0.073
atomic mag. moment =     4.740414
atom    3   Tr[ns(na)] (up, down, total) =   0.27563  5.01488  5.29050
   spin  1
    eigenvalues: 
  0.041  0.052  0.055  0.056  0.072
    eigenvectors:
  0.000  0.983  0.000  0.017  0.000
  0.000  0.009  0.500  0.489  0.002
  0.000  0.009  0.500  0.489  0.002
  1.000  0.000  0.000  0.000  0.000
  0.000  0.000  0.000  0.005  0.995
    occupations:
  0.052  0.000  0.000  0.000 -0.000
  0.000  0.055  0.000  0.000  0.001
  0.000  0.000  0.055 -0.000  0.001
  0.000  0.000 -0.000  0.041 -0.000
 -0.000  0.001  0.001 -0.000  0.072
   spin  2
    eigenvalues: 
  1.003  1.003  1.003  1.003  1.004
    eigenvectors:
  0.000  0.000  0.001  0.998  0.000
  0.000  0.500  0.499  0.001  0.000
  0.000  0.500  0.499  0.001  0.000
  0.000  0.000  0.000  0.000  1.000
  1.000  0.000  0.000  0.000  0.000
    occupations:
  1.003 -0.000 -0.000  0.000  0.000
 -0.000  1.003  0.000  0.000  0.000
 -0.000  0.000  1.003 -0.000  0.000
  0.000  0.000 -0.000  1.004 -0.000
  0.000  0.000  0.000 -0.000  1.003
atomic mag. moment =    -4.739252
atom    4   Tr[ns(na)] (up, down, total) =   5.01459  0.27385  5.28844
   spin  1
    eigenvalues: 
  1.003  1.003  1.003  1.003  1.003
    eigenvectors:
  0.000  0.000  0.000  1.000  0.000
  0.000  0.500  0.500  0.000  0.000
  0.000  0.500  0.500  0.000  0.000
  0.000  0.000  0.000  0.000  1.000
  1.000  0.000  0.000  0.000  0.000
    occupations:
  1.003  0.000  0.000  0.000 -0.000
  0.000  1.003  0.000  0.000 -0.000
  0.000  0.000  1.003 -0.000 -0.000
  0.000  0.000 -0.000  1.003 -0.000
 -0.000 -0.000 -0.000 -0.000  1.003
   spin  2
    eigenvalues: 
  0.042  0.051  0.054  0.056  0.072
    eigenvectors:
  0.000  0.997  0.002  0.000  0.001
  0.000  0.001  0.499  0.500  0.000
  0.000  0.001  0.499  0.500  0.000
  1.000  0.000  0.000  0.000  0.000
  0.000  0.001  0.000  0.000  0.999
    occupations:
  0.051  0.000  0.000  0.000 -0.001
  0.000  0.055 -0.001  0.000 -0.000
  0.000 -0.001  0.055 -0.000 -0.000
  0.000  0.000 -0.000  0.042 -0.000
 -0.001 -0.000 -0.000 -0.000  0.072
atomic mag. moment =     4.740734
atom    5   Tr[ns(na)] (up, down, total) =   0.27766  5.01487  5.29254
   spin  1
    eigenvalues: 
  0.042  0.053  0.054  0.056  0.073
    eigenvectors:
  0.006  0.964  0.018  0.010  0.002
  0.000  0.002  0.620  0.374  0.003
  0.000  0.027  0.361  0.610  0.002
  0.994  0.006  0.001  0.000  0.000
  0.000  0.001  0.000  0.005  0.993
    occupations:
  0.053  0.000  0.000  0.001  0.001
  0.000  0.055  0.001 -0.000  0.001
  0.000  0.001  0.055  0.000  0.001
  0.001 -0.000  0.000  0.042  0.000
  0.001  0.001  0.001  0.000  0.073
   spin  2
    eigenvalues: 
  1.003  1.003  1.003  1.003  1.004
    eigenvectors:
  0.000  0.000  0.001  0.994  0.005
  0.003  0.276  0.721  0.001  0.000
  0.001  0.722  0.277  0.000  0.000
  0.000  0.000  0.000  0.005  0.995
  0.996  0.002  0.001  0.000  0.000
    occupations:
  1.003  0.000 -0.000 -0.000  0.000
  0.000  1.003 -0.000 -0.000  0.000
 -0.000 -0.000  1.003 -0.000  0.000
 -0.000 -0.000 -0.000  1.004 -0.000
  0.000  0.000  0.000 -0.000  1.003
atomic mag. moment =    -4.737207
atom    6   Tr[ns(na)] (up, down, total) =   0.27766  5.01487  5.29254
   spin  1
    eigenvalues: 
  0.042  0.053  0.054  0.056  0.073
    eigenvectors:
  0.006  0.964  0.018  0.010  0.002
  0.000  0.027  0.361  0.610  0.002
  0.000  0.002  0.620  0.374  0.003
  0.994  0.006  0.001  0.000  0.000
  0.000  0.001  0.000  0.005  0.993
    occupations:
  0.053  0.000  0.000 -0.001  0.001
  0.000  0.055  0.001 -0.000  0.001
  0.000  0.001  0.055  0.000  0.001
 -0.001 -0.000  0.000  0.042 -0.000
  0.001  0.001  0.001 -0.000  0.073
   spin  2
    eigenvalues: 
  1.003  1.003  1.003  1.003  1.004
    eigenvectors:
  0.000  0.000  0.001  0.994  0.005
  0.001  0.722  0.277  0.000  0.000
  0.003  0.276  0.721  0.001  0.000
  0.000  0.000  0.000  0.005  0.995
  0.996  0.002  0.001  0.000  0.000
    occupations:
  1.003 -0.000  0.000  0.000  0.000
 -0.000  1.003 -0.000  0.000  0.000
  0.000 -0.000  1.003  0.000  0.000
  0.000  0.000  0.000  1.004  0.000
  0.000  0.000  0.000  0.000  1.003
atomic mag. moment =    -4.737207
atom    7   Tr[ns(na)] (up, down, total) =   5.01486  0.27684  5.29170
   spin  1
    eigenvalues: 
  1.003  1.003  1.003  1.003  1.004
    eigenvectors:
  0.000  0.000  0.000  1.000  0.000
  0.000  0.500  0.500  0.000  0.000
  0.000  0.500  0.500  0.000  0.000
  0.000  0.000  0.000  0.000  1.000
  0.999  0.000  0.000  0.000  0.000
    occupations:
  1.003 -0.000 -0.000  0.000  0.000
 -0.000  1.003 -0.000 -0.000  0.000
 -0.000 -0.000  1.003  0.000  0.000
  0.000 -0.000  0.000  1.004 -0.000
  0.000  0.000  0.000 -0.000  1.003
   spin  2
    eigenvalues: 
  0.041  0.052  0.054  0.056  0.073
    eigenvectors:
  0.000  0.976  0.000  0.022  0.001
  0.000  0.012  0.500  0.486  0.002
  0.000  0.012  0.500  0.486  0.002
  1.000  0.000  0.000  0.000  0.000
  0.000  0.001  0.000  0.006  0.994
    occupations:
  0.052  0.000  0.000  0.000  0.001
  0.000  0.055  0.001 -0.000  0.001
  0.000  0.001  0.055  0.000  0.001
  0.000 -0.000  0.000  0.041 -0.000
  0.001  0.001  0.001 -0.000  0.073
atomic mag. moment =     4.738021
atom    8   Tr[ns(na)] (up, down, total) =   5.01479  0.27365  5.28845
   spin  1
    eigenvalues: 
  1.003  1.003  1.003  1.003  1.004
    eigenvectors:
  0.000  0.000  0.000  1.000  0.000
  0.000  0.500  0.500  0.000  0.000
  0.000  0.500  0.500  0.000  0.000
  0.000  0.001  0.000  0.000  0.999
  0.999  0.000  0.001  0.000  0.000
    occupations:
  1.003 -0.000 -0.000  0.000  0.000
 -0.000  1.003  0.000 -0.000 -0.000
 -0.000  0.000  1.003  0.000 -0.000
  0.000 -0.000  0.000  1.004 -0.000
  0.000 -0.000 -0.000 -0.000  1.003
   spin  2
    eigenvalues: 
  0.042  0.050  0.054  0.054  0.073
    eigenvectors:
  0.000  1.000  0.000  0.000  0.000
  0.000  0.000  0.500  0.500  0.000
  0.000  0.000  0.500  0.500  0.000
  1.000  0.000  0.000  0.000  0.000
  0.000  0.000  0.000  0.000  1.000
    occupations:
  0.050  0.000  0.000  0.000 -0.000
  0.000  0.054  0.000 -0.000  0.000
  0.000  0.000  0.054  0.000  0.000
  0.000 -0.000  0.000  0.042 -0.000
 -0.000  0.000  0.000 -0.000  0.073
atomic mag. moment =     4.741140
N of occupied +U levels =   42.323056
 --- exit write_ns ---

     total cpu time spent up to now is     1286.2 secs

     total energy              =  -14679.21433474 Ry
     Harris-Foulkes estimate   =  -14669.80879329 Ry
     estimated scf accuracy    <      21.27056786 Ry

     total magnetization       =    10.49 Bohr mag/cell
     absolute magnetization    =    43.53 Bohr mag/cell

     iteration #  2     ecut=    45.00 Ry     beta= 0.10
     Davidson diagonalization with overlap
     ethr =  7.19E-03,  avg # of iterations =  1.0

     total cpu time spent up to now is     1838.3 secs

     total energy              =  -14692.17163525 Ry
     Harris-Foulkes estimate   =  -14679.31905394 Ry
     estimated scf accuracy    <      17.16515831 Ry

     total magnetization       =    10.35 Bohr mag/cell
     absolute magnetization    =    43.10 Bohr mag/cell

     iteration #  3     ecut=    45.00 Ry     beta= 0.10
     Davidson diagonalization with overlap
     ethr =  5.80E-03,  avg # of iterations =  2.1

     total cpu time spent up to now is     2499.0 secs

     total energy              =  -14693.85025018 Ry
     Harris-Foulkes estimate   =  -14693.78264537 Ry
     estimated scf accuracy    <       4.07002684 Ry

     total magnetization       =     9.37 Bohr mag/cell
     absolute magnetization    =    39.27 Bohr mag/cell

     iteration #  4     ecut=    45.00 Ry     beta= 0.10
     Davidson diagonalization with overlap
     ethr =  1.38E-03,  avg # of iterations =  5.6

     total cpu time spent up to now is     3448.1 secs

     total energy              =  -14693.47737851 Ry
     Harris-Foulkes estimate   =  -14693.89201426 Ry
     estimated scf accuracy    <       4.36439977 Ry

     total magnetization       =     9.32 Bohr mag/cell
     absolute magnetization    =    39.04 Bohr mag/cell

     iteration #  5     ecut=    45.00 Ry     beta= 0.10
     Davidson diagonalization with overlap
     ethr =  1.38E-03,  avg # of iterations =  4.4

     total cpu time spent up to now is     4345.4 secs

     total energy              =  -14693.86206274 Ry
     Harris-Foulkes estimate   =  -14693.83851878 Ry
     estimated scf accuracy    <       0.30717825 Ry

     total magnetization       =     9.03 Bohr mag/cell
     absolute magnetization    =    38.26 Bohr mag/cell

     iteration #  6     ecut=    45.00 Ry     beta= 0.10
     Davidson diagonalization with overlap
     ethr =  1.04E-04,  avg # of iterations =  3.8

     total cpu time spent up to now is     5404.4 secs

     total energy              =  -14693.96802892 Ry
     Harris-Foulkes estimate   =  -14693.95093208 Ry
     estimated scf accuracy    <       0.26823073 Ry

     total magnetization       =     8.58 Bohr mag/cell
     absolute magnetization    =    37.17 Bohr mag/cell

     iteration #  7     ecut=    45.00 Ry     beta= 0.10
     Davidson diagonalization with overlap
     ethr =  9.06E-05,  avg # of iterations =  1.0

     total cpu time spent up to now is     5954.7 secs

     total energy              =  -14693.92734477 Ry
     Harris-Foulkes estimate   =  -14693.97509018 Ry
     estimated scf accuracy    <       0.52301450 Ry

     total magnetization       =     8.48 Bohr mag/cell
     absolute magnetization    =    37.13 Bohr mag/cell

     iteration #  8     ecut=    45.00 Ry     beta= 0.10
     Davidson diagonalization with overlap
     ethr =  9.06E-05,  avg # of iterations =  1.4

     total cpu time spent up to now is     6539.1 secs

     total energy              =  -14693.93742216 Ry
     Harris-Foulkes estimate   =  -14693.94516655 Ry
     estimated scf accuracy    <       0.12848986 Ry

     total magnetization       =     8.62 Bohr mag/cell
     absolute magnetization    =    37.13 Bohr mag/cell

     iteration #  9     ecut=    45.00 Ry     beta= 0.10
     Davidson diagonalization with overlap
     ethr =  4.34E-05,  avg # of iterations =  2.1

     total cpu time spent up to now is     7186.6 secs

     total energy              =  -14693.94248164 Ry
     Harris-Foulkes estimate   =  -14693.94473020 Ry
     estimated scf accuracy    <       0.03063507 Ry

     total magnetization       =     8.60 Bohr mag/cell
     absolute magnetization    =    37.07 Bohr mag/cell

     iteration # 10     ecut=    45.00 Ry     beta= 0.10
     Davidson diagonalization with overlap
     ethr =  1.03E-05,  avg # of iterations =  3.6

     total cpu time spent up to now is     7995.0 secs

     total energy              =  -14693.94746632 Ry
     Harris-Foulkes estimate   =  -14693.94561641 Ry
     estimated scf accuracy    <       0.00402970 Ry

     total magnetization       =     8.60 Bohr mag/cell
     absolute magnetization    =    37.04 Bohr mag/cell

     iteration # 11     ecut=    45.00 Ry     beta= 0.10
     Davidson diagonalization with overlap
     ethr =  1.36E-06,  avg # of iterations =  3.5

     total cpu time spent up to now is     8751.4 secs

     total energy              =  -14693.94827819 Ry
     Harris-Foulkes estimate   =  -14693.94782585 Ry
     estimated scf accuracy    <       0.00373960 Ry

     total magnetization       =     8.57 Bohr mag/cell
     absolute magnetization    =    36.95 Bohr mag/cell

     iteration # 12     ecut=    45.00 Ry     beta= 0.10
     Davidson diagonalization with overlap
     ethr =  1.26E-06,  avg # of iterations =  2.0

     total cpu time spent up to now is     9393.8 secs

     total energy              =  -14693.94906490 Ry
     Harris-Foulkes estimate   =  -14693.94864618 Ry
     estimated scf accuracy    <       0.00065769 Ry

     total magnetization       =     8.56 Bohr mag/cell
     absolute magnetization    =    36.93 Bohr mag/cell

     iteration # 13     ecut=    45.00 Ry     beta= 0.10
     Davidson diagonalization with overlap
     ethr =  2.22E-07,  avg # of iterations =  2.1

     total cpu time spent up to now is    10049.0 secs

     total energy              =  -14693.94932646 Ry
     Harris-Foulkes estimate   =  -14693.94915193 Ry
     estimated scf accuracy    <       0.00031999 Ry

     total magnetization       =     8.54 Bohr mag/cell
     absolute magnetization    =    36.91 Bohr mag/cell

     iteration # 14     ecut=    45.00 Ry     beta= 0.10
     Davidson diagonalization with overlap
     ethr =  1.08E-07,  avg # of iterations =  2.1

     total cpu time spent up to now is    10685.1 secs

     total energy              =  -14693.94938129 Ry
     Harris-Foulkes estimate   =  -14693.94936281 Ry
     estimated scf accuracy    <       0.00018498 Ry

     total magnetization       =     8.53 Bohr mag/cell
     absolute magnetization    =    36.88 Bohr mag/cell

     iteration # 15     ecut=    45.00 Ry     beta= 0.10
     Davidson diagonalization with overlap
     ethr =  6.25E-08,  avg # of iterations =  2.2

     total cpu time spent up to now is    11361.7 secs

     total energy              =  -14693.94941839 Ry
     Harris-Foulkes estimate   =  -14693.94940310 Ry
     estimated scf accuracy    <       0.00002693 Ry

     total magnetization       =     8.53 Bohr mag/cell
     absolute magnetization    =    36.88 Bohr mag/cell

     iteration # 16     ecut=    45.00 Ry     beta= 0.10
     Davidson diagonalization with overlap
     ethr =  9.10E-09,  avg # of iterations =  3.5

     total cpu time spent up to now is    12164.0 secs

     total energy              =  -14693.94943183 Ry
     Harris-Foulkes estimate   =  -14693.94942160 Ry
     estimated scf accuracy    <       0.00001242 Ry

     total magnetization       =     8.52 Bohr mag/cell
     absolute magnetization    =    36.87 Bohr mag/cell

     iteration # 17     ecut=    45.00 Ry     beta= 0.10
     Davidson diagonalization with overlap
     ethr =  4.20E-09,  avg # of iterations =  1.9

     total cpu time spent up to now is    12779.3 secs

     total energy              =  -14693.94944033 Ry
     Harris-Foulkes estimate   =  -14693.94943220 Ry
     estimated scf accuracy    <       0.00000746 Ry

     total magnetization       =     8.52 Bohr mag/cell
     absolute magnetization    =    36.87 Bohr mag/cell

     iteration # 18     ecut=    45.00 Ry     beta= 0.10
     Davidson diagonalization with overlap
     ethr =  2.52E-09,  avg # of iterations =  2.2

     total cpu time spent up to now is    13448.0 secs

     total energy              =  -14693.94944519 Ry
     Harris-Foulkes estimate   =  -14693.94944114 Ry
     estimated scf accuracy    <       0.00000311 Ry

     total magnetization       =     8.52 Bohr mag/cell
     absolute magnetization    =    36.87 Bohr mag/cell

     iteration # 19     ecut=    45.00 Ry     beta= 0.10
     Davidson diagonalization with overlap
     ethr =  1.05E-09,  avg # of iterations =  2.2

     total cpu time spent up to now is    14093.2 secs

     total energy              =  -14693.94944860 Ry
     Harris-Foulkes estimate   =  -14693.94944507 Ry
     estimated scf accuracy    <       0.00000107 Ry

     total magnetization       =     8.52 Bohr mag/cell
     absolute magnetization    =    36.87 Bohr mag/cell

     iteration # 20     ecut=    45.00 Ry     beta= 0.10
     Davidson diagonalization with overlap
     ethr =  3.61E-10,  avg # of iterations =  2.2
 
     Magnetic moment per site:
     atom:    1    charge:   13.5433    magn:    4.2069    constr:    0.0000
     atom:    2    charge:   13.5433    magn:    4.2069    constr:    0.0000
     atom:    3    charge:   13.5364    magn:   -4.2453    constr:    0.0000
     atom:    4    charge:   13.5390    magn:    4.2294    constr:    0.0000
     atom:    5    charge:   13.5348    magn:   -4.2612    constr:    0.0000
     atom:    6    charge:   13.5348    magn:   -4.2612    constr:    0.0000
     atom:    7    charge:   13.5422    magn:    4.2249    constr:    0.0000
     atom:    8    charge:   13.5420    magn:    4.2123    constr:    0.0000
     atom:    9    charge:    9.0912    magn:   -0.0086    constr:    0.0000
     atom:   10    charge:    9.0912    magn:   -0.0086    constr:    0.0000
     atom:   11    charge:    9.0930    magn:   -0.0235    constr:    0.0000
     atom:   12    charge:    9.0927    magn:   -0.0024    constr:    0.0000
     atom:   13    charge:    9.0914    magn:    0.0248    constr:    0.0000
     atom:   14    charge:    9.0914    magn:    0.0248    constr:    0.0000
     atom:   15    charge:    9.0919    magn:    0.0474    constr:    0.0000
     atom:   16    charge:    9.0912    magn:    0.0052    constr:    0.0000
     atom:   17    charge:    9.0906    magn:    0.0028    constr:    0.0000
     atom:   18    charge:    9.0906    magn:    0.0028    constr:    0.0000
     atom:   19    charge:    9.0933    magn:   -0.0355    constr:    0.0000
     atom:   20    charge:    9.0937    magn:   -0.0009    constr:    0.0000
     atom:   21    charge:    9.0917    magn:    0.0124    constr:    0.0000
     atom:   22    charge:    9.0917    magn:    0.0124    constr:    0.0000
     atom:   23    charge:    9.0917    magn:    0.0231    constr:    0.0000
     atom:   24    charge:    9.0911    magn:    0.0417    constr:    0.0000

     total cpu time spent up to now is    14744.5 secs

     End of self-consistent calculation
 --- enter write_ns ---
 LDA+U parameters:
U(  1) =   3.1200   J(  1) =   0.7000   B(  1) =   0.0803
U(  2) =   3.1200   J(  2) =   0.7000   B(  2) =   0.0803
atom    1   Tr[ns(na)] (up, down, total) =   4.96650  0.76168  5.72819
   spin  1
    eigenvalues: 
  0.983  0.992  0.993  0.996  1.002
    eigenvectors:
  0.000  0.029  0.001  0.967  0.003
  0.000  0.736  0.237  0.027  0.000
  0.001  0.235  0.760  0.003  0.000
  0.000  0.000  0.000  0.003  0.997
  0.998  0.000  0.001  0.000  0.000
    occupations:
  0.996 -0.001 -0.000  0.000  0.000
 -0.001  0.992 -0.000 -0.000 -0.000
 -0.000 -0.000  0.993 -0.000  0.000
  0.000 -0.000 -0.000  1.002  0.000
  0.000 -0.000  0.000  0.000  0.983
   spin  2
    eigenvalues: 
  0.068  0.124  0.150  0.157  0.263
    eigenvectors:
  0.000  0.996  0.000  0.000  0.004
  0.000  0.000  0.996  0.003  0.001
  0.000  0.000  0.003  0.994  0.003
  1.000  0.000  0.000  0.000  0.000
  0.000  0.004  0.001  0.003  0.992
    occupations:
  0.125  0.000  0.001 -0.000  0.009
  0.000  0.150  0.000 -0.000 -0.003
  0.001  0.000  0.157 -0.001  0.006
 -0.000 -0.000 -0.001  0.068  0.000
  0.009 -0.003  0.006  0.000  0.262
atomic mag. moment =     4.204823
atom    2   Tr[ns(na)] (up, down, total) =   4.96650  0.76168  5.72819
   spin  1
    eigenvalues: 
  0.983  0.992  0.993  0.996  1.002
    eigenvectors:
  0.000  0.029  0.001  0.967  0.003
  0.001  0.235  0.760  0.003  0.000
  0.000  0.736  0.237  0.027  0.000
  0.000  0.000  0.000  0.003  0.997
  0.998  0.000  0.001  0.000  0.000
    occupations:
  0.996 -0.000 -0.001 -0.000  0.000
 -0.000  0.993 -0.000  0.000  0.000
 -0.001 -0.000  0.992  0.000 -0.000
 -0.000  0.000  0.000  1.002 -0.000
  0.000  0.000 -0.000 -0.000  0.983
   spin  2
    eigenvalues: 
  0.068  0.124  0.150  0.157  0.263
    eigenvectors:
  0.000  0.996  0.000  0.000  0.004
  0.000  0.000  0.003  0.994  0.003
  0.000  0.000  0.996  0.003  0.001
  1.000  0.000  0.000  0.000  0.000
  0.000  0.004  0.001  0.003  0.992
    occupations:
  0.125  0.001  0.000  0.000  0.009
  0.001  0.157  0.000  0.001  0.006
  0.000  0.000  0.150  0.000 -0.003
  0.000  0.001  0.000  0.068 -0.000
  0.009  0.006 -0.003 -0.000  0.262
atomic mag. moment =     4.204823
atom    3   Tr[ns(na)] (up, down, total) =   0.72858  4.96912  5.69770
   spin  1
    eigenvalues: 
  0.069  0.121  0.145  0.146  0.247
    eigenvectors:
  0.000  0.996  0.000  0.001  0.002
  0.000  0.001  0.500  0.494  0.006
  0.000  0.001  0.500  0.494  0.006
  1.000  0.000  0.000  0.000  0.000
  0.000  0.002  0.000  0.011  0.987
    occupations:
  0.121  0.001  0.001 -0.000  0.006
  0.001  0.146  0.001 -0.001  0.007
  0.001  0.001  0.146  0.001  0.007
 -0.000 -0.001  0.001  0.069 -0.000
  0.006  0.007  0.007 -0.000  0.246
   spin  2
    eigenvalues: 
  0.985  0.993  0.993  0.997  1.002
    eigenvectors:
  0.000  0.000  0.034  0.965  0.000
  0.000  0.500  0.483  0.017  0.000
  0.000  0.500  0.483  0.017  0.000
  0.000  0.000  0.000  0.000  1.000
  0.999  0.000  0.001  0.000  0.000
    occupations:
  0.997 -0.001 -0.001  0.000 -0.000
 -0.001  0.993  0.000 -0.000 -0.000
 -0.001  0.000  0.993  0.000 -0.000
  0.000 -0.000  0.000  1.002 -0.000
 -0.000 -0.000 -0.000 -0.000  0.985
atomic mag. moment =    -4.240544
atom    4   Tr[ns(na)] (up, down, total) =   4.96903  0.73832  5.70734
   spin  1
    eigenvalues: 
  0.985  0.992  0.993  0.998  1.002
    eigenvectors:
  0.000  0.000  0.004  0.996  0.000
  0.004  0.500  0.494  0.002  0.000
  0.004  0.500  0.494  0.002  0.000
  0.000  0.000  0.000  0.000  1.000
  0.993  0.000  0.007  0.000  0.000
    occupations:
  0.998  0.000  0.000  0.000  0.000
  0.000  0.993  0.001 -0.000  0.001
  0.000  0.001  0.993  0.000  0.001
  0.000 -0.000  0.000  1.002 -0.000
  0.000  0.001  0.001 -0.000  0.985
   spin  2
    eigenvalues: 
  0.069  0.122  0.149  0.150  0.249
    eigenvectors:
  0.000  0.986  0.000  0.000  0.014
  0.000  0.000  0.497  0.500  0.003
  0.000  0.000  0.497  0.500  0.003
  1.000  0.000  0.000  0.000  0.000
  0.000  0.014  0.005  0.000  0.981
    occupations:
  0.124  0.001  0.001  0.000 -0.015
  0.001  0.150 -0.001 -0.000 -0.005
  0.001 -0.001  0.150  0.000 -0.005
  0.000 -0.000  0.000  0.069 -0.000
 -0.015 -0.005 -0.005 -0.000  0.246
atomic mag. moment =     4.230712
atom    5   Tr[ns(na)] (up, down, total) =   0.71861  4.97096  5.68958
   spin  1
    eigenvalues: 
  0.071  0.125  0.139  0.146  0.237
    eigenvectors:
  0.000  0.992  0.000  0.001  0.007
  0.000  0.000  0.388  0.582  0.029
  0.001  0.000  0.600  0.398  0.000
  0.999  0.000  0.000  0.001  0.000
  0.000  0.008  0.011  0.018  0.963
    occupations:
  0.126  0.001 -0.000 -0.001  0.009
  0.001  0.146  0.003  0.001  0.016
 -0.000  0.003  0.142  0.002 -0.000
 -0.001  0.001  0.002  0.071 -0.001
  0.009  0.016 -0.000 -0.001  0.234
   spin  2
    eigenvalues: 
  0.985  0.993  0.994  0.997  1.002
    eigenvectors:
  0.004  0.032  0.001  0.962  0.002
  0.003  0.356  0.632  0.008  0.000
  0.001  0.607  0.366  0.026  0.000
  0.000  0.000  0.000  0.002  0.998
  0.992  0.004  0.001  0.002  0.000
    occupations:
  0.997 -0.000 -0.001 -0.000 -0.001
 -0.000  0.994 -0.000  0.000 -0.000
 -0.001 -0.000  0.994  0.000 -0.000
 -0.000  0.000  0.000  1.002 -0.000
 -0.001 -0.000 -0.000 -0.000  0.985
atomic mag. moment =    -4.252349
atom    6   Tr[ns(na)] (up, down, total) =   0.71861  4.97096  5.68958
   spin  1
    eigenvalues: 
  0.071  0.125  0.139  0.146  0.237
    eigenvectors:
  0.000  0.992  0.000  0.001  0.007
  0.001  0.000  0.600  0.398  0.000
  0.000  0.000  0.388  0.582  0.029
  0.999  0.000  0.000  0.001  0.000
  0.000  0.008  0.011  0.018  0.963
    occupations:
  0.126 -0.000  0.001  0.001  0.009
 -0.000  0.142  0.003 -0.002 -0.000
  0.001  0.003  0.146 -0.001  0.016
  0.001 -0.002 -0.001  0.071  0.001
  0.009 -0.000  0.016  0.001  0.234
   spin  2
    eigenvalues: 
  0.985  0.993  0.994  0.997  1.002
    eigenvectors:
  0.004  0.032  0.001  0.962  0.002
  0.001  0.607  0.366  0.026  0.000
  0.003  0.356  0.632  0.008  0.000
  0.000  0.000  0.000  0.002  0.998
  0.992  0.004  0.001  0.002  0.000
    occupations:
  0.997 -0.001 -0.000  0.000 -0.001
 -0.001  0.994 -0.000 -0.000 -0.000
 -0.000 -0.000  0.994 -0.000 -0.000
  0.000 -0.000 -0.000  1.002  0.000
 -0.001 -0.000 -0.000  0.000  0.985
atomic mag. moment =    -4.252349
atom    7   Tr[ns(na)] (up, down, total) =   4.96891  0.74787  5.71678
   spin  1
    eigenvalues: 
  0.984  0.993  0.994  0.997  1.002
    eigenvectors:
  0.002  0.009  0.000  0.989  0.000
  0.000  0.495  0.500  0.004  0.000
  0.000  0.495  0.500  0.004  0.000
  0.000  0.000  0.000  0.000  1.000
  0.997  0.000  0.000  0.002  0.000
    occupations:
  0.997 -0.000 -0.000  0.000 -0.001
 -0.000  0.993 -0.000 -0.000  0.000
 -0.000 -0.000  0.993  0.000  0.000
  0.000 -0.000  0.000  1.002 -0.000
 -0.001  0.000  0.000 -0.000  0.984
   spin  2
    eigenvalues: 
  0.068  0.121  0.149  0.152  0.256
    eigenvectors:
  0.000  0.987  0.010  0.000  0.003
  0.000  0.005  0.492  0.500  0.003
  0.000  0.005  0.492  0.500  0.003
  1.000  0.000  0.000  0.000  0.000
  0.000  0.004  0.006  0.000  0.990
    occupations:
  0.122 -0.002 -0.002 -0.000  0.008
 -0.002  0.151 -0.001 -0.000  0.006
 -0.002 -0.001  0.151  0.000  0.006
 -0.000 -0.000  0.000  0.068 -0.000
  0.008  0.006  0.006 -0.000  0.255
atomic mag. moment =     4.221047
atom    8   Tr[ns(na)] (up, down, total) =   4.96686  0.75656  5.72341
   spin  1
    eigenvalues: 
  0.983  0.992  0.993  0.997  1.001
    eigenvectors:
  0.000  0.000  0.000  1.000  0.000
  0.001  0.500  0.499  0.000  0.000
  0.001  0.500  0.499  0.000  0.000
  0.000  0.000  0.000  0.000  1.000
  0.998  0.000  0.002  0.000  0.000
    occupations:
  0.997  0.000  0.000  0.000 -0.000
  0.000  0.993  0.000  0.000  0.000
  0.000  0.000  0.993 -0.000  0.000
  0.000  0.000 -0.000  1.001 -0.000
 -0.000  0.000  0.000 -0.000  0.983
   spin  2
    eigenvalues: 
  0.069  0.131  0.150  0.150  0.257
    eigenvectors:
  0.000  0.908  0.091  0.000  0.001
  0.000  0.046  0.444  0.500  0.010
  0.000  0.046  0.444  0.500  0.010
  0.999  0.000  0.000  0.001  0.000
  0.000  0.000  0.021  0.000  0.979
    occupations:
  0.133  0.004  0.004  0.000 -0.003
  0.004  0.150  0.000  0.002 -0.011
  0.004  0.000  0.150 -0.002 -0.011
  0.000  0.002 -0.002  0.069 -0.000
 -0.003 -0.011 -0.011 -0.000  0.255
atomic mag. moment =     4.210299
N of occupied +U levels =   45.680768
 --- exit write_ns ---

     Number of k-points >= 100: set verbosity='high' to print the bands.

     the Fermi energy is    15.5697 ev

!    total energy              =  -14693.94946312 Ry
     Harris-Foulkes estimate   =  -14693.94944856 Ry
     estimated scf accuracy    <       0.00000042 Ry

     total all-electron energy =   -626921.545185 Ry

     The total energy is the sum of the following terms:

     one-electron contribution =    -698.45578396 Ry
     hartree contribution      =     651.60553210 Ry
     xc contribution           =    -738.11862173 Ry
     ewald contribution        =   -2207.56121140 Ry
     Hubbard energy            =       0.45547681 Ry
     one-center paw contrib.   =  -11701.87485494 Ry

     total magnetization       =     8.52 Bohr mag/cell
     absolute magnetization    =    36.87 Bohr mag/cell

     convergence has been achieved in  20 iterations

     Writing output data file mnau2.save/
 
     init_run     :    309.38s CPU    315.58s WALL (       1 calls)
     electrons    :  14148.64s CPU  14420.84s WALL (       1 calls)

     Called by init_run:
     wfcinit      :    304.58s CPU    310.29s WALL (       1 calls)
     potinit      :      1.97s CPU      2.13s WALL (       1 calls)
     hinit0       :      1.61s CPU      1.87s WALL (       1 calls)

     Called by electrons:
     c_bands      :  12647.62s CPU  12872.87s WALL (      20 calls)
     sum_band     :   1462.28s CPU   1507.73s WALL (      20 calls)
     v_of_rho     :      2.89s CPU      2.91s WALL (      21 calls)
     newd         :     13.74s CPU     13.93s WALL (      21 calls)
     PAW_pot      :     22.99s CPU     23.24s WALL (      21 calls)
     mix_rho      :      0.62s CPU      0.68s WALL (      20 calls)

     Called by c_bands:
     init_us_2    :     40.36s CPU     40.70s WALL (   14280 calls)
     cegterg      :  12292.53s CPU  12506.91s WALL (    6800 calls)

     Called by sum_band:
     sum_band:bec :     16.07s CPU     16.19s WALL (    6800 calls)
     addusdens    :     20.84s CPU     21.05s WALL (      20 calls)

     Called by *egterg:
     h_psi        :   5766.65s CPU   5886.24s WALL (   25312 calls)
     s_psi        :    844.49s CPU    845.52s WALL (   25652 calls)
     g_psi        :      8.99s CPU      9.07s WALL (   18172 calls)
     cdiaghg      :   3725.26s CPU   3815.00s WALL (   24972 calls)

     Called by h_psi:
     h_psi:pot    :   5413.22s CPU   5530.62s WALL (   25312 calls)
     h_psi:calbec :   1010.24s CPU   1061.14s WALL (   25312 calls)
     vloc_psi     :   3578.92s CPU   3644.05s WALL (   25312 calls)
     add_vuspsi   :    823.44s CPU    824.97s WALL (   25312 calls)
     vhpsi        :    336.63s CPU    338.60s WALL (   25312 calls)

     General routines
     calbec       :   1713.20s CPU   1790.63s WALL (   64564 calls)
     fft          :      2.18s CPU      2.20s WALL (     521 calls)
     ffts         :      0.14s CPU      0.14s WALL (      82 calls)
     fftw         :   4147.73s CPU   4225.24s WALL ( 6602792 calls)
     interpolate  :      0.24s CPU      0.24s WALL (      42 calls)
     davcio       :      0.02s CPU      6.23s WALL (     340 calls)
 
     Parallel routines
     fft_scatt_xy :    589.93s CPU    599.65s WALL ( 6603395 calls)
     fft_scatt_yz :   2023.22s CPU   2062.94s WALL ( 6603395 calls)

     Hubbard U routines
     new_ns       :     68.24s CPU     71.49s WALL (      20 calls)
     vhpsi        :    336.63s CPU    338.60s WALL (   25312 calls)
 
     PWSCF        :     4h 2m CPU        2h 4m WALL

       9h
 
   This run was terminated on:  10:10:27   1Apr2019            

=------------------------------------------------------------------------------=
   JOB DONE.
=------------------------------------------------------------------------------=
