
     Program PWSCF v.6.3MaX starts on 29Mar2019 at 11:54: 6 

     This program is part of the open-source Quantum ESPRESSO suite
     for quantum simulation of materials; please cite
         "P. Giannozzi et al., J. Phys.:Condens. Matter 21 395502 (2009);
         "P. Giannozzi et al., J. Phys.:Condens. Matter 29 465901 (2017);
          URL http://www.quantum-espresso.org", 
     in publications or presentations arising from this work. More details at
     http://www.quantum-espresso.org/quote

     Parallel version (MPI), running on    32 processors

     MPI processes distributed on     2 nodes
     R & G space division:  proc/nbgrp/npool/nimage =      32
     Waiting for input...
     Reading input from standard input

     Current dimensions of program PWSCF are:
     Max number of different atomic species (ntypx) = 10
     Max number of k-points (npk) =  40000
     Max angular momentum in pseudopotentials (lmaxx) =  3
     Message from routine read_upf::
     Pseudo file ./pseudo/Mn.pbe-spn-kjpaw_psl.0.3.1.UPF has been successfully fixed on the fly.
To avoid this message in the future you can permanently fix 
 your pseudo files following instructions given in: 
https://gitlab.com/QEF/q-e/blob/master/upftools/how_to_fix_upf.md
               file Mn.pbe-spn-kjpaw_psl.0.3.1.UPF: wavefunction(s)  3P 3D renormalized
     Message from routine read_upf::
     Pseudo file ./pseudo/Mn.pbe-spn-kjpaw_psl.0.3.1.UPF has been successfully fixed on the fly.
To avoid this message in the future you can permanently fix 
 your pseudo files following instructions given in: 
https://gitlab.com/QEF/q-e/blob/master/upftools/how_to_fix_upf.md
               file Mn.pbe-spn-kjpaw_psl.0.3.1.UPF: wavefunction(s)  3P 3D renormalized
     Message from routine read_upf::
     Pseudo file ./pseudo/Au.pbe-dn-kjpaw_psl.0.1.UPF has been successfully fixed on the fly.
To avoid this message in the future you can permanently fix 
 your pseudo files following instructions given in: 
https://gitlab.com/QEF/q-e/blob/master/upftools/how_to_fix_upf.md
               file Au.pbe-dn-kjpaw_psl.0.1.UPF: wavefunction(s)  6S 6P 5D renormalized

     Subspace diagonalization in iterative solution of the eigenvalue problem:
     one sub-group per band group will be used
     scalapack distributed-memory algorithm (size of sub-group:  4*  4 procs)

 
     Parallelization info
     --------------------
     sticks:   dense  smooth     PW     G-vecs:    dense   smooth      PW
     Min         323     145     42                11331     3421     537
     Max         324     146     43                11333     3423     539
     Sum       10349    4645   1353               362619   109493   17211
 


     bravais-lattice index     =            0
     lattice parameter (alat)  =      18.0125  a.u.
     unit-cell volume          =    2685.0513 (a.u.)^3
     number of atoms/cell      =           24
     number of atomic types    =            3
     number of electrons       =       296.00
     number of Kohn-Sham states=          178
     kinetic-energy cutoff     =      45.0000  Ry
     charge density cutoff     =     400.0000  Ry
     convergence threshold     =      1.0E-06
     mixing beta               =       0.1000
     number of iterations used =            8  plain     mixing
     Exchange-correlation      = SLA PW PBX PBC ( 1  4  3  4 0 0)

     celldm(1)=  18.012490  celldm(2)=   0.000000  celldm(3)=   0.000000
     celldm(4)=   0.000000  celldm(5)=   0.000000  celldm(6)=   0.000000

     crystal axes: (cart. coord. in units of alat)
               a(1) = (   0.707107  -0.707107   0.000000 )  
               a(2) = (  -0.707107  -0.707107   0.000000 )  
               a(3) = (   0.176777   0.176777  -0.459443 )  

     reciprocal axes: (cart. coord. in units 2 pi/alat)
               b(1) = (  0.707107 -0.707107  0.000000 )  
               b(2) = ( -0.707107 -0.707107 -0.544138 )  
               b(3) = (  0.000000  0.000000 -2.176550 )  


     PseudoPot. # 1 for Mn read from file:
     ./pseudo/Mn.pbe-spn-kjpaw_psl.0.3.1.UPF
     MD5 check sum: 7eef95dd2aae66803482eea66ebeebf1
     Pseudo is Projector augmented-wave + core cor, Zval = 15.0
     Generated using "atomic" code by A. Dal Corso v.5.0.99 svn rev. 10869
     Shape of augmentation charge: PSQ
     Using radial grid of 1187 points,  6 beta functions with: 
                l(1) =   0
                l(2) =   0
                l(3) =   1
                l(4) =   1
                l(5) =   2
                l(6) =   2
     Q(r) pseudized with 0 coefficients 


     PseudoPot. # 2 for Mn read from file:
     ./pseudo/Mn.pbe-spn-kjpaw_psl.0.3.1.UPF
     MD5 check sum: 7eef95dd2aae66803482eea66ebeebf1
     Pseudo is Projector augmented-wave + core cor, Zval = 15.0
     Generated using "atomic" code by A. Dal Corso v.5.0.99 svn rev. 10869
     Shape of augmentation charge: PSQ
     Using radial grid of 1187 points,  6 beta functions with: 
                l(1) =   0
                l(2) =   0
                l(3) =   1
                l(4) =   1
                l(5) =   2
                l(6) =   2
     Q(r) pseudized with 0 coefficients 


     PseudoPot. # 3 for Au read from file:
     ./pseudo/Au.pbe-dn-kjpaw_psl.0.1.UPF
     MD5 check sum: 5c9b92683623e7ae2ab3f8e525febab6
     Pseudo is Projector augmented-wave + core cor, Zval = 11.0
     Generated using "atomic" code by A. Dal Corso v.5.0.2 svn rev. 9415
     Shape of augmentation charge: PSQ
     Using radial grid of 1279 points,  6 beta functions with: 
                l(1) =   0
                l(2) =   0
                l(3) =   1
                l(4) =   1
                l(5) =   2
                l(6) =   2
     Q(r) pseudized with 0 coefficients 


     atomic species   valence    mass     pseudopotential
        Mn1           15.00    54.93800     Mn( 1.00)
        Mn2           15.00    54.93800     Mn( 1.00)
        Au            11.00   196.96600     Au( 1.00)

     Starting magnetic structure 
     atomic species   magnetization
        Mn1          1.000
        Mn2         -1.000
        Au           0.000


     Full LDA+U calculation (l_max = 2) with parameters (eV):
     U(  1) =   3.1200   J(  1) =   0.7000   B(  1) =   0.0803
     U(  2) =   3.1200   J(  2) =   0.7000   B(  2) =   0.0803



      2 Sym. Ops., with inversion, found ( 1 have fractional translation)



   Cartesian axes

     site n.     atom                  positions (alat units)
         1           Mn1 tau(   1) = (   0.3535534  -0.3535534   0.0000000  )
         2           Mn1 tau(   2) = (   0.0000000   0.0000000   0.0000000  )
         3           Mn2 tau(   3) = (   0.0000000  -0.3535534   0.0000000  )
         4           Mn1 tau(   4) = (   0.3535534  -0.7071068   0.0000000  )
         5           Mn1 tau(   5) = (  -0.3535534  -0.3535534   0.0000000  )
         6           Mn2 tau(   6) = (   0.0000000  -0.7071068   0.0000000  )
         7           Mn1 tau(   7) = (  -0.3535534  -0.7071068   0.0000000  )
         8           Mn1 tau(   8) = (   0.0000000  -1.0606602   0.0000000  )
         9           Au  tau(   9) = (  -0.1767767  -0.1767767  -0.1470216  )
        10           Au  tau(  10) = (   0.1767767  -0.5303301  -0.1470216  )
        11           Au  tau(  11) = (  -0.1767767  -0.5303301  -0.1470216  )
        12           Au  tau(  12) = (   0.1767767  -0.8838835  -0.1470216  )
        13           Au  tau(  13) = (  -0.5303301  -0.5303301  -0.1470216  )
        14           Au  tau(  14) = (  -0.1767767  -0.8838835  -0.1470216  )
        15           Au  tau(  15) = (   0.5303301  -0.5303301  -0.1470216  )
        16           Au  tau(  16) = (   0.1767767  -0.1767767  -0.1470216  )
        17           Au  tau(  17) = (   0.3535534  -0.3535534  -0.3124210  )
        18           Au  tau(  18) = (   0.0000000   0.0000000  -0.3124210  )
        19           Au  tau(  19) = (   0.0000000  -0.3535534  -0.3124210  )
        20           Au  tau(  20) = (   0.3535534  -0.7071068  -0.3124210  )
        21           Au  tau(  21) = (  -0.3535534  -0.3535534  -0.3124210  )
        22           Au  tau(  22) = (  -0.0000000  -0.7071068  -0.3124210  )
        23           Au  tau(  23) = (  -0.3535534  -0.7071068  -0.3124210  )
        24           Au  tau(  24) = (   0.0000000  -1.0606602  -0.3124210  )

     number of k points=   260 (tetrahedron method)

     Number of k-points >= 100: set verbosity='high' to print them.

     Dense  grid:   362619 G-vectors     FFT dimensions: ( 120, 120,  60)

     Smooth grid:   109493 G-vectors     FFT dimensions: (  80,  80,  45)

     Estimated max dynamical RAM per process >     803.60 MB

     Estimated total dynamical RAM >      25.11 GB
     Generating pointlists ...
     new r_m :   0.1196 (alat units)  2.1549 (a.u.) for type    1
     new r_m :   0.1196 (alat units)  2.1549 (a.u.) for type    2
     new r_m :   0.1196 (alat units)  2.1549 (a.u.) for type    3

     Check: negative/imaginary core charge=   -0.000006    0.000000

     Initial potential from superposition of free atoms

     starting charge  295.99426, renormalised to  296.00000
     Number of +U iterations with fixed ns =  0
     Starting occupations:
 --- enter write_ns ---
 LDA+U parameters:
U(  1) =   3.1200   J(  1) =   0.7000   B(  1) =   0.0803
U(  2) =   3.1200   J(  2) =   0.7000   B(  2) =   0.0803
atom    1   Tr[ns(na)] (up, down, total) =   5.00000  0.00000  5.00000
   spin  1
    eigenvalues: 
  1.000  1.000  1.000  1.000  1.000
    eigenvectors:
  1.000  0.000  0.000  0.000  0.000
  0.000  1.000  0.000  0.000  0.000
  0.000  0.000  1.000  0.000  0.000
  0.000  0.000  0.000  1.000  0.000
  0.000  0.000  0.000  0.000  1.000
    occupations:
  1.000  0.000  0.000  0.000  0.000
  0.000  1.000  0.000  0.000  0.000
  0.000  0.000  1.000  0.000  0.000
  0.000  0.000  0.000  1.000  0.000
  0.000  0.000  0.000  0.000  1.000
   spin  2
    eigenvalues: 
  0.000  0.000  0.000  0.000  0.000
    eigenvectors:
  1.000  0.000  0.000  0.000  0.000
  0.000  1.000  0.000  0.000  0.000
  0.000  0.000  1.000  0.000  0.000
  0.000  0.000  0.000  1.000  0.000
  0.000  0.000  0.000  0.000  1.000
    occupations:
  0.000  0.000  0.000  0.000  0.000
  0.000  0.000  0.000  0.000  0.000
  0.000  0.000  0.000  0.000  0.000
  0.000  0.000  0.000  0.000  0.000
  0.000  0.000  0.000  0.000  0.000
atomic mag. moment =     5.000000
atom    2   Tr[ns(na)] (up, down, total) =   5.00000  0.00000  5.00000
   spin  1
    eigenvalues: 
  1.000  1.000  1.000  1.000  1.000
    eigenvectors:
  1.000  0.000  0.000  0.000  0.000
  0.000  1.000  0.000  0.000  0.000
  0.000  0.000  1.000  0.000  0.000
  0.000  0.000  0.000  1.000  0.000
  0.000  0.000  0.000  0.000  1.000
    occupations:
  1.000  0.000  0.000  0.000  0.000
  0.000  1.000  0.000  0.000  0.000
  0.000  0.000  1.000  0.000  0.000
  0.000  0.000  0.000  1.000  0.000
  0.000  0.000  0.000  0.000  1.000
   spin  2
    eigenvalues: 
  0.000  0.000  0.000  0.000  0.000
    eigenvectors:
  1.000  0.000  0.000  0.000  0.000
  0.000  1.000  0.000  0.000  0.000
  0.000  0.000  1.000  0.000  0.000
  0.000  0.000  0.000  1.000  0.000
  0.000  0.000  0.000  0.000  1.000
    occupations:
  0.000  0.000  0.000  0.000  0.000
  0.000  0.000  0.000  0.000  0.000
  0.000  0.000  0.000  0.000  0.000
  0.000  0.000  0.000  0.000  0.000
  0.000  0.000  0.000  0.000  0.000
atomic mag. moment =     5.000000
atom    3   Tr[ns(na)] (up, down, total) =   0.00000  5.00000  5.00000
   spin  1
    eigenvalues: 
  0.000  0.000  0.000  0.000  0.000
    eigenvectors:
  1.000  0.000  0.000  0.000  0.000
  0.000  1.000  0.000  0.000  0.000
  0.000  0.000  1.000  0.000  0.000
  0.000  0.000  0.000  1.000  0.000
  0.000  0.000  0.000  0.000  1.000
    occupations:
  0.000  0.000  0.000  0.000  0.000
  0.000  0.000  0.000  0.000  0.000
  0.000  0.000  0.000  0.000  0.000
  0.000  0.000  0.000  0.000  0.000
  0.000  0.000  0.000  0.000  0.000
   spin  2
    eigenvalues: 
  1.000  1.000  1.000  1.000  1.000
    eigenvectors:
  1.000  0.000  0.000  0.000  0.000
  0.000  1.000  0.000  0.000  0.000
  0.000  0.000  1.000  0.000  0.000
  0.000  0.000  0.000  1.000  0.000
  0.000  0.000  0.000  0.000  1.000
    occupations:
  1.000  0.000  0.000  0.000  0.000
  0.000  1.000  0.000  0.000  0.000
  0.000  0.000  1.000  0.000  0.000
  0.000  0.000  0.000  1.000  0.000
  0.000  0.000  0.000  0.000  1.000
atomic mag. moment =    -5.000000
atom    4   Tr[ns(na)] (up, down, total) =   5.00000  0.00000  5.00000
   spin  1
    eigenvalues: 
  1.000  1.000  1.000  1.000  1.000
    eigenvectors:
  1.000  0.000  0.000  0.000  0.000
  0.000  1.000  0.000  0.000  0.000
  0.000  0.000  1.000  0.000  0.000
  0.000  0.000  0.000  1.000  0.000
  0.000  0.000  0.000  0.000  1.000
    occupations:
  1.000  0.000  0.000  0.000  0.000
  0.000  1.000  0.000  0.000  0.000
  0.000  0.000  1.000  0.000  0.000
  0.000  0.000  0.000  1.000  0.000
  0.000  0.000  0.000  0.000  1.000
   spin  2
    eigenvalues: 
  0.000  0.000  0.000  0.000  0.000
    eigenvectors:
  1.000  0.000  0.000  0.000  0.000
  0.000  1.000  0.000  0.000  0.000
  0.000  0.000  1.000  0.000  0.000
  0.000  0.000  0.000  1.000  0.000
  0.000  0.000  0.000  0.000  1.000
    occupations:
  0.000  0.000  0.000  0.000  0.000
  0.000  0.000  0.000  0.000  0.000
  0.000  0.000  0.000  0.000  0.000
  0.000  0.000  0.000  0.000  0.000
  0.000  0.000  0.000  0.000  0.000
atomic mag. moment =     5.000000
atom    5   Tr[ns(na)] (up, down, total) =   5.00000  0.00000  5.00000
   spin  1
    eigenvalues: 
  1.000  1.000  1.000  1.000  1.000
    eigenvectors:
  1.000  0.000  0.000  0.000  0.000
  0.000  1.000  0.000  0.000  0.000
  0.000  0.000  1.000  0.000  0.000
  0.000  0.000  0.000  1.000  0.000
  0.000  0.000  0.000  0.000  1.000
    occupations:
  1.000  0.000  0.000  0.000  0.000
  0.000  1.000  0.000  0.000  0.000
  0.000  0.000  1.000  0.000  0.000
  0.000  0.000  0.000  1.000  0.000
  0.000  0.000  0.000  0.000  1.000
   spin  2
    eigenvalues: 
  0.000  0.000  0.000  0.000  0.000
    eigenvectors:
  1.000  0.000  0.000  0.000  0.000
  0.000  1.000  0.000  0.000  0.000
  0.000  0.000  1.000  0.000  0.000
  0.000  0.000  0.000  1.000  0.000
  0.000  0.000  0.000  0.000  1.000
    occupations:
  0.000  0.000  0.000  0.000  0.000
  0.000  0.000  0.000  0.000  0.000
  0.000  0.000  0.000  0.000  0.000
  0.000  0.000  0.000  0.000  0.000
  0.000  0.000  0.000  0.000  0.000
atomic mag. moment =     5.000000
atom    6   Tr[ns(na)] (up, down, total) =   0.00000  5.00000  5.00000
   spin  1
    eigenvalues: 
  0.000  0.000  0.000  0.000  0.000
    eigenvectors:
  1.000  0.000  0.000  0.000  0.000
  0.000  1.000  0.000  0.000  0.000
  0.000  0.000  1.000  0.000  0.000
  0.000  0.000  0.000  1.000  0.000
  0.000  0.000  0.000  0.000  1.000
    occupations:
  0.000  0.000  0.000  0.000  0.000
  0.000  0.000  0.000  0.000  0.000
  0.000  0.000  0.000  0.000  0.000
  0.000  0.000  0.000  0.000  0.000
  0.000  0.000  0.000  0.000  0.000
   spin  2
    eigenvalues: 
  1.000  1.000  1.000  1.000  1.000
    eigenvectors:
  1.000  0.000  0.000  0.000  0.000
  0.000  1.000  0.000  0.000  0.000
  0.000  0.000  1.000  0.000  0.000
  0.000  0.000  0.000  1.000  0.000
  0.000  0.000  0.000  0.000  1.000
    occupations:
  1.000  0.000  0.000  0.000  0.000
  0.000  1.000  0.000  0.000  0.000
  0.000  0.000  1.000  0.000  0.000
  0.000  0.000  0.000  1.000  0.000
  0.000  0.000  0.000  0.000  1.000
atomic mag. moment =    -5.000000
atom    7   Tr[ns(na)] (up, down, total) =   5.00000  0.00000  5.00000
   spin  1
    eigenvalues: 
  1.000  1.000  1.000  1.000  1.000
    eigenvectors:
  1.000  0.000  0.000  0.000  0.000
  0.000  1.000  0.000  0.000  0.000
  0.000  0.000  1.000  0.000  0.000
  0.000  0.000  0.000  1.000  0.000
  0.000  0.000  0.000  0.000  1.000
    occupations:
  1.000  0.000  0.000  0.000  0.000
  0.000  1.000  0.000  0.000  0.000
  0.000  0.000  1.000  0.000  0.000
  0.000  0.000  0.000  1.000  0.000
  0.000  0.000  0.000  0.000  1.000
   spin  2
    eigenvalues: 
  0.000  0.000  0.000  0.000  0.000
    eigenvectors:
  1.000  0.000  0.000  0.000  0.000
  0.000  1.000  0.000  0.000  0.000
  0.000  0.000  1.000  0.000  0.000
  0.000  0.000  0.000  1.000  0.000
  0.000  0.000  0.000  0.000  1.000
    occupations:
  0.000  0.000  0.000  0.000  0.000
  0.000  0.000  0.000  0.000  0.000
  0.000  0.000  0.000  0.000  0.000
  0.000  0.000  0.000  0.000  0.000
  0.000  0.000  0.000  0.000  0.000
atomic mag. moment =     5.000000
atom    8   Tr[ns(na)] (up, down, total) =   5.00000  0.00000  5.00000
   spin  1
    eigenvalues: 
  1.000  1.000  1.000  1.000  1.000
    eigenvectors:
  1.000  0.000  0.000  0.000  0.000
  0.000  1.000  0.000  0.000  0.000
  0.000  0.000  1.000  0.000  0.000
  0.000  0.000  0.000  1.000  0.000
  0.000  0.000  0.000  0.000  1.000
    occupations:
  1.000  0.000  0.000  0.000  0.000
  0.000  1.000  0.000  0.000  0.000
  0.000  0.000  1.000  0.000  0.000
  0.000  0.000  0.000  1.000  0.000
  0.000  0.000  0.000  0.000  1.000
   spin  2
    eigenvalues: 
  0.000  0.000  0.000  0.000  0.000
    eigenvectors:
  1.000  0.000  0.000  0.000  0.000
  0.000  1.000  0.000  0.000  0.000
  0.000  0.000  1.000  0.000  0.000
  0.000  0.000  0.000  1.000  0.000
  0.000  0.000  0.000  0.000  1.000
    occupations:
  0.000  0.000  0.000  0.000  0.000
  0.000  0.000  0.000  0.000  0.000
  0.000  0.000  0.000  0.000  0.000
  0.000  0.000  0.000  0.000  0.000
  0.000  0.000  0.000  0.000  0.000
atomic mag. moment =     5.000000
N of occupied +U levels =   40.000000
 --- exit write_ns ---
 Atomic wfc used for LDA+U Projector are NOT orthogonalized
     Starting wfcs are  224 randomized atomic wfcs
     Checking if some PAW data can be deallocated... 

     total cpu time spent up to now is      226.1 secs

     Self-consistent Calculation

     iteration #  1     ecut=    45.00 Ry     beta= 0.10
     Davidson diagonalization with overlap
     ethr =  1.00E-02,  avg # of iterations =  4.3
 --- enter write_ns ---
 LDA+U parameters:
U(  1) =   3.1200   J(  1) =   0.7000   B(  1) =   0.0803
U(  2) =   3.1200   J(  2) =   0.7000   B(  2) =   0.0803
atom    1   Tr[ns(na)] (up, down, total) =   5.01488  0.27466  5.28954
   spin  1
    eigenvalues: 
  1.003  1.003  1.003  1.003  1.004
    eigenvectors:
  0.000  0.000  0.000  0.999  0.001
  0.000  0.819  0.181  0.000  0.000
  0.001  0.180  0.819  0.000  0.000
  0.000  0.000  0.000  0.001  0.999
  0.999  0.001  0.000  0.000  0.000
    occupations:
  1.003  0.000 -0.000  0.000  0.000
  0.000  1.003 -0.000  0.000  0.000
 -0.000 -0.000  1.003  0.000  0.000
  0.000  0.000  0.000  1.004 -0.000
  0.000  0.000  0.000 -0.000  1.003
   spin  2
    eigenvalues: 
  0.040  0.051  0.054  0.056  0.073
    eigenvectors:
  0.006  0.958  0.009  0.026  0.001
  0.000  0.034  0.398  0.566  0.001
  0.000  0.001  0.592  0.404  0.002
  0.994  0.006  0.000  0.000  0.000
  0.000  0.001  0.000  0.004  0.995
    occupations:
  0.051  0.001  0.000 -0.001  0.001
  0.001  0.055  0.001 -0.000  0.001
  0.000  0.001  0.055  0.000  0.001
 -0.001 -0.000  0.000  0.040 -0.000
  0.001  0.001  0.001 -0.000  0.073
atomic mag. moment =     4.740214
atom    2   Tr[ns(na)] (up, down, total) =   5.01489  0.27251  5.28740
   spin  1
    eigenvalues: 
  1.003  1.003  1.003  1.003  1.004
    eigenvectors:
  0.000  0.000  0.001  0.997  0.002
  0.000  0.065  0.934  0.001  0.000
  0.003  0.932  0.065  0.000  0.000
  0.000  0.000  0.000  0.002  0.997
  0.996  0.002  0.001  0.000  0.000
    occupations:
  1.003 -0.000 -0.000 -0.000  0.000
 -0.000  1.003  0.000 -0.000 -0.000
 -0.000  0.000  1.003  0.000 -0.000
 -0.000 -0.000  0.000  1.004 -0.000
  0.000 -0.000 -0.000 -0.000  1.003
   spin  2
    eigenvalues: 
  0.040  0.049  0.054  0.055  0.074
    eigenvectors:
  0.009  0.981  0.005  0.005  0.000
  0.000  0.004  0.962  0.034  0.000
  0.000  0.007  0.032  0.961  0.000
  0.991  0.008  0.000  0.000  0.000
  0.000  0.000  0.000  0.000  1.000
    occupations:
  0.049 -0.000  0.000  0.001  0.000
 -0.000  0.054  0.000 -0.000  0.000
  0.000  0.000  0.055  0.000 -0.000
  0.001 -0.000  0.000  0.040 -0.000
  0.000  0.000 -0.000 -0.000  0.074
atomic mag. moment =     4.742376
atom    3   Tr[ns(na)] (up, down, total) =   0.27660  5.01486  5.29146
   spin  1
    eigenvalues: 
  0.042  0.053  0.055  0.056  0.072
    eigenvectors:
  0.006  0.975  0.000  0.019  0.000
  0.000  0.019  0.071  0.910  0.001
  0.000  0.001  0.926  0.069  0.004
  0.994  0.006  0.000  0.000  0.000
  0.000  0.000  0.003  0.002  0.995
    occupations:
  0.053  0.000  0.000 -0.001  0.000
  0.000  0.056  0.000  0.000  0.000
  0.000  0.000  0.055  0.000  0.001
 -0.001  0.000  0.000  0.042  0.000
  0.000  0.000  0.001  0.000  0.071
   spin  2
    eigenvalues: 
  1.003  1.003  1.003  1.003  1.004
    eigenvectors:
  0.000  0.001  0.001  0.979  0.019
  0.000  0.838  0.162  0.000  0.000
  0.001  0.161  0.837  0.001  0.000
  0.000  0.000  0.000  0.019  0.981
  0.999  0.000  0.001  0.000  0.000
    occupations:
  1.003 -0.000  0.000  0.000 -0.000
 -0.000  1.003  0.000  0.000 -0.000
  0.000  0.000  1.003  0.000  0.000
  0.000  0.000  0.000  1.004  0.000
 -0.000 -0.000  0.000  0.000  1.003
atomic mag. moment =    -4.738261
atom    4   Tr[ns(na)] (up, down, total) =   5.01477  0.27243  5.28720
   spin  1
    eigenvalues: 
  1.003  1.003  1.003  1.003  1.004
    eigenvectors:
  0.000  0.000  0.000  0.992  0.007
  0.000  0.883  0.116  0.000  0.000
  0.001  0.117  0.883  0.000  0.000
  0.000  0.000  0.000  0.007  0.992
  0.999  0.000  0.001  0.000  0.000
    occupations:
  1.003  0.000 -0.000  0.000 -0.000
  0.000  1.003  0.000  0.000  0.000
 -0.000  0.000  1.003 -0.000  0.000
  0.000  0.000 -0.000  1.004  0.000
 -0.000  0.000  0.000  0.000  1.003
   spin  2
    eigenvalues: 
  0.040  0.050  0.055  0.056  0.072
    eigenvectors:
  0.009  0.983  0.000  0.007  0.001
  0.000  0.006  0.329  0.665  0.000
  0.000  0.001  0.671  0.328  0.000
  0.991  0.009  0.000  0.000  0.000
  0.000  0.001  0.000  0.001  0.999
    occupations:
  0.050  0.000 -0.000 -0.001 -0.001
  0.000  0.055 -0.001  0.000 -0.000
 -0.000 -0.001  0.055 -0.000  0.000
 -0.001  0.000 -0.000  0.040 -0.000
 -0.001 -0.000  0.000 -0.000  0.072
atomic mag. moment =     4.742332
atom    5   Tr[ns(na)] (up, down, total) =   5.01477  0.27243  5.28720
   spin  1
    eigenvalues: 
  1.003  1.003  1.003  1.003  1.004
    eigenvectors:
  0.000  0.000  0.000  0.992  0.007
  0.000  0.883  0.116  0.000  0.000
  0.001  0.117  0.883  0.000  0.000
  0.000  0.000  0.000  0.007  0.992
  0.999  0.000  0.001  0.000  0.000
    occupations:
  1.003  0.000 -0.000  0.000 -0.000
  0.000  1.003  0.000  0.000  0.000
 -0.000  0.000  1.003 -0.000  0.000
  0.000  0.000 -0.000  1.004  0.000
 -0.000  0.000  0.000  0.000  1.003
   spin  2
    eigenvalues: 
  0.040  0.050  0.055  0.056  0.072
    eigenvectors:
  0.009  0.983  0.000  0.007  0.001
  0.000  0.006  0.329  0.665  0.000
  0.000  0.001  0.671  0.328  0.000
  0.991  0.009  0.000  0.000  0.000
  0.000  0.001  0.000  0.001  0.999
    occupations:
  0.050  0.000 -0.000 -0.001 -0.001
  0.000  0.055 -0.001  0.000 -0.000
 -0.000 -0.001  0.055 -0.000  0.000
 -0.001  0.000 -0.000  0.040 -0.000
 -0.001 -0.000  0.000 -0.000  0.072
atomic mag. moment =     4.742332
atom    6   Tr[ns(na)] (up, down, total) =   0.27660  5.01486  5.29146
   spin  1
    eigenvalues: 
  0.042  0.053  0.055  0.056  0.072
    eigenvectors:
  0.006  0.975  0.000  0.019  0.000
  0.000  0.019  0.071  0.910  0.001
  0.000  0.001  0.926  0.069  0.004
  0.994  0.006  0.000  0.000  0.000
  0.000  0.000  0.003  0.002  0.995
    occupations:
  0.053  0.000  0.000 -0.001  0.000
  0.000  0.056  0.000  0.000  0.000
  0.000  0.000  0.055  0.000  0.001
 -0.001  0.000  0.000  0.042  0.000
  0.000  0.000  0.001  0.000  0.071
   spin  2
    eigenvalues: 
  1.003  1.003  1.003  1.003  1.004
    eigenvectors:
  0.000  0.001  0.001  0.979  0.019
  0.000  0.838  0.162  0.000  0.000
  0.001  0.161  0.837  0.001  0.000
  0.000  0.000  0.000  0.019  0.981
  0.999  0.000  0.001  0.000  0.000
    occupations:
  1.003 -0.000  0.000  0.000 -0.000
 -0.000  1.003  0.000  0.000 -0.000
  0.000  0.000  1.003  0.000  0.000
  0.000  0.000  0.000  1.004  0.000
 -0.000 -0.000  0.000  0.000  1.003
atomic mag. moment =    -4.738261
atom    7   Tr[ns(na)] (up, down, total) =   5.01488  0.27466  5.28954
   spin  1
    eigenvalues: 
  1.003  1.003  1.003  1.003  1.004
    eigenvectors:
  0.000  0.000  0.000  0.999  0.001
  0.000  0.819  0.181  0.000  0.000
  0.001  0.180  0.819  0.000  0.000
  0.000  0.000  0.000  0.001  0.999
  0.999  0.001  0.000  0.000  0.000
    occupations:
  1.003  0.000 -0.000  0.000  0.000
  0.000  1.003 -0.000  0.000  0.000
 -0.000 -0.000  1.003  0.000  0.000
  0.000  0.000  0.000  1.004 -0.000
  0.000  0.000  0.000 -0.000  1.003
   spin  2
    eigenvalues: 
  0.040  0.051  0.054  0.056  0.073
    eigenvectors:
  0.006  0.958  0.009  0.026  0.001
  0.000  0.034  0.398  0.566  0.001
  0.000  0.001  0.592  0.404  0.002
  0.994  0.006  0.000  0.000  0.000
  0.000  0.001  0.000  0.004  0.995
    occupations:
  0.051  0.001  0.000 -0.001  0.001
  0.001  0.055  0.001 -0.000  0.001
  0.000  0.001  0.055  0.000  0.001
 -0.001 -0.000  0.000  0.040 -0.000
  0.001  0.001  0.001 -0.000  0.073
atomic mag. moment =     4.740214
atom    8   Tr[ns(na)] (up, down, total) =   5.01489  0.27251  5.28740
   spin  1
    eigenvalues: 
  1.003  1.003  1.003  1.003  1.004
    eigenvectors:
  0.000  0.000  0.001  0.997  0.002
  0.000  0.065  0.934  0.001  0.000
  0.003  0.932  0.065  0.000  0.000
  0.000  0.000  0.000  0.002  0.997
  0.996  0.002  0.001  0.000  0.000
    occupations:
  1.003 -0.000 -0.000 -0.000  0.000
 -0.000  1.003  0.000 -0.000 -0.000
 -0.000  0.000  1.003  0.000 -0.000
 -0.000 -0.000  0.000  1.004 -0.000
  0.000 -0.000 -0.000 -0.000  1.003
   spin  2
    eigenvalues: 
  0.040  0.049  0.054  0.055  0.074
    eigenvectors:
  0.009  0.981  0.005  0.005  0.000
  0.000  0.004  0.962  0.034  0.000
  0.000  0.007  0.032  0.961  0.000
  0.991  0.008  0.000  0.000  0.000
  0.000  0.000  0.000  0.000  1.000
    occupations:
  0.049 -0.000  0.000  0.001  0.000
 -0.000  0.054  0.000 -0.000  0.000
  0.000  0.000  0.055  0.000 -0.000
  0.001 -0.000  0.000  0.040 -0.000
  0.000  0.000 -0.000 -0.000  0.074
atomic mag. moment =     4.742376
N of occupied +U levels =   42.311183
 --- exit write_ns ---

     total cpu time spent up to now is      899.9 secs

     total energy              =  -14679.17786247 Ry
     Harris-Foulkes estimate   =  -14669.79595652 Ry
     estimated scf accuracy    <      21.27110283 Ry

     total magnetization       =    20.96 Bohr mag/cell
     absolute magnetization    =    43.55 Bohr mag/cell

     iteration #  2     ecut=    45.00 Ry     beta= 0.10
     Davidson diagonalization with overlap
     ethr =  7.19E-03,  avg # of iterations =  1.0

     total cpu time spent up to now is     1318.1 secs

     total energy              =  -14692.17888558 Ry
     Harris-Foulkes estimate   =  -14679.28203300 Ry
     estimated scf accuracy    <      17.16663797 Ry

     total magnetization       =    20.66 Bohr mag/cell
     absolute magnetization    =    43.11 Bohr mag/cell

     iteration #  3     ecut=    45.00 Ry     beta= 0.10
     Davidson diagonalization with overlap
     ethr =  5.80E-03,  avg # of iterations =  2.1

     total cpu time spent up to now is     1815.6 secs

     total energy              =  -14693.86341503 Ry
     Harris-Foulkes estimate   =  -14693.80291320 Ry
     estimated scf accuracy    <       4.05926708 Ry

     total magnetization       =    18.72 Bohr mag/cell
     absolute magnetization    =    39.18 Bohr mag/cell

     iteration #  4     ecut=    45.00 Ry     beta= 0.10
     Davidson diagonalization with overlap
     ethr =  1.37E-03,  avg # of iterations =  5.1

     total cpu time spent up to now is     2451.0 secs

     total energy              =  -14693.54180072 Ry
     Harris-Foulkes estimate   =  -14693.90807666 Ry
     estimated scf accuracy    <       4.31605999 Ry

     total magnetization       =    18.64 Bohr mag/cell
     absolute magnetization    =    38.95 Bohr mag/cell

     iteration #  5     ecut=    45.00 Ry     beta= 0.10
     Davidson diagonalization with overlap
     ethr =  1.37E-03,  avg # of iterations =  5.2

     total cpu time spent up to now is     3136.9 secs

     total energy              =  -14693.81716395 Ry
     Harris-Foulkes estimate   =  -14693.82589467 Ry
     estimated scf accuracy    <       0.52343169 Ry

     total magnetization       =    18.19 Bohr mag/cell
     absolute magnetization    =    38.34 Bohr mag/cell

     iteration #  6     ecut=    45.00 Ry     beta= 0.10
     Davidson diagonalization with overlap
     ethr =  1.77E-04,  avg # of iterations =  3.8

     total cpu time spent up to now is     3863.4 secs

     total energy              =  -14693.98983720 Ry
     Harris-Foulkes estimate   =  -14693.96473553 Ry
     estimated scf accuracy    <       0.34414445 Ry

     total magnetization       =    17.10 Bohr mag/cell
     absolute magnetization    =    37.06 Bohr mag/cell

     iteration #  7     ecut=    45.00 Ry     beta= 0.10
     Davidson diagonalization with overlap
     ethr =  1.16E-04,  avg # of iterations =  1.0

     total cpu time spent up to now is     4280.1 secs

     total energy              =  -14693.96090099 Ry
     Harris-Foulkes estimate   =  -14693.99805344 Ry
     estimated scf accuracy    <       0.66472824 Ry

     total magnetization       =    16.93 Bohr mag/cell
     absolute magnetization    =    36.98 Bohr mag/cell

     iteration #  8     ecut=    45.00 Ry     beta= 0.10
     Davidson diagonalization with overlap
     ethr =  1.16E-04,  avg # of iterations =  1.0

     total cpu time spent up to now is     4697.6 secs

     total energy              =  -14693.95331746 Ry
     Harris-Foulkes estimate   =  -14693.96709739 Ry
     estimated scf accuracy    <       0.36926607 Ry

     total magnetization       =    17.10 Bohr mag/cell
     absolute magnetization    =    37.08 Bohr mag/cell

     iteration #  9     ecut=    45.00 Ry     beta= 0.10
     Davidson diagonalization with overlap
     ethr =  1.16E-04,  avg # of iterations =  1.1

     total cpu time spent up to now is     5117.0 secs

     total energy              =  -14693.94762867 Ry
     Harris-Foulkes estimate   =  -14693.96044291 Ry
     estimated scf accuracy    <       0.16310902 Ry

     total magnetization       =    17.12 Bohr mag/cell
     absolute magnetization    =    37.01 Bohr mag/cell

     iteration # 10     ecut=    45.00 Ry     beta= 0.10
     Davidson diagonalization with overlap
     ethr =  5.51E-05,  avg # of iterations =  1.0

     total cpu time spent up to now is     5533.7 secs

     total energy              =  -14693.95014946 Ry
     Harris-Foulkes estimate   =  -14693.95314267 Ry
     estimated scf accuracy    <       0.04700825 Ry

     total magnetization       =    17.15 Bohr mag/cell
     absolute magnetization    =    36.99 Bohr mag/cell

     iteration # 11     ecut=    45.00 Ry     beta= 0.10
     Davidson diagonalization with overlap
     ethr =  1.59E-05,  avg # of iterations =  3.5

     total cpu time spent up to now is     6132.7 secs

     total energy              =  -14693.95544955 Ry
     Harris-Foulkes estimate   =  -14693.95550273 Ry
     estimated scf accuracy    <       0.00377859 Ry

     total magnetization       =    17.12 Bohr mag/cell
     absolute magnetization    =    36.90 Bohr mag/cell

     iteration # 12     ecut=    45.00 Ry     beta= 0.10
     Davidson diagonalization with overlap
     c_bands:  1 eigenvalues not converged
     ethr =  1.28E-06,  avg # of iterations =  2.3

     total cpu time spent up to now is     6613.4 secs

     total energy              =  -14693.95655345 Ry
     Harris-Foulkes estimate   =  -14693.95558650 Ry
     estimated scf accuracy    <       0.00325976 Ry

     total magnetization       =    17.11 Bohr mag/cell
     absolute magnetization    =    36.90 Bohr mag/cell

     iteration # 13     ecut=    45.00 Ry     beta= 0.10
     Davidson diagonalization with overlap
     ethr =  1.10E-06,  avg # of iterations =  1.6

     total cpu time spent up to now is     7057.8 secs

     total energy              =  -14693.95711592 Ry
     Harris-Foulkes estimate   =  -14693.95676691 Ry
     estimated scf accuracy    <       0.00104167 Ry

     total magnetization       =    17.07 Bohr mag/cell
     absolute magnetization    =    36.86 Bohr mag/cell

     iteration # 14     ecut=    45.00 Ry     beta= 0.10
     Davidson diagonalization with overlap
     ethr =  3.52E-07,  avg # of iterations =  3.1

     total cpu time spent up to now is     7650.1 secs

     total energy              =  -14693.95735484 Ry
     Harris-Foulkes estimate   =  -14693.95733892 Ry
     estimated scf accuracy    <       0.00020531 Ry

     total magnetization       =    17.03 Bohr mag/cell
     absolute magnetization    =    36.82 Bohr mag/cell

     iteration # 15     ecut=    45.00 Ry     beta= 0.10
     Davidson diagonalization with overlap
     ethr =  6.94E-08,  avg # of iterations =  2.1

     total cpu time spent up to now is     8132.9 secs

     total energy              =  -14693.95740595 Ry
     Harris-Foulkes estimate   =  -14693.95737194 Ry
     estimated scf accuracy    <       0.00005458 Ry

     total magnetization       =    17.02 Bohr mag/cell
     absolute magnetization    =    36.82 Bohr mag/cell

     iteration # 16     ecut=    45.00 Ry     beta= 0.10
     Davidson diagonalization with overlap
     ethr =  1.84E-08,  avg # of iterations =  2.5

     total cpu time spent up to now is     8666.3 secs

     total energy              =  -14693.95741516 Ry
     Harris-Foulkes estimate   =  -14693.95741387 Ry
     estimated scf accuracy    <       0.00003258 Ry

     total magnetization       =    17.00 Bohr mag/cell
     absolute magnetization    =    36.80 Bohr mag/cell

     iteration # 17     ecut=    45.00 Ry     beta= 0.10
     Davidson diagonalization with overlap
     ethr =  1.10E-08,  avg # of iterations =  2.0

     total cpu time spent up to now is     9141.2 secs

     total energy              =  -14693.95742939 Ry
     Harris-Foulkes estimate   =  -14693.95741870 Ry
     estimated scf accuracy    <       0.00001331 Ry

     total magnetization       =    17.00 Bohr mag/cell
     absolute magnetization    =    36.80 Bohr mag/cell

     iteration # 18     ecut=    45.00 Ry     beta= 0.10
     Davidson diagonalization with overlap
     ethr =  4.50E-09,  avg # of iterations =  2.7

     total cpu time spent up to now is     9656.3 secs

     total energy              =  -14693.95743434 Ry
     Harris-Foulkes estimate   =  -14693.95742972 Ry
     estimated scf accuracy    <       0.00000576 Ry

     total magnetization       =    17.00 Bohr mag/cell
     absolute magnetization    =    36.80 Bohr mag/cell

     iteration # 19     ecut=    45.00 Ry     beta= 0.10
     Davidson diagonalization with overlap
     ethr =  1.95E-09,  avg # of iterations =  1.9

     total cpu time spent up to now is    10119.7 secs

     total energy              =  -14693.95743894 Ry
     Harris-Foulkes estimate   =  -14693.95743475 Ry
     estimated scf accuracy    <       0.00000278 Ry

     total magnetization       =    17.00 Bohr mag/cell
     absolute magnetization    =    36.81 Bohr mag/cell

     iteration # 20     ecut=    45.00 Ry     beta= 0.10
     Davidson diagonalization with overlap
     ethr =  9.39E-10,  avg # of iterations =  2.2
 
     Magnetic moment per site:
     atom:    1    charge:   13.5453    magn:    4.2042    constr:    0.0000
     atom:    2    charge:   13.5460    magn:    4.1859    constr:    0.0000
     atom:    3    charge:   13.5312    magn:   -4.2782    constr:    0.0000
     atom:    4    charge:   13.5435    magn:    4.1951    constr:    0.0000
     atom:    5    charge:   13.5435    magn:    4.1951    constr:    0.0000
     atom:    6    charge:   13.5312    magn:   -4.2782    constr:    0.0000
     atom:    7    charge:   13.5453    magn:    4.2042    constr:    0.0000
     atom:    8    charge:   13.5460    magn:    4.1859    constr:    0.0000
     atom:    9    charge:    9.0908    magn:    0.0161    constr:    0.0000
     atom:   10    charge:    9.0906    magn:   -0.0192    constr:    0.0000
     atom:   11    charge:    9.0912    magn:   -0.0042    constr:    0.0000
     atom:   12    charge:    9.0891    magn:    0.0127    constr:    0.0000
     atom:   13    charge:    9.0896    magn:    0.0395    constr:    0.0000
     atom:   14    charge:    9.0913    magn:    0.0183    constr:    0.0000
     atom:   15    charge:    9.0910    magn:    0.0430    constr:    0.0000
     atom:   16    charge:    9.0906    magn:    0.0009    constr:    0.0000
     atom:   17    charge:    9.0912    magn:   -0.0042    constr:    0.0000
     atom:   18    charge:    9.0891    magn:    0.0127    constr:    0.0000
     atom:   19    charge:    9.0906    magn:   -0.0192    constr:    0.0000
     atom:   20    charge:    9.0908    magn:    0.0161    constr:    0.0000
     atom:   21    charge:    9.0910    magn:    0.0430    constr:    0.0000
     atom:   22    charge:    9.0906    magn:    0.0009    constr:    0.0000
     atom:   23    charge:    9.0913    magn:    0.0183    constr:    0.0000
     atom:   24    charge:    9.0896    magn:    0.0395    constr:    0.0000

     total cpu time spent up to now is    10629.1 secs

     End of self-consistent calculation
 --- enter write_ns ---
 LDA+U parameters:
U(  1) =   3.1200   J(  1) =   0.7000   B(  1) =   0.0803
U(  2) =   3.1200   J(  2) =   0.7000   B(  2) =   0.0803
atom    1   Tr[ns(na)] (up, down, total) =   4.96739  0.76418  5.73157
   spin  1
    eigenvalues: 
  0.983  0.992  0.994  0.996  1.002
    eigenvectors:
  0.000  0.017  0.007  0.974  0.002
  0.001  0.544  0.431  0.023  0.001
  0.003  0.434  0.562  0.001  0.000
  0.000  0.000  0.000  0.003  0.997
  0.996  0.004  0.000  0.000  0.000
    occupations:
  0.996 -0.001 -0.000  0.000  0.000
 -0.001  0.993 -0.001 -0.000  0.000
 -0.000 -0.001  0.993 -0.000  0.000
  0.000 -0.000 -0.000  1.002  0.000
  0.000  0.000  0.000  0.000  0.983
   spin  2
    eigenvalues: 
  0.068  0.121  0.152  0.159  0.265
    eigenvectors:
  0.000  0.990  0.006  0.002  0.002
  0.000  0.004  0.884  0.112  0.000
  0.000  0.004  0.108  0.878  0.010
  1.000  0.000  0.000  0.000  0.000
  0.000  0.002  0.001  0.008  0.988
    occupations:
  0.122 -0.002 -0.002 -0.000  0.006
 -0.002  0.152 -0.002 -0.001  0.001
 -0.002 -0.002  0.159 -0.001  0.011
 -0.000 -0.001 -0.001  0.068  0.000
  0.006  0.001  0.011  0.000  0.263
atomic mag. moment =     4.203213
atom    2   Tr[ns(na)] (up, down, total) =   4.96500  0.77851  5.74351
   spin  1
    eigenvalues: 
  0.982  0.992  0.993  0.997  1.001
    eigenvectors:
  0.000  0.002  0.000  0.994  0.003
  0.000  0.459  0.538  0.002  0.001
  0.000  0.539  0.461  0.000  0.000
  0.000  0.000  0.000  0.003  0.996
  1.000  0.000  0.000  0.000  0.000
    occupations:
  0.997  0.000 -0.000 -0.000  0.000
  0.000  0.992  0.000  0.000  0.000
 -0.000  0.000  0.992 -0.000 -0.000
 -0.000  0.000 -0.000  1.001  0.000
  0.000  0.000 -0.000  0.000  0.982
   spin  2
    eigenvalues: 
  0.067  0.142  0.146  0.158  0.264
    eigenvectors:
  0.000  0.981  0.004  0.014  0.001
  0.001  0.010  0.054  0.935  0.000
  0.000  0.009  0.933  0.050  0.008
  0.999  0.000  0.000  0.001  0.000
  0.000  0.001  0.008  0.000  0.991
    occupations:
  0.143  0.002  0.001 -0.000 -0.004
  0.002  0.157  0.002  0.003  0.002
  0.001  0.002  0.148 -0.000 -0.010
 -0.000  0.003 -0.000  0.068  0.001
 -0.004  0.002 -0.010  0.001  0.263
atomic mag. moment =     4.186494
atom    3   Tr[ns(na)] (up, down, total) =   0.70455  4.97233  5.67688
   spin  1
    eigenvalues: 
  0.071  0.121  0.143  0.145  0.225
    eigenvectors:
  0.000  0.997  0.002  0.000  0.001
  0.001  0.000  0.002  0.994  0.003
  0.000  0.003  0.944  0.001  0.052
  0.999  0.000  0.000  0.001  0.000
  0.000  0.000  0.051  0.004  0.945
    occupations:
  0.122  0.000  0.002  0.001  0.002
  0.000  0.145  0.001 -0.002  0.004
  0.002  0.001  0.147  0.000  0.018
  0.001 -0.002  0.000  0.071 -0.001
  0.002  0.004  0.018 -0.001  0.220
   spin  2
    eigenvalues: 
  0.987  0.993  0.994  0.997  1.002
    eigenvectors:
  0.000  0.003  0.028  0.967  0.003
  0.000  0.524  0.452  0.023  0.001
  0.003  0.472  0.518  0.007  0.000
  0.000  0.000  0.000  0.003  0.997
  0.997  0.001  0.002  0.000  0.000
    occupations:
  0.997 -0.001 -0.000  0.000  0.000
 -0.001  0.993  0.000 -0.000 -0.000
 -0.000  0.000  0.993 -0.000 -0.000
  0.000 -0.000 -0.000  1.002  0.000
  0.000 -0.000 -0.000  0.000  0.987
atomic mag. moment =    -4.267779
atom    4   Tr[ns(na)] (up, down, total) =   4.96571  0.76615  5.73186
   spin  1
    eigenvalues: 
  0.983  0.991  0.993  0.997  1.002
    eigenvectors:
  0.000  0.002  0.002  0.992  0.004
  0.000  0.510  0.489  0.000  0.001
  0.003  0.486  0.507  0.004  0.000
  0.000  0.001  0.001  0.004  0.995
  0.997  0.002  0.001  0.000  0.000
    occupations:
  0.997 -0.000  0.000  0.000  0.000
 -0.000  0.992  0.001 -0.000  0.000
  0.000  0.001  0.992  0.000  0.001
  0.000 -0.000  0.000  1.002 -0.000
  0.000  0.000  0.001 -0.000  0.983
   spin  2
    eigenvalues: 
  0.068  0.135  0.146  0.157  0.260
    eigenvectors:
  0.000  0.935  0.051  0.006  0.008
  0.001  0.034  0.843  0.121  0.000
  0.000  0.020  0.105  0.870  0.005
  0.999  0.000  0.000  0.000  0.000
  0.000  0.011  0.001  0.003  0.986
    occupations:
  0.137 -0.002  0.002 -0.000 -0.012
 -0.002  0.147  0.004 -0.002 -0.003
  0.002  0.004  0.156  0.000  0.008
 -0.000 -0.002  0.000  0.068 -0.000
 -0.012 -0.003  0.008 -0.000  0.258
atomic mag. moment =     4.199554
atom    5   Tr[ns(na)] (up, down, total) =   4.96571  0.76615  5.73186
   spin  1
    eigenvalues: 
  0.983  0.991  0.993  0.997  1.002
    eigenvectors:
  0.000  0.002  0.002  0.992  0.004
  0.000  0.510  0.489  0.000  0.001
  0.003  0.486  0.507  0.004  0.000
  0.000  0.001  0.001  0.004  0.995
  0.997  0.002  0.001  0.000  0.000
    occupations:
  0.997 -0.000  0.000  0.000  0.000
 -0.000  0.992  0.001 -0.000  0.000
  0.000  0.001  0.992  0.000  0.001
  0.000 -0.000  0.000  1.002 -0.000
  0.000  0.000  0.001 -0.000  0.983
   spin  2
    eigenvalues: 
  0.068  0.135  0.146  0.157  0.260
    eigenvectors:
  0.000  0.935  0.051  0.006  0.008
  0.001  0.034  0.843  0.121  0.000
  0.000  0.020  0.105  0.870  0.005
  0.999  0.000  0.000  0.000  0.000
  0.000  0.011  0.001  0.003  0.986
    occupations:
  0.137 -0.002  0.002 -0.000 -0.012
 -0.002  0.147  0.004 -0.002 -0.003
  0.002  0.004  0.156  0.000  0.008
 -0.000 -0.002  0.000  0.068 -0.000
 -0.012 -0.003  0.008 -0.000  0.258
atomic mag. moment =     4.199554
atom    6   Tr[ns(na)] (up, down, total) =   0.70455  4.97233  5.67688
   spin  1
    eigenvalues: 
  0.071  0.121  0.143  0.145  0.225
    eigenvectors:
  0.000  0.997  0.002  0.000  0.001
  0.001  0.000  0.002  0.994  0.003
  0.000  0.003  0.944  0.001  0.052
  0.999  0.000  0.000  0.001  0.000
  0.000  0.000  0.051  0.004  0.945
    occupations:
  0.122  0.000  0.002  0.001  0.002
  0.000  0.145  0.001 -0.002  0.004
  0.002  0.001  0.147  0.000  0.018
  0.001 -0.002  0.000  0.071 -0.001
  0.002  0.004  0.018 -0.001  0.220
   spin  2
    eigenvalues: 
  0.987  0.993  0.994  0.997  1.002
    eigenvectors:
  0.000  0.003  0.028  0.967  0.003
  0.000  0.524  0.452  0.023  0.001
  0.003  0.472  0.518  0.007  0.000
  0.000  0.000  0.000  0.003  0.997
  0.997  0.001  0.002  0.000  0.000
    occupations:
  0.997 -0.001 -0.000  0.000  0.000
 -0.001  0.993  0.000 -0.000 -0.000
 -0.000  0.000  0.993 -0.000 -0.000
  0.000 -0.000 -0.000  1.002  0.000
  0.000 -0.000 -0.000  0.000  0.987
atomic mag. moment =    -4.267779
atom    7   Tr[ns(na)] (up, down, total) =   4.96739  0.76418  5.73157
   spin  1
    eigenvalues: 
  0.983  0.992  0.994  0.996  1.002
    eigenvectors:
  0.000  0.017  0.007  0.974  0.002
  0.001  0.544  0.431  0.023  0.001
  0.003  0.434  0.562  0.001  0.000
  0.000  0.000  0.000  0.003  0.997
  0.996  0.004  0.000  0.000  0.000
    occupations:
  0.996 -0.001 -0.000  0.000  0.000
 -0.001  0.993 -0.001 -0.000  0.000
 -0.000 -0.001  0.993 -0.000  0.000
  0.000 -0.000 -0.000  1.002  0.000
  0.000  0.000  0.000  0.000  0.983
   spin  2
    eigenvalues: 
  0.068  0.121  0.152  0.159  0.265
    eigenvectors:
  0.000  0.990  0.006  0.002  0.002
  0.000  0.004  0.884  0.112  0.000
  0.000  0.004  0.108  0.878  0.010
  1.000  0.000  0.000  0.000  0.000
  0.000  0.002  0.001  0.008  0.988
    occupations:
  0.122 -0.002 -0.002 -0.000  0.006
 -0.002  0.152 -0.002 -0.001  0.001
 -0.002 -0.002  0.159 -0.001  0.011
 -0.000 -0.001 -0.001  0.068  0.000
  0.006  0.001  0.011  0.000  0.263
atomic mag. moment =     4.203213
atom    8   Tr[ns(na)] (up, down, total) =   4.96500  0.77851  5.74351
   spin  1
    eigenvalues: 
  0.982  0.992  0.993  0.997  1.001
    eigenvectors:
  0.000  0.002  0.000  0.994  0.003
  0.000  0.459  0.538  0.002  0.001
  0.000  0.539  0.461  0.000  0.000
  0.000  0.000  0.000  0.003  0.996
  1.000  0.000  0.000  0.000  0.000
    occupations:
  0.997  0.000 -0.000 -0.000  0.000
  0.000  0.992  0.000  0.000  0.000
 -0.000  0.000  0.992 -0.000 -0.000
 -0.000  0.000 -0.000  1.001  0.000
  0.000  0.000 -0.000  0.000  0.982
   spin  2
    eigenvalues: 
  0.067  0.142  0.146  0.158  0.264
    eigenvectors:
  0.000  0.981  0.004  0.014  0.001
  0.001  0.010  0.054  0.935  0.000
  0.000  0.009  0.933  0.050  0.008
  0.999  0.000  0.000  0.001  0.000
  0.000  0.001  0.008  0.000  0.991
    occupations:
  0.143  0.002  0.001 -0.000 -0.004
  0.002  0.157  0.002  0.003  0.002
  0.001  0.002  0.148 -0.000 -0.010
 -0.000  0.003 -0.000  0.068  0.001
 -0.004  0.002 -0.010  0.001  0.263
atomic mag. moment =     4.186494
N of occupied +U levels =   45.767634
 --- exit write_ns ---

     Number of k-points >= 100: set verbosity='high' to print the bands.

     the Fermi energy is    15.5559 ev

!    total energy              =  -14693.95745399 Ry
     Harris-Foulkes estimate   =  -14693.95743873 Ry
     estimated scf accuracy    <       0.00000100 Ry

     total all-electron energy =   -626921.553176 Ry

     The total energy is the sum of the following terms:

     one-electron contribution =    -698.55189640 Ry
     hartree contribution      =     651.65495548 Ry
     xc contribution           =    -738.09578436 Ry
     ewald contribution        =   -2207.56121140 Ry
     Hubbard energy            =       0.46153535 Ry
     one-center paw contrib.   =  -11701.86505266 Ry

     total magnetization       =    17.00 Bohr mag/cell
     absolute magnetization    =    36.81 Bohr mag/cell

     convergence has been achieved in  20 iterations

     Writing output data file mnau2.save/
 
     init_run     :    217.75s CPU    221.72s WALL (       1 calls)
     electrons    :  10172.59s CPU  10403.58s WALL (       1 calls)

     Called by init_run:
     wfcinit      :    215.66s CPU    219.55s WALL (       1 calls)
     potinit      :      0.85s CPU      0.88s WALL (       1 calls)
     hinit0       :      0.80s CPU      0.84s WALL (       1 calls)

     Called by electrons:
     c_bands      :   8880.78s CPU   9080.87s WALL (      20 calls)
     sum_band     :   1276.79s CPU   1306.30s WALL (      20 calls)
     v_of_rho     :      1.27s CPU      1.33s WALL (      21 calls)
     newd         :      3.67s CPU      3.70s WALL (      21 calls)
     PAW_pot      :      9.86s CPU     10.10s WALL (      21 calls)
     mix_rho      :      0.70s CPU      0.80s WALL (      20 calls)

     Called by c_bands:
     init_us_2    :     35.08s CPU     35.40s WALL (   21840 calls)
     cegterg      :   8670.19s CPU   8863.41s WALL (   10400 calls)

     Called by sum_band:
     sum_band:bec :      8.80s CPU      8.85s WALL (   10400 calls)
     addusdens    :      6.45s CPU      6.53s WALL (      20 calls)

     Called by *egterg:
     h_psi        :   5253.55s CPU   5366.18s WALL (   36692 calls)
     s_psi        :    387.98s CPU    388.46s WALL (   37212 calls)
     g_psi        :     10.13s CPU     10.18s WALL (   25772 calls)
     cdiaghg      :   2305.42s CPU   2381.28s WALL (   36172 calls)

     Called by h_psi:
     h_psi:pot    :   5128.74s CPU   5240.53s WALL (   36692 calls)
     h_psi:calbec :    406.91s CPU    418.07s WALL (   36692 calls)
     vloc_psi     :   4344.30s CPU   4444.41s WALL (   36692 calls)
     add_vuspsi   :    377.15s CPU    377.77s WALL (   36692 calls)
     vhpsi        :    116.13s CPU    116.87s WALL (   36692 calls)

     General routines
     calbec       :    664.45s CPU    681.90s WALL (   94704 calls)
     fft          :      1.07s CPU      1.13s WALL (     521 calls)
     ffts         :      0.08s CPU      0.08s WALL (      82 calls)
     fftw         :   5187.19s CPU   5306.59s WALL (10068666 calls)
     interpolate  :      0.13s CPU      0.13s WALL (      42 calls)
     davcio       :      0.03s CPU     10.00s WALL (     520 calls)
 
     Parallel routines
     fft_scatt_xy :    175.89s CPU    177.75s WALL (10069269 calls)
     fft_scatt_yz :   4155.02s CPU   4256.41s WALL (10069269 calls)

     Hubbard U routines
     new_ns       :     29.54s CPU     31.19s WALL (      20 calls)
     vhpsi        :    116.13s CPU    116.87s WALL (   36692 calls)
 
     PWSCF        :     2h53m CPU       53h 3m WALL

       2h
 
   This run was terminated on:  14:56:41  29Mar2019            

=------------------------------------------------------------------------------=
   JOB DONE.
=------------------------------------------------------------------------------=
