
     Program PWSCF v.6.3MaX starts on 28Mar2019 at 20:41:11 

     This program is part of the open-source Quantum ESPRESSO suite
     for quantum simulation of materials; please cite
         "P. Giannozzi et al., J. Phys.:Condens. Matter 21 395502 (2009);
         "P. Giannozzi et al., J. Phys.:Condens. Matter 29 465901 (2017);
          URL http://www.quantum-espresso.org", 
     in publications or presentations arising from this work. More details at
     http://www.quantum-espresso.org/quote

     Parallel version (MPI), running on    32 processors

     MPI processes distributed on     3 nodes
     R & G space division:  proc/nbgrp/npool/nimage =      32
     Waiting for input...
     Reading input from standard input

     Current dimensions of program PWSCF are:
     Max number of different atomic species (ntypx) = 10
     Max number of k-points (npk) =  40000
     Max angular momentum in pseudopotentials (lmaxx) =  3
     Message from routine read_upf::
     Pseudo file ./pseudo/Mn.pbe-spn-kjpaw_psl.0.3.1.UPF has been successfully fixed on the fly.
To avoid this message in the future you can permanently fix 
 your pseudo files following instructions given in: 
https://gitlab.com/QEF/q-e/blob/master/upftools/how_to_fix_upf.md
               file Mn.pbe-spn-kjpaw_psl.0.3.1.UPF: wavefunction(s)  3P 3D renormalized
     Message from routine read_upf::
     Pseudo file ./pseudo/Mn.pbe-spn-kjpaw_psl.0.3.1.UPF has been successfully fixed on the fly.
To avoid this message in the future you can permanently fix 
 your pseudo files following instructions given in: 
https://gitlab.com/QEF/q-e/blob/master/upftools/how_to_fix_upf.md
               file Mn.pbe-spn-kjpaw_psl.0.3.1.UPF: wavefunction(s)  3P 3D renormalized
     Message from routine read_upf::
     Pseudo file ./pseudo/Au.pbe-dn-kjpaw_psl.0.1.UPF has been successfully fixed on the fly.
To avoid this message in the future you can permanently fix 
 your pseudo files following instructions given in: 
https://gitlab.com/QEF/q-e/blob/master/upftools/how_to_fix_upf.md
               file Au.pbe-dn-kjpaw_psl.0.1.UPF: wavefunction(s)  6S 6P 5D renormalized

     Subspace diagonalization in iterative solution of the eigenvalue problem:
     one sub-group per band group will be used
     scalapack distributed-memory algorithm (size of sub-group:  4*  4 procs)

 
     Parallelization info
     --------------------
     sticks:   dense  smooth     PW     G-vecs:    dense   smooth      PW
     Min         323     145     42                11331     3421     537
     Max         324     146     43                11333     3423     539
     Sum       10349    4645   1353               362619   109493   17211
 


     bravais-lattice index     =            0
     lattice parameter (alat)  =      18.0125  a.u.
     unit-cell volume          =    2685.0513 (a.u.)^3
     number of atoms/cell      =           24
     number of atomic types    =            3
     number of electrons       =       296.00
     number of Kohn-Sham states=          178
     kinetic-energy cutoff     =      45.0000  Ry
     charge density cutoff     =     400.0000  Ry
     convergence threshold     =      1.0E-06
     mixing beta               =       0.1000
     number of iterations used =            8  plain     mixing
     Exchange-correlation      = SLA PW PBX PBC ( 1  4  3  4 0 0)

     celldm(1)=  18.012490  celldm(2)=   0.000000  celldm(3)=   0.000000
     celldm(4)=   0.000000  celldm(5)=   0.000000  celldm(6)=   0.000000

     crystal axes: (cart. coord. in units of alat)
               a(1) = (   0.707107  -0.707107   0.000000 )  
               a(2) = (  -0.707107  -0.707107   0.000000 )  
               a(3) = (   0.176777   0.176777  -0.459443 )  

     reciprocal axes: (cart. coord. in units 2 pi/alat)
               b(1) = (  0.707107 -0.707107  0.000000 )  
               b(2) = ( -0.707107 -0.707107 -0.544138 )  
               b(3) = (  0.000000  0.000000 -2.176550 )  


     PseudoPot. # 1 for Mn read from file:
     ./pseudo/Mn.pbe-spn-kjpaw_psl.0.3.1.UPF
     MD5 check sum: 7eef95dd2aae66803482eea66ebeebf1
     Pseudo is Projector augmented-wave + core cor, Zval = 15.0
     Generated using "atomic" code by A. Dal Corso v.5.0.99 svn rev. 10869
     Shape of augmentation charge: PSQ
     Using radial grid of 1187 points,  6 beta functions with: 
                l(1) =   0
                l(2) =   0
                l(3) =   1
                l(4) =   1
                l(5) =   2
                l(6) =   2
     Q(r) pseudized with 0 coefficients 


     PseudoPot. # 2 for Mn read from file:
     ./pseudo/Mn.pbe-spn-kjpaw_psl.0.3.1.UPF
     MD5 check sum: 7eef95dd2aae66803482eea66ebeebf1
     Pseudo is Projector augmented-wave + core cor, Zval = 15.0
     Generated using "atomic" code by A. Dal Corso v.5.0.99 svn rev. 10869
     Shape of augmentation charge: PSQ
     Using radial grid of 1187 points,  6 beta functions with: 
                l(1) =   0
                l(2) =   0
                l(3) =   1
                l(4) =   1
                l(5) =   2
                l(6) =   2
     Q(r) pseudized with 0 coefficients 


     PseudoPot. # 3 for Au read from file:
     ./pseudo/Au.pbe-dn-kjpaw_psl.0.1.UPF
     MD5 check sum: 5c9b92683623e7ae2ab3f8e525febab6
     Pseudo is Projector augmented-wave + core cor, Zval = 11.0
     Generated using "atomic" code by A. Dal Corso v.5.0.2 svn rev. 9415
     Shape of augmentation charge: PSQ
     Using radial grid of 1279 points,  6 beta functions with: 
                l(1) =   0
                l(2) =   0
                l(3) =   1
                l(4) =   1
                l(5) =   2
                l(6) =   2
     Q(r) pseudized with 0 coefficients 


     atomic species   valence    mass     pseudopotential
        Mn1           15.00    54.93800     Mn( 1.00)
        Mn2           15.00    54.93800     Mn( 1.00)
        Au            11.00   196.96600     Au( 1.00)

     Starting magnetic structure 
     atomic species   magnetization
        Mn1          1.000
        Mn2         -1.000
        Au           0.000


     Full LDA+U calculation (l_max = 2) with parameters (eV):
     U(  1) =   3.1200   J(  1) =   0.7000   B(  1) =   0.0803
     U(  2) =   3.1200   J(  2) =   0.7000   B(  2) =   0.0803



      2 Sym. Ops. (no inversion) found



   Cartesian axes

     site n.     atom                  positions (alat units)
         1           Mn1 tau(   1) = (   0.3535534  -0.3535534   0.0000000  )
         2           Mn2 tau(   2) = (   0.0000000   0.0000000   0.0000000  )
         3           Mn2 tau(   3) = (   0.0000000  -0.3535534   0.0000000  )
         4           Mn1 tau(   4) = (   0.3535534  -0.7071068   0.0000000  )
         5           Mn1 tau(   5) = (  -0.3535534  -0.3535534   0.0000000  )
         6           Mn1 tau(   6) = (   0.0000000  -0.7071068   0.0000000  )
         7           Mn2 tau(   7) = (  -0.3535534  -0.7071068   0.0000000  )
         8           Mn1 tau(   8) = (   0.0000000  -1.0606602   0.0000000  )
         9           Au  tau(   9) = (  -0.1767767  -0.1767767  -0.1470216  )
        10           Au  tau(  10) = (   0.1767767  -0.5303301  -0.1470216  )
        11           Au  tau(  11) = (  -0.1767767  -0.5303301  -0.1470216  )
        12           Au  tau(  12) = (   0.1767767  -0.8838835  -0.1470216  )
        13           Au  tau(  13) = (  -0.5303301  -0.5303301  -0.1470216  )
        14           Au  tau(  14) = (  -0.1767767  -0.8838835  -0.1470216  )
        15           Au  tau(  15) = (   0.5303301  -0.5303301  -0.1470216  )
        16           Au  tau(  16) = (   0.1767767  -0.1767767  -0.1470216  )
        17           Au  tau(  17) = (   0.3535534  -0.3535534  -0.3124210  )
        18           Au  tau(  18) = (   0.0000000   0.0000000  -0.3124210  )
        19           Au  tau(  19) = (   0.0000000  -0.3535534  -0.3124210  )
        20           Au  tau(  20) = (   0.3535534  -0.7071068  -0.3124210  )
        21           Au  tau(  21) = (  -0.3535534  -0.3535534  -0.3124210  )
        22           Au  tau(  22) = (  -0.0000000  -0.7071068  -0.3124210  )
        23           Au  tau(  23) = (  -0.3535534  -0.7071068  -0.3124210  )
        24           Au  tau(  24) = (   0.0000000  -1.0606602  -0.3124210  )

     number of k points=   170 (tetrahedron method)

     Number of k-points >= 100: set verbosity='high' to print them.

     Dense  grid:   362619 G-vectors     FFT dimensions: ( 120, 120,  60)

     Smooth grid:   109493 G-vectors     FFT dimensions: (  80,  80,  45)

     Estimated max dynamical RAM per process >     547.93 MB

     Estimated total dynamical RAM >      17.12 GB
     Generating pointlists ...
     new r_m :   0.1196 (alat units)  2.1549 (a.u.) for type    1
     new r_m :   0.1196 (alat units)  2.1549 (a.u.) for type    2
     new r_m :   0.1196 (alat units)  2.1549 (a.u.) for type    3

     Check: negative/imaginary core charge=   -0.000006    0.000000

     Initial potential from superposition of free atoms

     starting charge  295.99426, renormalised to  296.00000
     Number of +U iterations with fixed ns =  0
     Starting occupations:
 --- enter write_ns ---
 LDA+U parameters:
U(  1) =   3.1200   J(  1) =   0.7000   B(  1) =   0.0803
U(  2) =   3.1200   J(  2) =   0.7000   B(  2) =   0.0803
atom    1   Tr[ns(na)] (up, down, total) =   5.00000  0.00000  5.00000
   spin  1
    eigenvalues: 
  1.000  1.000  1.000  1.000  1.000
    eigenvectors:
  1.000  0.000  0.000  0.000  0.000
  0.000  1.000  0.000  0.000  0.000
  0.000  0.000  1.000  0.000  0.000
  0.000  0.000  0.000  1.000  0.000
  0.000  0.000  0.000  0.000  1.000
    occupations:
  1.000  0.000  0.000  0.000  0.000
  0.000  1.000  0.000  0.000  0.000
  0.000  0.000  1.000  0.000  0.000
  0.000  0.000  0.000  1.000  0.000
  0.000  0.000  0.000  0.000  1.000
   spin  2
    eigenvalues: 
  0.000  0.000  0.000  0.000  0.000
    eigenvectors:
  1.000  0.000  0.000  0.000  0.000
  0.000  1.000  0.000  0.000  0.000
  0.000  0.000  1.000  0.000  0.000
  0.000  0.000  0.000  1.000  0.000
  0.000  0.000  0.000  0.000  1.000
    occupations:
  0.000  0.000  0.000  0.000  0.000
  0.000  0.000  0.000  0.000  0.000
  0.000  0.000  0.000  0.000  0.000
  0.000  0.000  0.000  0.000  0.000
  0.000  0.000  0.000  0.000  0.000
atomic mag. moment =     5.000000
atom    2   Tr[ns(na)] (up, down, total) =   0.00000  5.00000  5.00000
   spin  1
    eigenvalues: 
  0.000  0.000  0.000  0.000  0.000
    eigenvectors:
  1.000  0.000  0.000  0.000  0.000
  0.000  1.000  0.000  0.000  0.000
  0.000  0.000  1.000  0.000  0.000
  0.000  0.000  0.000  1.000  0.000
  0.000  0.000  0.000  0.000  1.000
    occupations:
  0.000  0.000  0.000  0.000  0.000
  0.000  0.000  0.000  0.000  0.000
  0.000  0.000  0.000  0.000  0.000
  0.000  0.000  0.000  0.000  0.000
  0.000  0.000  0.000  0.000  0.000
   spin  2
    eigenvalues: 
  1.000  1.000  1.000  1.000  1.000
    eigenvectors:
  1.000  0.000  0.000  0.000  0.000
  0.000  1.000  0.000  0.000  0.000
  0.000  0.000  1.000  0.000  0.000
  0.000  0.000  0.000  1.000  0.000
  0.000  0.000  0.000  0.000  1.000
    occupations:
  1.000  0.000  0.000  0.000  0.000
  0.000  1.000  0.000  0.000  0.000
  0.000  0.000  1.000  0.000  0.000
  0.000  0.000  0.000  1.000  0.000
  0.000  0.000  0.000  0.000  1.000
atomic mag. moment =    -5.000000
atom    3   Tr[ns(na)] (up, down, total) =   0.00000  5.00000  5.00000
   spin  1
    eigenvalues: 
  0.000  0.000  0.000  0.000  0.000
    eigenvectors:
  1.000  0.000  0.000  0.000  0.000
  0.000  1.000  0.000  0.000  0.000
  0.000  0.000  1.000  0.000  0.000
  0.000  0.000  0.000  1.000  0.000
  0.000  0.000  0.000  0.000  1.000
    occupations:
  0.000  0.000  0.000  0.000  0.000
  0.000  0.000  0.000  0.000  0.000
  0.000  0.000  0.000  0.000  0.000
  0.000  0.000  0.000  0.000  0.000
  0.000  0.000  0.000  0.000  0.000
   spin  2
    eigenvalues: 
  1.000  1.000  1.000  1.000  1.000
    eigenvectors:
  1.000  0.000  0.000  0.000  0.000
  0.000  1.000  0.000  0.000  0.000
  0.000  0.000  1.000  0.000  0.000
  0.000  0.000  0.000  1.000  0.000
  0.000  0.000  0.000  0.000  1.000
    occupations:
  1.000  0.000  0.000  0.000  0.000
  0.000  1.000  0.000  0.000  0.000
  0.000  0.000  1.000  0.000  0.000
  0.000  0.000  0.000  1.000  0.000
  0.000  0.000  0.000  0.000  1.000
atomic mag. moment =    -5.000000
atom    4   Tr[ns(na)] (up, down, total) =   5.00000  0.00000  5.00000
   spin  1
    eigenvalues: 
  1.000  1.000  1.000  1.000  1.000
    eigenvectors:
  1.000  0.000  0.000  0.000  0.000
  0.000  1.000  0.000  0.000  0.000
  0.000  0.000  1.000  0.000  0.000
  0.000  0.000  0.000  1.000  0.000
  0.000  0.000  0.000  0.000  1.000
    occupations:
  1.000  0.000  0.000  0.000  0.000
  0.000  1.000  0.000  0.000  0.000
  0.000  0.000  1.000  0.000  0.000
  0.000  0.000  0.000  1.000  0.000
  0.000  0.000  0.000  0.000  1.000
   spin  2
    eigenvalues: 
  0.000  0.000  0.000  0.000  0.000
    eigenvectors:
  1.000  0.000  0.000  0.000  0.000
  0.000  1.000  0.000  0.000  0.000
  0.000  0.000  1.000  0.000  0.000
  0.000  0.000  0.000  1.000  0.000
  0.000  0.000  0.000  0.000  1.000
    occupations:
  0.000  0.000  0.000  0.000  0.000
  0.000  0.000  0.000  0.000  0.000
  0.000  0.000  0.000  0.000  0.000
  0.000  0.000  0.000  0.000  0.000
  0.000  0.000  0.000  0.000  0.000
atomic mag. moment =     5.000000
atom    5   Tr[ns(na)] (up, down, total) =   5.00000  0.00000  5.00000
   spin  1
    eigenvalues: 
  1.000  1.000  1.000  1.000  1.000
    eigenvectors:
  1.000  0.000  0.000  0.000  0.000
  0.000  1.000  0.000  0.000  0.000
  0.000  0.000  1.000  0.000  0.000
  0.000  0.000  0.000  1.000  0.000
  0.000  0.000  0.000  0.000  1.000
    occupations:
  1.000  0.000  0.000  0.000  0.000
  0.000  1.000  0.000  0.000  0.000
  0.000  0.000  1.000  0.000  0.000
  0.000  0.000  0.000  1.000  0.000
  0.000  0.000  0.000  0.000  1.000
   spin  2
    eigenvalues: 
  0.000  0.000  0.000  0.000  0.000
    eigenvectors:
  1.000  0.000  0.000  0.000  0.000
  0.000  1.000  0.000  0.000  0.000
  0.000  0.000  1.000  0.000  0.000
  0.000  0.000  0.000  1.000  0.000
  0.000  0.000  0.000  0.000  1.000
    occupations:
  0.000  0.000  0.000  0.000  0.000
  0.000  0.000  0.000  0.000  0.000
  0.000  0.000  0.000  0.000  0.000
  0.000  0.000  0.000  0.000  0.000
  0.000  0.000  0.000  0.000  0.000
atomic mag. moment =     5.000000
atom    6   Tr[ns(na)] (up, down, total) =   5.00000  0.00000  5.00000
   spin  1
    eigenvalues: 
  1.000  1.000  1.000  1.000  1.000
    eigenvectors:
  1.000  0.000  0.000  0.000  0.000
  0.000  1.000  0.000  0.000  0.000
  0.000  0.000  1.000  0.000  0.000
  0.000  0.000  0.000  1.000  0.000
  0.000  0.000  0.000  0.000  1.000
    occupations:
  1.000  0.000  0.000  0.000  0.000
  0.000  1.000  0.000  0.000  0.000
  0.000  0.000  1.000  0.000  0.000
  0.000  0.000  0.000  1.000  0.000
  0.000  0.000  0.000  0.000  1.000
   spin  2
    eigenvalues: 
  0.000  0.000  0.000  0.000  0.000
    eigenvectors:
  1.000  0.000  0.000  0.000  0.000
  0.000  1.000  0.000  0.000  0.000
  0.000  0.000  1.000  0.000  0.000
  0.000  0.000  0.000  1.000  0.000
  0.000  0.000  0.000  0.000  1.000
    occupations:
  0.000  0.000  0.000  0.000  0.000
  0.000  0.000  0.000  0.000  0.000
  0.000  0.000  0.000  0.000  0.000
  0.000  0.000  0.000  0.000  0.000
  0.000  0.000  0.000  0.000  0.000
atomic mag. moment =     5.000000
atom    7   Tr[ns(na)] (up, down, total) =   0.00000  5.00000  5.00000
   spin  1
    eigenvalues: 
  0.000  0.000  0.000  0.000  0.000
    eigenvectors:
  1.000  0.000  0.000  0.000  0.000
  0.000  1.000  0.000  0.000  0.000
  0.000  0.000  1.000  0.000  0.000
  0.000  0.000  0.000  1.000  0.000
  0.000  0.000  0.000  0.000  1.000
    occupations:
  0.000  0.000  0.000  0.000  0.000
  0.000  0.000  0.000  0.000  0.000
  0.000  0.000  0.000  0.000  0.000
  0.000  0.000  0.000  0.000  0.000
  0.000  0.000  0.000  0.000  0.000
   spin  2
    eigenvalues: 
  1.000  1.000  1.000  1.000  1.000
    eigenvectors:
  1.000  0.000  0.000  0.000  0.000
  0.000  1.000  0.000  0.000  0.000
  0.000  0.000  1.000  0.000  0.000
  0.000  0.000  0.000  1.000  0.000
  0.000  0.000  0.000  0.000  1.000
    occupations:
  1.000  0.000  0.000  0.000  0.000
  0.000  1.000  0.000  0.000  0.000
  0.000  0.000  1.000  0.000  0.000
  0.000  0.000  0.000  1.000  0.000
  0.000  0.000  0.000  0.000  1.000
atomic mag. moment =    -5.000000
atom    8   Tr[ns(na)] (up, down, total) =   5.00000  0.00000  5.00000
   spin  1
    eigenvalues: 
  1.000  1.000  1.000  1.000  1.000
    eigenvectors:
  1.000  0.000  0.000  0.000  0.000
  0.000  1.000  0.000  0.000  0.000
  0.000  0.000  1.000  0.000  0.000
  0.000  0.000  0.000  1.000  0.000
  0.000  0.000  0.000  0.000  1.000
    occupations:
  1.000  0.000  0.000  0.000  0.000
  0.000  1.000  0.000  0.000  0.000
  0.000  0.000  1.000  0.000  0.000
  0.000  0.000  0.000  1.000  0.000
  0.000  0.000  0.000  0.000  1.000
   spin  2
    eigenvalues: 
  0.000  0.000  0.000  0.000  0.000
    eigenvectors:
  1.000  0.000  0.000  0.000  0.000
  0.000  1.000  0.000  0.000  0.000
  0.000  0.000  1.000  0.000  0.000
  0.000  0.000  0.000  1.000  0.000
  0.000  0.000  0.000  0.000  1.000
    occupations:
  0.000  0.000  0.000  0.000  0.000
  0.000  0.000  0.000  0.000  0.000
  0.000  0.000  0.000  0.000  0.000
  0.000  0.000  0.000  0.000  0.000
  0.000  0.000  0.000  0.000  0.000
atomic mag. moment =     5.000000
N of occupied +U levels =   40.000000
 --- exit write_ns ---
 Atomic wfc used for LDA+U Projector are NOT orthogonalized
     Starting wfcs are  224 randomized atomic wfcs
     Checking if some PAW data can be deallocated... 

     total cpu time spent up to now is      106.9 secs

     Self-consistent Calculation

     iteration #  1     ecut=    45.00 Ry     beta= 0.10
     Davidson diagonalization with overlap
     ethr =  1.00E-02,  avg # of iterations =  4.7
 --- enter write_ns ---
 LDA+U parameters:
U(  1) =   3.1200   J(  1) =   0.7000   B(  1) =   0.0803
U(  2) =   3.1200   J(  2) =   0.7000   B(  2) =   0.0803
atom    1   Tr[ns(na)] (up, down, total) =   5.01478  0.27380  5.28858
   spin  1
    eigenvalues: 
  1.003  1.003  1.003  1.003  1.004
    eigenvectors:
  0.000  0.000  0.000  1.000  0.000
  0.003  0.497  0.500  0.000  0.000
  0.003  0.497  0.500  0.000  0.000
  0.000  0.000  0.000  0.000  1.000
  0.993  0.007  0.000  0.000  0.000
    occupations:
  1.003 -0.000 -0.000 -0.000 -0.000
 -0.000  1.003 -0.000  0.000  0.000
 -0.000 -0.000  1.003 -0.000  0.000
 -0.000  0.000 -0.000  1.004 -0.000
 -0.000  0.000  0.000 -0.000  1.003
   spin  2
    eigenvalues: 
  0.041  0.051  0.055  0.055  0.072
    eigenvectors:
  0.000  0.999  0.000  0.000  0.000
  0.000  0.000  0.500  0.500  0.000
  0.000  0.000  0.500  0.500  0.000
  1.000  0.000  0.000  0.000  0.000
  0.000  0.000  0.000  0.000  1.000
    occupations:
  0.051  0.000  0.000 -0.000 -0.000
  0.000  0.055 -0.000  0.000  0.000
  0.000 -0.000  0.055 -0.000  0.000
 -0.000  0.000 -0.000  0.041 -0.000
 -0.000  0.000  0.000 -0.000  0.072
atomic mag. moment =     4.740981
atom    2   Tr[ns(na)] (up, down, total) =   0.27586  5.01494  5.29080
   spin  1
    eigenvalues: 
  0.041  0.052  0.055  0.056  0.072
    eigenvectors:
  0.000  0.981  0.000  0.019  0.000
  0.000  0.009  0.500  0.488  0.002
  0.000  0.009  0.500  0.488  0.002
  1.000  0.000  0.000  0.000  0.000
  0.000  0.000  0.000  0.004  0.996
    occupations:
  0.052  0.000  0.000 -0.000 -0.000
  0.000  0.055  0.000  0.000  0.001
  0.000  0.000  0.055 -0.000  0.001
 -0.000  0.000 -0.000  0.041 -0.000
 -0.000  0.001  0.001 -0.000  0.072
   spin  2
    eigenvalues: 
  1.003  1.003  1.003  1.003  1.004
    eigenvectors:
  0.000  0.000  0.000  1.000  0.000
  0.000  0.500  0.500  0.000  0.000
  0.000  0.500  0.500  0.000  0.000
  0.000  0.000  0.000  0.000  1.000
  0.999  0.000  0.000  0.000  0.000
    occupations:
  1.003 -0.000 -0.000 -0.000 -0.000
 -0.000  1.003 -0.000 -0.000 -0.000
 -0.000 -0.000  1.003  0.000 -0.000
 -0.000 -0.000  0.000  1.004 -0.000
 -0.000 -0.000 -0.000 -0.000  1.003
atomic mag. moment =    -4.739082
atom    3   Tr[ns(na)] (up, down, total) =   0.27536  5.01483  5.29019
   spin  1
    eigenvalues: 
  0.042  0.052  0.054  0.055  0.072
    eigenvectors:
  0.009  0.980  0.000  0.010  0.001
  0.000  0.009  0.268  0.723  0.000
  0.000  0.002  0.731  0.267  0.001
  0.991  0.009  0.000  0.000  0.000
  0.000  0.001  0.000  0.001  0.998
    occupations:
  0.052  0.000 -0.000 -0.001 -0.001
  0.000  0.055 -0.000  0.000 -0.000
 -0.000 -0.000  0.055  0.000  0.000
 -0.001  0.000  0.000  0.042  0.000
 -0.001 -0.000  0.000  0.000  0.072
   spin  2
    eigenvalues: 
  1.003  1.003  1.003  1.003  1.003
    eigenvectors:
  0.000  0.000  0.000  0.982  0.017
  0.000  0.836  0.163  0.000  0.000
  0.000  0.163  0.837  0.000  0.000
  0.000  0.000  0.000  0.017  0.982
  1.000  0.000  0.000  0.000  0.000
    occupations:
  1.003 -0.000  0.000  0.000 -0.000
 -0.000  1.003  0.000  0.000 -0.000
  0.000  0.000  1.003  0.000 -0.000
  0.000  0.000  0.000  1.003 -0.000
 -0.000 -0.000 -0.000 -0.000  1.003
atomic mag. moment =    -4.739477
atom    4   Tr[ns(na)] (up, down, total) =   5.01479  0.27297  5.28776
   spin  1
    eigenvalues: 
  1.003  1.003  1.003  1.003  1.004
    eigenvectors:
  0.000  0.001  0.000  0.995  0.004
  0.001  0.772  0.227  0.001  0.000
  0.000  0.227  0.773  0.000  0.000
  0.000  0.000  0.000  0.004  0.996
  0.999  0.001  0.000  0.000  0.000
    occupations:
  1.003  0.000 -0.000  0.000  0.000
  0.000  1.003  0.000 -0.000 -0.000
 -0.000  0.000  1.003  0.000  0.000
  0.000 -0.000  0.000  1.004 -0.000
  0.000 -0.000  0.000 -0.000  1.003
   spin  2
    eigenvalues: 
  0.040  0.050  0.054  0.056  0.072
    eigenvectors:
  0.008  0.985  0.001  0.006  0.001
  0.000  0.006  0.372  0.622  0.000
  0.000  0.001  0.627  0.372  0.000
  0.992  0.008  0.000  0.000  0.000
  0.000  0.001  0.000  0.000  0.998
    occupations:
  0.050  0.000 -0.000 -0.001 -0.001
  0.000  0.055 -0.001  0.000 -0.000
 -0.000 -0.001  0.055  0.000  0.000
 -0.001  0.000  0.000  0.041 -0.000
 -0.001 -0.000  0.000 -0.000  0.072
atomic mag. moment =     4.741819
atom    5   Tr[ns(na)] (up, down, total) =   5.01482  0.27734  5.29216
   spin  1
    eigenvalues: 
  1.003  1.003  1.003  1.003  1.004
    eigenvectors:
  0.000  0.000  0.000  1.000  0.000
  0.001  0.498  0.500  0.000  0.000
  0.001  0.498  0.500  0.000  0.000
  0.000  0.000  0.000  0.000  1.000
  0.997  0.003  0.000  0.000  0.000
    occupations:
  1.003  0.000  0.000 -0.000  0.000
  0.000  1.003 -0.000  0.000  0.000
  0.000 -0.000  1.003 -0.000  0.000
 -0.000  0.000 -0.000  1.004 -0.000
  0.000  0.000  0.000 -0.000  1.003
   spin  2
    eigenvalues: 
  0.042  0.052  0.055  0.056  0.073
    eigenvectors:
  0.000  0.980  0.000  0.018  0.002
  0.000  0.009  0.500  0.489  0.002
  0.000  0.009  0.500  0.489  0.002
  1.000  0.000  0.000  0.000  0.000
  0.000  0.001  0.000  0.004  0.995
    occupations:
  0.052  0.000  0.000 -0.000  0.001
  0.000  0.055  0.001 -0.000  0.001
  0.000  0.001  0.055  0.000  0.001
 -0.000 -0.000  0.000  0.042 -0.000
  0.001  0.001  0.001 -0.000  0.073
atomic mag. moment =     4.737477
atom    6   Tr[ns(na)] (up, down, total) =   5.01505  0.27393  5.28898
   spin  1
    eigenvalues: 
  1.003  1.003  1.003  1.003  1.004
    eigenvectors:
  0.000  0.000  0.004  0.996  0.000
  0.000  0.499  0.498  0.002  0.001
  0.000  0.499  0.498  0.002  0.001
  0.000  0.001  0.000  0.000  0.999
  0.999  0.000  0.001  0.000  0.000
    occupations:
  1.003 -0.000 -0.000 -0.000  0.000
 -0.000  1.003  0.000  0.000  0.000
 -0.000  0.000  1.003 -0.000  0.000
 -0.000  0.000 -0.000  1.004 -0.000
  0.000  0.000  0.000 -0.000  1.003
   spin  2
    eigenvalues: 
  0.041  0.050  0.054  0.054  0.074
    eigenvectors:
  0.000  0.999  0.000  0.001  0.000
  0.000  0.000  0.500  0.500  0.000
  0.000  0.000  0.500  0.500  0.000
  1.000  0.000  0.000  0.000  0.000
  0.000  0.000  0.000  0.000  1.000
    occupations:
  0.050 -0.000 -0.000 -0.000  0.000
 -0.000  0.054  0.000 -0.000  0.000
 -0.000  0.000  0.054  0.000  0.000
 -0.000 -0.000  0.000  0.041 -0.000
  0.000  0.000  0.000 -0.000  0.074
atomic mag. moment =     4.741120
atom    7   Tr[ns(na)] (up, down, total) =   0.27536  5.01483  5.29019
   spin  1
    eigenvalues: 
  0.042  0.052  0.054  0.055  0.072
    eigenvectors:
  0.009  0.980  0.000  0.010  0.001
  0.000  0.002  0.731  0.267  0.001
  0.000  0.009  0.268  0.723  0.000
  0.991  0.009  0.000  0.000  0.000
  0.000  0.001  0.000  0.001  0.998
    occupations:
  0.052 -0.000  0.000  0.001 -0.001
 -0.000  0.055 -0.000 -0.000  0.000
  0.000 -0.000  0.055 -0.000 -0.000
  0.001 -0.000 -0.000  0.042 -0.000
 -0.001  0.000 -0.000 -0.000  0.072
   spin  2
    eigenvalues: 
  1.003  1.003  1.003  1.003  1.003
    eigenvectors:
  0.000  0.000  0.000  0.982  0.017
  0.000  0.163  0.837  0.000  0.000
  0.000  0.836  0.163  0.000  0.000
  0.000  0.000  0.000  0.017  0.982
  1.000  0.000  0.000  0.000  0.000
    occupations:
  1.003  0.000 -0.000 -0.000 -0.000
  0.000  1.003  0.000 -0.000 -0.000
 -0.000  0.000  1.003 -0.000 -0.000
 -0.000 -0.000 -0.000  1.003  0.000
 -0.000 -0.000 -0.000  0.000  1.003
atomic mag. moment =    -4.739477
atom    8   Tr[ns(na)] (up, down, total) =   5.01479  0.27297  5.28776
   spin  1
    eigenvalues: 
  1.003  1.003  1.003  1.003  1.004
    eigenvectors:
  0.000  0.001  0.000  0.995  0.004
  0.000  0.227  0.773  0.000  0.000
  0.001  0.772  0.227  0.001  0.000
  0.000  0.000  0.000  0.004  0.996
  0.999  0.001  0.000  0.000  0.000
    occupations:
  1.003 -0.000  0.000 -0.000  0.000
 -0.000  1.003  0.000 -0.000  0.000
  0.000  0.000  1.003  0.000 -0.000
 -0.000 -0.000  0.000  1.004  0.000
  0.000  0.000 -0.000  0.000  1.003
   spin  2
    eigenvalues: 
  0.040  0.050  0.054  0.056  0.072
    eigenvectors:
  0.008  0.985  0.001  0.006  0.001
  0.000  0.001  0.627  0.372  0.000
  0.000  0.006  0.372  0.622  0.000
  0.992  0.008  0.000  0.000  0.000
  0.000  0.001  0.000  0.000  0.998
    occupations:
  0.050 -0.000  0.000  0.001 -0.001
 -0.000  0.055 -0.001 -0.000  0.000
  0.000 -0.001  0.055 -0.000 -0.000
  0.001 -0.000 -0.000  0.041  0.000
 -0.001  0.000 -0.000  0.000  0.072
atomic mag. moment =     4.741819
N of occupied +U levels =   42.316412
 --- exit write_ns ---

     total cpu time spent up to now is      439.4 secs

     total energy              =  -14679.20141389 Ry
     Harris-Foulkes estimate   =  -14669.82965659 Ry
     estimated scf accuracy    <      21.26988490 Ry

     total magnetization       =    10.47 Bohr mag/cell
     absolute magnetization    =    43.56 Bohr mag/cell

     iteration #  2     ecut=    45.00 Ry     beta= 0.10
     Davidson diagonalization with overlap
     ethr =  7.19E-03,  avg # of iterations =  1.0

     total cpu time spent up to now is      635.8 secs

     total energy              =  -14692.16143199 Ry
     Harris-Foulkes estimate   =  -14679.30588061 Ry
     estimated scf accuracy    <      17.15931903 Ry

     total magnetization       =    10.32 Bohr mag/cell
     absolute magnetization    =    43.12 Bohr mag/cell

     iteration #  3     ecut=    45.00 Ry     beta= 0.10
     Davidson diagonalization with overlap
     ethr =  5.80E-03,  avg # of iterations =  2.1

     total cpu time spent up to now is      864.9 secs

     total energy              =  -14693.81987795 Ry
     Harris-Foulkes estimate   =  -14693.76414106 Ry
     estimated scf accuracy    <       4.06527364 Ry

     total magnetization       =     9.35 Bohr mag/cell
     absolute magnetization    =    39.26 Bohr mag/cell

     iteration #  4     ecut=    45.00 Ry     beta= 0.10
     Davidson diagonalization with overlap
     ethr =  1.37E-03,  avg # of iterations =  5.6

     total cpu time spent up to now is     1187.2 secs

     total energy              =  -14693.49137965 Ry
     Harris-Foulkes estimate   =  -14693.86183094 Ry
     estimated scf accuracy    <       4.30702371 Ry

     total magnetization       =     9.30 Bohr mag/cell
     absolute magnetization    =    39.04 Bohr mag/cell

     iteration #  5     ecut=    45.00 Ry     beta= 0.10
     Davidson diagonalization with overlap
     ethr =  1.37E-03,  avg # of iterations =  4.6

     total cpu time spent up to now is     1491.8 secs

     total energy              =  -14693.84050774 Ry
     Harris-Foulkes estimate   =  -14693.81576022 Ry
     estimated scf accuracy    <       0.38544106 Ry

     total magnetization       =     9.05 Bohr mag/cell
     absolute magnetization    =    38.33 Bohr mag/cell

     iteration #  6     ecut=    45.00 Ry     beta= 0.10
     Davidson diagonalization with overlap
     ethr =  1.30E-04,  avg # of iterations =  3.9

     total cpu time spent up to now is     1837.0 secs

     total energy              =  -14693.96059182 Ry
     Harris-Foulkes estimate   =  -14693.94813253 Ry
     estimated scf accuracy    <       0.29301836 Ry

     total magnetization       =     8.51 Bohr mag/cell
     absolute magnetization    =    37.12 Bohr mag/cell

     iteration #  7     ecut=    45.00 Ry     beta= 0.10
     Davidson diagonalization with overlap
     ethr =  9.90E-05,  avg # of iterations =  1.0

     total cpu time spent up to now is     2033.6 secs

     total energy              =  -14693.93139344 Ry
     Harris-Foulkes estimate   =  -14693.96508221 Ry
     estimated scf accuracy    <       0.49167808 Ry

     total magnetization       =     8.41 Bohr mag/cell
     absolute magnetization    =    37.10 Bohr mag/cell

     iteration #  8     ecut=    45.00 Ry     beta= 0.10
     Davidson diagonalization with overlap
     ethr =  9.90E-05,  avg # of iterations =  1.0

     total cpu time spent up to now is     2229.3 secs

     total energy              =  -14693.93620780 Ry
     Harris-Foulkes estimate   =  -14693.94191719 Ry
     estimated scf accuracy    <       0.17859175 Ry

     total magnetization       =     8.55 Bohr mag/cell
     absolute magnetization    =    37.12 Bohr mag/cell

     iteration #  9     ecut=    45.00 Ry     beta= 0.10
     Davidson diagonalization with overlap
     ethr =  6.03E-05,  avg # of iterations =  1.5

     total cpu time spent up to now is     2437.9 secs

     total energy              =  -14693.93662774 Ry
     Harris-Foulkes estimate   =  -14693.94288149 Ry
     estimated scf accuracy    <       0.05720215 Ry

     total magnetization       =     8.55 Bohr mag/cell
     absolute magnetization    =    37.02 Bohr mag/cell

     iteration # 10     ecut=    45.00 Ry     beta= 0.10
     Davidson diagonalization with overlap
     ethr =  1.93E-05,  avg # of iterations =  3.2

     total cpu time spent up to now is     2716.1 secs

     total energy              =  -14693.94507614 Ry
     Harris-Foulkes estimate   =  -14693.94278816 Ry
     estimated scf accuracy    <       0.00548732 Ry

     total magnetization       =     8.56 Bohr mag/cell
     absolute magnetization    =    37.01 Bohr mag/cell

     iteration # 11     ecut=    45.00 Ry     beta= 0.10
     Davidson diagonalization with overlap
     ethr =  1.85E-06,  avg # of iterations =  5.0

     total cpu time spent up to now is     3021.2 secs

     total energy              =  -14693.94624925 Ry
     Harris-Foulkes estimate   =  -14693.94559855 Ry
     estimated scf accuracy    <       0.00479119 Ry

     total magnetization       =     8.52 Bohr mag/cell
     absolute magnetization    =    36.89 Bohr mag/cell

     iteration # 12     ecut=    45.00 Ry     beta= 0.10
     Davidson diagonalization with overlap
     ethr =  1.62E-06,  avg # of iterations =  2.0

     total cpu time spent up to now is     3266.5 secs

     total energy              =  -14693.94706959 Ry
     Harris-Foulkes estimate   =  -14693.94694866 Ry
     estimated scf accuracy    <       0.00078834 Ry

     total magnetization       =     8.51 Bohr mag/cell
     absolute magnetization    =    36.85 Bohr mag/cell

     iteration # 13     ecut=    45.00 Ry     beta= 0.10
     Davidson diagonalization with overlap
     ethr =  2.66E-07,  avg # of iterations =  2.2

     total cpu time spent up to now is     3535.1 secs

     total energy              =  -14693.94747205 Ry
     Harris-Foulkes estimate   =  -14693.94732463 Ry
     estimated scf accuracy    <       0.00121136 Ry

     total magnetization       =     8.49 Bohr mag/cell
     absolute magnetization    =    36.84 Bohr mag/cell

     iteration # 14     ecut=    45.00 Ry     beta= 0.10
     Davidson diagonalization with overlap
     ethr =  2.66E-07,  avg # of iterations =  2.0

     total cpu time spent up to now is     3776.5 secs

     total energy              =  -14693.94763327 Ry
     Harris-Foulkes estimate   =  -14693.94761569 Ry
     estimated scf accuracy    <       0.00015876 Ry

     total magnetization       =     8.48 Bohr mag/cell
     absolute magnetization    =    36.81 Bohr mag/cell

     iteration # 15     ecut=    45.00 Ry     beta= 0.10
     Davidson diagonalization with overlap
     ethr =  5.36E-08,  avg # of iterations =  2.8

     total cpu time spent up to now is     4033.2 secs

     total energy              =  -14693.94767677 Ry
     Harris-Foulkes estimate   =  -14693.94766139 Ry
     estimated scf accuracy    <       0.00005165 Ry

     total magnetization       =     8.48 Bohr mag/cell
     absolute magnetization    =    36.81 Bohr mag/cell

     iteration # 16     ecut=    45.00 Ry     beta= 0.10
     Davidson diagonalization with overlap
     ethr =  1.74E-08,  avg # of iterations =  2.1

     total cpu time spent up to now is     4268.6 secs

     total energy              =  -14693.94769079 Ry
     Harris-Foulkes estimate   =  -14693.94768292 Ry
     estimated scf accuracy    <       0.00001189 Ry

     total magnetization       =     8.47 Bohr mag/cell
     absolute magnetization    =    36.80 Bohr mag/cell

     iteration # 17     ecut=    45.00 Ry     beta= 0.10
     Davidson diagonalization with overlap
     ethr =  4.02E-09,  avg # of iterations =  1.6

     total cpu time spent up to now is     4477.2 secs

     total energy              =  -14693.94769777 Ry
     Harris-Foulkes estimate   =  -14693.94769086 Ry
     estimated scf accuracy    <       0.00000798 Ry

     total magnetization       =     8.47 Bohr mag/cell
     absolute magnetization    =    36.80 Bohr mag/cell

     iteration # 18     ecut=    45.00 Ry     beta= 0.10
     Davidson diagonalization with overlap
     ethr =  2.70E-09,  avg # of iterations =  2.0

     total cpu time spent up to now is     4697.5 secs

     total energy              =  -14693.94770396 Ry
     Harris-Foulkes estimate   =  -14693.94769804 Ry
     estimated scf accuracy    <       0.00000544 Ry

     total magnetization       =     8.47 Bohr mag/cell
     absolute magnetization    =    36.80 Bohr mag/cell

     iteration # 19     ecut=    45.00 Ry     beta= 0.10
     Davidson diagonalization with overlap
     ethr =  1.84E-09,  avg # of iterations =  2.1

     total cpu time spent up to now is     4922.2 secs

     total energy              =  -14693.94770764 Ry
     Harris-Foulkes estimate   =  -14693.94770365 Ry
     estimated scf accuracy    <       0.00000224 Ry

     total magnetization       =     8.47 Bohr mag/cell
     absolute magnetization    =    36.80 Bohr mag/cell

     iteration # 20     ecut=    45.00 Ry     beta= 0.10
     Davidson diagonalization with overlap
     ethr =  7.58E-10,  avg # of iterations =  2.6
 
     Magnetic moment per site:
     atom:    1    charge:   13.5429    magn:    4.2096    constr:    0.0000
     atom:    2    charge:   13.5353    magn:   -4.2496    constr:    0.0000
     atom:    3    charge:   13.5374    magn:   -4.2489    constr:    0.0000
     atom:    4    charge:   13.5432    magn:    4.1936    constr:    0.0000
     atom:    5    charge:   13.5426    magn:    4.2271    constr:    0.0000
     atom:    6    charge:   13.5429    magn:    4.2077    constr:    0.0000
     atom:    7    charge:   13.5374    magn:   -4.2489    constr:    0.0000
     atom:    8    charge:   13.5432    magn:    4.1936    constr:    0.0000
     atom:    9    charge:    9.0909    magn:   -0.0015    constr:    0.0000
     atom:   10    charge:    9.0898    magn:    0.0152    constr:    0.0000
     atom:   11    charge:    9.0918    magn:   -0.0087    constr:    0.0000
     atom:   12    charge:    9.0920    magn:    0.0483    constr:    0.0000
     atom:   13    charge:    9.0908    magn:   -0.0164    constr:    0.0000
     atom:   14    charge:    9.0908    magn:    0.0178    constr:    0.0000
     atom:   15    charge:    9.0910    magn:    0.0214    constr:    0.0000
     atom:   16    charge:    9.0908    magn:   -0.0283    constr:    0.0000
     atom:   17    charge:    9.0908    magn:    0.0178    constr:    0.0000
     atom:   18    charge:    9.0908    magn:   -0.0164    constr:    0.0000
     atom:   19    charge:    9.0918    magn:   -0.0087    constr:    0.0000
     atom:   20    charge:    9.0920    magn:    0.0483    constr:    0.0000
     atom:   21    charge:    9.0909    magn:   -0.0015    constr:    0.0000
     atom:   22    charge:    9.0898    magn:    0.0152    constr:    0.0000
     atom:   23    charge:    9.0908    magn:   -0.0283    constr:    0.0000
     atom:   24    charge:    9.0910    magn:    0.0214    constr:    0.0000

     total cpu time spent up to now is     5160.2 secs

     End of self-consistent calculation
 --- enter write_ns ---
 LDA+U parameters:
U(  1) =   3.1200   J(  1) =   0.7000   B(  1) =   0.0803
U(  2) =   3.1200   J(  2) =   0.7000   B(  2) =   0.0803
atom    1   Tr[ns(na)] (up, down, total) =   4.96663  0.75687  5.72350
   spin  1
    eigenvalues: 
  0.983  0.991  0.993  0.997  1.002
    eigenvectors:
  0.002  0.000  0.002  0.996  0.000
  0.000  0.500  0.499  0.001  0.000
  0.000  0.500  0.499  0.001  0.000
  0.000  0.000  0.000  0.000  1.000
  0.998  0.000  0.000  0.002  0.000
    occupations:
  0.997  0.000  0.000 -0.000  0.001
  0.000  0.992  0.001 -0.000 -0.000
  0.000  0.001  0.992  0.000 -0.000
 -0.000 -0.000  0.000  1.002 -0.000
  0.001 -0.000 -0.000 -0.000  0.983
   spin  2
    eigenvalues: 
  0.069  0.135  0.143  0.152  0.258
    eigenvectors:
  0.000  0.917  0.000  0.054  0.030
  0.000  0.030  0.500  0.469  0.001
  0.000  0.030  0.500  0.469  0.001
  0.999  0.000  0.001  0.000  0.000
  0.000  0.024  0.000  0.008  0.968
    occupations:
  0.140 -0.003 -0.003 -0.000 -0.020
 -0.003  0.147  0.004 -0.001  0.003
 -0.003  0.004  0.147  0.001  0.003
 -0.000 -0.001  0.001  0.069 -0.000
 -0.020  0.003  0.003 -0.000  0.254
atomic mag. moment =     4.209759
atom    2   Tr[ns(na)] (up, down, total) =   0.72541  4.96943  5.69484
   spin  1
    eigenvalues: 
  0.070  0.122  0.143  0.151  0.239
    eigenvectors:
  0.000  0.998  0.000  0.000  0.001
  0.000  0.000  0.500  0.493  0.007
  0.000  0.000  0.500  0.493  0.007
  0.999  0.000  0.001  0.000  0.000
  0.000  0.001  0.000  0.014  0.985
    occupations:
  0.122 -0.000 -0.000 -0.000  0.004
 -0.000  0.147  0.005 -0.001  0.007
 -0.000  0.005  0.147  0.001  0.007
 -0.000 -0.001  0.001  0.070 -0.000
  0.004  0.007  0.007 -0.000  0.238
   spin  2
    eigenvalues: 
  0.985  0.992  0.993  0.997  1.002
    eigenvectors:
  0.002  0.000  0.039  0.959  0.000
  0.001  0.500  0.480  0.019  0.000
  0.001  0.500  0.480  0.019  0.000
  0.000  0.000  0.000  0.000  1.000
  0.996  0.000  0.001  0.003  0.000
    occupations:
  0.997 -0.001 -0.001 -0.000  0.001
 -0.001  0.993  0.001 -0.000 -0.000
 -0.001  0.001  0.993  0.000 -0.000
 -0.000 -0.000  0.000  1.002 -0.000
  0.001 -0.000 -0.000 -0.000  0.985
atomic mag. moment =    -4.244027
atom    3   Tr[ns(na)] (up, down, total) =   0.72709  4.96987  5.69696
   spin  1
    eigenvalues: 
  0.070  0.126  0.142  0.147  0.242
    eigenvectors:
  0.000  0.943  0.000  0.032  0.025
  0.000  0.001  0.987  0.001  0.011
  0.001  0.031  0.000  0.967  0.001
  0.999  0.000  0.000  0.001  0.000
  0.000  0.025  0.012  0.000  0.963
    occupations:
  0.129  0.002  0.003  0.001 -0.018
  0.002  0.143 -0.001 -0.001 -0.010
  0.003 -0.001  0.146 -0.002  0.003
  0.001 -0.001 -0.002  0.070 -0.001
 -0.018 -0.010  0.003 -0.001  0.238
   spin  2
    eigenvalues: 
  0.985  0.992  0.994  0.997  1.001
    eigenvectors:
  0.002  0.000  0.000  0.994  0.003
  0.002  0.598  0.400  0.000  0.000
  0.000  0.400  0.600  0.000  0.000
  0.000  0.000  0.000  0.003  0.997
  0.996  0.002  0.000  0.002  0.000
    occupations:
  0.997  0.000  0.000  0.000  0.001
  0.000  0.993  0.001 -0.000  0.000
  0.000  0.001  0.993 -0.000 -0.000
  0.000 -0.000 -0.000  1.001  0.000
  0.001  0.000 -0.000  0.000  0.985
atomic mag. moment =    -4.242780
atom    4   Tr[ns(na)] (up, down, total) =   4.96450  0.76829  5.73278
   spin  1
    eigenvalues: 
  0.982  0.991  0.993  0.997  1.002
    eigenvectors:
  0.000  0.001  0.001  0.993  0.004
  0.000  0.529  0.471  0.000  0.000
  0.002  0.468  0.528  0.002  0.000
  0.000  0.000  0.000  0.004  0.995
  0.998  0.002  0.000  0.000  0.000
    occupations:
  0.997 -0.000  0.000  0.000  0.000
 -0.000  0.992  0.001 -0.000 -0.000
  0.000  0.001  0.992 -0.000  0.000
  0.000 -0.000 -0.000  1.002 -0.000
  0.000 -0.000  0.000 -0.000  0.982
   spin  2
    eigenvalues: 
  0.068  0.137  0.141  0.159  0.263
    eigenvectors:
  0.000  0.818  0.145  0.035  0.002
  0.000  0.051  0.655  0.289  0.005
  0.000  0.128  0.199  0.673  0.000
  1.000  0.000  0.000  0.000  0.000
  0.000  0.003  0.001  0.003  0.992
    occupations:
  0.139  0.001  0.004  0.000 -0.006
  0.001  0.147  0.008 -0.001 -0.008
  0.004  0.008  0.152 -0.001 -0.000
  0.000 -0.001 -0.001  0.068 -0.000
 -0.006 -0.008 -0.000 -0.000  0.262
atomic mag. moment =     4.196208
atom    5   Tr[ns(na)] (up, down, total) =   4.96906  0.74576  5.71482
   spin  1
    eigenvalues: 
  0.984  0.993  0.994  0.997  1.002
    eigenvectors:
  0.000  0.027  0.000  0.972  0.000
  0.001  0.486  0.500  0.014  0.000
  0.001  0.486  0.500  0.014  0.000
  0.000  0.000  0.000  0.000  1.000
  0.998  0.001  0.000  0.000  0.000
    occupations:
  0.996 -0.000 -0.000 -0.000  0.000
 -0.000  0.993 -0.001 -0.000 -0.000
 -0.000 -0.001  0.993  0.000 -0.000
 -0.000 -0.000  0.000  1.002 -0.000
  0.000 -0.000 -0.000 -0.000  0.984
   spin  2
    eigenvalues: 
  0.069  0.121  0.145  0.154  0.257
    eigenvectors:
  0.000  0.992  0.000  0.006  0.002
  0.000  0.003  0.500  0.493  0.004
  0.000  0.003  0.500  0.493  0.004
  1.000  0.000  0.000  0.000  0.000
  0.000  0.003  0.000  0.007  0.990
    occupations:
  0.121 -0.001 -0.001 -0.000  0.007
 -0.001  0.150  0.005 -0.001  0.007
 -0.001  0.005  0.150  0.001  0.007
 -0.000 -0.001  0.001  0.069 -0.000
  0.007  0.007  0.007 -0.000  0.256
atomic mag. moment =     4.223296
atom    6   Tr[ns(na)] (up, down, total) =   4.96632  0.76105  5.72737
   spin  1
    eigenvalues: 
  0.983  0.992  0.993  0.997  1.001
    eigenvectors:
  0.001  0.000  0.001  0.998  0.000
  0.001  0.500  0.499  0.000  0.000
  0.001  0.500  0.499  0.000  0.000
  0.000  0.000  0.000  0.000  1.000
  0.998  0.000  0.001  0.001  0.000
    occupations:
  0.997 -0.000 -0.000 -0.000  0.000
 -0.000  0.993  0.000  0.000 -0.000
 -0.000  0.000  0.993 -0.000 -0.000
 -0.000  0.000 -0.000  1.001 -0.000
  0.000 -0.000 -0.000 -0.000  0.983
   spin  2
    eigenvalues: 
  0.069  0.142  0.145  0.152  0.253
    eigenvectors:
  0.000  0.000  0.958  0.030  0.012
  0.000  0.500  0.016  0.483  0.001
  0.000  0.500  0.016  0.483  0.001
  1.000  0.000  0.000  0.000  0.000
  0.000  0.000  0.010  0.004  0.987
    occupations:
  0.147  0.001  0.001 -0.000 -0.011
  0.001  0.147  0.005  0.001 -0.003
  0.001  0.005  0.147 -0.001 -0.003
 -0.000  0.001 -0.001  0.069 -0.000
 -0.011 -0.003 -0.003 -0.000  0.252
atomic mag. moment =     4.205262
atom    7   Tr[ns(na)] (up, down, total) =   0.72709  4.96987  5.69696
   spin  1
    eigenvalues: 
  0.070  0.126  0.142  0.147  0.242
    eigenvectors:
  0.000  0.943  0.000  0.032  0.025
  0.001  0.031  0.000  0.967  0.001
  0.000  0.001  0.987  0.001  0.011
  0.999  0.000  0.000  0.001  0.000
  0.000  0.025  0.012  0.000  0.963
    occupations:
  0.129  0.003  0.002 -0.001 -0.018
  0.003  0.146 -0.001  0.002  0.003
  0.002 -0.001  0.143  0.001 -0.010
 -0.001  0.002  0.001  0.070  0.001
 -0.018  0.003 -0.010  0.001  0.238
   spin  2
    eigenvalues: 
  0.985  0.992  0.994  0.997  1.001
    eigenvectors:
  0.002  0.000  0.000  0.994  0.003
  0.000  0.400  0.600  0.000  0.000
  0.002  0.598  0.400  0.000  0.000
  0.000  0.000  0.000  0.003  0.997
  0.996  0.002  0.000  0.002  0.000
    occupations:
  0.997  0.000  0.000 -0.000  0.001
  0.000  0.993  0.001  0.000 -0.000
  0.000  0.001  0.993  0.000  0.000
 -0.000  0.000  0.000  1.001 -0.000
  0.001 -0.000  0.000 -0.000  0.985
atomic mag. moment =    -4.242780
atom    8   Tr[ns(na)] (up, down, total) =   4.96450  0.76829  5.73278
   spin  1
    eigenvalues: 
  0.982  0.991  0.993  0.997  1.002
    eigenvectors:
  0.000  0.001  0.001  0.993  0.004
  0.002  0.468  0.528  0.002  0.000
  0.000  0.529  0.471  0.000  0.000
  0.000  0.000  0.000  0.004  0.995
  0.998  0.002  0.000  0.000  0.000
    occupations:
  0.997  0.000 -0.000 -0.000  0.000
  0.000  0.992  0.001  0.000  0.000
 -0.000  0.001  0.992  0.000 -0.000
 -0.000  0.000  0.000  1.002  0.000
  0.000  0.000 -0.000  0.000  0.982
   spin  2
    eigenvalues: 
  0.068  0.137  0.141  0.159  0.263
    eigenvectors:
  0.000  0.818  0.145  0.035  0.002
  0.000  0.128  0.199  0.673  0.000
  0.000  0.051  0.655  0.289  0.005
  1.000  0.000  0.000  0.000  0.000
  0.000  0.003  0.001  0.003  0.992
    occupations:
  0.139  0.004  0.001 -0.000 -0.006
  0.004  0.152  0.008  0.001 -0.000
  0.001  0.008  0.147  0.001 -0.008
 -0.000  0.001  0.001  0.068  0.000
 -0.006 -0.000 -0.008  0.000  0.262
atomic mag. moment =     4.196208
N of occupied +U levels =   45.720020
 --- exit write_ns ---

     Number of k-points >= 100: set verbosity='high' to print the bands.

     the Fermi energy is    15.5883 ev

!    total energy              =  -14693.94772159 Ry
     Harris-Foulkes estimate   =  -14693.94770726 Ry
     estimated scf accuracy    <       0.00000087 Ry

     total all-electron energy =   -626921.543444 Ry

     The total energy is the sum of the following terms:

     one-electron contribution =    -698.49835579 Ry
     hartree contribution      =     651.62570797 Ry
     xc contribution           =    -738.10264173 Ry
     ewald contribution        =   -2207.56121140 Ry
     Hubbard energy            =       0.45920939 Ry
     one-center paw contrib.   =  -11701.87043002 Ry

     total magnetization       =     8.47 Bohr mag/cell
     absolute magnetization    =    36.80 Bohr mag/cell

     convergence has been achieved in  20 iterations

     Writing output data file mnau2.save/
 
     init_run     :    102.04s CPU    103.97s WALL (       1 calls)
     electrons    :   4939.51s CPU   5054.01s WALL (       1 calls)

     Called by init_run:
     wfcinit      :    100.73s CPU    102.54s WALL (       1 calls)
     potinit      :      0.56s CPU      0.63s WALL (       1 calls)
     hinit0       :      0.41s CPU      0.44s WALL (       1 calls)

     Called by electrons:
     c_bands      :   4302.27s CPU   4403.31s WALL (      20 calls)
     sum_band     :    625.84s CPU    638.53s WALL (      20 calls)
     v_of_rho     :      1.07s CPU      1.08s WALL (      21 calls)
     newd         :      3.75s CPU      3.77s WALL (      21 calls)
     PAW_pot      :      6.61s CPU      6.67s WALL (      21 calls)
     mix_rho      :      0.26s CPU      0.27s WALL (      20 calls)

     Called by c_bands:
     init_us_2    :     14.17s CPU     14.25s WALL (   14280 calls)
     cegterg      :   4178.78s CPU   4278.43s WALL (    6800 calls)

     Called by sum_band:
     sum_band:bec :      4.27s CPU      4.30s WALL (    6800 calls)
     addusdens    :      5.48s CPU      5.51s WALL (      20 calls)

     Called by *egterg:
     h_psi        :   2502.43s CPU   2551.64s WALL (   25198 calls)
     s_psi        :    133.31s CPU    133.48s WALL (   25538 calls)
     g_psi        :      4.93s CPU      4.95s WALL (   18058 calls)
     cdiaghg      :   1183.56s CPU   1232.75s WALL (   24858 calls)

     Called by h_psi:
     h_psi:pot    :   2421.59s CPU   2469.94s WALL (   25198 calls)
     h_psi:calbec :    175.88s CPU    182.13s WALL (   25198 calls)
     vloc_psi     :   2118.95s CPU   2160.85s WALL (   25198 calls)
     add_vuspsi   :    126.58s CPU    126.82s WALL (   25198 calls)
     vhpsi        :     77.68s CPU     78.52s WALL (   25198 calls)

     General routines
     calbec       :    328.32s CPU    338.50s WALL (   64336 calls)
     fft          :      0.96s CPU      0.99s WALL (     521 calls)
     ffts         :      0.08s CPU      0.08s WALL (      82 calls)
     fftw         :   2507.90s CPU   2557.23s WALL ( 6689908 calls)
     interpolate  :      0.11s CPU      0.12s WALL (      42 calls)
     davcio       :      0.01s CPU      2.12s WALL (     340 calls)
 
     Parallel routines
     fft_scatt_xy :    107.33s CPU    109.13s WALL ( 6690511 calls)
     fft_scatt_yz :   1908.56s CPU   1948.53s WALL ( 6690511 calls)

     Hubbard U routines
     new_ns       :     16.85s CPU     17.28s WALL (      20 calls)
     vhpsi        :     77.68s CPU     78.52s WALL (   25198 calls)
 
     PWSCF        :     1h24m CPU       24h 1m WALL

      28h
 
   This run was terminated on:  22: 9:12  28Mar2019            

=------------------------------------------------------------------------------=
   JOB DONE.
=------------------------------------------------------------------------------=
