
     Program PWSCF v.6.3MaX starts on 28Mar2019 at 22: 9:14 

     This program is part of the open-source Quantum ESPRESSO suite
     for quantum simulation of materials; please cite
         "P. Giannozzi et al., J. Phys.:Condens. Matter 21 395502 (2009);
         "P. Giannozzi et al., J. Phys.:Condens. Matter 29 465901 (2017);
          URL http://www.quantum-espresso.org", 
     in publications or presentations arising from this work. More details at
     http://www.quantum-espresso.org/quote

     Parallel version (MPI), running on    32 processors

     MPI processes distributed on     3 nodes
     R & G space division:  proc/nbgrp/npool/nimage =      32
     Waiting for input...
     Reading input from standard input

     Current dimensions of program PWSCF are:
     Max number of different atomic species (ntypx) = 10
     Max number of k-points (npk) =  40000
     Max angular momentum in pseudopotentials (lmaxx) =  3
     Message from routine read_upf::
     Pseudo file ./pseudo/Mn.pbe-spn-kjpaw_psl.0.3.1.UPF has been successfully fixed on the fly.
To avoid this message in the future you can permanently fix 
 your pseudo files following instructions given in: 
https://gitlab.com/QEF/q-e/blob/master/upftools/how_to_fix_upf.md
               file Mn.pbe-spn-kjpaw_psl.0.3.1.UPF: wavefunction(s)  3P 3D renormalized
     Message from routine read_upf::
     Pseudo file ./pseudo/Mn.pbe-spn-kjpaw_psl.0.3.1.UPF has been successfully fixed on the fly.
To avoid this message in the future you can permanently fix 
 your pseudo files following instructions given in: 
https://gitlab.com/QEF/q-e/blob/master/upftools/how_to_fix_upf.md
               file Mn.pbe-spn-kjpaw_psl.0.3.1.UPF: wavefunction(s)  3P 3D renormalized
     Message from routine read_upf::
     Pseudo file ./pseudo/Au.pbe-dn-kjpaw_psl.0.1.UPF has been successfully fixed on the fly.
To avoid this message in the future you can permanently fix 
 your pseudo files following instructions given in: 
https://gitlab.com/QEF/q-e/blob/master/upftools/how_to_fix_upf.md
               file Au.pbe-dn-kjpaw_psl.0.1.UPF: wavefunction(s)  6S 6P 5D renormalized

     Subspace diagonalization in iterative solution of the eigenvalue problem:
     one sub-group per band group will be used
     scalapack distributed-memory algorithm (size of sub-group:  4*  4 procs)

 
     Parallelization info
     --------------------
     sticks:   dense  smooth     PW     G-vecs:    dense   smooth      PW
     Min         323     145     42                11331     3421     537
     Max         324     146     43                11333     3423     539
     Sum       10349    4645   1353               362619   109493   17211
 


     bravais-lattice index     =            0
     lattice parameter (alat)  =      18.0125  a.u.
     unit-cell volume          =    2685.0513 (a.u.)^3
     number of atoms/cell      =           24
     number of atomic types    =            3
     number of electrons       =       296.00
     number of Kohn-Sham states=          178
     kinetic-energy cutoff     =      45.0000  Ry
     charge density cutoff     =     400.0000  Ry
     convergence threshold     =      1.0E-06
     mixing beta               =       0.1000
     number of iterations used =            8  plain     mixing
     Exchange-correlation      = SLA PW PBX PBC ( 1  4  3  4 0 0)

     celldm(1)=  18.012490  celldm(2)=   0.000000  celldm(3)=   0.000000
     celldm(4)=   0.000000  celldm(5)=   0.000000  celldm(6)=   0.000000

     crystal axes: (cart. coord. in units of alat)
               a(1) = (   0.707107  -0.707107   0.000000 )  
               a(2) = (  -0.707107  -0.707107   0.000000 )  
               a(3) = (   0.176777   0.176777  -0.459443 )  

     reciprocal axes: (cart. coord. in units 2 pi/alat)
               b(1) = (  0.707107 -0.707107  0.000000 )  
               b(2) = ( -0.707107 -0.707107 -0.544138 )  
               b(3) = (  0.000000  0.000000 -2.176550 )  


     PseudoPot. # 1 for Mn read from file:
     ./pseudo/Mn.pbe-spn-kjpaw_psl.0.3.1.UPF
     MD5 check sum: 7eef95dd2aae66803482eea66ebeebf1
     Pseudo is Projector augmented-wave + core cor, Zval = 15.0
     Generated using "atomic" code by A. Dal Corso v.5.0.99 svn rev. 10869
     Shape of augmentation charge: PSQ
     Using radial grid of 1187 points,  6 beta functions with: 
                l(1) =   0
                l(2) =   0
                l(3) =   1
                l(4) =   1
                l(5) =   2
                l(6) =   2
     Q(r) pseudized with 0 coefficients 


     PseudoPot. # 2 for Mn read from file:
     ./pseudo/Mn.pbe-spn-kjpaw_psl.0.3.1.UPF
     MD5 check sum: 7eef95dd2aae66803482eea66ebeebf1
     Pseudo is Projector augmented-wave + core cor, Zval = 15.0
     Generated using "atomic" code by A. Dal Corso v.5.0.99 svn rev. 10869
     Shape of augmentation charge: PSQ
     Using radial grid of 1187 points,  6 beta functions with: 
                l(1) =   0
                l(2) =   0
                l(3) =   1
                l(4) =   1
                l(5) =   2
                l(6) =   2
     Q(r) pseudized with 0 coefficients 


     PseudoPot. # 3 for Au read from file:
     ./pseudo/Au.pbe-dn-kjpaw_psl.0.1.UPF
     MD5 check sum: 5c9b92683623e7ae2ab3f8e525febab6
     Pseudo is Projector augmented-wave + core cor, Zval = 11.0
     Generated using "atomic" code by A. Dal Corso v.5.0.2 svn rev. 9415
     Shape of augmentation charge: PSQ
     Using radial grid of 1279 points,  6 beta functions with: 
                l(1) =   0
                l(2) =   0
                l(3) =   1
                l(4) =   1
                l(5) =   2
                l(6) =   2
     Q(r) pseudized with 0 coefficients 


     atomic species   valence    mass     pseudopotential
        Mn1           15.00    54.93800     Mn( 1.00)
        Mn2           15.00    54.93800     Mn( 1.00)
        Au            11.00   196.96600     Au( 1.00)

     Starting magnetic structure 
     atomic species   magnetization
        Mn1          1.000
        Mn2         -1.000
        Au           0.000


     Full LDA+U calculation (l_max = 2) with parameters (eV):
     U(  1) =   3.1200   J(  1) =   0.7000   B(  1) =   0.0803
     U(  2) =   3.1200   J(  2) =   0.7000   B(  2) =   0.0803



      4 Sym. Ops., with inversion, found ( 2 have fractional translation)



   Cartesian axes

     site n.     atom                  positions (alat units)
         1           Mn1 tau(   1) = (   0.3535534  -0.3535534   0.0000000  )
         2           Mn1 tau(   2) = (   0.0000000   0.0000000   0.0000000  )
         3           Mn2 tau(   3) = (   0.0000000  -0.3535534   0.0000000  )
         4           Mn1 tau(   4) = (   0.3535534  -0.7071068   0.0000000  )
         5           Mn2 tau(   5) = (  -0.3535534  -0.3535534   0.0000000  )
         6           Mn2 tau(   6) = (   0.0000000  -0.7071068   0.0000000  )
         7           Mn2 tau(   7) = (  -0.3535534  -0.7071068   0.0000000  )
         8           Mn1 tau(   8) = (   0.0000000  -1.0606602   0.0000000  )
         9           Au  tau(   9) = (  -0.1767767  -0.1767767  -0.1470216  )
        10           Au  tau(  10) = (   0.1767767  -0.5303301  -0.1470216  )
        11           Au  tau(  11) = (  -0.1767767  -0.5303301  -0.1470216  )
        12           Au  tau(  12) = (   0.1767767  -0.8838835  -0.1470216  )
        13           Au  tau(  13) = (  -0.5303301  -0.5303301  -0.1470216  )
        14           Au  tau(  14) = (  -0.1767767  -0.8838835  -0.1470216  )
        15           Au  tau(  15) = (   0.5303301  -0.5303301  -0.1470216  )
        16           Au  tau(  16) = (   0.1767767  -0.1767767  -0.1470216  )
        17           Au  tau(  17) = (   0.3535534  -0.3535534  -0.3124210  )
        18           Au  tau(  18) = (   0.0000000   0.0000000  -0.3124210  )
        19           Au  tau(  19) = (   0.0000000  -0.3535534  -0.3124210  )
        20           Au  tau(  20) = (   0.3535534  -0.7071068  -0.3124210  )
        21           Au  tau(  21) = (  -0.3535534  -0.3535534  -0.3124210  )
        22           Au  tau(  22) = (  -0.0000000  -0.7071068  -0.3124210  )
        23           Au  tau(  23) = (  -0.3535534  -0.7071068  -0.3124210  )
        24           Au  tau(  24) = (   0.0000000  -1.0606602  -0.3124210  )

     number of k points=   170 (tetrahedron method)

     Number of k-points >= 100: set verbosity='high' to print them.

     Dense  grid:   362619 G-vectors     FFT dimensions: ( 120, 120,  60)

     Smooth grid:   109493 G-vectors     FFT dimensions: (  80,  80,  45)

     Estimated max dynamical RAM per process >     547.93 MB

     Estimated total dynamical RAM >      17.12 GB
     Generating pointlists ...
     new r_m :   0.1196 (alat units)  2.1549 (a.u.) for type    1
     new r_m :   0.1196 (alat units)  2.1549 (a.u.) for type    2
     new r_m :   0.1196 (alat units)  2.1549 (a.u.) for type    3

     Check: negative/imaginary core charge=   -0.000006    0.000000

     Initial potential from superposition of free atoms

     starting charge  295.99426, renormalised to  296.00000
     Number of +U iterations with fixed ns =  0
     Starting occupations:
 --- enter write_ns ---
 LDA+U parameters:
U(  1) =   3.1200   J(  1) =   0.7000   B(  1) =   0.0803
U(  2) =   3.1200   J(  2) =   0.7000   B(  2) =   0.0803
atom    1   Tr[ns(na)] (up, down, total) =   5.00000  0.00000  5.00000
   spin  1
    eigenvalues: 
  1.000  1.000  1.000  1.000  1.000
    eigenvectors:
  1.000  0.000  0.000  0.000  0.000
  0.000  1.000  0.000  0.000  0.000
  0.000  0.000  1.000  0.000  0.000
  0.000  0.000  0.000  1.000  0.000
  0.000  0.000  0.000  0.000  1.000
    occupations:
  1.000  0.000  0.000  0.000  0.000
  0.000  1.000  0.000  0.000  0.000
  0.000  0.000  1.000  0.000  0.000
  0.000  0.000  0.000  1.000  0.000
  0.000  0.000  0.000  0.000  1.000
   spin  2
    eigenvalues: 
  0.000  0.000  0.000  0.000  0.000
    eigenvectors:
  1.000  0.000  0.000  0.000  0.000
  0.000  1.000  0.000  0.000  0.000
  0.000  0.000  1.000  0.000  0.000
  0.000  0.000  0.000  1.000  0.000
  0.000  0.000  0.000  0.000  1.000
    occupations:
  0.000  0.000  0.000  0.000  0.000
  0.000  0.000  0.000  0.000  0.000
  0.000  0.000  0.000  0.000  0.000
  0.000  0.000  0.000  0.000  0.000
  0.000  0.000  0.000  0.000  0.000
atomic mag. moment =     5.000000
atom    2   Tr[ns(na)] (up, down, total) =   5.00000  0.00000  5.00000
   spin  1
    eigenvalues: 
  1.000  1.000  1.000  1.000  1.000
    eigenvectors:
  1.000  0.000  0.000  0.000  0.000
  0.000  1.000  0.000  0.000  0.000
  0.000  0.000  1.000  0.000  0.000
  0.000  0.000  0.000  1.000  0.000
  0.000  0.000  0.000  0.000  1.000
    occupations:
  1.000  0.000  0.000  0.000  0.000
  0.000  1.000  0.000  0.000  0.000
  0.000  0.000  1.000  0.000  0.000
  0.000  0.000  0.000  1.000  0.000
  0.000  0.000  0.000  0.000  1.000
   spin  2
    eigenvalues: 
  0.000  0.000  0.000  0.000  0.000
    eigenvectors:
  1.000  0.000  0.000  0.000  0.000
  0.000  1.000  0.000  0.000  0.000
  0.000  0.000  1.000  0.000  0.000
  0.000  0.000  0.000  1.000  0.000
  0.000  0.000  0.000  0.000  1.000
    occupations:
  0.000  0.000  0.000  0.000  0.000
  0.000  0.000  0.000  0.000  0.000
  0.000  0.000  0.000  0.000  0.000
  0.000  0.000  0.000  0.000  0.000
  0.000  0.000  0.000  0.000  0.000
atomic mag. moment =     5.000000
atom    3   Tr[ns(na)] (up, down, total) =   0.00000  5.00000  5.00000
   spin  1
    eigenvalues: 
  0.000  0.000  0.000  0.000  0.000
    eigenvectors:
  1.000  0.000  0.000  0.000  0.000
  0.000  1.000  0.000  0.000  0.000
  0.000  0.000  1.000  0.000  0.000
  0.000  0.000  0.000  1.000  0.000
  0.000  0.000  0.000  0.000  1.000
    occupations:
  0.000  0.000  0.000  0.000  0.000
  0.000  0.000  0.000  0.000  0.000
  0.000  0.000  0.000  0.000  0.000
  0.000  0.000  0.000  0.000  0.000
  0.000  0.000  0.000  0.000  0.000
   spin  2
    eigenvalues: 
  1.000  1.000  1.000  1.000  1.000
    eigenvectors:
  1.000  0.000  0.000  0.000  0.000
  0.000  1.000  0.000  0.000  0.000
  0.000  0.000  1.000  0.000  0.000
  0.000  0.000  0.000  1.000  0.000
  0.000  0.000  0.000  0.000  1.000
    occupations:
  1.000  0.000  0.000  0.000  0.000
  0.000  1.000  0.000  0.000  0.000
  0.000  0.000  1.000  0.000  0.000
  0.000  0.000  0.000  1.000  0.000
  0.000  0.000  0.000  0.000  1.000
atomic mag. moment =    -5.000000
atom    4   Tr[ns(na)] (up, down, total) =   5.00000  0.00000  5.00000
   spin  1
    eigenvalues: 
  1.000  1.000  1.000  1.000  1.000
    eigenvectors:
  1.000  0.000  0.000  0.000  0.000
  0.000  1.000  0.000  0.000  0.000
  0.000  0.000  1.000  0.000  0.000
  0.000  0.000  0.000  1.000  0.000
  0.000  0.000  0.000  0.000  1.000
    occupations:
  1.000  0.000  0.000  0.000  0.000
  0.000  1.000  0.000  0.000  0.000
  0.000  0.000  1.000  0.000  0.000
  0.000  0.000  0.000  1.000  0.000
  0.000  0.000  0.000  0.000  1.000
   spin  2
    eigenvalues: 
  0.000  0.000  0.000  0.000  0.000
    eigenvectors:
  1.000  0.000  0.000  0.000  0.000
  0.000  1.000  0.000  0.000  0.000
  0.000  0.000  1.000  0.000  0.000
  0.000  0.000  0.000  1.000  0.000
  0.000  0.000  0.000  0.000  1.000
    occupations:
  0.000  0.000  0.000  0.000  0.000
  0.000  0.000  0.000  0.000  0.000
  0.000  0.000  0.000  0.000  0.000
  0.000  0.000  0.000  0.000  0.000
  0.000  0.000  0.000  0.000  0.000
atomic mag. moment =     5.000000
atom    5   Tr[ns(na)] (up, down, total) =   0.00000  5.00000  5.00000
   spin  1
    eigenvalues: 
  0.000  0.000  0.000  0.000  0.000
    eigenvectors:
  1.000  0.000  0.000  0.000  0.000
  0.000  1.000  0.000  0.000  0.000
  0.000  0.000  1.000  0.000  0.000
  0.000  0.000  0.000  1.000  0.000
  0.000  0.000  0.000  0.000  1.000
    occupations:
  0.000  0.000  0.000  0.000  0.000
  0.000  0.000  0.000  0.000  0.000
  0.000  0.000  0.000  0.000  0.000
  0.000  0.000  0.000  0.000  0.000
  0.000  0.000  0.000  0.000  0.000
   spin  2
    eigenvalues: 
  1.000  1.000  1.000  1.000  1.000
    eigenvectors:
  1.000  0.000  0.000  0.000  0.000
  0.000  1.000  0.000  0.000  0.000
  0.000  0.000  1.000  0.000  0.000
  0.000  0.000  0.000  1.000  0.000
  0.000  0.000  0.000  0.000  1.000
    occupations:
  1.000  0.000  0.000  0.000  0.000
  0.000  1.000  0.000  0.000  0.000
  0.000  0.000  1.000  0.000  0.000
  0.000  0.000  0.000  1.000  0.000
  0.000  0.000  0.000  0.000  1.000
atomic mag. moment =    -5.000000
atom    6   Tr[ns(na)] (up, down, total) =   0.00000  5.00000  5.00000
   spin  1
    eigenvalues: 
  0.000  0.000  0.000  0.000  0.000
    eigenvectors:
  1.000  0.000  0.000  0.000  0.000
  0.000  1.000  0.000  0.000  0.000
  0.000  0.000  1.000  0.000  0.000
  0.000  0.000  0.000  1.000  0.000
  0.000  0.000  0.000  0.000  1.000
    occupations:
  0.000  0.000  0.000  0.000  0.000
  0.000  0.000  0.000  0.000  0.000
  0.000  0.000  0.000  0.000  0.000
  0.000  0.000  0.000  0.000  0.000
  0.000  0.000  0.000  0.000  0.000
   spin  2
    eigenvalues: 
  1.000  1.000  1.000  1.000  1.000
    eigenvectors:
  1.000  0.000  0.000  0.000  0.000
  0.000  1.000  0.000  0.000  0.000
  0.000  0.000  1.000  0.000  0.000
  0.000  0.000  0.000  1.000  0.000
  0.000  0.000  0.000  0.000  1.000
    occupations:
  1.000  0.000  0.000  0.000  0.000
  0.000  1.000  0.000  0.000  0.000
  0.000  0.000  1.000  0.000  0.000
  0.000  0.000  0.000  1.000  0.000
  0.000  0.000  0.000  0.000  1.000
atomic mag. moment =    -5.000000
atom    7   Tr[ns(na)] (up, down, total) =   0.00000  5.00000  5.00000
   spin  1
    eigenvalues: 
  0.000  0.000  0.000  0.000  0.000
    eigenvectors:
  1.000  0.000  0.000  0.000  0.000
  0.000  1.000  0.000  0.000  0.000
  0.000  0.000  1.000  0.000  0.000
  0.000  0.000  0.000  1.000  0.000
  0.000  0.000  0.000  0.000  1.000
    occupations:
  0.000  0.000  0.000  0.000  0.000
  0.000  0.000  0.000  0.000  0.000
  0.000  0.000  0.000  0.000  0.000
  0.000  0.000  0.000  0.000  0.000
  0.000  0.000  0.000  0.000  0.000
   spin  2
    eigenvalues: 
  1.000  1.000  1.000  1.000  1.000
    eigenvectors:
  1.000  0.000  0.000  0.000  0.000
  0.000  1.000  0.000  0.000  0.000
  0.000  0.000  1.000  0.000  0.000
  0.000  0.000  0.000  1.000  0.000
  0.000  0.000  0.000  0.000  1.000
    occupations:
  1.000  0.000  0.000  0.000  0.000
  0.000  1.000  0.000  0.000  0.000
  0.000  0.000  1.000  0.000  0.000
  0.000  0.000  0.000  1.000  0.000
  0.000  0.000  0.000  0.000  1.000
atomic mag. moment =    -5.000000
atom    8   Tr[ns(na)] (up, down, total) =   5.00000  0.00000  5.00000
   spin  1
    eigenvalues: 
  1.000  1.000  1.000  1.000  1.000
    eigenvectors:
  1.000  0.000  0.000  0.000  0.000
  0.000  1.000  0.000  0.000  0.000
  0.000  0.000  1.000  0.000  0.000
  0.000  0.000  0.000  1.000  0.000
  0.000  0.000  0.000  0.000  1.000
    occupations:
  1.000  0.000  0.000  0.000  0.000
  0.000  1.000  0.000  0.000  0.000
  0.000  0.000  1.000  0.000  0.000
  0.000  0.000  0.000  1.000  0.000
  0.000  0.000  0.000  0.000  1.000
   spin  2
    eigenvalues: 
  0.000  0.000  0.000  0.000  0.000
    eigenvectors:
  1.000  0.000  0.000  0.000  0.000
  0.000  1.000  0.000  0.000  0.000
  0.000  0.000  1.000  0.000  0.000
  0.000  0.000  0.000  1.000  0.000
  0.000  0.000  0.000  0.000  1.000
    occupations:
  0.000  0.000  0.000  0.000  0.000
  0.000  0.000  0.000  0.000  0.000
  0.000  0.000  0.000  0.000  0.000
  0.000  0.000  0.000  0.000  0.000
  0.000  0.000  0.000  0.000  0.000
atomic mag. moment =     5.000000
N of occupied +U levels =   40.000000
 --- exit write_ns ---
 Atomic wfc used for LDA+U Projector are NOT orthogonalized
     Starting wfcs are  224 randomized atomic wfcs
     Checking if some PAW data can be deallocated... 

     total cpu time spent up to now is      107.7 secs

     Self-consistent Calculation

     iteration #  1     ecut=    45.00 Ry     beta= 0.10
     Davidson diagonalization with overlap
     ethr =  1.00E-02,  avg # of iterations =  4.7
 --- enter write_ns ---
 LDA+U parameters:
U(  1) =   3.1200   J(  1) =   0.7000   B(  1) =   0.0803
U(  2) =   3.1200   J(  2) =   0.7000   B(  2) =   0.0803
atom    1   Tr[ns(na)] (up, down, total) =   5.01486  0.27631  5.29117
   spin  1
    eigenvalues: 
  1.003  1.003  1.003  1.003  1.004
    eigenvectors:
  0.001  0.002  0.000  0.997  0.000
  0.000  0.499  0.500  0.001  0.000
  0.000  0.499  0.500  0.001  0.000
  0.000  0.000  0.000  0.000  1.000
  0.999  0.000  0.000  0.001  0.000
    occupations:
  1.003 -0.000 -0.000 -0.000  0.000
 -0.000  1.003 -0.000 -0.000  0.000
 -0.000 -0.000  1.003  0.000  0.000
 -0.000 -0.000  0.000  1.004 -0.000
  0.000  0.000  0.000 -0.000  1.003
   spin  2
    eigenvalues: 
  0.041  0.052  0.054  0.056  0.073
    eigenvectors:
  0.000  0.983  0.000  0.015  0.002
  0.000  0.008  0.500  0.490  0.002
  0.000  0.008  0.500  0.490  0.002
  1.000  0.000  0.000  0.000  0.000
  0.000  0.001  0.000  0.005  0.994
    occupations:
  0.052  0.000  0.000 -0.000  0.001
  0.000  0.055  0.001 -0.000  0.001
  0.000  0.001  0.055  0.000  0.001
 -0.000 -0.000  0.000  0.041 -0.000
  0.001  0.001  0.001 -0.000  0.073
atomic mag. moment =     4.738558
atom    2   Tr[ns(na)] (up, down, total) =   5.01486  0.27631  5.29117
   spin  1
    eigenvalues: 
  1.003  1.003  1.003  1.003  1.004
    eigenvectors:
  0.001  0.002  0.000  0.997  0.000
  0.000  0.499  0.500  0.001  0.000
  0.000  0.499  0.500  0.001  0.000
  0.000  0.000  0.000  0.000  1.000
  0.999  0.000  0.000  0.001  0.000
    occupations:
  1.003 -0.000 -0.000 -0.000  0.000
 -0.000  1.003 -0.000 -0.000  0.000
 -0.000 -0.000  1.003  0.000  0.000
 -0.000 -0.000  0.000  1.004 -0.000
  0.000  0.000  0.000 -0.000  1.003
   spin  2
    eigenvalues: 
  0.041  0.052  0.054  0.056  0.073
    eigenvectors:
  0.000  0.983  0.000  0.015  0.002
  0.000  0.008  0.500  0.490  0.002
  0.000  0.008  0.500  0.490  0.002
  1.000  0.000  0.000  0.000  0.000
  0.000  0.001  0.000  0.005  0.994
    occupations:
  0.052  0.000  0.000 -0.000  0.001
  0.000  0.055  0.001 -0.000  0.001
  0.000  0.001  0.055  0.000  0.001
 -0.000 -0.000  0.000  0.041 -0.000
  0.001  0.001  0.001 -0.000  0.073
atomic mag. moment =     4.738558
atom    3   Tr[ns(na)] (up, down, total) =   0.27433  5.01490  5.28923
   spin  1
    eigenvalues: 
  0.041  0.051  0.054  0.056  0.072
    eigenvectors:
  0.000  0.998  0.001  0.000  0.002
  0.000  0.000  0.500  0.500  0.000
  0.000  0.000  0.500  0.500  0.000
  1.000  0.000  0.000  0.000  0.000
  0.000  0.002  0.000  0.000  0.998
    occupations:
  0.051  0.000  0.000 -0.000 -0.001
  0.000  0.055 -0.001 -0.000  0.000
  0.000 -0.001  0.055  0.000  0.000
 -0.000 -0.000  0.000  0.041 -0.000
 -0.001  0.000  0.000 -0.000  0.072
   spin  2
    eigenvalues: 
  1.003  1.003  1.003  1.003  1.004
    eigenvectors:
  0.000  0.000  0.000  1.000  0.000
  0.000  0.500  0.500  0.000  0.000
  0.000  0.500  0.500  0.000  0.000
  0.000  0.000  0.000  0.000  1.000
  1.000  0.000  0.000  0.000  0.000
    occupations:
  1.003 -0.000 -0.000 -0.000 -0.000
 -0.000  1.003  0.000 -0.000 -0.000
 -0.000  0.000  1.003  0.000 -0.000
 -0.000 -0.000  0.000  1.004 -0.000
 -0.000 -0.000 -0.000 -0.000  1.003
atomic mag. moment =    -4.740567
atom    4   Tr[ns(na)] (up, down, total) =   5.01475  0.27402  5.28877
   spin  1
    eigenvalues: 
  1.003  1.003  1.003  1.003  1.004
    eigenvectors:
  0.000  0.000  0.000  1.000  0.000
  0.000  0.500  0.500  0.000  0.000
  0.000  0.500  0.500  0.000  0.000
  0.000  0.000  0.000  0.000  1.000
  1.000  0.000  0.000  0.000  0.000
    occupations:
  1.003  0.000  0.000 -0.000 -0.000
  0.000  1.003  0.000 -0.000 -0.000
  0.000  0.000  1.003  0.000 -0.000
 -0.000 -0.000  0.000  1.004 -0.000
 -0.000 -0.000 -0.000 -0.000  1.003
   spin  2
    eigenvalues: 
  0.041  0.051  0.054  0.056  0.072
    eigenvectors:
  0.000  0.998  0.001  0.000  0.001
  0.000  0.000  0.500  0.500  0.000
  0.000  0.000  0.500  0.500  0.000
  1.000  0.000  0.000  0.000  0.000
  0.000  0.001  0.000  0.000  0.999
    occupations:
  0.051  0.000  0.000 -0.000 -0.001
  0.000  0.055 -0.001 -0.000  0.000
  0.000 -0.001  0.055  0.000  0.000
 -0.000 -0.000  0.000  0.041 -0.000
 -0.001  0.000  0.000 -0.000  0.072
atomic mag. moment =     4.740732
atom    5   Tr[ns(na)] (up, down, total) =   0.27669  5.01495  5.29163
   spin  1
    eigenvalues: 
  0.041  0.052  0.054  0.056  0.073
    eigenvectors:
  0.000  0.983  0.000  0.015  0.002
  0.000  0.008  0.500  0.490  0.002
  0.000  0.008  0.500  0.490  0.002
  1.000  0.000  0.000  0.000  0.000
  0.000  0.001  0.000  0.005  0.994
    occupations:
  0.052  0.000  0.000 -0.000  0.001
  0.000  0.055  0.001 -0.000  0.001
  0.000  0.001  0.055  0.000  0.001
 -0.000 -0.000  0.000  0.041 -0.000
  0.001  0.001  0.001 -0.000  0.073
   spin  2
    eigenvalues: 
  1.003  1.003  1.003  1.003  1.004
    eigenvectors:
  0.000  0.000  0.000  0.999  0.000
  0.001  0.499  0.500  0.000  0.000
  0.001  0.499  0.500  0.000  0.000
  0.000  0.000  0.000  0.000  1.000
  0.998  0.002  0.000  0.000  0.000
    occupations:
  1.003  0.000  0.000 -0.000  0.000
  0.000  1.003 -0.000  0.000  0.000
  0.000 -0.000  1.003 -0.000  0.000
 -0.000  0.000 -0.000  1.004 -0.000
  0.000  0.000  0.000 -0.000  1.003
atomic mag. moment =    -4.738259
atom    6   Tr[ns(na)] (up, down, total) =   0.27669  5.01495  5.29163
   spin  1
    eigenvalues: 
  0.041  0.052  0.054  0.056  0.073
    eigenvectors:
  0.000  0.983  0.000  0.015  0.002
  0.000  0.008  0.500  0.490  0.002
  0.000  0.008  0.500  0.490  0.002
  1.000  0.000  0.000  0.000  0.000
  0.000  0.001  0.000  0.005  0.994
    occupations:
  0.052  0.000  0.000 -0.000  0.001
  0.000  0.055  0.001 -0.000  0.001
  0.000  0.001  0.055  0.000  0.001
 -0.000 -0.000  0.000  0.041 -0.000
  0.001  0.001  0.001 -0.000  0.073
   spin  2
    eigenvalues: 
  1.003  1.003  1.003  1.003  1.004
    eigenvectors:
  0.000  0.000  0.000  0.999  0.000
  0.001  0.499  0.500  0.000  0.000
  0.001  0.499  0.500  0.000  0.000
  0.000  0.000  0.000  0.000  1.000
  0.998  0.002  0.000  0.000  0.000
    occupations:
  1.003  0.000  0.000 -0.000  0.000
  0.000  1.003 -0.000  0.000  0.000
  0.000 -0.000  1.003 -0.000  0.000
 -0.000  0.000 -0.000  1.004 -0.000
  0.000  0.000  0.000 -0.000  1.003
atomic mag. moment =    -4.738259
atom    7   Tr[ns(na)] (up, down, total) =   0.27433  5.01490  5.28923
   spin  1
    eigenvalues: 
  0.041  0.051  0.054  0.056  0.072
    eigenvectors:
  0.000  0.998  0.001  0.000  0.002
  0.000  0.000  0.500  0.500  0.000
  0.000  0.000  0.500  0.500  0.000
  1.000  0.000  0.000  0.000  0.000
  0.000  0.002  0.000  0.000  0.998
    occupations:
  0.051  0.000  0.000 -0.000 -0.001
  0.000  0.055 -0.001 -0.000  0.000
  0.000 -0.001  0.055  0.000  0.000
 -0.000 -0.000  0.000  0.041 -0.000
 -0.001  0.000  0.000 -0.000  0.072
   spin  2
    eigenvalues: 
  1.003  1.003  1.003  1.003  1.004
    eigenvectors:
  0.000  0.000  0.000  1.000  0.000
  0.000  0.500  0.500  0.000  0.000
  0.000  0.500  0.500  0.000  0.000
  0.000  0.000  0.000  0.000  1.000
  1.000  0.000  0.000  0.000  0.000
    occupations:
  1.003 -0.000 -0.000 -0.000 -0.000
 -0.000  1.003  0.000 -0.000 -0.000
 -0.000  0.000  1.003  0.000 -0.000
 -0.000 -0.000  0.000  1.004 -0.000
 -0.000 -0.000 -0.000 -0.000  1.003
atomic mag. moment =    -4.740567
atom    8   Tr[ns(na)] (up, down, total) =   5.01475  0.27402  5.28877
   spin  1
    eigenvalues: 
  1.003  1.003  1.003  1.003  1.004
    eigenvectors:
  0.000  0.000  0.000  1.000  0.000
  0.000  0.500  0.500  0.000  0.000
  0.000  0.500  0.500  0.000  0.000
  0.000  0.000  0.000  0.000  1.000
  1.000  0.000  0.000  0.000  0.000
    occupations:
  1.003  0.000  0.000 -0.000 -0.000
  0.000  1.003  0.000 -0.000 -0.000
  0.000  0.000  1.003  0.000 -0.000
 -0.000 -0.000  0.000  1.004 -0.000
 -0.000 -0.000 -0.000 -0.000  1.003
   spin  2
    eigenvalues: 
  0.041  0.051  0.054  0.056  0.072
    eigenvectors:
  0.000  0.998  0.001  0.000  0.001
  0.000  0.000  0.500  0.500  0.000
  0.000  0.000  0.500  0.500  0.000
  1.000  0.000  0.000  0.000  0.000
  0.000  0.001  0.000  0.000  0.999
    occupations:
  0.051  0.000  0.000 -0.000 -0.001
  0.000  0.055 -0.001 -0.000  0.000
  0.000 -0.001  0.055  0.000  0.000
 -0.000 -0.000  0.000  0.041 -0.000
 -0.001  0.000  0.000 -0.000  0.072
atomic mag. moment =     4.740732
N of occupied +U levels =   42.321602
 --- exit write_ns ---

     total cpu time spent up to now is      432.6 secs

     total energy              =  -14679.21188325 Ry
     Harris-Foulkes estimate   =  -14669.81191075 Ry
     estimated scf accuracy    <      21.27069472 Ry

     total magnetization       =    -0.00 Bohr mag/cell
     absolute magnetization    =    43.54 Bohr mag/cell

     iteration #  2     ecut=    45.00 Ry     beta= 0.10
     Davidson diagonalization with overlap
     ethr =  7.19E-03,  avg # of iterations =  1.0

     total cpu time spent up to now is      628.7 secs

     total energy              =  -14692.16763761 Ry
     Harris-Foulkes estimate   =  -14679.31687224 Ry
     estimated scf accuracy    <      17.16225518 Ry

     total magnetization       =     0.00 Bohr mag/cell
     absolute magnetization    =    43.11 Bohr mag/cell

     iteration #  3     ecut=    45.00 Ry     beta= 0.10
     Davidson diagonalization with overlap
     ethr =  5.80E-03,  avg # of iterations =  2.1

     total cpu time spent up to now is      857.9 secs

     total energy              =  -14693.83454968 Ry
     Harris-Foulkes estimate   =  -14693.76924738 Ry
     estimated scf accuracy    <       4.06466856 Ry

     total magnetization       =    -0.00 Bohr mag/cell
     absolute magnetization    =    39.30 Bohr mag/cell

     iteration #  4     ecut=    45.00 Ry     beta= 0.10
     Davidson diagonalization with overlap
     ethr =  1.37E-03,  avg # of iterations =  5.5

     total cpu time spent up to now is     1190.8 secs

     total energy              =  -14693.47447019 Ry
     Harris-Foulkes estimate   =  -14693.87601272 Ry
     estimated scf accuracy    <       4.35504503 Ry

     total magnetization       =    -0.01 Bohr mag/cell
     absolute magnetization    =    39.08 Bohr mag/cell

     iteration #  5     ecut=    45.00 Ry     beta= 0.10
     Davidson diagonalization with overlap
     ethr =  1.37E-03,  avg # of iterations =  4.4

     total cpu time spent up to now is     1500.7 secs

     total energy              =  -14693.86464609 Ry
     Harris-Foulkes estimate   =  -14693.84163870 Ry
     estimated scf accuracy    <       0.27900758 Ry

     total magnetization       =    -0.00 Bohr mag/cell
     absolute magnetization    =    38.24 Bohr mag/cell

     iteration #  6     ecut=    45.00 Ry     beta= 0.10
     Davidson diagonalization with overlap
     ethr =  9.43E-05,  avg # of iterations =  3.8

     total cpu time spent up to now is     1879.6 secs

     total energy              =  -14693.98905764 Ry
     Harris-Foulkes estimate   =  -14693.94997488 Ry
     estimated scf accuracy    <       0.27165671 Ry

     total magnetization       =    -0.00 Bohr mag/cell
     absolute magnetization    =    37.15 Bohr mag/cell

     iteration #  7     ecut=    45.00 Ry     beta= 0.10
     Davidson diagonalization with overlap
     ethr =  9.18E-05,  avg # of iterations =  2.0

     total cpu time spent up to now is     2105.5 secs

     total energy              =  -14693.88575687 Ry
     Harris-Foulkes estimate   =  -14694.02239455 Ry
     estimated scf accuracy    <       0.97515734 Ry

     total magnetization       =    -0.01 Bohr mag/cell
     absolute magnetization    =    36.96 Bohr mag/cell

     iteration #  8     ecut=    45.00 Ry     beta= 0.10
     Davidson diagonalization with overlap
     ethr =  9.18E-05,  avg # of iterations =  2.1

     total cpu time spent up to now is     2355.8 secs

     total energy              =  -14693.93850610 Ry
     Harris-Foulkes estimate   =  -14693.94791627 Ry
     estimated scf accuracy    <       0.08778309 Ry

     total magnetization       =    -0.00 Bohr mag/cell
     absolute magnetization    =    37.04 Bohr mag/cell

     iteration #  9     ecut=    45.00 Ry     beta= 0.10
     Davidson diagonalization with overlap
     ethr =  2.97E-05,  avg # of iterations =  1.7

     total cpu time spent up to now is     2566.8 secs

     total energy              =  -14693.94397965 Ry
     Harris-Foulkes estimate   =  -14693.94209593 Ry
     estimated scf accuracy    <       0.02355229 Ry

     total magnetization       =    -0.00 Bohr mag/cell
     absolute magnetization    =    37.06 Bohr mag/cell

     iteration # 10     ecut=    45.00 Ry     beta= 0.10
     Davidson diagonalization with overlap
     ethr =  7.96E-06,  avg # of iterations =  3.5

     total cpu time spent up to now is     2830.0 secs

     total energy              =  -14693.94470283 Ry
     Harris-Foulkes estimate   =  -14693.94521582 Ry
     estimated scf accuracy    <       0.01059446 Ry

     total magnetization       =    -0.00 Bohr mag/cell
     absolute magnetization    =    36.97 Bohr mag/cell

     iteration # 11     ecut=    45.00 Ry     beta= 0.10
     Davidson diagonalization with overlap
     ethr =  3.58E-06,  avg # of iterations =  3.7

     total cpu time spent up to now is     3092.3 secs

     total energy              =  -14693.94510675 Ry
     Harris-Foulkes estimate   =  -14693.94529462 Ry
     estimated scf accuracy    <       0.00308653 Ry

     total magnetization       =    -0.00 Bohr mag/cell
     absolute magnetization    =    36.96 Bohr mag/cell

     iteration # 12     ecut=    45.00 Ry     beta= 0.10
     Davidson diagonalization with overlap
     ethr =  1.04E-06,  avg # of iterations =  3.7

     total cpu time spent up to now is     3462.8 secs

     total energy              =  -14693.94627405 Ry
     Harris-Foulkes estimate   =  -14693.94646164 Ry
     estimated scf accuracy    <       0.00123218 Ry

     total magnetization       =    -0.00 Bohr mag/cell
     absolute magnetization    =    36.88 Bohr mag/cell

     iteration # 13     ecut=    45.00 Ry     beta= 0.10
     Davidson diagonalization with overlap
     ethr =  4.16E-07,  avg # of iterations =  1.0

     total cpu time spent up to now is     3659.4 secs

     total energy              =  -14693.94626019 Ry
     Harris-Foulkes estimate   =  -14693.94632359 Ry
     estimated scf accuracy    <       0.00031032 Ry

     total magnetization       =    -0.00 Bohr mag/cell
     absolute magnetization    =    36.87 Bohr mag/cell

     iteration # 14     ecut=    45.00 Ry     beta= 0.10
     Davidson diagonalization with overlap
     ethr =  1.05E-07,  avg # of iterations =  2.2

     total cpu time spent up to now is     3911.8 secs

     total energy              =  -14693.94632238 Ry
     Harris-Foulkes estimate   =  -14693.94631766 Ry
     estimated scf accuracy    <       0.00003622 Ry

     total magnetization       =    -0.00 Bohr mag/cell
     absolute magnetization    =    36.88 Bohr mag/cell

     iteration # 15     ecut=    45.00 Ry     beta= 0.10
     Davidson diagonalization with overlap
     ethr =  1.22E-08,  avg # of iterations =  3.0

     total cpu time spent up to now is     4238.5 secs

     total energy              =  -14693.94633297 Ry
     Harris-Foulkes estimate   =  -14693.94634020 Ry
     estimated scf accuracy    <       0.00004901 Ry

     total magnetization       =    -0.00 Bohr mag/cell
     absolute magnetization    =    36.88 Bohr mag/cell

     iteration # 16     ecut=    45.00 Ry     beta= 0.10
     Davidson diagonalization with overlap
     ethr =  1.22E-08,  avg # of iterations =  2.4

     total cpu time spent up to now is     4497.2 secs

     total energy              =  -14693.94634688 Ry
     Harris-Foulkes estimate   =  -14693.94634088 Ry
     estimated scf accuracy    <       0.00000775 Ry

     total magnetization       =    -0.00 Bohr mag/cell
     absolute magnetization    =    36.87 Bohr mag/cell

     iteration # 17     ecut=    45.00 Ry     beta= 0.10
     Davidson diagonalization with overlap
     ethr =  2.62E-09,  avg # of iterations =  2.1

     total cpu time spent up to now is     4727.9 secs

     total energy              =  -14693.94635435 Ry
     Harris-Foulkes estimate   =  -14693.94634820 Ry
     estimated scf accuracy    <       0.00000349 Ry

     total magnetization       =    -0.00 Bohr mag/cell
     absolute magnetization    =    36.87 Bohr mag/cell

     iteration # 18     ecut=    45.00 Ry     beta= 0.10
     Davidson diagonalization with overlap
     ethr =  1.18E-09,  avg # of iterations =  2.8
 
     Magnetic moment per site:
     atom:    1    charge:   13.5389    magn:    4.2373    constr:    0.0000
     atom:    2    charge:   13.5389    magn:    4.2373    constr:    0.0000
     atom:    3    charge:   13.5388    magn:   -4.2297    constr:    0.0000
     atom:    4    charge:   13.5388    magn:    4.2297    constr:    0.0000
     atom:    5    charge:   13.5389    magn:   -4.2373    constr:    0.0000
     atom:    6    charge:   13.5389    magn:   -4.2373    constr:    0.0000
     atom:    7    charge:   13.5388    magn:   -4.2297    constr:    0.0000
     atom:    8    charge:   13.5388    magn:    4.2297    constr:    0.0000
     atom:    9    charge:    9.0910    magn:   -0.0070    constr:    0.0000
     atom:   10    charge:    9.0910    magn:   -0.0070    constr:    0.0000
     atom:   11    charge:    9.0927    magn:   -0.0526    constr:    0.0000
     atom:   12    charge:    9.0931    magn:    0.0053    constr:    0.0000
     atom:   13    charge:    9.0910    magn:    0.0070    constr:    0.0000
     atom:   14    charge:    9.0910    magn:    0.0070    constr:    0.0000
     atom:   15    charge:    9.0927    magn:    0.0526    constr:    0.0000
     atom:   16    charge:    9.0931    magn:   -0.0053    constr:    0.0000
     atom:   17    charge:    9.0910    magn:    0.0070    constr:    0.0000
     atom:   18    charge:    9.0910    magn:    0.0070    constr:    0.0000
     atom:   19    charge:    9.0927    magn:   -0.0526    constr:    0.0000
     atom:   20    charge:    9.0931    magn:    0.0053    constr:    0.0000
     atom:   21    charge:    9.0910    magn:   -0.0070    constr:    0.0000
     atom:   22    charge:    9.0910    magn:   -0.0070    constr:    0.0000
     atom:   23    charge:    9.0931    magn:   -0.0053    constr:    0.0000
     atom:   24    charge:    9.0927    magn:    0.0526    constr:    0.0000

     total cpu time spent up to now is     4970.5 secs

     End of self-consistent calculation
 --- enter write_ns ---
 LDA+U parameters:
U(  1) =   3.1200   J(  1) =   0.7000   B(  1) =   0.0803
U(  2) =   3.1200   J(  2) =   0.7000   B(  2) =   0.0803
atom    1   Tr[ns(na)] (up, down, total) =   4.96916  0.73756  5.70672
   spin  1
    eigenvalues: 
  0.985  0.993  0.993  0.997  1.002
    eigenvectors:
  0.000  0.046  0.000  0.953  0.000
  0.001  0.476  0.500  0.023  0.000
  0.001  0.476  0.500  0.023  0.000
  0.000  0.000  0.000  0.000  1.000
  0.997  0.002  0.000  0.001  0.000
    occupations:
  0.997 -0.001 -0.001 -0.000  0.000
 -0.001  0.993 -0.000  0.000 -0.000
 -0.001 -0.000  0.993 -0.000 -0.000
 -0.000  0.000 -0.000  1.002 -0.000
  0.000 -0.000 -0.000 -0.000  0.985
   spin  2
    eigenvalues: 
  0.070  0.125  0.142  0.155  0.245
    eigenvectors:
  0.000  0.993  0.000  0.005  0.002
  0.000  0.002  0.500  0.495  0.003
  0.000  0.002  0.500  0.495  0.003
  1.000  0.000  0.000  0.000  0.000
  0.000  0.003  0.000  0.005  0.992
    occupations:
  0.125 -0.001 -0.001 -0.000  0.006
 -0.001  0.149  0.007 -0.001  0.005
 -0.001  0.007  0.149  0.001  0.005
 -0.000 -0.001  0.001  0.070 -0.000
  0.006  0.005  0.005 -0.000  0.245
atomic mag. moment =     4.231601
atom    2   Tr[ns(na)] (up, down, total) =   4.96916  0.73756  5.70672
   spin  1
    eigenvalues: 
  0.985  0.993  0.993  0.997  1.002
    eigenvectors:
  0.000  0.046  0.000  0.953  0.000
  0.001  0.476  0.500  0.023  0.000
  0.001  0.476  0.500  0.023  0.000
  0.000  0.000  0.000  0.000  1.000
  0.997  0.002  0.000  0.001  0.000
    occupations:
  0.997 -0.001 -0.001 -0.000  0.000
 -0.001  0.993 -0.000  0.000 -0.000
 -0.001 -0.000  0.993 -0.000 -0.000
 -0.000  0.000 -0.000  1.002 -0.000
  0.000 -0.000 -0.000 -0.000  0.985
   spin  2
    eigenvalues: 
  0.070  0.125  0.142  0.155  0.245
    eigenvectors:
  0.000  0.993  0.000  0.005  0.002
  0.000  0.002  0.500  0.495  0.003
  0.000  0.002  0.500  0.495  0.003
  1.000  0.000  0.000  0.000  0.000
  0.000  0.003  0.000  0.005  0.992
    occupations:
  0.125 -0.001 -0.001 -0.000  0.006
 -0.001  0.149  0.007 -0.001  0.005
 -0.001  0.007  0.149  0.001  0.005
 -0.000 -0.001  0.001  0.070 -0.000
  0.006  0.005  0.005 -0.000  0.245
atomic mag. moment =     4.231601
atom    3   Tr[ns(na)] (up, down, total) =   0.74005  4.96832  5.70837
   spin  1
    eigenvalues: 
  0.069  0.126  0.144  0.151  0.250
    eigenvectors:
  0.000  0.956  0.000  0.035  0.008
  0.000  0.020  0.500  0.473  0.008
  0.000  0.020  0.500  0.473  0.008
  1.000  0.000  0.000  0.000  0.000
  0.000  0.004  0.000  0.019  0.976
    occupations:
  0.128  0.004  0.004  0.000 -0.011
  0.004  0.148  0.004  0.001 -0.008
  0.004  0.004  0.148 -0.001 -0.008
  0.000  0.001 -0.001  0.069 -0.000
 -0.011 -0.008 -0.008 -0.000  0.248
   spin  2
    eigenvalues: 
  0.984  0.992  0.994  0.997  1.001
    eigenvectors:
  0.000  0.000  0.000  0.999  0.000
  0.001  0.500  0.499  0.000  0.000
  0.001  0.500  0.499  0.000  0.000
  0.000  0.000  0.000  0.000  1.000
  0.998  0.000  0.001  0.000  0.000
    occupations:
  0.997  0.000  0.000 -0.000  0.000
  0.000  0.993  0.001 -0.000  0.000
  0.000  0.001  0.993  0.000  0.000
 -0.000 -0.000  0.000  1.001 -0.000
  0.000  0.000  0.000 -0.000  0.984
atomic mag. moment =    -4.228269
atom    4   Tr[ns(na)] (up, down, total) =   4.96832  0.74005  5.70837
   spin  1
    eigenvalues: 
  0.984  0.992  0.994  0.997  1.001
    eigenvectors:
  0.000  0.000  0.000  0.999  0.000
  0.001  0.500  0.499  0.000  0.000
  0.001  0.500  0.499  0.000  0.000
  0.000  0.000  0.000  0.000  1.000
  0.998  0.000  0.001  0.000  0.000
    occupations:
  0.997  0.000  0.000 -0.000  0.000
  0.000  0.993  0.001 -0.000  0.000
  0.000  0.001  0.993  0.000  0.000
 -0.000 -0.000  0.000  1.001 -0.000
  0.000  0.000  0.000 -0.000  0.984
   spin  2
    eigenvalues: 
  0.069  0.126  0.144  0.151  0.250
    eigenvectors:
  0.000  0.956  0.000  0.035  0.008
  0.000  0.020  0.500  0.473  0.008
  0.000  0.020  0.500  0.473  0.008
  1.000  0.000  0.000  0.000  0.000
  0.000  0.004  0.000  0.019  0.976
    occupations:
  0.128  0.004  0.004  0.000 -0.011
  0.004  0.148  0.004  0.001 -0.008
  0.004  0.004  0.148 -0.001 -0.008
  0.000  0.001 -0.001  0.069 -0.000
 -0.011 -0.008 -0.008 -0.000  0.248
atomic mag. moment =     4.228265
atom    5   Tr[ns(na)] (up, down, total) =   0.73756  4.96916  5.70672
   spin  1
    eigenvalues: 
  0.070  0.125  0.142  0.155  0.245
    eigenvectors:
  0.000  0.993  0.000  0.005  0.002
  0.000  0.002  0.500  0.495  0.003
  0.000  0.002  0.500  0.495  0.003
  1.000  0.000  0.000  0.000  0.000
  0.000  0.003  0.000  0.005  0.992
    occupations:
  0.125 -0.001 -0.001 -0.000  0.006
 -0.001  0.149  0.007 -0.001  0.005
 -0.001  0.007  0.149  0.001  0.005
 -0.000 -0.001  0.001  0.070 -0.000
  0.006  0.005  0.005 -0.000  0.245
   spin  2
    eigenvalues: 
  0.985  0.993  0.993  0.997  1.002
    eigenvectors:
  0.000  0.046  0.000  0.953  0.000
  0.001  0.476  0.500  0.023  0.000
  0.001  0.476  0.500  0.023  0.000
  0.000  0.000  0.000  0.000  1.000
  0.997  0.002  0.000  0.001  0.000
    occupations:
  0.997 -0.001 -0.001 -0.000  0.000
 -0.001  0.993 -0.000  0.000 -0.000
 -0.001 -0.000  0.993 -0.000 -0.000
 -0.000  0.000 -0.000  1.002 -0.000
  0.000 -0.000 -0.000 -0.000  0.985
atomic mag. moment =    -4.231607
atom    6   Tr[ns(na)] (up, down, total) =   0.73756  4.96916  5.70672
   spin  1
    eigenvalues: 
  0.070  0.125  0.142  0.155  0.245
    eigenvectors:
  0.000  0.993  0.000  0.005  0.002
  0.000  0.002  0.500  0.495  0.003
  0.000  0.002  0.500  0.495  0.003
  1.000  0.000  0.000  0.000  0.000
  0.000  0.003  0.000  0.005  0.992
    occupations:
  0.125 -0.001 -0.001 -0.000  0.006
 -0.001  0.149  0.007 -0.001  0.005
 -0.001  0.007  0.149  0.001  0.005
 -0.000 -0.001  0.001  0.070 -0.000
  0.006  0.005  0.005 -0.000  0.245
   spin  2
    eigenvalues: 
  0.985  0.993  0.993  0.997  1.002
    eigenvectors:
  0.000  0.046  0.000  0.953  0.000
  0.001  0.476  0.500  0.023  0.000
  0.001  0.476  0.500  0.023  0.000
  0.000  0.000  0.000  0.000  1.000
  0.997  0.002  0.000  0.001  0.000
    occupations:
  0.997 -0.001 -0.001 -0.000  0.000
 -0.001  0.993 -0.000  0.000 -0.000
 -0.001 -0.000  0.993 -0.000 -0.000
 -0.000  0.000 -0.000  1.002 -0.000
  0.000 -0.000 -0.000 -0.000  0.985
atomic mag. moment =    -4.231607
atom    7   Tr[ns(na)] (up, down, total) =   0.74005  4.96832  5.70837
   spin  1
    eigenvalues: 
  0.069  0.126  0.144  0.151  0.250
    eigenvectors:
  0.000  0.956  0.000  0.035  0.008
  0.000  0.020  0.500  0.473  0.008
  0.000  0.020  0.500  0.473  0.008
  1.000  0.000  0.000  0.000  0.000
  0.000  0.004  0.000  0.019  0.976
    occupations:
  0.128  0.004  0.004  0.000 -0.011
  0.004  0.148  0.004  0.001 -0.008
  0.004  0.004  0.148 -0.001 -0.008
  0.000  0.001 -0.001  0.069 -0.000
 -0.011 -0.008 -0.008 -0.000  0.248
   spin  2
    eigenvalues: 
  0.984  0.992  0.994  0.997  1.001
    eigenvectors:
  0.000  0.000  0.000  0.999  0.000
  0.001  0.500  0.499  0.000  0.000
  0.001  0.500  0.499  0.000  0.000
  0.000  0.000  0.000  0.000  1.000
  0.998  0.000  0.001  0.000  0.000
    occupations:
  0.997  0.000  0.000 -0.000  0.000
  0.000  0.993  0.001 -0.000  0.000
  0.000  0.001  0.993  0.000  0.000
 -0.000 -0.000  0.000  1.001 -0.000
  0.000  0.000  0.000 -0.000  0.984
atomic mag. moment =    -4.228269
atom    8   Tr[ns(na)] (up, down, total) =   4.96832  0.74005  5.70837
   spin  1
    eigenvalues: 
  0.984  0.992  0.994  0.997  1.001
    eigenvectors:
  0.000  0.000  0.000  0.999  0.000
  0.001  0.500  0.499  0.000  0.000
  0.001  0.500  0.499  0.000  0.000
  0.000  0.000  0.000  0.000  1.000
  0.998  0.000  0.001  0.000  0.000
    occupations:
  0.997  0.000  0.000 -0.000  0.000
  0.000  0.993  0.001 -0.000  0.000
  0.000  0.001  0.993  0.000  0.000
 -0.000 -0.000  0.000  1.001 -0.000
  0.000  0.000  0.000 -0.000  0.984
   spin  2
    eigenvalues: 
  0.069  0.126  0.144  0.151  0.250
    eigenvectors:
  0.000  0.956  0.000  0.035  0.008
  0.000  0.020  0.500  0.473  0.008
  0.000  0.020  0.500  0.473  0.008
  1.000  0.000  0.000  0.000  0.000
  0.000  0.004  0.000  0.019  0.976
    occupations:
  0.128  0.004  0.004  0.000 -0.011
  0.004  0.148  0.004  0.001 -0.008
  0.004  0.004  0.148 -0.001 -0.008
  0.000  0.001 -0.001  0.069 -0.000
 -0.011 -0.008 -0.008 -0.000  0.248
atomic mag. moment =     4.228265
N of occupied +U levels =   45.660340
 --- exit write_ns ---

     Number of k-points >= 100: set verbosity='high' to print the bands.

     the Fermi energy is    15.6018 ev

!    total energy              =  -14693.94637509 Ry
     Harris-Foulkes estimate   =  -14693.94635466 Ry
     estimated scf accuracy    <       0.00000087 Ry

     total all-electron energy =   -626921.542097 Ry

     The total energy is the sum of the following terms:

     one-electron contribution =    -698.41376954 Ry
     hartree contribution      =     651.56869322 Ry
     xc contribution           =    -738.11801775 Ry
     ewald contribution        =   -2207.56121140 Ry
     Hubbard energy            =       0.45470304 Ry
     one-center paw contrib.   =  -11701.87677265 Ry

     total magnetization       =    -0.00 Bohr mag/cell
     absolute magnetization    =    36.87 Bohr mag/cell

     convergence has been achieved in  18 iterations

     Writing output data file mnau2.save/
 
     init_run     :    102.70s CPU    104.70s WALL (       1 calls)
     electrons    :   4749.17s CPU   4877.83s WALL (       1 calls)

     Called by init_run:
     wfcinit      :    101.34s CPU    103.24s WALL (       1 calls)
     potinit      :      0.57s CPU      0.63s WALL (       1 calls)
     hinit0       :      0.41s CPU      0.44s WALL (       1 calls)

     Called by electrons:
     c_bands      :   4174.58s CPU   4276.35s WALL (      18 calls)
     sum_band     :    564.34s CPU    576.08s WALL (      18 calls)
     v_of_rho     :      0.94s CPU      0.94s WALL (      19 calls)
     newd         :      3.38s CPU      3.40s WALL (      19 calls)
     PAW_pot      :      6.04s CPU      6.10s WALL (      19 calls)
     mix_rho      :      0.22s CPU      0.23s WALL (      18 calls)

     Called by c_bands:
     init_us_2    :     12.73s CPU     12.81s WALL (   12920 calls)
     cegterg      :   4064.94s CPU   4165.63s WALL (    6120 calls)

     Called by sum_band:
     sum_band:bec :      3.93s CPU      3.95s WALL (    6120 calls)
     addusdens    :      4.85s CPU      4.88s WALL (      18 calls)

     Called by *egterg:
     h_psi        :   2363.09s CPU   2410.30s WALL (   24112 calls)
     s_psi        :    125.79s CPU    125.96s WALL (   24452 calls)
     g_psi        :      4.80s CPU      4.83s WALL (   17652 calls)
     cdiaghg      :   1222.85s CPU   1275.13s WALL (   23772 calls)

     Called by h_psi:
     h_psi:pot    :   2286.18s CPU   2332.56s WALL (   24112 calls)
     h_psi:calbec :    168.80s CPU    174.82s WALL (   24112 calls)
     vloc_psi     :   1997.96s CPU   2038.12s WALL (   24112 calls)
     add_vuspsi   :    119.25s CPU    119.48s WALL (   24112 calls)
     vhpsi        :     73.94s CPU     74.74s WALL (   24112 calls)

     General routines
     calbec       :    310.87s CPU    320.56s WALL (   60804 calls)
     fft          :      0.83s CPU      0.86s WALL (     471 calls)
     ffts         :      0.07s CPU      0.07s WALL (      74 calls)
     fftw         :   2344.13s CPU   2391.12s WALL ( 6254664 calls)
     interpolate  :      0.10s CPU      0.10s WALL (      38 calls)
     davcio       :      0.01s CPU      2.34s WALL (     340 calls)
 
     Parallel routines
     fft_scatt_xy :    100.37s CPU    102.10s WALL ( 6255209 calls)
     fft_scatt_yz :   1777.32s CPU   1815.42s WALL ( 6255209 calls)

     Hubbard U routines
     new_ns       :     14.78s CPU     15.19s WALL (      18 calls)
     vhpsi        :     73.94s CPU     74.74s WALL (   24112 calls)
 
     PWSCF        :     1h21m CPU       21h 1m WALL

      25h
 
   This run was terminated on:  23:34:30  28Mar2019            

=------------------------------------------------------------------------------=
   JOB DONE.
=------------------------------------------------------------------------------=
