
     Program PWSCF v.6.3MaX starts on 29Mar2019 at 18: 5: 4 

     This program is part of the open-source Quantum ESPRESSO suite
     for quantum simulation of materials; please cite
         "P. Giannozzi et al., J. Phys.:Condens. Matter 21 395502 (2009);
         "P. Giannozzi et al., J. Phys.:Condens. Matter 29 465901 (2017);
          URL http://www.quantum-espresso.org", 
     in publications or presentations arising from this work. More details at
     http://www.quantum-espresso.org/quote

     Parallel version (MPI), running on    32 processors

     MPI processes distributed on     2 nodes
     R & G space division:  proc/nbgrp/npool/nimage =      32
     Waiting for input...
     Reading input from standard input

     Current dimensions of program PWSCF are:
     Max number of different atomic species (ntypx) = 10
     Max number of k-points (npk) =  40000
     Max angular momentum in pseudopotentials (lmaxx) =  3
     Message from routine read_upf::
     Pseudo file ./pseudo/Mn.pbe-spn-kjpaw_psl.0.3.1.UPF has been successfully fixed on the fly.
To avoid this message in the future you can permanently fix 
 your pseudo files following instructions given in: 
https://gitlab.com/QEF/q-e/blob/master/upftools/how_to_fix_upf.md
               file Mn.pbe-spn-kjpaw_psl.0.3.1.UPF: wavefunction(s)  3P 3D renormalized
     Message from routine read_upf::
     Pseudo file ./pseudo/Mn.pbe-spn-kjpaw_psl.0.3.1.UPF has been successfully fixed on the fly.
To avoid this message in the future you can permanently fix 
 your pseudo files following instructions given in: 
https://gitlab.com/QEF/q-e/blob/master/upftools/how_to_fix_upf.md
               file Mn.pbe-spn-kjpaw_psl.0.3.1.UPF: wavefunction(s)  3P 3D renormalized
     Message from routine read_upf::
     Pseudo file ./pseudo/Au.pbe-dn-kjpaw_psl.0.1.UPF has been successfully fixed on the fly.
To avoid this message in the future you can permanently fix 
 your pseudo files following instructions given in: 
https://gitlab.com/QEF/q-e/blob/master/upftools/how_to_fix_upf.md
               file Au.pbe-dn-kjpaw_psl.0.1.UPF: wavefunction(s)  6S 6P 5D renormalized

     Subspace diagonalization in iterative solution of the eigenvalue problem:
     one sub-group per band group will be used
     scalapack distributed-memory algorithm (size of sub-group:  4*  4 procs)

     Found symmetry operation: I + (  0.2500  0.2500  0.0000)
     This is a supercell, fractional translations are disabled
 
     Parallelization info
     --------------------
     sticks:   dense  smooth     PW     G-vecs:    dense   smooth      PW
     Min         323     145     42                11331     3421     537
     Max         324     146     43                11333     3423     539
     Sum       10349    4645   1353               362619   109493   17211
 


     bravais-lattice index     =            0
     lattice parameter (alat)  =      18.0125  a.u.
     unit-cell volume          =    2685.0513 (a.u.)^3
     number of atoms/cell      =           24
     number of atomic types    =            3
     number of electrons       =       296.00
     number of Kohn-Sham states=          178
     kinetic-energy cutoff     =      45.0000  Ry
     charge density cutoff     =     400.0000  Ry
     convergence threshold     =      1.0E-06
     mixing beta               =       0.1000
     number of iterations used =            8  plain     mixing
     Exchange-correlation      = SLA PW PBX PBC ( 1  4  3  4 0 0)

     celldm(1)=  18.012490  celldm(2)=   0.000000  celldm(3)=   0.000000
     celldm(4)=   0.000000  celldm(5)=   0.000000  celldm(6)=   0.000000

     crystal axes: (cart. coord. in units of alat)
               a(1) = (   0.707107  -0.707107   0.000000 )  
               a(2) = (  -0.707107  -0.707107   0.000000 )  
               a(3) = (   0.176777   0.176777  -0.459443 )  

     reciprocal axes: (cart. coord. in units 2 pi/alat)
               b(1) = (  0.707107 -0.707107  0.000000 )  
               b(2) = ( -0.707107 -0.707107 -0.544138 )  
               b(3) = (  0.000000  0.000000 -2.176550 )  


     PseudoPot. # 1 for Mn read from file:
     ./pseudo/Mn.pbe-spn-kjpaw_psl.0.3.1.UPF
     MD5 check sum: 7eef95dd2aae66803482eea66ebeebf1
     Pseudo is Projector augmented-wave + core cor, Zval = 15.0
     Generated using "atomic" code by A. Dal Corso v.5.0.99 svn rev. 10869
     Shape of augmentation charge: PSQ
     Using radial grid of 1187 points,  6 beta functions with: 
                l(1) =   0
                l(2) =   0
                l(3) =   1
                l(4) =   1
                l(5) =   2
                l(6) =   2
     Q(r) pseudized with 0 coefficients 


     PseudoPot. # 2 for Mn read from file:
     ./pseudo/Mn.pbe-spn-kjpaw_psl.0.3.1.UPF
     MD5 check sum: 7eef95dd2aae66803482eea66ebeebf1
     Pseudo is Projector augmented-wave + core cor, Zval = 15.0
     Generated using "atomic" code by A. Dal Corso v.5.0.99 svn rev. 10869
     Shape of augmentation charge: PSQ
     Using radial grid of 1187 points,  6 beta functions with: 
                l(1) =   0
                l(2) =   0
                l(3) =   1
                l(4) =   1
                l(5) =   2
                l(6) =   2
     Q(r) pseudized with 0 coefficients 


     PseudoPot. # 3 for Au read from file:
     ./pseudo/Au.pbe-dn-kjpaw_psl.0.1.UPF
     MD5 check sum: 5c9b92683623e7ae2ab3f8e525febab6
     Pseudo is Projector augmented-wave + core cor, Zval = 11.0
     Generated using "atomic" code by A. Dal Corso v.5.0.2 svn rev. 9415
     Shape of augmentation charge: PSQ
     Using radial grid of 1279 points,  6 beta functions with: 
                l(1) =   0
                l(2) =   0
                l(3) =   1
                l(4) =   1
                l(5) =   2
                l(6) =   2
     Q(r) pseudized with 0 coefficients 


     atomic species   valence    mass     pseudopotential
        Mn1           15.00    54.93800     Mn( 1.00)
        Mn2           15.00    54.93800     Mn( 1.00)
        Au            11.00   196.96600     Au( 1.00)

     Starting magnetic structure 
     atomic species   magnetization
        Mn1          1.000
        Mn2         -1.000
        Au           0.000


     Full LDA+U calculation (l_max = 2) with parameters (eV):
     U(  1) =   3.1200   J(  1) =   0.7000   B(  1) =   0.0803
     U(  2) =   3.1200   J(  2) =   0.7000   B(  2) =   0.0803



      2 Sym. Ops., with inversion, found



   Cartesian axes

     site n.     atom                  positions (alat units)
         1           Mn1 tau(   1) = (   0.3535534  -0.3535534   0.0000000  )
         2           Mn2 tau(   2) = (   0.0000000   0.0000000   0.0000000  )
         3           Mn2 tau(   3) = (   0.0000000  -0.3535534   0.0000000  )
         4           Mn1 tau(   4) = (   0.3535534  -0.7071068   0.0000000  )
         5           Mn1 tau(   5) = (  -0.3535534  -0.3535534   0.0000000  )
         6           Mn2 tau(   6) = (   0.0000000  -0.7071068   0.0000000  )
         7           Mn1 tau(   7) = (  -0.3535534  -0.7071068   0.0000000  )
         8           Mn2 tau(   8) = (   0.0000000  -1.0606602   0.0000000  )
         9           Au  tau(   9) = (  -0.1767767  -0.1767767  -0.1470216  )
        10           Au  tau(  10) = (   0.1767767  -0.5303301  -0.1470216  )
        11           Au  tau(  11) = (  -0.1767767  -0.5303301  -0.1470216  )
        12           Au  tau(  12) = (   0.1767767  -0.8838835  -0.1470216  )
        13           Au  tau(  13) = (  -0.5303301  -0.5303301  -0.1470216  )
        14           Au  tau(  14) = (  -0.1767767  -0.8838835  -0.1470216  )
        15           Au  tau(  15) = (   0.5303301  -0.5303301  -0.1470216  )
        16           Au  tau(  16) = (   0.1767767  -0.1767767  -0.1470216  )
        17           Au  tau(  17) = (   0.3535534  -0.3535534  -0.3124210  )
        18           Au  tau(  18) = (   0.0000000   0.0000000  -0.3124210  )
        19           Au  tau(  19) = (   0.0000000  -0.3535534  -0.3124210  )
        20           Au  tau(  20) = (   0.3535534  -0.7071068  -0.3124210  )
        21           Au  tau(  21) = (  -0.3535534  -0.3535534  -0.3124210  )
        22           Au  tau(  22) = (  -0.0000000  -0.7071068  -0.3124210  )
        23           Au  tau(  23) = (  -0.3535534  -0.7071068  -0.3124210  )
        24           Au  tau(  24) = (   0.0000000  -1.0606602  -0.3124210  )

     number of k points=   260 (tetrahedron method)

     Number of k-points >= 100: set verbosity='high' to print them.

     Dense  grid:   362619 G-vectors     FFT dimensions: ( 120, 120,  60)

     Smooth grid:   109493 G-vectors     FFT dimensions: (  80,  80,  45)

     Estimated max dynamical RAM per process >     803.60 MB

     Estimated total dynamical RAM >      25.11 GB
     Generating pointlists ...
     new r_m :   0.1196 (alat units)  2.1549 (a.u.) for type    1
     new r_m :   0.1196 (alat units)  2.1549 (a.u.) for type    2
     new r_m :   0.1196 (alat units)  2.1549 (a.u.) for type    3

     Check: negative/imaginary core charge=   -0.000006    0.000000

     Initial potential from superposition of free atoms

     starting charge  295.99426, renormalised to  296.00000
     Number of +U iterations with fixed ns =  0
     Starting occupations:
 --- enter write_ns ---
 LDA+U parameters:
U(  1) =   3.1200   J(  1) =   0.7000   B(  1) =   0.0803
U(  2) =   3.1200   J(  2) =   0.7000   B(  2) =   0.0803
atom    1   Tr[ns(na)] (up, down, total) =   5.00000  0.00000  5.00000
   spin  1
    eigenvalues: 
  1.000  1.000  1.000  1.000  1.000
    eigenvectors:
  1.000  0.000  0.000  0.000  0.000
  0.000  1.000  0.000  0.000  0.000
  0.000  0.000  1.000  0.000  0.000
  0.000  0.000  0.000  1.000  0.000
  0.000  0.000  0.000  0.000  1.000
    occupations:
  1.000  0.000  0.000  0.000  0.000
  0.000  1.000  0.000  0.000  0.000
  0.000  0.000  1.000  0.000  0.000
  0.000  0.000  0.000  1.000  0.000
  0.000  0.000  0.000  0.000  1.000
   spin  2
    eigenvalues: 
  0.000  0.000  0.000  0.000  0.000
    eigenvectors:
  1.000  0.000  0.000  0.000  0.000
  0.000  1.000  0.000  0.000  0.000
  0.000  0.000  1.000  0.000  0.000
  0.000  0.000  0.000  1.000  0.000
  0.000  0.000  0.000  0.000  1.000
    occupations:
  0.000  0.000  0.000  0.000  0.000
  0.000  0.000  0.000  0.000  0.000
  0.000  0.000  0.000  0.000  0.000
  0.000  0.000  0.000  0.000  0.000
  0.000  0.000  0.000  0.000  0.000
atomic mag. moment =     5.000000
atom    2   Tr[ns(na)] (up, down, total) =   0.00000  5.00000  5.00000
   spin  1
    eigenvalues: 
  0.000  0.000  0.000  0.000  0.000
    eigenvectors:
  1.000  0.000  0.000  0.000  0.000
  0.000  1.000  0.000  0.000  0.000
  0.000  0.000  1.000  0.000  0.000
  0.000  0.000  0.000  1.000  0.000
  0.000  0.000  0.000  0.000  1.000
    occupations:
  0.000  0.000  0.000  0.000  0.000
  0.000  0.000  0.000  0.000  0.000
  0.000  0.000  0.000  0.000  0.000
  0.000  0.000  0.000  0.000  0.000
  0.000  0.000  0.000  0.000  0.000
   spin  2
    eigenvalues: 
  1.000  1.000  1.000  1.000  1.000
    eigenvectors:
  1.000  0.000  0.000  0.000  0.000
  0.000  1.000  0.000  0.000  0.000
  0.000  0.000  1.000  0.000  0.000
  0.000  0.000  0.000  1.000  0.000
  0.000  0.000  0.000  0.000  1.000
    occupations:
  1.000  0.000  0.000  0.000  0.000
  0.000  1.000  0.000  0.000  0.000
  0.000  0.000  1.000  0.000  0.000
  0.000  0.000  0.000  1.000  0.000
  0.000  0.000  0.000  0.000  1.000
atomic mag. moment =    -5.000000
atom    3   Tr[ns(na)] (up, down, total) =   0.00000  5.00000  5.00000
   spin  1
    eigenvalues: 
  0.000  0.000  0.000  0.000  0.000
    eigenvectors:
  1.000  0.000  0.000  0.000  0.000
  0.000  1.000  0.000  0.000  0.000
  0.000  0.000  1.000  0.000  0.000
  0.000  0.000  0.000  1.000  0.000
  0.000  0.000  0.000  0.000  1.000
    occupations:
  0.000  0.000  0.000  0.000  0.000
  0.000  0.000  0.000  0.000  0.000
  0.000  0.000  0.000  0.000  0.000
  0.000  0.000  0.000  0.000  0.000
  0.000  0.000  0.000  0.000  0.000
   spin  2
    eigenvalues: 
  1.000  1.000  1.000  1.000  1.000
    eigenvectors:
  1.000  0.000  0.000  0.000  0.000
  0.000  1.000  0.000  0.000  0.000
  0.000  0.000  1.000  0.000  0.000
  0.000  0.000  0.000  1.000  0.000
  0.000  0.000  0.000  0.000  1.000
    occupations:
  1.000  0.000  0.000  0.000  0.000
  0.000  1.000  0.000  0.000  0.000
  0.000  0.000  1.000  0.000  0.000
  0.000  0.000  0.000  1.000  0.000
  0.000  0.000  0.000  0.000  1.000
atomic mag. moment =    -5.000000
atom    4   Tr[ns(na)] (up, down, total) =   5.00000  0.00000  5.00000
   spin  1
    eigenvalues: 
  1.000  1.000  1.000  1.000  1.000
    eigenvectors:
  1.000  0.000  0.000  0.000  0.000
  0.000  1.000  0.000  0.000  0.000
  0.000  0.000  1.000  0.000  0.000
  0.000  0.000  0.000  1.000  0.000
  0.000  0.000  0.000  0.000  1.000
    occupations:
  1.000  0.000  0.000  0.000  0.000
  0.000  1.000  0.000  0.000  0.000
  0.000  0.000  1.000  0.000  0.000
  0.000  0.000  0.000  1.000  0.000
  0.000  0.000  0.000  0.000  1.000
   spin  2
    eigenvalues: 
  0.000  0.000  0.000  0.000  0.000
    eigenvectors:
  1.000  0.000  0.000  0.000  0.000
  0.000  1.000  0.000  0.000  0.000
  0.000  0.000  1.000  0.000  0.000
  0.000  0.000  0.000  1.000  0.000
  0.000  0.000  0.000  0.000  1.000
    occupations:
  0.000  0.000  0.000  0.000  0.000
  0.000  0.000  0.000  0.000  0.000
  0.000  0.000  0.000  0.000  0.000
  0.000  0.000  0.000  0.000  0.000
  0.000  0.000  0.000  0.000  0.000
atomic mag. moment =     5.000000
atom    5   Tr[ns(na)] (up, down, total) =   5.00000  0.00000  5.00000
   spin  1
    eigenvalues: 
  1.000  1.000  1.000  1.000  1.000
    eigenvectors:
  1.000  0.000  0.000  0.000  0.000
  0.000  1.000  0.000  0.000  0.000
  0.000  0.000  1.000  0.000  0.000
  0.000  0.000  0.000  1.000  0.000
  0.000  0.000  0.000  0.000  1.000
    occupations:
  1.000  0.000  0.000  0.000  0.000
  0.000  1.000  0.000  0.000  0.000
  0.000  0.000  1.000  0.000  0.000
  0.000  0.000  0.000  1.000  0.000
  0.000  0.000  0.000  0.000  1.000
   spin  2
    eigenvalues: 
  0.000  0.000  0.000  0.000  0.000
    eigenvectors:
  1.000  0.000  0.000  0.000  0.000
  0.000  1.000  0.000  0.000  0.000
  0.000  0.000  1.000  0.000  0.000
  0.000  0.000  0.000  1.000  0.000
  0.000  0.000  0.000  0.000  1.000
    occupations:
  0.000  0.000  0.000  0.000  0.000
  0.000  0.000  0.000  0.000  0.000
  0.000  0.000  0.000  0.000  0.000
  0.000  0.000  0.000  0.000  0.000
  0.000  0.000  0.000  0.000  0.000
atomic mag. moment =     5.000000
atom    6   Tr[ns(na)] (up, down, total) =   0.00000  5.00000  5.00000
   spin  1
    eigenvalues: 
  0.000  0.000  0.000  0.000  0.000
    eigenvectors:
  1.000  0.000  0.000  0.000  0.000
  0.000  1.000  0.000  0.000  0.000
  0.000  0.000  1.000  0.000  0.000
  0.000  0.000  0.000  1.000  0.000
  0.000  0.000  0.000  0.000  1.000
    occupations:
  0.000  0.000  0.000  0.000  0.000
  0.000  0.000  0.000  0.000  0.000
  0.000  0.000  0.000  0.000  0.000
  0.000  0.000  0.000  0.000  0.000
  0.000  0.000  0.000  0.000  0.000
   spin  2
    eigenvalues: 
  1.000  1.000  1.000  1.000  1.000
    eigenvectors:
  1.000  0.000  0.000  0.000  0.000
  0.000  1.000  0.000  0.000  0.000
  0.000  0.000  1.000  0.000  0.000
  0.000  0.000  0.000  1.000  0.000
  0.000  0.000  0.000  0.000  1.000
    occupations:
  1.000  0.000  0.000  0.000  0.000
  0.000  1.000  0.000  0.000  0.000
  0.000  0.000  1.000  0.000  0.000
  0.000  0.000  0.000  1.000  0.000
  0.000  0.000  0.000  0.000  1.000
atomic mag. moment =    -5.000000
atom    7   Tr[ns(na)] (up, down, total) =   5.00000  0.00000  5.00000
   spin  1
    eigenvalues: 
  1.000  1.000  1.000  1.000  1.000
    eigenvectors:
  1.000  0.000  0.000  0.000  0.000
  0.000  1.000  0.000  0.000  0.000
  0.000  0.000  1.000  0.000  0.000
  0.000  0.000  0.000  1.000  0.000
  0.000  0.000  0.000  0.000  1.000
    occupations:
  1.000  0.000  0.000  0.000  0.000
  0.000  1.000  0.000  0.000  0.000
  0.000  0.000  1.000  0.000  0.000
  0.000  0.000  0.000  1.000  0.000
  0.000  0.000  0.000  0.000  1.000
   spin  2
    eigenvalues: 
  0.000  0.000  0.000  0.000  0.000
    eigenvectors:
  1.000  0.000  0.000  0.000  0.000
  0.000  1.000  0.000  0.000  0.000
  0.000  0.000  1.000  0.000  0.000
  0.000  0.000  0.000  1.000  0.000
  0.000  0.000  0.000  0.000  1.000
    occupations:
  0.000  0.000  0.000  0.000  0.000
  0.000  0.000  0.000  0.000  0.000
  0.000  0.000  0.000  0.000  0.000
  0.000  0.000  0.000  0.000  0.000
  0.000  0.000  0.000  0.000  0.000
atomic mag. moment =     5.000000
atom    8   Tr[ns(na)] (up, down, total) =   0.00000  5.00000  5.00000
   spin  1
    eigenvalues: 
  0.000  0.000  0.000  0.000  0.000
    eigenvectors:
  1.000  0.000  0.000  0.000  0.000
  0.000  1.000  0.000  0.000  0.000
  0.000  0.000  1.000  0.000  0.000
  0.000  0.000  0.000  1.000  0.000
  0.000  0.000  0.000  0.000  1.000
    occupations:
  0.000  0.000  0.000  0.000  0.000
  0.000  0.000  0.000  0.000  0.000
  0.000  0.000  0.000  0.000  0.000
  0.000  0.000  0.000  0.000  0.000
  0.000  0.000  0.000  0.000  0.000
   spin  2
    eigenvalues: 
  1.000  1.000  1.000  1.000  1.000
    eigenvectors:
  1.000  0.000  0.000  0.000  0.000
  0.000  1.000  0.000  0.000  0.000
  0.000  0.000  1.000  0.000  0.000
  0.000  0.000  0.000  1.000  0.000
  0.000  0.000  0.000  0.000  1.000
    occupations:
  1.000  0.000  0.000  0.000  0.000
  0.000  1.000  0.000  0.000  0.000
  0.000  0.000  1.000  0.000  0.000
  0.000  0.000  0.000  1.000  0.000
  0.000  0.000  0.000  0.000  1.000
atomic mag. moment =    -5.000000
N of occupied +U levels =   40.000000
 --- exit write_ns ---
 Atomic wfc used for LDA+U Projector are NOT orthogonalized
     Starting wfcs are  224 randomized atomic wfcs
     Checking if some PAW data can be deallocated... 

     total cpu time spent up to now is      226.0 secs

     Self-consistent Calculation

     iteration #  1     ecut=    45.00 Ry     beta= 0.10
     Davidson diagonalization with overlap
     ethr =  1.00E-02,  avg # of iterations =  4.6
 --- enter write_ns ---
 LDA+U parameters:
U(  1) =   3.1200   J(  1) =   0.7000   B(  1) =   0.0803
U(  2) =   3.1200   J(  2) =   0.7000   B(  2) =   0.0803
atom    1   Tr[ns(na)] (up, down, total) =   5.01486  0.27519  5.29005
   spin  1
    eigenvalues: 
  1.003  1.003  1.003  1.003  1.004
    eigenvectors:
  0.000  0.000  0.000  0.987  0.012
  0.000  0.987  0.012  0.000  0.000
  0.015  0.011  0.973  0.001  0.000
  0.000  0.000  0.000  0.012  0.987
  0.985  0.001  0.014  0.000  0.000
    occupations:
  1.003  0.000 -0.000  0.000  0.000
  0.000  1.003 -0.000  0.000  0.000
 -0.000 -0.000  1.003  0.000  0.000
  0.000  0.000  0.000  1.004  0.000
  0.000  0.000  0.000  0.000  1.003
   spin  2
    eigenvalues: 
  0.041  0.052  0.055  0.056  0.072
    eigenvectors:
  0.023  0.938  0.003  0.036  0.000
  0.000  0.038  0.022  0.940  0.000
  0.000  0.001  0.972  0.024  0.004
  0.977  0.023  0.000  0.000  0.000
  0.000  0.000  0.004  0.000  0.996
    occupations:
  0.052  0.001 -0.000 -0.002 -0.000
  0.001  0.056  0.000  0.000  0.000
 -0.000  0.000  0.055  0.000  0.001
 -0.002  0.000  0.000  0.041  0.000
 -0.000  0.000  0.001  0.000  0.071
atomic mag. moment =     4.739665
atom    2   Tr[ns(na)] (up, down, total) =   0.27585  5.01493  5.29079
   spin  1
    eigenvalues: 
  0.041  0.052  0.055  0.056  0.072
    eigenvectors:
  0.025  0.927  0.002  0.046  0.000
  0.000  0.048  0.018  0.933  0.000
  0.000  0.000  0.975  0.020  0.005
  0.975  0.025  0.000  0.000  0.000
  0.000  0.000  0.005  0.000  0.995
    occupations:
  0.052  0.001 -0.000 -0.002 -0.000
  0.001  0.056  0.000  0.000  0.000
 -0.000  0.000  0.055  0.000  0.001
 -0.002  0.000  0.000  0.041  0.000
 -0.000  0.000  0.001  0.000  0.072
   spin  2
    eigenvalues: 
  1.003  1.003  1.003  1.003  1.004
    eigenvectors:
  0.001  0.000  0.000  0.982  0.018
  0.000  0.947  0.053  0.000  0.000
  0.003  0.053  0.944  0.000  0.000
  0.000  0.000  0.000  0.018  0.982
  0.996  0.000  0.003  0.001  0.000
    occupations:
  1.003 -0.000  0.000  0.000 -0.000
 -0.000  1.003 -0.000 -0.000 -0.000
  0.000 -0.000  1.003  0.000  0.000
  0.000 -0.000  0.000  1.004  0.000
 -0.000 -0.000  0.000  0.000  1.003
atomic mag. moment =    -4.739076
atom    3   Tr[ns(na)] (up, down, total) =   0.27616  5.01484  5.29100
   spin  1
    eigenvalues: 
  0.041  0.052  0.055  0.056  0.072
    eigenvectors:
  0.025  0.929  0.001  0.044  0.000
  0.000  0.045  0.016  0.939  0.000
  0.000  0.000  0.978  0.017  0.006
  0.974  0.026  0.000  0.000  0.000
  0.000  0.000  0.005  0.000  0.994
    occupations:
  0.052  0.001  0.000 -0.002 -0.000
  0.001  0.056  0.000  0.000  0.000
  0.000  0.000  0.055  0.000  0.001
 -0.002  0.000  0.000  0.041  0.000
 -0.000  0.000  0.001  0.000  0.072
   spin  2
    eigenvalues: 
  1.003  1.003  1.003  1.003  1.004
    eigenvectors:
  0.000  0.000  0.000  0.972  0.027
  0.000  0.994  0.005  0.001  0.000
  0.003  0.005  0.991  0.000  0.000
  0.000  0.000  0.000  0.027  0.973
  0.997  0.000  0.003  0.000  0.000
    occupations:
  1.003 -0.000 -0.000  0.000  0.000
 -0.000  1.003  0.000 -0.000 -0.000
 -0.000  0.000  1.003  0.000  0.000
  0.000 -0.000  0.000  1.004 -0.000
  0.000 -0.000  0.000 -0.000  1.003
atomic mag. moment =    -4.738684
atom    4   Tr[ns(na)] (up, down, total) =   5.01480  0.27589  5.29069
   spin  1
    eigenvalues: 
  1.003  1.003  1.003  1.003  1.004
    eigenvectors:
  0.000  0.000  0.000  0.981  0.019
  0.000  0.999  0.000  0.000  0.000
  0.002  0.000  0.997  0.000  0.000
  0.000  0.000  0.000  0.019  0.981
  0.997  0.000  0.002  0.000  0.000
    occupations:
  1.003  0.000 -0.000  0.000  0.000
  0.000  1.003  0.000  0.000 -0.000
 -0.000  0.000  1.003 -0.000  0.000
  0.000  0.000 -0.000  1.004 -0.000
  0.000 -0.000  0.000 -0.000  1.003
   spin  2
    eigenvalues: 
  0.041  0.052  0.055  0.056  0.072
    eigenvectors:
  0.026  0.929  0.002  0.043  0.000
  0.000  0.046  0.024  0.930  0.000
  0.000  0.000  0.969  0.026  0.005
  0.974  0.026  0.000  0.000  0.000
  0.000  0.000  0.005  0.000  0.995
    occupations:
  0.052  0.001 -0.000 -0.002 -0.000
  0.001  0.056  0.000  0.000  0.000
 -0.000  0.000  0.055 -0.000  0.001
 -0.002  0.000 -0.000  0.041  0.000
 -0.000  0.000  0.001  0.000  0.072
atomic mag. moment =     4.738905
atom    5   Tr[ns(na)] (up, down, total) =   5.01486  0.27636  5.29122
   spin  1
    eigenvalues: 
  1.003  1.003  1.003  1.003  1.004
    eigenvectors:
  0.000  0.000  0.001  0.951  0.047
  0.003  0.997  0.000  0.000  0.000
  0.006  0.000  0.993  0.001  0.000
  0.000  0.001  0.000  0.047  0.952
  0.991  0.003  0.006  0.000  0.000
    occupations:
  1.003 -0.000  0.000  0.000 -0.000
 -0.000  1.003 -0.000  0.000  0.000
  0.000 -0.000  1.003  0.000  0.000
  0.000  0.000  0.000  1.004  0.000
 -0.000  0.000  0.000  0.000  1.003
   spin  2
    eigenvalues: 
  0.041  0.052  0.055  0.056  0.072
    eigenvectors:
  0.026  0.934  0.001  0.039  0.000
  0.000  0.040  0.005  0.955  0.000
  0.000  0.000  0.989  0.006  0.005
  0.974  0.026  0.000  0.000  0.000
  0.000  0.000  0.005  0.000  0.995
    occupations:
  0.052  0.001 -0.000 -0.002 -0.000
  0.001  0.056  0.000  0.000  0.000
 -0.000  0.000  0.055  0.000  0.001
 -0.002  0.000  0.000  0.041  0.000
 -0.000  0.000  0.001  0.000  0.072
atomic mag. moment =     4.738504
atom    6   Tr[ns(na)] (up, down, total) =   0.27569  5.01508  5.29076
   spin  1
    eigenvalues: 
  0.041  0.052  0.055  0.056  0.072
    eigenvectors:
  0.025  0.935  0.001  0.039  0.000
  0.000  0.040  0.011  0.949  0.000
  0.000  0.000  0.982  0.012  0.006
  0.974  0.025  0.000  0.000  0.000
  0.000  0.000  0.006  0.000  0.994
    occupations:
  0.052  0.001 -0.000 -0.002 -0.000
  0.001  0.056  0.000  0.000  0.000
 -0.000  0.000  0.055  0.000  0.001
 -0.002  0.000  0.000  0.041  0.000
 -0.000  0.000  0.001  0.000  0.071
   spin  2
    eigenvalues: 
  1.003  1.003  1.003  1.003  1.004
    eigenvectors:
  0.000  0.000  0.003  0.972  0.025
  0.000  0.959  0.041  0.000  0.000
  0.010  0.041  0.946  0.003  0.000
  0.000  0.000  0.000  0.025  0.975
  0.989  0.000  0.010  0.000  0.000
    occupations:
  1.003  0.000  0.000  0.000 -0.000
  0.000  1.003  0.000 -0.000  0.000
  0.000  0.000  1.003 -0.000  0.000
  0.000 -0.000 -0.000  1.004  0.000
 -0.000  0.000  0.000  0.000  1.003
atomic mag. moment =    -4.739390
atom    7   Tr[ns(na)] (up, down, total) =   5.01480  0.27589  5.29069
   spin  1
    eigenvalues: 
  1.003  1.003  1.003  1.003  1.004
    eigenvectors:
  0.000  0.000  0.000  0.981  0.019
  0.000  0.999  0.000  0.000  0.000
  0.002  0.000  0.997  0.000  0.000
  0.000  0.000  0.000  0.019  0.981
  0.997  0.000  0.002  0.000  0.000
    occupations:
  1.003  0.000 -0.000  0.000  0.000
  0.000  1.003  0.000  0.000 -0.000
 -0.000  0.000  1.003 -0.000  0.000
  0.000  0.000 -0.000  1.004 -0.000
  0.000 -0.000  0.000 -0.000  1.003
   spin  2
    eigenvalues: 
  0.041  0.052  0.055  0.056  0.072
    eigenvectors:
  0.026  0.929  0.002  0.043  0.000
  0.000  0.046  0.024  0.930  0.000
  0.000  0.000  0.969  0.026  0.005
  0.974  0.026  0.000  0.000  0.000
  0.000  0.000  0.005  0.000  0.995
    occupations:
  0.052  0.001 -0.000 -0.002 -0.000
  0.001  0.056  0.000  0.000  0.000
 -0.000  0.000  0.055 -0.000  0.001
 -0.002  0.000 -0.000  0.041  0.000
 -0.000  0.000  0.001  0.000  0.072
atomic mag. moment =     4.738905
atom    8   Tr[ns(na)] (up, down, total) =   0.27616  5.01484  5.29100
   spin  1
    eigenvalues: 
  0.041  0.052  0.055  0.056  0.072
    eigenvectors:
  0.025  0.929  0.001  0.044  0.000
  0.000  0.045  0.016  0.939  0.000
  0.000  0.000  0.978  0.017  0.006
  0.974  0.026  0.000  0.000  0.000
  0.000  0.000  0.005  0.000  0.994
    occupations:
  0.052  0.001  0.000 -0.002 -0.000
  0.001  0.056  0.000  0.000  0.000
  0.000  0.000  0.055  0.000  0.001
 -0.002  0.000  0.000  0.041  0.000
 -0.000  0.000  0.001  0.000  0.072
   spin  2
    eigenvalues: 
  1.003  1.003  1.003  1.003  1.004
    eigenvectors:
  0.000  0.000  0.000  0.972  0.027
  0.000  0.994  0.005  0.001  0.000
  0.003  0.005  0.991  0.000  0.000
  0.000  0.000  0.000  0.027  0.973
  0.997  0.000  0.003  0.000  0.000
    occupations:
  1.003 -0.000 -0.000  0.000  0.000
 -0.000  1.003  0.000 -0.000 -0.000
 -0.000  0.000  1.003  0.000  0.000
  0.000 -0.000  0.000  1.004 -0.000
  0.000 -0.000  0.000 -0.000  1.003
atomic mag. moment =    -4.738684
N of occupied +U levels =   42.326182
 --- exit write_ns ---

     total cpu time spent up to now is      923.0 secs

     total energy              =  -14679.21673753 Ry
     Harris-Foulkes estimate   =  -14669.84923540 Ry
     estimated scf accuracy    <      21.28264311 Ry

     total magnetization       =     0.00 Bohr mag/cell
     absolute magnetization    =    43.42 Bohr mag/cell

     iteration #  2     ecut=    45.00 Ry     beta= 0.10
     Davidson diagonalization with overlap
     ethr =  7.19E-03,  avg # of iterations =  1.0

     total cpu time spent up to now is     1342.4 secs

     total energy              =  -14692.15341296 Ry
     Harris-Foulkes estimate   =  -14679.32244210 Ry
     estimated scf accuracy    <      17.16903803 Ry

     total magnetization       =     0.00 Bohr mag/cell
     absolute magnetization    =    43.00 Bohr mag/cell

     iteration #  3     ecut=    45.00 Ry     beta= 0.10
     Davidson diagonalization with overlap
     ethr =  5.80E-03,  avg # of iterations =  2.1

     total cpu time spent up to now is     1838.6 secs

     total energy              =  -14693.81109897 Ry
     Harris-Foulkes estimate   =  -14693.75782682 Ry
     estimated scf accuracy    <       4.07049331 Ry

     total magnetization       =    -0.00 Bohr mag/cell
     absolute magnetization    =    39.17 Bohr mag/cell

     iteration #  4     ecut=    45.00 Ry     beta= 0.10
     Davidson diagonalization with overlap
     ethr =  1.38E-03,  avg # of iterations =  5.8

     total cpu time spent up to now is     2524.8 secs

     total energy              =  -14693.50894353 Ry
     Harris-Foulkes estimate   =  -14693.84999946 Ry
     estimated scf accuracy    <       4.29936430 Ry

     total magnetization       =    -0.01 Bohr mag/cell
     absolute magnetization    =    38.99 Bohr mag/cell

     iteration #  5     ecut=    45.00 Ry     beta= 0.10
     Davidson diagonalization with overlap
     ethr =  1.38E-03,  avg # of iterations =  5.2

     total cpu time spent up to now is     3211.8 secs

     total energy              =  -14693.82965805 Ry
     Harris-Foulkes estimate   =  -14693.82997997 Ry
     estimated scf accuracy    <       0.35412095 Ry

     total magnetization       =    -0.00 Bohr mag/cell
     absolute magnetization    =    38.23 Bohr mag/cell

     iteration #  6     ecut=    45.00 Ry     beta= 0.10
     Davidson diagonalization with overlap
     ethr =  1.20E-04,  avg # of iterations =  3.9

     total cpu time spent up to now is     3986.1 secs

     total energy              =  -14693.98011738 Ry
     Harris-Foulkes estimate   =  -14693.93850351 Ry
     estimated scf accuracy    <       0.28079317 Ry

     total magnetization       =    -0.01 Bohr mag/cell
     absolute magnetization    =    37.08 Bohr mag/cell

     iteration #  7     ecut=    45.00 Ry     beta= 0.10
     Davidson diagonalization with overlap
     ethr =  9.49E-05,  avg # of iterations =  2.0

     total cpu time spent up to now is     4458.3 secs

     total energy              =  -14693.87061008 Ry
     Harris-Foulkes estimate   =  -14694.01003472 Ry
     estimated scf accuracy    <       0.93636225 Ry

     total magnetization       =    -0.03 Bohr mag/cell
     absolute magnetization    =    36.91 Bohr mag/cell

     iteration #  8     ecut=    45.00 Ry     beta= 0.10
     Davidson diagonalization with overlap
     ethr =  9.49E-05,  avg # of iterations =  2.1

     total cpu time spent up to now is     4986.1 secs

     total energy              =  -14693.92746935 Ry
     Harris-Foulkes estimate   =  -14693.93359603 Ry
     estimated scf accuracy    <       0.07486972 Ry

     total magnetization       =    -0.00 Bohr mag/cell
     absolute magnetization    =    36.96 Bohr mag/cell

     iteration #  9     ecut=    45.00 Ry     beta= 0.10
     Davidson diagonalization with overlap
     ethr =  2.53E-05,  avg # of iterations =  1.9

     total cpu time spent up to now is     5445.0 secs

     total energy              =  -14693.92901038 Ry
     Harris-Foulkes estimate   =  -14693.92937544 Ry
     estimated scf accuracy    <       0.03185804 Ry

     total magnetization       =    -0.00 Bohr mag/cell
     absolute magnetization    =    36.98 Bohr mag/cell

     iteration # 10     ecut=    45.00 Ry     beta= 0.10
     Davidson diagonalization with overlap
     ethr =  1.08E-05,  avg # of iterations =  3.3

     total cpu time spent up to now is     5997.3 secs

     total energy              =  -14693.93099483 Ry
     Harris-Foulkes estimate   =  -14693.93119962 Ry
     estimated scf accuracy    <       0.00649794 Ry

     total magnetization       =    -0.00 Bohr mag/cell
     absolute magnetization    =    36.88 Bohr mag/cell

     iteration # 11     ecut=    45.00 Ry     beta= 0.10
     Davidson diagonalization with overlap
     ethr =  2.20E-06,  avg # of iterations =  3.9

     total cpu time spent up to now is     6601.5 secs

     total energy              =  -14693.93200226 Ry
     Harris-Foulkes estimate   =  -14693.93171060 Ry
     estimated scf accuracy    <       0.00081330 Ry

     total magnetization       =    -0.00 Bohr mag/cell
     absolute magnetization    =    36.86 Bohr mag/cell

     iteration # 12     ecut=    45.00 Ry     beta= 0.10
     Davidson diagonalization with overlap
     ethr =  2.75E-07,  avg # of iterations =  3.5

     total cpu time spent up to now is     7309.6 secs

     total energy              =  -14693.93229080 Ry
     Harris-Foulkes estimate   =  -14693.93236356 Ry
     estimated scf accuracy    <       0.00059073 Ry

     total magnetization       =     0.00 Bohr mag/cell
     absolute magnetization    =    36.80 Bohr mag/cell

     iteration # 13     ecut=    45.00 Ry     beta= 0.10
     Davidson diagonalization with overlap
     ethr =  2.00E-07,  avg # of iterations =  1.0

     total cpu time spent up to now is     7727.5 secs

     total energy              =  -14693.93231693 Ry
     Harris-Foulkes estimate   =  -14693.93231770 Ry
     estimated scf accuracy    <       0.00011696 Ry

     total magnetization       =     0.00 Bohr mag/cell
     absolute magnetization    =    36.80 Bohr mag/cell

     iteration # 14     ecut=    45.00 Ry     beta= 0.10
     Davidson diagonalization with overlap
     ethr =  3.95E-08,  avg # of iterations =  2.5

     total cpu time spent up to now is     8243.9 secs

     total energy              =  -14693.93234315 Ry
     Harris-Foulkes estimate   =  -14693.93232849 Ry
     estimated scf accuracy    <       0.00002143 Ry

     total magnetization       =    -0.00 Bohr mag/cell
     absolute magnetization    =    36.79 Bohr mag/cell

     iteration # 15     ecut=    45.00 Ry     beta= 0.10
     Davidson diagonalization with overlap
     ethr =  7.24E-09,  avg # of iterations =  3.1

     total cpu time spent up to now is     8774.2 secs

     total energy              =  -14693.93235647 Ry
     Harris-Foulkes estimate   =  -14693.93234360 Ry
     estimated scf accuracy    <       0.00001120 Ry

     total magnetization       =     0.00 Bohr mag/cell
     absolute magnetization    =    36.79 Bohr mag/cell

     iteration # 16     ecut=    45.00 Ry     beta= 0.10
     Davidson diagonalization with overlap
     ethr =  3.78E-09,  avg # of iterations =  2.4

     total cpu time spent up to now is     9263.0 secs

     total energy              =  -14693.93236520 Ry
     Harris-Foulkes estimate   =  -14693.93235610 Ry
     estimated scf accuracy    <       0.00000549 Ry

     total magnetization       =     0.00 Bohr mag/cell
     absolute magnetization    =    36.79 Bohr mag/cell

     iteration # 17     ecut=    45.00 Ry     beta= 0.10
     Davidson diagonalization with overlap
     ethr =  1.85E-09,  avg # of iterations =  3.1

     total cpu time spent up to now is     9810.7 secs

     total energy              =  -14693.93236973 Ry
     Harris-Foulkes estimate   =  -14693.93236471 Ry
     estimated scf accuracy    <       0.00000211 Ry

     total magnetization       =     0.00 Bohr mag/cell
     absolute magnetization    =    36.78 Bohr mag/cell

     iteration # 18     ecut=    45.00 Ry     beta= 0.10
     Davidson diagonalization with overlap
     ethr =  7.14E-10,  avg # of iterations =  2.1

     total cpu time spent up to now is    10288.2 secs

     total energy              =  -14693.93237289 Ry
     Harris-Foulkes estimate   =  -14693.93236896 Ry
     estimated scf accuracy    <       0.00000114 Ry

     total magnetization       =    -0.00 Bohr mag/cell
     absolute magnetization    =    36.78 Bohr mag/cell

     iteration # 19     ecut=    45.00 Ry     beta= 0.10
     Davidson diagonalization with overlap
     ethr =  3.85E-10,  avg # of iterations =  2.0
 
     Magnetic moment per site:
     atom:    1    charge:   13.5375    magn:    4.2457    constr:    0.0000
     atom:    2    charge:   13.5376    magn:   -4.2457    constr:    0.0000
     atom:    3    charge:   13.5376    magn:   -4.2456    constr:    0.0000
     atom:    4    charge:   13.5377    magn:    4.2456    constr:    0.0000
     atom:    5    charge:   13.5376    magn:    4.2457    constr:    0.0000
     atom:    6    charge:   13.5377    magn:   -4.2456    constr:    0.0000
     atom:    7    charge:   13.5377    magn:    4.2456    constr:    0.0000
     atom:    8    charge:   13.5376    magn:   -4.2456    constr:    0.0000
     atom:    9    charge:    9.0930    magn:    0.0080    constr:    0.0000
     atom:   10    charge:    9.0930    magn:   -0.0080    constr:    0.0000
     atom:   11    charge:    9.0930    magn:    0.0081    constr:    0.0000
     atom:   12    charge:    9.0930    magn:   -0.0080    constr:    0.0000
     atom:   13    charge:    9.0930    magn:   -0.0080    constr:    0.0000
     atom:   14    charge:    9.0930    magn:    0.0080    constr:    0.0000
     atom:   15    charge:    9.0930    magn:    0.0080    constr:    0.0000
     atom:   16    charge:    9.0930    magn:   -0.0080    constr:    0.0000
     atom:   17    charge:    9.0930    magn:    0.0080    constr:    0.0000
     atom:   18    charge:    9.0930    magn:   -0.0080    constr:    0.0000
     atom:   19    charge:    9.0930    magn:   -0.0080    constr:    0.0000
     atom:   20    charge:    9.0930    magn:    0.0081    constr:    0.0000
     atom:   21    charge:    9.0930    magn:    0.0080    constr:    0.0000
     atom:   22    charge:    9.0930    magn:   -0.0080    constr:    0.0000
     atom:   23    charge:    9.0930    magn:    0.0080    constr:    0.0000
     atom:   24    charge:    9.0930    magn:   -0.0080    constr:    0.0000

     total cpu time spent up to now is    10754.4 secs

     End of self-consistent calculation
 --- enter write_ns ---
 LDA+U parameters:
U(  1) =   3.1200   J(  1) =   0.7000   B(  1) =   0.0803
U(  2) =   3.1200   J(  2) =   0.7000   B(  2) =   0.0803
atom    1   Tr[ns(na)] (up, down, total) =   4.97030  0.72707  5.69738
   spin  1
    eigenvalues: 
  0.986  0.993  0.993  0.997  1.002
    eigenvectors:
  0.000  0.017  0.000  0.969  0.013
  0.000  0.976  0.004  0.016  0.003
  0.001  0.004  0.995  0.000  0.000
  0.000  0.002  0.000  0.015  0.983
  0.999  0.000  0.001  0.000  0.000
    occupations:
  0.997 -0.001 -0.000  0.001 -0.000
 -0.001  0.993 -0.000 -0.000 -0.000
 -0.000 -0.000  0.993  0.000  0.000
  0.001 -0.000  0.000  1.002 -0.000
 -0.000 -0.000  0.000 -0.000  0.986
   spin  2
    eigenvalues: 
  0.069  0.118  0.143  0.145  0.252
    eigenvectors:
  0.000  0.997  0.002  0.000  0.000
  0.001  0.002  0.971  0.025  0.000
  0.000  0.000  0.024  0.931  0.045
  0.999  0.000  0.001  0.000  0.000
  0.000  0.000  0.002  0.044  0.954
    occupations:
  0.118 -0.001  0.000 -0.000 -0.001
 -0.001  0.142 -0.000 -0.003  0.001
  0.000 -0.000  0.150  0.000  0.022
 -0.000 -0.003  0.000  0.070  0.000
 -0.001  0.001  0.022  0.000  0.247
atomic mag. moment =     4.243231
atom    2   Tr[ns(na)] (up, down, total) =   0.72716  4.97032  5.69748
   spin  1
    eigenvalues: 
  0.069  0.118  0.143  0.145  0.252
    eigenvectors:
  0.000  0.997  0.002  0.000  0.000
  0.001  0.002  0.971  0.025  0.000
  0.000  0.000  0.024  0.930  0.045
  0.999  0.000  0.001  0.000  0.000
  0.000  0.000  0.002  0.044  0.954
    occupations:
  0.118 -0.001  0.000 -0.000 -0.001
 -0.001  0.143 -0.000 -0.003  0.001
  0.000 -0.000  0.150  0.000  0.022
 -0.000 -0.003  0.000  0.070  0.000
 -0.001  0.001  0.022  0.000  0.247
   spin  2
    eigenvalues: 
  0.986  0.993  0.993  0.997  1.002
    eigenvectors:
  0.000  0.017  0.000  0.969  0.013
  0.000  0.977  0.004  0.016  0.003
  0.001  0.004  0.995  0.000  0.000
  0.000  0.002  0.000  0.015  0.983
  0.999  0.000  0.001  0.000  0.000
    occupations:
  0.997 -0.001 -0.000  0.001 -0.000
 -0.001  0.993 -0.000 -0.000 -0.000
 -0.000 -0.000  0.993  0.000  0.000
  0.001 -0.000  0.000  1.002 -0.000
 -0.000 -0.000  0.000 -0.000  0.986
atomic mag. moment =    -4.243155
atom    3   Tr[ns(na)] (up, down, total) =   0.72716  4.97029  5.69745
   spin  1
    eigenvalues: 
  0.069  0.118  0.143  0.145  0.252
    eigenvectors:
  0.000  0.997  0.002  0.000  0.000
  0.001  0.002  0.969  0.027  0.000
  0.000  0.000  0.026  0.929  0.045
  0.999  0.000  0.001  0.000  0.000
  0.000  0.000  0.002  0.044  0.955
    occupations:
  0.118 -0.001  0.000 -0.000 -0.001
 -0.001  0.142 -0.000 -0.003  0.001
  0.000 -0.000  0.150  0.000  0.022
 -0.000 -0.003  0.000  0.070  0.000
 -0.001  0.001  0.022  0.000  0.247
   spin  2
    eigenvalues: 
  0.986  0.993  0.993  0.997  1.002
    eigenvectors:
  0.000  0.018  0.000  0.969  0.013
  0.000  0.977  0.004  0.016  0.003
  0.001  0.004  0.995  0.000  0.000
  0.000  0.002  0.000  0.015  0.983
  0.999  0.000  0.001  0.000  0.000
    occupations:
  0.997 -0.001 -0.000  0.001 -0.000
 -0.001  0.993 -0.000 -0.000 -0.000
 -0.000 -0.000  0.993  0.000  0.000
  0.001 -0.000  0.000  1.002  0.000
 -0.000 -0.000  0.000  0.000  0.986
atomic mag. moment =    -4.243131
atom    4   Tr[ns(na)] (up, down, total) =   4.97030  0.72726  5.69756
   spin  1
    eigenvalues: 
  0.986  0.993  0.993  0.997  1.002
    eigenvectors:
  0.000  0.017  0.000  0.969  0.013
  0.000  0.977  0.004  0.016  0.003
  0.001  0.004  0.995  0.000  0.000
  0.000  0.002  0.000  0.015  0.983
  0.999  0.000  0.001  0.000  0.000
    occupations:
  0.997 -0.001 -0.000  0.001 -0.000
 -0.001  0.993 -0.000 -0.000 -0.000
 -0.000 -0.000  0.993  0.000  0.000
  0.001 -0.000  0.000  1.002  0.000
 -0.000 -0.000  0.000  0.000  0.986
   spin  2
    eigenvalues: 
  0.069  0.118  0.143  0.145  0.252
    eigenvectors:
  0.000  0.997  0.002  0.000  0.000
  0.001  0.002  0.969  0.027  0.000
  0.000  0.000  0.026  0.929  0.045
  0.999  0.000  0.001  0.000  0.000
  0.000  0.000  0.002  0.044  0.955
    occupations:
  0.118 -0.001  0.000 -0.000 -0.001
 -0.001  0.143 -0.000 -0.003  0.001
  0.000 -0.000  0.150  0.000  0.022
 -0.000 -0.003  0.000  0.070  0.000
 -0.001  0.001  0.022  0.000  0.247
atomic mag. moment =     4.243046
atom    5   Tr[ns(na)] (up, down, total) =   4.97030  0.72713  5.69744
   spin  1
    eigenvalues: 
  0.986  0.993  0.993  0.997  1.002
    eigenvectors:
  0.000  0.018  0.000  0.969  0.013
  0.000  0.976  0.004  0.016  0.003
  0.001  0.004  0.995  0.000  0.000
  0.000  0.002  0.000  0.015  0.983
  0.999  0.000  0.001  0.000  0.000
    occupations:
  0.997 -0.001 -0.000  0.001 -0.000
 -0.001  0.993 -0.000 -0.000 -0.000
 -0.000 -0.000  0.993  0.000  0.000
  0.001 -0.000  0.000  1.002 -0.000
 -0.000 -0.000  0.000 -0.000  0.986
   spin  2
    eigenvalues: 
  0.069  0.118  0.143  0.145  0.252
    eigenvectors:
  0.000  0.997  0.002  0.000  0.000
  0.001  0.002  0.969  0.028  0.000
  0.000  0.000  0.026  0.928  0.046
  0.999  0.000  0.001  0.000  0.000
  0.000  0.000  0.002  0.044  0.954
    occupations:
  0.118 -0.001  0.000 -0.000 -0.001
 -0.001  0.143 -0.000 -0.003  0.001
  0.000 -0.000  0.150  0.000  0.022
 -0.000 -0.003  0.000  0.070  0.000
 -0.001  0.001  0.022  0.000  0.247
atomic mag. moment =     4.243169
atom    6   Tr[ns(na)] (up, down, total) =   0.72724  4.97032  5.69756
   spin  1
    eigenvalues: 
  0.069  0.118  0.143  0.145  0.252
    eigenvectors:
  0.000  0.997  0.002  0.000  0.000
  0.001  0.002  0.968  0.028  0.000
  0.000  0.000  0.026  0.928  0.046
  0.999  0.000  0.001  0.000  0.000
  0.000  0.000  0.002  0.044  0.954
    occupations:
  0.118 -0.001  0.000 -0.000 -0.001
 -0.001  0.143 -0.000 -0.003  0.001
  0.000 -0.000  0.150  0.000  0.022
 -0.000 -0.003  0.000  0.070  0.000
 -0.001  0.001  0.022  0.000  0.247
   spin  2
    eigenvalues: 
  0.986  0.993  0.993  0.997  1.002
    eigenvectors:
  0.000  0.017  0.000  0.969  0.013
  0.000  0.977  0.004  0.016  0.003
  0.001  0.004  0.995  0.000  0.000
  0.000  0.002  0.000  0.015  0.983
  0.999  0.000  0.001  0.000  0.000
    occupations:
  0.997 -0.001 -0.000  0.001 -0.000
 -0.001  0.993 -0.000 -0.000 -0.000
 -0.000 -0.000  0.993  0.000  0.000
  0.001 -0.000  0.000  1.002 -0.000
 -0.000 -0.000  0.000 -0.000  0.986
atomic mag. moment =    -4.243075
atom    7   Tr[ns(na)] (up, down, total) =   4.97030  0.72726  5.69756
   spin  1
    eigenvalues: 
  0.986  0.993  0.993  0.997  1.002
    eigenvectors:
  0.000  0.017  0.000  0.969  0.013
  0.000  0.977  0.004  0.016  0.003
  0.001  0.004  0.995  0.000  0.000
  0.000  0.002  0.000  0.015  0.983
  0.999  0.000  0.001  0.000  0.000
    occupations:
  0.997 -0.001 -0.000  0.001 -0.000
 -0.001  0.993 -0.000 -0.000 -0.000
 -0.000 -0.000  0.993  0.000  0.000
  0.001 -0.000  0.000  1.002  0.000
 -0.000 -0.000  0.000  0.000  0.986
   spin  2
    eigenvalues: 
  0.069  0.118  0.143  0.145  0.252
    eigenvectors:
  0.000  0.997  0.002  0.000  0.000
  0.001  0.002  0.969  0.027  0.000
  0.000  0.000  0.026  0.929  0.045
  0.999  0.000  0.001  0.000  0.000
  0.000  0.000  0.002  0.044  0.955
    occupations:
  0.118 -0.001  0.000 -0.000 -0.001
 -0.001  0.143 -0.000 -0.003  0.001
  0.000 -0.000  0.150  0.000  0.022
 -0.000 -0.003  0.000  0.070  0.000
 -0.001  0.001  0.022  0.000  0.247
atomic mag. moment =     4.243046
atom    8   Tr[ns(na)] (up, down, total) =   0.72716  4.97029  5.69745
   spin  1
    eigenvalues: 
  0.069  0.118  0.143  0.145  0.252
    eigenvectors:
  0.000  0.997  0.002  0.000  0.000
  0.001  0.002  0.969  0.027  0.000
  0.000  0.000  0.026  0.929  0.045
  0.999  0.000  0.001  0.000  0.000
  0.000  0.000  0.002  0.044  0.955
    occupations:
  0.118 -0.001  0.000 -0.000 -0.001
 -0.001  0.142 -0.000 -0.003  0.001
  0.000 -0.000  0.150  0.000  0.022
 -0.000 -0.003  0.000  0.070  0.000
 -0.001  0.001  0.022  0.000  0.247
   spin  2
    eigenvalues: 
  0.986  0.993  0.993  0.997  1.002
    eigenvectors:
  0.000  0.018  0.000  0.969  0.013
  0.000  0.977  0.004  0.016  0.003
  0.001  0.004  0.995  0.000  0.000
  0.000  0.002  0.000  0.015  0.983
  0.999  0.000  0.001  0.000  0.000
    occupations:
  0.997 -0.001 -0.000  0.001 -0.000
 -0.001  0.993 -0.000 -0.000 -0.000
 -0.000 -0.000  0.993  0.000  0.000
  0.001 -0.000  0.000  1.002  0.000
 -0.000 -0.000  0.000  0.000  0.986
atomic mag. moment =    -4.243131
N of occupied +U levels =   45.579879
 --- exit write_ns ---

     Number of k-points >= 100: set verbosity='high' to print the bands.

     the Fermi energy is    15.5991 ev

!    total energy              =  -14693.93238963 Ry
     Harris-Foulkes estimate   =  -14693.93237272 Ry
     estimated scf accuracy    <       0.00000069 Ry

     total all-electron energy =   -626921.528112 Ry

     The total energy is the sum of the following terms:

     one-electron contribution =    -698.39799038 Ry
     hartree contribution      =     651.60982460 Ry
     xc contribution           =    -738.14697708 Ry
     ewald contribution        =   -2207.56121140 Ry
     Hubbard energy            =       0.44710434 Ry
     one-center paw contrib.   =  -11701.88313970 Ry

     total magnetization       =     0.00 Bohr mag/cell
     absolute magnetization    =    36.78 Bohr mag/cell

     convergence has been achieved in  19 iterations

     Writing output data file mnau2.save/
 
     init_run     :    217.70s CPU    222.16s WALL (       1 calls)
     electrons    :  10307.53s CPU  10531.18s WALL (       1 calls)

     Called by init_run:
     wfcinit      :    215.68s CPU    219.80s WALL (       1 calls)
     potinit      :      0.95s CPU      1.15s WALL (       1 calls)
     hinit0       :      0.61s CPU      0.73s WALL (       1 calls)

     Called by electrons:
     c_bands      :   9079.25s CPU   9267.13s WALL (      19 calls)
     sum_band     :   1214.35s CPU   1246.71s WALL (      19 calls)
     v_of_rho     :      1.26s CPU      1.28s WALL (      20 calls)
     newd         :      3.50s CPU      3.53s WALL (      20 calls)
     PAW_pot      :      9.46s CPU      9.60s WALL (      20 calls)
     mix_rho      :      0.24s CPU      0.25s WALL (      19 calls)

     Called by c_bands:
     init_us_2    :     33.83s CPU     34.19s WALL (   20800 calls)
     cegterg      :   8878.08s CPU   9060.65s WALL (    9880 calls)

     Called by sum_band:
     sum_band:bec :      8.51s CPU      8.57s WALL (    9880 calls)
     addusdens    :      6.08s CPU      6.21s WALL (      19 calls)

     Called by *egterg:
     h_psi        :   5148.03s CPU   5261.58s WALL (   39326 calls)
     s_psi        :    383.39s CPU    384.03s WALL (   39846 calls)
     g_psi        :     10.09s CPU     10.17s WALL (   28926 calls)
     cdiaghg      :   2602.75s CPU   2669.85s WALL (   38806 calls)

     Called by h_psi:
     h_psi:pot    :   5027.08s CPU   5139.91s WALL (   39326 calls)
     h_psi:calbec :    399.90s CPU    414.33s WALL (   39326 calls)
     vloc_psi     :   4255.59s CPU   4353.35s WALL (   39326 calls)
     add_vuspsi   :    371.18s CPU    371.94s WALL (   39326 calls)
     vhpsi        :    112.80s CPU    113.47s WALL (   39326 calls)

     General routines
     calbec       :    643.92s CPU    665.63s WALL (   98932 calls)
     fft          :      1.04s CPU      1.07s WALL (     496 calls)
     ffts         :      0.07s CPU      0.07s WALL (      78 calls)
     fftw         :   5058.03s CPU   5175.89s WALL ( 9780510 calls)
     interpolate  :      0.11s CPU      0.12s WALL (      40 calls)
     davcio       :      0.01s CPU      3.75s WALL (     520 calls)
 
     Parallel routines
     fft_scatt_xy :    172.08s CPU    173.91s WALL ( 9781084 calls)
     fft_scatt_yz :   4057.13s CPU   4156.98s WALL ( 9781084 calls)

     Hubbard U routines
     new_ns       :     27.03s CPU     29.29s WALL (      19 calls)
     vhpsi        :    112.80s CPU    113.47s WALL (   39326 calls)
 
     PWSCF        :     2h56m CPU       56h 3m WALL

       2h
 
   This run was terminated on:  21: 7:47  29Mar2019            

=------------------------------------------------------------------------------=
   JOB DONE.
=------------------------------------------------------------------------------=
