
     Program PWSCF v.6.3 starts on 14Feb2019 at 15:41:45 

     This program is part of the open-source Quantum ESPRESSO suite
     for quantum simulation of materials; please cite
         "P. Giannozzi et al., J. Phys.:Condens. Matter 21 395502 (2009);
         "P. Giannozzi et al., J. Phys.:Condens. Matter 29 465901 (2017);
          URL http://www.quantum-espresso.org", 
     in publications or presentations arising from this work. More details at
     http://www.quantum-espresso.org/quote

     Parallel version (MPI), running on    16 processors

     MPI processes distributed on     1 nodes
     R & G space division:  proc/nbgrp/npool/nimage =      16
     Waiting for input...
     Reading input from standard input

     Current dimensions of program PWSCF are:
     Max number of different atomic species (ntypx) = 10
     Max number of k-points (npk) =  40000
     Max angular momentum in pseudopotentials (lmaxx) =  3
     Message from routine read_upf::
     Pseudo file ./pseudo/Mn.pbe-spn-kjpaw_psl.0.3.1.UPF has been successfully fixed on the fly.
To avoid this message in the future you can permanently fix 
 your pseudo files following instructions given in: 
https://gitlab.com/QEF/q-e/blob/master/upftools/how_to_fix_upf.md
               file Mn.pbe-spn-kjpaw_psl.0.3.1.UPF: wavefunction(s)  3P 3D renormalized
     Message from routine read_upf::
     Pseudo file ./pseudo/Mn.pbe-spn-kjpaw_psl.0.3.1.UPF has been successfully fixed on the fly.
To avoid this message in the future you can permanently fix 
 your pseudo files following instructions given in: 
https://gitlab.com/QEF/q-e/blob/master/upftools/how_to_fix_upf.md
               file Mn.pbe-spn-kjpaw_psl.0.3.1.UPF: wavefunction(s)  3P 3D renormalized
     Message from routine read_upf::
     Pseudo file ./pseudo/Au.pbe-dn-kjpaw_psl.0.1.UPF has been successfully fixed on the fly.
To avoid this message in the future you can permanently fix 
 your pseudo files following instructions given in: 
https://gitlab.com/QEF/q-e/blob/master/upftools/how_to_fix_upf.md
               file Au.pbe-dn-kjpaw_psl.0.1.UPF: wavefunction(s)  6S 6P 5D renormalized

     Subspace diagonalization in iterative solution of the eigenvalue problem:
     one sub-group per band group will be used
     scalapack distributed-memory algorithm (size of sub-group:  2*  2 procs)


     Parallelization info
     --------------------
     sticks:   dense  smooth     PW     G-vecs:    dense   smooth      PW
     Min          60      37     11                 3780     1761     297
     Max          61      38     12                 3793     1770     308
     Sum         973     593    177                60601    28191    4775



     bravais-lattice index     =            0
     lattice parameter (alat)  =       6.4153  a.u.
     unit-cell volume          =     690.6834 (a.u.)^3
     number of atoms/cell      =            6
     number of atomic types    =            3
     number of electrons       =        74.00
     number of Kohn-Sham states=           44
     kinetic-energy cutoff     =      45.0000  Ry
     charge density cutoff     =     300.0000  Ry
     convergence threshold     =      1.0E-06
     mixing beta               =       0.1000
     number of iterations used =            8  plain     mixing
     Exchange-correlation      = SLA PW PBX PBC ( 1  4  3  4 0 0)

     celldm(1)=   6.415316  celldm(2)=   0.000000  celldm(3)=   0.000000
     celldm(4)=   0.000000  celldm(5)=   0.000000  celldm(6)=   0.000000

     crystal axes: (cart. coord. in units of alat)
               a(1) = (   1.000000   0.000000   0.000000 )  
               a(2) = (   0.000000   1.000000   0.000000 )  
               a(3) = (   0.000000   0.000000   2.615923 )  

     reciprocal axes: (cart. coord. in units 2 pi/alat)
               b(1) = (  1.000000  0.000000  0.000000 )  
               b(2) = (  0.000000  1.000000  0.000000 )  
               b(3) = (  0.000000  0.000000  0.382274 )  


     PseudoPot. # 1 for Mn read from file:
     ./pseudo/Mn.pbe-spn-kjpaw_psl.0.3.1.UPF
     MD5 check sum: 7eef95dd2aae66803482eea66ebeebf1
     Pseudo is Projector augmented-wave + core cor, Zval = 15.0
     Generated using "atomic" code by A. Dal Corso v.5.0.99 svn rev. 10869
     Shape of augmentation charge: PSQ
     Using radial grid of 1187 points,  6 beta functions with: 
                l(1) =   0
                l(2) =   0
                l(3) =   1
                l(4) =   1
                l(5) =   2
                l(6) =   2
     Q(r) pseudized with 0 coefficients 


     PseudoPot. # 2 for Mn read from file:
     ./pseudo/Mn.pbe-spn-kjpaw_psl.0.3.1.UPF
     MD5 check sum: 7eef95dd2aae66803482eea66ebeebf1
     Pseudo is Projector augmented-wave + core cor, Zval = 15.0
     Generated using "atomic" code by A. Dal Corso v.5.0.99 svn rev. 10869
     Shape of augmentation charge: PSQ
     Using radial grid of 1187 points,  6 beta functions with: 
                l(1) =   0
                l(2) =   0
                l(3) =   1
                l(4) =   1
                l(5) =   2
                l(6) =   2
     Q(r) pseudized with 0 coefficients 


     PseudoPot. # 3 for Au read from file:
     ./pseudo/Au.pbe-dn-kjpaw_psl.0.1.UPF
     MD5 check sum: 5c9b92683623e7ae2ab3f8e525febab6
     Pseudo is Projector augmented-wave + core cor, Zval = 11.0
     Generated using "atomic" code by A. Dal Corso v.5.0.2 svn rev. 9415
     Shape of augmentation charge: PSQ
     Using radial grid of 1279 points,  6 beta functions with: 
                l(1) =   0
                l(2) =   0
                l(3) =   1
                l(4) =   1
                l(5) =   2
                l(6) =   2
     Q(r) pseudized with 0 coefficients 


     atomic species   valence    mass     pseudopotential
        Mn1           15.00    54.93800     Mn( 1.00)
        Mn2           15.00    54.93800     Mn( 1.00)
        Au            11.00   196.96600     Au( 1.00)

     Starting magnetic structure 
     atomic species   magnetization
        Mn1          0.800
        Mn2         -0.600
        Au           0.000

     16 Sym. Ops., with inversion, found



   Cartesian axes

     site n.     atom                  positions (alat units)
         1           Mn1 tau(   1) = (   0.0000000   0.0000000   0.0000000  )
         2           Mn2 tau(   2) = (   0.5000000   0.5000000   1.3079613  )
         3           Au  tau(   3) = (   0.5000000   0.5000000   2.1982094  )
         4           Au  tau(   4) = (   0.5000000   0.5000000   0.4177131  )
         5           Au  tau(   5) = (   0.0000000   0.0000000   0.8902482  )
         6           Au  tau(   6) = (   0.0000000   0.0000000   1.7256744  )

     number of k points=    75 (tetrahedron method)
                       cart. coord. in units 2pi/alat
        k(    1) = (   0.0000000   0.0000000   0.0000000), wk =   0.0019531
        k(    2) = (   0.0000000   0.0000000   0.0477843), wk =   0.0039062
        k(    3) = (   0.0000000   0.0000000   0.0955686), wk =   0.0039062
        k(    4) = (   0.0000000   0.0000000   0.1433529), wk =   0.0039062
        k(    5) = (   0.0000000   0.0000000  -0.1911372), wk =   0.0019531
        k(    6) = (   0.0000000   0.1250000   0.0000000), wk =   0.0078125
        k(    7) = (   0.0000000   0.1250000   0.0477843), wk =   0.0156250
        k(    8) = (   0.0000000   0.1250000   0.0955686), wk =   0.0156250
        k(    9) = (   0.0000000   0.1250000   0.1433529), wk =   0.0156250
        k(   10) = (   0.0000000   0.1250000  -0.1911372), wk =   0.0078125
        k(   11) = (   0.0000000   0.2500000   0.0000000), wk =   0.0078125
        k(   12) = (   0.0000000   0.2500000   0.0477843), wk =   0.0156250
        k(   13) = (   0.0000000   0.2500000   0.0955686), wk =   0.0156250
        k(   14) = (   0.0000000   0.2500000   0.1433529), wk =   0.0156250
        k(   15) = (   0.0000000   0.2500000  -0.1911372), wk =   0.0078125
        k(   16) = (   0.0000000   0.3750000   0.0000000), wk =   0.0078125
        k(   17) = (   0.0000000   0.3750000   0.0477843), wk =   0.0156250
        k(   18) = (   0.0000000   0.3750000   0.0955686), wk =   0.0156250
        k(   19) = (   0.0000000   0.3750000   0.1433529), wk =   0.0156250
        k(   20) = (   0.0000000   0.3750000  -0.1911372), wk =   0.0078125
        k(   21) = (   0.0000000  -0.5000000   0.0000000), wk =   0.0039062
        k(   22) = (   0.0000000  -0.5000000   0.0477843), wk =   0.0078125
        k(   23) = (   0.0000000  -0.5000000   0.0955686), wk =   0.0078125
        k(   24) = (   0.0000000  -0.5000000   0.1433529), wk =   0.0078125
        k(   25) = (   0.0000000  -0.5000000  -0.1911372), wk =   0.0039062
        k(   26) = (   0.1250000   0.1250000   0.0000000), wk =   0.0078125
        k(   27) = (   0.1250000   0.1250000   0.0477843), wk =   0.0156250
        k(   28) = (   0.1250000   0.1250000   0.0955686), wk =   0.0156250
        k(   29) = (   0.1250000   0.1250000   0.1433529), wk =   0.0156250
        k(   30) = (   0.1250000   0.1250000  -0.1911372), wk =   0.0078125
        k(   31) = (   0.1250000   0.2500000   0.0000000), wk =   0.0156250
        k(   32) = (   0.1250000   0.2500000   0.0477843), wk =   0.0312500
        k(   33) = (   0.1250000   0.2500000   0.0955686), wk =   0.0312500
        k(   34) = (   0.1250000   0.2500000   0.1433529), wk =   0.0312500
        k(   35) = (   0.1250000   0.2500000  -0.1911372), wk =   0.0156250
        k(   36) = (   0.1250000   0.3750000   0.0000000), wk =   0.0156250
        k(   37) = (   0.1250000   0.3750000   0.0477843), wk =   0.0312500
        k(   38) = (   0.1250000   0.3750000   0.0955686), wk =   0.0312500
        k(   39) = (   0.1250000   0.3750000   0.1433529), wk =   0.0312500
        k(   40) = (   0.1250000   0.3750000  -0.1911372), wk =   0.0156250
        k(   41) = (   0.1250000  -0.5000000   0.0000000), wk =   0.0078125
        k(   42) = (   0.1250000  -0.5000000   0.0477843), wk =   0.0156250
        k(   43) = (   0.1250000  -0.5000000   0.0955686), wk =   0.0156250
        k(   44) = (   0.1250000  -0.5000000   0.1433529), wk =   0.0156250
        k(   45) = (   0.1250000  -0.5000000  -0.1911372), wk =   0.0078125
        k(   46) = (   0.2500000   0.2500000   0.0000000), wk =   0.0078125
        k(   47) = (   0.2500000   0.2500000   0.0477843), wk =   0.0156250
        k(   48) = (   0.2500000   0.2500000   0.0955686), wk =   0.0156250
        k(   49) = (   0.2500000   0.2500000   0.1433529), wk =   0.0156250
        k(   50) = (   0.2500000   0.2500000  -0.1911372), wk =   0.0078125
        k(   51) = (   0.2500000   0.3750000   0.0000000), wk =   0.0156250
        k(   52) = (   0.2500000   0.3750000   0.0477843), wk =   0.0312500
        k(   53) = (   0.2500000   0.3750000   0.0955686), wk =   0.0312500
        k(   54) = (   0.2500000   0.3750000   0.1433529), wk =   0.0312500
        k(   55) = (   0.2500000   0.3750000  -0.1911372), wk =   0.0156250
        k(   56) = (   0.2500000  -0.5000000   0.0000000), wk =   0.0078125
        k(   57) = (   0.2500000  -0.5000000   0.0477843), wk =   0.0156250
        k(   58) = (   0.2500000  -0.5000000   0.0955686), wk =   0.0156250
        k(   59) = (   0.2500000  -0.5000000   0.1433529), wk =   0.0156250
        k(   60) = (   0.2500000  -0.5000000  -0.1911372), wk =   0.0078125
        k(   61) = (   0.3750000   0.3750000   0.0000000), wk =   0.0078125
        k(   62) = (   0.3750000   0.3750000   0.0477843), wk =   0.0156250
        k(   63) = (   0.3750000   0.3750000   0.0955686), wk =   0.0156250
        k(   64) = (   0.3750000   0.3750000   0.1433529), wk =   0.0156250
        k(   65) = (   0.3750000   0.3750000  -0.1911372), wk =   0.0078125
        k(   66) = (   0.3750000  -0.5000000   0.0000000), wk =   0.0078125
        k(   67) = (   0.3750000  -0.5000000   0.0477843), wk =   0.0156250
        k(   68) = (   0.3750000  -0.5000000   0.0955686), wk =   0.0156250
        k(   69) = (   0.3750000  -0.5000000   0.1433529), wk =   0.0156250
        k(   70) = (   0.3750000  -0.5000000  -0.1911372), wk =   0.0078125
        k(   71) = (  -0.5000000  -0.5000000   0.0000000), wk =   0.0019531
        k(   72) = (  -0.5000000  -0.5000000   0.0477843), wk =   0.0039062
        k(   73) = (  -0.5000000  -0.5000000   0.0955686), wk =   0.0039062
        k(   74) = (  -0.5000000  -0.5000000   0.1433529), wk =   0.0039062
        k(   75) = (  -0.5000000  -0.5000000  -0.1911372), wk =   0.0019531

     Dense  grid:    60601 G-vectors     FFT dimensions: (  36,  36,  96)

     Smooth grid:    28191 G-vectors     FFT dimensions: (  27,  27,  72)

     Estimated max dynamical RAM per process >      41.75 MB

     Estimated total dynamical RAM >     667.93 MB
     Generating pointlists ...
     new r_m :   0.3388 (alat units)  2.1733 (a.u.) for type    1
     new r_m :   0.3388 (alat units)  2.1733 (a.u.) for type    2
     new r_m :   0.3388 (alat units)  2.1733 (a.u.) for type    3

     Check: negative/imaginary core charge=   -0.000007    0.000000

     Initial potential from superposition of free atoms

     starting charge   73.99857, renormalised to   74.00000
     Starting wfcs are   56 randomized atomic wfcs
     Checking if some PAW data can be deallocated... 

     total cpu time spent up to now is       22.7 secs

     Self-consistent Calculation

     iteration #  1     ecut=    45.00 Ry     beta= 0.10
     Davidson diagonalization with overlap
     ethr =  1.00E-02,  avg # of iterations =  2.7

     total cpu time spent up to now is       47.3 secs

     total energy              =   -3672.45541233 Ry
     Harris-Foulkes estimate   =   -3672.26438825 Ry
     estimated scf accuracy    <       2.35872733 Ry

     total magnetization       =     0.39 Bohr mag/cell
     absolute magnetization    =     9.88 Bohr mag/cell

     iteration #  2     ecut=    45.00 Ry     beta= 0.10
     Davidson diagonalization with overlap
     ethr =  3.19E-03,  avg # of iterations =  1.0

     total cpu time spent up to now is       64.3 secs

     total energy              =   -3673.04692401 Ry
     Harris-Foulkes estimate   =   -3672.48089191 Ry
     estimated scf accuracy    <       1.75341480 Ry

     total magnetization       =     0.29 Bohr mag/cell
     absolute magnetization    =     9.90 Bohr mag/cell

     iteration #  3     ecut=    45.00 Ry     beta= 0.10
     Davidson diagonalization with overlap
     ethr =  2.37E-03,  avg # of iterations =  2.0

     total cpu time spent up to now is       84.5 secs

     total energy              =   -3673.33497735 Ry
     Harris-Foulkes estimate   =   -3673.15885951 Ry
     estimated scf accuracy    <       0.71671651 Ry

     total magnetization       =     0.21 Bohr mag/cell
     absolute magnetization    =     9.68 Bohr mag/cell

     iteration #  4     ecut=    45.00 Ry     beta= 0.10
     Davidson diagonalization with overlap
     ethr =  9.69E-04,  avg # of iterations =  1.1

     total cpu time spent up to now is      101.7 secs

     total energy              =   -3673.58684745 Ry
     Harris-Foulkes estimate   =   -3673.34331106 Ry
     estimated scf accuracy    <       0.42508481 Ry

     total magnetization       =     0.20 Bohr mag/cell
     absolute magnetization    =     9.58 Bohr mag/cell

     iteration #  5     ecut=    45.00 Ry     beta= 0.10
     Davidson diagonalization with overlap
     ethr =  5.74E-04,  avg # of iterations =  3.3

     total cpu time spent up to now is      128.5 secs

     total energy              =   -3673.62486052 Ry
     Harris-Foulkes estimate   =   -3673.62505498 Ry
     estimated scf accuracy    <       0.02977008 Ry

     total magnetization       =     0.08 Bohr mag/cell
     absolute magnetization    =     8.97 Bohr mag/cell

     iteration #  6     ecut=    45.00 Ry     beta= 0.10
     Davidson diagonalization with overlap
     ethr =  4.02E-05,  avg # of iterations =  2.8

     total cpu time spent up to now is      152.4 secs

     total energy              =   -3673.62358138 Ry
     Harris-Foulkes estimate   =   -3673.62588172 Ry
     estimated scf accuracy    <       0.03108880 Ry

     total magnetization       =     0.09 Bohr mag/cell
     absolute magnetization    =     8.97 Bohr mag/cell

     iteration #  7     ecut=    45.00 Ry     beta= 0.10
     Davidson diagonalization with overlap
     ethr =  4.02E-05,  avg # of iterations =  1.0

     total cpu time spent up to now is      169.3 secs

     total energy              =   -3673.62344797 Ry
     Harris-Foulkes estimate   =   -3673.62404673 Ry
     estimated scf accuracy    <       0.03804189 Ry

     total magnetization       =     0.14 Bohr mag/cell
     absolute magnetization    =     8.98 Bohr mag/cell

     iteration #  8     ecut=    45.00 Ry     beta= 0.10
     Davidson diagonalization with overlap
     ethr =  4.02E-05,  avg # of iterations =  1.7

     total cpu time spent up to now is      189.4 secs

     total energy              =   -3673.62031986 Ry
     Harris-Foulkes estimate   =   -3673.62513768 Ry
     estimated scf accuracy    <       0.03148327 Ry

     total magnetization       =     0.08 Bohr mag/cell
     absolute magnetization    =     8.99 Bohr mag/cell

     iteration #  9     ecut=    45.00 Ry     beta= 0.10
     Davidson diagonalization with overlap
     ethr =  4.02E-05,  avg # of iterations =  2.5

     total cpu time spent up to now is      215.0 secs

     total energy              =   -3673.62179935 Ry
     Harris-Foulkes estimate   =   -3673.62761510 Ry
     estimated scf accuracy    <       0.04536425 Ry

     total magnetization       =     0.17 Bohr mag/cell
     absolute magnetization    =     8.84 Bohr mag/cell

     iteration # 10     ecut=    45.00 Ry     beta= 0.10
     Davidson diagonalization with overlap
     ethr =  4.02E-05,  avg # of iterations =  2.2

     total cpu time spent up to now is      236.1 secs

     total energy              =   -3673.62547112 Ry
     Harris-Foulkes estimate   =   -3673.62553195 Ry
     estimated scf accuracy    <       0.01154940 Ry

     total magnetization       =     0.07 Bohr mag/cell
     absolute magnetization    =     8.88 Bohr mag/cell

     iteration # 11     ecut=    45.00 Ry     beta= 0.10
     Davidson diagonalization with overlap
     ethr =  1.56E-05,  avg # of iterations =  1.1

     total cpu time spent up to now is      253.4 secs

     total energy              =   -3673.62551407 Ry
     Harris-Foulkes estimate   =   -3673.62561719 Ry
     estimated scf accuracy    <       0.01310960 Ry

     total magnetization       =     0.08 Bohr mag/cell
     absolute magnetization    =     8.87 Bohr mag/cell

     iteration # 12     ecut=    45.00 Ry     beta= 0.10
     Davidson diagonalization with overlap
     ethr =  1.56E-05,  avg # of iterations =  1.0

     total cpu time spent up to now is      270.2 secs

     total energy              =   -3673.62468807 Ry
     Harris-Foulkes estimate   =   -3673.62565561 Ry
     estimated scf accuracy    <       0.01427718 Ry

     total magnetization       =     0.09 Bohr mag/cell
     absolute magnetization    =     8.86 Bohr mag/cell

     iteration # 13     ecut=    45.00 Ry     beta= 0.10
     Davidson diagonalization with overlap
     ethr =  1.56E-05,  avg # of iterations =  2.0

     total cpu time spent up to now is      290.8 secs

     total energy              =   -3673.62581302 Ry
     Harris-Foulkes estimate   =   -3673.62621894 Ry
     estimated scf accuracy    <       0.00656629 Ry

     total magnetization       =     0.02 Bohr mag/cell
     absolute magnetization    =     8.85 Bohr mag/cell

     iteration # 14     ecut=    45.00 Ry     beta= 0.10
     Davidson diagonalization with overlap
     ethr =  8.87E-06,  avg # of iterations =  1.1

     total cpu time spent up to now is      308.0 secs

     total energy              =   -3673.62564210 Ry
     Harris-Foulkes estimate   =   -3673.62595422 Ry
     estimated scf accuracy    <       0.00360163 Ry

     total magnetization       =     0.02 Bohr mag/cell
     absolute magnetization    =     8.85 Bohr mag/cell

     iteration # 15     ecut=    45.00 Ry     beta= 0.10
     Davidson diagonalization with overlap
     ethr =  4.87E-06,  avg # of iterations =  1.9

     total cpu time spent up to now is      328.2 secs

     total energy              =   -3673.62562925 Ry
     Harris-Foulkes estimate   =   -3673.62580861 Ry
     estimated scf accuracy    <       0.00149644 Ry

     total magnetization       =     0.01 Bohr mag/cell
     absolute magnetization    =     8.83 Bohr mag/cell

     iteration # 16     ecut=    45.00 Ry     beta= 0.10
     Davidson diagonalization with overlap
     ethr =  2.02E-06,  avg # of iterations =  1.5

     total cpu time spent up to now is      346.4 secs

     total energy              =   -3673.62552238 Ry
     Harris-Foulkes estimate   =   -3673.62566343 Ry
     estimated scf accuracy    <       0.00064354 Ry

     total magnetization       =     0.00 Bohr mag/cell
     absolute magnetization    =     8.82 Bohr mag/cell

     iteration # 17     ecut=    45.00 Ry     beta= 0.10
     Davidson diagonalization with overlap
     ethr =  8.70E-07,  avg # of iterations =  2.1

     total cpu time spent up to now is      367.0 secs

     total energy              =   -3673.62557901 Ry
     Harris-Foulkes estimate   =   -3673.62557715 Ry
     estimated scf accuracy    <       0.00003169 Ry

     total magnetization       =     0.01 Bohr mag/cell
     absolute magnetization    =     8.82 Bohr mag/cell

     iteration # 18     ecut=    45.00 Ry     beta= 0.10
     Davidson diagonalization with overlap
     ethr =  4.28E-08,  avg # of iterations =  3.2

     total cpu time spent up to now is      393.1 secs

     total energy              =   -3673.62558713 Ry
     Harris-Foulkes estimate   =   -3673.62558255 Ry
     estimated scf accuracy    <       0.00001535 Ry

     total magnetization       =     0.00 Bohr mag/cell
     absolute magnetization    =     8.82 Bohr mag/cell

     iteration # 19     ecut=    45.00 Ry     beta= 0.10
     Davidson diagonalization with overlap
     ethr =  2.07E-08,  avg # of iterations =  2.8

     total cpu time spent up to now is      420.3 secs

     total energy              =   -3673.62558908 Ry
     Harris-Foulkes estimate   =   -3673.62559208 Ry
     estimated scf accuracy    <       0.00002680 Ry

     total magnetization       =     0.00 Bohr mag/cell
     absolute magnetization    =     8.82 Bohr mag/cell

     iteration # 20     ecut=    45.00 Ry     beta= 0.10
     Davidson diagonalization with overlap
     ethr =  2.07E-08,  avg # of iterations =  2.6

     total cpu time spent up to now is      444.1 secs

     total energy              =   -3673.62559178 Ry
     Harris-Foulkes estimate   =   -3673.62559232 Ry
     estimated scf accuracy    <       0.00000720 Ry

     total magnetization       =     0.00 Bohr mag/cell
     absolute magnetization    =     8.82 Bohr mag/cell

     iteration # 21     ecut=    45.00 Ry     beta= 0.10
     Davidson diagonalization with overlap
     ethr =  9.73E-09,  avg # of iterations =  1.1

     total cpu time spent up to now is      461.1 secs

     total energy              =   -3673.62559215 Ry
     Harris-Foulkes estimate   =   -3673.62559251 Ry
     estimated scf accuracy    <       0.00000304 Ry

     total magnetization       =     0.00 Bohr mag/cell
     absolute magnetization    =     8.82 Bohr mag/cell

     iteration # 22     ecut=    45.00 Ry     beta= 0.10
     Davidson diagonalization with overlap
     ethr =  4.11E-09,  avg # of iterations =  2.5

     Magnetic moment per site:
     atom:    1    charge:   13.5784    magn:    4.0013    constr:    0.0000
     atom:    2    charge:   13.5787    magn:   -4.0000    constr:    0.0000
     atom:    3    charge:    9.1212    magn:    0.0524    constr:    0.0000
     atom:    4    charge:    9.1212    magn:    0.0524    constr:    0.0000
     atom:    5    charge:    9.1211    magn:   -0.0523    constr:    0.0000
     atom:    6    charge:    9.1211    magn:   -0.0523    constr:    0.0000

     total cpu time spent up to now is      483.8 secs

     End of self-consistent calculation

     Number of k-points >= 100: set verbosity='high' to print the bands.

     the Fermi energy is    14.8478 ev

!    total energy              =   -3673.62559411 Ry
     Harris-Foulkes estimate   =   -3673.62559294 Ry
     estimated scf accuracy    <       0.00000035 Ry

     total all-electron energy =   -156730.524525 Ry

     The total energy is the sum of the following terms:

     one-electron contribution =    -182.85686910 Ry
     hartree contribution      =     165.53962829 Ry
     xc contribution           =    -184.30128895 Ry
     ewald contribution        =    -546.58413949 Ry
     one-center paw contrib.   =   -2925.42292486 Ry

     total magnetization       =     0.00 Bohr mag/cell
     absolute magnetization    =     8.82 Bohr mag/cell

     convergence has been achieved in  22 iterations

     Writing output data file mnau2.save/

     init_run     :      9.27s CPU      9.62s WALL (       1 calls)
     electrons    :    449.56s CPU    463.64s WALL (       1 calls)

     Called by init_run:
     wfcinit      :      6.73s CPU      6.99s WALL (       1 calls)
     potinit      :      1.26s CPU      1.29s WALL (       1 calls)
     hinit0       :      1.06s CPU      1.11s WALL (       1 calls)

     Called by electrons:
     c_bands      :    368.06s CPU    376.96s WALL (      22 calls)
     sum_band     :     58.27s CPU     60.23s WALL (      22 calls)
     v_of_rho     :      1.04s CPU      1.04s WALL (      23 calls)
     newd         :      2.98s CPU      3.05s WALL (      23 calls)
     PAW_pot      :     19.93s CPU     20.13s WALL (      23 calls)
     mix_rho      :      0.20s CPU      0.21s WALL (      22 calls)

     Called by c_bands:
     init_us_2    :      4.41s CPU      4.59s WALL (    6750 calls)
     cegterg      :    354.81s CPU    362.37s WALL (    3300 calls)

     Called by sum_band:
     sum_band:bec :      0.61s CPU      0.61s WALL (    3300 calls)
     addusdens    :      5.68s CPU      5.94s WALL (      22 calls)

     Called by *egterg:
     h_psi        :    151.77s CPU    158.81s WALL (    9916 calls)
     s_psi        :     13.97s CPU     14.08s WALL (    9916 calls)
     g_psi        :      0.67s CPU      0.68s WALL (    6466 calls)
     cdiaghg      :    148.84s CPU    149.21s WALL (    9766 calls)

     Called by h_psi:
     h_psi:pot    :    150.61s CPU    157.63s WALL (    9916 calls)
     h_psi:calbec :     23.38s CPU     23.74s WALL (    9916 calls)
     vloc_psi     :    113.73s CPU    120.30s WALL (    9916 calls)
     add_vuspsi   :     13.39s CPU     13.49s WALL (    9916 calls)

     General routines
     calbec       :     32.12s CPU     32.59s WALL (   13216 calls)
     fft          :      0.57s CPU      0.58s WALL (     571 calls)
     ffts         :      0.04s CPU      0.04s WALL (      90 calls)
     fftw         :    129.99s CPU    137.46s WALL (  779942 calls)
     interpolate  :      0.06s CPU      0.06s WALL (      46 calls)

     Parallel routines
     fft_scatt_xy :     12.40s CPU     13.08s WALL (  780603 calls)
     fft_scatt_yz :     66.77s CPU     70.53s WALL (  780603 calls)

     PWSCF        :  7m48.94s CPU     8m14.35s WALL


   This run was terminated on:  15:50: 0  14Feb2019            

=------------------------------------------------------------------------------=
   JOB DONE.
=------------------------------------------------------------------------------=
