
     Program PWSCF v.6.3 starts on 14Feb2019 at 14:53:39 

     This program is part of the open-source Quantum ESPRESSO suite
     for quantum simulation of materials; please cite
         "P. Giannozzi et al., J. Phys.:Condens. Matter 21 395502 (2009);
         "P. Giannozzi et al., J. Phys.:Condens. Matter 29 465901 (2017);
          URL http://www.quantum-espresso.org", 
     in publications or presentations arising from this work. More details at
     http://www.quantum-espresso.org/quote

     Parallel version (MPI), running on    16 processors

     MPI processes distributed on     1 nodes
     R & G space division:  proc/nbgrp/npool/nimage =      16
     Waiting for input...
     Reading input from standard input

     Current dimensions of program PWSCF are:
     Max number of different atomic species (ntypx) = 10
     Max number of k-points (npk) =  40000
     Max angular momentum in pseudopotentials (lmaxx) =  3
     Message from routine read_upf::
     Pseudo file ./pseudo/Mn.pbe-spn-kjpaw_psl.0.3.1.UPF has been successfully fixed on the fly.
To avoid this message in the future you can permanently fix 
 your pseudo files following instructions given in: 
https://gitlab.com/QEF/q-e/blob/master/upftools/how_to_fix_upf.md
               file Mn.pbe-spn-kjpaw_psl.0.3.1.UPF: wavefunction(s)  3P 3D renormalized
     Message from routine read_upf::
     Pseudo file ./pseudo/Mn.pbe-spn-kjpaw_psl.0.3.1.UPF has been successfully fixed on the fly.
To avoid this message in the future you can permanently fix 
 your pseudo files following instructions given in: 
https://gitlab.com/QEF/q-e/blob/master/upftools/how_to_fix_upf.md
               file Mn.pbe-spn-kjpaw_psl.0.3.1.UPF: wavefunction(s)  3P 3D renormalized
     Message from routine read_upf::
     Pseudo file ./pseudo/Au.pbe-dn-kjpaw_psl.0.1.UPF has been successfully fixed on the fly.
To avoid this message in the future you can permanently fix 
 your pseudo files following instructions given in: 
https://gitlab.com/QEF/q-e/blob/master/upftools/how_to_fix_upf.md
               file Au.pbe-dn-kjpaw_psl.0.1.UPF: wavefunction(s)  6S 6P 5D renormalized

     Subspace diagonalization in iterative solution of the eigenvalue problem:
     one sub-group per band group will be used
     scalapack distributed-memory algorithm (size of sub-group:  2*  2 procs)


     Parallelization info
     --------------------
     sticks:   dense  smooth     PW     G-vecs:    dense   smooth      PW
     Min          60      37     11                 3780     1761     297
     Max          61      38     12                 3793     1770     308
     Sum         973     593    177                60601    28191    4775



     bravais-lattice index     =            0
     lattice parameter (alat)  =       6.4153  a.u.
     unit-cell volume          =     690.6834 (a.u.)^3
     number of atoms/cell      =            6
     number of atomic types    =            3
     number of electrons       =        74.00
     number of Kohn-Sham states=           44
     kinetic-energy cutoff     =      45.0000  Ry
     charge density cutoff     =     300.0000  Ry
     convergence threshold     =      1.0E-06
     mixing beta               =       0.1000
     number of iterations used =            8  plain     mixing
     Exchange-correlation      = SLA PW PBX PBC ( 1  4  3  4 0 0)

     celldm(1)=   6.415316  celldm(2)=   0.000000  celldm(3)=   0.000000
     celldm(4)=   0.000000  celldm(5)=   0.000000  celldm(6)=   0.000000

     crystal axes: (cart. coord. in units of alat)
               a(1) = (   1.000000   0.000000   0.000000 )  
               a(2) = (   0.000000   1.000000   0.000000 )  
               a(3) = (   0.000000   0.000000   2.615923 )  

     reciprocal axes: (cart. coord. in units 2 pi/alat)
               b(1) = (  1.000000  0.000000  0.000000 )  
               b(2) = (  0.000000  1.000000  0.000000 )  
               b(3) = (  0.000000  0.000000  0.382274 )  


     PseudoPot. # 1 for Mn read from file:
     ./pseudo/Mn.pbe-spn-kjpaw_psl.0.3.1.UPF
     MD5 check sum: 7eef95dd2aae66803482eea66ebeebf1
     Pseudo is Projector augmented-wave + core cor, Zval = 15.0
     Generated using "atomic" code by A. Dal Corso v.5.0.99 svn rev. 10869
     Shape of augmentation charge: PSQ
     Using radial grid of 1187 points,  6 beta functions with: 
                l(1) =   0
                l(2) =   0
                l(3) =   1
                l(4) =   1
                l(5) =   2
                l(6) =   2
     Q(r) pseudized with 0 coefficients 


     PseudoPot. # 2 for Mn read from file:
     ./pseudo/Mn.pbe-spn-kjpaw_psl.0.3.1.UPF
     MD5 check sum: 7eef95dd2aae66803482eea66ebeebf1
     Pseudo is Projector augmented-wave + core cor, Zval = 15.0
     Generated using "atomic" code by A. Dal Corso v.5.0.99 svn rev. 10869
     Shape of augmentation charge: PSQ
     Using radial grid of 1187 points,  6 beta functions with: 
                l(1) =   0
                l(2) =   0
                l(3) =   1
                l(4) =   1
                l(5) =   2
                l(6) =   2
     Q(r) pseudized with 0 coefficients 


     PseudoPot. # 3 for Au read from file:
     ./pseudo/Au.pbe-dn-kjpaw_psl.0.1.UPF
     MD5 check sum: 5c9b92683623e7ae2ab3f8e525febab6
     Pseudo is Projector augmented-wave + core cor, Zval = 11.0
     Generated using "atomic" code by A. Dal Corso v.5.0.2 svn rev. 9415
     Shape of augmentation charge: PSQ
     Using radial grid of 1279 points,  6 beta functions with: 
                l(1) =   0
                l(2) =   0
                l(3) =   1
                l(4) =   1
                l(5) =   2
                l(6) =   2
     Q(r) pseudized with 0 coefficients 


     atomic species   valence    mass     pseudopotential
        Mn1           15.00    54.93800     Mn( 1.00)
        Mn2           15.00    54.93800     Mn( 1.00)
        Au            11.00   196.96600     Au( 1.00)

     Starting magnetic structure 
     atomic species   magnetization
        Mn1          0.800
        Mn2         -0.600
        Au           0.000

     16 Sym. Ops., with inversion, found



   Cartesian axes

     site n.     atom                  positions (alat units)
         1           Mn1 tau(   1) = (   0.0000000   0.0000000   0.0000000  )
         2           Mn2 tau(   2) = (   0.5000000   0.5000000   1.3079613  )
         3           Au  tau(   3) = (   0.5000000   0.5000000   2.1982094  )
         4           Au  tau(   4) = (   0.5000000   0.5000000   0.4177131  )
         5           Au  tau(   5) = (   0.0000000   0.0000000   0.8902482  )
         6           Au  tau(   6) = (   0.0000000   0.0000000   1.7256744  )

     number of k points=   405 (tetrahedron method)

     Number of k-points >= 100: set verbosity='high' to print them.

     Dense  grid:    60601 G-vectors     FFT dimensions: (  36,  36,  96)

     Smooth grid:    28191 G-vectors     FFT dimensions: (  27,  27,  72)

     Estimated max dynamical RAM per process >     139.23 MB

     Estimated total dynamical RAM >       2.18 GB
     Generating pointlists ...
     new r_m :   0.3388 (alat units)  2.1733 (a.u.) for type    1
     new r_m :   0.3388 (alat units)  2.1733 (a.u.) for type    2
     new r_m :   0.3388 (alat units)  2.1733 (a.u.) for type    3

     Check: negative/imaginary core charge=   -0.000007    0.000000

     Initial potential from superposition of free atoms

     starting charge   73.99857, renormalised to   74.00000
     Starting wfcs are   56 randomized atomic wfcs
     Checking if some PAW data can be deallocated... 

     total cpu time spent up to now is       16.9 secs

     Self-consistent Calculation

     iteration #  1     ecut=    45.00 Ry     beta= 0.10
     Davidson diagonalization with overlap
     ethr =  1.00E-02,  avg # of iterations =  2.7

     total cpu time spent up to now is       58.8 secs

     total energy              =   -3672.45648219 Ry
     Harris-Foulkes estimate   =   -3672.26480764 Ry
     estimated scf accuracy    <       2.35498334 Ry

     total magnetization       =     0.33 Bohr mag/cell
     absolute magnetization    =     9.88 Bohr mag/cell

     iteration #  2     ecut=    45.00 Ry     beta= 0.10
     Davidson diagonalization with overlap
     ethr =  3.18E-03,  avg # of iterations =  1.0

     total cpu time spent up to now is       86.8 secs

     total energy              =   -3673.05474953 Ry
     Harris-Foulkes estimate   =   -3672.48153130 Ry
     estimated scf accuracy    <       1.75434184 Ry

     total magnetization       =     0.25 Bohr mag/cell
     absolute magnetization    =     9.90 Bohr mag/cell

     iteration #  3     ecut=    45.00 Ry     beta= 0.10
     Davidson diagonalization with overlap
     ethr =  2.37E-03,  avg # of iterations =  2.0

     total cpu time spent up to now is      121.3 secs

     total energy              =   -3673.33222171 Ry
     Harris-Foulkes estimate   =   -3673.17127159 Ry
     estimated scf accuracy    <       0.71288261 Ry

     total magnetization       =     0.18 Bohr mag/cell
     absolute magnetization    =     9.67 Bohr mag/cell

     iteration #  4     ecut=    45.00 Ry     beta= 0.10
     Davidson diagonalization with overlap
     ethr =  9.63E-04,  avg # of iterations =  1.1

     total cpu time spent up to now is      150.3 secs

     total energy              =   -3673.58658706 Ry
     Harris-Foulkes estimate   =   -3673.34031828 Ry
     estimated scf accuracy    <       0.43125454 Ry

     total magnetization       =     0.16 Bohr mag/cell
     absolute magnetization    =     9.58 Bohr mag/cell

     iteration #  5     ecut=    45.00 Ry     beta= 0.10
     Davidson diagonalization with overlap
     ethr =  5.83E-04,  avg # of iterations =  3.2

     total cpu time spent up to now is      196.6 secs

     total energy              =   -3673.62537984 Ry
     Harris-Foulkes estimate   =   -3673.62573515 Ry
     estimated scf accuracy    <       0.03053853 Ry

     total magnetization       =     0.06 Bohr mag/cell
     absolute magnetization    =     8.98 Bohr mag/cell

     iteration #  6     ecut=    45.00 Ry     beta= 0.10
     Davidson diagonalization with overlap
     ethr =  4.13E-05,  avg # of iterations =  2.7

     total cpu time spent up to now is      237.1 secs

     total energy              =   -3673.62376111 Ry
     Harris-Foulkes estimate   =   -3673.62630728 Ry
     estimated scf accuracy    <       0.03274074 Ry

     total magnetization       =     0.06 Bohr mag/cell
     absolute magnetization    =     8.98 Bohr mag/cell

     iteration #  7     ecut=    45.00 Ry     beta= 0.10
     Davidson diagonalization with overlap
     ethr =  4.13E-05,  avg # of iterations =  1.0

     total cpu time spent up to now is      265.3 secs

     total energy              =   -3673.62299776 Ry
     Harris-Foulkes estimate   =   -3673.62452568 Ry
     estimated scf accuracy    <       0.03581373 Ry

     total magnetization       =     0.11 Bohr mag/cell
     absolute magnetization    =     8.96 Bohr mag/cell

     iteration #  8     ecut=    45.00 Ry     beta= 0.10
     Davidson diagonalization with overlap
     ethr =  4.13E-05,  avg # of iterations =  2.0

     total cpu time spent up to now is      300.1 secs

     total energy              =   -3673.62322611 Ry
     Harris-Foulkes estimate   =   -3673.62547844 Ry
     estimated scf accuracy    <       0.01420082 Ry

     total magnetization       =     0.04 Bohr mag/cell
     absolute magnetization    =     8.94 Bohr mag/cell

     iteration #  9     ecut=    45.00 Ry     beta= 0.10
     Davidson diagonalization with overlap
     ethr =  1.92E-05,  avg # of iterations =  2.4

     total cpu time spent up to now is      339.8 secs

     total energy              =   -3673.62433155 Ry
     Harris-Foulkes estimate   =   -3673.62613627 Ry
     estimated scf accuracy    <       0.01283004 Ry

     total magnetization       =     0.06 Bohr mag/cell
     absolute magnetization    =     8.86 Bohr mag/cell

     iteration # 10     ecut=    45.00 Ry     beta= 0.10
     Davidson diagonalization with overlap
     ethr =  1.73E-05,  avg # of iterations =  1.9

     total cpu time spent up to now is      373.8 secs

     total energy              =   -3673.62525975 Ry
     Harris-Foulkes estimate   =   -3673.62555009 Ry
     estimated scf accuracy    <       0.00320470 Ry

     total magnetization       =     0.03 Bohr mag/cell
     absolute magnetization    =     8.87 Bohr mag/cell

     iteration # 11     ecut=    45.00 Ry     beta= 0.10
     Davidson diagonalization with overlap
     ethr =  4.33E-06,  avg # of iterations =  3.3

     total cpu time spent up to now is      422.3 secs

     total energy              =   -3673.62556077 Ry
     Harris-Foulkes estimate   =   -3673.62604630 Ry
     estimated scf accuracy    <       0.00244040 Ry

     total magnetization       =     0.00 Bohr mag/cell
     absolute magnetization    =     8.83 Bohr mag/cell

     iteration # 12     ecut=    45.00 Ry     beta= 0.10
     Davidson diagonalization with overlap
     ethr =  3.30E-06,  avg # of iterations =  2.5

     total cpu time spent up to now is      461.7 secs

     total energy              =   -3673.62594822 Ry
     Harris-Foulkes estimate   =   -3673.62600166 Ry
     estimated scf accuracy    <       0.00022062 Ry

     total magnetization       =     0.00 Bohr mag/cell
     absolute magnetization    =     8.83 Bohr mag/cell

     iteration # 13     ecut=    45.00 Ry     beta= 0.10
     Davidson diagonalization with overlap
     ethr =  2.98E-07,  avg # of iterations =  2.1

     total cpu time spent up to now is      502.7 secs

     total energy              =   -3673.62600008 Ry
     Harris-Foulkes estimate   =   -3673.62598182 Ry
     estimated scf accuracy    <       0.00006279 Ry

     total magnetization       =     0.00 Bohr mag/cell
     absolute magnetization    =     8.84 Bohr mag/cell

     iteration # 14     ecut=    45.00 Ry     beta= 0.10
     Davidson diagonalization with overlap
     ethr =  8.49E-08,  avg # of iterations =  2.1

     total cpu time spent up to now is      539.6 secs

     total energy              =   -3673.62600819 Ry
     Harris-Foulkes estimate   =   -3673.62600782 Ry
     estimated scf accuracy    <       0.00001244 Ry

     total magnetization       =     0.00 Bohr mag/cell
     absolute magnetization    =     8.84 Bohr mag/cell

     iteration # 15     ecut=    45.00 Ry     beta= 0.10
     Davidson diagonalization with overlap
     ethr =  1.68E-08,  avg # of iterations =  2.4

     total cpu time spent up to now is      577.5 secs

     total energy              =   -3673.62600983 Ry
     Harris-Foulkes estimate   =   -3673.62600871 Ry
     estimated scf accuracy    <       0.00000193 Ry

     total magnetization       =     0.00 Bohr mag/cell
     absolute magnetization    =     8.84 Bohr mag/cell

     iteration # 16     ecut=    45.00 Ry     beta= 0.10
     Davidson diagonalization with overlap
     ethr =  2.61E-09,  avg # of iterations =  3.3

     Magnetic moment per site:
     atom:    1    charge:   13.5781    magn:    4.0066    constr:    0.0000
     atom:    2    charge:   13.5775    magn:   -4.0069    constr:    0.0000
     atom:    3    charge:    9.1215    magn:    0.0543    constr:    0.0000
     atom:    4    charge:    9.1215    magn:    0.0543    constr:    0.0000
     atom:    5    charge:    9.1211    magn:   -0.0543    constr:    0.0000
     atom:    6    charge:    9.1211    magn:   -0.0543    constr:    0.0000

     total cpu time spent up to now is      633.8 secs

     End of self-consistent calculation

     Number of k-points >= 100: set verbosity='high' to print the bands.

     the Fermi energy is    14.8626 ev

!    total energy              =   -3673.62601307 Ry
     Harris-Foulkes estimate   =   -3673.62601001 Ry
     estimated scf accuracy    <       0.00000088 Ry

     total all-electron energy =   -156730.524944 Ry

     The total energy is the sum of the following terms:

     one-electron contribution =    -182.85466967 Ry
     hartree contribution      =     165.54114755 Ry
     xc contribution           =    -184.30464308 Ry
     ewald contribution        =    -546.58413949 Ry
     one-center paw contrib.   =   -2925.42370839 Ry

     total magnetization       =    -0.00 Bohr mag/cell
     absolute magnetization    =     8.83 Bohr mag/cell

     convergence has been achieved in  16 iterations

     Writing output data file mnau2.save/

     init_run     :     12.94s CPU     13.46s WALL (       1 calls)
     electrons    :    602.03s CPU    617.15s WALL (       1 calls)

     Called by init_run:
     wfcinit      :     11.79s CPU     12.23s WALL (       1 calls)
     potinit      :      0.58s CPU      0.62s WALL (       1 calls)
     hinit0       :      0.48s CPU      0.51s WALL (       1 calls)

     Called by electrons:
     c_bands      :    510.88s CPU    523.31s WALL (      16 calls)
     sum_band     :     83.31s CPU     85.74s WALL (      16 calls)
     v_of_rho     :      0.36s CPU      0.36s WALL (      17 calls)
     newd         :      0.77s CPU      0.78s WALL (      17 calls)
     PAW_pot      :      7.09s CPU      7.10s WALL (      17 calls)
     mix_rho      :      0.04s CPU      0.04s WALL (      16 calls)

     Called by c_bands:
     init_us_2    :      5.62s CPU      5.78s WALL (   26730 calls)
     cegterg      :    494.05s CPU    506.03s WALL (   12960 calls)

     Called by sum_band:
     sum_band:bec :      0.45s CPU      0.46s WALL (   12960 calls)
     addusdens    :      1.34s CPU      1.35s WALL (      16 calls)

     Called by *egterg:
     h_psi        :    187.13s CPU    197.95s WALL (   42699 calls)
     s_psi        :      8.83s CPU      8.98s WALL (   42699 calls)
     g_psi        :      1.48s CPU      1.49s WALL (   28929 calls)
     cdiaghg      :    261.57s CPU    262.48s WALL (   41889 calls)

     Called by h_psi:
     h_psi:pot    :    185.16s CPU    195.96s WALL (   42699 calls)
     h_psi:calbec :     15.36s CPU     16.12s WALL (   42699 calls)
     vloc_psi     :    160.66s CPU    170.45s WALL (   42699 calls)
     add_vuspsi   :      8.96s CPU      9.23s WALL (   42699 calls)

     General routines
     calbec       :     21.38s CPU     22.42s WALL (   55659 calls)
     fft          :      0.16s CPU      0.19s WALL (     421 calls)
     ffts         :      0.01s CPU      0.01s WALL (      66 calls)
     fftw         :    183.56s CPU    194.55s WALL ( 3151808 calls)
     interpolate  :      0.01s CPU      0.01s WALL (      34 calls)

     Parallel routines
     fft_scatt_xy :     23.09s CPU     24.45s WALL ( 3152295 calls)
     fft_scatt_yz :     90.98s CPU     96.75s WALL ( 3152295 calls)

     PWSCF        : 10m22.89s CPU    11m49.22s WALL


   This run was terminated on:  15: 5:28  14Feb2019            

=------------------------------------------------------------------------------=
   JOB DONE.
=------------------------------------------------------------------------------=
