
     Program PWSCF v.6.3 starts on 11Dec2018 at 12:31:39 

     This program is part of the open-source Quantum ESPRESSO suite
     for quantum simulation of materials; please cite
         "P. Giannozzi et al., J. Phys.:Condens. Matter 21 395502 (2009);
         "P. Giannozzi et al., J. Phys.:Condens. Matter 29 465901 (2017);
          URL http://www.quantum-espresso.org", 
     in publications or presentations arising from this work. More details at
     http://www.quantum-espresso.org/quote

     Parallel version (MPI), running on    16 processors

     MPI processes distributed on     1 nodes
     R & G space division:  proc/nbgrp/npool/nimage =      16
     Waiting for input...
     Reading input from standard input
     Message from routine read_cards :
     DEPRECATED: no units specified in CELL_PARAMETERS card

     Current dimensions of program PWSCF are:
     Max number of different atomic species (ntypx) = 10
     Max number of k-points (npk) =  40000
     Max angular momentum in pseudopotentials (lmaxx) =  3

     Subspace diagonalization in iterative solution of the eigenvalue problem:
     one sub-group per band group will be used
     scalapack distributed-memory algorithm (size of sub-group:  2*  2 procs)


     Parallelization info
     --------------------
     sticks:   dense  smooth     PW     G-vecs:    dense   smooth      PW
     Min          17       6      2                  541      134      30
     Max          18       7      3                  547      147      37
     Sum         277     109     45                 8717     2219     535



     bravais-lattice index     =            0
     lattice parameter (alat)  =       3.3701  a.u.
     unit-cell volume          =      99.4821 (a.u.)^3
     number of atoms/cell      =            6
     number of atomic types    =            6
     number of electrons       =        74.00
     number of Kohn-Sham states=           44
     kinetic-energy cutoff     =      30.0000  Ry
     charge density cutoff     =     300.0000  Ry
     convergence threshold     =      1.0E-06
     mixing beta               =       0.3000
     number of iterations used =            8  plain     mixing
     Exchange-correlation      =  SLA  PW   PBE  PBE ( 1  4  3  4 0 0)

     celldm(1)=   3.370130  celldm(2)=   0.000000  celldm(3)=   0.000000
     celldm(4)=   0.000000  celldm(5)=   0.000000  celldm(6)=   0.000000

     crystal axes: (cart. coord. in units of alat)
               a(1) = (   1.000000   0.000000   0.000000 )  
               a(2) = (   0.000000   1.000000   0.000000 )  
               a(3) = (   0.000000   0.000000   2.598992 )  

     reciprocal axes: (cart. coord. in units 2 pi/alat)
               b(1) = (  1.000000  0.000000  0.000000 )  
               b(2) = (  0.000000  1.000000  0.000000 )  
               b(3) = (  0.000000  0.000000  0.384765 )  


     PseudoPot. # 1 for Mn read from file:
     ./pseudo/Mn.pbe-sp-hgh.UPF
     MD5 check sum: 3e34829e68efb4927d63695bef9f06b2
     Pseudo is Norm-conserving, Zval = 15.0
     Generated in analytical, separable form
     Using radial grid of 1187 points,  5 beta functions with: 
                l(1) =   0
                l(2) =   0
                l(3) =   1
                l(4) =   1
                l(5) =   2

     PseudoPot. # 2 for Mn read from file:
     ./pseudo/Mn.pbe-sp-hgh.UPF
     MD5 check sum: 3e34829e68efb4927d63695bef9f06b2
     Pseudo is Norm-conserving, Zval = 15.0
     Generated in analytical, separable form
     Using radial grid of 1187 points,  5 beta functions with: 
                l(1) =   0
                l(2) =   0
                l(3) =   1
                l(4) =   1
                l(5) =   2

     PseudoPot. # 3 for Au read from file:
     ./pseudo/Au.pbe-nd-rrkjus.UPF
     MD5 check sum: 41a08e3cb62f65879dfe3845f8e5fcb7
     Pseudo is Ultrasoft + core correction, Zval = 11.0
     Generated by new atomic code, or converted to UPF format
     Using radial grid of 1279 points,  3 beta functions with: 
                l(1) =   2
                l(2) =   2
                l(3) =   1
     Q(r) pseudized with 0 coefficients 


     PseudoPot. # 4 for Au read from file:
     ./pseudo/Au.pbe-nd-rrkjus.UPF
     MD5 check sum: 41a08e3cb62f65879dfe3845f8e5fcb7
     Pseudo is Ultrasoft + core correction, Zval = 11.0
     Generated by new atomic code, or converted to UPF format
     Using radial grid of 1279 points,  3 beta functions with: 
                l(1) =   2
                l(2) =   2
                l(3) =   1
     Q(r) pseudized with 0 coefficients 


     PseudoPot. # 5 for Au read from file:
     ./pseudo/Au.pbe-nd-rrkjus.UPF
     MD5 check sum: 41a08e3cb62f65879dfe3845f8e5fcb7
     Pseudo is Ultrasoft + core correction, Zval = 11.0
     Generated by new atomic code, or converted to UPF format
     Using radial grid of 1279 points,  3 beta functions with: 
                l(1) =   2
                l(2) =   2
                l(3) =   1
     Q(r) pseudized with 0 coefficients 


     PseudoPot. # 6 for Au read from file:
     ./pseudo/Au.pbe-nd-rrkjus.UPF
     MD5 check sum: 41a08e3cb62f65879dfe3845f8e5fcb7
     Pseudo is Ultrasoft + core correction, Zval = 11.0
     Generated by new atomic code, or converted to UPF format
     Using radial grid of 1279 points,  3 beta functions with: 
                l(1) =   2
                l(2) =   2
                l(3) =   1
     Q(r) pseudized with 0 coefficients 


     atomic species   valence    mass     pseudopotential
        Mn1           15.00     1.00000     Mn( 1.00)
        Mn2           15.00     1.00000     Mn( 1.00)
        Au1           11.00     1.00000     Au( 1.00)
        Au2           11.00     1.00000     Au( 1.00)
        Au3           11.00     1.00000     Au( 1.00)
        Au4           11.00     1.00000     Au( 1.00)

     Starting magnetic structure 
     atomic species   magnetization
        Mn1          1.000
        Mn2          1.000
        Au1          0.000
        Au2          0.000
        Au3          0.000
        Au4          0.000

      8 Sym. Ops. (no inversion) found



   Cartesian axes

     site n.     atom                  positions (alat units)
         1           Mn1 tau(   1) = (   0.0000000   0.0000000   0.0000000  )
         2           Mn2 tau(   2) = (   0.5000000   0.5000000   1.2994958  )
         3           Au1 tau(   3) = (   0.0000000   0.0000000   0.8836572  )
         4           Au2 tau(   4) = (   0.0000000   0.0000000   1.7153344  )
         5           Au3 tau(   5) = (   0.5000000   0.5000000   2.1831530  )
         6           Au4 tau(   6) = (   0.5000000   0.5000000   0.4158386  )

     number of k points=   315  Marzari-Vanderbilt smearing, width (Ry)=  0.0200

     Number of k-points >= 100: set verbosity='high' to print them.

     Dense  grid:     8717 G-vectors     FFT dimensions: (  20,  20,  50)

     Smooth grid:     2219 G-vectors     FFT dimensions: (  12,  12,  32)

     Estimated max dynamical RAM per process >      11.96 MB

     Estimated total dynamical RAM >     191.40 MB
     Generating pointlists ...
     new r_m :   0.3384 (alat units)  1.1404 (a.u.) for type    1
     new r_m :   0.3384 (alat units)  1.1404 (a.u.) for type    2
     new r_m :   0.3384 (alat units)  1.1404 (a.u.) for type    3
     new r_m :   0.3384 (alat units)  1.1404 (a.u.) for type    4
     new r_m :   0.3384 (alat units)  1.1404 (a.u.) for type    5
     new r_m :   0.3384 (alat units)  1.1404 (a.u.) for type    6

     Initial potential from superposition of free atoms

     starting charge   43.99956, renormalised to   74.00000
     Starting wfcs are   36 randomized atomic wfcs +    8 random wfcs

     total cpu time spent up to now is        6.5 secs

     Self-consistent Calculation

     iteration #  1     ecut=    30.00 Ry     beta= 0.30
     Davidson diagonalization with overlap
     ethr =  1.00E-02,  avg # of iterations =  6.7

     total cpu time spent up to now is       94.3 secs

     total energy              =    -645.33153590 Ry
     Harris-Foulkes estimate   =    -840.31559836 Ry
     estimated scf accuracy    <     424.51948598 Ry

     total magnetization       =     0.00 Bohr mag/cell
     absolute magnetization    =     0.00 Bohr mag/cell

     iteration #  2     ecut=    30.00 Ry     beta= 0.30
     Davidson diagonalization with overlap
     ethr =  1.00E-02,  avg # of iterations =  3.3

     total cpu time spent up to now is      139.5 secs

     total energy              =    -622.99677156 Ry
     Harris-Foulkes estimate   =    -678.25028056 Ry
     estimated scf accuracy    <      79.24935804 Ry

     total magnetization       =    -0.00 Bohr mag/cell
     absolute magnetization    =     0.00 Bohr mag/cell

     iteration #  3     ecut=    30.00 Ry     beta= 0.30
     Davidson diagonalization with overlap
     ethr =  1.00E-02,  avg # of iterations =  3.2

     total cpu time spent up to now is      182.9 secs

     total energy              =    -640.38920653 Ry
     Harris-Foulkes estimate   =    -640.92980216 Ry
     estimated scf accuracy    <       1.07112820 Ry

     total magnetization       =    -0.00 Bohr mag/cell
     absolute magnetization    =     0.00 Bohr mag/cell

     iteration #  4     ecut=    30.00 Ry     beta= 0.30
     Davidson diagonalization with overlap
     ethr =  1.45E-03,  avg # of iterations =  1.9

     total cpu time spent up to now is      207.5 secs

     total energy              =    -640.31408640 Ry
     Harris-Foulkes estimate   =    -640.48589817 Ry
     estimated scf accuracy    <       0.25768421 Ry

     total magnetization       =     0.00 Bohr mag/cell
     absolute magnetization    =     0.00 Bohr mag/cell

     iteration #  5     ecut=    30.00 Ry     beta= 0.30
     Davidson diagonalization with overlap
     ethr =  3.48E-04,  avg # of iterations =  2.4

     total cpu time spent up to now is      242.9 secs

     total energy              =    -640.35549676 Ry
     Harris-Foulkes estimate   =    -640.36321323 Ry
     estimated scf accuracy    <       0.01167765 Ry

     total magnetization       =    -0.00 Bohr mag/cell
     absolute magnetization    =     0.00 Bohr mag/cell

     iteration #  6     ecut=    30.00 Ry     beta= 0.30
     Davidson diagonalization with overlap
     ethr =  1.58E-05,  avg # of iterations =  2.5

     total cpu time spent up to now is      280.5 secs

     total energy              =    -640.35726158 Ry
     Harris-Foulkes estimate   =    -640.35746136 Ry
     estimated scf accuracy    <       0.00048269 Ry

     total magnetization       =    -0.00 Bohr mag/cell
     absolute magnetization    =     0.00 Bohr mag/cell

     iteration #  7     ecut=    30.00 Ry     beta= 0.30
     Davidson diagonalization with overlap
     ethr =  6.52E-07,  avg # of iterations =  2.2

     total cpu time spent up to now is      309.8 secs

     total energy              =    -640.35731430 Ry
     Harris-Foulkes estimate   =    -640.35733490 Ry
     estimated scf accuracy    <       0.00008571 Ry

     total magnetization       =    -0.00 Bohr mag/cell
     absolute magnetization    =     0.00 Bohr mag/cell

     iteration #  8     ecut=    30.00 Ry     beta= 0.30
     Davidson diagonalization with overlap
     ethr =  1.16E-07,  avg # of iterations =  1.3

     total cpu time spent up to now is      328.5 secs

     total energy              =    -640.35730413 Ry
     Harris-Foulkes estimate   =    -640.35732152 Ry
     estimated scf accuracy    <       0.00003491 Ry

     total magnetization       =    -0.00 Bohr mag/cell
     absolute magnetization    =     0.00 Bohr mag/cell

     iteration #  9     ecut=    30.00 Ry     beta= 0.30
     Davidson diagonalization with overlap
     ethr =  4.72E-08,  avg # of iterations =  2.0

     Magnetic moment per site:
     atom:    1    charge:   12.3722    magn:    0.0000    constr:    0.0000
     atom:    2    charge:   12.3721    magn:   -0.0000    constr:    0.0000
     atom:    3    charge:    5.7492    magn:   -0.0000    constr:    0.0000
     atom:    4    charge:    5.7492    magn:   -0.0000    constr:    0.0000
     atom:    5    charge:    5.7492    magn:   -0.0000    constr:    0.0000
     atom:    6    charge:    5.7492    magn:   -0.0000    constr:    0.0000

     total cpu time spent up to now is      355.6 secs

     End of self-consistent calculation

     Number of k-points >= 100: set verbosity='high' to print the bands.

     the Fermi energy is   139.6176 ev

!    total energy              =    -640.35730782 Ry
     Harris-Foulkes estimate   =    -640.35730789 Ry
     estimated scf accuracy    <       0.00000018 Ry

     The total energy is the sum of the following terms:

     one-electron contribution =     578.54002972 Ry
     hartree contribution      =      46.30649051 Ry
     xc contribution           =    -222.32171002 Ry
     ewald contribution        =   -1042.88239728 Ry
     smearing contrib. (-TS)   =       0.00027925 Ry

     total magnetization       =    -0.00 Bohr mag/cell
     absolute magnetization    =     0.00 Bohr mag/cell

     convergence has been achieved in   9 iterations

     Writing output data file mnau2.save/

     init_run     :      5.37s CPU      5.67s WALL (       1 calls)
     electrons    :    339.28s CPU    349.05s WALL (       1 calls)

     Called by init_run:
     wfcinit      :      4.94s CPU      5.23s WALL (       1 calls)
     potinit      :      0.08s CPU      0.08s WALL (       1 calls)
     hinit0       :      0.32s CPU      0.32s WALL (       1 calls)

     Called by electrons:
     c_bands      :    330.86s CPU    339.33s WALL (       9 calls)
     sum_band     :      8.26s CPU      9.55s WALL (       9 calls)
     v_of_rho     :      0.06s CPU      0.06s WALL (      10 calls)
     newd         :      0.08s CPU      0.08s WALL (      10 calls)
     mix_rho      :      0.00s CPU      0.01s WALL (       9 calls)

     Called by c_bands:
     init_us_2    :      0.76s CPU      0.82s WALL (   11970 calls)
     cegterg      :    329.29s CPU    337.68s WALL (    5670 calls)

     Called by sum_band:
     sum_band:bec :      0.17s CPU      0.19s WALL (    5670 calls)
     addusdens    :      0.12s CPU      0.12s WALL (       9 calls)

     Called by *egterg:
     h_psi        :     44.44s CPU     51.42s WALL (   22446 calls)
     s_psi        :      1.21s CPU      1.36s WALL (   22446 calls)
     g_psi        :      0.14s CPU      0.15s WALL (   16146 calls)
     cdiaghg      :    268.47s CPU    269.16s WALL (   21816 calls)

     Called by h_psi:
     h_psi:pot    :     44.28s CPU     51.26s WALL (   22446 calls)
     h_psi:calbec :      3.45s CPU      4.03s WALL (   22446 calls)
     vloc_psi     :     38.79s CPU     44.91s WALL (   22446 calls)
     add_vuspsi   :      1.93s CPU      2.20s WALL (   22446 calls)

     General routines
     calbec       :      4.26s CPU      5.00s WALL (   28116 calls)
     fft          :      0.06s CPU      0.06s WALL (     246 calls)
     ffts         :      0.00s CPU      0.00s WALL (      38 calls)
     fftw         :     42.40s CPU     49.13s WALL ( 1745738 calls)
     interpolate  :      0.00s CPU      0.00s WALL (      20 calls)

     Parallel routines
     fft_scatt_xy :      2.99s CPU      3.48s WALL ( 1746022 calls)
     fft_scatt_yz :     29.47s CPU     34.17s WALL ( 1746022 calls)

     PWSCF        :  5m49.02s CPU     6m12.39s WALL


   This run was terminated on:  12:37:52  11Dec2018            

=------------------------------------------------------------------------------=
   JOB DONE.
=------------------------------------------------------------------------------=
