
     Program PWSCF v.6.3 starts on 14Feb2019 at 14:44:17 

     This program is part of the open-source Quantum ESPRESSO suite
     for quantum simulation of materials; please cite
         "P. Giannozzi et al., J. Phys.:Condens. Matter 21 395502 (2009);
         "P. Giannozzi et al., J. Phys.:Condens. Matter 29 465901 (2017);
          URL http://www.quantum-espresso.org", 
     in publications or presentations arising from this work. More details at
     http://www.quantum-espresso.org/quote

     Parallel version (MPI), running on    16 processors

     MPI processes distributed on     1 nodes
     R & G space division:  proc/nbgrp/npool/nimage =      16
     Waiting for input...
     Reading input from standard input

     Current dimensions of program PWSCF are:
     Max number of different atomic species (ntypx) = 10
     Max number of k-points (npk) =  40000
     Max angular momentum in pseudopotentials (lmaxx) =  3
     Message from routine read_upf::
     Pseudo file ./pseudo/Mn.pbe-spn-kjpaw_psl.0.3.1.UPF has been successfully fixed on the fly.
To avoid this message in the future you can permanently fix 
 your pseudo files following instructions given in: 
https://gitlab.com/QEF/q-e/blob/master/upftools/how_to_fix_upf.md
               file Mn.pbe-spn-kjpaw_psl.0.3.1.UPF: wavefunction(s)  3P 3D renormalized
     Message from routine read_upf::
     Pseudo file ./pseudo/Mn.pbe-spn-kjpaw_psl.0.3.1.UPF has been successfully fixed on the fly.
To avoid this message in the future you can permanently fix 
 your pseudo files following instructions given in: 
https://gitlab.com/QEF/q-e/blob/master/upftools/how_to_fix_upf.md
               file Mn.pbe-spn-kjpaw_psl.0.3.1.UPF: wavefunction(s)  3P 3D renormalized
     Message from routine read_upf::
     Pseudo file ./pseudo/Au.pbe-dn-kjpaw_psl.0.1.UPF has been successfully fixed on the fly.
To avoid this message in the future you can permanently fix 
 your pseudo files following instructions given in: 
https://gitlab.com/QEF/q-e/blob/master/upftools/how_to_fix_upf.md
               file Au.pbe-dn-kjpaw_psl.0.1.UPF: wavefunction(s)  6S 6P 5D renormalized

     Subspace diagonalization in iterative solution of the eigenvalue problem:
     one sub-group per band group will be used
     scalapack distributed-memory algorithm (size of sub-group:  2*  2 procs)


     Parallelization info
     --------------------
     sticks:   dense  smooth     PW     G-vecs:    dense   smooth      PW
     Min          60      37     11                 3780     1761     297
     Max          61      38     12                 3793     1770     308
     Sum         973     593    177                60601    28191    4775



     bravais-lattice index     =            0
     lattice parameter (alat)  =       6.4153  a.u.
     unit-cell volume          =     690.6834 (a.u.)^3
     number of atoms/cell      =            6
     number of atomic types    =            3
     number of electrons       =        74.00
     number of Kohn-Sham states=           44
     kinetic-energy cutoff     =      45.0000  Ry
     charge density cutoff     =     300.0000  Ry
     convergence threshold     =      1.0E-06
     mixing beta               =       0.1000
     number of iterations used =            8  plain     mixing
     Exchange-correlation      = SLA PW PBX PBC ( 1  4  3  4 0 0)

     celldm(1)=   6.415316  celldm(2)=   0.000000  celldm(3)=   0.000000
     celldm(4)=   0.000000  celldm(5)=   0.000000  celldm(6)=   0.000000

     crystal axes: (cart. coord. in units of alat)
               a(1) = (   1.000000   0.000000   0.000000 )  
               a(2) = (   0.000000   1.000000   0.000000 )  
               a(3) = (   0.000000   0.000000   2.615923 )  

     reciprocal axes: (cart. coord. in units 2 pi/alat)
               b(1) = (  1.000000  0.000000  0.000000 )  
               b(2) = (  0.000000  1.000000  0.000000 )  
               b(3) = (  0.000000  0.000000  0.382274 )  


     PseudoPot. # 1 for Mn read from file:
     ./pseudo/Mn.pbe-spn-kjpaw_psl.0.3.1.UPF
     MD5 check sum: 7eef95dd2aae66803482eea66ebeebf1
     Pseudo is Projector augmented-wave + core cor, Zval = 15.0
     Generated using "atomic" code by A. Dal Corso v.5.0.99 svn rev. 10869
     Shape of augmentation charge: PSQ
     Using radial grid of 1187 points,  6 beta functions with: 
                l(1) =   0
                l(2) =   0
                l(3) =   1
                l(4) =   1
                l(5) =   2
                l(6) =   2
     Q(r) pseudized with 0 coefficients 


     PseudoPot. # 2 for Mn read from file:
     ./pseudo/Mn.pbe-spn-kjpaw_psl.0.3.1.UPF
     MD5 check sum: 7eef95dd2aae66803482eea66ebeebf1
     Pseudo is Projector augmented-wave + core cor, Zval = 15.0
     Generated using "atomic" code by A. Dal Corso v.5.0.99 svn rev. 10869
     Shape of augmentation charge: PSQ
     Using radial grid of 1187 points,  6 beta functions with: 
                l(1) =   0
                l(2) =   0
                l(3) =   1
                l(4) =   1
                l(5) =   2
                l(6) =   2
     Q(r) pseudized with 0 coefficients 


     PseudoPot. # 3 for Au read from file:
     ./pseudo/Au.pbe-dn-kjpaw_psl.0.1.UPF
     MD5 check sum: 5c9b92683623e7ae2ab3f8e525febab6
     Pseudo is Projector augmented-wave + core cor, Zval = 11.0
     Generated using "atomic" code by A. Dal Corso v.5.0.2 svn rev. 9415
     Shape of augmentation charge: PSQ
     Using radial grid of 1279 points,  6 beta functions with: 
                l(1) =   0
                l(2) =   0
                l(3) =   1
                l(4) =   1
                l(5) =   2
                l(6) =   2
     Q(r) pseudized with 0 coefficients 


     atomic species   valence    mass     pseudopotential
        Mn1           15.00    54.93800     Mn( 1.00)
        Mn2           15.00    54.93800     Mn( 1.00)
        Au            11.00   196.96600     Au( 1.00)

     Starting magnetic structure 
     atomic species   magnetization
        Mn1          1.000
        Mn2          1.000
        Au           0.000

     16 Sym. Ops., with inversion, found



   Cartesian axes

     site n.     atom                  positions (alat units)
         1           Mn1 tau(   1) = (   0.0000000   0.0000000   0.0000000  )
         2           Mn2 tau(   2) = (   0.5000000   0.5000000   1.3079613  )
         3           Au  tau(   3) = (   0.5000000   0.5000000   2.1982094  )
         4           Au  tau(   4) = (   0.5000000   0.5000000   0.4177131  )
         5           Au  tau(   5) = (   0.0000000   0.0000000   0.8902482  )
         6           Au  tau(   6) = (   0.0000000   0.0000000   1.7256744  )

     number of k points=   405 (tetrahedron method)

     Number of k-points >= 100: set verbosity='high' to print them.

     Dense  grid:    60601 G-vectors     FFT dimensions: (  36,  36,  96)

     Smooth grid:    28191 G-vectors     FFT dimensions: (  27,  27,  72)

     Estimated max dynamical RAM per process >     139.23 MB

     Estimated total dynamical RAM >       2.18 GB
     Generating pointlists ...
     new r_m :   0.3388 (alat units)  2.1733 (a.u.) for type    1
     new r_m :   0.3388 (alat units)  2.1733 (a.u.) for type    2
     new r_m :   0.3388 (alat units)  2.1733 (a.u.) for type    3

     Check: negative/imaginary core charge=   -0.000007    0.000000

     Initial potential from superposition of free atoms

     starting charge   73.99857, renormalised to   74.00000
     Starting wfcs are   56 randomized atomic wfcs
     Checking if some PAW data can be deallocated... 

     total cpu time spent up to now is       19.6 secs

     Self-consistent Calculation

     iteration #  1     ecut=    45.00 Ry     beta= 0.10
     Davidson diagonalization with overlap
     ethr =  1.00E-02,  avg # of iterations =  3.0

     Warning: ef = 15.826040 is above the highest band at k-point  54
              e  =  15.755571

     Warning: ef = 15.826040 is above the highest band at k-point  59
              e  =  15.739385

     Warning: ef = 15.826040 is above the highest band at k-point  60
              e  =  15.591311

     Warning: ef = 15.826040 is above the highest band at k-point  61
              e  =  15.398511

     Warning: ef = 15.826040 is above the highest band at k-point  62
              e  =  15.185553

     Warning: ef = 15.826040 is above the highest band at k-point  63
              e  =  14.971667

     Warning: ef = 15.826040 is above the highest band at k-point  64
              e  =  14.881599

     Warning: ef = 15.826040 is above the highest band at k-point  65
              e  =  14.890732

     Warning: ef = 15.826040 is above the highest band at k-point  66
              e  =  14.902524

     Warning: ef = 15.826040 is above the highest band at k-point  67
              e  =  14.902947

     Warning: ef = 15.826040 is above the highest band at k-point  68
              e  =  14.869598

     Warning: ef = 15.826040 is above the highest band at k-point  69
              e  =  14.792724

     Warning: ef = 15.826040 is above the highest band at k-point  70
              e  =  14.680135

     Warning: ef = 15.826040 is above the highest band at k-point  71
              e  =  14.539188

     Warning: ef = 15.826040 is above the highest band at k-point  72
              e  =  14.371702

     Warning: ef = 15.826040 is above the highest band at k-point  73
              e  =  14.039834

     Warning: ef = 15.826040 is above the highest band at k-point  74
              e  =  14.039637

     Warning: ef = 15.826040 is above the highest band at k-point  75
              e  =  14.038580

     Warning: ef = 15.826040 is above the highest band at k-point  76
              e  =  14.036936

     Warning: ef = 15.826040 is above the highest band at k-point  77
              e  =  14.032611

     Warning: ef = 15.826040 is above the highest band at k-point  78
              e  =  14.021597

     Warning: ef = 15.826040 is above the highest band at k-point  79
              e  =  14.004669

     Warning: ef = 15.826040 is above the highest band at k-point  80
              e  =  13.983831

     Warning: ef = 15.826040 is above the highest band at k-point  81
              e  =  13.973053

     Warning: ef = 15.826040 is above the highest band at k-point 132
              e  =  15.737309

     Warning: ef = 15.826040 is above the highest band at k-point 133
              e  =  15.540694

     Warning: ef = 15.826040 is above the highest band at k-point 134
              e  =  15.324729

     Warning: ef = 15.826040 is above the highest band at k-point 135
              e  =  15.106790

     Warning: ef = 15.826040 is above the highest band at k-point 136
              e  =  15.015973

     Warning: ef = 15.826040 is above the highest band at k-point 137
              e  =  15.031881

     Warning: ef = 15.826040 is above the highest band at k-point 138
              e  =  15.061808

     Warning: ef = 15.826040 is above the highest band at k-point 139
              e  =  15.079216

     Warning: ef = 15.826040 is above the highest band at k-point 140
              e  =  15.063210

     Warning: ef = 15.826040 is above the highest band at k-point 141
              e  =  14.997157

     Warning: ef = 15.826040 is above the highest band at k-point 142
              e  =  14.897428

     Warning: ef = 15.826040 is above the highest band at k-point 143
              e  =  14.768275

     Warning: ef = 15.826040 is above the highest band at k-point 144
              e  =  14.607763

     Warning: ef = 15.826040 is above the highest band at k-point 145
              e  =  14.194418

     Warning: ef = 15.826040 is above the highest band at k-point 146
              e  =  14.201778

     Warning: ef = 15.826040 is above the highest band at k-point 147
              e  =  14.224610

     Warning: ef = 15.826040 is above the highest band at k-point 148
              e  =  14.259392

     Warning: ef = 15.826040 is above the highest band at k-point 149
              e  =  14.300118

     Warning: ef = 15.826040 is above the highest band at k-point 150
              e  =  14.340474

     Warning: ef = 15.826040 is above the highest band at k-point 151
              e  =  14.370115

     Warning: ef = 15.826040 is above the highest band at k-point 152
              e  =  14.385621

     Warning: ef = 15.826040 is above the highest band at k-point 153
              e  =  14.387975

     Warning: ef = 15.826040 is above the highest band at k-point 197
              e  =  15.705423

     Warning: ef = 15.826040 is above the highest band at k-point 198
              e  =  15.471549

     Warning: ef = 15.826040 is above the highest band at k-point 199
              e  =  15.353165

     Warning: ef = 15.826040 is above the highest band at k-point 200
              e  =  15.394445

     Warning: ef = 15.826040 is above the highest band at k-point 201
              e  =  15.476916

     Warning: ef = 15.826040 is above the highest band at k-point 202
              e  =  15.546624

     Warning: ef = 15.826040 is above the highest band at k-point 203
              e  =  15.568502

     Warning: ef = 15.826040 is above the highest band at k-point 204
              e  =  15.528385

     Warning: ef = 15.826040 is above the highest band at k-point 205
              e  =  15.441822

     Warning: ef = 15.826040 is above the highest band at k-point 206
              e  =  15.334708

     Warning: ef = 15.826040 is above the highest band at k-point 207
              e  =  15.189552

     Warning: ef = 15.826040 is above the highest band at k-point 208
              e  =  14.535064

     Warning: ef = 15.826040 is above the highest band at k-point 209
              e  =  14.583696

     Warning: ef = 15.826040 is above the highest band at k-point 210
              e  =  14.676879

     Warning: ef = 15.826040 is above the highest band at k-point 211
              e  =  14.781843

     Warning: ef = 15.826040 is above the highest band at k-point 212
              e  =  14.888171

     Warning: ef = 15.826040 is above the highest band at k-point 213
              e  =  14.987872

     Warning: ef = 15.826040 is above the highest band at k-point 214
              e  =  15.063395

     Warning: ef = 15.826040 is above the highest band at k-point 215
              e  =  15.100720

     Warning: ef = 15.826040 is above the highest band at k-point 216
              e  =  15.105185

     Warning: ef = 15.826040 is above the highest band at k-point 253
              e  =  15.806573

     Warning: ef = 15.826040 is above the highest band at k-point 262
              e  =  14.965604

     Warning: ef = 15.826040 is above the highest band at k-point 263
              e  =  15.104230

     Warning: ef = 15.826040 is above the highest band at k-point 264
              e  =  15.251366

     Warning: ef = 15.826040 is above the highest band at k-point 265
              e  =  15.406858

     Warning: ef = 15.826040 is above the highest band at k-point 266
              e  =  15.569239

     Warning: ef = 15.826040 is above the highest band at k-point 267
              e  =  15.726531

     Warning: ef = 15.826040 is above the highest band at k-point 307
              e  =  15.502718

     Warning: ef = 15.826040 is above the highest band at k-point 308
              e  =  15.647214

     total cpu time spent up to now is       74.7 secs

     total energy              =   -3669.84363126 Ry
     Harris-Foulkes estimate   =   -3667.59514703 Ry
     estimated scf accuracy    <       5.32794586 Ry

     total magnetization       =    10.38 Bohr mag/cell
     absolute magnetization    =    10.78 Bohr mag/cell

     iteration #  2     ecut=    45.00 Ry     beta= 0.10
     Davidson diagonalization with overlap
     ethr =  7.20E-03,  avg # of iterations =  1.0

     Warning: ef = 15.676464 is above the highest band at k-point  54
              e  =  15.656670

     Warning: ef = 15.676464 is above the highest band at k-point  59
              e  =  15.650744

     Warning: ef = 15.676464 is above the highest band at k-point  60
              e  =  15.490826

     Warning: ef = 15.676464 is above the highest band at k-point  61
              e  =  15.287616

     Warning: ef = 15.676464 is above the highest band at k-point  62
              e  =  15.066233

     Warning: ef = 15.676464 is above the highest band at k-point  63
              e  =  14.845484

     Warning: ef = 15.676464 is above the highest band at k-point  64
              e  =  14.745749

     Warning: ef = 15.676464 is above the highest band at k-point  65
              e  =  14.759354

     Warning: ef = 15.676464 is above the highest band at k-point  66
              e  =  14.783768

     Warning: ef = 15.676464 is above the highest band at k-point  67
              e  =  14.799039

     Warning: ef = 15.676464 is above the highest band at k-point  68
              e  =  14.780921

     Warning: ef = 15.676464 is above the highest band at k-point  69
              e  =  14.715961

     Warning: ef = 15.676464 is above the highest band at k-point  70
              e  =  14.605902

     Warning: ef = 15.676464 is above the highest band at k-point  71
              e  =  14.456801

     Warning: ef = 15.676464 is above the highest band at k-point  72
              e  =  14.274809

     Warning: ef = 15.676464 is above the highest band at k-point  73
              e  =  13.851482

     Warning: ef = 15.676464 is above the highest band at k-point  74
              e  =  13.855712

     Warning: ef = 15.676464 is above the highest band at k-point  75
              e  =  13.867981

     Warning: ef = 15.676464 is above the highest band at k-point  76
              e  =  13.887819

     Warning: ef = 15.676464 is above the highest band at k-point  77
              e  =  13.912581

     Warning: ef = 15.676464 is above the highest band at k-point  78
              e  =  13.938245

     Warning: ef = 15.676464 is above the highest band at k-point  79
              e  =  13.960742

     Warning: ef = 15.676464 is above the highest band at k-point  80
              e  =  13.974621

     Warning: ef = 15.676464 is above the highest band at k-point  81
              e  =  13.978312

     Warning: ef = 15.676464 is above the highest band at k-point 132
              e  =  15.638295

     Warning: ef = 15.676464 is above the highest band at k-point 133
              e  =  15.431352

     Warning: ef = 15.676464 is above the highest band at k-point 134
              e  =  15.206362

     Warning: ef = 15.676464 is above the highest band at k-point 135
              e  =  14.981764

     Warning: ef = 15.676464 is above the highest band at k-point 136
              e  =  14.881596

     Warning: ef = 15.676464 is above the highest band at k-point 137
              e  =  14.903377

     Warning: ef = 15.676464 is above the highest band at k-point 138
              e  =  14.947278

     Warning: ef = 15.676464 is above the highest band at k-point 139
              e  =  14.980788

     Warning: ef = 15.676464 is above the highest band at k-point 140
              e  =  14.980885

     Warning: ef = 15.676464 is above the highest band at k-point 141
              e  =  14.929223

     Warning: ef = 15.676464 is above the highest band at k-point 142
              e  =  14.833018

     Warning: ef = 15.676464 is above the highest band at k-point 143
              e  =  14.696836

     Warning: ef = 15.676464 is above the highest band at k-point 144
              e  =  14.524411

     Warning: ef = 15.676464 is above the highest band at k-point 145
              e  =  14.016272

     Warning: ef = 15.676464 is above the highest band at k-point 146
              e  =  14.032468

     Warning: ef = 15.676464 is above the highest band at k-point 147
              e  =  14.075567

     Warning: ef = 15.676464 is above the highest band at k-point 148
              e  =  14.135740

     Warning: ef = 15.676464 is above the highest band at k-point 149
              e  =  14.202798

     Warning: ef = 15.676464 is above the highest band at k-point 150
              e  =  14.268571

     Warning: ef = 15.676464 is above the highest band at k-point 151
              e  =  14.322451

     Warning: ef = 15.676464 is above the highest band at k-point 152
              e  =  14.357163

     Warning: ef = 15.676464 is above the highest band at k-point 153
              e  =  14.367318

     Warning: ef = 15.676464 is above the highest band at k-point 197
              e  =  15.588893

     Warning: ef = 15.676464 is above the highest band at k-point 198
              e  =  15.349217

     Warning: ef = 15.676464 is above the highest band at k-point 199
              e  =  15.224614

     Warning: ef = 15.676464 is above the highest band at k-point 200
              e  =  15.276607

     Warning: ef = 15.676464 is above the highest band at k-point 201
              e  =  15.370745

     Warning: ef = 15.676464 is above the highest band at k-point 202
              e  =  15.453040

     Warning: ef = 15.676464 is above the highest band at k-point 203
              e  =  15.491334

     Warning: ef = 15.676464 is above the highest band at k-point 204
              e  =  15.468749

     Warning: ef = 15.676464 is above the highest band at k-point 205
              e  =  15.390195

     Warning: ef = 15.676464 is above the highest band at k-point 206
              e  =  15.274068

     Warning: ef = 15.676464 is above the highest band at k-point 207
              e  =  15.113961

     Warning: ef = 15.676464 is above the highest band at k-point 208
              e  =  14.379421

     Warning: ef = 15.676464 is above the highest band at k-point 209
              e  =  14.450007

     Warning: ef = 15.676464 is above the highest band at k-point 210
              e  =  14.561817

     Warning: ef = 15.676464 is above the highest band at k-point 211
              e  =  14.681252

     Warning: ef = 15.676464 is above the highest band at k-point 212
              e  =  14.802073

     Warning: ef = 15.676464 is above the highest band at k-point 213
              e  =  14.914883

     Warning: ef = 15.676464 is above the highest band at k-point 214
              e  =  15.006087

     Warning: ef = 15.676464 is above the highest band at k-point 215
              e  =  15.060241

     Warning: ef = 15.676464 is above the highest band at k-point 216
              e  =  15.073878

     Warning: ef = 15.676464 is above the highest band at k-point 262
              e  =  14.862665

     Warning: ef = 15.676464 is above the highest band at k-point 263
              e  =  14.996028

     Warning: ef = 15.676464 is above the highest band at k-point 264
              e  =  15.151411

     Warning: ef = 15.676464 is above the highest band at k-point 265
              e  =  15.314419

     Warning: ef = 15.676464 is above the highest band at k-point 266
              e  =  15.482125

     Warning: ef = 15.676464 is above the highest band at k-point 267
              e  =  15.646046

     Warning: ef = 15.676464 is above the highest band at k-point 307
              e  =  15.416352

     Warning: ef = 15.676464 is above the highest band at k-point 308
              e  =  15.555111

     total cpu time spent up to now is      108.1 secs

     total energy              =   -3673.16375555 Ry
     Harris-Foulkes estimate   =   -3669.87110989 Ry
     estimated scf accuracy    <       4.31838587 Ry

     total magnetization       =    10.26 Bohr mag/cell
     absolute magnetization    =    10.69 Bohr mag/cell

     iteration #  3     ecut=    45.00 Ry     beta= 0.10
     Davidson diagonalization with overlap
     ethr =  5.84E-03,  avg # of iterations =  1.8

     Warning: ef = 15.172681 is above the highest band at k-point  61
              e  =  15.027449

     Warning: ef = 15.172681 is above the highest band at k-point  62
              e  =  14.858625

     Warning: ef = 15.172681 is above the highest band at k-point  63
              e  =  14.740472

     Warning: ef = 15.172681 is above the highest band at k-point  64
              e  =  14.935280

     Warning: ef = 15.172681 is above the highest band at k-point  65
              e  =  14.954831

     Warning: ef = 15.172681 is above the highest band at k-point  66
              e  =  14.984329

     Warning: ef = 15.172681 is above the highest band at k-point  67
              e  =  14.992874

     Warning: ef = 15.172681 is above the highest band at k-point  68
              e  =  14.958458

     Warning: ef = 15.172681 is above the highest band at k-point  69
              e  =  14.873950

     Warning: ef = 15.172681 is above the highest band at k-point  70
              e  =  14.734667

     Warning: ef = 15.172681 is above the highest band at k-point  71
              e  =  14.548467

     Warning: ef = 15.172681 is above the highest band at k-point  72
              e  =  14.364832

     Warning: ef = 15.172681 is above the highest band at k-point  73
              e  =  14.384830

     Warning: ef = 15.172681 is above the highest band at k-point  74
              e  =  14.384589

     Warning: ef = 15.172681 is above the highest band at k-point  75
              e  =  14.383114

     Warning: ef = 15.172681 is above the highest band at k-point  76
              e  =  14.379309

     Warning: ef = 15.172681 is above the highest band at k-point  77
              e  =  14.370588

     Warning: ef = 15.172681 is above the highest band at k-point  78
              e  =  14.353392

     Warning: ef = 15.172681 is above the highest band at k-point  79
              e  =  14.327306

     Warning: ef = 15.172681 is above the highest band at k-point  80
              e  =  14.292966

     Warning: ef = 15.172681 is above the highest band at k-point  81
              e  =  14.263892

     Warning: ef = 15.172681 is above the highest band at k-point 134
              e  =  14.975006

     Warning: ef = 15.172681 is above the highest band at k-point 135
              e  =  14.832832

     Warning: ef = 15.172681 is above the highest band at k-point 136
              e  =  15.085563

     Warning: ef = 15.172681 is above the highest band at k-point 137
              e  =  15.118688

     Warning: ef = 15.172681 is above the highest band at k-point 138
              e  =  15.170240

     Warning: ef = 15.172681 is above the highest band at k-point 141
              e  =  15.139224

     Warning: ef = 15.172681 is above the highest band at k-point 142
              e  =  15.031391

     Warning: ef = 15.172681 is above the highest band at k-point 143
              e  =  14.880879

     Warning: ef = 15.172681 is above the highest band at k-point 144
              e  =  14.708200

     Warning: ef = 15.172681 is above the highest band at k-point 145
              e  =  14.485222

     Warning: ef = 15.172681 is above the highest band at k-point 146
              e  =  14.498624

     Warning: ef = 15.172681 is above the highest band at k-point 147
              e  =  14.531782

     Warning: ef = 15.172681 is above the highest band at k-point 148
              e  =  14.574502

     Warning: ef = 15.172681 is above the highest band at k-point 149
              e  =  14.621842

     Warning: ef = 15.172681 is above the highest band at k-point 150
              e  =  14.667412

     Warning: ef = 15.172681 is above the highest band at k-point 151
              e  =  14.706260

     Warning: ef = 15.172681 is above the highest band at k-point 152
              e  =  14.734265

     Warning: ef = 15.172681 is above the highest band at k-point 153
              e  =  14.744410

     Warning: ef = 15.172681 is above the highest band at k-point 198
              e  =  15.169884

     Warning: ef = 15.172681 is above the highest band at k-point 208
              e  =  14.786057

     Warning: ef = 15.172681 is above the highest band at k-point 209
              e  =  14.848821

     Warning: ef = 15.172681 is above the highest band at k-point 210
              e  =  14.944486

     Warning: ef = 15.172681 is above the highest band at k-point 211
              e  =  15.047827

     Warning: ef = 15.172681 is above the highest band at k-point 212
              e  =  15.155301

     total cpu time spent up to now is      151.3 secs

     total energy              =   -3673.85756771 Ry
     Harris-Foulkes estimate   =   -3673.68993266 Ry
     estimated scf accuracy    <       1.42277499 Ry

     total magnetization       =     8.84 Bohr mag/cell
     absolute magnetization    =     9.29 Bohr mag/cell

     iteration #  4     ecut=    45.00 Ry     beta= 0.10
     Davidson diagonalization with overlap
     ethr =  1.92E-03,  avg # of iterations =  1.6

     Warning: ef = 15.324121 is above the highest band at k-point  62
              e  =  15.300127

     Warning: ef = 15.324121 is above the highest band at k-point  63
              e  =  15.219356

     Warning: ef = 15.324121 is above the highest band at k-point  68
              e  =  15.277695

     Warning: ef = 15.324121 is above the highest band at k-point  69
              e  =  15.196836

     Warning: ef = 15.324121 is above the highest band at k-point  70
              e  =  15.104902

     Warning: ef = 15.324121 is above the highest band at k-point  71
              e  =  15.025903

     Warning: ef = 15.324121 is above the highest band at k-point  72
              e  =  14.986135

     Warning: ef = 15.324121 is above the highest band at k-point  73
              e  =  15.015254

     Warning: ef = 15.324121 is above the highest band at k-point  74
              e  =  15.012852

     Warning: ef = 15.324121 is above the highest band at k-point  75
              e  =  15.005447

     Warning: ef = 15.324121 is above the highest band at k-point  76
              e  =  14.992970

     Warning: ef = 15.324121 is above the highest band at k-point  77
              e  =  14.975502

     Warning: ef = 15.324121 is above the highest band at k-point  78
              e  =  14.954396

     Warning: ef = 15.324121 is above the highest band at k-point  79
              e  =  14.933062

     Warning: ef = 15.324121 is above the highest band at k-point  80
              e  =  14.916622

     Warning: ef = 15.324121 is above the highest band at k-point  81
              e  =  14.910371

     Warning: ef = 15.324121 is above the highest band at k-point 135
              e  =  15.286061

     Warning: ef = 15.324121 is above the highest band at k-point 142
              e  =  15.277545

     Warning: ef = 15.324121 is above the highest band at k-point 143
              e  =  15.157059

     Warning: ef = 15.324121 is above the highest band at k-point 144
              e  =  15.057394

     Warning: ef = 15.324121 is above the highest band at k-point 145
              e  =  15.065461

     Warning: ef = 15.324121 is above the highest band at k-point 146
              e  =  15.064910

     Warning: ef = 15.324121 is above the highest band at k-point 147
              e  =  15.063312

     Warning: ef = 15.324121 is above the highest band at k-point 148
              e  =  15.059888

     Warning: ef = 15.324121 is above the highest band at k-point 149
              e  =  15.053864

     Warning: ef = 15.324121 is above the highest band at k-point 150
              e  =  15.043294

     Warning: ef = 15.324121 is above the highest band at k-point 151
              e  =  15.028581

     Warning: ef = 15.324121 is above the highest band at k-point 152
              e  =  15.012785

     Warning: ef = 15.324121 is above the highest band at k-point 153
              e  =  15.004793

     Warning: ef = 15.324121 is above the highest band at k-point 208
              e  =  15.241822

     Warning: ef = 15.324121 is above the highest band at k-point 209
              e  =  15.266913

     Warning: ef = 15.324121 is above the highest band at k-point 210
              e  =  15.318643

     total cpu time spent up to now is      189.5 secs

     total energy              =   -3673.42415257 Ry
     Harris-Foulkes estimate   =   -3673.88729581 Ry
     estimated scf accuracy    <       2.32222208 Ry

     total magnetization       =     8.41 Bohr mag/cell
     absolute magnetization    =     8.90 Bohr mag/cell

     iteration #  5     ecut=    45.00 Ry     beta= 0.10
     Davidson diagonalization with overlap
     ethr =  1.92E-03,  avg # of iterations =  3.0

     Warning: ef = 14.824486 is above the highest band at k-point  63
              e  =  14.626200

     Warning: ef = 14.824486 is above the highest band at k-point  64
              e  =  14.632925

     Warning: ef = 14.824486 is above the highest band at k-point  65
              e  =  14.710590

     Warning: ef = 14.824486 is above the highest band at k-point  66
              e  =  14.801112

     Warning: ef = 14.824486 is above the highest band at k-point  70
              e  =  14.721601

     Warning: ef = 14.824486 is above the highest band at k-point  71
              e  =  14.550574

     Warning: ef = 14.824486 is above the highest band at k-point  72
              e  =  14.338189

     Warning: ef = 14.824486 is above the highest band at k-point  73
              e  =  13.694351

     Warning: ef = 14.824486 is above the highest band at k-point  74
              e  =  13.767994

     Warning: ef = 14.824486 is above the highest band at k-point  75
              e  =  13.868651

     Warning: ef = 14.824486 is above the highest band at k-point  76
              e  =  13.971609

     Warning: ef = 14.824486 is above the highest band at k-point  77
              e  =  14.073252

     Warning: ef = 14.824486 is above the highest band at k-point  78
              e  =  14.169330

     Warning: ef = 14.824486 is above the highest band at k-point  79
              e  =  14.250204

     Warning: ef = 14.824486 is above the highest band at k-point  80
              e  =  14.305142

     Warning: ef = 14.824486 is above the highest band at k-point  81
              e  =  14.324769

     Warning: ef = 14.824486 is above the highest band at k-point 135
              e  =  14.778977

     Warning: ef = 14.824486 is above the highest band at k-point 136
              e  =  14.786884

     Warning: ef = 14.824486 is above the highest band at k-point 144
              e  =  14.634294

     Warning: ef = 14.824486 is above the highest band at k-point 145
              e  =  13.913115

     Warning: ef = 14.824486 is above the highest band at k-point 146
              e  =  14.022419

     Warning: ef = 14.824486 is above the highest band at k-point 147
              e  =  14.142279

     Warning: ef = 14.824486 is above the highest band at k-point 148
              e  =  14.261607

     Warning: ef = 14.824486 is above the highest band at k-point 149
              e  =  14.377777

     Warning: ef = 14.824486 is above the highest band at k-point 150
              e  =  14.487947

     Warning: ef = 14.824486 is above the highest band at k-point 151
              e  =  14.580254

     Warning: ef = 14.824486 is above the highest band at k-point 152
              e  =  14.643378

     Warning: ef = 14.824486 is above the highest band at k-point 153
              e  =  14.665064

     Warning: ef = 14.824486 is above the highest band at k-point 208
              e  =  14.403354

     Warning: ef = 14.824486 is above the highest band at k-point 209
              e  =  14.520123

     Warning: ef = 14.824486 is above the highest band at k-point 210
              e  =  14.666282

     Warning: ef = 14.824486 is above the highest band at k-point 211
              e  =  14.817336

     total cpu time spent up to now is      244.5 secs

     total energy              =   -3673.60001757 Ry
     Harris-Foulkes estimate   =   -3673.61693997 Ry
     estimated scf accuracy    <       0.15674074 Ry

     total magnetization       =     8.59 Bohr mag/cell
     absolute magnetization    =     9.04 Bohr mag/cell

     iteration #  6     ecut=    45.00 Ry     beta= 0.10
     Davidson diagonalization with overlap
     ethr =  2.12E-04,  avg # of iterations =  3.0

     Warning: ef = 14.563034 is above the highest band at k-point  72
              e  =  14.416458

     Warning: ef = 14.563034 is above the highest band at k-point  73
              e  =  13.694443

     Warning: ef = 14.563034 is above the highest band at k-point  74
              e  =  13.760015

     Warning: ef = 14.563034 is above the highest band at k-point  75
              e  =  13.869996

     Warning: ef = 14.563034 is above the highest band at k-point  76
              e  =  13.985764

     Warning: ef = 14.563034 is above the highest band at k-point  77
              e  =  14.100392

     Warning: ef = 14.563034 is above the highest band at k-point  78
              e  =  14.206799

     Warning: ef = 14.563034 is above the highest band at k-point  79
              e  =  14.295474

     Warning: ef = 14.563034 is above the highest band at k-point  80
              e  =  14.355189

     Warning: ef = 14.563034 is above the highest band at k-point  81
              e  =  14.376376

     Warning: ef = 14.563034 is above the highest band at k-point 145
              e  =  13.915631

     Warning: ef = 14.563034 is above the highest band at k-point 146
              e  =  14.012484

     Warning: ef = 14.563034 is above the highest band at k-point 147
              e  =  14.140071

     Warning: ef = 14.563034 is above the highest band at k-point 148
              e  =  14.270010

     Warning: ef = 14.563034 is above the highest band at k-point 149
              e  =  14.397358

     Warning: ef = 14.563034 is above the highest band at k-point 150
              e  =  14.515133

     Warning: ef = 14.563034 is above the highest band at k-point 208
              e  =  14.380607

     Warning: ef = 14.563034 is above the highest band at k-point 209
              e  =  14.520068

     total cpu time spent up to now is      305.3 secs

     total energy              =   -3673.63838803 Ry
     Harris-Foulkes estimate   =   -3673.65651905 Ry
     estimated scf accuracy    <       0.15028822 Ry

     total magnetization       =     8.09 Bohr mag/cell
     absolute magnetization    =     8.58 Bohr mag/cell

     iteration #  7     ecut=    45.00 Ry     beta= 0.10
     Davidson diagonalization with overlap
     ethr =  2.03E-04,  avg # of iterations =  1.0

     Warning: ef = 14.503798 is above the highest band at k-point  72
              e  =  14.468457

     Warning: ef = 14.503798 is above the highest band at k-point  73
              e  =  13.795217

     Warning: ef = 14.503798 is above the highest band at k-point  74
              e  =  13.860405

     Warning: ef = 14.503798 is above the highest band at k-point  75
              e  =  13.963219

     Warning: ef = 14.503798 is above the highest band at k-point  76
              e  =  14.070899

     Warning: ef = 14.503798 is above the highest band at k-point  77
              e  =  14.176713

     Warning: ef = 14.503798 is above the highest band at k-point  78
              e  =  14.274923

     Warning: ef = 14.503798 is above the highest band at k-point  79
              e  =  14.356922

     Warning: ef = 14.503798 is above the highest band at k-point  80
              e  =  14.412280

     Warning: ef = 14.503798 is above the highest band at k-point  81
              e  =  14.431953

     Warning: ef = 14.503798 is above the highest band at k-point 145
              e  =  14.022829

     Warning: ef = 14.503798 is above the highest band at k-point 146
              e  =  14.122688

     Warning: ef = 14.503798 is above the highest band at k-point 147
              e  =  14.244275

     Warning: ef = 14.503798 is above the highest band at k-point 148
              e  =  14.367105

     Warning: ef = 14.503798 is above the highest band at k-point 149
              e  =  14.487288

     total cpu time spent up to now is      338.7 secs

     total energy              =   -3673.62152746 Ry
     Harris-Foulkes estimate   =   -3673.64276183 Ry
     estimated scf accuracy    <       0.16176829 Ry

     total magnetization       =     7.79 Bohr mag/cell
     absolute magnetization    =     8.31 Bohr mag/cell

     iteration #  8     ecut=    45.00 Ry     beta= 0.10
     Davidson diagonalization with overlap
     ethr =  2.03E-04,  avg # of iterations =  1.4

     Warning: ef = 14.746636 is above the highest band at k-point  71
              e  =  14.684441

     Warning: ef = 14.746636 is above the highest band at k-point  72
              e  =  14.473707

     Warning: ef = 14.746636 is above the highest band at k-point  73
              e  =  13.877512

     Warning: ef = 14.746636 is above the highest band at k-point  74
              e  =  13.935096

     Warning: ef = 14.746636 is above the highest band at k-point  75
              e  =  14.024719

     Warning: ef = 14.746636 is above the highest band at k-point  76
              e  =  14.118704

     Warning: ef = 14.746636 is above the highest band at k-point  77
              e  =  14.210178

     Warning: ef = 14.746636 is above the highest band at k-point  78
              e  =  14.294875

     Warning: ef = 14.746636 is above the highest band at k-point  79
              e  =  14.365696

     Warning: ef = 14.746636 is above the highest band at k-point  80
              e  =  14.413644

     Warning: ef = 14.746636 is above the highest band at k-point  81
              e  =  14.430721

     Warning: ef = 14.746636 is above the highest band at k-point 145
              e  =  14.108439

     Warning: ef = 14.746636 is above the highest band at k-point 146
              e  =  14.207303

     Warning: ef = 14.746636 is above the highest band at k-point 147
              e  =  14.318979

     Warning: ef = 14.746636 is above the highest band at k-point 148
              e  =  14.430933

     Warning: ef = 14.746636 is above the highest band at k-point 149
              e  =  14.540178

     Warning: ef = 14.746636 is above the highest band at k-point 150
              e  =  14.641187

     Warning: ef = 14.746636 is above the highest band at k-point 151
              e  =  14.725350

     Warning: ef = 14.746636 is above the highest band at k-point 208
              e  =  14.607006

     Warning: ef = 14.746636 is above the highest band at k-point 209
              e  =  14.716929

     total cpu time spent up to now is      375.4 secs

     total energy              =   -3673.63317620 Ry
     Harris-Foulkes estimate   =   -3673.63770658 Ry
     estimated scf accuracy    <       0.01462979 Ry

     total magnetization       =     8.10 Bohr mag/cell
     absolute magnetization    =     8.65 Bohr mag/cell

     iteration #  9     ecut=    45.00 Ry     beta= 0.10
     Davidson diagonalization with overlap
     ethr =  1.98E-05,  avg # of iterations =  3.3

     Warning: ef = 14.806895 is above the highest band at k-point  71
              e  =  14.684191

     Warning: ef = 14.806895 is above the highest band at k-point  72
              e  =  14.466018

     Warning: ef = 14.806895 is above the highest band at k-point  73
              e  =  13.915972

     Warning: ef = 14.806895 is above the highest band at k-point  74
              e  =  13.990809

     Warning: ef = 14.806895 is above the highest band at k-point  75
              e  =  14.073208

     Warning: ef = 14.806895 is above the highest band at k-point  76
              e  =  14.155333

     Warning: ef = 14.806895 is above the highest band at k-point  77
              e  =  14.235312

     Warning: ef = 14.806895 is above the highest band at k-point  78
              e  =  14.309553

     Warning: ef = 14.806895 is above the highest band at k-point  79
              e  =  14.371944

     Warning: ef = 14.806895 is above the highest band at k-point  80
              e  =  14.414417

     Warning: ef = 14.806895 is above the highest band at k-point  81
              e  =  14.429596

     Warning: ef = 14.806895 is above the highest band at k-point 144
              e  =  14.796019

     Warning: ef = 14.806895 is above the highest band at k-point 145
              e  =  14.164060

     Warning: ef = 14.806895 is above the highest band at k-point 146
              e  =  14.265134

     Warning: ef = 14.806895 is above the highest band at k-point 147
              e  =  14.368270

     Warning: ef = 14.806895 is above the highest band at k-point 148
              e  =  14.471782

     Warning: ef = 14.806895 is above the highest band at k-point 149
              e  =  14.573040

     Warning: ef = 14.806895 is above the highest band at k-point 150
              e  =  14.666948

     Warning: ef = 14.806895 is above the highest band at k-point 151
              e  =  14.745455

     Warning: ef = 14.806895 is above the highest band at k-point 152
              e  =  14.798572

     Warning: ef = 14.806895 is above the highest band at k-point 208
              e  =  14.658210

     Warning: ef = 14.806895 is above the highest band at k-point 209
              e  =  14.764555

     total cpu time spent up to now is      438.2 secs

     total energy              =   -3673.63264470 Ry
     Harris-Foulkes estimate   =   -3673.63836575 Ry
     estimated scf accuracy    <       0.01026704 Ry

     total magnetization       =     8.14 Bohr mag/cell
     absolute magnetization    =     8.69 Bohr mag/cell

     iteration # 10     ecut=    45.00 Ry     beta= 0.10
     Davidson diagonalization with overlap
     ethr =  1.39E-05,  avg # of iterations =  2.6

     Warning: ef = 14.747270 is above the highest band at k-point  71
              e  =  14.665555

     Warning: ef = 14.747270 is above the highest band at k-point  72
              e  =  14.450012

     Warning: ef = 14.747270 is above the highest band at k-point  73
              e  =  13.812789

     Warning: ef = 14.747270 is above the highest band at k-point  74
              e  =  13.884449

     Warning: ef = 14.747270 is above the highest band at k-point  75
              e  =  13.981604

     Warning: ef = 14.747270 is above the highest band at k-point  76
              e  =  14.080924

     Warning: ef = 14.747270 is above the highest band at k-point  77
              e  =  14.178065

     Warning: ef = 14.747270 is above the highest band at k-point  78
              e  =  14.268172

     Warning: ef = 14.747270 is above the highest band at k-point  79
              e  =  14.343533

     Warning: ef = 14.747270 is above the highest band at k-point  80
              e  =  14.394523

     Warning: ef = 14.747270 is above the highest band at k-point  81
              e  =  14.412668

     Warning: ef = 14.747270 is above the highest band at k-point 145
              e  =  14.050969

     Warning: ef = 14.747270 is above the highest band at k-point 146
              e  =  14.154692

     Warning: ef = 14.747270 is above the highest band at k-point 147
              e  =  14.270270

     Warning: ef = 14.747270 is above the highest band at k-point 148
              e  =  14.386349

     Warning: ef = 14.747270 is above the highest band at k-point 149
              e  =  14.499767

     Warning: ef = 14.747270 is above the highest band at k-point 150
              e  =  14.604681

     Warning: ef = 14.747270 is above the highest band at k-point 151
              e  =  14.692098

     Warning: ef = 14.747270 is above the highest band at k-point 208
              e  =  14.548860

     Warning: ef = 14.747270 is above the highest band at k-point 209
              e  =  14.664959

     total cpu time spent up to now is      489.8 secs

     total energy              =   -3673.63624595 Ry
     Harris-Foulkes estimate   =   -3673.63601235 Ry
     estimated scf accuracy    <       0.00638938 Ry

     total magnetization       =     8.19 Bohr mag/cell
     absolute magnetization    =     8.74 Bohr mag/cell

     iteration # 11     ecut=    45.00 Ry     beta= 0.10
     Davidson diagonalization with overlap
     ethr =  8.63E-06,  avg # of iterations =  1.6

     Warning: ef = 14.752797 is above the highest band at k-point  71
              e  =  14.686140

     Warning: ef = 14.752797 is above the highest band at k-point  72
              e  =  14.468131

     Warning: ef = 14.752797 is above the highest band at k-point  73
              e  =  13.852028

     Warning: ef = 14.752797 is above the highest band at k-point  74
              e  =  13.933370

     Warning: ef = 14.752797 is above the highest band at k-point  75
              e  =  14.026823

     Warning: ef = 14.752797 is above the highest band at k-point  76
              e  =  14.121002

     Warning: ef = 14.752797 is above the highest band at k-point  77
              e  =  14.213416

     Warning: ef = 14.752797 is above the highest band at k-point  78
              e  =  14.299547

     Warning: ef = 14.752797 is above the highest band at k-point  79
              e  =  14.371944

     Warning: ef = 14.752797 is above the highest band at k-point  80
              e  =  14.421129

     Warning: ef = 14.752797 is above the highest band at k-point  81
              e  =  14.438673

     Warning: ef = 14.752797 is above the highest band at k-point 145
              e  =  14.095706

     Warning: ef = 14.752797 is above the highest band at k-point 146
              e  =  14.204179

     Warning: ef = 14.752797 is above the highest band at k-point 147
              e  =  14.315649

     Warning: ef = 14.752797 is above the highest band at k-point 148
              e  =  14.427911

     Warning: ef = 14.752797 is above the highest band at k-point 149
              e  =  14.537991

     Warning: ef = 14.752797 is above the highest band at k-point 150
              e  =  14.640198

     Warning: ef = 14.752797 is above the highest band at k-point 151
              e  =  14.725648

     Warning: ef = 14.752797 is above the highest band at k-point 208
              e  =  14.598206

     Warning: ef = 14.752797 is above the highest band at k-point 209
              e  =  14.708290

     total cpu time spent up to now is      531.2 secs

     total energy              =   -3673.63738417 Ry
     Harris-Foulkes estimate   =   -3673.63734217 Ry
     estimated scf accuracy    <       0.00025021 Ry

     total magnetization       =     8.13 Bohr mag/cell
     absolute magnetization    =     8.70 Bohr mag/cell

     iteration # 12     ecut=    45.00 Ry     beta= 0.10
     Davidson diagonalization with overlap
     ethr =  3.38E-07,  avg # of iterations =  3.0

     Warning: ef = 14.749020 is above the highest band at k-point  71
              e  =  14.690087

     Warning: ef = 14.749020 is above the highest band at k-point  72
              e  =  14.472138

     Warning: ef = 14.749020 is above the highest band at k-point  73
              e  =  13.855205

     Warning: ef = 14.749020 is above the highest band at k-point  74
              e  =  13.938002

     Warning: ef = 14.749020 is above the highest band at k-point  75
              e  =  14.031381

     Warning: ef = 14.749020 is above the highest band at k-point  76
              e  =  14.125425

     Warning: ef = 14.749020 is above the highest band at k-point  77
              e  =  14.217751

     Warning: ef = 14.749020 is above the highest band at k-point  78
              e  =  14.303826

     Warning: ef = 14.749020 is above the highest band at k-point  79
              e  =  14.376237

     Warning: ef = 14.749020 is above the highest band at k-point  80
              e  =  14.425442

     Warning: ef = 14.749020 is above the highest band at k-point  81
              e  =  14.442995

     Warning: ef = 14.749020 is above the highest band at k-point 145
              e  =  14.100055

     Warning: ef = 14.749020 is above the highest band at k-point 146
              e  =  14.208691

     Warning: ef = 14.749020 is above the highest band at k-point 147
              e  =  14.320053

     Warning: ef = 14.749020 is above the highest band at k-point 148
              e  =  14.432227

     Warning: ef = 14.749020 is above the highest band at k-point 149
              e  =  14.542255

     Warning: ef = 14.749020 is above the highest band at k-point 150
              e  =  14.644459

     Warning: ef = 14.749020 is above the highest band at k-point 151
              e  =  14.729926

     Warning: ef = 14.749020 is above the highest band at k-point 208
              e  =  14.602729

     Warning: ef = 14.749020 is above the highest band at k-point 209
              e  =  14.712418

     total cpu time spent up to now is      581.9 secs

     total energy              =   -3673.63748601 Ry
     Harris-Foulkes estimate   =   -3673.63740253 Ry
     estimated scf accuracy    <       0.00023466 Ry

     total magnetization       =     8.12 Bohr mag/cell
     absolute magnetization    =     8.69 Bohr mag/cell

     iteration # 13     ecut=    45.00 Ry     beta= 0.10
     Davidson diagonalization with overlap
     ethr =  3.17E-07,  avg # of iterations =  2.0

     Warning: ef = 14.746510 is above the highest band at k-point  71
              e  =  14.699070

     Warning: ef = 14.746510 is above the highest band at k-point  72
              e  =  14.481755

     Warning: ef = 14.746510 is above the highest band at k-point  73
              e  =  13.853658

     Warning: ef = 14.746510 is above the highest band at k-point  74
              e  =  13.937299

     Warning: ef = 14.746510 is above the highest band at k-point  75
              e  =  14.032567

     Warning: ef = 14.746510 is above the highest band at k-point  76
              e  =  14.128624

     Warning: ef = 14.746510 is above the highest band at k-point  77
              e  =  14.222986

     Warning: ef = 14.746510 is above the highest band at k-point  78
              e  =  14.310964

     Warning: ef = 14.746510 is above the highest band at k-point  79
              e  =  14.384897

     Warning: ef = 14.746510 is above the highest band at k-point  80
              e  =  14.435102

     Warning: ef = 14.746510 is above the highest band at k-point  81
              e  =  14.453004

     Warning: ef = 14.746510 is above the highest band at k-point 145
              e  =  14.098785

     Warning: ef = 14.746510 is above the highest band at k-point 146
              e  =  14.208371

     Warning: ef = 14.746510 is above the highest band at k-point 147
              e  =  14.321166

     Warning: ef = 14.746510 is above the highest band at k-point 148
              e  =  14.434815

     Warning: ef = 14.746510 is above the highest band at k-point 149
              e  =  14.546288

     Warning: ef = 14.746510 is above the highest band at k-point 150
              e  =  14.649794

     Warning: ef = 14.746510 is above the highest band at k-point 151
              e  =  14.736326

     Warning: ef = 14.746510 is above the highest band at k-point 208
              e  =  14.603965

     Warning: ef = 14.746510 is above the highest band at k-point 209
              e  =  14.713501

     total cpu time spent up to now is      627.7 secs

     total energy              =   -3673.63754102 Ry
     Harris-Foulkes estimate   =   -3673.63752650 Ry
     estimated scf accuracy    <       0.00002900 Ry

     total magnetization       =     8.11 Bohr mag/cell
     absolute magnetization    =     8.70 Bohr mag/cell

     iteration # 14     ecut=    45.00 Ry     beta= 0.10
     Davidson diagonalization with overlap
     ethr =  3.92E-08,  avg # of iterations =  2.3

     Warning: ef = 14.744822 is above the highest band at k-point  71
              e  =  14.699814

     Warning: ef = 14.744822 is above the highest band at k-point  72
              e  =  14.482318

     Warning: ef = 14.744822 is above the highest band at k-point  73
              e  =  13.850519

     Warning: ef = 14.744822 is above the highest band at k-point  74
              e  =  13.934854

     Warning: ef = 14.744822 is above the highest band at k-point  75
              e  =  14.030716

     Warning: ef = 14.744822 is above the highest band at k-point  76
              e  =  14.127429

     Warning: ef = 14.744822 is above the highest band at k-point  77
              e  =  14.222463

     Warning: ef = 14.744822 is above the highest band at k-point  78
              e  =  14.311079

     Warning: ef = 14.744822 is above the highest band at k-point  79
              e  =  14.385546

     Warning: ef = 14.744822 is above the highest band at k-point  80
              e  =  14.436109

     Warning: ef = 14.744822 is above the highest band at k-point  81
              e  =  14.454138

     Warning: ef = 14.744822 is above the highest band at k-point 145
              e  =  14.095763

     Warning: ef = 14.744822 is above the highest band at k-point 146
              e  =  14.205670

     Warning: ef = 14.744822 is above the highest band at k-point 147
              e  =  14.318922

     Warning: ef = 14.744822 is above the highest band at k-point 148
              e  =  14.433058

     Warning: ef = 14.744822 is above the highest band at k-point 149
              e  =  14.545027

     Warning: ef = 14.744822 is above the highest band at k-point 150
              e  =  14.649004

     Warning: ef = 14.744822 is above the highest band at k-point 151
              e  =  14.735933

     Warning: ef = 14.744822 is above the highest band at k-point 208
              e  =  14.601499

     Warning: ef = 14.744822 is above the highest band at k-point 209
              e  =  14.711016

     total cpu time spent up to now is      676.0 secs

     total energy              =   -3673.63756605 Ry
     Harris-Foulkes estimate   =   -3673.63754475 Ry
     estimated scf accuracy    <       0.00002548 Ry

     total magnetization       =     8.11 Bohr mag/cell
     absolute magnetization    =     8.70 Bohr mag/cell

     iteration # 15     ecut=    45.00 Ry     beta= 0.10
     Davidson diagonalization with overlap
     ethr =  3.44E-08,  avg # of iterations =  2.4

     Warning: ef = 14.746243 is above the highest band at k-point  71
              e  =  14.704605

     Warning: ef = 14.746243 is above the highest band at k-point  72
              e  =  14.486780

     Warning: ef = 14.746243 is above the highest band at k-point  73
              e  =  13.854452

     Warning: ef = 14.746243 is above the highest band at k-point  74
              e  =  13.939748

     Warning: ef = 14.746243 is above the highest band at k-point  75
              e  =  14.035673

     Warning: ef = 14.746243 is above the highest band at k-point  76
              e  =  14.132424

     Warning: ef = 14.746243 is above the highest band at k-point  77
              e  =  14.227541

     Warning: ef = 14.746243 is above the highest band at k-point  78
              e  =  14.316280

     Warning: ef = 14.746243 is above the highest band at k-point  79
              e  =  14.390880

     Warning: ef = 14.746243 is above the highest band at k-point  80
              e  =  14.441550

     Warning: ef = 14.746243 is above the highest band at k-point  81
              e  =  14.459619

     Warning: ef = 14.746243 is above the highest band at k-point 145
              e  =  14.101822

     Warning: ef = 14.746243 is above the highest band at k-point 146
              e  =  14.210596

     Warning: ef = 14.746243 is above the highest band at k-point 147
              e  =  14.323812

     Warning: ef = 14.746243 is above the highest band at k-point 148
              e  =  14.437973

     Warning: ef = 14.746243 is above the highest band at k-point 149
              e  =  14.550018

     Warning: ef = 14.746243 is above the highest band at k-point 150
              e  =  14.654106

     Warning: ef = 14.746243 is above the highest band at k-point 151
              e  =  14.741156

     Warning: ef = 14.746243 is above the highest band at k-point 208
              e  =  14.607183

     Warning: ef = 14.746243 is above the highest band at k-point 209
              e  =  14.715858

     total cpu time spent up to now is      728.5 secs

     total energy              =   -3673.63757288 Ry
     Harris-Foulkes estimate   =   -3673.63757007 Ry
     estimated scf accuracy    <       0.00000229 Ry

     total magnetization       =     8.11 Bohr mag/cell
     absolute magnetization    =     8.70 Bohr mag/cell

     iteration # 16     ecut=    45.00 Ry     beta= 0.10
     Davidson diagonalization with overlap
     ethr =  3.09E-09,  avg # of iterations =  2.7

     Warning: ef = 14.745448 is above the highest band at k-point  71
              e  =  14.704864

     Warning: ef = 14.745448 is above the highest band at k-point  72
              e  =  14.487122

     Warning: ef = 14.745448 is above the highest band at k-point  73
              e  =  13.853245

     Warning: ef = 14.745448 is above the highest band at k-point  74
              e  =  13.938944

     Warning: ef = 14.745448 is above the highest band at k-point  75
              e  =  14.035068

     Warning: ef = 14.745448 is above the highest band at k-point  76
              e  =  14.132041

     Warning: ef = 14.745448 is above the highest band at k-point  77
              e  =  14.227383

     Warning: ef = 14.745448 is above the highest band at k-point  78
              e  =  14.316330

     Warning: ef = 14.745448 is above the highest band at k-point  79
              e  =  14.391101

     Warning: ef = 14.745448 is above the highest band at k-point  80
              e  =  14.441881

     Warning: ef = 14.745448 is above the highest band at k-point  81
              e  =  14.459989

     Warning: ef = 14.745448 is above the highest band at k-point 145
              e  =  14.100713

     Warning: ef = 14.745448 is above the highest band at k-point 146
              e  =  14.209723

     Warning: ef = 14.745448 is above the highest band at k-point 147
              e  =  14.323102

     Warning: ef = 14.745448 is above the highest band at k-point 148
              e  =  14.437428

     Warning: ef = 14.745448 is above the highest band at k-point 149
              e  =  14.549634

     Warning: ef = 14.745448 is above the highest band at k-point 150
              e  =  14.653870

     Warning: ef = 14.745448 is above the highest band at k-point 151
              e  =  14.741040

     Warning: ef = 14.745448 is above the highest band at k-point 208
              e  =  14.606302

     Warning: ef = 14.745448 is above the highest band at k-point 209
              e  =  14.715025

     total cpu time spent up to now is      780.2 secs

     total energy              =   -3673.63757550 Ry
     Harris-Foulkes estimate   =   -3673.63757282 Ry
     estimated scf accuracy    <       0.00000367 Ry

     total magnetization       =     8.11 Bohr mag/cell
     absolute magnetization    =     8.70 Bohr mag/cell

     iteration # 17     ecut=    45.00 Ry     beta= 0.10
     Davidson diagonalization with overlap
     ethr =  3.09E-09,  avg # of iterations =  2.3

     Warning: ef = 14.745814 is above the highest band at k-point  71
              e  =  14.705803

     Warning: ef = 14.745814 is above the highest band at k-point  72
              e  =  14.488080

     Warning: ef = 14.745814 is above the highest band at k-point  73
              e  =  13.854099

     Warning: ef = 14.745814 is above the highest band at k-point  74
              e  =  13.940150

     Warning: ef = 14.745814 is above the highest band at k-point  75
              e  =  14.036260

     Warning: ef = 14.745814 is above the highest band at k-point  76
              e  =  14.133218

     Warning: ef = 14.745814 is above the highest band at k-point  77
              e  =  14.228560

     Warning: ef = 14.745814 is above the highest band at k-point  78
              e  =  14.317522

     Warning: ef = 14.745814 is above the highest band at k-point  79
              e  =  14.392314

     Warning: ef = 14.745814 is above the highest band at k-point  80
              e  =  14.443114

     Warning: ef = 14.745814 is above the highest band at k-point  81
              e  =  14.461230

     Warning: ef = 14.745814 is above the highest band at k-point 145
              e  =  14.102218

     Warning: ef = 14.745814 is above the highest band at k-point 146
              e  =  14.210841

     Warning: ef = 14.745814 is above the highest band at k-point 147
              e  =  14.324194

     Warning: ef = 14.745814 is above the highest band at k-point 148
              e  =  14.438512

     Warning: ef = 14.745814 is above the highest band at k-point 149
              e  =  14.550726

     Warning: ef = 14.745814 is above the highest band at k-point 150
              e  =  14.654981

     Warning: ef = 14.745814 is above the highest band at k-point 151
              e  =  14.742176

     Warning: ef = 14.745814 is above the highest band at k-point 208
              e  =  14.607563

     Warning: ef = 14.745814 is above the highest band at k-point 209
              e  =  14.716010

     Magnetic moment per site:
     atom:    1    charge:   13.5844    magn:    3.9288    constr:    0.0000
     atom:    2    charge:   13.5850    magn:    3.9297    constr:    0.0000
     atom:    3    charge:    9.1164    magn:    0.0480    constr:    0.0000
     atom:    4    charge:    9.1164    magn:    0.0480    constr:    0.0000
     atom:    5    charge:    9.1164    magn:    0.0480    constr:    0.0000
     atom:    6    charge:    9.1164    magn:    0.0480    constr:    0.0000

     total cpu time spent up to now is      830.2 secs

     End of self-consistent calculation

     Number of k-points >= 100: set verbosity='high' to print the bands.

     the Fermi energy is    14.7458 ev

!    total energy              =   -3673.63758291 Ry
     Harris-Foulkes estimate   =   -3673.63757571 Ry
     estimated scf accuracy    <       0.00000075 Ry

     total all-electron energy =   -156730.536513 Ry

     The total energy is the sum of the following terms:

     one-electron contribution =    -182.92840606 Ry
     hartree contribution      =     165.56486278 Ry
     xc contribution           =    -184.27539423 Ry
     ewald contribution        =    -546.58413949 Ry
     one-center paw contrib.   =   -2925.41450592 Ry

     total magnetization       =     8.11 Bohr mag/cell
     absolute magnetization    =     8.70 Bohr mag/cell

     convergence has been achieved in  17 iterations

     Writing output data file mnau2.save/

     init_run     :     15.37s CPU     15.98s WALL (       1 calls)
     electrons    :    792.59s CPU    812.04s WALL (       1 calls)

     Called by init_run:
     wfcinit      :     14.09s CPU     14.59s WALL (       1 calls)
     potinit      :      0.60s CPU      0.66s WALL (       1 calls)
     hinit0       :      0.59s CPU      0.64s WALL (       1 calls)

     Called by electrons:
     c_bands      :    690.94s CPU    705.89s WALL (      17 calls)
     sum_band     :     92.82s CPU     95.79s WALL (      17 calls)
     v_of_rho     :      0.39s CPU      0.40s WALL (      18 calls)
     newd         :      0.87s CPU      0.87s WALL (      18 calls)
     PAW_pot      :      7.98s CPU      8.04s WALL (      18 calls)
     mix_rho      :      0.05s CPU      0.05s WALL (      17 calls)

     Called by c_bands:
     init_us_2    :      6.86s CPU      7.03s WALL (   28350 calls)
     cegterg      :    669.57s CPU    683.96s WALL (   13770 calls)

     Called by sum_band:
     sum_band:bec :      0.57s CPU      0.58s WALL (   13770 calls)
     addusdens    :      1.53s CPU      1.54s WALL (      17 calls)

     Called by *egterg:
     h_psi        :    246.81s CPU    260.08s WALL (   45502 calls)
     s_psi        :     16.83s CPU     17.03s WALL (   45502 calls)
     g_psi        :      2.21s CPU      2.23s WALL (   30922 calls)
     cdiaghg      :    342.88s CPU    343.68s WALL (   44692 calls)

     Called by h_psi:
     h_psi:pot    :    245.48s CPU    258.73s WALL (   45502 calls)
     h_psi:calbec :     28.77s CPU     29.99s WALL (   45502 calls)
     vloc_psi     :    199.28s CPU    211.14s WALL (   45502 calls)
     add_vuspsi   :     17.22s CPU     17.42s WALL (   45502 calls)

     General routines
     calbec       :     38.22s CPU     39.84s WALL (   59272 calls)
     fft          :      0.18s CPU      0.21s WALL (     446 calls)
     ffts         :      0.01s CPU      0.01s WALL (      70 calls)
     fftw         :    224.57s CPU    237.89s WALL ( 3464120 calls)
     interpolate  :      0.02s CPU      0.02s WALL (      36 calls)

     Parallel routines
     fft_scatt_xy :     24.96s CPU     26.37s WALL ( 3464636 calls)
     fft_scatt_yz :    115.86s CPU    123.41s WALL ( 3464636 calls)

     PWSCF        : 13m36.51s CPU    14m59.41s WALL


   This run was terminated on:  14:59:17  14Feb2019            

=------------------------------------------------------------------------------=
   JOB DONE.
=------------------------------------------------------------------------------=
