
     Program PWSCF v.6.3 starts on 14Feb2019 at 15:33:10 

     This program is part of the open-source Quantum ESPRESSO suite
     for quantum simulation of materials; please cite
         "P. Giannozzi et al., J. Phys.:Condens. Matter 21 395502 (2009);
         "P. Giannozzi et al., J. Phys.:Condens. Matter 29 465901 (2017);
          URL http://www.quantum-espresso.org", 
     in publications or presentations arising from this work. More details at
     http://www.quantum-espresso.org/quote

     Parallel version (MPI), running on    16 processors

     MPI processes distributed on     1 nodes
     R & G space division:  proc/nbgrp/npool/nimage =      16
     Waiting for input...
     Reading input from standard input

     Current dimensions of program PWSCF are:
     Max number of different atomic species (ntypx) = 10
     Max number of k-points (npk) =  40000
     Max angular momentum in pseudopotentials (lmaxx) =  3
     Message from routine read_upf::
     Pseudo file ./pseudo/Mn.pbe-spn-kjpaw_psl.0.3.1.UPF has been successfully fixed on the fly.
To avoid this message in the future you can permanently fix 
 your pseudo files following instructions given in: 
https://gitlab.com/QEF/q-e/blob/master/upftools/how_to_fix_upf.md
               file Mn.pbe-spn-kjpaw_psl.0.3.1.UPF: wavefunction(s)  3P 3D renormalized
     Message from routine read_upf::
     Pseudo file ./pseudo/Mn.pbe-spn-kjpaw_psl.0.3.1.UPF has been successfully fixed on the fly.
To avoid this message in the future you can permanently fix 
 your pseudo files following instructions given in: 
https://gitlab.com/QEF/q-e/blob/master/upftools/how_to_fix_upf.md
               file Mn.pbe-spn-kjpaw_psl.0.3.1.UPF: wavefunction(s)  3P 3D renormalized
     Message from routine read_upf::
     Pseudo file ./pseudo/Au.pbe-dn-kjpaw_psl.0.1.UPF has been successfully fixed on the fly.
To avoid this message in the future you can permanently fix 
 your pseudo files following instructions given in: 
https://gitlab.com/QEF/q-e/blob/master/upftools/how_to_fix_upf.md
               file Au.pbe-dn-kjpaw_psl.0.1.UPF: wavefunction(s)  6S 6P 5D renormalized

     Subspace diagonalization in iterative solution of the eigenvalue problem:
     one sub-group per band group will be used
     scalapack distributed-memory algorithm (size of sub-group:  2*  2 procs)


     Parallelization info
     --------------------
     sticks:   dense  smooth     PW     G-vecs:    dense   smooth      PW
     Min          60      37     11                 3780     1761     297
     Max          61      38     12                 3793     1770     308
     Sum         973     593    177                60601    28191    4775



     bravais-lattice index     =            0
     lattice parameter (alat)  =       6.4153  a.u.
     unit-cell volume          =     690.6834 (a.u.)^3
     number of atoms/cell      =            6
     number of atomic types    =            3
     number of electrons       =        74.00
     number of Kohn-Sham states=           44
     kinetic-energy cutoff     =      45.0000  Ry
     charge density cutoff     =     300.0000  Ry
     convergence threshold     =      1.0E-06
     mixing beta               =       0.1000
     number of iterations used =            8  plain     mixing
     Exchange-correlation      = SLA PW PBX PBC ( 1  4  3  4 0 0)

     celldm(1)=   6.415316  celldm(2)=   0.000000  celldm(3)=   0.000000
     celldm(4)=   0.000000  celldm(5)=   0.000000  celldm(6)=   0.000000

     crystal axes: (cart. coord. in units of alat)
               a(1) = (   1.000000   0.000000   0.000000 )  
               a(2) = (   0.000000   1.000000   0.000000 )  
               a(3) = (   0.000000   0.000000   2.615923 )  

     reciprocal axes: (cart. coord. in units 2 pi/alat)
               b(1) = (  1.000000  0.000000  0.000000 )  
               b(2) = (  0.000000  1.000000  0.000000 )  
               b(3) = (  0.000000  0.000000  0.382274 )  


     PseudoPot. # 1 for Mn read from file:
     ./pseudo/Mn.pbe-spn-kjpaw_psl.0.3.1.UPF
     MD5 check sum: 7eef95dd2aae66803482eea66ebeebf1
     Pseudo is Projector augmented-wave + core cor, Zval = 15.0
     Generated using "atomic" code by A. Dal Corso v.5.0.99 svn rev. 10869
     Shape of augmentation charge: PSQ
     Using radial grid of 1187 points,  6 beta functions with: 
                l(1) =   0
                l(2) =   0
                l(3) =   1
                l(4) =   1
                l(5) =   2
                l(6) =   2
     Q(r) pseudized with 0 coefficients 


     PseudoPot. # 2 for Mn read from file:
     ./pseudo/Mn.pbe-spn-kjpaw_psl.0.3.1.UPF
     MD5 check sum: 7eef95dd2aae66803482eea66ebeebf1
     Pseudo is Projector augmented-wave + core cor, Zval = 15.0
     Generated using "atomic" code by A. Dal Corso v.5.0.99 svn rev. 10869
     Shape of augmentation charge: PSQ
     Using radial grid of 1187 points,  6 beta functions with: 
                l(1) =   0
                l(2) =   0
                l(3) =   1
                l(4) =   1
                l(5) =   2
                l(6) =   2
     Q(r) pseudized with 0 coefficients 


     PseudoPot. # 3 for Au read from file:
     ./pseudo/Au.pbe-dn-kjpaw_psl.0.1.UPF
     MD5 check sum: 5c9b92683623e7ae2ab3f8e525febab6
     Pseudo is Projector augmented-wave + core cor, Zval = 11.0
     Generated using "atomic" code by A. Dal Corso v.5.0.2 svn rev. 9415
     Shape of augmentation charge: PSQ
     Using radial grid of 1279 points,  6 beta functions with: 
                l(1) =   0
                l(2) =   0
                l(3) =   1
                l(4) =   1
                l(5) =   2
                l(6) =   2
     Q(r) pseudized with 0 coefficients 


     atomic species   valence    mass     pseudopotential
        Mn1           15.00    54.93800     Mn( 1.00)
        Mn2           15.00    54.93800     Mn( 1.00)
        Au            11.00   196.96600     Au( 1.00)

     Starting magnetic structure 
     atomic species   magnetization
        Mn1          1.000
        Mn2          1.000
        Au           0.000

     16 Sym. Ops., with inversion, found



   Cartesian axes

     site n.     atom                  positions (alat units)
         1           Mn1 tau(   1) = (   0.0000000   0.0000000   0.0000000  )
         2           Mn2 tau(   2) = (   0.5000000   0.5000000   1.3079613  )
         3           Au  tau(   3) = (   0.5000000   0.5000000   2.1982094  )
         4           Au  tau(   4) = (   0.5000000   0.5000000   0.4177131  )
         5           Au  tau(   5) = (   0.0000000   0.0000000   0.8902482  )
         6           Au  tau(   6) = (   0.0000000   0.0000000   1.7256744  )

     number of k points=    75 (tetrahedron method)
                       cart. coord. in units 2pi/alat
        k(    1) = (   0.0000000   0.0000000   0.0000000), wk =   0.0019531
        k(    2) = (   0.0000000   0.0000000   0.0477843), wk =   0.0039062
        k(    3) = (   0.0000000   0.0000000   0.0955686), wk =   0.0039062
        k(    4) = (   0.0000000   0.0000000   0.1433529), wk =   0.0039062
        k(    5) = (   0.0000000   0.0000000  -0.1911372), wk =   0.0019531
        k(    6) = (   0.0000000   0.1250000   0.0000000), wk =   0.0078125
        k(    7) = (   0.0000000   0.1250000   0.0477843), wk =   0.0156250
        k(    8) = (   0.0000000   0.1250000   0.0955686), wk =   0.0156250
        k(    9) = (   0.0000000   0.1250000   0.1433529), wk =   0.0156250
        k(   10) = (   0.0000000   0.1250000  -0.1911372), wk =   0.0078125
        k(   11) = (   0.0000000   0.2500000   0.0000000), wk =   0.0078125
        k(   12) = (   0.0000000   0.2500000   0.0477843), wk =   0.0156250
        k(   13) = (   0.0000000   0.2500000   0.0955686), wk =   0.0156250
        k(   14) = (   0.0000000   0.2500000   0.1433529), wk =   0.0156250
        k(   15) = (   0.0000000   0.2500000  -0.1911372), wk =   0.0078125
        k(   16) = (   0.0000000   0.3750000   0.0000000), wk =   0.0078125
        k(   17) = (   0.0000000   0.3750000   0.0477843), wk =   0.0156250
        k(   18) = (   0.0000000   0.3750000   0.0955686), wk =   0.0156250
        k(   19) = (   0.0000000   0.3750000   0.1433529), wk =   0.0156250
        k(   20) = (   0.0000000   0.3750000  -0.1911372), wk =   0.0078125
        k(   21) = (   0.0000000  -0.5000000   0.0000000), wk =   0.0039062
        k(   22) = (   0.0000000  -0.5000000   0.0477843), wk =   0.0078125
        k(   23) = (   0.0000000  -0.5000000   0.0955686), wk =   0.0078125
        k(   24) = (   0.0000000  -0.5000000   0.1433529), wk =   0.0078125
        k(   25) = (   0.0000000  -0.5000000  -0.1911372), wk =   0.0039062
        k(   26) = (   0.1250000   0.1250000   0.0000000), wk =   0.0078125
        k(   27) = (   0.1250000   0.1250000   0.0477843), wk =   0.0156250
        k(   28) = (   0.1250000   0.1250000   0.0955686), wk =   0.0156250
        k(   29) = (   0.1250000   0.1250000   0.1433529), wk =   0.0156250
        k(   30) = (   0.1250000   0.1250000  -0.1911372), wk =   0.0078125
        k(   31) = (   0.1250000   0.2500000   0.0000000), wk =   0.0156250
        k(   32) = (   0.1250000   0.2500000   0.0477843), wk =   0.0312500
        k(   33) = (   0.1250000   0.2500000   0.0955686), wk =   0.0312500
        k(   34) = (   0.1250000   0.2500000   0.1433529), wk =   0.0312500
        k(   35) = (   0.1250000   0.2500000  -0.1911372), wk =   0.0156250
        k(   36) = (   0.1250000   0.3750000   0.0000000), wk =   0.0156250
        k(   37) = (   0.1250000   0.3750000   0.0477843), wk =   0.0312500
        k(   38) = (   0.1250000   0.3750000   0.0955686), wk =   0.0312500
        k(   39) = (   0.1250000   0.3750000   0.1433529), wk =   0.0312500
        k(   40) = (   0.1250000   0.3750000  -0.1911372), wk =   0.0156250
        k(   41) = (   0.1250000  -0.5000000   0.0000000), wk =   0.0078125
        k(   42) = (   0.1250000  -0.5000000   0.0477843), wk =   0.0156250
        k(   43) = (   0.1250000  -0.5000000   0.0955686), wk =   0.0156250
        k(   44) = (   0.1250000  -0.5000000   0.1433529), wk =   0.0156250
        k(   45) = (   0.1250000  -0.5000000  -0.1911372), wk =   0.0078125
        k(   46) = (   0.2500000   0.2500000   0.0000000), wk =   0.0078125
        k(   47) = (   0.2500000   0.2500000   0.0477843), wk =   0.0156250
        k(   48) = (   0.2500000   0.2500000   0.0955686), wk =   0.0156250
        k(   49) = (   0.2500000   0.2500000   0.1433529), wk =   0.0156250
        k(   50) = (   0.2500000   0.2500000  -0.1911372), wk =   0.0078125
        k(   51) = (   0.2500000   0.3750000   0.0000000), wk =   0.0156250
        k(   52) = (   0.2500000   0.3750000   0.0477843), wk =   0.0312500
        k(   53) = (   0.2500000   0.3750000   0.0955686), wk =   0.0312500
        k(   54) = (   0.2500000   0.3750000   0.1433529), wk =   0.0312500
        k(   55) = (   0.2500000   0.3750000  -0.1911372), wk =   0.0156250
        k(   56) = (   0.2500000  -0.5000000   0.0000000), wk =   0.0078125
        k(   57) = (   0.2500000  -0.5000000   0.0477843), wk =   0.0156250
        k(   58) = (   0.2500000  -0.5000000   0.0955686), wk =   0.0156250
        k(   59) = (   0.2500000  -0.5000000   0.1433529), wk =   0.0156250
        k(   60) = (   0.2500000  -0.5000000  -0.1911372), wk =   0.0078125
        k(   61) = (   0.3750000   0.3750000   0.0000000), wk =   0.0078125
        k(   62) = (   0.3750000   0.3750000   0.0477843), wk =   0.0156250
        k(   63) = (   0.3750000   0.3750000   0.0955686), wk =   0.0156250
        k(   64) = (   0.3750000   0.3750000   0.1433529), wk =   0.0156250
        k(   65) = (   0.3750000   0.3750000  -0.1911372), wk =   0.0078125
        k(   66) = (   0.3750000  -0.5000000   0.0000000), wk =   0.0078125
        k(   67) = (   0.3750000  -0.5000000   0.0477843), wk =   0.0156250
        k(   68) = (   0.3750000  -0.5000000   0.0955686), wk =   0.0156250
        k(   69) = (   0.3750000  -0.5000000   0.1433529), wk =   0.0156250
        k(   70) = (   0.3750000  -0.5000000  -0.1911372), wk =   0.0078125
        k(   71) = (  -0.5000000  -0.5000000   0.0000000), wk =   0.0019531
        k(   72) = (  -0.5000000  -0.5000000   0.0477843), wk =   0.0039062
        k(   73) = (  -0.5000000  -0.5000000   0.0955686), wk =   0.0039062
        k(   74) = (  -0.5000000  -0.5000000   0.1433529), wk =   0.0039062
        k(   75) = (  -0.5000000  -0.5000000  -0.1911372), wk =   0.0019531

     Dense  grid:    60601 G-vectors     FFT dimensions: (  36,  36,  96)

     Smooth grid:    28191 G-vectors     FFT dimensions: (  27,  27,  72)

     Estimated max dynamical RAM per process >      41.75 MB

     Estimated total dynamical RAM >     667.93 MB
     Generating pointlists ...
     new r_m :   0.3388 (alat units)  2.1733 (a.u.) for type    1
     new r_m :   0.3388 (alat units)  2.1733 (a.u.) for type    2
     new r_m :   0.3388 (alat units)  2.1733 (a.u.) for type    3

     Check: negative/imaginary core charge=   -0.000007    0.000000

     Initial potential from superposition of free atoms

     starting charge   73.99857, renormalised to   74.00000
     Starting wfcs are   56 randomized atomic wfcs
     Checking if some PAW data can be deallocated... 

     total cpu time spent up to now is        6.3 secs

     Self-consistent Calculation

     iteration #  1     ecut=    45.00 Ry     beta= 0.10
     Davidson diagonalization with overlap
     ethr =  1.00E-02,  avg # of iterations =  3.0

     Warning: ef = 15.823598 is above the highest band at k-point  18
              e  =  15.739088

     Warning: ef = 15.823598 is above the highest band at k-point  19
              e  =  15.397360

     Warning: ef = 15.823598 is above the highest band at k-point  20
              e  =  14.972614

     Warning: ef = 15.823598 is above the highest band at k-point  21
              e  =  14.040254

     Warning: ef = 15.823598 is above the highest band at k-point  22
              e  =  14.038485

     Warning: ef = 15.823598 is above the highest band at k-point  23
              e  =  14.031879

     Warning: ef = 15.823598 is above the highest band at k-point  24
              e  =  14.004331

     Warning: ef = 15.823598 is above the highest band at k-point  25
              e  =  13.972866

     Warning: ef = 15.823598 is above the highest band at k-point  40
              e  =  15.471222

     Warning: ef = 15.823598 is above the highest band at k-point  41
              e  =  14.534302

     Warning: ef = 15.823598 is above the highest band at k-point  42
              e  =  14.676407

     Warning: ef = 15.823598 is above the highest band at k-point  43
              e  =  14.889000

     Warning: ef = 15.823598 is above the highest band at k-point  44
              e  =  15.064028

     Warning: ef = 15.823598 is above the highest band at k-point  45
              e  =  15.105144

     Warning: ef = 15.823598 is above the highest band at k-point  56
              e  =  15.502924

     total cpu time spent up to now is       15.3 secs

     total energy              =   -3669.84315069 Ry
     Harris-Foulkes estimate   =   -3667.59515295 Ry
     estimated scf accuracy    <       5.32507349 Ry

     total magnetization       =    10.44 Bohr mag/cell
     absolute magnetization    =    10.79 Bohr mag/cell

     iteration #  2     ecut=    45.00 Ry     beta= 0.10
     Davidson diagonalization with overlap
     ethr =  7.20E-03,  avg # of iterations =  1.0

     Warning: ef = 15.680674 is above the highest band at k-point  18
              e  =  15.650238

     Warning: ef = 15.680674 is above the highest band at k-point  19
              e  =  15.286762

     Warning: ef = 15.680674 is above the highest band at k-point  20
              e  =  14.846027

     Warning: ef = 15.680674 is above the highest band at k-point  21
              e  =  13.851699

     Warning: ef = 15.680674 is above the highest band at k-point  22
              e  =  13.868111

     Warning: ef = 15.680674 is above the highest band at k-point  23
              e  =  13.911981

     Warning: ef = 15.680674 is above the highest band at k-point  24
              e  =  13.960432

     Warning: ef = 15.680674 is above the highest band at k-point  25
              e  =  13.977943

     Warning: ef = 15.680674 is above the highest band at k-point  40
              e  =  15.348950

     Warning: ef = 15.680674 is above the highest band at k-point  41
              e  =  14.379155

     Warning: ef = 15.680674 is above the highest band at k-point  42
              e  =  14.561634

     Warning: ef = 15.680674 is above the highest band at k-point  43
              e  =  14.801983

     Warning: ef = 15.680674 is above the highest band at k-point  44
              e  =  15.006645

     Warning: ef = 15.680674 is above the highest band at k-point  45
              e  =  15.073613

     Warning: ef = 15.680674 is above the highest band at k-point  56
              e  =  15.416574

     total cpu time spent up to now is       20.9 secs

     total energy              =   -3673.16103521 Ry
     Harris-Foulkes estimate   =   -3669.87092224 Ry
     estimated scf accuracy    <       4.31614610 Ry

     total magnetization       =    10.30 Bohr mag/cell
     absolute magnetization    =    10.70 Bohr mag/cell

     iteration #  3     ecut=    45.00 Ry     beta= 0.10
     Davidson diagonalization with overlap
     ethr =  5.83E-03,  avg # of iterations =  1.8

     Warning: ef = 15.195189 is above the highest band at k-point  19
              e  =  15.025321

     Warning: ef = 15.195189 is above the highest band at k-point  20
              e  =  14.737091

     Warning: ef = 15.195189 is above the highest band at k-point  21
              e  =  14.381272

     Warning: ef = 15.195189 is above the highest band at k-point  22
              e  =  14.379471

     Warning: ef = 15.195189 is above the highest band at k-point  23
              e  =  14.366830

     Warning: ef = 15.195189 is above the highest band at k-point  24
              e  =  14.323244

     Warning: ef = 15.195189 is above the highest band at k-point  25
              e  =  14.259420

     Warning: ef = 15.195189 is above the highest band at k-point  40
              e  =  15.167618

     Warning: ef = 15.195189 is above the highest band at k-point  41
              e  =  14.781219

     Warning: ef = 15.195189 is above the highest band at k-point  42
              e  =  14.940050

     Warning: ef = 15.195189 is above the highest band at k-point  43
              e  =  15.151134

     total cpu time spent up to now is       28.0 secs

     total energy              =   -3673.84870617 Ry
     Harris-Foulkes estimate   =   -3673.68447967 Ry
     estimated scf accuracy    <       1.42312535 Ry

     total magnetization       =     8.79 Bohr mag/cell
     absolute magnetization    =     9.28 Bohr mag/cell

     iteration #  4     ecut=    45.00 Ry     beta= 0.10
     Davidson diagonalization with overlap
     ethr =  1.92E-03,  avg # of iterations =  1.7

     Warning: ef = 15.343953 is above the highest band at k-point  20
              e  =  15.209681

     Warning: ef = 15.343953 is above the highest band at k-point  21
              e  =  15.007615

     Warning: ef = 15.343953 is above the highest band at k-point  22
              e  =  14.997693

     Warning: ef = 15.343953 is above the highest band at k-point  23
              e  =  14.967310

     Warning: ef = 15.343953 is above the highest band at k-point  24
              e  =  14.923702

     Warning: ef = 15.343953 is above the highest band at k-point  25
              e  =  14.900082

     Warning: ef = 15.343953 is above the highest band at k-point  41
              e  =  15.231707

     Warning: ef = 15.343953 is above the highest band at k-point  42
              e  =  15.308775

     total cpu time spent up to now is       34.6 secs

     total energy              =   -3673.42804350 Ry
     Harris-Foulkes estimate   =   -3673.87782734 Ry
     estimated scf accuracy    <       2.32920544 Ry

     total magnetization       =     8.33 Bohr mag/cell
     absolute magnetization    =     8.87 Bohr mag/cell

     iteration #  5     ecut=    45.00 Ry     beta= 0.10
     Davidson diagonalization with overlap
     ethr =  1.92E-03,  avg # of iterations =  3.0

     Warning: ef = 14.846780 is above the highest band at k-point  20
              e  =  14.624170

     Warning: ef = 14.846780 is above the highest band at k-point  21
              e  =  13.705042

     Warning: ef = 14.846780 is above the highest band at k-point  22
              e  =  13.872216

     Warning: ef = 14.846780 is above the highest band at k-point  23
              e  =  14.074052

     Warning: ef = 14.846780 is above the highest band at k-point  24
              e  =  14.247588

     Warning: ef = 14.846780 is above the highest band at k-point  25
              e  =  14.321244

     Warning: ef = 14.846780 is above the highest band at k-point  41
              e  =  14.410870

     Warning: ef = 14.846780 is above the highest band at k-point  42
              e  =  14.669132

     total cpu time spent up to now is       43.5 secs

     total energy              =   -3673.60291924 Ry
     Harris-Foulkes estimate   =   -3673.61506618 Ry
     estimated scf accuracy    <       0.17069578 Ry

     total magnetization       =     8.54 Bohr mag/cell
     absolute magnetization    =     9.02 Bohr mag/cell

     iteration #  6     ecut=    45.00 Ry     beta= 0.10
     Davidson diagonalization with overlap
     ethr =  2.31E-04,  avg # of iterations =  2.9

     Warning: ef = 14.610242 is above the highest band at k-point  21
              e  =  13.685670

     Warning: ef = 14.610242 is above the highest band at k-point  22
              e  =  13.866155

     Warning: ef = 14.610242 is above the highest band at k-point  23
              e  =  14.095229

     Warning: ef = 14.610242 is above the highest band at k-point  24
              e  =  14.289084

     Warning: ef = 14.610242 is above the highest band at k-point  25
              e  =  14.369536

     Warning: ef = 14.610242 is above the highest band at k-point  41
              e  =  14.378921

     total cpu time spent up to now is       52.4 secs

     total energy              =   -3673.63438065 Ry
     Harris-Foulkes estimate   =   -3673.64639354 Ry
     estimated scf accuracy    <       0.09305673 Ry

     total magnetization       =     8.11 Bohr mag/cell
     absolute magnetization    =     8.65 Bohr mag/cell

     iteration #  7     ecut=    45.00 Ry     beta= 0.10
     Davidson diagonalization with overlap
     ethr =  1.26E-04,  avg # of iterations =  1.3

     Warning: ef = 14.506762 is above the highest band at k-point  21
              e  =  13.804168

     Warning: ef = 14.506762 is above the highest band at k-point  22
              e  =  13.969054

     Warning: ef = 14.506762 is above the highest band at k-point  23
              e  =  14.182500

     Warning: ef = 14.506762 is above the highest band at k-point  24
              e  =  14.362575

     Warning: ef = 14.506762 is above the highest band at k-point  25
              e  =  14.437611

     total cpu time spent up to now is       58.4 secs

     total energy              =   -3673.63274637 Ry
     Harris-Foulkes estimate   =   -3673.64085189 Ry
     estimated scf accuracy    <       0.14775673 Ry

     total magnetization       =     7.73 Bohr mag/cell
     absolute magnetization    =     8.30 Bohr mag/cell

     iteration #  8     ecut=    45.00 Ry     beta= 0.10
     Davidson diagonalization with overlap
     ethr =  1.26E-04,  avg # of iterations =  1.3

     Warning: ef = 14.687184 is above the highest band at k-point  21
              e  =  13.855144

     Warning: ef = 14.687184 is above the highest band at k-point  22
              e  =  13.996607

     Warning: ef = 14.687184 is above the highest band at k-point  23
              e  =  14.196251

     Warning: ef = 14.687184 is above the highest band at k-point  24
              e  =  14.364048

     Warning: ef = 14.687184 is above the highest band at k-point  25
              e  =  14.433991

     Warning: ef = 14.687184 is above the highest band at k-point  41
              e  =  14.571917

     total cpu time spent up to now is       64.4 secs

     total energy              =   -3673.62660609 Ry
     Harris-Foulkes estimate   =   -3673.64206272 Ry
     estimated scf accuracy    <       0.05451996 Ry

     total magnetization       =     7.98 Bohr mag/cell
     absolute magnetization    =     8.57 Bohr mag/cell

     iteration #  9     ecut=    45.00 Ry     beta= 0.10
     Davidson diagonalization with overlap
     ethr =  7.37E-05,  avg # of iterations =  2.7

     Warning: ef = 14.799874 is above the highest band at k-point  21
              e  =  13.944048

     Warning: ef = 14.799874 is above the highest band at k-point  22
              e  =  14.092866

     Warning: ef = 14.799874 is above the highest band at k-point  23
              e  =  14.251343

     Warning: ef = 14.799874 is above the highest band at k-point  24
              e  =  14.385192

     Warning: ef = 14.799874 is above the highest band at k-point  25
              e  =  14.441740

     Warning: ef = 14.799874 is above the highest band at k-point  41
              e  =  14.678646

     total cpu time spent up to now is       72.5 secs

     total energy              =   -3673.63169656 Ry
     Harris-Foulkes estimate   =   -3673.63731961 Ry
     estimated scf accuracy    <       0.00981239 Ry

     total magnetization       =     8.02 Bohr mag/cell
     absolute magnetization    =     8.62 Bohr mag/cell

     iteration # 10     ecut=    45.00 Ry     beta= 0.10
     Davidson diagonalization with overlap
     ethr =  1.33E-05,  avg # of iterations =  2.5

     Warning: ef = 14.753217 is above the highest band at k-point  21
              e  =  13.814634

     Warning: ef = 14.753217 is above the highest band at k-point  22
              e  =  13.982873

     Warning: ef = 14.753217 is above the highest band at k-point  23
              e  =  14.179009

     Warning: ef = 14.753217 is above the highest band at k-point  24
              e  =  14.344639

     Warning: ef = 14.753217 is above the highest band at k-point  25
              e  =  14.413841

     Warning: ef = 14.753217 is above the highest band at k-point  41
              e  =  14.549294

     total cpu time spent up to now is       81.0 secs

     total energy              =   -3673.63598869 Ry
     Harris-Foulkes estimate   =   -3673.63548247 Ry
     estimated scf accuracy    <       0.00709990 Ry

     total magnetization       =     8.13 Bohr mag/cell
     absolute magnetization    =     8.73 Bohr mag/cell

     iteration # 11     ecut=    45.00 Ry     beta= 0.10
     Davidson diagonalization with overlap
     ethr =  9.59E-06,  avg # of iterations =  1.6

     Warning: ef = 14.755931 is above the highest band at k-point  21
              e  =  13.849206

     Warning: ef = 14.755931 is above the highest band at k-point  22
              e  =  14.022261

     Warning: ef = 14.755931 is above the highest band at k-point  23
              e  =  14.210013

     Warning: ef = 14.755931 is above the highest band at k-point  24
              e  =  14.369188

     Warning: ef = 14.755931 is above the highest band at k-point  25
              e  =  14.436070

     Warning: ef = 14.755931 is above the highest band at k-point  41
              e  =  14.591984

     total cpu time spent up to now is       87.5 secs

     total energy              =   -3673.63698230 Ry
     Harris-Foulkes estimate   =   -3673.63671461 Ry
     estimated scf accuracy    <       0.00028028 Ry

     total magnetization       =     8.07 Bohr mag/cell
     absolute magnetization    =     8.69 Bohr mag/cell

     iteration # 12     ecut=    45.00 Ry     beta= 0.10
     Davidson diagonalization with overlap
     ethr =  3.79E-07,  avg # of iterations =  3.5

     Warning: ef = 14.750887 is above the highest band at k-point  21
              e  =  13.861398

     Warning: ef = 14.750887 is above the highest band at k-point  22
              e  =  14.035948

     Warning: ef = 14.750887 is above the highest band at k-point  23
              e  =  14.221934

     Warning: ef = 14.750887 is above the highest band at k-point  24
              e  =  14.380004

     Warning: ef = 14.750887 is above the highest band at k-point  25
              e  =  14.446548

     Warning: ef = 14.750887 is above the highest band at k-point  41
              e  =  14.606167

     total cpu time spent up to now is       97.8 secs

     total energy              =   -3673.63710917 Ry
     Harris-Foulkes estimate   =   -3673.63702449 Ry
     estimated scf accuracy    <       0.00015305 Ry

     total magnetization       =     8.04 Bohr mag/cell
     absolute magnetization    =     8.67 Bohr mag/cell

     iteration # 13     ecut=    45.00 Ry     beta= 0.10
     Davidson diagonalization with overlap
     ethr =  2.07E-07,  avg # of iterations =  2.2

     Warning: ef = 14.744821 is above the highest band at k-point  21
              e  =  13.862254

     Warning: ef = 14.744821 is above the highest band at k-point  22
              e  =  14.038233

     Warning: ef = 14.744821 is above the highest band at k-point  23
              e  =  14.227309

     Warning: ef = 14.744821 is above the highest band at k-point  24
              e  =  14.388160

     Warning: ef = 14.744821 is above the highest band at k-point  25
              e  =  14.455871

     Warning: ef = 14.744821 is above the highest band at k-point  41
              e  =  14.608479

     total cpu time spent up to now is      105.4 secs

     total energy              =   -3673.63716593 Ry
     Harris-Foulkes estimate   =   -3673.63710997 Ry
     estimated scf accuracy    <       0.00012741 Ry

     total magnetization       =     8.03 Bohr mag/cell
     absolute magnetization    =     8.67 Bohr mag/cell

     iteration # 14     ecut=    45.00 Ry     beta= 0.10
     Davidson diagonalization with overlap
     ethr =  1.72E-07,  avg # of iterations =  1.8

     Warning: ef = 14.747739 is above the highest band at k-point  21
              e  =  13.860906

     Warning: ef = 14.747739 is above the highest band at k-point  22
              e  =  14.040289

     Warning: ef = 14.747739 is above the highest band at k-point  23
              e  =  14.231020

     Warning: ef = 14.747739 is above the highest band at k-point  24
              e  =  14.393408

     Warning: ef = 14.747739 is above the highest band at k-point  25
              e  =  14.461766

     Warning: ef = 14.747739 is above the highest band at k-point  41
              e  =  14.609512

     total cpu time spent up to now is      111.9 secs

     total energy              =   -3673.63720062 Ry
     Harris-Foulkes estimate   =   -3673.63718317 Ry
     estimated scf accuracy    <       0.00001378 Ry

     total magnetization       =     8.03 Bohr mag/cell
     absolute magnetization    =     8.68 Bohr mag/cell

     iteration # 15     ecut=    45.00 Ry     beta= 0.10
     Davidson diagonalization with overlap
     ethr =  1.86E-08,  avg # of iterations =  3.1

     Warning: ef = 14.750620 is above the highest band at k-point  21
              e  =  13.864786

     Warning: ef = 14.750620 is above the highest band at k-point  22
              e  =  14.044302

     Warning: ef = 14.750620 is above the highest band at k-point  23
              e  =  14.233774

     Warning: ef = 14.750620 is above the highest band at k-point  24
              e  =  14.395231

     Warning: ef = 14.750620 is above the highest band at k-point  25
              e  =  14.463254

     Warning: ef = 14.750620 is above the highest band at k-point  41
              e  =  14.614533

     total cpu time spent up to now is      122.2 secs

     total energy              =   -3673.63720645 Ry
     Harris-Foulkes estimate   =   -3673.63721949 Ry
     estimated scf accuracy    <       0.00009824 Ry

     total magnetization       =     8.03 Bohr mag/cell
     absolute magnetization    =     8.68 Bohr mag/cell

     iteration # 16     ecut=    45.00 Ry     beta= 0.10
     Davidson diagonalization with overlap
     ethr =  1.86E-08,  avg # of iterations =  2.8

     Warning: ef = 14.747404 is above the highest band at k-point  21
              e  =  13.862939

     Warning: ef = 14.747404 is above the highest band at k-point  22
              e  =  14.043462

     Warning: ef = 14.747404 is above the highest band at k-point  23
              e  =  14.234776

     Warning: ef = 14.747404 is above the highest band at k-point  24
              e  =  14.397760

     Warning: ef = 14.747404 is above the highest band at k-point  25
              e  =  14.466385

     Warning: ef = 14.747404 is above the highest band at k-point  41
              e  =  14.612990

     total cpu time spent up to now is      131.7 secs

     total energy              =   -3673.63720744 Ry
     Harris-Foulkes estimate   =   -3673.63720191 Ry
     estimated scf accuracy    <       0.00000312 Ry

     total magnetization       =     8.03 Bohr mag/cell
     absolute magnetization    =     8.68 Bohr mag/cell

     iteration # 17     ecut=    45.00 Ry     beta= 0.10
     Davidson diagonalization with overlap
     ethr =  4.22E-09,  avg # of iterations =  2.5

     Warning: ef = 14.746536 is above the highest band at k-point  21
              e  =  13.862576

     Warning: ef = 14.746536 is above the highest band at k-point  22
              e  =  14.043810

     Warning: ef = 14.746536 is above the highest band at k-point  23
              e  =  14.235694

     Warning: ef = 14.746536 is above the highest band at k-point  24
              e  =  14.399175

     Warning: ef = 14.746536 is above the highest band at k-point  25
              e  =  14.468001

     Warning: ef = 14.746536 is above the highest band at k-point  41
              e  =  14.613166

     total cpu time spent up to now is      140.4 secs

     total energy              =   -3673.63720524 Ry
     Harris-Foulkes estimate   =   -3673.63720268 Ry
     estimated scf accuracy    <       0.00000264 Ry

     total magnetization       =     8.03 Bohr mag/cell
     absolute magnetization    =     8.68 Bohr mag/cell

     iteration # 18     ecut=    45.00 Ry     beta= 0.10
     Davidson diagonalization with overlap
     ethr =  3.57E-09,  avg # of iterations =  2.3

     Warning: ef = 14.746838 is above the highest band at k-point  21
              e  =  13.863341

     Warning: ef = 14.746838 is above the highest band at k-point  22
              e  =  14.044863

     Warning: ef = 14.746838 is above the highest band at k-point  23
              e  =  14.236741

     Warning: ef = 14.746838 is above the highest band at k-point  24
              e  =  14.400247

     Warning: ef = 14.746838 is above the highest band at k-point  25
              e  =  14.469091

     Warning: ef = 14.746838 is above the highest band at k-point  41
              e  =  14.614182

     total cpu time spent up to now is      148.1 secs

     total energy              =   -3673.63720507 Ry
     Harris-Foulkes estimate   =   -3673.63720403 Ry
     estimated scf accuracy    <       0.00000213 Ry

     total magnetization       =     8.03 Bohr mag/cell
     absolute magnetization    =     8.68 Bohr mag/cell

     iteration # 19     ecut=    45.00 Ry     beta= 0.10
     Davidson diagonalization with overlap
     ethr =  2.88E-09,  avg # of iterations =  1.0

     Warning: ef = 14.746824 is above the highest band at k-point  21
              e  =  13.863439

     Warning: ef = 14.746824 is above the highest band at k-point  22
              e  =  14.044928

     Warning: ef = 14.746824 is above the highest band at k-point  23
              e  =  14.236795

     Warning: ef = 14.746824 is above the highest band at k-point  24
              e  =  14.400287

     Warning: ef = 14.746824 is above the highest band at k-point  25
              e  =  14.469126

     Warning: ef = 14.746824 is above the highest band at k-point  41
              e  =  14.614256

     total cpu time spent up to now is      153.7 secs

     total energy              =   -3673.63720555 Ry
     Harris-Foulkes estimate   =   -3673.63720476 Ry
     estimated scf accuracy    <       0.00000183 Ry

     total magnetization       =     8.03 Bohr mag/cell
     absolute magnetization    =     8.68 Bohr mag/cell

     iteration # 20     ecut=    45.00 Ry     beta= 0.10
     Davidson diagonalization with overlap
     ethr =  2.48E-09,  avg # of iterations =  1.0

     Warning: ef = 14.746749 is above the highest band at k-point  21
              e  =  13.863512

     Warning: ef = 14.746749 is above the highest band at k-point  22
              e  =  14.044904

     Warning: ef = 14.746749 is above the highest band at k-point  23
              e  =  14.236783

     Warning: ef = 14.746749 is above the highest band at k-point  24
              e  =  14.400281

     Warning: ef = 14.746749 is above the highest band at k-point  25
              e  =  14.469120

     Warning: ef = 14.746749 is above the highest band at k-point  41
              e  =  14.614213

     total cpu time spent up to now is      159.2 secs

     total energy              =   -3673.63720569 Ry
     Harris-Foulkes estimate   =   -3673.63720506 Ry
     estimated scf accuracy    <       0.00000213 Ry

     total magnetization       =     8.03 Bohr mag/cell
     absolute magnetization    =     8.68 Bohr mag/cell

     iteration # 21     ecut=    45.00 Ry     beta= 0.10
     Davidson diagonalization with overlap
     ethr =  2.48E-09,  avg # of iterations =  1.0

     Warning: ef = 14.746720 is above the highest band at k-point  21
              e  =  13.863378

     Warning: ef = 14.746720 is above the highest band at k-point  22
              e  =  14.044839

     Warning: ef = 14.746720 is above the highest band at k-point  23
              e  =  14.236718

     Warning: ef = 14.746720 is above the highest band at k-point  24
              e  =  14.400212

     Warning: ef = 14.746720 is above the highest band at k-point  25
              e  =  14.469048

     Warning: ef = 14.746720 is above the highest band at k-point  41
              e  =  14.614143

     total cpu time spent up to now is      164.7 secs

     total energy              =   -3673.63720655 Ry
     Harris-Foulkes estimate   =   -3673.63720569 Ry
     estimated scf accuracy    <       0.00000395 Ry

     total magnetization       =     8.03 Bohr mag/cell
     absolute magnetization    =     8.68 Bohr mag/cell

     iteration # 22     ecut=    45.00 Ry     beta= 0.10
     Davidson diagonalization with overlap
     ethr =  2.48E-09,  avg # of iterations =  1.0

     Warning: ef = 14.746627 is above the highest band at k-point  21
              e  =  13.863423

     Warning: ef = 14.746627 is above the highest band at k-point  22
              e  =  14.044994

     Warning: ef = 14.746627 is above the highest band at k-point  23
              e  =  14.236916

     Warning: ef = 14.746627 is above the highest band at k-point  24
              e  =  14.400452

     Warning: ef = 14.746627 is above the highest band at k-point  25
              e  =  14.469307

     Warning: ef = 14.746627 is above the highest band at k-point  41
              e  =  14.614385

     total cpu time spent up to now is      170.2 secs

     total energy              =   -3673.63720602 Ry
     Harris-Foulkes estimate   =   -3673.63720577 Ry
     estimated scf accuracy    <       0.00000316 Ry

     total magnetization       =     8.03 Bohr mag/cell
     absolute magnetization    =     8.68 Bohr mag/cell

     iteration # 23     ecut=    45.00 Ry     beta= 0.10
     Davidson diagonalization with overlap
     ethr =  2.48E-09,  avg # of iterations =  1.0

     Warning: ef = 14.746686 is above the highest band at k-point  21
              e  =  13.863417

     Warning: ef = 14.746686 is above the highest band at k-point  22
              e  =  14.044927

     Warning: ef = 14.746686 is above the highest band at k-point  23
              e  =  14.236836

     Warning: ef = 14.746686 is above the highest band at k-point  24
              e  =  14.400362

     Warning: ef = 14.746686 is above the highest band at k-point  25
              e  =  14.469214

     Warning: ef = 14.746686 is above the highest band at k-point  41
              e  =  14.614272

     total cpu time spent up to now is      175.8 secs

     total energy              =   -3673.63720608 Ry
     Harris-Foulkes estimate   =   -3673.63720650 Ry
     estimated scf accuracy    <       0.00000440 Ry

     total magnetization       =     8.03 Bohr mag/cell
     absolute magnetization    =     8.68 Bohr mag/cell

     iteration # 24     ecut=    45.00 Ry     beta= 0.10
     Davidson diagonalization with overlap
     ethr =  2.48E-09,  avg # of iterations =  1.0

     Warning: ef = 14.746741 is above the highest band at k-point  21
              e  =  13.863120

     Warning: ef = 14.746741 is above the highest band at k-point  22
              e  =  14.044457

     Warning: ef = 14.746741 is above the highest band at k-point  23
              e  =  14.236218

     Warning: ef = 14.746741 is above the highest band at k-point  24
              e  =  14.399593

     Warning: ef = 14.746741 is above the highest band at k-point  25
              e  =  14.468377

     Warning: ef = 14.746741 is above the highest band at k-point  41
              e  =  14.613744

     total cpu time spent up to now is      181.3 secs

     total energy              =   -3673.63720780 Ry
     Harris-Foulkes estimate   =   -3673.63720752 Ry
     estimated scf accuracy    <       0.00000234 Ry

     total magnetization       =     8.03 Bohr mag/cell
     absolute magnetization    =     8.68 Bohr mag/cell

     iteration # 25     ecut=    45.00 Ry     beta= 0.10
     Davidson diagonalization with overlap
     ethr =  2.48E-09,  avg # of iterations =  1.0

     Warning: ef = 14.746850 is above the highest band at k-point  21
              e  =  13.863143

     Warning: ef = 14.746850 is above the highest band at k-point  22
              e  =  14.044494

     Warning: ef = 14.746850 is above the highest band at k-point  23
              e  =  14.236293

     Warning: ef = 14.746850 is above the highest band at k-point  24
              e  =  14.399698

     Warning: ef = 14.746850 is above the highest band at k-point  25
              e  =  14.468493

     Warning: ef = 14.746850 is above the highest band at k-point  41
              e  =  14.613735

     total cpu time spent up to now is      186.8 secs

     total energy              =   -3673.63720871 Ry
     Harris-Foulkes estimate   =   -3673.63720806 Ry
     estimated scf accuracy    <       0.00000136 Ry

     total magnetization       =     8.03 Bohr mag/cell
     absolute magnetization    =     8.68 Bohr mag/cell

     iteration # 26     ecut=    45.00 Ry     beta= 0.10
     Davidson diagonalization with overlap
     ethr =  1.83E-09,  avg # of iterations =  1.0

     Warning: ef = 14.746661 is above the highest band at k-point  21
              e  =  13.863230

     Warning: ef = 14.746661 is above the highest band at k-point  22
              e  =  14.044647

     Warning: ef = 14.746661 is above the highest band at k-point  23
              e  =  14.236537

     Warning: ef = 14.746661 is above the highest band at k-point  24
              e  =  14.400035

     Warning: ef = 14.746661 is above the highest band at k-point  25
              e  =  14.468871

     Warning: ef = 14.746661 is above the highest band at k-point  41
              e  =  14.613851

     total cpu time spent up to now is      192.4 secs

     total energy              =   -3673.63720785 Ry
     Harris-Foulkes estimate   =   -3673.63720758 Ry
     estimated scf accuracy    <       0.00000159 Ry

     total magnetization       =     8.03 Bohr mag/cell
     absolute magnetization    =     8.68 Bohr mag/cell

     iteration # 27     ecut=    45.00 Ry     beta= 0.10
     Davidson diagonalization with overlap
     ethr =  1.83E-09,  avg # of iterations =  1.0

     Warning: ef = 14.746703 is above the highest band at k-point  21
              e  =  13.863575

     Warning: ef = 14.746703 is above the highest band at k-point  22
              e  =  14.044765

     Warning: ef = 14.746703 is above the highest band at k-point  23
              e  =  14.236605

     Warning: ef = 14.746703 is above the highest band at k-point  24
              e  =  14.400059

     Warning: ef = 14.746703 is above the highest band at k-point  25
              e  =  14.468878

     Warning: ef = 14.746703 is above the highest band at k-point  41
              e  =  14.613888

     total cpu time spent up to now is      197.9 secs

     total energy              =   -3673.63720802 Ry
     Harris-Foulkes estimate   =   -3673.63720761 Ry
     estimated scf accuracy    <       0.00000159 Ry

     total magnetization       =     8.03 Bohr mag/cell
     absolute magnetization    =     8.68 Bohr mag/cell

     iteration # 28     ecut=    45.00 Ry     beta= 0.10
     Davidson diagonalization with overlap
     ethr =  1.83E-09,  avg # of iterations =  1.2

     Warning: ef = 14.746556 is above the highest band at k-point  21
              e  =  13.863475

     Warning: ef = 14.746556 is above the highest band at k-point  22
              e  =  14.044883

     Warning: ef = 14.746556 is above the highest band at k-point  23
              e  =  14.236832

     Warning: ef = 14.746556 is above the highest band at k-point  24
              e  =  14.400411

     Warning: ef = 14.746556 is above the highest band at k-point  25
              e  =  14.469285

     Warning: ef = 14.746556 is above the highest band at k-point  41
              e  =  14.613970

     total cpu time spent up to now is      203.7 secs

     total energy              =   -3673.63720714 Ry
     Harris-Foulkes estimate   =   -3673.63720703 Ry
     estimated scf accuracy    <       0.00000170 Ry

     total magnetization       =     8.03 Bohr mag/cell
     absolute magnetization    =     8.68 Bohr mag/cell

     iteration # 29     ecut=    45.00 Ry     beta= 0.10
     Davidson diagonalization with overlap
     ethr =  1.83E-09,  avg # of iterations =  1.0

     Warning: ef = 14.746546 is above the highest band at k-point  21
              e  =  13.863416

     Warning: ef = 14.746546 is above the highest band at k-point  22
              e  =  14.044928

     Warning: ef = 14.746546 is above the highest band at k-point  23
              e  =  14.236853

     Warning: ef = 14.746546 is above the highest band at k-point  24
              e  =  14.400392

     Warning: ef = 14.746546 is above the highest band at k-point  25
              e  =  14.469246

     Warning: ef = 14.746546 is above the highest band at k-point  41
              e  =  14.613974

     total cpu time spent up to now is      209.2 secs

     total energy              =   -3673.63720732 Ry
     Harris-Foulkes estimate   =   -3673.63720712 Ry
     estimated scf accuracy    <       0.00000124 Ry

     total magnetization       =     8.03 Bohr mag/cell
     absolute magnetization    =     8.68 Bohr mag/cell

     iteration # 30     ecut=    45.00 Ry     beta= 0.10
     Davidson diagonalization with overlap
     ethr =  1.68E-09,  avg # of iterations =  1.0

     Warning: ef = 14.746461 is above the highest band at k-point  21
              e  =  13.863556

     Warning: ef = 14.746461 is above the highest band at k-point  22
              e  =  14.045157

     Warning: ef = 14.746461 is above the highest band at k-point  23
              e  =  14.237260

     Warning: ef = 14.746461 is above the highest band at k-point  24
              e  =  14.400978

     Warning: ef = 14.746461 is above the highest band at k-point  25
              e  =  14.469912

     Warning: ef = 14.746461 is above the highest band at k-point  41
              e  =  14.614207

     Magnetic moment per site:
     atom:    1    charge:   13.5860    magn:    3.9153    constr:    0.0000
     atom:    2    charge:   13.5860    magn:    3.9159    constr:    0.0000
     atom:    3    charge:    9.1164    magn:    0.0423    constr:    0.0000
     atom:    4    charge:    9.1164    magn:    0.0423    constr:    0.0000
     atom:    5    charge:    9.1167    magn:    0.0429    constr:    0.0000
     atom:    6    charge:    9.1167    magn:    0.0429    constr:    0.0000

     total cpu time spent up to now is      214.7 secs

     End of self-consistent calculation

     Number of k-points >= 100: set verbosity='high' to print the bands.

     the Fermi energy is    14.7465 ev

!    total energy              =   -3673.63720711 Ry
     Harris-Foulkes estimate   =   -3673.63720634 Ry
     estimated scf accuracy    <       0.00000060 Ry

     total all-electron energy =   -156730.536138 Ry

     The total energy is the sum of the following terms:

     one-electron contribution =    -182.95160670 Ry
     hartree contribution      =     165.58610274 Ry
     xc contribution           =    -184.27452660 Ry
     ewald contribution        =    -546.58413949 Ry
     one-center paw contrib.   =   -2925.41303707 Ry

     total magnetization       =     8.02 Bohr mag/cell
     absolute magnetization    =     8.68 Bohr mag/cell

     convergence has been achieved in  30 iterations

     Writing output data file mnau2.save/

     init_run     :      3.37s CPU      3.51s WALL (       1 calls)
     electrons    :    203.33s CPU    208.46s WALL (       1 calls)

     Called by init_run:
     wfcinit      :      2.24s CPU      2.33s WALL (       1 calls)
     potinit      :      0.58s CPU      0.60s WALL (       1 calls)
     hinit0       :      0.47s CPU      0.48s WALL (       1 calls)

     Called by electrons:
     c_bands      :    161.36s CPU    165.49s WALL (      30 calls)
     sum_band     :     27.21s CPU     28.16s WALL (      30 calls)
     v_of_rho     :      0.66s CPU      0.66s WALL (      31 calls)
     newd         :      1.45s CPU      1.45s WALL (      31 calls)
     PAW_pot      :     12.98s CPU     13.00s WALL (      31 calls)
     mix_rho      :      0.08s CPU      0.08s WALL (      30 calls)

     Called by c_bands:
     init_us_2    :      2.17s CPU      2.24s WALL (    9150 calls)
     cegterg      :    155.36s CPU    159.33s WALL (    4500 calls)

     Called by sum_band:
     sum_band:bec :      0.19s CPU      0.20s WALL (    4500 calls)
     addusdens    :      2.52s CPU      2.53s WALL (      30 calls)

     Called by *egterg:
     h_psi        :     63.02s CPU     66.71s WALL (   12649 calls)
     s_psi        :      3.07s CPU      3.11s WALL (   12649 calls)
     g_psi        :      0.51s CPU      0.52s WALL (    7999 calls)
     cdiaghg      :     76.22s CPU     76.42s WALL (   12499 calls)

     Called by h_psi:
     h_psi:pot    :     62.66s CPU     66.34s WALL (   12649 calls)
     h_psi:calbec :      5.13s CPU      5.38s WALL (   12649 calls)
     vloc_psi     :     54.37s CPU     57.71s WALL (   12649 calls)
     add_vuspsi   :      3.11s CPU      3.21s WALL (   12649 calls)

     General routines
     calbec       :      7.17s CPU      7.53s WALL (   17149 calls)
     fft          :      0.25s CPU      0.26s WALL (     771 calls)
     ffts         :      0.01s CPU      0.01s WALL (     122 calls)
     fftw         :     62.09s CPU     65.90s WALL ( 1075448 calls)
     interpolate  :      0.03s CPU      0.03s WALL (      62 calls)

     Parallel routines
     fft_scatt_xy :      7.85s CPU      8.34s WALL ( 1076341 calls)
     fft_scatt_yz :     30.82s CPU     32.84s WALL ( 1076341 calls)

     PWSCF        :  3m30.35s CPU     3m40.86s WALL


   This run was terminated on:  15:36:51  14Feb2019            

=------------------------------------------------------------------------------=
   JOB DONE.
=------------------------------------------------------------------------------=
