
     Program PWSCF v.6.3 starts on 14Feb2019 at 15:29:32 

     This program is part of the open-source Quantum ESPRESSO suite
     for quantum simulation of materials; please cite
         "P. Giannozzi et al., J. Phys.:Condens. Matter 21 395502 (2009);
         "P. Giannozzi et al., J. Phys.:Condens. Matter 29 465901 (2017);
          URL http://www.quantum-espresso.org", 
     in publications or presentations arising from this work. More details at
     http://www.quantum-espresso.org/quote

     Parallel version (MPI), running on    16 processors

     MPI processes distributed on     1 nodes
     R & G space division:  proc/nbgrp/npool/nimage =      16
     Waiting for input...
     Reading input from standard input

     Current dimensions of program PWSCF are:
     Max number of different atomic species (ntypx) = 10
     Max number of k-points (npk) =  40000
     Max angular momentum in pseudopotentials (lmaxx) =  3
     Message from routine read_upf::
     Pseudo file ./pseudo/Mn.pbe-spn-kjpaw_psl.0.3.1.UPF has been successfully fixed on the fly.
To avoid this message in the future you can permanently fix 
 your pseudo files following instructions given in: 
https://gitlab.com/QEF/q-e/blob/master/upftools/how_to_fix_upf.md
               file Mn.pbe-spn-kjpaw_psl.0.3.1.UPF: wavefunction(s)  3P 3D renormalized
     Message from routine read_upf::
     Pseudo file ./pseudo/Mn.pbe-spn-kjpaw_psl.0.3.1.UPF has been successfully fixed on the fly.
To avoid this message in the future you can permanently fix 
 your pseudo files following instructions given in: 
https://gitlab.com/QEF/q-e/blob/master/upftools/how_to_fix_upf.md
               file Mn.pbe-spn-kjpaw_psl.0.3.1.UPF: wavefunction(s)  3P 3D renormalized
     Message from routine read_upf::
     Pseudo file ./pseudo/Mn.pbe-spn-kjpaw_psl.0.3.1.UPF has been successfully fixed on the fly.
To avoid this message in the future you can permanently fix 
 your pseudo files following instructions given in: 
https://gitlab.com/QEF/q-e/blob/master/upftools/how_to_fix_upf.md
               file Mn.pbe-spn-kjpaw_psl.0.3.1.UPF: wavefunction(s)  3P 3D renormalized
     Message from routine read_upf::
     Pseudo file ./pseudo/Mn.pbe-spn-kjpaw_psl.0.3.1.UPF has been successfully fixed on the fly.
To avoid this message in the future you can permanently fix 
 your pseudo files following instructions given in: 
https://gitlab.com/QEF/q-e/blob/master/upftools/how_to_fix_upf.md
               file Mn.pbe-spn-kjpaw_psl.0.3.1.UPF: wavefunction(s)  3P 3D renormalized
     Message from routine read_upf::
     Pseudo file ./pseudo/Au.pbe-dn-kjpaw_psl.0.1.UPF has been successfully fixed on the fly.
To avoid this message in the future you can permanently fix 
 your pseudo files following instructions given in: 
https://gitlab.com/QEF/q-e/blob/master/upftools/how_to_fix_upf.md
               file Au.pbe-dn-kjpaw_psl.0.1.UPF: wavefunction(s)  6S 6P 5D renormalized

     Subspace diagonalization in iterative solution of the eigenvalue problem:
     one sub-group per band group will be used
     scalapack distributed-memory algorithm (size of sub-group:  2*  2 procs)


     Parallelization info
     --------------------
     sticks:   dense  smooth     PW     G-vecs:    dense   smooth      PW
     Min         122      74     21                 7568     3520     551
     Max         123      75     22                 7576     3525     556
     Sum        1961    1185    349               121149    56367    8851



     bravais-lattice index     =            0
     lattice parameter (alat)  =       9.0726  a.u.
     unit-cell volume          =    1381.3667 (a.u.)^3
     number of atoms/cell      =           12
     number of atomic types    =            5
     number of electrons       =       148.00
     number of Kohn-Sham states=           89
     kinetic-energy cutoff     =      45.0000  Ry
     charge density cutoff     =     300.0000  Ry
     convergence threshold     =      1.0E-06
     mixing beta               =       0.1000
     number of iterations used =            8  plain     mixing
     Exchange-correlation      = SLA PW PBX PBC ( 1  4  3  4 0 0)

     celldm(1)=   9.072626  celldm(2)=   0.000000  celldm(3)=   0.000000
     celldm(4)=   0.000000  celldm(5)=   0.000000  celldm(6)=   0.000000

     crystal axes: (cart. coord. in units of alat)
               a(1) = (   1.000000   0.000000   0.000000 )  
               a(2) = (   0.000000   1.000000   0.000000 )  
               a(3) = (   0.000000   0.000000   1.849737 )  

     reciprocal axes: (cart. coord. in units 2 pi/alat)
               b(1) = (  1.000000  0.000000  0.000000 )  
               b(2) = (  0.000000  1.000000  0.000000 )  
               b(3) = (  0.000000  0.000000  0.540617 )  


     PseudoPot. # 1 for Mn read from file:
     ./pseudo/Mn.pbe-spn-kjpaw_psl.0.3.1.UPF
     MD5 check sum: 7eef95dd2aae66803482eea66ebeebf1
     Pseudo is Projector augmented-wave + core cor, Zval = 15.0
     Generated using "atomic" code by A. Dal Corso v.5.0.99 svn rev. 10869
     Shape of augmentation charge: PSQ
     Using radial grid of 1187 points,  6 beta functions with: 
                l(1) =   0
                l(2) =   0
                l(3) =   1
                l(4) =   1
                l(5) =   2
                l(6) =   2
     Q(r) pseudized with 0 coefficients 


     PseudoPot. # 2 for Mn read from file:
     ./pseudo/Mn.pbe-spn-kjpaw_psl.0.3.1.UPF
     MD5 check sum: 7eef95dd2aae66803482eea66ebeebf1
     Pseudo is Projector augmented-wave + core cor, Zval = 15.0
     Generated using "atomic" code by A. Dal Corso v.5.0.99 svn rev. 10869
     Shape of augmentation charge: PSQ
     Using radial grid of 1187 points,  6 beta functions with: 
                l(1) =   0
                l(2) =   0
                l(3) =   1
                l(4) =   1
                l(5) =   2
                l(6) =   2
     Q(r) pseudized with 0 coefficients 


     PseudoPot. # 3 for Mn read from file:
     ./pseudo/Mn.pbe-spn-kjpaw_psl.0.3.1.UPF
     MD5 check sum: 7eef95dd2aae66803482eea66ebeebf1
     Pseudo is Projector augmented-wave + core cor, Zval = 15.0
     Generated using "atomic" code by A. Dal Corso v.5.0.99 svn rev. 10869
     Shape of augmentation charge: PSQ
     Using radial grid of 1187 points,  6 beta functions with: 
                l(1) =   0
                l(2) =   0
                l(3) =   1
                l(4) =   1
                l(5) =   2
                l(6) =   2
     Q(r) pseudized with 0 coefficients 


     PseudoPot. # 4 for Mn read from file:
     ./pseudo/Mn.pbe-spn-kjpaw_psl.0.3.1.UPF
     MD5 check sum: 7eef95dd2aae66803482eea66ebeebf1
     Pseudo is Projector augmented-wave + core cor, Zval = 15.0
     Generated using "atomic" code by A. Dal Corso v.5.0.99 svn rev. 10869
     Shape of augmentation charge: PSQ
     Using radial grid of 1187 points,  6 beta functions with: 
                l(1) =   0
                l(2) =   0
                l(3) =   1
                l(4) =   1
                l(5) =   2
                l(6) =   2
     Q(r) pseudized with 0 coefficients 


     PseudoPot. # 5 for Au read from file:
     ./pseudo/Au.pbe-dn-kjpaw_psl.0.1.UPF
     MD5 check sum: 5c9b92683623e7ae2ab3f8e525febab6
     Pseudo is Projector augmented-wave + core cor, Zval = 11.0
     Generated using "atomic" code by A. Dal Corso v.5.0.2 svn rev. 9415
     Shape of augmentation charge: PSQ
     Using radial grid of 1279 points,  6 beta functions with: 
                l(1) =   0
                l(2) =   0
                l(3) =   1
                l(4) =   1
                l(5) =   2
                l(6) =   2
     Q(r) pseudized with 0 coefficients 


     atomic species   valence    mass     pseudopotential
        Mn1           15.00    54.93800     Mn( 1.00)
        Mn2           15.00    54.93800     Mn( 1.00)
        Mn3           15.00    54.93800     Mn( 1.00)
        Mn4           15.00    54.93800     Mn( 1.00)
        Au            11.00   196.96600     Au( 1.00)

     Starting magnetic structure 
     atomic species   magnetization
        Mn1          0.800
        Mn2         -0.800
        Mn3          0.800
        Mn4         -0.800
        Au           0.000

      8 Sym. Ops., with inversion, found



   Cartesian axes

     site n.     atom                  positions (alat units)
         1           Mn1 tau(   1) = (   0.0000000   0.0000000   0.0000000  )
         2           Mn2 tau(   2) = (   0.5000000   0.5000000   0.0000000  )
         3           Mn3 tau(   3) = (   0.5000000   0.0000000   0.9248684  )
         4           Mn4 tau(   4) = (   1.0000000   0.5000000   0.9248684  )
         5           Au  tau(   5) = (   0.5000000   0.0000000   1.5543689  )
         6           Au  tau(   6) = (   1.0000000   0.5000000   1.5543689  )
         7           Au  tau(   7) = (   0.5000000   0.0000000   0.2953678  )
         8           Au  tau(   8) = (   1.0000000   0.5000000   0.2953678  )
         9           Au  tau(   9) = (   0.0000000   0.0000000   0.6295006  )
        10           Au  tau(  10) = (   0.5000000   0.5000000   0.6295006  )
        11           Au  tau(  11) = (   0.0000000   0.0000000   1.2202362  )
        12           Au  tau(  12) = (   0.5000000   0.5000000   1.2202362  )

     number of k points=   216 (tetrahedron method)

     Number of k-points >= 100: set verbosity='high' to print them.

     Dense  grid:   121149 G-vectors     FFT dimensions: (  54,  54,  96)

     Smooth grid:    56367 G-vectors     FFT dimensions: (  40,  40,  72)

     Estimated max dynamical RAM per process >     300.98 MB

     Estimated total dynamical RAM >       4.70 GB
     Generating pointlists ...
     new r_m :   0.2395 (alat units)  2.1733 (a.u.) for type    1
     new r_m :   0.2395 (alat units)  2.1733 (a.u.) for type    2
     new r_m :   0.2395 (alat units)  2.1733 (a.u.) for type    3
     new r_m :   0.2395 (alat units)  2.1733 (a.u.) for type    4
     new r_m :   0.2395 (alat units)  2.1733 (a.u.) for type    5

     Check: negative/imaginary core charge=   -0.000007    0.000000

     Initial potential from superposition of free atoms

     starting charge  147.99713, renormalised to  148.00000
     Starting wfcs are  112 randomized atomic wfcs
     Checking if some PAW data can be deallocated... 

     total cpu time spent up to now is       33.0 secs

     Self-consistent Calculation

     iteration #  1     ecut=    45.00 Ry     beta= 0.10
     Davidson diagonalization with overlap
     ethr =  1.00E-02,  avg # of iterations =  3.3

     total cpu time spent up to now is      115.9 secs

     total energy              =   -7343.83300041 Ry
     Harris-Foulkes estimate   =   -7343.14651897 Ry
     estimated scf accuracy    <       6.00406634 Ry

     total magnetization       =    -0.00 Bohr mag/cell
     absolute magnetization    =    20.47 Bohr mag/cell

     iteration #  2     ecut=    45.00 Ry     beta= 0.10
     Davidson diagonalization with overlap
     ethr =  4.06E-03,  avg # of iterations =  1.0

     total cpu time spent up to now is      167.7 secs

     total energy              =   -7346.29352708 Ry
     Harris-Foulkes estimate   =   -7343.87159079 Ry
     estimated scf accuracy    <       4.72960886 Ry

     total magnetization       =    -0.00 Bohr mag/cell
     absolute magnetization    =    20.39 Bohr mag/cell

     iteration #  3     ecut=    45.00 Ry     beta= 0.10
     Davidson diagonalization with overlap
     ethr =  3.20E-03,  avg # of iterations =  2.1

     total cpu time spent up to now is      232.8 secs

     total energy              =   -7347.98606773 Ry
     Harris-Foulkes estimate   =   -7346.88977482 Ry
     estimated scf accuracy    <       1.94642172 Ry

     total magnetization       =     0.00 Bohr mag/cell
     absolute magnetization    =    19.06 Bohr mag/cell

     iteration #  4     ecut=    45.00 Ry     beta= 0.10
     Davidson diagonalization with overlap
     ethr =  1.32E-03,  avg # of iterations =  3.5

     total cpu time spent up to now is      334.5 secs

     total energy              =   -7345.87273486 Ry
     Harris-Foulkes estimate   =   -7348.64820265 Ry
     estimated scf accuracy    <      12.10424591 Ry

     total magnetization       =     0.06 Bohr mag/cell
     absolute magnetization    =    16.02 Bohr mag/cell

     iteration #  5     ecut=    45.00 Ry     beta= 0.10
     Davidson diagonalization with overlap
     ethr =  1.32E-03,  avg # of iterations =  4.0

     total cpu time spent up to now is      492.3 secs

     total energy              =   -7347.18284000 Ry
     Harris-Foulkes estimate   =   -7347.13244147 Ry
     estimated scf accuracy    <       0.26044673 Ry

     total magnetization       =    -0.00 Bohr mag/cell
     absolute magnetization    =    18.42 Bohr mag/cell

     iteration #  6     ecut=    45.00 Ry     beta= 0.10
     Davidson diagonalization with overlap
     ethr =  1.76E-04,  avg # of iterations =  3.3

     total cpu time spent up to now is      571.7 secs

     total energy              =   -7347.22739530 Ry
     Harris-Foulkes estimate   =   -7347.23222045 Ry
     estimated scf accuracy    <       0.07397107 Ry

     total magnetization       =    -0.02 Bohr mag/cell
     absolute magnetization    =    17.31 Bohr mag/cell

     iteration #  7     ecut=    45.00 Ry     beta= 0.10
     Davidson diagonalization with overlap
     ethr =  5.00E-05,  avg # of iterations =  1.2

     total cpu time spent up to now is      625.2 secs

     total energy              =   -7347.21904981 Ry
     Harris-Foulkes estimate   =   -7347.22946159 Ry
     estimated scf accuracy    <       0.04434054 Ry

     total magnetization       =     0.00 Bohr mag/cell
     absolute magnetization    =    17.15 Bohr mag/cell

     iteration #  8     ecut=    45.00 Ry     beta= 0.10
     Davidson diagonalization with overlap
     ethr =  3.00E-05,  avg # of iterations =  2.0

     total cpu time spent up to now is      688.3 secs

     total energy              =   -7347.21915946 Ry
     Harris-Foulkes estimate   =   -7347.22249976 Ry
     estimated scf accuracy    <       0.01448984 Ry

     total magnetization       =     0.01 Bohr mag/cell
     absolute magnetization    =    17.09 Bohr mag/cell

     iteration #  9     ecut=    45.00 Ry     beta= 0.10
     Davidson diagonalization with overlap
     ethr =  9.79E-06,  avg # of iterations =  3.1

     total cpu time spent up to now is      797.2 secs

     total energy              =   -7347.22575143 Ry
     Harris-Foulkes estimate   =   -7347.22858116 Ry
     estimated scf accuracy    <       0.05770157 Ry

     total magnetization       =    -0.02 Bohr mag/cell
     absolute magnetization    =    17.37 Bohr mag/cell

     iteration # 10     ecut=    45.00 Ry     beta= 0.10
     Davidson diagonalization with overlap
     ethr =  9.79E-06,  avg # of iterations =  2.0

     total cpu time spent up to now is      859.2 secs

     total energy              =   -7347.22590436 Ry
     Harris-Foulkes estimate   =   -7347.22713935 Ry
     estimated scf accuracy    <       0.01887493 Ry

     total magnetization       =    -0.01 Bohr mag/cell
     absolute magnetization    =    17.35 Bohr mag/cell

     iteration # 11     ecut=    45.00 Ry     beta= 0.10
     Davidson diagonalization with overlap
     ethr =  9.79E-06,  avg # of iterations =  1.5

     total cpu time spent up to now is      915.3 secs

     total energy              =   -7347.22707698 Ry
     Harris-Foulkes estimate   =   -7347.22686561 Ry
     estimated scf accuracy    <       0.00314488 Ry

     total magnetization       =    -0.00 Bohr mag/cell
     absolute magnetization    =    17.32 Bohr mag/cell

     iteration # 12     ecut=    45.00 Ry     beta= 0.10
     Davidson diagonalization with overlap
     ethr =  2.12E-06,  avg # of iterations =  2.8

     total cpu time spent up to now is      986.8 secs

     total energy              =   -7347.22731281 Ry
     Harris-Foulkes estimate   =   -7347.22730119 Ry
     estimated scf accuracy    <       0.00076265 Ry

     total magnetization       =     0.00 Bohr mag/cell
     absolute magnetization    =    17.28 Bohr mag/cell

     iteration # 13     ecut=    45.00 Ry     beta= 0.10
     Davidson diagonalization with overlap
     ethr =  5.15E-07,  avg # of iterations =  2.9

     total cpu time spent up to now is     1064.8 secs

     total energy              =   -7347.22748663 Ry
     Harris-Foulkes estimate   =   -7347.22745091 Ry
     estimated scf accuracy    <       0.00007600 Ry

     total magnetization       =    -0.00 Bohr mag/cell
     absolute magnetization    =    17.25 Bohr mag/cell

     iteration # 14     ecut=    45.00 Ry     beta= 0.10
     Davidson diagonalization with overlap
     ethr =  5.14E-08,  avg # of iterations =  3.6

     total cpu time spent up to now is     1143.7 secs

     total energy              =   -7347.22752502 Ry
     Harris-Foulkes estimate   =   -7347.22749574 Ry
     estimated scf accuracy    <       0.00007705 Ry

     total magnetization       =    -0.00 Bohr mag/cell
     absolute magnetization    =    17.25 Bohr mag/cell

     iteration # 15     ecut=    45.00 Ry     beta= 0.10
     Davidson diagonalization with overlap
     ethr =  5.14E-08,  avg # of iterations =  2.4

     total cpu time spent up to now is     1209.7 secs

     total energy              =   -7347.22757255 Ry
     Harris-Foulkes estimate   =   -7347.22754553 Ry
     estimated scf accuracy    <       0.00003335 Ry

     total magnetization       =     0.00 Bohr mag/cell
     absolute magnetization    =    17.25 Bohr mag/cell

     iteration # 16     ecut=    45.00 Ry     beta= 0.10
     Davidson diagonalization with overlap
     ethr =  2.25E-08,  avg # of iterations =  2.0

     total cpu time spent up to now is     1274.5 secs

     total energy              =   -7347.22758029 Ry
     Harris-Foulkes estimate   =   -7347.22757875 Ry
     estimated scf accuracy    <       0.00002006 Ry

     total magnetization       =     0.00 Bohr mag/cell
     absolute magnetization    =    17.24 Bohr mag/cell

     iteration # 17     ecut=    45.00 Ry     beta= 0.10
     Davidson diagonalization with overlap
     ethr =  1.36E-08,  avg # of iterations =  1.0

     total cpu time spent up to now is     1326.7 secs

     total energy              =   -7347.22758559 Ry
     Harris-Foulkes estimate   =   -7347.22758025 Ry
     estimated scf accuracy    <       0.00000510 Ry

     total magnetization       =     0.00 Bohr mag/cell
     absolute magnetization    =    17.24 Bohr mag/cell

     iteration # 18     ecut=    45.00 Ry     beta= 0.10
     Davidson diagonalization with overlap
     ethr =  3.44E-09,  avg # of iterations =  2.3

     total cpu time spent up to now is     1393.0 secs

     total energy              =   -7347.22758987 Ry
     Harris-Foulkes estimate   =   -7347.22758826 Ry
     estimated scf accuracy    <       0.00001349 Ry

     total magnetization       =     0.00 Bohr mag/cell
     absolute magnetization    =    17.24 Bohr mag/cell

     iteration # 19     ecut=    45.00 Ry     beta= 0.10
     Davidson diagonalization with overlap
     ethr =  3.44E-09,  avg # of iterations =  1.1

     total cpu time spent up to now is     1445.8 secs

     total energy              =   -7347.22759189 Ry
     Harris-Foulkes estimate   =   -7347.22759080 Ry
     estimated scf accuracy    <       0.00000805 Ry

     total magnetization       =     0.00 Bohr mag/cell
     absolute magnetization    =    17.24 Bohr mag/cell

     iteration # 20     ecut=    45.00 Ry     beta= 0.10
     Davidson diagonalization with overlap
     ethr =  3.44E-09,  avg # of iterations =  1.0

     total cpu time spent up to now is     1500.1 secs

     total energy              =   -7347.22759347 Ry
     Harris-Foulkes estimate   =   -7347.22759255 Ry
     estimated scf accuracy    <       0.00000130 Ry

     total magnetization       =     0.00 Bohr mag/cell
     absolute magnetization    =    17.24 Bohr mag/cell

     iteration # 21     ecut=    45.00 Ry     beta= 0.10
     Davidson diagonalization with overlap
     ethr =  8.76E-10,  avg # of iterations =  1.0

     total cpu time spent up to now is     1572.5 secs

     total energy              =   -7347.22759454 Ry
     Harris-Foulkes estimate   =   -7347.22759371 Ry
     estimated scf accuracy    <       0.00000228 Ry

     total magnetization       =     0.00 Bohr mag/cell
     absolute magnetization    =    17.24 Bohr mag/cell

     iteration # 22     ecut=    45.00 Ry     beta= 0.10
     Davidson diagonalization with overlap
     ethr =  8.76E-10,  avg # of iterations =  1.0

     total cpu time spent up to now is     1624.5 secs

     total energy              =   -7347.22759554 Ry
     Harris-Foulkes estimate   =   -7347.22759470 Ry
     estimated scf accuracy    <       0.00000212 Ry

     total magnetization       =     0.00 Bohr mag/cell
     absolute magnetization    =    17.24 Bohr mag/cell

     iteration # 23     ecut=    45.00 Ry     beta= 0.10
     Davidson diagonalization with overlap
     ethr =  8.76E-10,  avg # of iterations =  1.1

     Magnetic moment per site:
     atom:    1    charge:   13.5772    magn:    3.9975    constr:    0.0000
     atom:    2    charge:   13.5773    magn:   -3.9991    constr:    0.0000
     atom:    3    charge:   13.5775    magn:    3.9994    constr:    0.0000
     atom:    4    charge:   13.5774    magn:   -3.9977    constr:    0.0000
     atom:    5    charge:    9.1214    magn:   -0.0027    constr:    0.0000
     atom:    6    charge:    9.1212    magn:    0.0026    constr:    0.0000
     atom:    7    charge:    9.1214    magn:   -0.0027    constr:    0.0000
     atom:    8    charge:    9.1212    magn:    0.0026    constr:    0.0000
     atom:    9    charge:    9.1212    magn:   -0.0028    constr:    0.0000
     atom:   10    charge:    9.1214    magn:    0.0028    constr:    0.0000
     atom:   11    charge:    9.1212    magn:   -0.0028    constr:    0.0000
     atom:   12    charge:    9.1214    magn:    0.0028    constr:    0.0000

     total cpu time spent up to now is     1677.6 secs

     End of self-consistent calculation

     Number of k-points >= 100: set verbosity='high' to print the bands.

     the Fermi energy is    14.8282 ev

!    total energy              =   -7347.22759828 Ry
     Harris-Foulkes estimate   =   -7347.22759576 Ry
     estimated scf accuracy    <       0.00000030 Ry

     total all-electron energy =   -313461.025459 Ry

     The total energy is the sum of the following terms:

     one-electron contribution =    -365.71564379 Ry
     hartree contribution      =     331.11382629 Ry
     xc contribution           =    -368.60868429 Ry
     ewald contribution        =   -1093.16833277 Ry
     one-center paw contrib.   =   -5850.84876373 Ry

     total magnetization       =     0.00 Bohr mag/cell
     absolute magnetization    =    17.24 Bohr mag/cell

     convergence has been achieved in  23 iterations

     Writing output data file mnau2.save/

     init_run     :     27.66s CPU     28.36s WALL (       1 calls)
     electrons    :   1589.83s CPU   1644.86s WALL (       1 calls)

     Called by init_run:
     wfcinit      :     24.86s CPU     25.52s WALL (       1 calls)
     potinit      :      1.25s CPU      1.26s WALL (       1 calls)
     hinit0       :      1.35s CPU      1.35s WALL (       1 calls)

     Called by electrons:
     c_bands      :   1392.73s CPU   1442.46s WALL (      23 calls)
     sum_band     :    175.89s CPU    180.93s WALL (      23 calls)
     v_of_rho     :      1.15s CPU      1.15s WALL (      24 calls)
     newd         :      3.33s CPU      3.34s WALL (      24 calls)
     PAW_pot      :     17.42s CPU     17.44s WALL (      24 calls)
     mix_rho      :      0.13s CPU      0.14s WALL (      23 calls)

     Called by c_bands:
     init_us_2    :     13.92s CPU     14.38s WALL (   20304 calls)
     cegterg      :   1341.18s CPU   1362.23s WALL (    9936 calls)

     Called by sum_band:
     sum_band:bec :      2.18s CPU      2.19s WALL (    9936 calls)
     addusdens    :      6.13s CPU      6.16s WALL (      23 calls)

     Called by *egterg:
     h_psi        :    545.68s CPU    565.82s WALL (   31670 calls)
     s_psi        :     53.79s CPU     54.02s WALL (   31670 calls)
     g_psi        :      4.59s CPU      4.61s WALL (   21302 calls)
     cdiaghg      :    570.87s CPU    571.63s WALL (   31238 calls)

     Called by h_psi:
     h_psi:pot    :    543.12s CPU    563.24s WALL (   31670 calls)
     h_psi:calbec :     64.49s CPU     65.30s WALL (   31670 calls)
     vloc_psi     :    424.94s CPU    444.01s WALL (   31670 calls)
     add_vuspsi   :     53.51s CPU     53.80s WALL (   31670 calls)

     General routines
     calbec       :     92.35s CPU     93.44s WALL (   41606 calls)
     fft          :      0.39s CPU      0.40s WALL (     596 calls)
     ffts         :      0.03s CPU      0.03s WALL (      94 calls)
     fftw         :    478.38s CPU    499.93s WALL ( 4875302 calls)
     interpolate  :      0.04s CPU      0.05s WALL (      48 calls)

     Parallel routines
     fft_scatt_xy :     61.43s CPU     64.12s WALL ( 4875992 calls)
     fft_scatt_yz :    188.04s CPU    197.02s WALL ( 4875992 calls)

     PWSCF        : 27m 8.94s CPU    29m27.48s WALL


   This run was terminated on:  15:58:59  14Feb2019            

=------------------------------------------------------------------------------=
   JOB DONE.
=------------------------------------------------------------------------------=
