
     Program PWSCF v.6.3 starts on 14Feb2019 at 15:11:23 

     This program is part of the open-source Quantum ESPRESSO suite
     for quantum simulation of materials; please cite
         "P. Giannozzi et al., J. Phys.:Condens. Matter 21 395502 (2009);
         "P. Giannozzi et al., J. Phys.:Condens. Matter 29 465901 (2017);
          URL http://www.quantum-espresso.org", 
     in publications or presentations arising from this work. More details at
     http://www.quantum-espresso.org/quote

     Parallel version (MPI), running on    16 processors

     MPI processes distributed on     1 nodes
     R & G space division:  proc/nbgrp/npool/nimage =      16
     Waiting for input...
     Reading input from standard input

     Current dimensions of program PWSCF are:
     Max number of different atomic species (ntypx) = 10
     Max number of k-points (npk) =  40000
     Max angular momentum in pseudopotentials (lmaxx) =  3
     Message from routine read_upf::
     Pseudo file ./pseudo/Mn.pbe-spn-kjpaw_psl.0.3.1.UPF has been successfully fixed on the fly.
To avoid this message in the future you can permanently fix 
 your pseudo files following instructions given in: 
https://gitlab.com/QEF/q-e/blob/master/upftools/how_to_fix_upf.md
               file Mn.pbe-spn-kjpaw_psl.0.3.1.UPF: wavefunction(s)  3P 3D renormalized
     Message from routine read_upf::
     Pseudo file ./pseudo/Mn.pbe-spn-kjpaw_psl.0.3.1.UPF has been successfully fixed on the fly.
To avoid this message in the future you can permanently fix 
 your pseudo files following instructions given in: 
https://gitlab.com/QEF/q-e/blob/master/upftools/how_to_fix_upf.md
               file Mn.pbe-spn-kjpaw_psl.0.3.1.UPF: wavefunction(s)  3P 3D renormalized
     Message from routine read_upf::
     Pseudo file ./pseudo/Mn.pbe-spn-kjpaw_psl.0.3.1.UPF has been successfully fixed on the fly.
To avoid this message in the future you can permanently fix 
 your pseudo files following instructions given in: 
https://gitlab.com/QEF/q-e/blob/master/upftools/how_to_fix_upf.md
               file Mn.pbe-spn-kjpaw_psl.0.3.1.UPF: wavefunction(s)  3P 3D renormalized
     Message from routine read_upf::
     Pseudo file ./pseudo/Mn.pbe-spn-kjpaw_psl.0.3.1.UPF has been successfully fixed on the fly.
To avoid this message in the future you can permanently fix 
 your pseudo files following instructions given in: 
https://gitlab.com/QEF/q-e/blob/master/upftools/how_to_fix_upf.md
               file Mn.pbe-spn-kjpaw_psl.0.3.1.UPF: wavefunction(s)  3P 3D renormalized
     Message from routine read_upf::
     Pseudo file ./pseudo/Au.pbe-dn-kjpaw_psl.0.1.UPF has been successfully fixed on the fly.
To avoid this message in the future you can permanently fix 
 your pseudo files following instructions given in: 
https://gitlab.com/QEF/q-e/blob/master/upftools/how_to_fix_upf.md
               file Au.pbe-dn-kjpaw_psl.0.1.UPF: wavefunction(s)  6S 6P 5D renormalized

     Subspace diagonalization in iterative solution of the eigenvalue problem:
     one sub-group per band group will be used
     scalapack distributed-memory algorithm (size of sub-group:  2*  2 procs)


     Parallelization info
     --------------------
     sticks:   dense  smooth     PW     G-vecs:    dense   smooth      PW
     Min         122      74     21                 7568     3520     551
     Max         123      75     22                 7576     3525     556
     Sum        1961    1185    349               121149    56367    8851



     bravais-lattice index     =            0
     lattice parameter (alat)  =       9.0726  a.u.
     unit-cell volume          =    1381.3667 (a.u.)^3
     number of atoms/cell      =           12
     number of atomic types    =            5
     number of electrons       =       148.00
     number of Kohn-Sham states=           89
     kinetic-energy cutoff     =      45.0000  Ry
     charge density cutoff     =     300.0000  Ry
     convergence threshold     =      1.0E-06
     mixing beta               =       0.1000
     number of iterations used =            8  plain     mixing
     Exchange-correlation      = SLA PW PBX PBC ( 1  4  3  4 0 0)

     celldm(1)=   9.072626  celldm(2)=   0.000000  celldm(3)=   0.000000
     celldm(4)=   0.000000  celldm(5)=   0.000000  celldm(6)=   0.000000

     crystal axes: (cart. coord. in units of alat)
               a(1) = (   1.000000   0.000000   0.000000 )  
               a(2) = (   0.000000   1.000000   0.000000 )  
               a(3) = (   0.000000   0.000000   1.849737 )  

     reciprocal axes: (cart. coord. in units 2 pi/alat)
               b(1) = (  1.000000  0.000000  0.000000 )  
               b(2) = (  0.000000  1.000000  0.000000 )  
               b(3) = (  0.000000  0.000000  0.540617 )  


     PseudoPot. # 1 for Mn read from file:
     ./pseudo/Mn.pbe-spn-kjpaw_psl.0.3.1.UPF
     MD5 check sum: 7eef95dd2aae66803482eea66ebeebf1
     Pseudo is Projector augmented-wave + core cor, Zval = 15.0
     Generated using "atomic" code by A. Dal Corso v.5.0.99 svn rev. 10869
     Shape of augmentation charge: PSQ
     Using radial grid of 1187 points,  6 beta functions with: 
                l(1) =   0
                l(2) =   0
                l(3) =   1
                l(4) =   1
                l(5) =   2
                l(6) =   2
     Q(r) pseudized with 0 coefficients 


     PseudoPot. # 2 for Mn read from file:
     ./pseudo/Mn.pbe-spn-kjpaw_psl.0.3.1.UPF
     MD5 check sum: 7eef95dd2aae66803482eea66ebeebf1
     Pseudo is Projector augmented-wave + core cor, Zval = 15.0
     Generated using "atomic" code by A. Dal Corso v.5.0.99 svn rev. 10869
     Shape of augmentation charge: PSQ
     Using radial grid of 1187 points,  6 beta functions with: 
                l(1) =   0
                l(2) =   0
                l(3) =   1
                l(4) =   1
                l(5) =   2
                l(6) =   2
     Q(r) pseudized with 0 coefficients 


     PseudoPot. # 3 for Mn read from file:
     ./pseudo/Mn.pbe-spn-kjpaw_psl.0.3.1.UPF
     MD5 check sum: 7eef95dd2aae66803482eea66ebeebf1
     Pseudo is Projector augmented-wave + core cor, Zval = 15.0
     Generated using "atomic" code by A. Dal Corso v.5.0.99 svn rev. 10869
     Shape of augmentation charge: PSQ
     Using radial grid of 1187 points,  6 beta functions with: 
                l(1) =   0
                l(2) =   0
                l(3) =   1
                l(4) =   1
                l(5) =   2
                l(6) =   2
     Q(r) pseudized with 0 coefficients 


     PseudoPot. # 4 for Mn read from file:
     ./pseudo/Mn.pbe-spn-kjpaw_psl.0.3.1.UPF
     MD5 check sum: 7eef95dd2aae66803482eea66ebeebf1
     Pseudo is Projector augmented-wave + core cor, Zval = 15.0
     Generated using "atomic" code by A. Dal Corso v.5.0.99 svn rev. 10869
     Shape of augmentation charge: PSQ
     Using radial grid of 1187 points,  6 beta functions with: 
                l(1) =   0
                l(2) =   0
                l(3) =   1
                l(4) =   1
                l(5) =   2
                l(6) =   2
     Q(r) pseudized with 0 coefficients 


     PseudoPot. # 5 for Au read from file:
     ./pseudo/Au.pbe-dn-kjpaw_psl.0.1.UPF
     MD5 check sum: 5c9b92683623e7ae2ab3f8e525febab6
     Pseudo is Projector augmented-wave + core cor, Zval = 11.0
     Generated using "atomic" code by A. Dal Corso v.5.0.2 svn rev. 9415
     Shape of augmentation charge: PSQ
     Using radial grid of 1279 points,  6 beta functions with: 
                l(1) =   0
                l(2) =   0
                l(3) =   1
                l(4) =   1
                l(5) =   2
                l(6) =   2
     Q(r) pseudized with 0 coefficients 


     atomic species   valence    mass     pseudopotential
        Mn1           15.00    54.93800     Mn( 1.00)
        Mn2           15.00    54.93800     Mn( 1.00)
        Mn3           15.00    54.93800     Mn( 1.00)
        Mn4           15.00    54.93800     Mn( 1.00)
        Au            11.00   196.96600     Au( 1.00)

     Starting magnetic structure 
     atomic species   magnetization
        Mn1          0.800
        Mn2         -0.800
        Mn3          0.800
        Mn4         -0.800
        Au           0.000

      8 Sym. Ops., with inversion, found



   Cartesian axes

     site n.     atom                  positions (alat units)
         1           Mn1 tau(   1) = (   0.0000000   0.0000000   0.0000000  )
         2           Mn2 tau(   2) = (   0.5000000   0.5000000   0.0000000  )
         3           Mn3 tau(   3) = (   0.5000000   0.0000000   0.9248684  )
         4           Mn4 tau(   4) = (   1.0000000   0.5000000   0.9248684  )
         5           Au  tau(   5) = (   0.5000000   0.0000000   1.5543689  )
         6           Au  tau(   6) = (   1.0000000   0.5000000   1.5543689  )
         7           Au  tau(   7) = (   0.5000000   0.0000000   0.2953678  )
         8           Au  tau(   8) = (   1.0000000   0.5000000   0.2953678  )
         9           Au  tau(   9) = (   0.0000000   0.0000000   0.6295006  )
        10           Au  tau(  10) = (   0.5000000   0.5000000   0.6295006  )
        11           Au  tau(  11) = (   0.0000000   0.0000000   1.2202362  )
        12           Au  tau(  12) = (   0.5000000   0.5000000   1.2202362  )

     number of k points=   125 (tetrahedron method)

     Number of k-points >= 100: set verbosity='high' to print them.

     Dense  grid:   121149 G-vectors     FFT dimensions: (  54,  54,  96)

     Smooth grid:    56367 G-vectors     FFT dimensions: (  40,  40,  72)

     Estimated max dynamical RAM per process >     192.23 MB

     Estimated total dynamical RAM >       3.00 GB
     Generating pointlists ...
     new r_m :   0.2395 (alat units)  2.1733 (a.u.) for type    1
     new r_m :   0.2395 (alat units)  2.1733 (a.u.) for type    2
     new r_m :   0.2395 (alat units)  2.1733 (a.u.) for type    3
     new r_m :   0.2395 (alat units)  2.1733 (a.u.) for type    4
     new r_m :   0.2395 (alat units)  2.1733 (a.u.) for type    5

     Check: negative/imaginary core charge=   -0.000007    0.000000

     Initial potential from superposition of free atoms

     starting charge  147.99713, renormalised to  148.00000
     Starting wfcs are  112 randomized atomic wfcs
     Checking if some PAW data can be deallocated... 

     total cpu time spent up to now is       22.7 secs

     Self-consistent Calculation

     iteration #  1     ecut=    45.00 Ry     beta= 0.10
     Davidson diagonalization with overlap
     ethr =  1.00E-02,  avg # of iterations =  3.4

     total cpu time spent up to now is       71.9 secs

     total energy              =   -7343.83255711 Ry
     Harris-Foulkes estimate   =   -7343.14657130 Ry
     estimated scf accuracy    <       6.00689846 Ry

     total magnetization       =    -0.00 Bohr mag/cell
     absolute magnetization    =    20.48 Bohr mag/cell

     iteration #  2     ecut=    45.00 Ry     beta= 0.10
     Davidson diagonalization with overlap
     ethr =  4.06E-03,  avg # of iterations =  1.0

     total cpu time spent up to now is      102.5 secs

     total energy              =   -7346.28877879 Ry
     Harris-Foulkes estimate   =   -7343.87098908 Ry
     estimated scf accuracy    <       4.73004491 Ry

     total magnetization       =    -0.00 Bohr mag/cell
     absolute magnetization    =    20.39 Bohr mag/cell

     iteration #  3     ecut=    45.00 Ry     beta= 0.10
     Davidson diagonalization with overlap
     ethr =  3.20E-03,  avg # of iterations =  2.1

     total cpu time spent up to now is      140.9 secs

     total energy              =   -7347.94550874 Ry
     Harris-Foulkes estimate   =   -7346.88173505 Ry
     estimated scf accuracy    <       1.93876710 Ry

     total magnetization       =     0.00 Bohr mag/cell
     absolute magnetization    =    19.06 Bohr mag/cell

     iteration #  4     ecut=    45.00 Ry     beta= 0.10
     Davidson diagonalization with overlap
     ethr =  1.31E-03,  avg # of iterations =  3.5

     total cpu time spent up to now is      200.1 secs

     total energy              =   -7345.90677479 Ry
     Harris-Foulkes estimate   =   -7348.58395446 Ry
     estimated scf accuracy    <      11.75013822 Ry

     total magnetization       =     0.06 Bohr mag/cell
     absolute magnetization    =    16.14 Bohr mag/cell

     iteration #  5     ecut=    45.00 Ry     beta= 0.10
     Davidson diagonalization with overlap
     ethr =  1.31E-03,  avg # of iterations =  4.0

     total cpu time spent up to now is      290.9 secs

     total energy              =   -7347.18353126 Ry
     Harris-Foulkes estimate   =   -7347.13286504 Ry
     estimated scf accuracy    <       0.24671501 Ry

     total magnetization       =    -0.00 Bohr mag/cell
     absolute magnetization    =    18.40 Bohr mag/cell

     iteration #  6     ecut=    45.00 Ry     beta= 0.10
     Davidson diagonalization with overlap
     ethr =  1.67E-04,  avg # of iterations =  3.3

     total cpu time spent up to now is      338.7 secs

     total energy              =   -7347.22717049 Ry
     Harris-Foulkes estimate   =   -7347.23402151 Ry
     estimated scf accuracy    <       0.08501064 Ry

     total magnetization       =    -0.02 Bohr mag/cell
     absolute magnetization    =    17.27 Bohr mag/cell

     iteration #  7     ecut=    45.00 Ry     beta= 0.10
     Davidson diagonalization with overlap
     ethr =  5.74E-05,  avg # of iterations =  1.1

     total cpu time spent up to now is      369.7 secs

     total energy              =   -7347.21920455 Ry
     Harris-Foulkes estimate   =   -7347.22944457 Ry
     estimated scf accuracy    <       0.04707251 Ry

     total magnetization       =     0.00 Bohr mag/cell
     absolute magnetization    =    17.14 Bohr mag/cell

     iteration #  8     ecut=    45.00 Ry     beta= 0.10
     Davidson diagonalization with overlap
     ethr =  3.18E-05,  avg # of iterations =  2.0

     total cpu time spent up to now is      406.5 secs

     total energy              =   -7347.21933926 Ry
     Harris-Foulkes estimate   =   -7347.22254572 Ry
     estimated scf accuracy    <       0.01434998 Ry

     total magnetization       =     0.01 Bohr mag/cell
     absolute magnetization    =    17.09 Bohr mag/cell

     iteration #  9     ecut=    45.00 Ry     beta= 0.10
     Davidson diagonalization with overlap
     ethr =  9.70E-06,  avg # of iterations =  3.1

     total cpu time spent up to now is      467.0 secs

     total energy              =   -7347.22579632 Ry
     Harris-Foulkes estimate   =   -7347.22753907 Ry
     estimated scf accuracy    <       0.04746657 Ry

     total magnetization       =    -0.02 Bohr mag/cell
     absolute magnetization    =    17.38 Bohr mag/cell

     iteration # 10     ecut=    45.00 Ry     beta= 0.10
     Davidson diagonalization with overlap
     ethr =  9.70E-06,  avg # of iterations =  1.7

     total cpu time spent up to now is      501.4 secs

     total energy              =   -7347.22570197 Ry
     Harris-Foulkes estimate   =   -7347.22676834 Ry
     estimated scf accuracy    <       0.01789683 Ry

     total magnetization       =    -0.01 Bohr mag/cell
     absolute magnetization    =    17.36 Bohr mag/cell

     iteration # 11     ecut=    45.00 Ry     beta= 0.10
     Davidson diagonalization with overlap
     ethr =  9.70E-06,  avg # of iterations =  2.0

     total cpu time spent up to now is      537.3 secs

     total energy              =   -7347.22694696 Ry
     Harris-Foulkes estimate   =   -7347.22670148 Ry
     estimated scf accuracy    <       0.00286012 Ry

     total magnetization       =    -0.00 Bohr mag/cell
     absolute magnetization    =    17.33 Bohr mag/cell

     iteration # 12     ecut=    45.00 Ry     beta= 0.10
     Davidson diagonalization with overlap
     ethr =  1.93E-06,  avg # of iterations =  2.5

     total cpu time spent up to now is      576.0 secs

     total energy              =   -7347.22712402 Ry
     Harris-Foulkes estimate   =   -7347.22712538 Ry
     estimated scf accuracy    <       0.00079585 Ry

     total magnetization       =     0.00 Bohr mag/cell
     absolute magnetization    =    17.28 Bohr mag/cell

     iteration # 13     ecut=    45.00 Ry     beta= 0.10
     Davidson diagonalization with overlap
     ethr =  5.38E-07,  avg # of iterations =  3.0

     total cpu time spent up to now is      620.3 secs

     total energy              =   -7347.22727356 Ry
     Harris-Foulkes estimate   =   -7347.22724130 Ry
     estimated scf accuracy    <       0.00009793 Ry

     total magnetization       =    -0.00 Bohr mag/cell
     absolute magnetization    =    17.26 Bohr mag/cell

     iteration # 14     ecut=    45.00 Ry     beta= 0.10
     Davidson diagonalization with overlap
     ethr =  6.62E-08,  avg # of iterations =  3.5

     total cpu time spent up to now is      664.8 secs

     total energy              =   -7347.22732827 Ry
     Harris-Foulkes estimate   =   -7347.22728802 Ry
     estimated scf accuracy    <       0.00011315 Ry

     total magnetization       =     0.00 Bohr mag/cell
     absolute magnetization    =    17.25 Bohr mag/cell

     iteration # 15     ecut=    45.00 Ry     beta= 0.10
     Davidson diagonalization with overlap
     ethr =  6.62E-08,  avg # of iterations =  2.0

     total cpu time spent up to now is      700.8 secs

     total energy              =   -7347.22737910 Ry
     Harris-Foulkes estimate   =   -7347.22734153 Ry
     estimated scf accuracy    <       0.00002875 Ry

     total magnetization       =     0.00 Bohr mag/cell
     absolute magnetization    =    17.25 Bohr mag/cell

     iteration # 16     ecut=    45.00 Ry     beta= 0.10
     Davidson diagonalization with overlap
     ethr =  1.94E-08,  avg # of iterations =  2.5

     total cpu time spent up to now is      744.3 secs

     total energy              =   -7347.22739037 Ry
     Harris-Foulkes estimate   =   -7347.22738820 Ry
     estimated scf accuracy    <       0.00003025 Ry

     total magnetization       =     0.00 Bohr mag/cell
     absolute magnetization    =    17.24 Bohr mag/cell

     iteration # 17     ecut=    45.00 Ry     beta= 0.10
     Davidson diagonalization with overlap
     ethr =  1.94E-08,  avg # of iterations =  1.0

     total cpu time spent up to now is      774.9 secs

     total energy              =   -7347.22739358 Ry
     Harris-Foulkes estimate   =   -7347.22739127 Ry
     estimated scf accuracy    <       0.00000914 Ry

     total magnetization       =     0.00 Bohr mag/cell
     absolute magnetization    =    17.24 Bohr mag/cell

     iteration # 18     ecut=    45.00 Ry     beta= 0.10
     Davidson diagonalization with overlap
     ethr =  6.18E-09,  avg # of iterations =  1.0

     total cpu time spent up to now is      805.6 secs

     total energy              =   -7347.22739755 Ry
     Harris-Foulkes estimate   =   -7347.22739419 Ry
     estimated scf accuracy    <       0.00000838 Ry

     total magnetization       =     0.00 Bohr mag/cell
     absolute magnetization    =    17.24 Bohr mag/cell

     iteration # 19     ecut=    45.00 Ry     beta= 0.10
     Davidson diagonalization with overlap
     ethr =  5.66E-09,  avg # of iterations =  1.5

     total cpu time spent up to now is      838.4 secs

     total energy              =   -7347.22739951 Ry
     Harris-Foulkes estimate   =   -7347.22739850 Ry
     estimated scf accuracy    <       0.00000902 Ry

     total magnetization       =     0.00 Bohr mag/cell
     absolute magnetization    =    17.24 Bohr mag/cell

     iteration # 20     ecut=    45.00 Ry     beta= 0.10
     Davidson diagonalization with overlap
     ethr =  5.66E-09,  avg # of iterations =  1.0

     total cpu time spent up to now is      868.9 secs

     total energy              =   -7347.22740147 Ry
     Harris-Foulkes estimate   =   -7347.22740007 Ry
     estimated scf accuracy    <       0.00000220 Ry

     total magnetization       =     0.00 Bohr mag/cell
     absolute magnetization    =    17.24 Bohr mag/cell

     iteration # 21     ecut=    45.00 Ry     beta= 0.10
     Davidson diagonalization with overlap
     ethr =  1.48E-09,  avg # of iterations =  1.9

     total cpu time spent up to now is      903.9 secs

     total energy              =   -7347.22740273 Ry
     Harris-Foulkes estimate   =   -7347.22740183 Ry
     estimated scf accuracy    <       0.00000212 Ry

     total magnetization       =     0.00 Bohr mag/cell
     absolute magnetization    =    17.24 Bohr mag/cell

     iteration # 22     ecut=    45.00 Ry     beta= 0.10
     Davidson diagonalization with overlap
     ethr =  1.43E-09,  avg # of iterations =  1.0

     Magnetic moment per site:
     atom:    1    charge:   13.5778    magn:    3.9980    constr:    0.0000
     atom:    2    charge:   13.5773    magn:   -3.9973    constr:    0.0000
     atom:    3    charge:   13.5771    magn:    3.9975    constr:    0.0000
     atom:    4    charge:   13.5775    magn:   -3.9982    constr:    0.0000
     atom:    5    charge:    9.1212    magn:   -0.0029    constr:    0.0000
     atom:    6    charge:    9.1215    magn:    0.0029    constr:    0.0000
     atom:    7    charge:    9.1212    magn:   -0.0029    constr:    0.0000
     atom:    8    charge:    9.1215    magn:    0.0029    constr:    0.0000
     atom:    9    charge:    9.1215    magn:   -0.0029    constr:    0.0000
     atom:   10    charge:    9.1212    magn:    0.0029    constr:    0.0000
     atom:   11    charge:    9.1215    magn:   -0.0029    constr:    0.0000
     atom:   12    charge:    9.1212    magn:    0.0029    constr:    0.0000

     total cpu time spent up to now is      934.4 secs

     End of self-consistent calculation

     Number of k-points >= 100: set verbosity='high' to print the bands.

     the Fermi energy is    14.8307 ev

!    total energy              =   -7347.22740578 Ry
     Harris-Foulkes estimate   =   -7347.22740277 Ry
     estimated scf accuracy    <       0.00000064 Ry

     total all-electron energy =   -313461.025267 Ry

     The total energy is the sum of the following terms:

     one-electron contribution =    -365.71693847 Ry
     hartree contribution      =     331.11537979 Ry
     xc contribution           =    -368.60870931 Ry
     ewald contribution        =   -1093.16833277 Ry
     one-center paw contrib.   =   -5850.84880501 Ry

     total magnetization       =     0.00 Bohr mag/cell
     absolute magnetization    =    17.24 Bohr mag/cell

     convergence has been achieved in  22 iterations

     Writing output data file mnau2.save/

     init_run     :     17.19s CPU     17.66s WALL (       1 calls)
     electrons    :    896.17s CPU    912.17s WALL (       1 calls)

     Called by init_run:
     wfcinit      :     14.38s CPU     14.77s WALL (       1 calls)
     potinit      :      1.24s CPU      1.25s WALL (       1 calls)
     hinit0       :      1.36s CPU      1.41s WALL (       1 calls)

     Called by electrons:
     c_bands      :    777.18s CPU    789.96s WALL (      22 calls)
     sum_band     :     98.66s CPU    101.49s WALL (      22 calls)
     v_of_rho     :      1.10s CPU      1.10s WALL (      23 calls)
     newd         :      3.18s CPU      3.19s WALL (      23 calls)
     PAW_pot      :     16.73s CPU     16.76s WALL (      23 calls)
     mix_rho      :      0.13s CPU      0.13s WALL (      22 calls)

     Called by c_bands:
     init_us_2    :     10.14s CPU     10.38s WALL (   11250 calls)
     cegterg      :    748.86s CPU    761.27s WALL (    5500 calls)

     Called by sum_band:
     sum_band:bec :      1.19s CPU      1.20s WALL (    5500 calls)
     addusdens    :      5.88s CPU      5.90s WALL (      22 calls)

     Called by *egterg:
     h_psi        :    305.90s CPU    317.79s WALL (   17769 calls)
     s_psi        :     31.08s CPU     31.19s WALL (   17769 calls)
     g_psi        :      2.54s CPU      2.56s WALL (   12019 calls)
     cdiaghg      :    320.41s CPU    320.84s WALL (   17519 calls)

     Called by h_psi:
     h_psi:pot    :    304.23s CPU    316.10s WALL (   17769 calls)
     h_psi:calbec :     36.20s CPU     36.67s WALL (   17769 calls)
     vloc_psi     :    236.27s CPU    247.56s WALL (   17769 calls)
     add_vuspsi   :     31.66s CPU     31.80s WALL (   17769 calls)

     General routines
     calbec       :     51.85s CPU     52.46s WALL (   23269 calls)
     fft          :      0.39s CPU      0.44s WALL (     571 calls)
     ffts         :      0.02s CPU      0.03s WALL (      90 calls)
     fftw         :    263.01s CPU    275.43s WALL ( 2702352 calls)
     interpolate  :      0.04s CPU      0.04s WALL (      46 calls)

     Parallel routines
     fft_scatt_xy :     34.39s CPU     35.98s WALL ( 2703013 calls)
     fft_scatt_yz :    107.82s CPU    113.26s WALL ( 2703013 calls)

     PWSCF        : 15m21.65s CPU    15m57.34s WALL


   This run was terminated on:  15:27:20  14Feb2019            

=------------------------------------------------------------------------------=
   JOB DONE.
=------------------------------------------------------------------------------=
