
     Program PWSCF v.6.3 starts on 18Feb2019 at 16:49:24 

     This program is part of the open-source Quantum ESPRESSO suite
     for quantum simulation of materials; please cite
         "P. Giannozzi et al., J. Phys.:Condens. Matter 21 395502 (2009);
         "P. Giannozzi et al., J. Phys.:Condens. Matter 29 465901 (2017);
          URL http://www.quantum-espresso.org", 
     in publications or presentations arising from this work. More details at
     http://www.quantum-espresso.org/quote

     Parallel version (MPI), running on    16 processors

     MPI processes distributed on     1 nodes
     R & G space division:  proc/nbgrp/npool/nimage =      16
     Waiting for input...
     Reading input from standard input

     Current dimensions of program PWSCF are:
     Max number of different atomic species (ntypx) = 10
     Max number of k-points (npk) =  40000
     Max angular momentum in pseudopotentials (lmaxx) =  3
     Message from routine read_upf::
     Pseudo file ./pseudo/Mn.pbe-spn-kjpaw_psl.0.3.1.UPF has been successfully fixed on the fly.
To avoid this message in the future you can permanently fix 
 your pseudo files following instructions given in: 
https://gitlab.com/QEF/q-e/blob/master/upftools/how_to_fix_upf.md
               file Mn.pbe-spn-kjpaw_psl.0.3.1.UPF: wavefunction(s)  3P 3D renormalized
     Message from routine read_upf::
     Pseudo file ./pseudo/Mn.pbe-spn-kjpaw_psl.0.3.1.UPF has been successfully fixed on the fly.
To avoid this message in the future you can permanently fix 
 your pseudo files following instructions given in: 
https://gitlab.com/QEF/q-e/blob/master/upftools/how_to_fix_upf.md
               file Mn.pbe-spn-kjpaw_psl.0.3.1.UPF: wavefunction(s)  3P 3D renormalized
     Message from routine read_upf::
     Pseudo file ./pseudo/Mn.pbe-spn-kjpaw_psl.0.3.1.UPF has been successfully fixed on the fly.
To avoid this message in the future you can permanently fix 
 your pseudo files following instructions given in: 
https://gitlab.com/QEF/q-e/blob/master/upftools/how_to_fix_upf.md
               file Mn.pbe-spn-kjpaw_psl.0.3.1.UPF: wavefunction(s)  3P 3D renormalized
     Message from routine read_upf::
     Pseudo file ./pseudo/Mn.pbe-spn-kjpaw_psl.0.3.1.UPF has been successfully fixed on the fly.
To avoid this message in the future you can permanently fix 
 your pseudo files following instructions given in: 
https://gitlab.com/QEF/q-e/blob/master/upftools/how_to_fix_upf.md
               file Mn.pbe-spn-kjpaw_psl.0.3.1.UPF: wavefunction(s)  3P 3D renormalized
     Message from routine read_upf::
     Pseudo file ./pseudo/Mn.pbe-spn-kjpaw_psl.0.3.1.UPF has been successfully fixed on the fly.
To avoid this message in the future you can permanently fix 
 your pseudo files following instructions given in: 
https://gitlab.com/QEF/q-e/blob/master/upftools/how_to_fix_upf.md
               file Mn.pbe-spn-kjpaw_psl.0.3.1.UPF: wavefunction(s)  3P 3D renormalized
     Message from routine read_upf::
     Pseudo file ./pseudo/Mn.pbe-spn-kjpaw_psl.0.3.1.UPF has been successfully fixed on the fly.
To avoid this message in the future you can permanently fix 
 your pseudo files following instructions given in: 
https://gitlab.com/QEF/q-e/blob/master/upftools/how_to_fix_upf.md
               file Mn.pbe-spn-kjpaw_psl.0.3.1.UPF: wavefunction(s)  3P 3D renormalized
     Message from routine read_upf::
     Pseudo file ./pseudo/Au.pbe-dn-kjpaw_psl.0.1.UPF has been successfully fixed on the fly.
To avoid this message in the future you can permanently fix 
 your pseudo files following instructions given in: 
https://gitlab.com/QEF/q-e/blob/master/upftools/how_to_fix_upf.md
               file Au.pbe-dn-kjpaw_psl.0.1.UPF: wavefunction(s)  6S 6P 5D renormalized

     Subspace diagonalization in iterative solution of the eigenvalue problem:
     one sub-group per band group will be used
     scalapack distributed-memory algorithm (size of sub-group:  2*  2 procs)


     Parallelization info
     --------------------
     sticks:   dense  smooth     PW     G-vecs:    dense   smooth      PW
     Min         183     110     32                11363     5284     838
     Max         184     111     34                11368     5287     843
     Sum        2937    1765    527               181849    84567   13425



     bravais-lattice index     =            0
     lattice parameter (alat)  =      19.2459  a.u.
     unit-cell volume          =    2072.0501 (a.u.)^3
     number of atoms/cell      =           18
     number of atomic types    =            7
     number of electrons       =       222.00
     number of Kohn-Sham states=          133
     kinetic-energy cutoff     =      45.0000  Ry
     charge density cutoff     =     300.0000  Ry
     convergence threshold     =      1.0E-06
     mixing beta               =       0.1000
     number of iterations used =            8  plain     mixing
     Exchange-correlation      = SLA PW PBX PBC ( 1  4  3  4 0 0)

     celldm(1)=  19.245946  celldm(2)=   0.000000  celldm(3)=   0.000000
     celldm(4)=   0.000000  celldm(5)=   0.000000  celldm(6)=   0.000000

     crystal axes: (cart. coord. in units of alat)
               a(1) = (   1.000000   0.000000   0.000000 )  
               a(2) = (   0.000000   0.333333   0.000000 )  
               a(3) = (   0.000000   0.000000   0.871974 )  

     reciprocal axes: (cart. coord. in units 2 pi/alat)
               b(1) = (  1.000000  0.000000  0.000000 )  
               b(2) = (  0.000000  3.000000  0.000000 )  
               b(3) = (  0.000000  0.000000  1.146823 )  


     PseudoPot. # 1 for Mn read from file:
     ./pseudo/Mn.pbe-spn-kjpaw_psl.0.3.1.UPF
     MD5 check sum: 7eef95dd2aae66803482eea66ebeebf1
     Pseudo is Projector augmented-wave + core cor, Zval = 15.0
     Generated using "atomic" code by A. Dal Corso v.5.0.99 svn rev. 10869
     Shape of augmentation charge: PSQ
     Using radial grid of 1187 points,  6 beta functions with: 
                l(1) =   0
                l(2) =   0
                l(3) =   1
                l(4) =   1
                l(5) =   2
                l(6) =   2
     Q(r) pseudized with 0 coefficients 


     PseudoPot. # 2 for Mn read from file:
     ./pseudo/Mn.pbe-spn-kjpaw_psl.0.3.1.UPF
     MD5 check sum: 7eef95dd2aae66803482eea66ebeebf1
     Pseudo is Projector augmented-wave + core cor, Zval = 15.0
     Generated using "atomic" code by A. Dal Corso v.5.0.99 svn rev. 10869
     Shape of augmentation charge: PSQ
     Using radial grid of 1187 points,  6 beta functions with: 
                l(1) =   0
                l(2) =   0
                l(3) =   1
                l(4) =   1
                l(5) =   2
                l(6) =   2
     Q(r) pseudized with 0 coefficients 


     PseudoPot. # 3 for Mn read from file:
     ./pseudo/Mn.pbe-spn-kjpaw_psl.0.3.1.UPF
     MD5 check sum: 7eef95dd2aae66803482eea66ebeebf1
     Pseudo is Projector augmented-wave + core cor, Zval = 15.0
     Generated using "atomic" code by A. Dal Corso v.5.0.99 svn rev. 10869
     Shape of augmentation charge: PSQ
     Using radial grid of 1187 points,  6 beta functions with: 
                l(1) =   0
                l(2) =   0
                l(3) =   1
                l(4) =   1
                l(5) =   2
                l(6) =   2
     Q(r) pseudized with 0 coefficients 


     PseudoPot. # 4 for Mn read from file:
     ./pseudo/Mn.pbe-spn-kjpaw_psl.0.3.1.UPF
     MD5 check sum: 7eef95dd2aae66803482eea66ebeebf1
     Pseudo is Projector augmented-wave + core cor, Zval = 15.0
     Generated using "atomic" code by A. Dal Corso v.5.0.99 svn rev. 10869
     Shape of augmentation charge: PSQ
     Using radial grid of 1187 points,  6 beta functions with: 
                l(1) =   0
                l(2) =   0
                l(3) =   1
                l(4) =   1
                l(5) =   2
                l(6) =   2
     Q(r) pseudized with 0 coefficients 


     PseudoPot. # 5 for Mn read from file:
     ./pseudo/Mn.pbe-spn-kjpaw_psl.0.3.1.UPF
     MD5 check sum: 7eef95dd2aae66803482eea66ebeebf1
     Pseudo is Projector augmented-wave + core cor, Zval = 15.0
     Generated using "atomic" code by A. Dal Corso v.5.0.99 svn rev. 10869
     Shape of augmentation charge: PSQ
     Using radial grid of 1187 points,  6 beta functions with: 
                l(1) =   0
                l(2) =   0
                l(3) =   1
                l(4) =   1
                l(5) =   2
                l(6) =   2
     Q(r) pseudized with 0 coefficients 


     PseudoPot. # 6 for Mn read from file:
     ./pseudo/Mn.pbe-spn-kjpaw_psl.0.3.1.UPF
     MD5 check sum: 7eef95dd2aae66803482eea66ebeebf1
     Pseudo is Projector augmented-wave + core cor, Zval = 15.0
     Generated using "atomic" code by A. Dal Corso v.5.0.99 svn rev. 10869
     Shape of augmentation charge: PSQ
     Using radial grid of 1187 points,  6 beta functions with: 
                l(1) =   0
                l(2) =   0
                l(3) =   1
                l(4) =   1
                l(5) =   2
                l(6) =   2
     Q(r) pseudized with 0 coefficients 


     PseudoPot. # 7 for Au read from file:
     ./pseudo/Au.pbe-dn-kjpaw_psl.0.1.UPF
     MD5 check sum: 5c9b92683623e7ae2ab3f8e525febab6
     Pseudo is Projector augmented-wave + core cor, Zval = 11.0
     Generated using "atomic" code by A. Dal Corso v.5.0.2 svn rev. 9415
     Shape of augmentation charge: PSQ
     Using radial grid of 1279 points,  6 beta functions with: 
                l(1) =   0
                l(2) =   0
                l(3) =   1
                l(4) =   1
                l(5) =   2
                l(6) =   2
     Q(r) pseudized with 0 coefficients 


     atomic species   valence    mass     pseudopotential
        Mn1           15.00    54.93800     Mn( 1.00)
        Mn2           15.00    54.93800     Mn( 1.00)
        Mn3           15.00    54.93800     Mn( 1.00)
        Mn4           15.00    54.93800     Mn( 1.00)
        Mn5           15.00    54.93800     Mn( 1.00)
        Mn6           15.00    54.93800     Mn( 1.00)
        Au            11.00   196.96600     Au( 1.00)

     Starting magnetic structure 
     atomic species   magnetization
        Mn1          0.800
        Mn2         -0.800
        Mn3          0.800
        Mn4         -0.800
        Mn5          0.800
        Mn6         -0.800
        Au           0.000

      4 Sym. Ops. (no inversion) found



   Cartesian axes

     site n.     atom                  positions (alat units)
         1           Mn1 tau(   1) = (   0.0000000   0.0000000   0.0000000  )
         2           Mn2 tau(   2) = (   0.3333330   0.0000000   0.0000000  )
         3           Mn3 tau(   3) = (   0.6666670   0.0000000   0.0000000  )
         4           Mn4 tau(   4) = (   0.1666670   0.1666667   0.4359871  )
         5           Mn5 tau(   5) = (   0.5000000   0.1666667   0.4359871  )
         6           Mn6 tau(   6) = (   0.8333330   0.1666667   0.4359871  )
         7           Au  tau(   7) = (   0.1666670   0.1666667   0.7327366  )
         8           Au  tau(   8) = (   0.5000000   0.1666667   0.7327366  )
         9           Au  tau(   9) = (   0.8333330   0.1666667   0.7327366  )
        10           Au  tau(  10) = (   0.1666670   0.1666667   0.1392377  )
        11           Au  tau(  11) = (   0.5000000   0.1666667   0.1392377  )
        12           Au  tau(  12) = (   0.8333330   0.1666667   0.1392377  )
        13           Au  tau(  13) = (   0.0000000   0.0000000   0.2967494  )
        14           Au  tau(  14) = (   0.3333330   0.0000000   0.2967494  )
        15           Au  tau(  15) = (   0.6666670   0.0000000   0.2967494  )
        16           Au  tau(  16) = (   0.0000000   0.0000000   0.5752249  )
        17           Au  tau(  17) = (   0.3333330   0.0000000   0.5752249  )
        18           Au  tau(  18) = (   0.6666670   0.0000000   0.5752249  )

     number of k points=    64 (tetrahedron method)
                       cart. coord. in units 2pi/alat
        k(    1) = (   0.0000000   0.0000000   0.0000000), wk =   0.0046296
        k(    2) = (   0.0000000   0.0000000   0.1911371), wk =   0.0092593
        k(    3) = (   0.0000000   0.0000000   0.3822743), wk =   0.0092593
        k(    4) = (   0.0000000   0.0000000  -0.5734114), wk =   0.0046296
        k(    5) = (   0.0000000   0.5000000   0.0000000), wk =   0.0092593
        k(    6) = (   0.0000000   0.5000000   0.1911371), wk =   0.0185185
        k(    7) = (   0.0000000   0.5000000   0.3822743), wk =   0.0185185
        k(    8) = (   0.0000000   0.5000000  -0.5734114), wk =   0.0092593
        k(    9) = (   0.0000000   0.9999999   0.0000000), wk =   0.0092593
        k(   10) = (   0.0000000   0.9999999   0.1911371), wk =   0.0185185
        k(   11) = (   0.0000000   0.9999999   0.3822743), wk =   0.0185185
        k(   12) = (   0.0000000   0.9999999  -0.5734114), wk =   0.0092593
        k(   13) = (   0.0000000  -1.4999999   0.0000000), wk =   0.0046296
        k(   14) = (   0.0000000  -1.4999999   0.1911371), wk =   0.0092593
        k(   15) = (   0.0000000  -1.4999999   0.3822743), wk =   0.0092593
        k(   16) = (   0.0000000  -1.4999999  -0.5734114), wk =   0.0046296
        k(   17) = (   0.1666667   0.0000000   0.0000000), wk =   0.0092593
        k(   18) = (   0.1666667   0.0000000   0.1911371), wk =   0.0185185
        k(   19) = (   0.1666667   0.0000000   0.3822743), wk =   0.0185185
        k(   20) = (   0.1666667   0.0000000  -0.5734114), wk =   0.0092593
        k(   21) = (   0.1666667   0.5000000   0.0000000), wk =   0.0185185
        k(   22) = (   0.1666667   0.5000000   0.1911371), wk =   0.0370370
        k(   23) = (   0.1666667   0.5000000   0.3822743), wk =   0.0370370
        k(   24) = (   0.1666667   0.5000000  -0.5734114), wk =   0.0185185
        k(   25) = (   0.1666667   0.9999999   0.0000000), wk =   0.0185185
        k(   26) = (   0.1666667   0.9999999   0.1911371), wk =   0.0370370
        k(   27) = (   0.1666667   0.9999999   0.3822743), wk =   0.0370370
        k(   28) = (   0.1666667   0.9999999  -0.5734114), wk =   0.0185185
        k(   29) = (   0.1666667  -1.4999999   0.0000000), wk =   0.0092593
        k(   30) = (   0.1666667  -1.4999999   0.1911371), wk =   0.0185185
        k(   31) = (   0.1666667  -1.4999999   0.3822743), wk =   0.0185185
        k(   32) = (   0.1666667  -1.4999999  -0.5734114), wk =   0.0092593
        k(   33) = (   0.3333333   0.0000000   0.0000000), wk =   0.0092593
        k(   34) = (   0.3333333   0.0000000   0.1911371), wk =   0.0185185
        k(   35) = (   0.3333333   0.0000000   0.3822743), wk =   0.0185185
        k(   36) = (   0.3333333   0.0000000  -0.5734114), wk =   0.0092593
        k(   37) = (   0.3333333   0.5000000   0.0000000), wk =   0.0185185
        k(   38) = (   0.3333333   0.5000000   0.1911371), wk =   0.0370370
        k(   39) = (   0.3333333   0.5000000   0.3822743), wk =   0.0370370
        k(   40) = (   0.3333333   0.5000000  -0.5734114), wk =   0.0185185
        k(   41) = (   0.3333333   0.9999999   0.0000000), wk =   0.0185185
        k(   42) = (   0.3333333   0.9999999   0.1911371), wk =   0.0370370
        k(   43) = (   0.3333333   0.9999999   0.3822743), wk =   0.0370370
        k(   44) = (   0.3333333   0.9999999  -0.5734114), wk =   0.0185185
        k(   45) = (   0.3333333  -1.4999999   0.0000000), wk =   0.0092593
        k(   46) = (   0.3333333  -1.4999999   0.1911371), wk =   0.0185185
        k(   47) = (   0.3333333  -1.4999999   0.3822743), wk =   0.0185185
        k(   48) = (   0.3333333  -1.4999999  -0.5734114), wk =   0.0092593
        k(   49) = (  -0.5000000   0.0000000   0.0000000), wk =   0.0046296
        k(   50) = (  -0.5000000   0.0000000   0.1911371), wk =   0.0092593
        k(   51) = (  -0.5000000   0.0000000   0.3822743), wk =   0.0092593
        k(   52) = (  -0.5000000   0.0000000  -0.5734114), wk =   0.0046296
        k(   53) = (  -0.5000000   0.5000000   0.0000000), wk =   0.0092593
        k(   54) = (  -0.5000000   0.5000000   0.1911371), wk =   0.0185185
        k(   55) = (  -0.5000000   0.5000000   0.3822743), wk =   0.0185185
        k(   56) = (  -0.5000000   0.5000000  -0.5734114), wk =   0.0092593
        k(   57) = (  -0.5000000   0.9999999   0.0000000), wk =   0.0092593
        k(   58) = (  -0.5000000   0.9999999   0.1911371), wk =   0.0185185
        k(   59) = (  -0.5000000   0.9999999   0.3822743), wk =   0.0185185
        k(   60) = (  -0.5000000   0.9999999  -0.5734114), wk =   0.0092593
        k(   61) = (  -0.5000000  -1.4999999   0.0000000), wk =   0.0046296
        k(   62) = (  -0.5000000  -1.4999999   0.1911371), wk =   0.0092593
        k(   63) = (  -0.5000000  -1.4999999   0.3822743), wk =   0.0092593
        k(   64) = (  -0.5000000  -1.4999999  -0.5734114), wk =   0.0046296

     Dense  grid:   181849 G-vectors     FFT dimensions: ( 108,  36,  96)

     Smooth grid:    84567 G-vectors     FFT dimensions: (  90,  27,  72)

     Estimated max dynamical RAM per process >     253.06 MB

     Estimated total dynamical RAM >       3.95 GB
     Generating pointlists ...
     new r_m :   0.1129 (alat units)  2.1733 (a.u.) for type    1
     new r_m :   0.1129 (alat units)  2.1733 (a.u.) for type    2
     new r_m :   0.1129 (alat units)  2.1733 (a.u.) for type    3
     new r_m :   0.1129 (alat units)  2.1733 (a.u.) for type    4
     new r_m :   0.1129 (alat units)  2.1733 (a.u.) for type    5
     new r_m :   0.1129 (alat units)  2.1733 (a.u.) for type    6
     new r_m :   0.1129 (alat units)  2.1733 (a.u.) for type    7

     Check: negative/imaginary core charge=   -0.000007    0.000000

     Initial potential from superposition of free atoms

     starting charge  221.99570, renormalised to  222.00000
     Starting wfcs are  168 randomized atomic wfcs
     Checking if some PAW data can be deallocated... 

     total cpu time spent up to now is       28.8 secs

     Self-consistent Calculation

     iteration #  1     ecut=    45.00 Ry     beta= 0.10
     Davidson diagonalization with overlap
     ethr =  1.00E-02,  avg # of iterations =  3.3

     total cpu time spent up to now is       96.8 secs

     total energy              =  -11015.70464810 Ry
     Harris-Foulkes estimate   =  -11014.65487742 Ry
     estimated scf accuracy    <       9.01434298 Ry

     total magnetization       =     0.00 Bohr mag/cell
     absolute magnetization    =    30.73 Bohr mag/cell

     iteration #  2     ecut=    45.00 Ry     beta= 0.10
     Davidson diagonalization with overlap
     ethr =  4.06E-03,  avg # of iterations =  1.0

     total cpu time spent up to now is      137.4 secs

     total energy              =  -11019.50317213 Ry
     Harris-Foulkes estimate   =  -11015.76415403 Ry
     estimated scf accuracy    <       7.13097513 Ry

     total magnetization       =    -0.00 Bohr mag/cell
     absolute magnetization    =    30.58 Bohr mag/cell

     iteration #  3     ecut=    45.00 Ry     beta= 0.10
     Davidson diagonalization with overlap
     ethr =  3.21E-03,  avg # of iterations =  2.1

     total cpu time spent up to now is      189.4 secs

     total energy              =  -11021.92363641 Ry
     Harris-Foulkes estimate   =  -11020.45064644 Ry
     estimated scf accuracy    <       2.96305219 Ry

     total magnetization       =    -0.00 Bohr mag/cell
     absolute magnetization    =    28.43 Bohr mag/cell

     iteration #  4     ecut=    45.00 Ry     beta= 0.10
     Davidson diagonalization with overlap
     ethr =  1.33E-03,  avg # of iterations =  3.8

     total cpu time spent up to now is      267.5 secs

     total energy              =  -11019.99895317 Ry
     Harris-Foulkes estimate   =  -11022.66191503 Ry
     estimated scf accuracy    <      15.37304125 Ry

     total magnetization       =    -0.04 Bohr mag/cell
     absolute magnetization    =    24.44 Bohr mag/cell

     iteration #  5     ecut=    45.00 Ry     beta= 0.10
     Davidson diagonalization with overlap
     ethr =  1.33E-03,  avg # of iterations =  4.5

     total cpu time spent up to now is      357.1 secs

     total energy              =  -11020.52913431 Ry
     Harris-Foulkes estimate   =  -11020.92076359 Ry
     estimated scf accuracy    <       1.62896530 Ry

     total magnetization       =     0.00 Bohr mag/cell
     absolute magnetization    =    27.62 Bohr mag/cell

     iteration #  6     ecut=    45.00 Ry     beta= 0.10
     Davidson diagonalization with overlap
     ethr =  7.34E-04,  avg # of iterations =  3.7

     total cpu time spent up to now is      430.9 secs

     total energy              =  -11020.83235329 Ry
     Harris-Foulkes estimate   =  -11020.85939354 Ry
     estimated scf accuracy    <       0.28507891 Ry

     total magnetization       =     0.03 Bohr mag/cell
     absolute magnetization    =    26.41 Bohr mag/cell

     iteration #  7     ecut=    45.00 Ry     beta= 0.10
     Davidson diagonalization with overlap
     ethr =  1.28E-04,  avg # of iterations =  1.7

     total cpu time spent up to now is      476.4 secs

     total energy              =  -11020.86056328 Ry
     Harris-Foulkes estimate   =  -11020.85282144 Ry
     estimated scf accuracy    <       0.04506549 Ry

     total magnetization       =     0.00 Bohr mag/cell
     absolute magnetization    =    26.47 Bohr mag/cell

     iteration #  8     ecut=    45.00 Ry     beta= 0.10
     Davidson diagonalization with overlap
     ethr =  2.03E-05,  avg # of iterations =  3.6

     total cpu time spent up to now is      544.6 secs

     total energy              =  -11020.86191134 Ry
     Harris-Foulkes estimate   =  -11020.86980861 Ry
     estimated scf accuracy    <       0.11011896 Ry

     total magnetization       =     0.00 Bohr mag/cell
     absolute magnetization    =    25.98 Bohr mag/cell

     iteration #  9     ecut=    45.00 Ry     beta= 0.10
     Davidson diagonalization with overlap
     ethr =  2.03E-05,  avg # of iterations =  1.1

     total cpu time spent up to now is      585.1 secs

     total energy              =  -11020.85055057 Ry
     Harris-Foulkes estimate   =  -11020.86499640 Ry
     estimated scf accuracy    <       0.06764067 Ry

     total magnetization       =     0.02 Bohr mag/cell
     absolute magnetization    =    25.99 Bohr mag/cell

     iteration # 10     ecut=    45.00 Ry     beta= 0.10
     Davidson diagonalization with overlap
     ethr =  2.03E-05,  avg # of iterations =  2.4

     total cpu time spent up to now is      639.3 secs

     total energy              =  -11020.85701759 Ry
     Harris-Foulkes estimate   =  -11020.85784653 Ry
     estimated scf accuracy    <       0.00287862 Ry

     total magnetization       =     0.00 Bohr mag/cell
     absolute magnetization    =    26.05 Bohr mag/cell

     iteration # 11     ecut=    45.00 Ry     beta= 0.10
     Davidson diagonalization with overlap
     ethr =  1.30E-06,  avg # of iterations =  4.2

     total cpu time spent up to now is      724.6 secs

     total energy              =  -11020.85808586 Ry
     Harris-Foulkes estimate   =  -11020.85835038 Ry
     estimated scf accuracy    <       0.00313893 Ry

     total magnetization       =     0.00 Bohr mag/cell
     absolute magnetization    =    26.31 Bohr mag/cell

     iteration # 12     ecut=    45.00 Ry     beta= 0.10
     Davidson diagonalization with overlap
     ethr =  1.30E-06,  avg # of iterations =  2.9

     total cpu time spent up to now is      784.0 secs

     total energy              =  -11020.85910335 Ry
     Harris-Foulkes estimate   =  -11020.85873607 Ry
     estimated scf accuracy    <       0.00470671 Ry

     total magnetization       =     0.00 Bohr mag/cell
     absolute magnetization    =    26.26 Bohr mag/cell

     iteration # 13     ecut=    45.00 Ry     beta= 0.10
     Davidson diagonalization with overlap
     ethr =  1.30E-06,  avg # of iterations =  2.0

     total cpu time spent up to now is      832.5 secs

     total energy              =  -11020.85963452 Ry
     Harris-Foulkes estimate   =  -11020.85933886 Ry
     estimated scf accuracy    <       0.00083254 Ry

     total magnetization       =     0.00 Bohr mag/cell
     absolute magnetization    =    26.21 Bohr mag/cell

     iteration # 14     ecut=    45.00 Ry     beta= 0.10
     Davidson diagonalization with overlap
     ethr =  3.75E-07,  avg # of iterations =  2.2

     total cpu time spent up to now is      885.1 secs

     total energy              =  -11020.85973590 Ry
     Harris-Foulkes estimate   =  -11020.85972102 Ry
     estimated scf accuracy    <       0.00010820 Ry

     total magnetization       =    -0.00 Bohr mag/cell
     absolute magnetization    =    26.15 Bohr mag/cell

     iteration # 15     ecut=    45.00 Ry     beta= 0.10
     Davidson diagonalization with overlap
     ethr =  4.87E-08,  avg # of iterations =  2.4

     total cpu time spent up to now is      937.2 secs

     total energy              =  -11020.85980233 Ry
     Harris-Foulkes estimate   =  -11020.85974048 Ry
     estimated scf accuracy    <       0.00006559 Ry

     total magnetization       =    -0.00 Bohr mag/cell
     absolute magnetization    =    26.15 Bohr mag/cell

     iteration # 16     ecut=    45.00 Ry     beta= 0.10
     Davidson diagonalization with overlap
     ethr =  2.95E-08,  avg # of iterations =  2.6

     total cpu time spent up to now is      995.6 secs

     total energy              =  -11020.85985284 Ry
     Harris-Foulkes estimate   =  -11020.85981440 Ry
     estimated scf accuracy    <       0.00003149 Ry

     total magnetization       =     0.00 Bohr mag/cell
     absolute magnetization    =    26.14 Bohr mag/cell

     iteration # 17     ecut=    45.00 Ry     beta= 0.10
     Davidson diagonalization with overlap
     ethr =  1.42E-08,  avg # of iterations =  2.1

     total cpu time spent up to now is     1047.8 secs

     total energy              =  -11020.85986696 Ry
     Harris-Foulkes estimate   =  -11020.85985353 Ry
     estimated scf accuracy    <       0.00000724 Ry

     total magnetization       =    -0.00 Bohr mag/cell
     absolute magnetization    =    26.13 Bohr mag/cell

     iteration # 18     ecut=    45.00 Ry     beta= 0.10
     Davidson diagonalization with overlap
     ethr =  3.26E-09,  avg # of iterations =  2.8

     total cpu time spent up to now is     1108.1 secs

     total energy              =  -11020.85987076 Ry
     Harris-Foulkes estimate   =  -11020.85986708 Ry
     estimated scf accuracy    <       0.00000424 Ry

     total magnetization       =    -0.00 Bohr mag/cell
     absolute magnetization    =    26.12 Bohr mag/cell

     iteration # 19     ecut=    45.00 Ry     beta= 0.10
     Davidson diagonalization with overlap
     ethr =  1.91E-09,  avg # of iterations =  1.1

     total cpu time spent up to now is     1148.6 secs

     total energy              =  -11020.85987336 Ry
     Harris-Foulkes estimate   =  -11020.85987061 Ry
     estimated scf accuracy    <       0.00000284 Ry

     total magnetization       =    -0.00 Bohr mag/cell
     absolute magnetization    =    26.12 Bohr mag/cell

     iteration # 20     ecut=    45.00 Ry     beta= 0.10
     Davidson diagonalization with overlap
     ethr =  1.28E-09,  avg # of iterations =  2.1

     total cpu time spent up to now is     1198.1 secs

     total energy              =  -11020.85987550 Ry
     Harris-Foulkes estimate   =  -11020.85987302 Ry
     estimated scf accuracy    <       0.00000166 Ry

     total magnetization       =    -0.00 Bohr mag/cell
     absolute magnetization    =    26.12 Bohr mag/cell

     iteration # 21     ecut=    45.00 Ry     beta= 0.10
     Davidson diagonalization with overlap
     ethr =  7.47E-10,  avg # of iterations =  2.9

     Magnetic moment per site:
     atom:    1    charge:   13.5716    magn:    4.0504    constr:    0.0000
     atom:    2    charge:   13.5786    magn:   -3.9779    constr:    0.0000
     atom:    3    charge:   13.5853    magn:    3.9278    constr:    0.0000
     atom:    4    charge:   13.5853    magn:   -3.9278    constr:    0.0000
     atom:    5    charge:   13.5786    magn:    3.9779    constr:    0.0000
     atom:    6    charge:   13.5715    magn:   -4.0505    constr:    0.0000
     atom:    7    charge:    9.1215    magn:    0.0016    constr:    0.0000
     atom:    8    charge:    9.1207    magn:    0.0068    constr:    0.0000
     atom:    9    charge:    9.1209    magn:    0.0457    constr:    0.0000
     atom:   10    charge:    9.1215    magn:    0.0016    constr:    0.0000
     atom:   11    charge:    9.1207    magn:    0.0068    constr:    0.0000
     atom:   12    charge:    9.1209    magn:    0.0457    constr:    0.0000
     atom:   13    charge:    9.1209    magn:   -0.0457    constr:    0.0000
     atom:   14    charge:    9.1207    magn:   -0.0068    constr:    0.0000
     atom:   15    charge:    9.1215    magn:   -0.0016    constr:    0.0000
     atom:   16    charge:    9.1209    magn:   -0.0457    constr:    0.0000
     atom:   17    charge:    9.1207    magn:   -0.0068    constr:    0.0000
     atom:   18    charge:    9.1215    magn:   -0.0016    constr:    0.0000

     total cpu time spent up to now is     1272.1 secs

     End of self-consistent calculation

     Number of k-points >= 100: set verbosity='high' to print the bands.

     the Fermi energy is    14.8413 ev

!    total energy              =  -11020.85988031 Ry
     Harris-Foulkes estimate   =  -11020.85987522 Ry
     estimated scf accuracy    <       0.00000042 Ry

     total all-electron energy =   -470191.556672 Ry

     The total energy is the sum of the following terms:

     one-electron contribution =    -548.56254220 Ry
     hartree contribution      =     496.60984302 Ry
     xc contribution           =    -552.88556726 Ry
     ewald contribution        =   -1639.75247190 Ry
     one-center paw contrib.   =   -8776.26914197 Ry

     total magnetization       =    -0.00 Bohr mag/cell
     absolute magnetization    =    26.12 Bohr mag/cell

     convergence has been achieved in  21 iterations

     Writing output data file mnau2.save/

     init_run     :     22.29s CPU     22.68s WALL (       1 calls)
     electrons    :   1231.75s CPU   1243.56s WALL (       1 calls)

     Called by init_run:
     wfcinit      :     16.76s CPU     17.08s WALL (       1 calls)
     potinit      :      2.22s CPU      2.24s WALL (       1 calls)
     hinit0       :      2.87s CPU      2.90s WALL (       1 calls)

     Called by electrons:
     c_bands      :   1080.80s CPU   1090.11s WALL (      21 calls)
     sum_band     :    117.91s CPU    120.15s WALL (      21 calls)
     v_of_rho     :      1.32s CPU      1.33s WALL (      22 calls)
     newd         :      6.90s CPU      6.92s WALL (      22 calls)
     PAW_pot      :     26.05s CPU     26.07s WALL (      22 calls)
     mix_rho      :      0.22s CPU      0.22s WALL (      21 calls)

     Called by c_bands:
     init_us_2    :     10.95s CPU     10.98s WALL (    5504 calls)
     cegterg      :   1046.97s CPU   1055.94s WALL (    2688 calls)

     Called by sum_band:
     sum_band:bec :      1.51s CPU      1.52s WALL (    2688 calls)
     addusdens    :     12.62s CPU     12.66s WALL (      21 calls)

     Called by *egterg:
     h_psi        :    377.56s CPU    386.19s WALL (    9792 calls)
     s_psi        :     52.38s CPU     52.44s WALL (    9792 calls)
     g_psi        :      2.61s CPU      2.62s WALL (    6976 calls)
     cdiaghg      :    485.44s CPU    485.72s WALL (    9664 calls)

     Called by h_psi:
     h_psi:pot    :    373.65s CPU    382.25s WALL (    9792 calls)
     h_psi:calbec :     58.94s CPU     59.17s WALL (    9792 calls)
     vloc_psi     :    262.67s CPU    270.94s WALL (    9792 calls)
     add_vuspsi   :     51.97s CPU     52.09s WALL (    9792 calls)

     General routines
     calbec       :     83.41s CPU     83.74s WALL (   12480 calls)
     fft          :      0.43s CPU      0.46s WALL (     546 calls)
     ffts         :      0.04s CPU      0.04s WALL (      86 calls)
     fftw         :    295.64s CPU    305.00s WALL ( 1988426 calls)
     interpolate  :      0.06s CPU      0.06s WALL (      44 calls)

     Parallel routines
     fft_scatt_xy :     46.80s CPU     48.37s WALL ( 1989058 calls)
     fft_scatt_yz :     96.85s CPU    100.36s WALL ( 1989058 calls)

     PWSCF        : 21m 3.13s CPU    21m38.96s WALL


   This run was terminated on:  17:11: 3  18Feb2019            

=------------------------------------------------------------------------------=
   JOB DONE.
=------------------------------------------------------------------------------=
