
     Program PWSCF v.6.3 starts on 14Feb2019 at 15:31:55 

     This program is part of the open-source Quantum ESPRESSO suite
     for quantum simulation of materials; please cite
         "P. Giannozzi et al., J. Phys.:Condens. Matter 21 395502 (2009);
         "P. Giannozzi et al., J. Phys.:Condens. Matter 29 465901 (2017);
          URL http://www.quantum-espresso.org", 
     in publications or presentations arising from this work. More details at
     http://www.quantum-espresso.org/quote

     Parallel version (MPI), running on    16 processors

     MPI processes distributed on     1 nodes
     R & G space division:  proc/nbgrp/npool/nimage =      16
     Waiting for input...
     Reading input from standard input

     Current dimensions of program PWSCF are:
     Max number of different atomic species (ntypx) = 10
     Max number of k-points (npk) =  40000
     Max angular momentum in pseudopotentials (lmaxx) =  3
     Message from routine read_upf::
     Pseudo file ./pseudo/Mn.pbe-spn-kjpaw_psl.0.3.1.UPF has been successfully fixed on the fly.
To avoid this message in the future you can permanently fix 
 your pseudo files following instructions given in: 
https://gitlab.com/QEF/q-e/blob/master/upftools/how_to_fix_upf.md
               file Mn.pbe-spn-kjpaw_psl.0.3.1.UPF: wavefunction(s)  3P 3D renormalized
     Message from routine read_upf::
     Pseudo file ./pseudo/Mn.pbe-spn-kjpaw_psl.0.3.1.UPF has been successfully fixed on the fly.
To avoid this message in the future you can permanently fix 
 your pseudo files following instructions given in: 
https://gitlab.com/QEF/q-e/blob/master/upftools/how_to_fix_upf.md
               file Mn.pbe-spn-kjpaw_psl.0.3.1.UPF: wavefunction(s)  3P 3D renormalized
     Message from routine read_upf::
     Pseudo file ./pseudo/Au.pbe-dn-kjpaw_psl.0.1.UPF has been successfully fixed on the fly.
To avoid this message in the future you can permanently fix 
 your pseudo files following instructions given in: 
https://gitlab.com/QEF/q-e/blob/master/upftools/how_to_fix_upf.md
               file Au.pbe-dn-kjpaw_psl.0.1.UPF: wavefunction(s)  6S 6P 5D renormalized

     Subspace diagonalization in iterative solution of the eigenvalue problem:
     one sub-group per band group will be used
     scalapack distributed-memory algorithm (size of sub-group:  2*  2 procs)


     Parallelization info
     --------------------
     sticks:   dense  smooth     PW     G-vecs:    dense   smooth      PW
     Min          82      37     11                 5828     1761     297
     Max          83      38     12                 5836     1770     308
     Sum        1313     593    177                93331    28191    4775



     bravais-lattice index     =            0
     lattice parameter (alat)  =       6.4153  a.u.
     unit-cell volume          =     690.6834 (a.u.)^3
     number of atoms/cell      =            6
     number of atomic types    =            3
     number of electrons       =        74.00
     number of Kohn-Sham states=           44
     kinetic-energy cutoff     =      45.0000  Ry
     charge density cutoff     =     400.0000  Ry
     convergence threshold     =      1.0E-06
     mixing beta               =       0.1000
     number of iterations used =            8  plain     mixing
     Exchange-correlation      = SLA PW PBX PBC ( 1  4  3  4 0 0)

     celldm(1)=   6.415316  celldm(2)=   0.000000  celldm(3)=   0.000000
     celldm(4)=   0.000000  celldm(5)=   0.000000  celldm(6)=   0.000000

     crystal axes: (cart. coord. in units of alat)
               a(1) = (   1.000000   0.000000   0.000000 )  
               a(2) = (   0.000000   1.000000   0.000000 )  
               a(3) = (   0.000000   0.000000   2.615923 )  

     reciprocal axes: (cart. coord. in units 2 pi/alat)
               b(1) = (  1.000000  0.000000  0.000000 )  
               b(2) = (  0.000000  1.000000  0.000000 )  
               b(3) = (  0.000000  0.000000  0.382274 )  


     PseudoPot. # 1 for Mn read from file:
     ./pseudo/Mn.pbe-spn-kjpaw_psl.0.3.1.UPF
     MD5 check sum: 7eef95dd2aae66803482eea66ebeebf1
     Pseudo is Projector augmented-wave + core cor, Zval = 15.0
     Generated using "atomic" code by A. Dal Corso v.5.0.99 svn rev. 10869
     Shape of augmentation charge: PSQ
     Using radial grid of 1187 points,  6 beta functions with: 
                l(1) =   0
                l(2) =   0
                l(3) =   1
                l(4) =   1
                l(5) =   2
                l(6) =   2
     Q(r) pseudized with 0 coefficients 


     PseudoPot. # 2 for Mn read from file:
     ./pseudo/Mn.pbe-spn-kjpaw_psl.0.3.1.UPF
     MD5 check sum: 7eef95dd2aae66803482eea66ebeebf1
     Pseudo is Projector augmented-wave + core cor, Zval = 15.0
     Generated using "atomic" code by A. Dal Corso v.5.0.99 svn rev. 10869
     Shape of augmentation charge: PSQ
     Using radial grid of 1187 points,  6 beta functions with: 
                l(1) =   0
                l(2) =   0
                l(3) =   1
                l(4) =   1
                l(5) =   2
                l(6) =   2
     Q(r) pseudized with 0 coefficients 


     PseudoPot. # 3 for Au read from file:
     ./pseudo/Au.pbe-dn-kjpaw_psl.0.1.UPF
     MD5 check sum: 5c9b92683623e7ae2ab3f8e525febab6
     Pseudo is Projector augmented-wave + core cor, Zval = 11.0
     Generated using "atomic" code by A. Dal Corso v.5.0.2 svn rev. 9415
     Shape of augmentation charge: PSQ
     Using radial grid of 1279 points,  6 beta functions with: 
                l(1) =   0
                l(2) =   0
                l(3) =   1
                l(4) =   1
                l(5) =   2
                l(6) =   2
     Q(r) pseudized with 0 coefficients 


     atomic species   valence    mass     pseudopotential
        Mn1           15.00    54.93800     Mn( 1.00)
        Mn2           15.00    54.93800     Mn( 1.00)
        Au            11.00   196.96600     Au( 1.00)

     Starting magnetic structure 
     atomic species   magnetization
        Mn1          0.000
        Mn2          0.000
        Au           0.000

     16 Sym. Ops., with inversion, found



   Cartesian axes

     site n.     atom                  positions (alat units)
         1           Mn1 tau(   1) = (   0.0000000   0.0000000   0.0000000  )
         2           Mn2 tau(   2) = (   0.5000000   0.5000000   1.3079613  )
         3           Au  tau(   3) = (   0.5000000   0.5000000   2.1982094  )
         4           Au  tau(   4) = (   0.5000000   0.5000000   0.4177131  )
         5           Au  tau(   5) = (   0.0000000   0.0000000   0.8902482  )
         6           Au  tau(   6) = (   0.0000000   0.0000000   1.7256744  )

     number of k points=    75 (tetrahedron method)
                       cart. coord. in units 2pi/alat
        k(    1) = (   0.0000000   0.0000000   0.0000000), wk =   0.0019531
        k(    2) = (   0.0000000   0.0000000   0.0477843), wk =   0.0039062
        k(    3) = (   0.0000000   0.0000000   0.0955686), wk =   0.0039062
        k(    4) = (   0.0000000   0.0000000   0.1433529), wk =   0.0039062
        k(    5) = (   0.0000000   0.0000000  -0.1911372), wk =   0.0019531
        k(    6) = (   0.0000000   0.1250000   0.0000000), wk =   0.0078125
        k(    7) = (   0.0000000   0.1250000   0.0477843), wk =   0.0156250
        k(    8) = (   0.0000000   0.1250000   0.0955686), wk =   0.0156250
        k(    9) = (   0.0000000   0.1250000   0.1433529), wk =   0.0156250
        k(   10) = (   0.0000000   0.1250000  -0.1911372), wk =   0.0078125
        k(   11) = (   0.0000000   0.2500000   0.0000000), wk =   0.0078125
        k(   12) = (   0.0000000   0.2500000   0.0477843), wk =   0.0156250
        k(   13) = (   0.0000000   0.2500000   0.0955686), wk =   0.0156250
        k(   14) = (   0.0000000   0.2500000   0.1433529), wk =   0.0156250
        k(   15) = (   0.0000000   0.2500000  -0.1911372), wk =   0.0078125
        k(   16) = (   0.0000000   0.3750000   0.0000000), wk =   0.0078125
        k(   17) = (   0.0000000   0.3750000   0.0477843), wk =   0.0156250
        k(   18) = (   0.0000000   0.3750000   0.0955686), wk =   0.0156250
        k(   19) = (   0.0000000   0.3750000   0.1433529), wk =   0.0156250
        k(   20) = (   0.0000000   0.3750000  -0.1911372), wk =   0.0078125
        k(   21) = (   0.0000000  -0.5000000   0.0000000), wk =   0.0039062
        k(   22) = (   0.0000000  -0.5000000   0.0477843), wk =   0.0078125
        k(   23) = (   0.0000000  -0.5000000   0.0955686), wk =   0.0078125
        k(   24) = (   0.0000000  -0.5000000   0.1433529), wk =   0.0078125
        k(   25) = (   0.0000000  -0.5000000  -0.1911372), wk =   0.0039062
        k(   26) = (   0.1250000   0.1250000   0.0000000), wk =   0.0078125
        k(   27) = (   0.1250000   0.1250000   0.0477843), wk =   0.0156250
        k(   28) = (   0.1250000   0.1250000   0.0955686), wk =   0.0156250
        k(   29) = (   0.1250000   0.1250000   0.1433529), wk =   0.0156250
        k(   30) = (   0.1250000   0.1250000  -0.1911372), wk =   0.0078125
        k(   31) = (   0.1250000   0.2500000   0.0000000), wk =   0.0156250
        k(   32) = (   0.1250000   0.2500000   0.0477843), wk =   0.0312500
        k(   33) = (   0.1250000   0.2500000   0.0955686), wk =   0.0312500
        k(   34) = (   0.1250000   0.2500000   0.1433529), wk =   0.0312500
        k(   35) = (   0.1250000   0.2500000  -0.1911372), wk =   0.0156250
        k(   36) = (   0.1250000   0.3750000   0.0000000), wk =   0.0156250
        k(   37) = (   0.1250000   0.3750000   0.0477843), wk =   0.0312500
        k(   38) = (   0.1250000   0.3750000   0.0955686), wk =   0.0312500
        k(   39) = (   0.1250000   0.3750000   0.1433529), wk =   0.0312500
        k(   40) = (   0.1250000   0.3750000  -0.1911372), wk =   0.0156250
        k(   41) = (   0.1250000  -0.5000000   0.0000000), wk =   0.0078125
        k(   42) = (   0.1250000  -0.5000000   0.0477843), wk =   0.0156250
        k(   43) = (   0.1250000  -0.5000000   0.0955686), wk =   0.0156250
        k(   44) = (   0.1250000  -0.5000000   0.1433529), wk =   0.0156250
        k(   45) = (   0.1250000  -0.5000000  -0.1911372), wk =   0.0078125
        k(   46) = (   0.2500000   0.2500000   0.0000000), wk =   0.0078125
        k(   47) = (   0.2500000   0.2500000   0.0477843), wk =   0.0156250
        k(   48) = (   0.2500000   0.2500000   0.0955686), wk =   0.0156250
        k(   49) = (   0.2500000   0.2500000   0.1433529), wk =   0.0156250
        k(   50) = (   0.2500000   0.2500000  -0.1911372), wk =   0.0078125
        k(   51) = (   0.2500000   0.3750000   0.0000000), wk =   0.0156250
        k(   52) = (   0.2500000   0.3750000   0.0477843), wk =   0.0312500
        k(   53) = (   0.2500000   0.3750000   0.0955686), wk =   0.0312500
        k(   54) = (   0.2500000   0.3750000   0.1433529), wk =   0.0312500
        k(   55) = (   0.2500000   0.3750000  -0.1911372), wk =   0.0156250
        k(   56) = (   0.2500000  -0.5000000   0.0000000), wk =   0.0078125
        k(   57) = (   0.2500000  -0.5000000   0.0477843), wk =   0.0156250
        k(   58) = (   0.2500000  -0.5000000   0.0955686), wk =   0.0156250
        k(   59) = (   0.2500000  -0.5000000   0.1433529), wk =   0.0156250
        k(   60) = (   0.2500000  -0.5000000  -0.1911372), wk =   0.0078125
        k(   61) = (   0.3750000   0.3750000   0.0000000), wk =   0.0078125
        k(   62) = (   0.3750000   0.3750000   0.0477843), wk =   0.0156250
        k(   63) = (   0.3750000   0.3750000   0.0955686), wk =   0.0156250
        k(   64) = (   0.3750000   0.3750000   0.1433529), wk =   0.0156250
        k(   65) = (   0.3750000   0.3750000  -0.1911372), wk =   0.0078125
        k(   66) = (   0.3750000  -0.5000000   0.0000000), wk =   0.0078125
        k(   67) = (   0.3750000  -0.5000000   0.0477843), wk =   0.0156250
        k(   68) = (   0.3750000  -0.5000000   0.0955686), wk =   0.0156250
        k(   69) = (   0.3750000  -0.5000000   0.1433529), wk =   0.0156250
        k(   70) = (   0.3750000  -0.5000000  -0.1911372), wk =   0.0078125
        k(   71) = (  -0.5000000  -0.5000000   0.0000000), wk =   0.0019531
        k(   72) = (  -0.5000000  -0.5000000   0.0477843), wk =   0.0039062
        k(   73) = (  -0.5000000  -0.5000000   0.0955686), wk =   0.0039062
        k(   74) = (  -0.5000000  -0.5000000   0.1433529), wk =   0.0039062
        k(   75) = (  -0.5000000  -0.5000000  -0.1911372), wk =   0.0019531

     Dense  grid:    93331 G-vectors     FFT dimensions: (  45,  45, 108)

     Smooth grid:    28191 G-vectors     FFT dimensions: (  27,  27,  72)

     Estimated max dynamical RAM per process >      50.62 MB

     Estimated total dynamical RAM >     809.86 MB
     Generating pointlists ...
     new r_m :   0.3388 (alat units)  2.1733 (a.u.) for type    1
     new r_m :   0.3388 (alat units)  2.1733 (a.u.) for type    2
     new r_m :   0.3388 (alat units)  2.1733 (a.u.) for type    3

     Check: negative/imaginary core charge=   -0.000006    0.000000

     Initial potential from superposition of free atoms

     starting charge   73.99857, renormalised to   74.00000
     Starting wfcs are   56 randomized atomic wfcs
     Checking if some PAW data can be deallocated... 

     total cpu time spent up to now is        9.2 secs

     Self-consistent Calculation

     iteration #  1     ecut=    45.00 Ry     beta= 0.10
     Davidson diagonalization with overlap
     ethr =  1.00E-02,  avg # of iterations =  2.3

     total cpu time spent up to now is       17.0 secs

     total energy              =   -3671.97340186 Ry
     Harris-Foulkes estimate   =   -3673.96495534 Ry
     estimated scf accuracy    <      10.92500514 Ry

     total magnetization       =    -0.00 Bohr mag/cell
     absolute magnetization    =     0.03 Bohr mag/cell

     iteration #  2     ecut=    45.00 Ry     beta= 0.10
     Davidson diagonalization with overlap
     ethr =  1.00E-02,  avg # of iterations =  2.1

     total cpu time spent up to now is       24.7 secs

     total energy              =   -3673.30634149 Ry
     Harris-Foulkes estimate   =   -3673.59762351 Ry
     estimated scf accuracy    <       2.36387218 Ry

     total magnetization       =     0.00 Bohr mag/cell
     absolute magnetization    =     0.03 Bohr mag/cell

     iteration #  3     ecut=    45.00 Ry     beta= 0.10
     Davidson diagonalization with overlap
     ethr =  3.19E-03,  avg # of iterations =  1.3

     total cpu time spent up to now is       31.1 secs

     total energy              =   -3673.34537303 Ry
     Harris-Foulkes estimate   =   -3673.39540396 Ry
     estimated scf accuracy    <       0.72476765 Ry

     total magnetization       =    -0.02 Bohr mag/cell
     absolute magnetization    =     0.04 Bohr mag/cell

     iteration #  4     ecut=    45.00 Ry     beta= 0.10
     Davidson diagonalization with overlap
     ethr =  9.79E-04,  avg # of iterations =  2.1

     total cpu time spent up to now is       38.5 secs

     total energy              =   -3673.21803944 Ry
     Harris-Foulkes estimate   =   -3673.41109628 Ry
     estimated scf accuracy    <       5.44166662 Ry

     total magnetization       =     0.01 Bohr mag/cell
     absolute magnetization    =     0.04 Bohr mag/cell

     iteration #  5     ecut=    45.00 Ry     beta= 0.10
     Davidson diagonalization with overlap
     ethr =  9.79E-04,  avg # of iterations =  3.0

     total cpu time spent up to now is       47.6 secs

     total energy              =   -3673.31335893 Ry
     Harris-Foulkes estimate   =   -3673.42304829 Ry
     estimated scf accuracy    <       1.62400326 Ry

     total magnetization       =    -0.01 Bohr mag/cell
     absolute magnetization    =     0.03 Bohr mag/cell

     iteration #  6     ecut=    45.00 Ry     beta= 0.10
     Davidson diagonalization with overlap
     ethr =  9.79E-04,  avg # of iterations =  1.0

     total cpu time spent up to now is       53.6 secs

     total energy              =   -3673.34331186 Ry
     Harris-Foulkes estimate   =   -3673.34630354 Ry
     estimated scf accuracy    <       0.23867199 Ry

     total magnetization       =    -0.02 Bohr mag/cell
     absolute magnetization    =     0.06 Bohr mag/cell

     iteration #  7     ecut=    45.00 Ry     beta= 0.10
     Davidson diagonalization with overlap
     ethr =  3.23E-04,  avg # of iterations =  1.0

     total cpu time spent up to now is       59.6 secs

     total energy              =   -3673.32456884 Ry
     Harris-Foulkes estimate   =   -3673.34444809 Ry
     estimated scf accuracy    <       0.22345300 Ry

     total magnetization       =    -0.02 Bohr mag/cell
     absolute magnetization    =     0.06 Bohr mag/cell

     iteration #  8     ecut=    45.00 Ry     beta= 0.10
     Davidson diagonalization with overlap
     ethr =  3.02E-04,  avg # of iterations =  1.4

     total cpu time spent up to now is       66.0 secs

     total energy              =   -3673.32421873 Ry
     Harris-Foulkes estimate   =   -3673.33182949 Ry
     estimated scf accuracy    <       0.02907937 Ry

     total magnetization       =    -0.05 Bohr mag/cell
     absolute magnetization    =     0.08 Bohr mag/cell

     iteration #  9     ecut=    45.00 Ry     beta= 0.10
     Davidson diagonalization with overlap
     ethr =  3.93E-05,  avg # of iterations =  3.1

     total cpu time spent up to now is       75.6 secs

     total energy              =   -3673.33959045 Ry
     Harris-Foulkes estimate   =   -3673.33712941 Ry
     estimated scf accuracy    <       0.06641868 Ry

     total magnetization       =    -0.12 Bohr mag/cell
     absolute magnetization    =     0.16 Bohr mag/cell

     iteration # 10     ecut=    45.00 Ry     beta= 0.10
     Davidson diagonalization with overlap
     ethr =  3.93E-05,  avg # of iterations =  1.0

     total cpu time spent up to now is       81.5 secs

     total energy              =   -3673.32419357 Ry
     Harris-Foulkes estimate   =   -3673.34000827 Ry
     estimated scf accuracy    <       0.09795464 Ry

     total magnetization       =    -0.21 Bohr mag/cell
     absolute magnetization    =     0.26 Bohr mag/cell

     iteration # 11     ecut=    45.00 Ry     beta= 0.10
     Davidson diagonalization with overlap
     ethr =  3.93E-05,  avg # of iterations =  2.9

     total cpu time spent up to now is       90.4 secs

     total energy              =   -3673.33172587 Ry
     Harris-Foulkes estimate   =   -3673.33166696 Ry
     estimated scf accuracy    <       0.00169985 Ry

     total magnetization       =    -0.30 Bohr mag/cell
     absolute magnetization    =     0.33 Bohr mag/cell

     iteration # 12     ecut=    45.00 Ry     beta= 0.10
     Davidson diagonalization with overlap
     ethr =  2.30E-06,  avg # of iterations =  2.4

     total cpu time spent up to now is       98.5 secs

     total energy              =   -3673.33141214 Ry
     Harris-Foulkes estimate   =   -3673.33178264 Ry
     estimated scf accuracy    <       0.00146749 Ry

     total magnetization       =    -0.36 Bohr mag/cell
     absolute magnetization    =     0.39 Bohr mag/cell

     iteration # 13     ecut=    45.00 Ry     beta= 0.10
     Davidson diagonalization with overlap
     ethr =  1.98E-06,  avg # of iterations =  1.8

     total cpu time spent up to now is      105.6 secs

     total energy              =   -3673.33152645 Ry
     Harris-Foulkes estimate   =   -3673.33171263 Ry
     estimated scf accuracy    <       0.00155638 Ry

     total magnetization       =    -0.05 Bohr mag/cell
     absolute magnetization    =     0.16 Bohr mag/cell

     iteration # 14     ecut=    45.00 Ry     beta= 0.10
     Davidson diagonalization with overlap
     ethr =  1.98E-06,  avg # of iterations =  1.1

     total cpu time spent up to now is      111.8 secs

     total energy              =   -3673.33161995 Ry
     Harris-Foulkes estimate   =   -3673.33162780 Ry
     estimated scf accuracy    <       0.00119122 Ry

     total magnetization       =     0.03 Bohr mag/cell
     absolute magnetization    =     0.17 Bohr mag/cell

     iteration # 15     ecut=    45.00 Ry     beta= 0.10
     Davidson diagonalization with overlap
     ethr =  1.61E-06,  avg # of iterations =  1.0

     total cpu time spent up to now is      117.8 secs

     total energy              =   -3673.33161578 Ry
     Harris-Foulkes estimate   =   -3673.33162748 Ry
     estimated scf accuracy    <       0.00090855 Ry

     total magnetization       =     0.04 Bohr mag/cell
     absolute magnetization    =     0.18 Bohr mag/cell

     iteration # 16     ecut=    45.00 Ry     beta= 0.10
     Davidson diagonalization with overlap
     ethr =  1.23E-06,  avg # of iterations =  1.0

     total cpu time spent up to now is      123.8 secs

     total energy              =   -3673.33153809 Ry
     Harris-Foulkes estimate   =   -3673.33162116 Ry
     estimated scf accuracy    <       0.00110221 Ry

     total magnetization       =     0.03 Bohr mag/cell
     absolute magnetization    =     0.16 Bohr mag/cell

     iteration # 17     ecut=    45.00 Ry     beta= 0.10
     Davidson diagonalization with overlap
     ethr =  1.23E-06,  avg # of iterations =  1.0

     total cpu time spent up to now is      129.7 secs

     total energy              =   -3673.33134985 Ry
     Harris-Foulkes estimate   =   -3673.33156632 Ry
     estimated scf accuracy    <       0.00053726 Ry

     total magnetization       =     0.02 Bohr mag/cell
     absolute magnetization    =     0.15 Bohr mag/cell

     iteration # 18     ecut=    45.00 Ry     beta= 0.10
     Davidson diagonalization with overlap
     ethr =  7.26E-07,  avg # of iterations =  2.2

     total cpu time spent up to now is      137.3 secs

     total energy              =   -3673.33146135 Ry
     Harris-Foulkes estimate   =   -3673.33146373 Ry
     estimated scf accuracy    <       0.00011291 Ry

     total magnetization       =     0.01 Bohr mag/cell
     absolute magnetization    =     0.10 Bohr mag/cell

     iteration # 19     ecut=    45.00 Ry     beta= 0.10
     Davidson diagonalization with overlap
     ethr =  1.53E-07,  avg # of iterations =  1.9

     total cpu time spent up to now is      144.6 secs

     total energy              =   -3673.33145261 Ry
     Harris-Foulkes estimate   =   -3673.33146397 Ry
     estimated scf accuracy    <       0.00006379 Ry

     total magnetization       =     0.02 Bohr mag/cell
     absolute magnetization    =     0.10 Bohr mag/cell

     iteration # 20     ecut=    45.00 Ry     beta= 0.10
     Davidson diagonalization with overlap
     ethr =  8.62E-08,  avg # of iterations =  1.0

     total cpu time spent up to now is      150.6 secs

     total energy              =   -3673.33144521 Ry
     Harris-Foulkes estimate   =   -3673.33145781 Ry
     estimated scf accuracy    <       0.00005720 Ry

     total magnetization       =     0.01 Bohr mag/cell
     absolute magnetization    =     0.09 Bohr mag/cell

     iteration # 21     ecut=    45.00 Ry     beta= 0.10
     Davidson diagonalization with overlap
     ethr =  7.73E-08,  avg # of iterations =  1.0

     total cpu time spent up to now is      156.6 secs

     total energy              =   -3673.33145243 Ry
     Harris-Foulkes estimate   =   -3673.33145246 Ry
     estimated scf accuracy    <       0.00004839 Ry

     total magnetization       =    -0.01 Bohr mag/cell
     absolute magnetization    =     0.07 Bohr mag/cell

     iteration # 22     ecut=    45.00 Ry     beta= 0.10
     Davidson diagonalization with overlap
     ethr =  6.54E-08,  avg # of iterations =  1.0

     total cpu time spent up to now is      162.6 secs

     total energy              =   -3673.33144878 Ry
     Harris-Foulkes estimate   =   -3673.33145245 Ry
     estimated scf accuracy    <       0.00005062 Ry

     total magnetization       =     0.00 Bohr mag/cell
     absolute magnetization    =     0.08 Bohr mag/cell

     iteration # 23     ecut=    45.00 Ry     beta= 0.10
     Davidson diagonalization with overlap
     ethr =  6.54E-08,  avg # of iterations =  1.0

     total cpu time spent up to now is      168.5 secs

     total energy              =   -3673.33145155 Ry
     Harris-Foulkes estimate   =   -3673.33145051 Ry
     estimated scf accuracy    <       0.00003465 Ry

     total magnetization       =    -0.00 Bohr mag/cell
     absolute magnetization    =     0.07 Bohr mag/cell

     iteration # 24     ecut=    45.00 Ry     beta= 0.10
     Davidson diagonalization with overlap
     ethr =  4.68E-08,  avg # of iterations =  1.0

     total cpu time spent up to now is      174.5 secs

     total energy              =   -3673.33145161 Ry
     Harris-Foulkes estimate   =   -3673.33145233 Ry
     estimated scf accuracy    <       0.00002944 Ry

     total magnetization       =    -0.03 Bohr mag/cell
     absolute magnetization    =     0.08 Bohr mag/cell

     iteration # 25     ecut=    45.00 Ry     beta= 0.10
     Davidson diagonalization with overlap
     ethr =  3.98E-08,  avg # of iterations =  1.0

     total cpu time spent up to now is      180.5 secs

     total energy              =   -3673.33145284 Ry
     Harris-Foulkes estimate   =   -3673.33145396 Ry
     estimated scf accuracy    <       0.00003594 Ry

     total magnetization       =    -0.02 Bohr mag/cell
     absolute magnetization    =     0.07 Bohr mag/cell

     iteration # 26     ecut=    45.00 Ry     beta= 0.10
     Davidson diagonalization with overlap
     ethr =  3.98E-08,  avg # of iterations =  1.0

     total cpu time spent up to now is      186.5 secs

     total energy              =   -3673.33145138 Ry
     Harris-Foulkes estimate   =   -3673.33145289 Ry
     estimated scf accuracy    <       0.00003843 Ry

     total magnetization       =    -0.02 Bohr mag/cell
     absolute magnetization    =     0.07 Bohr mag/cell

     iteration # 27     ecut=    45.00 Ry     beta= 0.10
     Davidson diagonalization with overlap
     ethr =  3.98E-08,  avg # of iterations =  1.0

     total cpu time spent up to now is      192.5 secs

     total energy              =   -3673.33144239 Ry
     Harris-Foulkes estimate   =   -3673.33145236 Ry
     estimated scf accuracy    <       0.00003732 Ry

     total magnetization       =    -0.02 Bohr mag/cell
     absolute magnetization    =     0.07 Bohr mag/cell

     iteration # 28     ecut=    45.00 Ry     beta= 0.10
     Davidson diagonalization with overlap
     ethr =  3.98E-08,  avg # of iterations =  1.1

     total cpu time spent up to now is      198.6 secs

     total energy              =   -3673.33144074 Ry
     Harris-Foulkes estimate   =   -3673.33144979 Ry
     estimated scf accuracy    <       0.00002288 Ry

     total magnetization       =    -0.01 Bohr mag/cell
     absolute magnetization    =     0.06 Bohr mag/cell

     iteration # 29     ecut=    45.00 Ry     beta= 0.10
     Davidson diagonalization with overlap
     ethr =  3.09E-08,  avg # of iterations =  1.5

     total cpu time spent up to now is      205.3 secs

     total energy              =   -3673.33144196 Ry
     Harris-Foulkes estimate   =   -3673.33144678 Ry
     estimated scf accuracy    <       0.00002496 Ry

     total magnetization       =     0.00 Bohr mag/cell
     absolute magnetization    =     0.06 Bohr mag/cell

     iteration # 30     ecut=    45.00 Ry     beta= 0.10
     Davidson diagonalization with overlap
     ethr =  3.09E-08,  avg # of iterations =  1.2

     total cpu time spent up to now is      211.5 secs

     total energy              =   -3673.33144757 Ry
     Harris-Foulkes estimate   =   -3673.33144618 Ry
     estimated scf accuracy    <       0.00001625 Ry

     total magnetization       =     0.00 Bohr mag/cell
     absolute magnetization    =     0.06 Bohr mag/cell

     iteration # 31     ecut=    45.00 Ry     beta= 0.10
     Davidson diagonalization with overlap
     ethr =  2.20E-08,  avg # of iterations =  1.0

     total cpu time spent up to now is      217.6 secs

     total energy              =   -3673.33144366 Ry
     Harris-Foulkes estimate   =   -3673.33144780 Ry
     estimated scf accuracy    <       0.00000995 Ry

     total magnetization       =    -0.00 Bohr mag/cell
     absolute magnetization    =     0.07 Bohr mag/cell

     iteration # 32     ecut=    45.00 Ry     beta= 0.10
     Davidson diagonalization with overlap
     ethr =  1.34E-08,  avg # of iterations =  1.0

     total cpu time spent up to now is      223.5 secs

     total energy              =   -3673.33144929 Ry
     Harris-Foulkes estimate   =   -3673.33144867 Ry
     estimated scf accuracy    <       0.00001281 Ry

     total magnetization       =    -0.00 Bohr mag/cell
     absolute magnetization    =     0.07 Bohr mag/cell

     iteration # 33     ecut=    45.00 Ry     beta= 0.10
     Davidson diagonalization with overlap
     ethr =  1.34E-08,  avg # of iterations =  1.0

     total cpu time spent up to now is      229.5 secs

     total energy              =   -3673.33144775 Ry
     Harris-Foulkes estimate   =   -3673.33144900 Ry
     estimated scf accuracy    <       0.00001044 Ry

     total magnetization       =     0.00 Bohr mag/cell
     absolute magnetization    =     0.07 Bohr mag/cell

     iteration # 34     ecut=    45.00 Ry     beta= 0.10
     Davidson diagonalization with overlap
     ethr =  1.34E-08,  avg # of iterations =  1.0

     total cpu time spent up to now is      235.5 secs

     total energy              =   -3673.33144849 Ry
     Harris-Foulkes estimate   =   -3673.33144830 Ry
     estimated scf accuracy    <       0.00001040 Ry

     total magnetization       =    -0.00 Bohr mag/cell
     absolute magnetization    =     0.07 Bohr mag/cell

     iteration # 35     ecut=    45.00 Ry     beta= 0.10
     Davidson diagonalization with overlap
     ethr =  1.34E-08,  avg # of iterations =  1.0

     total cpu time spent up to now is      241.5 secs

     total energy              =   -3673.33144877 Ry
     Harris-Foulkes estimate   =   -3673.33144820 Ry
     estimated scf accuracy    <       0.00001046 Ry

     total magnetization       =    -0.00 Bohr mag/cell
     absolute magnetization    =     0.07 Bohr mag/cell

     iteration # 36     ecut=    45.00 Ry     beta= 0.10
     Davidson diagonalization with overlap
     ethr =  1.34E-08,  avg # of iterations =  1.0

     total cpu time spent up to now is      247.5 secs

     total energy              =   -3673.33144960 Ry
     Harris-Foulkes estimate   =   -3673.33144853 Ry
     estimated scf accuracy    <       0.00001060 Ry

     total magnetization       =    -0.00 Bohr mag/cell
     absolute magnetization    =     0.07 Bohr mag/cell

     iteration # 37     ecut=    45.00 Ry     beta= 0.10
     Davidson diagonalization with overlap
     ethr =  1.34E-08,  avg # of iterations =  1.0

     total cpu time spent up to now is      253.4 secs

     total energy              =   -3673.33144567 Ry
     Harris-Foulkes estimate   =   -3673.33144946 Ry
     estimated scf accuracy    <       0.00001055 Ry

     total magnetization       =    -0.01 Bohr mag/cell
     absolute magnetization    =     0.07 Bohr mag/cell

     iteration # 38     ecut=    45.00 Ry     beta= 0.10
     Davidson diagonalization with overlap
     ethr =  1.34E-08,  avg # of iterations =  1.0

     total cpu time spent up to now is      259.4 secs

     total energy              =   -3673.33144161 Ry
     Harris-Foulkes estimate   =   -3673.33144740 Ry
     estimated scf accuracy    <       0.00000997 Ry

     total magnetization       =    -0.01 Bohr mag/cell
     absolute magnetization    =     0.07 Bohr mag/cell

     iteration # 39     ecut=    45.00 Ry     beta= 0.10
     Davidson diagonalization with overlap
     ethr =  1.34E-08,  avg # of iterations =  1.0

     total cpu time spent up to now is      265.5 secs

     total energy              =   -3673.33144066 Ry
     Harris-Foulkes estimate   =   -3673.33144446 Ry
     estimated scf accuracy    <       0.00000911 Ry

     total magnetization       =    -0.01 Bohr mag/cell
     absolute magnetization    =     0.06 Bohr mag/cell

     iteration # 40     ecut=    45.00 Ry     beta= 0.10
     Davidson diagonalization with overlap
     ethr =  1.23E-08,  avg # of iterations =  1.0

     total cpu time spent up to now is      271.4 secs

     total energy              =   -3673.33143571 Ry
     Harris-Foulkes estimate   =   -3673.33144238 Ry
     estimated scf accuracy    <       0.00000819 Ry

     total magnetization       =    -0.01 Bohr mag/cell
     absolute magnetization    =     0.05 Bohr mag/cell

     iteration # 41     ecut=    45.00 Ry     beta= 0.10
     Davidson diagonalization with overlap
     ethr =  1.11E-08,  avg # of iterations =  1.2

     total cpu time spent up to now is      277.6 secs

     total energy              =   -3673.33143878 Ry
     Harris-Foulkes estimate   =   -3673.33144049 Ry
     estimated scf accuracy    <       0.00000723 Ry

     total magnetization       =    -0.00 Bohr mag/cell
     absolute magnetization    =     0.05 Bohr mag/cell

     iteration # 42     ecut=    45.00 Ry     beta= 0.10
     Davidson diagonalization with overlap
     ethr =  9.78E-09,  avg # of iterations =  1.0

     total cpu time spent up to now is      283.6 secs

     total energy              =   -3673.33144119 Ry
     Harris-Foulkes estimate   =   -3673.33144040 Ry
     estimated scf accuracy    <       0.00000901 Ry

     total magnetization       =    -0.00 Bohr mag/cell
     absolute magnetization    =     0.04 Bohr mag/cell

     iteration # 43     ecut=    45.00 Ry     beta= 0.10
     Davidson diagonalization with overlap
     ethr =  9.78E-09,  avg # of iterations =  1.0

     total cpu time spent up to now is      289.6 secs

     total energy              =   -3673.33144054 Ry
     Harris-Foulkes estimate   =   -3673.33144039 Ry
     estimated scf accuracy    <       0.00000672 Ry

     total magnetization       =     0.01 Bohr mag/cell
     absolute magnetization    =     0.05 Bohr mag/cell

     iteration # 44     ecut=    45.00 Ry     beta= 0.10
     Davidson diagonalization with overlap
     ethr =  9.08E-09,  avg # of iterations =  1.0

     total cpu time spent up to now is      295.6 secs

     total energy              =   -3673.33144053 Ry
     Harris-Foulkes estimate   =   -3673.33144065 Ry
     estimated scf accuracy    <       0.00000620 Ry

     total magnetization       =     0.01 Bohr mag/cell
     absolute magnetization    =     0.05 Bohr mag/cell

     iteration # 45     ecut=    45.00 Ry     beta= 0.10
     Davidson diagonalization with overlap
     ethr =  8.38E-09,  avg # of iterations =  1.0

     total cpu time spent up to now is      301.7 secs

     total energy              =   -3673.33144124 Ry
     Harris-Foulkes estimate   =   -3673.33144055 Ry
     estimated scf accuracy    <       0.00000653 Ry

     total magnetization       =     0.01 Bohr mag/cell
     absolute magnetization    =     0.05 Bohr mag/cell

     iteration # 46     ecut=    45.00 Ry     beta= 0.10
     Davidson diagonalization with overlap
     ethr =  8.38E-09,  avg # of iterations =  1.0

     total cpu time spent up to now is      307.6 secs

     total energy              =   -3673.33144032 Ry
     Harris-Foulkes estimate   =   -3673.33144215 Ry
     estimated scf accuracy    <       0.00000642 Ry

     total magnetization       =     0.01 Bohr mag/cell
     absolute magnetization    =     0.05 Bohr mag/cell

     iteration # 47     ecut=    45.00 Ry     beta= 0.10
     Davidson diagonalization with overlap
     ethr =  8.38E-09,  avg # of iterations =  1.0

     total cpu time spent up to now is      313.7 secs

     total energy              =   -3673.33144340 Ry
     Harris-Foulkes estimate   =   -3673.33144163 Ry
     estimated scf accuracy    <       0.00000676 Ry

     total magnetization       =     0.01 Bohr mag/cell
     absolute magnetization    =     0.05 Bohr mag/cell

     iteration # 48     ecut=    45.00 Ry     beta= 0.10
     Davidson diagonalization with overlap
     ethr =  8.38E-09,  avg # of iterations =  1.0

     total cpu time spent up to now is      319.7 secs

     total energy              =   -3673.33144271 Ry
     Harris-Foulkes estimate   =   -3673.33144297 Ry
     estimated scf accuracy    <       0.00000675 Ry

     total magnetization       =     0.00 Bohr mag/cell
     absolute magnetization    =     0.05 Bohr mag/cell

     iteration # 49     ecut=    45.00 Ry     beta= 0.10
     Davidson diagonalization with overlap
     ethr =  8.38E-09,  avg # of iterations =  1.0

     total cpu time spent up to now is      325.7 secs

     total energy              =   -3673.33144250 Ry
     Harris-Foulkes estimate   =   -3673.33144291 Ry
     estimated scf accuracy    <       0.00000642 Ry

     total magnetization       =     0.00 Bohr mag/cell
     absolute magnetization    =     0.05 Bohr mag/cell

     iteration # 50     ecut=    45.00 Ry     beta= 0.10
     Davidson diagonalization with overlap
     ethr =  8.38E-09,  avg # of iterations =  1.0

     total cpu time spent up to now is      331.7 secs

     total energy              =   -3673.33144240 Ry
     Harris-Foulkes estimate   =   -3673.33144261 Ry
     estimated scf accuracy    <       0.00000604 Ry

     total magnetization       =     0.00 Bohr mag/cell
     absolute magnetization    =     0.05 Bohr mag/cell

     iteration # 51     ecut=    45.00 Ry     beta= 0.10
     Davidson diagonalization with overlap
     ethr =  8.16E-09,  avg # of iterations =  1.0

     total cpu time spent up to now is      337.6 secs

     total energy              =   -3673.33144181 Ry
     Harris-Foulkes estimate   =   -3673.33144225 Ry
     estimated scf accuracy    <       0.00000768 Ry

     total magnetization       =    -0.00 Bohr mag/cell
     absolute magnetization    =     0.05 Bohr mag/cell

     iteration # 52     ecut=    45.00 Ry     beta= 0.10
     Davidson diagonalization with overlap
     ethr =  8.16E-09,  avg # of iterations =  1.0

     total cpu time spent up to now is      343.6 secs

     total energy              =   -3673.33144389 Ry
     Harris-Foulkes estimate   =   -3673.33144221 Ry
     estimated scf accuracy    <       0.00000604 Ry

     total magnetization       =    -0.00 Bohr mag/cell
     absolute magnetization    =     0.05 Bohr mag/cell

     iteration # 53     ecut=    45.00 Ry     beta= 0.10
     Davidson diagonalization with overlap
     ethr =  8.16E-09,  avg # of iterations =  1.0

     total cpu time spent up to now is      349.6 secs

     total energy              =   -3673.33144062 Ry
     Harris-Foulkes estimate   =   -3673.33144368 Ry
     estimated scf accuracy    <       0.00000628 Ry

     total magnetization       =     0.00 Bohr mag/cell
     absolute magnetization    =     0.06 Bohr mag/cell

     iteration # 54     ecut=    45.00 Ry     beta= 0.10
     Davidson diagonalization with overlap
     ethr =  8.16E-09,  avg # of iterations =  1.0

     total cpu time spent up to now is      355.6 secs

     total energy              =   -3673.33144246 Ry
     Harris-Foulkes estimate   =   -3673.33144194 Ry
     estimated scf accuracy    <       0.00000553 Ry

     total magnetization       =     0.00 Bohr mag/cell
     absolute magnetization    =     0.05 Bohr mag/cell

     iteration # 55     ecut=    45.00 Ry     beta= 0.10
     Davidson diagonalization with overlap
     ethr =  7.47E-09,  avg # of iterations =  1.0

     total cpu time spent up to now is      361.6 secs

     total energy              =   -3673.33144162 Ry
     Harris-Foulkes estimate   =   -3673.33144284 Ry
     estimated scf accuracy    <       0.00000682 Ry

     total magnetization       =     0.00 Bohr mag/cell
     absolute magnetization    =     0.05 Bohr mag/cell

     iteration # 56     ecut=    45.00 Ry     beta= 0.10
     Davidson diagonalization with overlap
     ethr =  7.47E-09,  avg # of iterations =  1.0

     total cpu time spent up to now is      367.6 secs

     total energy              =   -3673.33143801 Ry
     Harris-Foulkes estimate   =   -3673.33144357 Ry
     estimated scf accuracy    <       0.00000610 Ry

     total magnetization       =     0.00 Bohr mag/cell
     absolute magnetization    =     0.06 Bohr mag/cell

     iteration # 57     ecut=    45.00 Ry     beta= 0.10
     Davidson diagonalization with overlap
     ethr =  7.47E-09,  avg # of iterations =  1.1

     total cpu time spent up to now is      373.7 secs

     total energy              =   -3673.33144416 Ry
     Harris-Foulkes estimate   =   -3673.33144307 Ry
     estimated scf accuracy    <       0.00000603 Ry

     total magnetization       =     0.00 Bohr mag/cell
     absolute magnetization    =     0.05 Bohr mag/cell

     iteration # 58     ecut=    45.00 Ry     beta= 0.10
     Davidson diagonalization with overlap
     ethr =  7.47E-09,  avg # of iterations =  1.0

     total cpu time spent up to now is      379.7 secs

     total energy              =   -3673.33144114 Ry
     Harris-Foulkes estimate   =   -3673.33144359 Ry
     estimated scf accuracy    <       0.00000719 Ry

     total magnetization       =     0.00 Bohr mag/cell
     absolute magnetization    =     0.06 Bohr mag/cell

     iteration # 59     ecut=    45.00 Ry     beta= 0.10
     Davidson diagonalization with overlap
     ethr =  7.47E-09,  avg # of iterations =  1.0

     total cpu time spent up to now is      385.6 secs

     total energy              =   -3673.33144253 Ry
     Harris-Foulkes estimate   =   -3673.33144280 Ry
     estimated scf accuracy    <       0.00000647 Ry

     total magnetization       =     0.00 Bohr mag/cell
     absolute magnetization    =     0.05 Bohr mag/cell

     iteration # 60     ecut=    45.00 Ry     beta= 0.10
     Davidson diagonalization with overlap
     ethr =  7.47E-09,  avg # of iterations =  1.0

     total cpu time spent up to now is      391.6 secs

     total energy              =   -3673.33144209 Ry
     Harris-Foulkes estimate   =   -3673.33144246 Ry
     estimated scf accuracy    <       0.00000610 Ry

     total magnetization       =     0.00 Bohr mag/cell
     absolute magnetization    =     0.05 Bohr mag/cell

     iteration # 61     ecut=    45.00 Ry     beta= 0.10
     Davidson diagonalization with overlap
     ethr =  7.47E-09,  avg # of iterations =  1.0

     total cpu time spent up to now is      397.6 secs

     total energy              =   -3673.33144072 Ry
     Harris-Foulkes estimate   =   -3673.33144200 Ry
     estimated scf accuracy    <       0.00000583 Ry

     total magnetization       =     0.00 Bohr mag/cell
     absolute magnetization    =     0.05 Bohr mag/cell

     iteration # 62     ecut=    45.00 Ry     beta= 0.10
     Davidson diagonalization with overlap
     ethr =  7.47E-09,  avg # of iterations =  1.1

     total cpu time spent up to now is      403.6 secs

     total energy              =   -3673.33143992 Ry
     Harris-Foulkes estimate   =   -3673.33144252 Ry
     estimated scf accuracy    <       0.00000710 Ry

     total magnetization       =     0.01 Bohr mag/cell
     absolute magnetization    =     0.05 Bohr mag/cell

     iteration # 63     ecut=    45.00 Ry     beta= 0.10
     Davidson diagonalization with overlap
     ethr =  7.47E-09,  avg # of iterations =  1.0

     total cpu time spent up to now is      409.6 secs

     total energy              =   -3673.33143932 Ry
     Harris-Foulkes estimate   =   -3673.33144134 Ry
     estimated scf accuracy    <       0.00000597 Ry

     total magnetization       =     0.01 Bohr mag/cell
     absolute magnetization    =     0.04 Bohr mag/cell

     iteration # 64     ecut=    45.00 Ry     beta= 0.10
     Davidson diagonalization with overlap
     ethr =  7.47E-09,  avg # of iterations =  1.0

     total cpu time spent up to now is      415.6 secs

     total energy              =   -3673.33143409 Ry
     Harris-Foulkes estimate   =   -3673.33144037 Ry
     estimated scf accuracy    <       0.00000507 Ry

     total magnetization       =     0.01 Bohr mag/cell
     absolute magnetization    =     0.04 Bohr mag/cell

     iteration # 65     ecut=    45.00 Ry     beta= 0.10
     Davidson diagonalization with overlap
     ethr =  6.85E-09,  avg # of iterations =  2.1

     total cpu time spent up to now is      423.0 secs

     total energy              =   -3673.33144140 Ry
     Harris-Foulkes estimate   =   -3673.33144121 Ry
     estimated scf accuracy    <       0.00000950 Ry

     total magnetization       =     0.01 Bohr mag/cell
     absolute magnetization    =     0.04 Bohr mag/cell

     iteration # 66     ecut=    45.00 Ry     beta= 0.10
     Davidson diagonalization with overlap
     ethr =  6.85E-09,  avg # of iterations =  1.0

     total cpu time spent up to now is      429.0 secs

     total energy              =   -3673.33143828 Ry
     Harris-Foulkes estimate   =   -3673.33144145 Ry
     estimated scf accuracy    <       0.00000860 Ry

     total magnetization       =     0.00 Bohr mag/cell
     absolute magnetization    =     0.05 Bohr mag/cell

     iteration # 67     ecut=    45.00 Ry     beta= 0.10
     Davidson diagonalization with overlap
     ethr =  6.85E-09,  avg # of iterations =  1.0

     total cpu time spent up to now is      435.0 secs

     total energy              =   -3673.33143748 Ry
     Harris-Foulkes estimate   =   -3673.33144072 Ry
     estimated scf accuracy    <       0.00000731 Ry

     total magnetization       =     0.00 Bohr mag/cell
     absolute magnetization    =     0.04 Bohr mag/cell

     iteration # 68     ecut=    45.00 Ry     beta= 0.10
     Davidson diagonalization with overlap
     ethr =  6.85E-09,  avg # of iterations =  1.0

     total cpu time spent up to now is      440.9 secs

     total energy              =   -3673.33143810 Ry
     Harris-Foulkes estimate   =   -3673.33144033 Ry
     estimated scf accuracy    <       0.00000621 Ry

     total magnetization       =     0.00 Bohr mag/cell
     absolute magnetization    =     0.03 Bohr mag/cell

     iteration # 69     ecut=    45.00 Ry     beta= 0.10
     Davidson diagonalization with overlap
     ethr =  6.85E-09,  avg # of iterations =  1.0

     total cpu time spent up to now is      446.9 secs

     total energy              =   -3673.33143958 Ry
     Harris-Foulkes estimate   =   -3673.33144026 Ry
     estimated scf accuracy    <       0.00000329 Ry

     total magnetization       =     0.00 Bohr mag/cell
     absolute magnetization    =     0.03 Bohr mag/cell

     iteration # 70     ecut=    45.00 Ry     beta= 0.10
     Davidson diagonalization with overlap
     ethr =  4.44E-09,  avg # of iterations =  1.2

     total cpu time spent up to now is      453.1 secs

     total energy              =   -3673.33144008 Ry
     Harris-Foulkes estimate   =   -3673.33144089 Ry
     estimated scf accuracy    <       0.00000572 Ry

     total magnetization       =     0.00 Bohr mag/cell
     absolute magnetization    =     0.03 Bohr mag/cell

     iteration # 71     ecut=    45.00 Ry     beta= 0.10
     Davidson diagonalization with overlap
     ethr =  4.44E-09,  avg # of iterations =  1.4

     total cpu time spent up to now is      459.4 secs

     total energy              =   -3673.33144116 Ry
     Harris-Foulkes estimate   =   -3673.33144177 Ry
     estimated scf accuracy    <       0.00000572 Ry

     total magnetization       =     0.00 Bohr mag/cell
     absolute magnetization    =     0.03 Bohr mag/cell

     iteration # 72     ecut=    45.00 Ry     beta= 0.10
     Davidson diagonalization with overlap
     ethr =  4.44E-09,  avg # of iterations =  1.0

     total cpu time spent up to now is      465.4 secs

     total energy              =   -3673.33143739 Ry
     Harris-Foulkes estimate   =   -3673.33144164 Ry
     estimated scf accuracy    <       0.00000509 Ry

     total magnetization       =     0.01 Bohr mag/cell
     absolute magnetization    =     0.03 Bohr mag/cell

     iteration # 73     ecut=    45.00 Ry     beta= 0.10
     Davidson diagonalization with overlap
     ethr =  4.44E-09,  avg # of iterations =  1.2

     total cpu time spent up to now is      471.5 secs

     total energy              =   -3673.33143975 Ry
     Harris-Foulkes estimate   =   -3673.33144094 Ry
     estimated scf accuracy    <       0.00000202 Ry

     total magnetization       =     0.01 Bohr mag/cell
     absolute magnetization    =     0.02 Bohr mag/cell

     iteration # 74     ecut=    45.00 Ry     beta= 0.10
     Davidson diagonalization with overlap
     ethr =  2.73E-09,  avg # of iterations =  1.3

     total cpu time spent up to now is      477.8 secs

     total energy              =   -3673.33143560 Ry
     Harris-Foulkes estimate   =   -3673.33144058 Ry
     estimated scf accuracy    <       0.00000250 Ry

     total magnetization       =     0.01 Bohr mag/cell
     absolute magnetization    =     0.02 Bohr mag/cell

     iteration # 75     ecut=    45.00 Ry     beta= 0.10
     Davidson diagonalization with overlap
     ethr =  2.73E-09,  avg # of iterations =  2.3

     total cpu time spent up to now is      486.0 secs

     total energy              =   -3673.33143951 Ry
     Harris-Foulkes estimate   =   -3673.33144034 Ry
     estimated scf accuracy    <       0.00000240 Ry

     total magnetization       =     0.01 Bohr mag/cell
     absolute magnetization    =     0.03 Bohr mag/cell

     iteration # 76     ecut=    45.00 Ry     beta= 0.10
     Davidson diagonalization with overlap
     ethr =  2.73E-09,  avg # of iterations =  1.0

     total cpu time spent up to now is      491.9 secs

     total energy              =   -3673.33143874 Ry
     Harris-Foulkes estimate   =   -3673.33144066 Ry
     estimated scf accuracy    <       0.00000231 Ry

     total magnetization       =     0.01 Bohr mag/cell
     absolute magnetization    =     0.02 Bohr mag/cell

     iteration # 77     ecut=    45.00 Ry     beta= 0.10
     Davidson diagonalization with overlap
     ethr =  2.73E-09,  avg # of iterations =  1.4

     total cpu time spent up to now is      498.4 secs

     total energy              =   -3673.33144117 Ry
     Harris-Foulkes estimate   =   -3673.33144159 Ry
     estimated scf accuracy    <       0.00000186 Ry

     total magnetization       =     0.01 Bohr mag/cell
     absolute magnetization    =     0.02 Bohr mag/cell

     iteration # 78     ecut=    45.00 Ry     beta= 0.10
     Davidson diagonalization with overlap
     ethr =  2.52E-09,  avg # of iterations =  1.3

     total cpu time spent up to now is      504.7 secs

     total energy              =   -3673.33144025 Ry
     Harris-Foulkes estimate   =   -3673.33144048 Ry
     estimated scf accuracy    <       0.00000278 Ry

     total magnetization       =     0.01 Bohr mag/cell
     absolute magnetization    =     0.02 Bohr mag/cell

     iteration # 79     ecut=    45.00 Ry     beta= 0.10
     Davidson diagonalization with overlap
     ethr =  2.52E-09,  avg # of iterations =  1.1

     total cpu time spent up to now is      510.7 secs

     total energy              =   -3673.33144098 Ry
     Harris-Foulkes estimate   =   -3673.33144061 Ry
     estimated scf accuracy    <       0.00000198 Ry

     total magnetization       =     0.01 Bohr mag/cell
     absolute magnetization    =     0.02 Bohr mag/cell

     iteration # 80     ecut=    45.00 Ry     beta= 0.10
     Davidson diagonalization with overlap
     ethr =  2.52E-09,  avg # of iterations =  1.0

     total cpu time spent up to now is      516.6 secs

     total energy              =   -3673.33144018 Ry
     Harris-Foulkes estimate   =   -3673.33144071 Ry
     estimated scf accuracy    <       0.00000215 Ry

     total magnetization       =     0.01 Bohr mag/cell
     absolute magnetization    =     0.02 Bohr mag/cell

     iteration # 81     ecut=    45.00 Ry     beta= 0.10
     Davidson diagonalization with overlap
     ethr =  2.52E-09,  avg # of iterations =  1.0

     total cpu time spent up to now is      522.6 secs

     total energy              =   -3673.33144119 Ry
     Harris-Foulkes estimate   =   -3673.33144082 Ry
     estimated scf accuracy    <       0.00000219 Ry

     total magnetization       =     0.01 Bohr mag/cell
     absolute magnetization    =     0.02 Bohr mag/cell

     iteration # 82     ecut=    45.00 Ry     beta= 0.10
     Davidson diagonalization with overlap
     ethr =  2.52E-09,  avg # of iterations =  1.0

     total cpu time spent up to now is      528.5 secs

     total energy              =   -3673.33143972 Ry
     Harris-Foulkes estimate   =   -3673.33144071 Ry
     estimated scf accuracy    <       0.00000302 Ry

     total magnetization       =     0.01 Bohr mag/cell
     absolute magnetization    =     0.03 Bohr mag/cell

     iteration # 83     ecut=    45.00 Ry     beta= 0.10
     Davidson diagonalization with overlap
     ethr =  2.52E-09,  avg # of iterations =  1.0

     total cpu time spent up to now is      534.4 secs

     total energy              =   -3673.33143918 Ry
     Harris-Foulkes estimate   =   -3673.33144093 Ry
     estimated scf accuracy    <       0.00000280 Ry

     total magnetization       =     0.01 Bohr mag/cell
     absolute magnetization    =     0.03 Bohr mag/cell

     iteration # 84     ecut=    45.00 Ry     beta= 0.10
     Davidson diagonalization with overlap
     ethr =  2.52E-09,  avg # of iterations =  1.4

     total cpu time spent up to now is      540.9 secs

     total energy              =   -3673.33144126 Ry
     Harris-Foulkes estimate   =   -3673.33144227 Ry
     estimated scf accuracy    <       0.00000557 Ry

     total magnetization       =     0.01 Bohr mag/cell
     absolute magnetization    =     0.02 Bohr mag/cell

     iteration # 85     ecut=    45.00 Ry     beta= 0.10
     Davidson diagonalization with overlap
     ethr =  2.52E-09,  avg # of iterations =  1.0

     total cpu time spent up to now is      546.8 secs

     total energy              =   -3673.33144071 Ry
     Harris-Foulkes estimate   =   -3673.33144190 Ry
     estimated scf accuracy    <       0.00000951 Ry

     total magnetization       =     0.01 Bohr mag/cell
     absolute magnetization    =     0.02 Bohr mag/cell

     iteration # 86     ecut=    45.00 Ry     beta= 0.10
     Davidson diagonalization with overlap
     ethr =  2.52E-09,  avg # of iterations =  1.1

     total cpu time spent up to now is      552.7 secs

     total energy              =   -3673.33143989 Ry
     Harris-Foulkes estimate   =   -3673.33144140 Ry
     estimated scf accuracy    <       0.00000346 Ry

     total magnetization       =     0.01 Bohr mag/cell
     absolute magnetization    =     0.02 Bohr mag/cell

     iteration # 87     ecut=    45.00 Ry     beta= 0.10
     Davidson diagonalization with overlap
     ethr =  2.52E-09,  avg # of iterations =  1.1

     total cpu time spent up to now is      558.8 secs

     total energy              =   -3673.33144053 Ry
     Harris-Foulkes estimate   =   -3673.33144086 Ry
     estimated scf accuracy    <       0.00000198 Ry

     total magnetization       =     0.01 Bohr mag/cell
     absolute magnetization    =     0.02 Bohr mag/cell

     iteration # 88     ecut=    45.00 Ry     beta= 0.10
     Davidson diagonalization with overlap
     ethr =  2.52E-09,  avg # of iterations =  1.0

     total cpu time spent up to now is      564.7 secs

     total energy              =   -3673.33144064 Ry
     Harris-Foulkes estimate   =   -3673.33144090 Ry
     estimated scf accuracy    <       0.00000197 Ry

     total magnetization       =     0.01 Bohr mag/cell
     absolute magnetization    =     0.02 Bohr mag/cell

     iteration # 89     ecut=    45.00 Ry     beta= 0.10
     Davidson diagonalization with overlap
     ethr =  2.52E-09,  avg # of iterations =  1.0

     total cpu time spent up to now is      570.6 secs

     total energy              =   -3673.33144134 Ry
     Harris-Foulkes estimate   =   -3673.33144091 Ry
     estimated scf accuracy    <       0.00000195 Ry

     total magnetization       =     0.01 Bohr mag/cell
     absolute magnetization    =     0.02 Bohr mag/cell

     iteration # 90     ecut=    45.00 Ry     beta= 0.10
     Davidson diagonalization with overlap
     ethr =  2.52E-09,  avg # of iterations =  1.1

     total cpu time spent up to now is      576.6 secs

     total energy              =   -3673.33144009 Ry
     Harris-Foulkes estimate   =   -3673.33144140 Ry
     estimated scf accuracy    <       0.00000253 Ry

     total magnetization       =     0.01 Bohr mag/cell
     absolute magnetization    =     0.02 Bohr mag/cell

     iteration # 91     ecut=    45.00 Ry     beta= 0.10
     Davidson diagonalization with overlap
     ethr =  2.52E-09,  avg # of iterations =  1.0

     total cpu time spent up to now is      582.6 secs

     total energy              =   -3673.33144130 Ry
     Harris-Foulkes estimate   =   -3673.33144145 Ry
     estimated scf accuracy    <       0.00000235 Ry

     total magnetization       =     0.01 Bohr mag/cell
     absolute magnetization    =     0.02 Bohr mag/cell

     iteration # 92     ecut=    45.00 Ry     beta= 0.10
     Davidson diagonalization with overlap
     ethr =  2.52E-09,  avg # of iterations =  1.0

     total cpu time spent up to now is      588.5 secs

     total energy              =   -3673.33144119 Ry
     Harris-Foulkes estimate   =   -3673.33144159 Ry
     estimated scf accuracy    <       0.00000229 Ry

     total magnetization       =     0.01 Bohr mag/cell
     absolute magnetization    =     0.02 Bohr mag/cell

     iteration # 93     ecut=    45.00 Ry     beta= 0.10
     Davidson diagonalization with overlap
     ethr =  2.52E-09,  avg # of iterations =  1.0

     total cpu time spent up to now is      594.4 secs

     total energy              =   -3673.33144162 Ry
     Harris-Foulkes estimate   =   -3673.33144158 Ry
     estimated scf accuracy    <       0.00000159 Ry

     total magnetization       =     0.01 Bohr mag/cell
     absolute magnetization    =     0.02 Bohr mag/cell

     iteration # 94     ecut=    45.00 Ry     beta= 0.10
     Davidson diagonalization with overlap
     ethr =  2.14E-09,  avg # of iterations =  1.0

     total cpu time spent up to now is      600.3 secs

     total energy              =   -3673.33144197 Ry
     Harris-Foulkes estimate   =   -3673.33144167 Ry
     estimated scf accuracy    <       0.00000156 Ry

     total magnetization       =     0.01 Bohr mag/cell
     absolute magnetization    =     0.02 Bohr mag/cell

     iteration # 95     ecut=    45.00 Ry     beta= 0.10
     Davidson diagonalization with overlap
     ethr =  2.11E-09,  avg # of iterations =  1.0

     total cpu time spent up to now is      606.2 secs

     total energy              =   -3673.33144114 Ry
     Harris-Foulkes estimate   =   -3673.33144196 Ry
     estimated scf accuracy    <       0.00000172 Ry

     total magnetization       =     0.01 Bohr mag/cell
     absolute magnetization    =     0.02 Bohr mag/cell

     iteration # 96     ecut=    45.00 Ry     beta= 0.10
     Davidson diagonalization with overlap
     ethr =  2.11E-09,  avg # of iterations =  1.5

     total cpu time spent up to now is      612.7 secs

     total energy              =   -3673.33143905 Ry
     Harris-Foulkes estimate   =   -3673.33144038 Ry
     estimated scf accuracy    <       0.00000282 Ry

     total magnetization       =     0.01 Bohr mag/cell
     absolute magnetization    =     0.02 Bohr mag/cell

     iteration # 97     ecut=    45.00 Ry     beta= 0.10
     Davidson diagonalization with overlap
     ethr =  2.11E-09,  avg # of iterations =  1.1

     total cpu time spent up to now is      618.7 secs

     total energy              =   -3673.33144122 Ry
     Harris-Foulkes estimate   =   -3673.33144034 Ry
     estimated scf accuracy    <       0.00000260 Ry

     total magnetization       =     0.01 Bohr mag/cell
     absolute magnetization    =     0.02 Bohr mag/cell

     iteration # 98     ecut=    45.00 Ry     beta= 0.10
     Davidson diagonalization with overlap
     ethr =  2.11E-09,  avg # of iterations =  1.0

     total cpu time spent up to now is      624.7 secs

     total energy              =   -3673.33144030 Ry
     Harris-Foulkes estimate   =   -3673.33144004 Ry
     estimated scf accuracy    <       0.00000368 Ry

     total magnetization       =     0.01 Bohr mag/cell
     absolute magnetization    =     0.03 Bohr mag/cell

     iteration # 99     ecut=    45.00 Ry     beta= 0.10
     Davidson diagonalization with overlap
     ethr =  2.11E-09,  avg # of iterations =  1.0

     total cpu time spent up to now is      630.6 secs

     total energy              =   -3673.33143998 Ry
     Harris-Foulkes estimate   =   -3673.33144009 Ry
     estimated scf accuracy    <       0.00000390 Ry

     total magnetization       =     0.01 Bohr mag/cell
     absolute magnetization    =     0.03 Bohr mag/cell

     iteration #100     ecut=    45.00 Ry     beta= 0.10
     Davidson diagonalization with overlap
     ethr =  2.11E-09,  avg # of iterations =  1.0

     Magnetic moment per site:
     atom:    1    charge:   13.6446    magn:    0.0016    constr:    0.0000
     atom:    2    charge:   13.6448    magn:    0.0024    constr:    0.0000
     atom:    3    charge:    9.0828    magn:    0.0005    constr:    0.0000
     atom:    4    charge:    9.0828    magn:    0.0005    constr:    0.0000
     atom:    5    charge:    9.0830    magn:   -0.0008    constr:    0.0000
     atom:    6    charge:    9.0830    magn:   -0.0008    constr:    0.0000

     total cpu time spent up to now is      636.5 secs

     total energy              =   -3673.33143997 Ry
     Harris-Foulkes estimate   =   -3673.33144024 Ry
     estimated scf accuracy    <       0.00000404 Ry

     total magnetization       =     0.01 Bohr mag/cell
     absolute magnetization    =     0.03 Bohr mag/cell

     End of self-consistent calculation

     convergence NOT achieved after 100 iterations: stopping

     Writing output data file mnau2.save/

     init_run     :      3.68s CPU      3.90s WALL (       1 calls)
     electrons    :    610.62s CPU    627.49s WALL (       1 calls)

     Called by init_run:
     wfcinit      :      2.32s CPU      2.43s WALL (       1 calls)
     potinit      :      0.66s CPU      0.72s WALL (       1 calls)
     hinit0       :      0.57s CPU      0.60s WALL (       1 calls)

     Called by electrons:
     c_bands      :    455.19s CPU    468.71s WALL (     100 calls)
     sum_band     :    105.69s CPU    108.79s WALL (     100 calls)
     v_of_rho     :      3.42s CPU      3.44s WALL (     101 calls)
     newd         :      6.90s CPU      6.93s WALL (     101 calls)
     PAW_pot      :     39.29s CPU     39.32s WALL (     101 calls)
     mix_rho      :      0.38s CPU      0.39s WALL (     100 calls)

     Called by c_bands:
     init_us_2    :      6.70s CPU      6.89s WALL (   30150 calls)
     cegterg      :    435.22s CPU    448.30s WALL (   15000 calls)

     Called by sum_band:
     sum_band:bec :      0.66s CPU      0.68s WALL (   15000 calls)
     addusdens    :     14.15s CPU     14.18s WALL (     100 calls)

     Called by *egterg:
     h_psi        :    209.40s CPU    221.73s WALL (   33391 calls)
     s_psi        :      9.69s CPU      9.79s WALL (   33391 calls)
     g_psi        :      1.23s CPU      1.24s WALL (   18241 calls)
     cdiaghg      :    173.94s CPU    174.38s WALL (   33241 calls)

     Called by h_psi:
     h_psi:pot    :    207.70s CPU    220.01s WALL (   33391 calls)
     h_psi:calbec :     16.34s CPU     17.16s WALL (   33391 calls)
     vloc_psi     :    181.11s CPU    192.37s WALL (   33391 calls)
     add_vuspsi   :     10.10s CPU     10.35s WALL (   33391 calls)

     General routines
     calbec       :     23.60s CPU     24.78s WALL (   48391 calls)
     fft          :      1.21s CPU      1.26s WALL (    2525 calls)
     ffts         :      0.05s CPU      0.05s WALL (     402 calls)
     fftw         :    211.74s CPU    224.53s WALL ( 3339988 calls)
     interpolate  :      0.13s CPU      0.13s WALL (     202 calls)
     davcio       :      0.00s CPU      0.01s WALL (     168 calls)

     Parallel routines
     fft_scatt_xy :     27.57s CPU     29.18s WALL ( 3342915 calls)
     fft_scatt_yz :    105.23s CPU    111.99s WALL ( 3342915 calls)

     PWSCF        : 10m17.78s CPU    10m40.31s WALL


   This run was terminated on:  15:42:35  14Feb2019            

=------------------------------------------------------------------------------=
   JOB DONE.
=------------------------------------------------------------------------------=
-------------------------------------------------------
Primary job  terminated normally, but 1 process returned
a non-zero exit code. Per user-direction, the job has been aborted.
-------------------------------------------------------
