
     Program PWSCF v.6.3 starts on 13Feb2019 at 14: 9:20 

     This program is part of the open-source Quantum ESPRESSO suite
     for quantum simulation of materials; please cite
         "P. Giannozzi et al., J. Phys.:Condens. Matter 21 395502 (2009);
         "P. Giannozzi et al., J. Phys.:Condens. Matter 29 465901 (2017);
          URL http://www.quantum-espresso.org", 
     in publications or presentations arising from this work. More details at
     http://www.quantum-espresso.org/quote

     Parallel version (MPI), running on    16 processors

     MPI processes distributed on     1 nodes
     R & G space division:  proc/nbgrp/npool/nimage =      16
     Waiting for input...
     Reading input from standard input

     Current dimensions of program PWSCF are:
     Max number of different atomic species (ntypx) = 10
     Max number of k-points (npk) =  40000
     Max angular momentum in pseudopotentials (lmaxx) =  3
     Message from routine read_upf::
     Pseudo file ./pseudo/Mn.pbe-spn-kjpaw_psl.0.3.1.UPF has been successfully fixed on the fly.
To avoid this message in the future you can permanently fix 
 your pseudo files following instructions given in: 
https://gitlab.com/QEF/q-e/blob/master/upftools/how_to_fix_upf.md
               file Mn.pbe-spn-kjpaw_psl.0.3.1.UPF: wavefunction(s)  3P 3D renormalized
     Message from routine read_upf::
     Pseudo file ./pseudo/Mn.pbe-spn-kjpaw_psl.0.3.1.UPF has been successfully fixed on the fly.
To avoid this message in the future you can permanently fix 
 your pseudo files following instructions given in: 
https://gitlab.com/QEF/q-e/blob/master/upftools/how_to_fix_upf.md
               file Mn.pbe-spn-kjpaw_psl.0.3.1.UPF: wavefunction(s)  3P 3D renormalized
     Message from routine read_upf::
     Pseudo file ./pseudo/Au.pbe-dn-kjpaw_psl.0.1.UPF has been successfully fixed on the fly.
To avoid this message in the future you can permanently fix 
 your pseudo files following instructions given in: 
https://gitlab.com/QEF/q-e/blob/master/upftools/how_to_fix_upf.md
               file Au.pbe-dn-kjpaw_psl.0.1.UPF: wavefunction(s)  6S 6P 5D renormalized

     Subspace diagonalization in iterative solution of the eigenvalue problem:
     one sub-group per band group will be used
     scalapack distributed-memory algorithm (size of sub-group:  2*  2 procs)


     Parallelization info
     --------------------
     sticks:   dense  smooth     PW     G-vecs:    dense   smooth      PW
     Min          82      37     11                 5828     1761     297
     Max          83      38     12                 5836     1770     308
     Sum        1313     593    177                93331    28191    4775



     bravais-lattice index     =            0
     lattice parameter (alat)  =       6.4153  a.u.
     unit-cell volume          =     690.6834 (a.u.)^3
     number of atoms/cell      =            6
     number of atomic types    =            3
     number of electrons       =        74.00
     number of Kohn-Sham states=           44
     kinetic-energy cutoff     =      45.0000  Ry
     charge density cutoff     =     400.0000  Ry
     convergence threshold     =      1.0E-06
     mixing beta               =       0.0500
     number of iterations used =            8  plain     mixing
     Exchange-correlation      = SLA PW PBX PBC ( 1  4  3  4 0 0)

     celldm(1)=   6.415316  celldm(2)=   0.000000  celldm(3)=   0.000000
     celldm(4)=   0.000000  celldm(5)=   0.000000  celldm(6)=   0.000000

     crystal axes: (cart. coord. in units of alat)
               a(1) = (   1.000000   0.000000   0.000000 )  
               a(2) = (   0.000000   1.000000   0.000000 )  
               a(3) = (   0.000000   0.000000   2.615923 )  

     reciprocal axes: (cart. coord. in units 2 pi/alat)
               b(1) = (  1.000000  0.000000  0.000000 )  
               b(2) = (  0.000000  1.000000  0.000000 )  
               b(3) = (  0.000000  0.000000  0.382274 )  


     PseudoPot. # 1 for Mn read from file:
     ./pseudo/Mn.pbe-spn-kjpaw_psl.0.3.1.UPF
     MD5 check sum: 7eef95dd2aae66803482eea66ebeebf1
     Pseudo is Projector augmented-wave + core cor, Zval = 15.0
     Generated using "atomic" code by A. Dal Corso v.5.0.99 svn rev. 10869
     Shape of augmentation charge: PSQ
     Using radial grid of 1187 points,  6 beta functions with: 
                l(1) =   0
                l(2) =   0
                l(3) =   1
                l(4) =   1
                l(5) =   2
                l(6) =   2
     Q(r) pseudized with 0 coefficients 


     PseudoPot. # 2 for Mn read from file:
     ./pseudo/Mn.pbe-spn-kjpaw_psl.0.3.1.UPF
     MD5 check sum: 7eef95dd2aae66803482eea66ebeebf1
     Pseudo is Projector augmented-wave + core cor, Zval = 15.0
     Generated using "atomic" code by A. Dal Corso v.5.0.99 svn rev. 10869
     Shape of augmentation charge: PSQ
     Using radial grid of 1187 points,  6 beta functions with: 
                l(1) =   0
                l(2) =   0
                l(3) =   1
                l(4) =   1
                l(5) =   2
                l(6) =   2
     Q(r) pseudized with 0 coefficients 


     PseudoPot. # 3 for Au read from file:
     ./pseudo/Au.pbe-dn-kjpaw_psl.0.1.UPF
     MD5 check sum: 5c9b92683623e7ae2ab3f8e525febab6
     Pseudo is Projector augmented-wave + core cor, Zval = 11.0
     Generated using "atomic" code by A. Dal Corso v.5.0.2 svn rev. 9415
     Shape of augmentation charge: PSQ
     Using radial grid of 1279 points,  6 beta functions with: 
                l(1) =   0
                l(2) =   0
                l(3) =   1
                l(4) =   1
                l(5) =   2
                l(6) =   2
     Q(r) pseudized with 0 coefficients 


     atomic species   valence    mass     pseudopotential
        Mn1           15.00    54.93800     Mn( 1.00)
        Mn2           15.00    54.93800     Mn( 1.00)
        Au            11.00   196.96600     Au( 1.00)

     Starting magnetic structure 
     atomic species   magnetization
        Mn1          0.000
        Mn2          0.000
        Au           0.000

     16 Sym. Ops., with inversion, found



   Cartesian axes

     site n.     atom                  positions (alat units)
         1           Mn1 tau(   1) = (   0.0000000   0.0000000   0.0000000  )
         2           Mn2 tau(   2) = (   0.5000000   0.5000000   1.3079613  )
         3           Au  tau(   3) = (   0.5000000   0.5000000   2.1982094  )
         4           Au  tau(   4) = (   0.5000000   0.5000000   0.4177131  )
         5           Au  tau(   5) = (   0.0000000   0.0000000   0.8902482  )
         6           Au  tau(   6) = (   0.0000000   0.0000000   1.7256744  )

     number of k points=   405 (tetrahedron method)

     Number of k-points >= 100: set verbosity='high' to print them.

     Dense  grid:    93331 G-vectors     FFT dimensions: (  45,  45, 108)

     Smooth grid:    28191 G-vectors     FFT dimensions: (  27,  27,  72)

     Estimated max dynamical RAM per process >     148.10 MB

     Estimated total dynamical RAM >       2.31 GB
     Generating pointlists ...
     new r_m :   0.3388 (alat units)  2.1733 (a.u.) for type    1
     new r_m :   0.3388 (alat units)  2.1733 (a.u.) for type    2
     new r_m :   0.3388 (alat units)  2.1733 (a.u.) for type    3

     Check: negative/imaginary core charge=   -0.000006    0.000000

     Initial potential from superposition of free atoms

     starting charge   73.99857, renormalised to   74.00000
     Starting wfcs are   56 randomized atomic wfcs
     Checking if some PAW data can be deallocated... 

     total cpu time spent up to now is       16.1 secs

     Self-consistent Calculation

     iteration #  1     ecut=    45.00 Ry     beta= 0.05
     Davidson diagonalization with overlap
     ethr =  1.00E-02,  avg # of iterations =  2.3

     total cpu time spent up to now is       49.8 secs

     total energy              =   -3672.94209626 Ry
     Harris-Foulkes estimate   =   -3673.96498870 Ry
     estimated scf accuracy    <      10.93479066 Ry

     total magnetization       =    -0.00 Bohr mag/cell
     absolute magnetization    =     0.02 Bohr mag/cell

     iteration #  2     ecut=    45.00 Ry     beta= 0.05
     Davidson diagonalization with overlap
     ethr =  1.00E-02,  avg # of iterations =  1.0

     total cpu time spent up to now is       75.9 secs

     total energy              =   -3673.39135497 Ry
     Harris-Foulkes estimate   =   -3673.43826170 Ry
     estimated scf accuracy    <       0.52721063 Ry

     total magnetization       =    -0.00 Bohr mag/cell
     absolute magnetization    =     0.03 Bohr mag/cell

     iteration #  3     ecut=    45.00 Ry     beta= 0.05
     Davidson diagonalization with overlap
     ethr =  7.12E-04,  avg # of iterations =  2.4

     total cpu time spent up to now is      110.7 secs

     total energy              =   -3673.35635251 Ry
     Harris-Foulkes estimate   =   -3673.41145271 Ry
     estimated scf accuracy    <       0.31081544 Ry

     total magnetization       =    -0.01 Bohr mag/cell
     absolute magnetization    =     0.03 Bohr mag/cell

     iteration #  4     ecut=    45.00 Ry     beta= 0.05
     Davidson diagonalization with overlap
     ethr =  4.20E-04,  avg # of iterations =  1.2

     total cpu time spent up to now is      137.7 secs

     total energy              =   -3673.29240303 Ry
     Harris-Foulkes estimate   =   -3673.38188484 Ry
     estimated scf accuracy    <       2.54110313 Ry

     total magnetization       =    -0.01 Bohr mag/cell
     absolute magnetization    =     0.04 Bohr mag/cell

     iteration #  5     ecut=    45.00 Ry     beta= 0.05
     Davidson diagonalization with overlap
     ethr =  4.20E-04,  avg # of iterations =  1.3

     total cpu time spent up to now is      165.5 secs

     total energy              =   -3673.32698929 Ry
     Harris-Foulkes estimate   =   -3673.33416730 Ry
     estimated scf accuracy    <       0.11062666 Ry

     total magnetization       =    -0.02 Bohr mag/cell
     absolute magnetization    =     0.04 Bohr mag/cell

     iteration #  6     ecut=    45.00 Ry     beta= 0.05
     Davidson diagonalization with overlap
     ethr =  1.49E-04,  avg # of iterations =  1.6

     total cpu time spent up to now is      194.5 secs

     total energy              =   -3673.33118867 Ry
     Harris-Foulkes estimate   =   -3673.33205156 Ry
     estimated scf accuracy    <       0.00784195 Ry

     total magnetization       =    -0.02 Bohr mag/cell
     absolute magnetization    =     0.05 Bohr mag/cell

     iteration #  7     ecut=    45.00 Ry     beta= 0.05
     Davidson diagonalization with overlap
     ethr =  1.06E-05,  avg # of iterations =  3.4

     total cpu time spent up to now is      237.5 secs

     total energy              =   -3673.33182448 Ry
     Harris-Foulkes estimate   =   -3673.33204084 Ry
     estimated scf accuracy    <       0.00947066 Ry

     total magnetization       =    -0.03 Bohr mag/cell
     absolute magnetization    =     0.05 Bohr mag/cell

     iteration #  8     ecut=    45.00 Ry     beta= 0.05
     Davidson diagonalization with overlap
     ethr =  1.06E-05,  avg # of iterations =  2.3

     total cpu time spent up to now is      279.7 secs

     total energy              =   -3673.33262020 Ry
     Harris-Foulkes estimate   =   -3673.33571900 Ry
     estimated scf accuracy    <       0.03605477 Ry

     total magnetization       =    -0.09 Bohr mag/cell
     absolute magnetization    =     0.12 Bohr mag/cell

     iteration #  9     ecut=    45.00 Ry     beta= 0.05
     Davidson diagonalization with overlap
     ethr =  1.06E-05,  avg # of iterations =  1.1

     total cpu time spent up to now is      306.1 secs

     total energy              =   -3673.32920398 Ry
     Harris-Foulkes estimate   =   -3673.33311441 Ry
     estimated scf accuracy    <       0.01709288 Ry

     total magnetization       =    -0.10 Bohr mag/cell
     absolute magnetization    =     0.13 Bohr mag/cell

     iteration # 10     ecut=    45.00 Ry     beta= 0.05
     Davidson diagonalization with overlap
     ethr =  1.06E-05,  avg # of iterations =  2.7

     total cpu time spent up to now is      344.8 secs

     total energy              =   -3673.33179181 Ry
     Harris-Foulkes estimate   =   -3673.33192558 Ry
     estimated scf accuracy    <       0.00459469 Ry

     total magnetization       =    -0.17 Bohr mag/cell
     absolute magnetization    =     0.20 Bohr mag/cell

     iteration # 11     ecut=    45.00 Ry     beta= 0.05
     Davidson diagonalization with overlap
     ethr =  6.21E-06,  avg # of iterations =  1.0

     total cpu time spent up to now is      370.8 secs

     total energy              =   -3673.33168382 Ry
     Harris-Foulkes estimate   =   -3673.33188487 Ry
     estimated scf accuracy    <       0.00325390 Ry

     total magnetization       =    -0.15 Bohr mag/cell
     absolute magnetization    =     0.18 Bohr mag/cell

     iteration # 12     ecut=    45.00 Ry     beta= 0.05
     Davidson diagonalization with overlap
     ethr =  4.40E-06,  avg # of iterations =  1.0

     total cpu time spent up to now is      396.7 secs

     total energy              =   -3673.33124764 Ry
     Harris-Foulkes estimate   =   -3673.33170963 Ry
     estimated scf accuracy    <       0.00304753 Ry

     total magnetization       =    -0.12 Bohr mag/cell
     absolute magnetization    =     0.16 Bohr mag/cell

     iteration # 13     ecut=    45.00 Ry     beta= 0.05
     Davidson diagonalization with overlap
     ethr =  4.12E-06,  avg # of iterations =  1.7

     total cpu time spent up to now is      426.7 secs

     total energy              =   -3673.33145856 Ry
     Harris-Foulkes estimate   =   -3673.33145377 Ry
     estimated scf accuracy    <       0.00027399 Ry

     total magnetization       =     0.01 Bohr mag/cell
     absolute magnetization    =     0.08 Bohr mag/cell

     iteration # 14     ecut=    45.00 Ry     beta= 0.05
     Davidson diagonalization with overlap
     ethr =  3.70E-07,  avg # of iterations =  2.3

     total cpu time spent up to now is      461.4 secs

     total energy              =   -3673.33145240 Ry
     Harris-Foulkes estimate   =   -3673.33147830 Ry
     estimated scf accuracy    <       0.00019142 Ry

     total magnetization       =     0.02 Bohr mag/cell
     absolute magnetization    =     0.08 Bohr mag/cell

     iteration # 15     ecut=    45.00 Ry     beta= 0.05
     Davidson diagonalization with overlap
     ethr =  2.59E-07,  avg # of iterations =  1.0

     total cpu time spent up to now is      487.5 secs

     total energy              =   -3673.33146446 Ry
     Harris-Foulkes estimate   =   -3673.33146143 Ry
     estimated scf accuracy    <       0.00010130 Ry

     total magnetization       =     0.02 Bohr mag/cell
     absolute magnetization    =     0.09 Bohr mag/cell

     iteration # 16     ecut=    45.00 Ry     beta= 0.05
     Davidson diagonalization with overlap
     ethr =  1.37E-07,  avg # of iterations =  1.1

     total cpu time spent up to now is      513.8 secs

     total energy              =   -3673.33144568 Ry
     Harris-Foulkes estimate   =   -3673.33146809 Ry
     estimated scf accuracy    <       0.00009483 Ry

     total magnetization       =     0.03 Bohr mag/cell
     absolute magnetization    =     0.10 Bohr mag/cell

     iteration # 17     ecut=    45.00 Ry     beta= 0.05
     Davidson diagonalization with overlap
     ethr =  1.28E-07,  avg # of iterations =  2.5

     total cpu time spent up to now is      549.5 secs

     total energy              =   -3673.33142045 Ry
     Harris-Foulkes estimate   =   -3673.33146398 Ry
     estimated scf accuracy    <       0.00018943 Ry

     total magnetization       =     0.02 Bohr mag/cell
     absolute magnetization    =     0.08 Bohr mag/cell

     iteration # 18     ecut=    45.00 Ry     beta= 0.05
     Davidson diagonalization with overlap
     ethr =  1.28E-07,  avg # of iterations =  1.0

     total cpu time spent up to now is      575.5 secs

     total energy              =   -3673.33142682 Ry
     Harris-Foulkes estimate   =   -3673.33144119 Ry
     estimated scf accuracy    <       0.00009300 Ry

     total magnetization       =    -0.02 Bohr mag/cell
     absolute magnetization    =     0.05 Bohr mag/cell

     iteration # 19     ecut=    45.00 Ry     beta= 0.05
     Davidson diagonalization with overlap
     ethr =  1.26E-07,  avg # of iterations =  1.4

     total cpu time spent up to now is      603.8 secs

     total energy              =   -3673.33142204 Ry
     Harris-Foulkes estimate   =   -3673.33143085 Ry
     estimated scf accuracy    <       0.00003008 Ry

     total magnetization       =    -0.03 Bohr mag/cell
     absolute magnetization    =     0.05 Bohr mag/cell

     iteration # 20     ecut=    45.00 Ry     beta= 0.05
     Davidson diagonalization with overlap
     ethr =  4.06E-08,  avg # of iterations =  1.9

     total cpu time spent up to now is      635.0 secs

     total energy              =   -3673.33142730 Ry
     Harris-Foulkes estimate   =   -3673.33142632 Ry
     estimated scf accuracy    <       0.00001941 Ry

     total magnetization       =    -0.02 Bohr mag/cell
     absolute magnetization    =     0.05 Bohr mag/cell

     iteration # 21     ecut=    45.00 Ry     beta= 0.05
     Davidson diagonalization with overlap
     ethr =  2.62E-08,  avg # of iterations =  1.0

     total cpu time spent up to now is      660.9 secs

     total energy              =   -3673.33143100 Ry
     Harris-Foulkes estimate   =   -3673.33142827 Ry
     estimated scf accuracy    <       0.00001696 Ry

     total magnetization       =    -0.01 Bohr mag/cell
     absolute magnetization    =     0.05 Bohr mag/cell

     iteration # 22     ecut=    45.00 Ry     beta= 0.05
     Davidson diagonalization with overlap
     ethr =  2.29E-08,  avg # of iterations =  1.0

     total cpu time spent up to now is      687.0 secs

     total energy              =   -3673.33142763 Ry
     Harris-Foulkes estimate   =   -3673.33143084 Ry
     estimated scf accuracy    <       0.00001773 Ry

     total magnetization       =    -0.00 Bohr mag/cell
     absolute magnetization    =     0.06 Bohr mag/cell

     iteration # 23     ecut=    45.00 Ry     beta= 0.05
     Davidson diagonalization with overlap
     ethr =  2.29E-08,  avg # of iterations =  1.0

     total cpu time spent up to now is      712.9 secs

     total energy              =   -3673.33142614 Ry
     Harris-Foulkes estimate   =   -3673.33142852 Ry
     estimated scf accuracy    <       0.00001712 Ry

     total magnetization       =    -0.00 Bohr mag/cell
     absolute magnetization    =     0.05 Bohr mag/cell

     iteration # 24     ecut=    45.00 Ry     beta= 0.05
     Davidson diagonalization with overlap
     ethr =  2.29E-08,  avg # of iterations =  1.0

     total cpu time spent up to now is      738.7 secs

     total energy              =   -3673.33142891 Ry
     Harris-Foulkes estimate   =   -3673.33142734 Ry
     estimated scf accuracy    <       0.00003033 Ry

     total magnetization       =    -0.00 Bohr mag/cell
     absolute magnetization    =     0.04 Bohr mag/cell

     iteration # 25     ecut=    45.00 Ry     beta= 0.05
     Davidson diagonalization with overlap
     ethr =  2.29E-08,  avg # of iterations =  1.0

     total cpu time spent up to now is      764.6 secs

     total energy              =   -3673.33143022 Ry
     Harris-Foulkes estimate   =   -3673.33142903 Ry
     estimated scf accuracy    <       0.00001576 Ry

     total magnetization       =    -0.00 Bohr mag/cell
     absolute magnetization    =     0.05 Bohr mag/cell

     iteration # 26     ecut=    45.00 Ry     beta= 0.05
     Davidson diagonalization with overlap
     ethr =  2.13E-08,  avg # of iterations =  1.0

     total cpu time spent up to now is      790.6 secs

     total energy              =   -3673.33142617 Ry
     Harris-Foulkes estimate   =   -3673.33143053 Ry
     estimated scf accuracy    <       0.00001875 Ry

     total magnetization       =    -0.00 Bohr mag/cell
     absolute magnetization    =     0.05 Bohr mag/cell

     iteration # 27     ecut=    45.00 Ry     beta= 0.05
     Davidson diagonalization with overlap
     ethr =  2.13E-08,  avg # of iterations =  1.0

     total cpu time spent up to now is      816.4 secs

     total energy              =   -3673.33142921 Ry
     Harris-Foulkes estimate   =   -3673.33142967 Ry
     estimated scf accuracy    <       0.00002144 Ry

     total magnetization       =     0.00 Bohr mag/cell
     absolute magnetization    =     0.04 Bohr mag/cell

     iteration # 28     ecut=    45.00 Ry     beta= 0.05
     Davidson diagonalization with overlap
     ethr =  2.13E-08,  avg # of iterations =  1.0

     total cpu time spent up to now is      842.1 secs

     total energy              =   -3673.33142695 Ry
     Harris-Foulkes estimate   =   -3673.33142964 Ry
     estimated scf accuracy    <       0.00001992 Ry

     total magnetization       =    -0.00 Bohr mag/cell
     absolute magnetization    =     0.04 Bohr mag/cell

     iteration # 29     ecut=    45.00 Ry     beta= 0.05
     Davidson diagonalization with overlap
     ethr =  2.13E-08,  avg # of iterations =  1.1

     total cpu time spent up to now is      868.4 secs

     total energy              =   -3673.33142828 Ry
     Harris-Foulkes estimate   =   -3673.33142858 Ry
     estimated scf accuracy    <       0.00001307 Ry

     total magnetization       =     0.01 Bohr mag/cell
     absolute magnetization    =     0.04 Bohr mag/cell

     iteration # 30     ecut=    45.00 Ry     beta= 0.05
     Davidson diagonalization with overlap
     ethr =  1.77E-08,  avg # of iterations =  1.0

     total cpu time spent up to now is      894.4 secs

     total energy              =   -3673.33142366 Ry
     Harris-Foulkes estimate   =   -3673.33142846 Ry
     estimated scf accuracy    <       0.00001226 Ry

     total magnetization       =     0.01 Bohr mag/cell
     absolute magnetization    =     0.04 Bohr mag/cell

     iteration # 31     ecut=    45.00 Ry     beta= 0.05
     Davidson diagonalization with overlap
     ethr =  1.66E-08,  avg # of iterations =  1.0

     total cpu time spent up to now is      920.2 secs

     total energy              =   -3673.33142598 Ry
     Harris-Foulkes estimate   =   -3673.33142733 Ry
     estimated scf accuracy    <       0.00000861 Ry

     total magnetization       =     0.02 Bohr mag/cell
     absolute magnetization    =     0.03 Bohr mag/cell

     iteration # 32     ecut=    45.00 Ry     beta= 0.05
     Davidson diagonalization with overlap
     ethr =  1.16E-08,  avg # of iterations =  1.0

     total cpu time spent up to now is      946.2 secs

     total energy              =   -3673.33142729 Ry
     Harris-Foulkes estimate   =   -3673.33142711 Ry
     estimated scf accuracy    <       0.00000778 Ry

     total magnetization       =     0.02 Bohr mag/cell
     absolute magnetization    =     0.03 Bohr mag/cell

     iteration # 33     ecut=    45.00 Ry     beta= 0.05
     Davidson diagonalization with overlap
     ethr =  1.05E-08,  avg # of iterations =  1.0

     total cpu time spent up to now is      971.9 secs

     total energy              =   -3673.33142696 Ry
     Harris-Foulkes estimate   =   -3673.33142727 Ry
     estimated scf accuracy    <       0.00000720 Ry

     total magnetization       =     0.02 Bohr mag/cell
     absolute magnetization    =     0.03 Bohr mag/cell

     iteration # 34     ecut=    45.00 Ry     beta= 0.05
     Davidson diagonalization with overlap
     ethr =  9.73E-09,  avg # of iterations =  1.0

     total cpu time spent up to now is      997.6 secs

     total energy              =   -3673.33142763 Ry
     Harris-Foulkes estimate   =   -3673.33142767 Ry
     estimated scf accuracy    <       0.00000714 Ry

     total magnetization       =     0.02 Bohr mag/cell
     absolute magnetization    =     0.03 Bohr mag/cell

     iteration # 35     ecut=    45.00 Ry     beta= 0.05
     Davidson diagonalization with overlap
     ethr =  9.65E-09,  avg # of iterations =  1.0

     total cpu time spent up to now is     1023.4 secs

     total energy              =   -3673.33142788 Ry
     Harris-Foulkes estimate   =   -3673.33142783 Ry
     estimated scf accuracy    <       0.00000561 Ry

     total magnetization       =     0.01 Bohr mag/cell
     absolute magnetization    =     0.03 Bohr mag/cell

     iteration # 36     ecut=    45.00 Ry     beta= 0.05
     Davidson diagonalization with overlap
     ethr =  7.58E-09,  avg # of iterations =  1.0

     total cpu time spent up to now is     1049.4 secs

     total energy              =   -3673.33142817 Ry
     Harris-Foulkes estimate   =   -3673.33142788 Ry
     estimated scf accuracy    <       0.00000544 Ry

     total magnetization       =     0.01 Bohr mag/cell
     absolute magnetization    =     0.03 Bohr mag/cell

     iteration # 37     ecut=    45.00 Ry     beta= 0.05
     Davidson diagonalization with overlap
     ethr =  7.35E-09,  avg # of iterations =  1.0

     total cpu time spent up to now is     1075.3 secs

     total energy              =   -3673.33142720 Ry
     Harris-Foulkes estimate   =   -3673.33142813 Ry
     estimated scf accuracy    <       0.00000574 Ry

     total magnetization       =     0.02 Bohr mag/cell
     absolute magnetization    =     0.03 Bohr mag/cell

     iteration # 38     ecut=    45.00 Ry     beta= 0.05
     Davidson diagonalization with overlap
     ethr =  7.35E-09,  avg # of iterations =  1.0

     total cpu time spent up to now is     1101.2 secs

     total energy              =   -3673.33142742 Ry
     Harris-Foulkes estimate   =   -3673.33142759 Ry
     estimated scf accuracy    <       0.00000494 Ry

     total magnetization       =     0.01 Bohr mag/cell
     absolute magnetization    =     0.03 Bohr mag/cell

     iteration # 39     ecut=    45.00 Ry     beta= 0.05
     Davidson diagonalization with overlap
     ethr =  6.68E-09,  avg # of iterations =  1.0

     total cpu time spent up to now is     1126.9 secs

     total energy              =   -3673.33142730 Ry
     Harris-Foulkes estimate   =   -3673.33142769 Ry
     estimated scf accuracy    <       0.00000466 Ry

     total magnetization       =     0.01 Bohr mag/cell
     absolute magnetization    =     0.02 Bohr mag/cell

     iteration # 40     ecut=    45.00 Ry     beta= 0.05
     Davidson diagonalization with overlap
     ethr =  6.30E-09,  avg # of iterations =  1.0

     total cpu time spent up to now is     1152.7 secs

     total energy              =   -3673.33142740 Ry
     Harris-Foulkes estimate   =   -3673.33142811 Ry
     estimated scf accuracy    <       0.00000559 Ry

     total magnetization       =     0.01 Bohr mag/cell
     absolute magnetization    =     0.03 Bohr mag/cell

     iteration # 41     ecut=    45.00 Ry     beta= 0.05
     Davidson diagonalization with overlap
     ethr =  6.30E-09,  avg # of iterations =  1.0

     total cpu time spent up to now is     1178.5 secs

     total energy              =   -3673.33142781 Ry
     Harris-Foulkes estimate   =   -3673.33142778 Ry
     estimated scf accuracy    <       0.00000351 Ry

     total magnetization       =     0.01 Bohr mag/cell
     absolute magnetization    =     0.03 Bohr mag/cell

     iteration # 42     ecut=    45.00 Ry     beta= 0.05
     Davidson diagonalization with overlap
     ethr =  4.75E-09,  avg # of iterations =  1.0

     total cpu time spent up to now is     1204.1 secs

     total energy              =   -3673.33142791 Ry
     Harris-Foulkes estimate   =   -3673.33142797 Ry
     estimated scf accuracy    <       0.00000372 Ry

     total magnetization       =     0.01 Bohr mag/cell
     absolute magnetization    =     0.03 Bohr mag/cell

     iteration # 43     ecut=    45.00 Ry     beta= 0.05
     Davidson diagonalization with overlap
     ethr =  4.75E-09,  avg # of iterations =  1.0

     total cpu time spent up to now is     1230.0 secs

     total energy              =   -3673.33142809 Ry
     Harris-Foulkes estimate   =   -3673.33142795 Ry
     estimated scf accuracy    <       0.00000366 Ry

     total magnetization       =     0.02 Bohr mag/cell
     absolute magnetization    =     0.03 Bohr mag/cell

     iteration # 44     ecut=    45.00 Ry     beta= 0.05
     Davidson diagonalization with overlap
     ethr =  4.75E-09,  avg # of iterations =  1.0

     total cpu time spent up to now is     1255.9 secs

     total energy              =   -3673.33142791 Ry
     Harris-Foulkes estimate   =   -3673.33142809 Ry
     estimated scf accuracy    <       0.00000363 Ry

     total magnetization       =     0.02 Bohr mag/cell
     absolute magnetization    =     0.03 Bohr mag/cell

     iteration # 45     ecut=    45.00 Ry     beta= 0.05
     Davidson diagonalization with overlap
     ethr =  4.75E-09,  avg # of iterations =  1.0

     total cpu time spent up to now is     1281.7 secs

     total energy              =   -3673.33142781 Ry
     Harris-Foulkes estimate   =   -3673.33142800 Ry
     estimated scf accuracy    <       0.00000423 Ry

     total magnetization       =     0.01 Bohr mag/cell
     absolute magnetization    =     0.03 Bohr mag/cell

     iteration # 46     ecut=    45.00 Ry     beta= 0.05
     Davidson diagonalization with overlap
     ethr =  4.75E-09,  avg # of iterations =  1.0

     total cpu time spent up to now is     1307.6 secs

     total energy              =   -3673.33142806 Ry
     Harris-Foulkes estimate   =   -3673.33142796 Ry
     estimated scf accuracy    <       0.00000326 Ry

     total magnetization       =     0.01 Bohr mag/cell
     absolute magnetization    =     0.03 Bohr mag/cell

     iteration # 47     ecut=    45.00 Ry     beta= 0.05
     Davidson diagonalization with overlap
     ethr =  4.41E-09,  avg # of iterations =  1.0

     total cpu time spent up to now is     1333.4 secs

     total energy              =   -3673.33142727 Ry
     Harris-Foulkes estimate   =   -3673.33142811 Ry
     estimated scf accuracy    <       0.00000414 Ry

     total magnetization       =     0.02 Bohr mag/cell
     absolute magnetization    =     0.03 Bohr mag/cell

     iteration # 48     ecut=    45.00 Ry     beta= 0.05
     Davidson diagonalization with overlap
     ethr =  4.41E-09,  avg # of iterations =  1.3

     total cpu time spent up to now is     1360.9 secs

     total energy              =   -3673.33142688 Ry
     Harris-Foulkes estimate   =   -3673.33142862 Ry
     estimated scf accuracy    <       0.00000366 Ry

     total magnetization       =     0.01 Bohr mag/cell
     absolute magnetization    =     0.03 Bohr mag/cell

     iteration # 49     ecut=    45.00 Ry     beta= 0.05
     Davidson diagonalization with overlap
     ethr =  4.41E-09,  avg # of iterations =  1.0

     total cpu time spent up to now is     1386.8 secs

     total energy              =   -3673.33142750 Ry
     Harris-Foulkes estimate   =   -3673.33142780 Ry
     estimated scf accuracy    <       0.00000177 Ry

     total magnetization       =     0.01 Bohr mag/cell
     absolute magnetization    =     0.02 Bohr mag/cell

     iteration # 50     ecut=    45.00 Ry     beta= 0.05
     Davidson diagonalization with overlap
     ethr =  2.40E-09,  avg # of iterations =  1.1

     total cpu time spent up to now is     1412.9 secs

     total energy              =   -3673.33142792 Ry
     Harris-Foulkes estimate   =   -3673.33142773 Ry
     estimated scf accuracy    <       0.00000125 Ry

     total magnetization       =     0.00 Bohr mag/cell
     absolute magnetization    =     0.02 Bohr mag/cell

     iteration # 51     ecut=    45.00 Ry     beta= 0.05
     Davidson diagonalization with overlap
     ethr =  1.69E-09,  avg # of iterations =  1.0

     total cpu time spent up to now is     1438.8 secs

     total energy              =   -3673.33142806 Ry
     Harris-Foulkes estimate   =   -3673.33142823 Ry
     estimated scf accuracy    <       0.00000114 Ry

     total magnetization       =     0.01 Bohr mag/cell
     absolute magnetization    =     0.02 Bohr mag/cell

     iteration # 52     ecut=    45.00 Ry     beta= 0.05
     Davidson diagonalization with overlap
     ethr =  1.53E-09,  avg # of iterations =  1.0

     total cpu time spent up to now is     1464.6 secs

     total energy              =   -3673.33142825 Ry
     Harris-Foulkes estimate   =   -3673.33142807 Ry
     estimated scf accuracy    <       0.00000108 Ry

     total magnetization       =     0.00 Bohr mag/cell
     absolute magnetization    =     0.02 Bohr mag/cell

     iteration # 53     ecut=    45.00 Ry     beta= 0.05
     Davidson diagonalization with overlap
     ethr =  1.46E-09,  avg # of iterations =  1.0

     total cpu time spent up to now is     1490.4 secs

     total energy              =   -3673.33142785 Ry
     Harris-Foulkes estimate   =   -3673.33142830 Ry
     estimated scf accuracy    <       0.00000107 Ry

     total magnetization       =     0.01 Bohr mag/cell
     absolute magnetization    =     0.02 Bohr mag/cell

     iteration # 54     ecut=    45.00 Ry     beta= 0.05
     Davidson diagonalization with overlap
     ethr =  1.44E-09,  avg # of iterations =  1.0

     total cpu time spent up to now is     1516.2 secs

     total energy              =   -3673.33142761 Ry
     Harris-Foulkes estimate   =   -3673.33142791 Ry
     estimated scf accuracy    <       0.00000105 Ry

     total magnetization       =     0.00 Bohr mag/cell
     absolute magnetization    =     0.02 Bohr mag/cell

     iteration # 55     ecut=    45.00 Ry     beta= 0.05
     Davidson diagonalization with overlap
     ethr =  1.42E-09,  avg # of iterations =  1.0

     Magnetic moment per site:
     atom:    1    charge:   13.6440    magn:   -0.0020    constr:    0.0000
     atom:    2    charge:   13.6446    magn:    0.0049    constr:    0.0000
     atom:    3    charge:    9.0825    magn:    0.0005    constr:    0.0000
     atom:    4    charge:    9.0825    magn:    0.0005    constr:    0.0000
     atom:    5    charge:    9.0828    magn:   -0.0001    constr:    0.0000
     atom:    6    charge:    9.0828    magn:   -0.0001    constr:    0.0000

     total cpu time spent up to now is     1541.9 secs

     End of self-consistent calculation

     Number of k-points >= 100: set verbosity='high' to print the bands.

     the Fermi energy is    14.4290 ev

!    total energy              =   -3673.33142858 Ry
     Harris-Foulkes estimate   =   -3673.33142775 Ry
     estimated scf accuracy    <       0.00000098 Ry

     total all-electron energy =   -156730.230359 Ry

     The total energy is the sum of the following terms:

     one-electron contribution =    -182.92705899 Ry
     hartree contribution      =     165.02364789 Ry
     xc contribution           =    -183.50074823 Ry
     ewald contribution        =    -546.58413949 Ry
     one-center paw contrib.   =   -2925.34312976 Ry

     total magnetization       =     0.00 Bohr mag/cell
     absolute magnetization    =     0.02 Bohr mag/cell

     convergence has been achieved in  55 iterations

     Writing output data file mnau2.save/

     init_run     :     12.01s CPU     12.60s WALL (       1 calls)
     electrons    :   1484.24s CPU   1525.88s WALL (       1 calls)

     Called by init_run:
     wfcinit      :     10.69s CPU     11.12s WALL (       1 calls)
     potinit      :      0.60s CPU      0.68s WALL (       1 calls)
     hinit0       :      0.59s CPU      0.66s WALL (       1 calls)

     Called by electrons:
     c_bands      :   1190.27s CPU   1224.10s WALL (      55 calls)
     sum_band     :    267.30s CPU    274.97s WALL (      55 calls)
     v_of_rho     :      1.84s CPU      1.85s WALL (      56 calls)
     newd         :      4.39s CPU      4.41s WALL (      56 calls)
     PAW_pot      :     20.55s CPU     20.57s WALL (      56 calls)
     mix_rho      :      0.21s CPU      0.22s WALL (      55 calls)

     Called by c_bands:
     init_us_2    :     18.24s CPU     18.77s WALL (   89910 calls)
     cegterg      :   1133.91s CPU   1166.35s WALL (   44550 calls)

     Called by sum_band:
     sum_band:bec :      1.52s CPU      1.58s WALL (   44550 calls)
     addusdens    :      7.91s CPU      7.95s WALL (      55 calls)

     Called by *egterg:
     h_psi        :    540.23s CPU    570.80s WALL (  101793 calls)
     s_psi        :     24.41s CPU     24.68s WALL (  101793 calls)
     g_psi        :      3.95s CPU      3.98s WALL (   56433 calls)
     cdiaghg      :    459.48s CPU    460.60s WALL (  100983 calls)

     Called by h_psi:
     h_psi:pot    :    535.86s CPU    566.36s WALL (  101793 calls)
     h_psi:calbec :     46.63s CPU     48.93s WALL (  101793 calls)
     vloc_psi     :    463.87s CPU    491.45s WALL (  101793 calls)
     add_vuspsi   :     24.95s CPU     25.62s WALL (  101793 calls)

     General routines
     calbec       :     66.72s CPU     69.99s WALL (  146343 calls)
     fft          :      0.62s CPU      0.68s WALL (    1396 calls)
     ffts         :      0.02s CPU      0.03s WALL (     222 calls)
     fftw         :    537.31s CPU    568.82s WALL (10021378 calls)
     interpolate  :      0.07s CPU      0.07s WALL (     112 calls)

     Parallel routines
     fft_scatt_xy :     66.40s CPU     70.17s WALL (10022996 calls)
     fft_scatt_yz :    272.80s CPU    289.54s WALL (10022996 calls)

     PWSCF        : 25m 3.71s CPU    26m31.23s WALL


   This run was terminated on:  14:35:51  13Feb2019            

=------------------------------------------------------------------------------=
   JOB DONE.
=------------------------------------------------------------------------------=
