
     Program PWSCF v.6.3 starts on 11Feb2019 at 20:53:42 

     This program is part of the open-source Quantum ESPRESSO suite
     for quantum simulation of materials; please cite
         "P. Giannozzi et al., J. Phys.:Condens. Matter 21 395502 (2009);
         "P. Giannozzi et al., J. Phys.:Condens. Matter 29 465901 (2017);
          URL http://www.quantum-espresso.org", 
     in publications or presentations arising from this work. More details at
     http://www.quantum-espresso.org/quote

     Parallel version (MPI), running on    16 processors

     MPI processes distributed on     1 nodes
     R & G space division:  proc/nbgrp/npool/nimage =      16
     Waiting for input...
     Reading input from standard input

     Current dimensions of program PWSCF are:
     Max number of different atomic species (ntypx) = 10
     Max number of k-points (npk) =  40000
     Max angular momentum in pseudopotentials (lmaxx) =  3

     Subspace diagonalization in iterative solution of the eigenvalue problem:
     one sub-group per band group will be used
     scalapack distributed-memory algorithm (size of sub-group:  2*  2 procs)


     Parallelization info
     --------------------
     sticks:   dense  smooth     PW     G-vecs:    dense   smooth      PW
     Min          60      24      7                 3780      955     168
     Max          61      27      9                 3793      961     176
     Sum         973     401    129                60601    15307    2761



     bravais-lattice index     =            0
     lattice parameter (alat)  =       6.4153  a.u.
     unit-cell volume          =     690.6834 (a.u.)^3
     number of atoms/cell      =            6
     number of atomic types    =            6
     number of electrons       =        74.00
     number of Kohn-Sham states=           44
     kinetic-energy cutoff     =      30.0000  Ry
     charge density cutoff     =     300.0000  Ry
     convergence threshold     =      1.0E-06
     mixing beta               =       0.0500
     number of iterations used =            8  plain     mixing
     Exchange-correlation      =  SLA  PW   PBE  PBE ( 1  4  3  4 0 0)

     celldm(1)=   6.415316  celldm(2)=   0.000000  celldm(3)=   0.000000
     celldm(4)=   0.000000  celldm(5)=   0.000000  celldm(6)=   0.000000

     crystal axes: (cart. coord. in units of alat)
               a(1) = (   1.000000   0.000000   0.000000 )  
               a(2) = (   0.000000   1.000000   0.000000 )  
               a(3) = (   0.000000   0.000000   2.615923 )  

     reciprocal axes: (cart. coord. in units 2 pi/alat)
               b(1) = (  1.000000  0.000000  0.000000 )  
               b(2) = (  0.000000  1.000000  0.000000 )  
               b(3) = (  0.000000  0.000000  0.382274 )  


     PseudoPot. # 1 for Mn read from file:
     ./pseudo/Mn.pbe-sp-hgh.UPF
     MD5 check sum: 3e34829e68efb4927d63695bef9f06b2
     Pseudo is Norm-conserving, Zval = 15.0
     Generated in analytical, separable form
     Using radial grid of 1187 points,  5 beta functions with: 
                l(1) =   0
                l(2) =   0
                l(3) =   1
                l(4) =   1
                l(5) =   2

     PseudoPot. # 2 for Mn read from file:
     ./pseudo/Mn.pbe-sp-hgh.UPF
     MD5 check sum: 3e34829e68efb4927d63695bef9f06b2
     Pseudo is Norm-conserving, Zval = 15.0
     Generated in analytical, separable form
     Using radial grid of 1187 points,  5 beta functions with: 
                l(1) =   0
                l(2) =   0
                l(3) =   1
                l(4) =   1
                l(5) =   2

     PseudoPot. # 3 for Au read from file:
     ./pseudo/Au.pbe-nd-rrkjus.UPF
     MD5 check sum: 41a08e3cb62f65879dfe3845f8e5fcb7
     Pseudo is Ultrasoft + core correction, Zval = 11.0
     Generated by new atomic code, or converted to UPF format
     Using radial grid of 1279 points,  3 beta functions with: 
                l(1) =   2
                l(2) =   2
                l(3) =   1
     Q(r) pseudized with 0 coefficients 


     PseudoPot. # 4 for Au read from file:
     ./pseudo/Au.pbe-nd-rrkjus.UPF
     MD5 check sum: 41a08e3cb62f65879dfe3845f8e5fcb7
     Pseudo is Ultrasoft + core correction, Zval = 11.0
     Generated by new atomic code, or converted to UPF format
     Using radial grid of 1279 points,  3 beta functions with: 
                l(1) =   2
                l(2) =   2
                l(3) =   1
     Q(r) pseudized with 0 coefficients 


     PseudoPot. # 5 for Au read from file:
     ./pseudo/Au.pbe-nd-rrkjus.UPF
     MD5 check sum: 41a08e3cb62f65879dfe3845f8e5fcb7
     Pseudo is Ultrasoft + core correction, Zval = 11.0
     Generated by new atomic code, or converted to UPF format
     Using radial grid of 1279 points,  3 beta functions with: 
                l(1) =   2
                l(2) =   2
                l(3) =   1
     Q(r) pseudized with 0 coefficients 


     PseudoPot. # 6 for Au read from file:
     ./pseudo/Au.pbe-nd-rrkjus.UPF
     MD5 check sum: 41a08e3cb62f65879dfe3845f8e5fcb7
     Pseudo is Ultrasoft + core correction, Zval = 11.0
     Generated by new atomic code, or converted to UPF format
     Using radial grid of 1279 points,  3 beta functions with: 
                l(1) =   2
                l(2) =   2
                l(3) =   1
     Q(r) pseudized with 0 coefficients 


     atomic species   valence    mass     pseudopotential
        Mn1           15.00     1.00000     Mn( 1.00)
        Mn2           15.00     1.00000     Mn( 1.00)
        Au1           11.00     1.00000     Au( 1.00)
        Au2           11.00     1.00000     Au( 1.00)
        Au3           11.00     1.00000     Au( 1.00)
        Au4           11.00     1.00000     Au( 1.00)

     Starting magnetic structure 
     atomic species   magnetization
        Mn1          0.000
        Mn2          0.000
        Au1          0.000
        Au2          0.000
        Au3          0.000
        Au4          0.000

      8 Sym. Ops. (no inversion) found



   Cartesian axes

     site n.     atom                  positions (alat units)
         1           Mn1 tau(   1) = (   0.0000000   0.0000000   0.0000000  )
         2           Au1 tau(   2) = (   0.5000000   0.5000000   2.1982094  )
         3           Au2 tau(   3) = (   0.5000000   0.5000000   0.4177131  )
         4           Mn2 tau(   4) = (   0.5000000   0.5000000   1.3079613  )
         5           Au3 tau(   5) = (   0.0000000   0.0000000   0.8902482  )
         6           Au4 tau(   6) = (   0.0000000   0.0000000   1.7256744  )

     number of k points=   405 (tetrahedron method)

     Number of k-points >= 100: set verbosity='high' to print them.

     Dense  grid:    60601 G-vectors     FFT dimensions: (  36,  36,  96)

     Smooth grid:    15307 G-vectors     FFT dimensions: (  24,  24,  60)

     Estimated max dynamical RAM per process >      81.38 MB

     Estimated total dynamical RAM >       1.27 GB
     Generating pointlists ...
     new r_m :   0.3388 (alat units)  2.1733 (a.u.) for type    1
     new r_m :   0.3388 (alat units)  2.1733 (a.u.) for type    2
     new r_m :   0.3388 (alat units)  2.1733 (a.u.) for type    3
     new r_m :   0.3388 (alat units)  2.1733 (a.u.) for type    4
     new r_m :   0.3388 (alat units)  2.1733 (a.u.) for type    5
     new r_m :   0.3388 (alat units)  2.1733 (a.u.) for type    6

     Check: negative/imaginary core charge=   -0.000025    0.000000

     Initial potential from superposition of free atoms

     starting charge   43.99956, renormalised to   74.00000
     Starting wfcs are   36 randomized atomic wfcs +    8 random wfcs

     total cpu time spent up to now is       10.0 secs

     Self-consistent Calculation

     iteration #  1     ecut=    30.00 Ry     beta= 0.05
     Davidson diagonalization with overlap
     ethr =  1.00E-02,  avg # of iterations = 14.0

     total cpu time spent up to now is      224.4 secs

     total energy              =   -1311.99051411 Ry
     Harris-Foulkes estimate   =   -1414.54871038 Ry
     estimated scf accuracy    <    1545.35094372 Ry

     total magnetization       =     0.03 Bohr mag/cell
     absolute magnetization    =     0.03 Bohr mag/cell

     iteration #  2     ecut=    30.00 Ry     beta= 0.05
     Davidson diagonalization with overlap
     ethr =  1.00E-02,  avg # of iterations =  1.0

     total cpu time spent up to now is      249.9 secs

     total energy              =     -31.98113767 Ry
     Harris-Foulkes estimate   =   -1312.21248891 Ry
     estimated scf accuracy    <    1377.27178771 Ry

     total magnetization       =     0.15 Bohr mag/cell
     absolute magnetization    =     0.15 Bohr mag/cell

     iteration #  3     ecut=    30.00 Ry     beta= 0.05
     Davidson diagonalization with overlap
     ethr =  1.00E-02,  avg # of iterations = 11.3

     total cpu time spent up to now is      419.7 secs

     total energy              =    -963.29489369 Ry
     Harris-Foulkes estimate   =   -1604.19173929 Ry
     estimated scf accuracy    <    1368.39828132 Ry

     total magnetization       =    -0.00 Bohr mag/cell
     absolute magnetization    =     0.01 Bohr mag/cell

     iteration #  4     ecut=    30.00 Ry     beta= 0.05
     Davidson diagonalization with overlap
     ethr =  1.00E-02,  avg # of iterations =  3.4

     total cpu time spent up to now is      478.2 secs

     total energy              =    -853.13587764 Ry
     Harris-Foulkes estimate   =    -974.57046435 Ry
     estimated scf accuracy    <     628.25556333 Ry

     total magnetization       =     0.00 Bohr mag/cell
     absolute magnetization    =     0.00 Bohr mag/cell

     iteration #  5     ecut=    30.00 Ry     beta= 0.05
     Davidson diagonalization with overlap
     ethr =  1.00E-02,  avg # of iterations =  4.3

     total cpu time spent up to now is      544.9 secs

     total energy              =    -835.47671902 Ry
     Harris-Foulkes estimate   =    -859.94617965 Ry
     estimated scf accuracy    <     379.45311155 Ry

     total magnetization       =     0.00 Bohr mag/cell
     absolute magnetization    =     0.00 Bohr mag/cell

     iteration #  6     ecut=    30.00 Ry     beta= 0.05
     Davidson diagonalization with overlap
     ethr =  1.00E-02,  avg # of iterations =  4.8

     total cpu time spent up to now is      605.9 secs

     total energy              =    -837.24561632 Ry
     Harris-Foulkes estimate   =    -836.37032811 Ry
     estimated scf accuracy    <     278.27079826 Ry

     total magnetization       =     0.01 Bohr mag/cell
     absolute magnetization    =     0.02 Bohr mag/cell

     iteration #  7     ecut=    30.00 Ry     beta= 0.05
     Davidson diagonalization with overlap
     ethr =  1.00E-02,  avg # of iterations =  1.3

     total cpu time spent up to now is      633.3 secs

     total energy              =    -859.54393270 Ry
     Harris-Foulkes estimate   =    -837.27126029 Ry
     estimated scf accuracy    <     281.71055647 Ry

     total magnetization       =     0.02 Bohr mag/cell
     absolute magnetization    =     0.03 Bohr mag/cell

     iteration #  8     ecut=    30.00 Ry     beta= 0.05
     Davidson diagonalization with overlap
     ethr =  1.00E-02,  avg # of iterations =  2.8

     total cpu time spent up to now is      673.3 secs

     total energy              =    -836.55339423 Ry
     Harris-Foulkes estimate   =    -861.42118841 Ry
     estimated scf accuracy    <     380.70984527 Ry

     total magnetization       =     0.00 Bohr mag/cell
     absolute magnetization    =     0.00 Bohr mag/cell

     iteration #  9     ecut=    30.00 Ry     beta= 0.05
     Davidson diagonalization with overlap
     ethr =  1.00E-02,  avg # of iterations =  3.4

     total cpu time spent up to now is      718.8 secs

     total energy              =    -844.38189256 Ry
     Harris-Foulkes estimate   =    -837.44692565 Ry
     estimated scf accuracy    <     280.60528737 Ry

     total magnetization       =    -0.00 Bohr mag/cell
     absolute magnetization    =     0.01 Bohr mag/cell

     iteration # 10     ecut=    30.00 Ry     beta= 0.05
     Davidson diagonalization with overlap
     ethr =  1.00E-02,  avg # of iterations =  1.1

     total cpu time spent up to now is      744.8 secs

     total energy              =    -676.67364026 Ry
     Harris-Foulkes estimate   =    -844.60424247 Ry
     estimated scf accuracy    <     328.53745581 Ry

     total magnetization       =    -0.01 Bohr mag/cell
     absolute magnetization    =     0.02 Bohr mag/cell

     iteration # 11     ecut=    30.00 Ry     beta= 0.05
     Davidson diagonalization with overlap
     ethr =  1.00E-02,  avg # of iterations =  5.4

     negative rho (up, down):  7.940E-04 7.859E-04

     total cpu time spent up to now is      825.3 secs

     total energy              =    -747.25884574 Ry
     Harris-Foulkes estimate   =    -750.08081648 Ry
     estimated scf accuracy    <      10.16296704 Ry

     total magnetization       =     0.03 Bohr mag/cell
     absolute magnetization    =     0.03 Bohr mag/cell

     iteration # 12     ecut=    30.00 Ry     beta= 0.05
     Davidson diagonalization with overlap
     ethr =  1.00E-02,  avg # of iterations =  5.4

     negative rho (up, down):  4.585E-04 4.521E-04

     total cpu time spent up to now is      905.2 secs

     total energy              =    -757.16917660 Ry
     Harris-Foulkes estimate   =    -796.73926553 Ry
     estimated scf accuracy    <     235.56305313 Ry

     total magnetization       =    -0.03 Bohr mag/cell
     absolute magnetization    =     0.05 Bohr mag/cell

     iteration # 13     ecut=    30.00 Ry     beta= 0.05
     Davidson diagonalization with overlap
     ethr =  1.00E-02,  avg # of iterations =  3.3

     negative rho (up, down):  5.723E-05 5.704E-05

     total cpu time spent up to now is      962.0 secs

     total energy              =    -728.11190033 Ry
     Harris-Foulkes estimate   =    -762.27691814 Ry
     estimated scf accuracy    <      98.09106415 Ry

     total magnetization       =    -0.01 Bohr mag/cell
     absolute magnetization    =     0.04 Bohr mag/cell

     iteration # 14     ecut=    30.00 Ry     beta= 0.05
     Davidson diagonalization with overlap
     ethr =  1.00E-02,  avg # of iterations =  4.3

     negative rho (up, down):  1.179E-04 1.205E-04

     total cpu time spent up to now is     1039.9 secs

     total energy              =    -742.04564626 Ry
     Harris-Foulkes estimate   =    -753.68356585 Ry
     estimated scf accuracy    <      21.37715263 Ry

     total magnetization       =     0.00 Bohr mag/cell
     absolute magnetization    =     0.01 Bohr mag/cell

     iteration # 15     ecut=    30.00 Ry     beta= 0.05
     Davidson diagonalization with overlap
     ethr =  1.00E-02,  avg # of iterations =  4.7

     negative rho (up, down):  2.212E-04 2.202E-04

     total cpu time spent up to now is     1117.4 secs

     total energy              =    -737.24253116 Ry
     Harris-Foulkes estimate   =    -754.57341008 Ry
     estimated scf accuracy    <      63.61038173 Ry

     total magnetization       =     0.01 Bohr mag/cell
     absolute magnetization    =     0.03 Bohr mag/cell

     iteration # 16     ecut=    30.00 Ry     beta= 0.05
     Davidson diagonalization with overlap
     ethr =  1.00E-02,  avg # of iterations =  3.3

     negative rho (up, down):  2.194E-04 2.180E-04

     total cpu time spent up to now is     1174.1 secs

     total energy              =    -751.96961942 Ry
     Harris-Foulkes estimate   =    -751.14529986 Ry
     estimated scf accuracy    <      13.75791890 Ry

     total magnetization       =    -0.01 Bohr mag/cell
     absolute magnetization    =     0.02 Bohr mag/cell

     iteration # 17     ecut=    30.00 Ry     beta= 0.05
     Davidson diagonalization with overlap
     ethr =  1.00E-02,  avg # of iterations =  1.0

     negative rho (up, down):  6.407E-04 6.352E-04

     total cpu time spent up to now is     1199.1 secs

     total energy              =    -747.90310834 Ry
     Harris-Foulkes estimate   =    -752.06311954 Ry
     estimated scf accuracy    <      15.68966643 Ry

     total magnetization       =    -0.01 Bohr mag/cell
     absolute magnetization    =     0.02 Bohr mag/cell

     iteration # 18     ecut=    30.00 Ry     beta= 0.05
     Davidson diagonalization with overlap
     ethr =  1.00E-02,  avg # of iterations =  3.5

     negative rho (up, down):  2.721E-04 2.710E-04

     total cpu time spent up to now is     1247.3 secs

     total energy              =    -749.29000626 Ry
     Harris-Foulkes estimate   =    -749.77470003 Ry
     estimated scf accuracy    <      13.67894595 Ry

     total magnetization       =    -0.12 Bohr mag/cell
     absolute magnetization    =     0.14 Bohr mag/cell

     iteration # 19     ecut=    30.00 Ry     beta= 0.05
     Davidson diagonalization with overlap
     ethr =  1.00E-02,  avg # of iterations =  2.0

     negative rho (up, down):  1.772E-04 1.771E-04

     total cpu time spent up to now is     1280.8 secs

     total energy              =    -749.79871685 Ry
     Harris-Foulkes estimate   =    -750.12045034 Ry
     estimated scf accuracy    <       9.68192449 Ry

     total magnetization       =    -0.03 Bohr mag/cell
     absolute magnetization    =     0.03 Bohr mag/cell

     iteration # 20     ecut=    30.00 Ry     beta= 0.05
     Davidson diagonalization with overlap
     ethr =  1.00E-02,  avg # of iterations =  1.0

     negative rho (up, down):  2.823E-04 2.810E-04

     total cpu time spent up to now is     1306.0 secs

     total energy              =    -749.05983585 Ry
     Harris-Foulkes estimate   =    -749.84500633 Ry
     estimated scf accuracy    <       7.78313638 Ry

     total magnetization       =     0.01 Bohr mag/cell
     absolute magnetization    =     0.02 Bohr mag/cell

     iteration # 21     ecut=    30.00 Ry     beta= 0.05
     Davidson diagonalization with overlap
     ethr =  1.00E-02,  avg # of iterations =  1.3

     negative rho (up, down):  3.629E-04 3.598E-04

     total cpu time spent up to now is     1332.9 secs

     total energy              =    -749.50960224 Ry
     Harris-Foulkes estimate   =    -749.35001549 Ry
     estimated scf accuracy    <      10.87069562 Ry

     total magnetization       =    -0.03 Bohr mag/cell
     absolute magnetization    =     0.04 Bohr mag/cell

     iteration # 22     ecut=    30.00 Ry     beta= 0.05
     Davidson diagonalization with overlap
     ethr =  1.00E-02,  avg # of iterations =  1.0

     negative rho (up, down):  7.304E-05 7.348E-05

     total cpu time spent up to now is     1357.8 secs

     total energy              =    -748.44672620 Ry
     Harris-Foulkes estimate   =    -749.53808121 Ry
     estimated scf accuracy    <       9.31348405 Ry

     total magnetization       =    -0.05 Bohr mag/cell
     absolute magnetization    =     0.06 Bohr mag/cell

     iteration # 23     ecut=    30.00 Ry     beta= 0.05
     Davidson diagonalization with overlap
     ethr =  1.00E-02,  avg # of iterations =  1.3

     negative rho (up, down):  9.492E-05 9.505E-05

     total cpu time spent up to now is     1384.6 secs

     total energy              =    -748.29715592 Ry
     Harris-Foulkes estimate   =    -748.84822782 Ry
     estimated scf accuracy    <       9.89061296 Ry

     total magnetization       =     0.08 Bohr mag/cell
     absolute magnetization    =     0.08 Bohr mag/cell

     iteration # 24     ecut=    30.00 Ry     beta= 0.05
     Davidson diagonalization with overlap
     ethr =  1.00E-02,  avg # of iterations =  1.0

     negative rho (up, down):  9.422E-05 9.398E-05

     total cpu time spent up to now is     1409.8 secs

     total energy              =    -748.26052285 Ry
     Harris-Foulkes estimate   =    -748.64414658 Ry
     estimated scf accuracy    <       1.16340273 Ry

     total magnetization       =     0.11 Bohr mag/cell
     absolute magnetization    =     0.11 Bohr mag/cell

     iteration # 25     ecut=    30.00 Ry     beta= 0.05
     Davidson diagonalization with overlap
     ethr =  1.57E-03,  avg # of iterations =  4.1

     negative rho (up, down):  9.580E-05 9.533E-05

     total cpu time spent up to now is     1474.2 secs

     total energy              =    -747.95577230 Ry
     Harris-Foulkes estimate   =    -748.97040500 Ry
     estimated scf accuracy    <       5.10666609 Ry

     total magnetization       =     0.22 Bohr mag/cell
     absolute magnetization    =     0.22 Bohr mag/cell

     iteration # 26     ecut=    30.00 Ry     beta= 0.05
     Davidson diagonalization with overlap
     ethr =  1.57E-03,  avg # of iterations =  3.0

     negative rho (up, down):  5.644E-05 5.614E-05

     total cpu time spent up to now is     1525.5 secs

     total energy              =    -748.49640521 Ry
     Harris-Foulkes estimate   =    -748.75579700 Ry
     estimated scf accuracy    <       1.14846477 Ry

     total magnetization       =    -0.01 Bohr mag/cell
     absolute magnetization    =     0.05 Bohr mag/cell

     iteration # 27     ecut=    30.00 Ry     beta= 0.05
     Davidson diagonalization with overlap
     ethr =  1.55E-03,  avg # of iterations =  2.2

     negative rho (up, down):  5.262E-05 5.229E-05

     total cpu time spent up to now is     1560.5 secs

     total energy              =    -748.60150991 Ry
     Harris-Foulkes estimate   =    -748.61560208 Ry
     estimated scf accuracy    <       0.14136069 Ry

     total magnetization       =     0.04 Bohr mag/cell
     absolute magnetization    =     0.07 Bohr mag/cell

     iteration # 28     ecut=    30.00 Ry     beta= 0.05
     Davidson diagonalization with overlap
     ethr =  1.91E-04,  avg # of iterations =  2.3

     negative rho (up, down):  3.831E-06 3.721E-06

     total cpu time spent up to now is     1596.7 secs

     total energy              =    -748.54689396 Ry
     Harris-Foulkes estimate   =    -748.63449274 Ry
     estimated scf accuracy    <       0.55725413 Ry

     total magnetization       =     0.03 Bohr mag/cell
     absolute magnetization    =     0.07 Bohr mag/cell

     iteration # 29     ecut=    30.00 Ry     beta= 0.05
     Davidson diagonalization with overlap
     ethr =  1.91E-04,  avg # of iterations =  3.8

     negative rho (up, down):  2.695E-05 2.665E-05

     total cpu time spent up to now is     1658.5 secs

     total energy              =    -748.47519583 Ry
     Harris-Foulkes estimate   =    -748.69993307 Ry
     estimated scf accuracy    <       1.08662949 Ry

     total magnetization       =     0.13 Bohr mag/cell
     absolute magnetization    =     0.14 Bohr mag/cell

     iteration # 30     ecut=    30.00 Ry     beta= 0.05
     Davidson diagonalization with overlap
     ethr =  1.91E-04,  avg # of iterations =  3.1

     negative rho (up, down):  1.210E-05 1.184E-05

     total cpu time spent up to now is     1713.2 secs

     total energy              =    -748.60755693 Ry
     Harris-Foulkes estimate   =    -748.63729487 Ry
     estimated scf accuracy    <       0.12876135 Ry

     total magnetization       =     0.04 Bohr mag/cell
     absolute magnetization    =     0.07 Bohr mag/cell

     iteration # 31     ecut=    30.00 Ry     beta= 0.05
     Davidson diagonalization with overlap
     ethr =  1.74E-04,  avg # of iterations =  2.0

     negative rho (up, down):  4.573E-06 4.445E-06

     total cpu time spent up to now is     1746.2 secs

     total energy              =    -748.61410111 Ry
     Harris-Foulkes estimate   =    -748.61797925 Ry
     estimated scf accuracy    <       0.01502158 Ry

     total magnetization       =     0.05 Bohr mag/cell
     absolute magnetization    =     0.09 Bohr mag/cell

     iteration # 32     ecut=    30.00 Ry     beta= 0.05
     Davidson diagonalization with overlap
     ethr =  2.03E-05,  avg # of iterations =  3.6

     negative rho (up, down):  2.517E-07 1.763E-07

     total cpu time spent up to now is     1797.2 secs

     total energy              =    -748.61669009 Ry
     Harris-Foulkes estimate   =    -748.61809429 Ry
     estimated scf accuracy    <       0.01925168 Ry

     total magnetization       =     0.07 Bohr mag/cell
     absolute magnetization    =     0.09 Bohr mag/cell

     iteration # 33     ecut=    30.00 Ry     beta= 0.05
     Davidson diagonalization with overlap
     ethr =  2.03E-05,  avg # of iterations =  1.0

     total cpu time spent up to now is     1821.9 secs

     total energy              =    -748.61570218 Ry
     Harris-Foulkes estimate   =    -748.61691940 Ry
     estimated scf accuracy    <       0.01196714 Ry

     total magnetization       =     0.08 Bohr mag/cell
     absolute magnetization    =     0.09 Bohr mag/cell

     iteration # 34     ecut=    30.00 Ry     beta= 0.05
     Davidson diagonalization with overlap
     ethr =  1.62E-05,  avg # of iterations =  1.0

     total cpu time spent up to now is     1846.8 secs

     total energy              =    -748.61436807 Ry
     Harris-Foulkes estimate   =    -748.61602636 Ry
     estimated scf accuracy    <       0.00695593 Ry

     total magnetization       =     0.09 Bohr mag/cell
     absolute magnetization    =     0.10 Bohr mag/cell

     iteration # 35     ecut=    30.00 Ry     beta= 0.05
     Davidson diagonalization with overlap
     ethr =  9.40E-06,  avg # of iterations =  2.8

     total cpu time spent up to now is     1887.5 secs

     total energy              =    -748.61566439 Ry
     Harris-Foulkes estimate   =    -748.61576022 Ry
     estimated scf accuracy    <       0.00152018 Ry

     total magnetization       =     0.09 Bohr mag/cell
     absolute magnetization    =     0.11 Bohr mag/cell

     iteration # 36     ecut=    30.00 Ry     beta= 0.05
     Davidson diagonalization with overlap
     ethr =  2.05E-06,  avg # of iterations =  1.3

     total cpu time spent up to now is     1914.6 secs

     total energy              =    -748.61549174 Ry
     Harris-Foulkes estimate   =    -748.61568026 Ry
     estimated scf accuracy    <       0.00130991 Ry

     total magnetization       =     0.10 Bohr mag/cell
     absolute magnetization    =     0.11 Bohr mag/cell

     iteration # 37     ecut=    30.00 Ry     beta= 0.05
     Davidson diagonalization with overlap
     ethr =  1.77E-06,  avg # of iterations =  2.2

     total cpu time spent up to now is     1949.1 secs

     total energy              =    -748.61560635 Ry
     Harris-Foulkes estimate   =    -748.61564183 Ry
     estimated scf accuracy    <       0.00060469 Ry

     total magnetization       =     0.13 Bohr mag/cell
     absolute magnetization    =     0.13 Bohr mag/cell

     iteration # 38     ecut=    30.00 Ry     beta= 0.05
     Davidson diagonalization with overlap
     ethr =  8.17E-07,  avg # of iterations =  2.3

     total cpu time spent up to now is     1985.6 secs

     total energy              =    -748.61563960 Ry
     Harris-Foulkes estimate   =    -748.61568657 Ry
     estimated scf accuracy    <       0.00036490 Ry

     total magnetization       =     0.15 Bohr mag/cell
     absolute magnetization    =     0.16 Bohr mag/cell

     iteration # 39     ecut=    30.00 Ry     beta= 0.05
     Davidson diagonalization with overlap
     ethr =  4.93E-07,  avg # of iterations =  1.7

     total cpu time spent up to now is     2015.9 secs

     total energy              =    -748.61566165 Ry
     Harris-Foulkes estimate   =    -748.61566382 Ry
     estimated scf accuracy    <       0.00021043 Ry

     total magnetization       =     0.16 Bohr mag/cell
     absolute magnetization    =     0.17 Bohr mag/cell

     iteration # 40     ecut=    30.00 Ry     beta= 0.05
     Davidson diagonalization with overlap
     ethr =  2.84E-07,  avg # of iterations =  2.0

     total cpu time spent up to now is     2050.2 secs

     total energy              =    -748.61567989 Ry
     Harris-Foulkes estimate   =    -748.61568789 Ry
     estimated scf accuracy    <       0.00011987 Ry

     total magnetization       =     0.20 Bohr mag/cell
     absolute magnetization    =     0.21 Bohr mag/cell

     iteration # 41     ecut=    30.00 Ry     beta= 0.05
     Davidson diagonalization with overlap
     ethr =  1.62E-07,  avg # of iterations =  2.0

     total cpu time spent up to now is     2083.5 secs

     total energy              =    -748.61569644 Ry
     Harris-Foulkes estimate   =    -748.61569202 Ry
     estimated scf accuracy    <       0.00004501 Ry

     total magnetization       =     0.23 Bohr mag/cell
     absolute magnetization    =     0.23 Bohr mag/cell

     iteration # 42     ecut=    30.00 Ry     beta= 0.05
     Davidson diagonalization with overlap
     ethr =  6.08E-08,  avg # of iterations =  1.1

     total cpu time spent up to now is     2109.5 secs

     total energy              =    -748.61570177 Ry
     Harris-Foulkes estimate   =    -748.61569759 Ry
     estimated scf accuracy    <       0.00003688 Ry

     total magnetization       =     0.23 Bohr mag/cell
     absolute magnetization    =     0.24 Bohr mag/cell

     iteration # 43     ecut=    30.00 Ry     beta= 0.05
     Davidson diagonalization with overlap
     ethr =  4.98E-08,  avg # of iterations =  1.0

     total cpu time spent up to now is     2134.8 secs

     total energy              =    -748.61568274 Ry
     Harris-Foulkes estimate   =    -748.61570205 Ry
     estimated scf accuracy    <       0.00003744 Ry

     total magnetization       =     0.24 Bohr mag/cell
     absolute magnetization    =     0.24 Bohr mag/cell

     iteration # 44     ecut=    30.00 Ry     beta= 0.05
     Davidson diagonalization with overlap
     ethr =  4.98E-08,  avg # of iterations =  1.0

     total cpu time spent up to now is     2159.4 secs

     total energy              =    -748.61564290 Ry
     Harris-Foulkes estimate   =    -748.61568563 Ry
     estimated scf accuracy    <       0.00003552 Ry

     total magnetization       =     0.22 Bohr mag/cell
     absolute magnetization    =     0.22 Bohr mag/cell

     iteration # 45     ecut=    30.00 Ry     beta= 0.05
     Davidson diagonalization with overlap
     ethr =  4.80E-08,  avg # of iterations =  1.9

     total cpu time spent up to now is     2191.1 secs

     total energy              =    -748.61563636 Ry
     Harris-Foulkes estimate   =    -748.61565390 Ry
     estimated scf accuracy    <       0.00002895 Ry

     total magnetization       =     0.17 Bohr mag/cell
     absolute magnetization    =     0.17 Bohr mag/cell

     iteration # 46     ecut=    30.00 Ry     beta= 0.05
     Davidson diagonalization with overlap
     ethr =  3.91E-08,  avg # of iterations =  1.8

     total cpu time spent up to now is     2222.3 secs

     total energy              =    -748.61563518 Ry
     Harris-Foulkes estimate   =    -748.61564142 Ry
     estimated scf accuracy    <       0.00002505 Ry

     total magnetization       =     0.14 Bohr mag/cell
     absolute magnetization    =     0.14 Bohr mag/cell

     iteration # 47     ecut=    30.00 Ry     beta= 0.05
     Davidson diagonalization with overlap
     ethr =  3.38E-08,  avg # of iterations =  1.1

     total cpu time spent up to now is     2247.7 secs

     total energy              =    -748.61562333 Ry
     Harris-Foulkes estimate   =    -748.61563621 Ry
     estimated scf accuracy    <       0.00002131 Ry

     total magnetization       =     0.13 Bohr mag/cell
     absolute magnetization    =     0.13 Bohr mag/cell

     iteration # 48     ecut=    30.00 Ry     beta= 0.05
     Davidson diagonalization with overlap
     ethr =  2.88E-08,  avg # of iterations =  1.8

     total cpu time spent up to now is     2279.8 secs

     total energy              =    -748.61560894 Ry
     Harris-Foulkes estimate   =    -748.61562743 Ry
     estimated scf accuracy    <       0.00001838 Ry

     total magnetization       =     0.10 Bohr mag/cell
     absolute magnetization    =     0.11 Bohr mag/cell

     iteration # 49     ecut=    30.00 Ry     beta= 0.05
     Davidson diagonalization with overlap
     ethr =  2.48E-08,  avg # of iterations =  2.4

     total cpu time spent up to now is     2317.7 secs

     total energy              =    -748.61561650 Ry
     Harris-Foulkes estimate   =    -748.61561899 Ry
     estimated scf accuracy    <       0.00001009 Ry

     total magnetization       =     0.06 Bohr mag/cell
     absolute magnetization    =     0.07 Bohr mag/cell

     iteration # 50     ecut=    30.00 Ry     beta= 0.05
     Davidson diagonalization with overlap
     ethr =  1.36E-08,  avg # of iterations =  1.5

     total cpu time spent up to now is     2346.9 secs

     total energy              =    -748.61561601 Ry
     Harris-Foulkes estimate   =    -748.61561732 Ry
     estimated scf accuracy    <       0.00000617 Ry

     total magnetization       =     0.05 Bohr mag/cell
     absolute magnetization    =     0.07 Bohr mag/cell

     iteration # 51     ecut=    30.00 Ry     beta= 0.05
     Davidson diagonalization with overlap
     ethr =  8.33E-09,  avg # of iterations =  1.0

     total cpu time spent up to now is     2371.8 secs

     total energy              =    -748.61561393 Ry
     Harris-Foulkes estimate   =    -748.61561671 Ry
     estimated scf accuracy    <       0.00000475 Ry

     total magnetization       =     0.04 Bohr mag/cell
     absolute magnetization    =     0.06 Bohr mag/cell

     iteration # 52     ecut=    30.00 Ry     beta= 0.05
     Davidson diagonalization with overlap
     ethr =  6.42E-09,  avg # of iterations =  1.9

     total cpu time spent up to now is     2405.0 secs

     total energy              =    -748.61561575 Ry
     Harris-Foulkes estimate   =    -748.61561591 Ry
     estimated scf accuracy    <       0.00000323 Ry

     total magnetization       =     0.02 Bohr mag/cell
     absolute magnetization    =     0.05 Bohr mag/cell

     iteration # 53     ecut=    30.00 Ry     beta= 0.05
     Davidson diagonalization with overlap
     ethr =  4.37E-09,  avg # of iterations =  1.3

     total cpu time spent up to now is     2431.8 secs

     total energy              =    -748.61561482 Ry
     Harris-Foulkes estimate   =    -748.61561570 Ry
     estimated scf accuracy    <       0.00000241 Ry

     total magnetization       =     0.02 Bohr mag/cell
     absolute magnetization    =     0.05 Bohr mag/cell

     iteration # 54     ecut=    30.00 Ry     beta= 0.05
     Davidson diagonalization with overlap
     ethr =  3.26E-09,  avg # of iterations =  2.0

     total cpu time spent up to now is     2465.5 secs

     total energy              =    -748.61561518 Ry
     Harris-Foulkes estimate   =    -748.61561532 Ry
     estimated scf accuracy    <       0.00000198 Ry

     total magnetization       =     0.01 Bohr mag/cell
     absolute magnetization    =     0.04 Bohr mag/cell

     iteration # 55     ecut=    30.00 Ry     beta= 0.05
     Davidson diagonalization with overlap
     ethr =  2.68E-09,  avg # of iterations =  1.4

     total cpu time spent up to now is     2493.4 secs

     total energy              =    -748.61561513 Ry
     Harris-Foulkes estimate   =    -748.61561523 Ry
     estimated scf accuracy    <       0.00000136 Ry

     total magnetization       =     0.00 Bohr mag/cell
     absolute magnetization    =     0.04 Bohr mag/cell

     iteration # 56     ecut=    30.00 Ry     beta= 0.05
     Davidson diagonalization with overlap
     ethr =  1.84E-09,  avg # of iterations =  2.2

     total cpu time spent up to now is     2527.6 secs

     total energy              =    -748.61561504 Ry
     Harris-Foulkes estimate   =    -748.61561562 Ry
     estimated scf accuracy    <       0.00000115 Ry

     total magnetization       =    -0.01 Bohr mag/cell
     absolute magnetization    =     0.04 Bohr mag/cell

     iteration # 57     ecut=    30.00 Ry     beta= 0.05
     Davidson diagonalization with overlap
     ethr =  1.55E-09,  avg # of iterations =  2.5

     Magnetic moment per site:
     atom:    1    charge:   12.8589    magn:    0.0037    constr:    0.0000
     atom:    2    charge:    9.0863    magn:   -0.0006    constr:    0.0000
     atom:    3    charge:    9.0863    magn:   -0.0006    constr:    0.0000
     atom:    4    charge:   12.8594    magn:   -0.0010    constr:    0.0000
     atom:    5    charge:    9.0863    magn:    0.0002    constr:    0.0000
     atom:    6    charge:    9.0862    magn:    0.0002    constr:    0.0000

     total cpu time spent up to now is     2565.0 secs

     End of self-consistent calculation

     Number of k-points >= 100: set verbosity='high' to print the bands.

     the Fermi energy is    16.3728 ev

!    total energy              =    -748.61561585 Ry
     Harris-Foulkes estimate   =    -748.61561562 Ry
     estimated scf accuracy    <       0.00000043 Ry

     The total energy is the sum of the following terms:

     one-electron contribution =    -142.34246159 Ry
     hartree contribution      =     119.22508770 Ry
     xc contribution           =    -178.91410248 Ry
     ewald contribution        =    -546.58413949 Ry

     total magnetization       =     0.00 Bohr mag/cell
     absolute magnetization    =     0.04 Bohr mag/cell

     convergence has been achieved in  57 iterations

     Writing output data file mnau2.save/

     init_run     :      8.58s CPU      9.05s WALL (       1 calls)
     electrons    :   2485.99s CPU   2555.20s WALL (       1 calls)

     Called by init_run:
     wfcinit      :      7.43s CPU      7.83s WALL (       1 calls)
     potinit      :      0.31s CPU      0.31s WALL (       1 calls)
     hinit0       :      0.78s CPU      0.85s WALL (       1 calls)

     Called by electrons:
     c_bands      :   2235.08s CPU   2293.86s WALL (      57 calls)
     sum_band     :    247.21s CPU    257.40s WALL (      57 calls)
     v_of_rho     :      1.23s CPU      1.24s WALL (      58 calls)
     newd         :      2.30s CPU      2.31s WALL (      58 calls)
     mix_rho      :      0.12s CPU      0.18s WALL (      57 calls)

     Called by c_bands:
     init_us_2    :     12.82s CPU     13.35s WALL (   93150 calls)
     cegterg      :   2209.00s CPU   2266.97s WALL (   46170 calls)

     Called by sum_band:
     sum_band:bec :      0.88s CPU      0.94s WALL (   46170 calls)
     addusdens    :      3.76s CPU      3.77s WALL (      57 calls)

     Called by *egterg:
     h_psi        :    596.60s CPU    646.70s WALL (  170816 calls)
     s_psi        :     26.06s CPU     27.15s WALL (  170816 calls)
     g_psi        :      5.04s CPU      5.09s WALL (  123836 calls)
     cdiaghg      :   1382.13s CPU   1386.42s WALL (  170006 calls)

     Called by h_psi:
     h_psi:pot    :    593.84s CPU    643.87s WALL (  170816 calls)
     h_psi:calbec :     46.09s CPU     49.65s WALL (  170816 calls)
     vloc_psi     :    519.33s CPU    564.27s WALL (  170816 calls)
     add_vuspsi   :     27.67s CPU     29.27s WALL (  170816 calls)

     General routines
     calbec       :     61.64s CPU     66.52s WALL (  216986 calls)
     fft          :      0.44s CPU      0.48s WALL (    1446 calls)
     ffts         :      0.02s CPU      0.02s WALL (     230 calls)
     fftw         :    577.81s CPU    627.91s WALL (12558040 calls)
     interpolate  :      0.04s CPU      0.04s WALL (     116 calls)

     Parallel routines
     fft_scatt_xy :     53.84s CPU     57.88s WALL (12559716 calls)
     fft_scatt_yz :    362.55s CPU    395.52s WALL (12559716 calls)

     PWSCF        : 41m39.94s CPU    43m16.81s WALL


   This run was terminated on:  21:36:59  11Feb2019            

=------------------------------------------------------------------------------=
   JOB DONE.
=------------------------------------------------------------------------------=
