
     Program PWSCF v.6.3MaX starts on  7Apr2019 at 17: 7:19 

     This program is part of the open-source Quantum ESPRESSO suite
     for quantum simulation of materials; please cite
         "P. Giannozzi et al., J. Phys.:Condens. Matter 21 395502 (2009);
         "P. Giannozzi et al., J. Phys.:Condens. Matter 29 465901 (2017);
          URL http://www.quantum-espresso.org", 
     in publications or presentations arising from this work. More details at
     http://www.quantum-espresso.org/quote

     Parallel version (MPI), running on    48 processors

     MPI processes distributed on     2 nodes
     R & G space division:  proc/nbgrp/npool/nimage =      48
     Waiting for input...
     Reading input from standard input

     Current dimensions of program PWSCF are:
     Max number of different atomic species (ntypx) = 10
     Max number of k-points (npk) =  40000
     Max angular momentum in pseudopotentials (lmaxx) =  3
               file Mn.pbe-spn-kjpaw_psl.0.3.1.UPF: wavefunction(s)  3P 3D renormalized
               file Au.pbe-dn-kjpaw_psl.0.1.UPF: wavefunction(s)  6S 6P 5D renormalized

     Subspace diagonalization in iterative solution of the eigenvalue problem:
     one sub-group per band group will be used
     scalapack distributed-memory algorithm (size of sub-group:  4*  4 procs)

     Found symmetry operation: I + ( -0.5000 -0.5000  0.1250)
     This is a supercell, fractional translations are disabled
 
     Parallelization info
     --------------------
     sticks:   dense  smooth     PW     G-vecs:    dense   smooth      PW
     Min          27      12      3                 7661     2304     359
     Max          28      13      4                 7708     2353     410
     Sum        1313     593    177               368373   111379   18691
 


     bravais-lattice index     =            0
     lattice parameter (alat)  =       6.4153  a.u.
     unit-cell volume          =    2724.7774 (a.u.)^3
     number of atoms/cell      =           24
     number of atomic types    =            2
     number of electrons       =       296.00
     number of Kohn-Sham states=          178
     kinetic-energy cutoff     =      45.0000  Ry
     charge density cutoff     =     400.0000  Ry
     convergence threshold     =      1.0E-06
     mixing beta               =       0.1000
     number of iterations used =            8  plain     mixing
     Exchange-correlation      = SLA PW PBX PBC ( 1  4  3  4 0 0)

     celldm(1)=   6.415315  celldm(2)=   0.000000  celldm(3)=   0.000000
     celldm(4)=   0.000000  celldm(5)=   0.000000  celldm(6)=   0.000000

     crystal axes: (cart. coord. in units of alat)
               a(1) = (   1.000000   0.000000   0.000000 )  
               a(2) = (   0.000000   1.000000   0.000000 )  
               a(3) = (   0.000000   0.000000  10.319937 )  

     reciprocal axes: (cart. coord. in units 2 pi/alat)
               b(1) = (  1.000000  0.000000  0.000000 )  
               b(2) = (  0.000000  1.000000  0.000000 )  
               b(3) = (  0.000000  0.000000  0.096900 )  


     PseudoPot. # 1 for Mn read from file:
     ./pseudo/Mn.pbe-spn-kjpaw_psl.0.3.1.UPF
     MD5 check sum: 7b43a3fb0e93e198b8dd8488d8cf503e
     Pseudo is Projector augmented-wave + core cor, Zval = 15.0
     Generated using "atomic" code by A. Dal Corso v.5.0.99 svn rev. 10869
     Shape of augmentation charge: PSQ
     Using radial grid of 1187 points,  6 beta functions with: 
                l(1) =   0
                l(2) =   0
                l(3) =   1
                l(4) =   1
                l(5) =   2
                l(6) =   2
     Q(r) pseudized with 0 coefficients 


     PseudoPot. # 2 for Au read from file:
     ./pseudo/Au.pbe-dn-kjpaw_psl.0.1.UPF
     MD5 check sum: be11e2e8e535ebe2b3ccfb4f88f554cb
     Pseudo is Projector augmented-wave + core cor, Zval = 11.0
     Generated using "atomic" code by A. Dal Corso v.5.0.2 svn rev. 9415
     Shape of augmentation charge: PSQ
     Using radial grid of 1279 points,  6 beta functions with: 
                l(1) =   0
                l(2) =   0
                l(3) =   1
                l(4) =   1
                l(5) =   2
                l(6) =   2
     Q(r) pseudized with 0 coefficients 


     atomic species   valence    mass     pseudopotential
        Mn            15.00    54.93800     Mn( 1.00)
        Au            11.00   196.96600     Au( 1.00)

     Starting magnetic structure 
     atomic species   magnetization
        Mn           0.000
        Au           0.000


     Full LDA+U calculation (l_max = 2) with parameters (eV):
     U(  1) =   3.1200   J(  1) =   0.7000   B(  1) =   0.0803



     16 Sym. Ops., with inversion, found



   Cartesian axes

     site n.     atom                  positions (alat units)
         1           Mn  tau(   1) = (   0.0000000   0.0000000   0.0000000  )
         2           Mn  tau(   2) = (   0.5000000   0.5000000   1.2899921  )
         3           Mn  tau(   3) = (   0.0000000   0.0000000   2.5799843  )
         4           Mn  tau(   4) = (   0.5000000   0.5000000   3.8699764  )
         5           Mn  tau(   5) = (   0.0000000   0.0000000   5.1599686  )
         6           Mn  tau(   6) = (   0.5000000   0.5000000   6.4499607  )
         7           Mn  tau(   7) = (   0.0000000   0.0000000   7.7399528  )
         8           Mn  tau(   8) = (   0.5000000   0.5000000   9.0299450  )
         9           Au  tau(   9) = (   0.5000000   0.5000000   0.4127975  )
        10           Au  tau(  10) = (   0.0000000   0.0000000   0.8771947  )
        11           Au  tau(  11) = (   0.0000000   0.0000000   1.7027896  )
        12           Au  tau(  12) = (   0.5000000   0.5000000   2.1671868  )
        13           Au  tau(  13) = (   0.5000000   0.5000000   2.9927818  )
        14           Au  tau(  14) = (   0.0000000   0.0000000   3.4571789  )
        15           Au  tau(  15) = (   0.0000000   0.0000000   4.2827739  )
        16           Au  tau(  16) = (   0.5000000   0.5000000   4.7471711  )
        17           Au  tau(  17) = (   0.5000000   0.5000000   5.5727660  )
        18           Au  tau(  18) = (   0.0000000   0.0000000   6.0371632  )
        19           Au  tau(  19) = (   0.0000000   0.0000000   6.8627582  )
        20           Au  tau(  20) = (   0.5000000   0.5000000   7.3271553  )
        21           Au  tau(  21) = (   0.5000000   0.5000000   8.1527503  )
        22           Au  tau(  22) = (   0.0000000   0.0000000   8.6171475  )
        23           Au  tau(  23) = (   0.0000000   0.0000000   9.4427424  )
        24           Au  tau(  24) = (   0.5000000   0.5000000   9.9071396  )

     number of k points=    30 (tetrahedron method)
                       cart. coord. in units 2pi/alat
        k(    1) = (   0.0000000   0.0000000   0.0000000), wk =   0.0078125
        k(    2) = (   0.0000000   0.0000000  -0.0484499), wk =   0.0078125
        k(    3) = (   0.0000000   0.1250000   0.0000000), wk =   0.0312500
        k(    4) = (   0.0000000   0.1250000  -0.0484499), wk =   0.0312500
        k(    5) = (   0.0000000   0.2500000   0.0000000), wk =   0.0312500
        k(    6) = (   0.0000000   0.2500000  -0.0484499), wk =   0.0312500
        k(    7) = (   0.0000000   0.3750000   0.0000000), wk =   0.0312500
        k(    8) = (   0.0000000   0.3750000  -0.0484499), wk =   0.0312500
        k(    9) = (   0.0000000  -0.5000000   0.0000000), wk =   0.0156250
        k(   10) = (   0.0000000  -0.5000000  -0.0484499), wk =   0.0156250
        k(   11) = (   0.1250000   0.1250000   0.0000000), wk =   0.0312500
        k(   12) = (   0.1250000   0.1250000  -0.0484499), wk =   0.0312500
        k(   13) = (   0.1250000   0.2500000   0.0000000), wk =   0.0625000
        k(   14) = (   0.1250000   0.2500000  -0.0484499), wk =   0.0625000
        k(   15) = (   0.1250000   0.3750000   0.0000000), wk =   0.0625000
        k(   16) = (   0.1250000   0.3750000  -0.0484499), wk =   0.0625000
        k(   17) = (   0.1250000  -0.5000000   0.0000000), wk =   0.0312500
        k(   18) = (   0.1250000  -0.5000000  -0.0484499), wk =   0.0312500
        k(   19) = (   0.2500000   0.2500000   0.0000000), wk =   0.0312500
        k(   20) = (   0.2500000   0.2500000  -0.0484499), wk =   0.0312500
        k(   21) = (   0.2500000   0.3750000   0.0000000), wk =   0.0625000
        k(   22) = (   0.2500000   0.3750000  -0.0484499), wk =   0.0625000
        k(   23) = (   0.2500000  -0.5000000   0.0000000), wk =   0.0312500
        k(   24) = (   0.2500000  -0.5000000  -0.0484499), wk =   0.0312500
        k(   25) = (   0.3750000   0.3750000   0.0000000), wk =   0.0312500
        k(   26) = (   0.3750000   0.3750000  -0.0484499), wk =   0.0312500
        k(   27) = (   0.3750000  -0.5000000   0.0000000), wk =   0.0312500
        k(   28) = (   0.3750000  -0.5000000  -0.0484499), wk =   0.0312500
        k(   29) = (  -0.5000000  -0.5000000   0.0000000), wk =   0.0078125
        k(   30) = (  -0.5000000  -0.5000000  -0.0484499), wk =   0.0078125

     Dense  grid:   368373 G-vectors     FFT dimensions: (  45,  45, 432)

     Smooth grid:   111379 G-vectors     FFT dimensions: (  27,  27, 288)

     Estimated max dynamical RAM per process >      95.25 MB

     Estimated total dynamical RAM >       4.46 GB
     Generating pointlists ...
     new r_m :   0.3377 (alat units)  2.1668 (a.u.) for type    1
     new r_m :   0.3377 (alat units)  2.1668 (a.u.) for type    2

     Check: negative/imaginary core charge=   -0.000006    0.000000

     Initial potential from superposition of free atoms

     starting charge  295.99426, renormalised to  296.00000
     Number of +U iterations with fixed ns =  0
     Starting occupations:
 --- enter write_ns ---
 LDA+U parameters:
U(  1) =   3.1200   J(  1) =   0.7000   B(  1) =   0.0803
atom    1   Tr[ns(na)] (up, down, total) =   2.50000  2.50000  5.00000
   spin  1
    eigenvalues: 
  0.500  0.500  0.500  0.500  0.500
    eigenvectors:
  1.000  0.000  0.000  0.000  0.000
  0.000  1.000  0.000  0.000  0.000
  0.000  0.000  1.000  0.000  0.000
  0.000  0.000  0.000  1.000  0.000
  0.000  0.000  0.000  0.000  1.000
    occupations:
  0.500  0.000  0.000  0.000  0.000
  0.000  0.500  0.000  0.000  0.000
  0.000  0.000  0.500  0.000  0.000
  0.000  0.000  0.000  0.500  0.000
  0.000  0.000  0.000  0.000  0.500
   spin  2
    eigenvalues: 
  0.500  0.500  0.500  0.500  0.500
    eigenvectors:
  1.000  0.000  0.000  0.000  0.000
  0.000  1.000  0.000  0.000  0.000
  0.000  0.000  1.000  0.000  0.000
  0.000  0.000  0.000  1.000  0.000
  0.000  0.000  0.000  0.000  1.000
    occupations:
  0.500  0.000  0.000  0.000  0.000
  0.000  0.500  0.000  0.000  0.000
  0.000  0.000  0.500  0.000  0.000
  0.000  0.000  0.000  0.500  0.000
  0.000  0.000  0.000  0.000  0.500
atomic mag. moment =     0.000000
atom    2   Tr[ns(na)] (up, down, total) =   2.50000  2.50000  5.00000
   spin  1
    eigenvalues: 
  0.500  0.500  0.500  0.500  0.500
    eigenvectors:
  1.000  0.000  0.000  0.000  0.000
  0.000  1.000  0.000  0.000  0.000
  0.000  0.000  1.000  0.000  0.000
  0.000  0.000  0.000  1.000  0.000
  0.000  0.000  0.000  0.000  1.000
    occupations:
  0.500  0.000  0.000  0.000  0.000
  0.000  0.500  0.000  0.000  0.000
  0.000  0.000  0.500  0.000  0.000
  0.000  0.000  0.000  0.500  0.000
  0.000  0.000  0.000  0.000  0.500
   spin  2
    eigenvalues: 
  0.500  0.500  0.500  0.500  0.500
    eigenvectors:
  1.000  0.000  0.000  0.000  0.000
  0.000  1.000  0.000  0.000  0.000
  0.000  0.000  1.000  0.000  0.000
  0.000  0.000  0.000  1.000  0.000
  0.000  0.000  0.000  0.000  1.000
    occupations:
  0.500  0.000  0.000  0.000  0.000
  0.000  0.500  0.000  0.000  0.000
  0.000  0.000  0.500  0.000  0.000
  0.000  0.000  0.000  0.500  0.000
  0.000  0.000  0.000  0.000  0.500
atomic mag. moment =     0.000000
atom    3   Tr[ns(na)] (up, down, total) =   2.50000  2.50000  5.00000
   spin  1
    eigenvalues: 
  0.500  0.500  0.500  0.500  0.500
    eigenvectors:
  1.000  0.000  0.000  0.000  0.000
  0.000  1.000  0.000  0.000  0.000
  0.000  0.000  1.000  0.000  0.000
  0.000  0.000  0.000  1.000  0.000
  0.000  0.000  0.000  0.000  1.000
    occupations:
  0.500  0.000  0.000  0.000  0.000
  0.000  0.500  0.000  0.000  0.000
  0.000  0.000  0.500  0.000  0.000
  0.000  0.000  0.000  0.500  0.000
  0.000  0.000  0.000  0.000  0.500
   spin  2
    eigenvalues: 
  0.500  0.500  0.500  0.500  0.500
    eigenvectors:
  1.000  0.000  0.000  0.000  0.000
  0.000  1.000  0.000  0.000  0.000
  0.000  0.000  1.000  0.000  0.000
  0.000  0.000  0.000  1.000  0.000
  0.000  0.000  0.000  0.000  1.000
    occupations:
  0.500  0.000  0.000  0.000  0.000
  0.000  0.500  0.000  0.000  0.000
  0.000  0.000  0.500  0.000  0.000
  0.000  0.000  0.000  0.500  0.000
  0.000  0.000  0.000  0.000  0.500
atomic mag. moment =     0.000000
atom    4   Tr[ns(na)] (up, down, total) =   2.50000  2.50000  5.00000
   spin  1
    eigenvalues: 
  0.500  0.500  0.500  0.500  0.500
    eigenvectors:
  1.000  0.000  0.000  0.000  0.000
  0.000  1.000  0.000  0.000  0.000
  0.000  0.000  1.000  0.000  0.000
  0.000  0.000  0.000  1.000  0.000
  0.000  0.000  0.000  0.000  1.000
    occupations:
  0.500  0.000  0.000  0.000  0.000
  0.000  0.500  0.000  0.000  0.000
  0.000  0.000  0.500  0.000  0.000
  0.000  0.000  0.000  0.500  0.000
  0.000  0.000  0.000  0.000  0.500
   spin  2
    eigenvalues: 
  0.500  0.500  0.500  0.500  0.500
    eigenvectors:
  1.000  0.000  0.000  0.000  0.000
  0.000  1.000  0.000  0.000  0.000
  0.000  0.000  1.000  0.000  0.000
  0.000  0.000  0.000  1.000  0.000
  0.000  0.000  0.000  0.000  1.000
    occupations:
  0.500  0.000  0.000  0.000  0.000
  0.000  0.500  0.000  0.000  0.000
  0.000  0.000  0.500  0.000  0.000
  0.000  0.000  0.000  0.500  0.000
  0.000  0.000  0.000  0.000  0.500
atomic mag. moment =     0.000000
atom    5   Tr[ns(na)] (up, down, total) =   2.50000  2.50000  5.00000
   spin  1
    eigenvalues: 
  0.500  0.500  0.500  0.500  0.500
    eigenvectors:
  1.000  0.000  0.000  0.000  0.000
  0.000  1.000  0.000  0.000  0.000
  0.000  0.000  1.000  0.000  0.000
  0.000  0.000  0.000  1.000  0.000
  0.000  0.000  0.000  0.000  1.000
    occupations:
  0.500  0.000  0.000  0.000  0.000
  0.000  0.500  0.000  0.000  0.000
  0.000  0.000  0.500  0.000  0.000
  0.000  0.000  0.000  0.500  0.000
  0.000  0.000  0.000  0.000  0.500
   spin  2
    eigenvalues: 
  0.500  0.500  0.500  0.500  0.500
    eigenvectors:
  1.000  0.000  0.000  0.000  0.000
  0.000  1.000  0.000  0.000  0.000
  0.000  0.000  1.000  0.000  0.000
  0.000  0.000  0.000  1.000  0.000
  0.000  0.000  0.000  0.000  1.000
    occupations:
  0.500  0.000  0.000  0.000  0.000
  0.000  0.500  0.000  0.000  0.000
  0.000  0.000  0.500  0.000  0.000
  0.000  0.000  0.000  0.500  0.000
  0.000  0.000  0.000  0.000  0.500
atomic mag. moment =     0.000000
atom    6   Tr[ns(na)] (up, down, total) =   2.50000  2.50000  5.00000
   spin  1
    eigenvalues: 
  0.500  0.500  0.500  0.500  0.500
    eigenvectors:
  1.000  0.000  0.000  0.000  0.000
  0.000  1.000  0.000  0.000  0.000
  0.000  0.000  1.000  0.000  0.000
  0.000  0.000  0.000  1.000  0.000
  0.000  0.000  0.000  0.000  1.000
    occupations:
  0.500  0.000  0.000  0.000  0.000
  0.000  0.500  0.000  0.000  0.000
  0.000  0.000  0.500  0.000  0.000
  0.000  0.000  0.000  0.500  0.000
  0.000  0.000  0.000  0.000  0.500
   spin  2
    eigenvalues: 
  0.500  0.500  0.500  0.500  0.500
    eigenvectors:
  1.000  0.000  0.000  0.000  0.000
  0.000  1.000  0.000  0.000  0.000
  0.000  0.000  1.000  0.000  0.000
  0.000  0.000  0.000  1.000  0.000
  0.000  0.000  0.000  0.000  1.000
    occupations:
  0.500  0.000  0.000  0.000  0.000
  0.000  0.500  0.000  0.000  0.000
  0.000  0.000  0.500  0.000  0.000
  0.000  0.000  0.000  0.500  0.000
  0.000  0.000  0.000  0.000  0.500
atomic mag. moment =     0.000000
atom    7   Tr[ns(na)] (up, down, total) =   2.50000  2.50000  5.00000
   spin  1
    eigenvalues: 
  0.500  0.500  0.500  0.500  0.500
    eigenvectors:
  1.000  0.000  0.000  0.000  0.000
  0.000  1.000  0.000  0.000  0.000
  0.000  0.000  1.000  0.000  0.000
  0.000  0.000  0.000  1.000  0.000
  0.000  0.000  0.000  0.000  1.000
    occupations:
  0.500  0.000  0.000  0.000  0.000
  0.000  0.500  0.000  0.000  0.000
  0.000  0.000  0.500  0.000  0.000
  0.000  0.000  0.000  0.500  0.000
  0.000  0.000  0.000  0.000  0.500
   spin  2
    eigenvalues: 
  0.500  0.500  0.500  0.500  0.500
    eigenvectors:
  1.000  0.000  0.000  0.000  0.000
  0.000  1.000  0.000  0.000  0.000
  0.000  0.000  1.000  0.000  0.000
  0.000  0.000  0.000  1.000  0.000
  0.000  0.000  0.000  0.000  1.000
    occupations:
  0.500  0.000  0.000  0.000  0.000
  0.000  0.500  0.000  0.000  0.000
  0.000  0.000  0.500  0.000  0.000
  0.000  0.000  0.000  0.500  0.000
  0.000  0.000  0.000  0.000  0.500
atomic mag. moment =     0.000000
atom    8   Tr[ns(na)] (up, down, total) =   2.50000  2.50000  5.00000
   spin  1
    eigenvalues: 
  0.500  0.500  0.500  0.500  0.500
    eigenvectors:
  1.000  0.000  0.000  0.000  0.000
  0.000  1.000  0.000  0.000  0.000
  0.000  0.000  1.000  0.000  0.000
  0.000  0.000  0.000  1.000  0.000
  0.000  0.000  0.000  0.000  1.000
    occupations:
  0.500  0.000  0.000  0.000  0.000
  0.000  0.500  0.000  0.000  0.000
  0.000  0.000  0.500  0.000  0.000
  0.000  0.000  0.000  0.500  0.000
  0.000  0.000  0.000  0.000  0.500
   spin  2
    eigenvalues: 
  0.500  0.500  0.500  0.500  0.500
    eigenvectors:
  1.000  0.000  0.000  0.000  0.000
  0.000  1.000  0.000  0.000  0.000
  0.000  0.000  1.000  0.000  0.000
  0.000  0.000  0.000  1.000  0.000
  0.000  0.000  0.000  0.000  1.000
    occupations:
  0.500  0.000  0.000  0.000  0.000
  0.000  0.500  0.000  0.000  0.000
  0.000  0.000  0.500  0.000  0.000
  0.000  0.000  0.000  0.500  0.000
  0.000  0.000  0.000  0.000  0.500
atomic mag. moment =     0.000000
N of occupied +U levels =   40.000000
 --- exit write_ns ---
 Atomic wfc used for LDA+U Projector are NOT orthogonalized
     Starting wfcs are  224 randomized atomic wfcs
     Checking if some PAW data can be deallocated... 

     total cpu time spent up to now is       46.6 secs

     Self-consistent Calculation

     iteration #  1     ecut=    45.00 Ry     beta= 0.10
     Davidson diagonalization with overlap
     ethr =  1.00E-02,  avg # of iterations =  2.5
 --- enter write_ns ---
 LDA+U parameters:
U(  1) =   3.1200   J(  1) =   0.7000   B(  1) =   0.0803
atom    1   Tr[ns(na)] (up, down, total) =   4.31987  4.32331  8.64317
   spin  1
    eigenvalues: 
  0.791  0.832  0.832  0.876  0.989
    eigenvectors:
  0.000  0.000  0.000  1.000  0.000
  0.000  0.398  0.602  0.000  0.000
  0.000  0.602  0.398  0.000  0.000
  0.000  0.000  0.000  0.000  1.000
  1.000  0.000  0.000  0.000  0.000
    occupations:
  0.876 -0.000 -0.000  0.000  0.000
 -0.000  0.832 -0.000  0.000  0.000
 -0.000 -0.000  0.832  0.000  0.000
  0.000  0.000  0.000  0.989 -0.000
  0.000  0.000  0.000 -0.000  0.791
   spin  2
    eigenvalues: 
  0.793  0.832  0.832  0.879  0.989
    eigenvectors:
  0.000  0.000  0.000  1.000  0.000
  0.000  0.325  0.675  0.000  0.000
  0.000  0.675  0.325  0.000  0.000
  0.000  0.000  0.000  0.000  1.000
  1.000  0.000  0.000  0.000  0.000
    occupations:
  0.879 -0.000 -0.000  0.000  0.000
 -0.000  0.832 -0.000  0.000  0.000
 -0.000 -0.000  0.832  0.000  0.000
  0.000  0.000  0.000  0.989 -0.000
  0.000  0.000  0.000 -0.000  0.793
atomic mag. moment =    -0.003438
atom    2   Tr[ns(na)] (up, down, total) =   4.33085  4.32969  8.66054
   spin  1
    eigenvalues: 
  0.795  0.834  0.834  0.880  0.989
    eigenvectors:
  0.000  0.000  0.000  1.000  0.000
  0.000  0.292  0.708  0.000  0.000
  0.000  0.708  0.292  0.000  0.000
  0.000  0.000  0.000  0.000  1.000
  1.000  0.000  0.000  0.000  0.000
    occupations:
  0.880 -0.000 -0.000  0.000  0.000
 -0.000  0.834 -0.000  0.000  0.000
 -0.000 -0.000  0.834  0.000  0.000
  0.000  0.000  0.000  0.989 -0.000
  0.000  0.000  0.000 -0.000  0.795
   spin  2
    eigenvalues: 
  0.794  0.835  0.835  0.877  0.989
    eigenvectors:
  0.000  0.000  0.000  1.000  0.000
  0.000  0.430  0.570  0.000  0.000
  0.000  0.570  0.430  0.000  0.000
  0.000  0.000  0.000  0.000  1.000
  1.000  0.000  0.000  0.000  0.000
    occupations:
  0.877 -0.000 -0.000  0.000  0.000
 -0.000  0.835 -0.000  0.000  0.000
 -0.000 -0.000  0.835  0.000  0.000
  0.000  0.000  0.000  0.989 -0.000
  0.000  0.000  0.000 -0.000  0.794
atomic mag. moment =     0.001165
atom    3   Tr[ns(na)] (up, down, total) =   4.32951  4.33264  8.66215
   spin  1
    eigenvalues: 
  0.793  0.834  0.834  0.879  0.989
    eigenvectors:
  0.000  0.000  0.000  1.000  0.000
  0.000  0.288  0.712  0.000  0.000
  0.000  0.712  0.288  0.000  0.000
  0.000  0.000  0.000  0.000  1.000
  1.000  0.000  0.000  0.000  0.000
    occupations:
  0.879 -0.000 -0.000  0.000  0.000
 -0.000  0.834 -0.000  0.000  0.000
 -0.000 -0.000  0.834  0.000  0.000
  0.000  0.000  0.000  0.989 -0.000
  0.000  0.000  0.000 -0.000  0.793
   spin  2
    eigenvalues: 
  0.797  0.834  0.834  0.879  0.988
    eigenvectors:
  0.000  0.000  0.000  1.000  0.000
  0.000  0.383  0.617  0.000  0.000
  0.000  0.617  0.383  0.000  0.000
  0.000  0.000  0.000  0.000  1.000
  1.000  0.000  0.000  0.000  0.000
    occupations:
  0.879 -0.000 -0.000  0.000  0.000
 -0.000  0.834 -0.000  0.000  0.000
 -0.000 -0.000  0.834  0.000  0.000
  0.000  0.000  0.000  0.988 -0.000
  0.000  0.000  0.000 -0.000  0.797
atomic mag. moment =    -0.003122
atom    4   Tr[ns(na)] (up, down, total) =   4.33049  4.33070  8.66119
   spin  1
    eigenvalues: 
  0.795  0.834  0.834  0.878  0.989
    eigenvectors:
  0.000  0.000  0.000  1.000  0.000
  0.000  0.304  0.696  0.000  0.000
  0.000  0.696  0.304  0.000  0.000
  0.000  0.000  0.000  0.000  1.000
  1.000  0.000  0.000  0.000  0.000
    occupations:
  0.878 -0.000 -0.000  0.000  0.000
 -0.000  0.834 -0.000  0.000  0.000
 -0.000 -0.000  0.834  0.000  0.000
  0.000  0.000  0.000  0.989 -0.000
  0.000  0.000  0.000 -0.000  0.795
   spin  2
    eigenvalues: 
  0.795  0.834  0.834  0.880  0.989
    eigenvectors:
  0.000  0.000  0.000  1.000  0.000
  0.000  0.236  0.764  0.000  0.000
  0.000  0.764  0.236  0.000  0.000
  0.000  0.000  0.000  0.000  1.000
  1.000  0.000  0.000  0.000  0.000
    occupations:
  0.880 -0.000 -0.000  0.000  0.000
 -0.000  0.834 -0.000  0.000  0.000
 -0.000 -0.000  0.834  0.000  0.000
  0.000  0.000  0.000  0.989 -0.000
  0.000  0.000  0.000 -0.000  0.795
atomic mag. moment =    -0.000203
atom    5   Tr[ns(na)] (up, down, total) =   4.34180  4.33834  8.68014
   spin  1
    eigenvalues: 
  0.796  0.837  0.837  0.884  0.989
    eigenvectors:
  0.000  0.000  0.000  1.000  0.000
  0.000  0.307  0.693  0.000  0.000
  0.000  0.693  0.307  0.000  0.000
  0.000  0.000  0.000  0.000  1.000
  1.000  0.000  0.000  0.000  0.000
    occupations:
  0.884 -0.000 -0.000  0.000  0.000
 -0.000  0.837 -0.000  0.000  0.000
 -0.000 -0.000  0.837  0.000  0.000
  0.000  0.000  0.000  0.989 -0.000
  0.000  0.000  0.000 -0.000  0.796
   spin  2
    eigenvalues: 
  0.794  0.837  0.837  0.883  0.988
    eigenvectors:
  0.000  0.000  0.000  1.000  0.000
  0.000  0.362  0.638  0.000  0.000
  0.000  0.638  0.362  0.000  0.000
  0.000  0.000  0.000  0.000  1.000
  1.000  0.000  0.000  0.000  0.000
    occupations:
  0.883 -0.000 -0.000  0.000  0.000
 -0.000  0.837 -0.000  0.000  0.000
 -0.000 -0.000  0.837  0.000  0.000
  0.000  0.000  0.000  0.988 -0.000
  0.000  0.000  0.000 -0.000  0.794
atomic mag. moment =     0.003460
atom    6   Tr[ns(na)] (up, down, total) =   4.33049  4.33070  8.66119
   spin  1
    eigenvalues: 
  0.795  0.834  0.834  0.878  0.989
    eigenvectors:
  0.000  0.000  0.000  1.000  0.000
  0.000  0.254  0.746  0.000  0.000
  0.000  0.746  0.254  0.000  0.000
  0.000  0.000  0.000  0.000  1.000
  1.000  0.000  0.000  0.000  0.000
    occupations:
  0.878 -0.000 -0.000  0.000  0.000
 -0.000  0.834 -0.000  0.000  0.000
 -0.000 -0.000  0.834  0.000  0.000
  0.000  0.000  0.000  0.989 -0.000
  0.000  0.000  0.000 -0.000  0.795
   spin  2
    eigenvalues: 
  0.795  0.834  0.834  0.880  0.989
    eigenvectors:
  0.000  0.000  0.000  1.000  0.000
  0.000  0.260  0.740  0.000  0.000
  0.000  0.740  0.260  0.000  0.000
  0.000  0.000  0.000  0.000  1.000
  1.000  0.000  0.000  0.000  0.000
    occupations:
  0.880 -0.000 -0.000  0.000  0.000
 -0.000  0.834 -0.000  0.000  0.000
 -0.000 -0.000  0.834  0.000  0.000
  0.000  0.000  0.000  0.989 -0.000
  0.000  0.000  0.000 -0.000  0.795
atomic mag. moment =    -0.000203
atom    7   Tr[ns(na)] (up, down, total) =   4.32951  4.33264  8.66215
   spin  1
    eigenvalues: 
  0.793  0.834  0.834  0.879  0.989
    eigenvectors:
  0.000  0.000  0.000  1.000  0.000
  0.000  0.274  0.726  0.000  0.000
  0.000  0.726  0.274  0.000  0.000
  0.000  0.000  0.000  0.000  1.000
  1.000  0.000  0.000  0.000  0.000
    occupations:
  0.879 -0.000 -0.000  0.000  0.000
 -0.000  0.834 -0.000  0.000  0.000
 -0.000 -0.000  0.834  0.000  0.000
  0.000  0.000  0.000  0.989 -0.000
  0.000  0.000  0.000 -0.000  0.793
   spin  2
    eigenvalues: 
  0.797  0.834  0.834  0.879  0.988
    eigenvectors:
  0.000  0.000  0.000  1.000  0.000
  0.000  0.297  0.703  0.000  0.000
  0.000  0.703  0.297  0.000  0.000
  0.000  0.000  0.000  0.000  1.000
  1.000  0.000  0.000  0.000  0.000
    occupations:
  0.879 -0.000 -0.000  0.000  0.000
 -0.000  0.834 -0.000  0.000  0.000
 -0.000 -0.000  0.834  0.000  0.000
  0.000  0.000  0.000  0.988 -0.000
  0.000  0.000  0.000 -0.000  0.797
atomic mag. moment =    -0.003122
atom    8   Tr[ns(na)] (up, down, total) =   4.33085  4.32969  8.66054
   spin  1
    eigenvalues: 
  0.795  0.834  0.834  0.880  0.989
    eigenvectors:
  0.000  0.000  0.000  1.000  0.000
  0.000  0.354  0.646  0.000  0.000
  0.000  0.646  0.354  0.000  0.000
  0.000  0.000  0.000  0.000  1.000
  1.000  0.000  0.000  0.000  0.000
    occupations:
  0.880 -0.000 -0.000  0.000  0.000
 -0.000  0.834 -0.000  0.000  0.000
 -0.000 -0.000  0.834  0.000  0.000
  0.000  0.000  0.000  0.989 -0.000
  0.000  0.000  0.000 -0.000  0.795
   spin  2
    eigenvalues: 
  0.794  0.835  0.835  0.877  0.989
    eigenvectors:
  0.000  0.000  0.000  1.000  0.000
  0.000  0.363  0.637  0.000  0.000
  0.000  0.637  0.363  0.000  0.000
  0.000  0.000  0.000  0.000  1.000
  1.000  0.000  0.000  0.000  0.000
    occupations:
  0.877 -0.000 -0.000  0.000  0.000
 -0.000  0.835 -0.000  0.000  0.000
 -0.000 -0.000  0.835  0.000  0.000
  0.000  0.000  0.000  0.989 -0.000
  0.000  0.000  0.000 -0.000  0.794
atomic mag. moment =     0.001165
N of occupied +U levels =   69.291085
 --- exit write_ns ---

     total cpu time spent up to now is      138.8 secs

     total energy              =  -14687.14269927 Ry
     Harris-Foulkes estimate   =  -14694.16186154 Ry
     estimated scf accuracy    <      43.90747672 Ry

     total magnetization       =    -0.01 Bohr mag/cell
     absolute magnetization    =     0.09 Bohr mag/cell

     iteration #  2     ecut=    45.00 Ry     beta= 0.10
     Davidson diagonalization with overlap
     ethr =  1.00E-02,  avg # of iterations =  2.0

     total cpu time spent up to now is      223.8 secs

     total energy              =  -14686.79611074 Ry
     Harris-Foulkes estimate   =  -14692.02866439 Ry
     estimated scf accuracy    <      67.47555405 Ry

     total magnetization       =    -0.04 Bohr mag/cell
     absolute magnetization    =     0.14 Bohr mag/cell

     iteration #  3     ecut=    45.00 Ry     beta= 0.10
     Davidson diagonalization with overlap
     ethr =  1.00E-02,  avg # of iterations =  4.9

     total cpu time spent up to now is      367.6 secs

     total energy              =  -14674.62627591 Ry
     Harris-Foulkes estimate   =  -14716.98033101 Ry
     estimated scf accuracy    <    5364.56196242 Ry

     total magnetization       =     0.01 Bohr mag/cell
     absolute magnetization    =     0.11 Bohr mag/cell

     iteration #  4     ecut=    45.00 Ry     beta= 0.10
     Davidson diagonalization with overlap
     ethr =  1.00E-02,  avg # of iterations =  4.2

     total cpu time spent up to now is      483.7 secs

     total energy              =  -14690.91224309 Ry
     Harris-Foulkes estimate   =  -14693.21437904 Ry
     estimated scf accuracy    <     378.71449729 Ry

     total magnetization       =     0.00 Bohr mag/cell
     absolute magnetization    =     0.16 Bohr mag/cell

     iteration #  5     ecut=    45.00 Ry     beta= 0.10
     Davidson diagonalization with overlap
     ethr =  1.00E-02,  avg # of iterations =  2.2

     total cpu time spent up to now is      568.6 secs

     total energy              =  -14691.28252188 Ry
     Harris-Foulkes estimate   =  -14691.92504389 Ry
     estimated scf accuracy    <     145.31540877 Ry

     total magnetization       =     0.00 Bohr mag/cell
     absolute magnetization    =     0.18 Bohr mag/cell

     iteration #  6     ecut=    45.00 Ry     beta= 0.10
     Davidson diagonalization with overlap
     ethr =  1.00E-02,  avg # of iterations =  2.4

     total cpu time spent up to now is      654.9 secs

     total energy              =  -14691.48987901 Ry
     Harris-Foulkes estimate   =  -14691.60645748 Ry
     estimated scf accuracy    <      24.93391346 Ry

     total magnetization       =    -0.10 Bohr mag/cell
     absolute magnetization    =     0.27 Bohr mag/cell

     iteration #  7     ecut=    45.00 Ry     beta= 0.10
     Davidson diagonalization with overlap
     ethr =  8.42E-03,  avg # of iterations =  1.7

     total cpu time spent up to now is      733.4 secs

     total energy              =  -14691.42966834 Ry
     Harris-Foulkes estimate   =  -14691.66050941 Ry
     estimated scf accuracy    <       7.55252067 Ry

     total magnetization       =     0.06 Bohr mag/cell
     absolute magnetization    =     0.28 Bohr mag/cell

     iteration #  8     ecut=    45.00 Ry     beta= 0.10
     Davidson diagonalization with overlap
     ethr =  2.55E-03,  avg # of iterations =  2.5

     total cpu time spent up to now is      822.9 secs

     total energy              =  -14691.82161075 Ry
     Harris-Foulkes estimate   =  -14691.97621559 Ry
     estimated scf accuracy    <     114.11117202 Ry

     total magnetization       =    -0.07 Bohr mag/cell
     absolute magnetization    =     0.28 Bohr mag/cell

     iteration #  9     ecut=    45.00 Ry     beta= 0.10
     Davidson diagonalization with overlap
     ethr =  2.55E-03,  avg # of iterations =  2.0

     total cpu time spent up to now is      905.3 secs

     total energy              =  -14691.76387978 Ry
     Harris-Foulkes estimate   =  -14692.10313772 Ry
     estimated scf accuracy    <     128.86532775 Ry

     total magnetization       =    -0.04 Bohr mag/cell
     absolute magnetization    =     0.18 Bohr mag/cell

     iteration # 10     ecut=    45.00 Ry     beta= 0.10
     Davidson diagonalization with overlap
     ethr =  2.55E-03,  avg # of iterations =  1.0

     total cpu time spent up to now is      976.0 secs

     total energy              =  -14691.48475109 Ry
     Harris-Foulkes estimate   =  -14691.86587025 Ry
     estimated scf accuracy    <      49.10293161 Ry

     total magnetization       =    -0.07 Bohr mag/cell
     absolute magnetization    =     0.26 Bohr mag/cell

     iteration # 11     ecut=    45.00 Ry     beta= 0.10
     Davidson diagonalization with overlap
     ethr =  2.55E-03,  avg # of iterations =  1.0

     total cpu time spent up to now is     1046.1 secs

     total energy              =  -14691.62945828 Ry
     Harris-Foulkes estimate   =  -14691.77498877 Ry
     estimated scf accuracy    <      51.78297355 Ry

     total magnetization       =    -0.03 Bohr mag/cell
     absolute magnetization    =     0.28 Bohr mag/cell

     iteration # 12     ecut=    45.00 Ry     beta= 0.10
     Davidson diagonalization with overlap
     ethr =  2.55E-03,  avg # of iterations =  1.0

     total cpu time spent up to now is     1116.2 secs

     total energy              =  -14691.73723954 Ry
     Harris-Foulkes estimate   =  -14691.72810908 Ry
     estimated scf accuracy    <       4.03090148 Ry

     total magnetization       =    -0.19 Bohr mag/cell
     absolute magnetization    =     0.43 Bohr mag/cell

     iteration # 13     ecut=    45.00 Ry     beta= 0.10
     Davidson diagonalization with overlap
     ethr =  1.36E-03,  avg # of iterations =  1.0

     total cpu time spent up to now is     1186.9 secs

     total energy              =  -14691.75612596 Ry
     Harris-Foulkes estimate   =  -14691.79538434 Ry
     estimated scf accuracy    <      20.39227822 Ry

     total magnetization       =    -0.04 Bohr mag/cell
     absolute magnetization    =     0.57 Bohr mag/cell

     iteration # 14     ecut=    45.00 Ry     beta= 0.10
     Davidson diagonalization with overlap
     ethr =  1.36E-03,  avg # of iterations =  1.0

     total cpu time spent up to now is     1257.0 secs

     total energy              =  -14691.85143698 Ry
     Harris-Foulkes estimate   =  -14691.79796433 Ry
     estimated scf accuracy    <       2.01432946 Ry

     total magnetization       =    -0.33 Bohr mag/cell
     absolute magnetization    =     0.87 Bohr mag/cell

     iteration # 15     ecut=    45.00 Ry     beta= 0.10
     Davidson diagonalization with overlap
     ethr =  6.81E-04,  avg # of iterations =  1.0

     total cpu time spent up to now is     1326.9 secs

     total energy              =  -14691.85624817 Ry
     Harris-Foulkes estimate   =  -14691.87171360 Ry
     estimated scf accuracy    <      15.05394208 Ry

     total magnetization       =    -0.43 Bohr mag/cell
     absolute magnetization    =     1.50 Bohr mag/cell

     iteration # 16     ecut=    45.00 Ry     beta= 0.10
     Davidson diagonalization with overlap
     ethr =  6.81E-04,  avg # of iterations =  1.0

     total cpu time spent up to now is     1397.2 secs

     total energy              =  -14691.84316770 Ry
     Harris-Foulkes estimate   =  -14691.86057939 Ry
     estimated scf accuracy    <       6.91353138 Ry

     total magnetization       =    -0.63 Bohr mag/cell
     absolute magnetization    =     1.90 Bohr mag/cell

     iteration # 17     ecut=    45.00 Ry     beta= 0.10
     Davidson diagonalization with overlap
     ethr =  6.81E-04,  avg # of iterations =  1.0

     total cpu time spent up to now is     1467.1 secs

     total energy              =  -14691.84669323 Ry
     Harris-Foulkes estimate   =  -14691.84578027 Ry
     estimated scf accuracy    <       5.15582275 Ry

     total magnetization       =    -0.53 Bohr mag/cell
     absolute magnetization    =     1.56 Bohr mag/cell

     iteration # 18     ecut=    45.00 Ry     beta= 0.10
     Davidson diagonalization with overlap
     ethr =  6.81E-04,  avg # of iterations =  1.0

     total cpu time spent up to now is     1537.1 secs

     total energy              =  -14691.85579016 Ry
     Harris-Foulkes estimate   =  -14691.84986923 Ry
     estimated scf accuracy    <       1.19924765 Ry

     total magnetization       =    -0.64 Bohr mag/cell
     absolute magnetization    =     2.16 Bohr mag/cell

     iteration # 19     ecut=    45.00 Ry     beta= 0.10
     Davidson diagonalization with overlap
     ethr =  4.05E-04,  avg # of iterations =  1.1

     total cpu time spent up to now is     1608.1 secs

     total energy              =  -14691.85038820 Ry
     Harris-Foulkes estimate   =  -14691.85705808 Ry
     estimated scf accuracy    <       0.23924526 Ry

     total magnetization       =    -0.63 Bohr mag/cell
     absolute magnetization    =     2.62 Bohr mag/cell

     iteration # 20     ecut=    45.00 Ry     beta= 0.10
     Davidson diagonalization with overlap
     ethr =  8.08E-05,  avg # of iterations =  1.6

     total cpu time spent up to now is     1685.6 secs

     total energy              =  -14691.85047021 Ry
     Harris-Foulkes estimate   =  -14691.85232920 Ry
     estimated scf accuracy    <       0.30434731 Ry

     total magnetization       =    -0.58 Bohr mag/cell
     absolute magnetization    =     2.25 Bohr mag/cell

     iteration # 21     ecut=    45.00 Ry     beta= 0.10
     Davidson diagonalization with overlap
     ethr =  8.08E-05,  avg # of iterations =  1.3

     total cpu time spent up to now is     1759.5 secs

     total energy              =  -14691.87020537 Ry
     Harris-Foulkes estimate   =  -14691.85200848 Ry
     estimated scf accuracy    <       0.24335489 Ry

     total magnetization       =    -0.77 Bohr mag/cell
     absolute magnetization    =     1.72 Bohr mag/cell

     iteration # 22     ecut=    45.00 Ry     beta= 0.10
     Davidson diagonalization with overlap
     ethr =  8.08E-05,  avg # of iterations =  1.0

     total cpu time spent up to now is     1829.5 secs

     total energy              =  -14691.88391141 Ry
     Harris-Foulkes estimate   =  -14691.87744468 Ry
     estimated scf accuracy    <       0.77543955 Ry

     total magnetization       =    -1.90 Bohr mag/cell
     absolute magnetization    =     2.66 Bohr mag/cell

     iteration # 23     ecut=    45.00 Ry     beta= 0.10
     Davidson diagonalization with overlap
     ethr =  8.08E-05,  avg # of iterations =  1.0

     total cpu time spent up to now is     1899.8 secs

     total energy              =  -14691.87229966 Ry
     Harris-Foulkes estimate   =  -14691.88581209 Ry
     estimated scf accuracy    <       0.63133366 Ry

     total magnetization       =    -1.83 Bohr mag/cell
     absolute magnetization    =     2.76 Bohr mag/cell

     iteration # 24     ecut=    45.00 Ry     beta= 0.10
     Davidson diagonalization with overlap
     ethr =  8.08E-05,  avg # of iterations =  1.0

     total cpu time spent up to now is     1970.0 secs

     total energy              =  -14691.86572161 Ry
     Harris-Foulkes estimate   =  -14691.87441775 Ry
     estimated scf accuracy    <       0.74631652 Ry

     total magnetization       =    -1.38 Bohr mag/cell
     absolute magnetization    =     2.24 Bohr mag/cell

     iteration # 25     ecut=    45.00 Ry     beta= 0.10
     Davidson diagonalization with overlap
     ethr =  8.08E-05,  avg # of iterations =  1.0

     total cpu time spent up to now is     2040.0 secs

     total energy              =  -14691.86621242 Ry
     Harris-Foulkes estimate   =  -14691.86901324 Ry
     estimated scf accuracy    <       0.21732653 Ry

     total magnetization       =    -0.14 Bohr mag/cell
     absolute magnetization    =     1.71 Bohr mag/cell

     iteration # 26     ecut=    45.00 Ry     beta= 0.10
     Davidson diagonalization with overlap
     ethr =  7.34E-05,  avg # of iterations =  1.0

     total cpu time spent up to now is     2110.1 secs

     total energy              =  -14691.86418683 Ry
     Harris-Foulkes estimate   =  -14691.86769969 Ry
     estimated scf accuracy    <       0.18271763 Ry

     total magnetization       =    -0.94 Bohr mag/cell
     absolute magnetization    =     1.92 Bohr mag/cell

     iteration # 27     ecut=    45.00 Ry     beta= 0.10
     Davidson diagonalization with overlap
     ethr =  6.17E-05,  avg # of iterations =  1.1

     total cpu time spent up to now is     2181.1 secs

     total energy              =  -14691.86527210 Ry
     Harris-Foulkes estimate   =  -14691.86558761 Ry
     estimated scf accuracy    <       0.13792838 Ry

     total magnetization       =    -0.70 Bohr mag/cell
     absolute magnetization    =     1.69 Bohr mag/cell

     iteration # 28     ecut=    45.00 Ry     beta= 0.10
     Davidson diagonalization with overlap
     ethr =  4.66E-05,  avg # of iterations =  1.2

     total cpu time spent up to now is     2252.9 secs

     total energy              =  -14691.86425569 Ry
     Harris-Foulkes estimate   =  -14691.86534657 Ry
     estimated scf accuracy    <       0.12487612 Ry

     total magnetization       =    -0.53 Bohr mag/cell
     absolute magnetization    =     1.66 Bohr mag/cell

     iteration # 29     ecut=    45.00 Ry     beta= 0.10
     Davidson diagonalization with overlap
     ethr =  4.22E-05,  avg # of iterations =  1.0

     total cpu time spent up to now is     2322.8 secs

     total energy              =  -14691.86402231 Ry
     Harris-Foulkes estimate   =  -14691.86439430 Ry
     estimated scf accuracy    <       0.15194670 Ry

     total magnetization       =    -0.41 Bohr mag/cell
     absolute magnetization    =     1.59 Bohr mag/cell

     iteration # 30     ecut=    45.00 Ry     beta= 0.10
     Davidson diagonalization with overlap
     ethr =  4.22E-05,  avg # of iterations =  1.0

     total cpu time spent up to now is     2393.1 secs

     total energy              =  -14691.86544835 Ry
     Harris-Foulkes estimate   =  -14691.86429466 Ry
     estimated scf accuracy    <       0.13900992 Ry

     total magnetization       =    -0.24 Bohr mag/cell
     absolute magnetization    =     1.75 Bohr mag/cell

     iteration # 31     ecut=    45.00 Ry     beta= 0.10
     Davidson diagonalization with overlap
     ethr =  4.22E-05,  avg # of iterations =  1.1

     total cpu time spent up to now is     2464.6 secs

     total energy              =  -14691.86412279 Ry
     Harris-Foulkes estimate   =  -14691.86679118 Ry
     estimated scf accuracy    <       0.22168139 Ry

     total magnetization       =     0.28 Bohr mag/cell
     absolute magnetization    =     2.08 Bohr mag/cell

     iteration # 32     ecut=    45.00 Ry     beta= 0.10
     Davidson diagonalization with overlap
     ethr =  4.22E-05,  avg # of iterations =  1.0

     total cpu time spent up to now is     2534.9 secs

     total energy              =  -14691.86431320 Ry
     Harris-Foulkes estimate   =  -14691.86448560 Ry
     estimated scf accuracy    <       0.16039397 Ry

     total magnetization       =    -0.05 Bohr mag/cell
     absolute magnetization    =     1.82 Bohr mag/cell

     iteration # 33     ecut=    45.00 Ry     beta= 0.10
     Davidson diagonalization with overlap
     ethr =  4.22E-05,  avg # of iterations =  1.0

     total cpu time spent up to now is     2605.2 secs

     total energy              =  -14691.86116718 Ry
     Harris-Foulkes estimate   =  -14691.86433873 Ry
     estimated scf accuracy    <       0.12839093 Ry

     total magnetization       =    -0.20 Bohr mag/cell
     absolute magnetization    =     1.86 Bohr mag/cell

     iteration # 34     ecut=    45.00 Ry     beta= 0.10
     Davidson diagonalization with overlap
     ethr =  4.22E-05,  avg # of iterations =  1.2

     total cpu time spent up to now is     2677.2 secs

     total energy              =  -14691.85462870 Ry
     Harris-Foulkes estimate   =  -14691.86871891 Ry
     estimated scf accuracy    <       3.69914424 Ry

     total magnetization       =    -1.59 Bohr mag/cell
     absolute magnetization    =     2.22 Bohr mag/cell

     iteration # 35     ecut=    45.00 Ry     beta= 0.10
     Davidson diagonalization with overlap
     ethr =  4.22E-05,  avg # of iterations =  1.1

     total cpu time spent up to now is     2750.7 secs

     total energy              =  -14691.86186071 Ry
     Harris-Foulkes estimate   =  -14691.86174562 Ry
     estimated scf accuracy    <       0.04077404 Ry

     total magnetization       =     0.07 Bohr mag/cell
     absolute magnetization    =     1.67 Bohr mag/cell

     iteration # 36     ecut=    45.00 Ry     beta= 0.10
     Davidson diagonalization with overlap
     ethr =  1.38E-05,  avg # of iterations =  1.2

     total cpu time spent up to now is     2823.9 secs

     total energy              =  -14691.86370442 Ry
     Harris-Foulkes estimate   =  -14691.86198881 Ry
     estimated scf accuracy    <       0.05191976 Ry

     total magnetization       =    -0.05 Bohr mag/cell
     absolute magnetization    =     1.70 Bohr mag/cell

     iteration # 37     ecut=    45.00 Ry     beta= 0.10
     Davidson diagonalization with overlap
     ethr =  1.38E-05,  avg # of iterations =  1.0

     total cpu time spent up to now is     2894.1 secs

     total energy              =  -14691.86537660 Ry
     Harris-Foulkes estimate   =  -14691.86524226 Ry
     estimated scf accuracy    <       0.19451912 Ry

     total magnetization       =     0.64 Bohr mag/cell
     absolute magnetization    =     2.05 Bohr mag/cell

     iteration # 38     ecut=    45.00 Ry     beta= 0.10
     Davidson diagonalization with overlap
     ethr =  1.38E-05,  avg # of iterations =  1.0

     total cpu time spent up to now is     2964.4 secs

     total energy              =  -14691.86759627 Ry
     Harris-Foulkes estimate   =  -14691.86537431 Ry
     estimated scf accuracy    <       0.16794694 Ry

     total magnetization       =     0.64 Bohr mag/cell
     absolute magnetization    =     2.13 Bohr mag/cell

     iteration # 39     ecut=    45.00 Ry     beta= 0.10
     Davidson diagonalization with overlap
     ethr =  1.38E-05,  avg # of iterations =  1.0

     total cpu time spent up to now is     3034.7 secs

     total energy              =  -14691.86407356 Ry
     Harris-Foulkes estimate   =  -14691.86842291 Ry
     estimated scf accuracy    <       0.16752245 Ry

     total magnetization       =     0.16 Bohr mag/cell
     absolute magnetization    =     2.26 Bohr mag/cell

     iteration # 40     ecut=    45.00 Ry     beta= 0.10
     Davidson diagonalization with overlap
     ethr =  1.38E-05,  avg # of iterations =  1.0

     total cpu time spent up to now is     3104.7 secs

     total energy              =  -14691.86722456 Ry
     Harris-Foulkes estimate   =  -14691.86639453 Ry
     estimated scf accuracy    <       0.10027189 Ry

     total magnetization       =    -0.43 Bohr mag/cell
     absolute magnetization    =     1.82 Bohr mag/cell

     iteration # 41     ecut=    45.00 Ry     beta= 0.10
     Davidson diagonalization with overlap
     ethr =  1.38E-05,  avg # of iterations =  1.0

     total cpu time spent up to now is     3174.8 secs

     total energy              =  -14691.86202146 Ry
     Harris-Foulkes estimate   =  -14691.86735188 Ry
     estimated scf accuracy    <       0.07501048 Ry

     total magnetization       =    -0.60 Bohr mag/cell
     absolute magnetization    =     2.00 Bohr mag/cell

     iteration # 42     ecut=    45.00 Ry     beta= 0.10
     Davidson diagonalization with overlap
     ethr =  1.38E-05,  avg # of iterations =  1.0

     total cpu time spent up to now is     3244.6 secs

     total energy              =  -14691.86198116 Ry
     Harris-Foulkes estimate   =  -14691.86479759 Ry
     estimated scf accuracy    <       0.41142756 Ry

     total magnetization       =     0.35 Bohr mag/cell
     absolute magnetization    =     1.38 Bohr mag/cell

     iteration # 43     ecut=    45.00 Ry     beta= 0.10
     Davidson diagonalization with overlap
     ethr =  1.38E-05,  avg # of iterations =  1.2

     total cpu time spent up to now is     3317.2 secs

     total energy              =  -14691.86155348 Ry
     Harris-Foulkes estimate   =  -14691.86316534 Ry
     estimated scf accuracy    <       0.20502648 Ry

     total magnetization       =    -0.06 Bohr mag/cell
     absolute magnetization    =     1.13 Bohr mag/cell

     iteration # 44     ecut=    45.00 Ry     beta= 0.10
     Davidson diagonalization with overlap
     ethr =  1.38E-05,  avg # of iterations =  1.0

     total cpu time spent up to now is     3387.5 secs

     total energy              =  -14691.86265335 Ry
     Harris-Foulkes estimate   =  -14691.86269397 Ry
     estimated scf accuracy    <       0.04401315 Ry

     total magnetization       =    -0.30 Bohr mag/cell
     absolute magnetization    =     1.21 Bohr mag/cell

     iteration # 45     ecut=    45.00 Ry     beta= 0.10
     Davidson diagonalization with overlap
     ethr =  1.38E-05,  avg # of iterations =  1.0

     total cpu time spent up to now is     3457.5 secs

     total energy              =  -14691.86343107 Ry
     Harris-Foulkes estimate   =  -14691.86266562 Ry
     estimated scf accuracy    <       0.04634300 Ry

     total magnetization       =    -0.24 Bohr mag/cell
     absolute magnetization    =     1.22 Bohr mag/cell

     iteration # 46     ecut=    45.00 Ry     beta= 0.10
     Davidson diagonalization with overlap
     ethr =  1.38E-05,  avg # of iterations =  1.0

     total cpu time spent up to now is     3527.5 secs

     total energy              =  -14691.86542770 Ry
     Harris-Foulkes estimate   =  -14691.86407102 Ry
     estimated scf accuracy    <       0.18568541 Ry

     total magnetization       =    -0.09 Bohr mag/cell
     absolute magnetization    =     1.35 Bohr mag/cell

     iteration # 47     ecut=    45.00 Ry     beta= 0.10
     Davidson diagonalization with overlap
     ethr =  1.38E-05,  avg # of iterations =  1.0

     total cpu time spent up to now is     3597.5 secs

     total energy              =  -14691.86618194 Ry
     Harris-Foulkes estimate   =  -14691.86617207 Ry
     estimated scf accuracy    <       0.05163605 Ry

     total magnetization       =    -0.20 Bohr mag/cell
     absolute magnetization    =     1.64 Bohr mag/cell

     iteration # 48     ecut=    45.00 Ry     beta= 0.10
     Davidson diagonalization with overlap
     ethr =  1.38E-05,  avg # of iterations =  1.0

     total cpu time spent up to now is     3667.1 secs

     total energy              =  -14691.86612108 Ry
     Harris-Foulkes estimate   =  -14691.86627996 Ry
     estimated scf accuracy    <       0.08805425 Ry

     total magnetization       =    -0.18 Bohr mag/cell
     absolute magnetization    =     1.61 Bohr mag/cell

     iteration # 49     ecut=    45.00 Ry     beta= 0.10
     Davidson diagonalization with overlap
     ethr =  1.38E-05,  avg # of iterations =  1.0

     total cpu time spent up to now is     3736.8 secs

     total energy              =  -14691.86628142 Ry
     Harris-Foulkes estimate   =  -14691.86642453 Ry
     estimated scf accuracy    <       0.05403783 Ry

     total magnetization       =    -0.48 Bohr mag/cell
     absolute magnetization    =     1.60 Bohr mag/cell

     iteration # 50     ecut=    45.00 Ry     beta= 0.10
     Davidson diagonalization with overlap
     ethr =  1.38E-05,  avg # of iterations =  1.0

     total cpu time spent up to now is     3806.7 secs

     total energy              =  -14691.86811994 Ry
     Harris-Foulkes estimate   =  -14691.86704379 Ry
     estimated scf accuracy    <       0.03946692 Ry

     total magnetization       =    -0.32 Bohr mag/cell
     absolute magnetization    =     1.56 Bohr mag/cell

     iteration # 51     ecut=    45.00 Ry     beta= 0.10
     Davidson diagonalization with overlap
     ethr =  1.33E-05,  avg # of iterations =  1.0

     total cpu time spent up to now is     3876.2 secs

     total energy              =  -14691.86763326 Ry
     Harris-Foulkes estimate   =  -14691.86834807 Ry
     estimated scf accuracy    <       0.04747227 Ry

     total magnetization       =    -0.22 Bohr mag/cell
     absolute magnetization    =     1.74 Bohr mag/cell

     iteration # 52     ecut=    45.00 Ry     beta= 0.10
     Davidson diagonalization with overlap
     ethr =  1.33E-05,  avg # of iterations =  1.0

     total cpu time spent up to now is     3945.8 secs

     total energy              =  -14691.86771220 Ry
     Harris-Foulkes estimate   =  -14691.86799151 Ry
     estimated scf accuracy    <       0.05697213 Ry

     total magnetization       =    -0.24 Bohr mag/cell
     absolute magnetization    =     1.57 Bohr mag/cell

     iteration # 53     ecut=    45.00 Ry     beta= 0.10
     Davidson diagonalization with overlap
     ethr =  1.33E-05,  avg # of iterations =  1.0

     total cpu time spent up to now is     4015.8 secs

     total energy              =  -14691.86791319 Ry
     Harris-Foulkes estimate   =  -14691.86785585 Ry
     estimated scf accuracy    <       0.04297179 Ry

     total magnetization       =    -0.22 Bohr mag/cell
     absolute magnetization    =     1.60 Bohr mag/cell

     iteration # 54     ecut=    45.00 Ry     beta= 0.10
     Davidson diagonalization with overlap
     ethr =  1.33E-05,  avg # of iterations =  1.0

     total cpu time spent up to now is     4085.5 secs

     total energy              =  -14691.86956501 Ry
     Harris-Foulkes estimate   =  -14691.86794131 Ry
     estimated scf accuracy    <       0.04647441 Ry

     total magnetization       =    -0.24 Bohr mag/cell
     absolute magnetization    =     1.62 Bohr mag/cell

     iteration # 55     ecut=    45.00 Ry     beta= 0.10
     Davidson diagonalization with overlap
     ethr =  1.33E-05,  avg # of iterations =  1.0

     total cpu time spent up to now is     4155.3 secs

     total energy              =  -14691.87125021 Ry
     Harris-Foulkes estimate   =  -14691.87106031 Ry
     estimated scf accuracy    <       0.09122339 Ry

     total magnetization       =     0.29 Bohr mag/cell
     absolute magnetization    =     2.04 Bohr mag/cell

     iteration # 56     ecut=    45.00 Ry     beta= 0.10
     Davidson diagonalization with overlap
     ethr =  1.33E-05,  avg # of iterations =  1.0

     total cpu time spent up to now is     4225.2 secs

     total energy              =  -14691.87023686 Ry
     Harris-Foulkes estimate   =  -14691.87125940 Ry
     estimated scf accuracy    <       0.08570213 Ry

     total magnetization       =     0.29 Bohr mag/cell
     absolute magnetization    =     2.08 Bohr mag/cell

     iteration # 57     ecut=    45.00 Ry     beta= 0.10
     Davidson diagonalization with overlap
     ethr =  1.33E-05,  avg # of iterations =  1.0

     total cpu time spent up to now is     4295.5 secs

     total energy              =  -14691.86932659 Ry
     Harris-Foulkes estimate   =  -14691.87087845 Ry
     estimated scf accuracy    <       0.05310905 Ry

     total magnetization       =    -0.44 Bohr mag/cell
     absolute magnetization    =     1.87 Bohr mag/cell

     iteration # 58     ecut=    45.00 Ry     beta= 0.10
     Davidson diagonalization with overlap
     ethr =  1.33E-05,  avg # of iterations =  1.0

     total cpu time spent up to now is     4365.3 secs

     total energy              =  -14691.86999967 Ry
     Harris-Foulkes estimate   =  -14691.87018630 Ry
     estimated scf accuracy    <       0.12003448 Ry

     total magnetization       =     0.05 Bohr mag/cell
     absolute magnetization    =     1.85 Bohr mag/cell

     iteration # 59     ecut=    45.00 Ry     beta= 0.10
     Davidson diagonalization with overlap
     ethr =  1.33E-05,  avg # of iterations =  1.0

     total cpu time spent up to now is     4435.4 secs

     total energy              =  -14691.86985598 Ry
     Harris-Foulkes estimate   =  -14691.87015074 Ry
     estimated scf accuracy    <       0.10191795 Ry

     total magnetization       =     0.18 Bohr mag/cell
     absolute magnetization    =     1.90 Bohr mag/cell

     iteration # 60     ecut=    45.00 Ry     beta= 0.10
     Davidson diagonalization with overlap
     ethr =  1.33E-05,  avg # of iterations =  1.0

     total cpu time spent up to now is     4505.6 secs

     total energy              =  -14691.87000651 Ry
     Harris-Foulkes estimate   =  -14691.87023375 Ry
     estimated scf accuracy    <       0.05580576 Ry

     total magnetization       =     0.29 Bohr mag/cell
     absolute magnetization    =     1.97 Bohr mag/cell

     iteration # 61     ecut=    45.00 Ry     beta= 0.10
     Davidson diagonalization with overlap
     ethr =  1.33E-05,  avg # of iterations =  1.0

     total cpu time spent up to now is     4576.3 secs

     total energy              =  -14691.86918100 Ry
     Harris-Foulkes estimate   =  -14691.87030638 Ry
     estimated scf accuracy    <       0.05691138 Ry

     total magnetization       =     0.27 Bohr mag/cell
     absolute magnetization    =     1.88 Bohr mag/cell

     iteration # 62     ecut=    45.00 Ry     beta= 0.10
     Davidson diagonalization with overlap
     ethr =  1.33E-05,  avg # of iterations =  1.0

     total cpu time spent up to now is     4646.3 secs

     total energy              =  -14691.86891428 Ry
     Harris-Foulkes estimate   =  -14691.86975847 Ry
     estimated scf accuracy    <       0.07298093 Ry

     total magnetization       =     0.09 Bohr mag/cell
     absolute magnetization    =     1.87 Bohr mag/cell

     iteration # 63     ecut=    45.00 Ry     beta= 0.10
     Davidson diagonalization with overlap
     ethr =  1.33E-05,  avg # of iterations =  1.0

     total cpu time spent up to now is     4716.5 secs

     total energy              =  -14691.87213647 Ry
     Harris-Foulkes estimate   =  -14691.87022744 Ry
     estimated scf accuracy    <       0.03987629 Ry

     total magnetization       =     0.13 Bohr mag/cell
     absolute magnetization    =     1.77 Bohr mag/cell

     iteration # 64     ecut=    45.00 Ry     beta= 0.10
     Davidson diagonalization with overlap
     ethr =  1.33E-05,  avg # of iterations =  1.0

     total cpu time spent up to now is     4786.5 secs

     total energy              =  -14691.87423013 Ry
     Harris-Foulkes estimate   =  -14691.87374567 Ry
     estimated scf accuracy    <       0.06331983 Ry

     total magnetization       =    -0.45 Bohr mag/cell
     absolute magnetization    =     2.28 Bohr mag/cell

     iteration # 65     ecut=    45.00 Ry     beta= 0.10
     Davidson diagonalization with overlap
     ethr =  1.33E-05,  avg # of iterations =  1.0

     total cpu time spent up to now is     4856.5 secs

     total energy              =  -14691.87501256 Ry
     Harris-Foulkes estimate   =  -14691.87430753 Ry
     estimated scf accuracy    <       0.06792899 Ry

     total magnetization       =    -0.51 Bohr mag/cell
     absolute magnetization    =     2.23 Bohr mag/cell

     iteration # 66     ecut=    45.00 Ry     beta= 0.10
     Davidson diagonalization with overlap
     ethr =  1.33E-05,  avg # of iterations =  1.0

     total cpu time spent up to now is     4926.3 secs

     total energy              =  -14691.87071898 Ry
     Harris-Foulkes estimate   =  -14691.87555579 Ry
     estimated scf accuracy    <       0.05992549 Ry

     total magnetization       =    -0.11 Bohr mag/cell
     absolute magnetization    =     2.22 Bohr mag/cell

     iteration # 67     ecut=    45.00 Ry     beta= 0.10
     Davidson diagonalization with overlap
     ethr =  1.33E-05,  avg # of iterations =  1.0

     total cpu time spent up to now is     4996.3 secs

     total energy              =  -14691.87095780 Ry
     Harris-Foulkes estimate   =  -14691.87182612 Ry
     estimated scf accuracy    <       0.12616582 Ry

     total magnetization       =    -0.68 Bohr mag/cell
     absolute magnetization    =     1.98 Bohr mag/cell

     iteration # 68     ecut=    45.00 Ry     beta= 0.10
     Davidson diagonalization with overlap
     ethr =  1.33E-05,  avg # of iterations =  1.0

     total cpu time spent up to now is     5066.2 secs

     total energy              =  -14691.87128490 Ry
     Harris-Foulkes estimate   =  -14691.87111011 Ry
     estimated scf accuracy    <       0.11527644 Ry

     total magnetization       =    -1.04 Bohr mag/cell
     absolute magnetization    =     1.93 Bohr mag/cell

     iteration # 69     ecut=    45.00 Ry     beta= 0.10
     Davidson diagonalization with overlap
     ethr =  1.33E-05,  avg # of iterations =  1.0

     total cpu time spent up to now is     5136.2 secs

     total energy              =  -14691.87167982 Ry
     Harris-Foulkes estimate   =  -14691.87134198 Ry
     estimated scf accuracy    <       0.08847150 Ry

     total magnetization       =    -1.07 Bohr mag/cell
     absolute magnetization    =     1.88 Bohr mag/cell

     iteration # 70     ecut=    45.00 Ry     beta= 0.10
     Davidson diagonalization with overlap
     ethr =  1.33E-05,  avg # of iterations =  1.0

     total cpu time spent up to now is     5206.1 secs

     total energy              =  -14691.87047200 Ry
     Harris-Foulkes estimate   =  -14691.87196421 Ry
     estimated scf accuracy    <       0.18580105 Ry

     total magnetization       =    -0.99 Bohr mag/cell
     absolute magnetization    =     1.89 Bohr mag/cell

     iteration # 71     ecut=    45.00 Ry     beta= 0.10
     Davidson diagonalization with overlap
     ethr =  1.33E-05,  avg # of iterations =  1.0

     total cpu time spent up to now is     5276.1 secs

     total energy              =  -14691.87135266 Ry
     Harris-Foulkes estimate   =  -14691.87154122 Ry
     estimated scf accuracy    <       0.17019354 Ry

     total magnetization       =    -0.92 Bohr mag/cell
     absolute magnetization    =     1.93 Bohr mag/cell

     iteration # 72     ecut=    45.00 Ry     beta= 0.10
     Davidson diagonalization with overlap
     ethr =  1.33E-05,  avg # of iterations =  1.0

     total cpu time spent up to now is     5345.9 secs

     total energy              =  -14691.87251777 Ry
     Harris-Foulkes estimate   =  -14691.87145472 Ry
     estimated scf accuracy    <       0.17311976 Ry

     total magnetization       =    -0.75 Bohr mag/cell
     absolute magnetization    =     1.86 Bohr mag/cell

     iteration # 73     ecut=    45.00 Ry     beta= 0.10
     Davidson diagonalization with overlap
     ethr =  1.33E-05,  avg # of iterations =  1.0

     total cpu time spent up to now is     5416.3 secs

     total energy              =  -14691.87334435 Ry
     Harris-Foulkes estimate   =  -14691.87810284 Ry
     estimated scf accuracy    <       0.33026124 Ry

     total magnetization       =    -1.07 Bohr mag/cell
     absolute magnetization    =     2.36 Bohr mag/cell

     iteration # 74     ecut=    45.00 Ry     beta= 0.10
     Davidson diagonalization with overlap
     ethr =  1.33E-05,  avg # of iterations =  1.0

     total cpu time spent up to now is     5486.5 secs

     total energy              =  -14691.87398952 Ry
     Harris-Foulkes estimate   =  -14691.87708447 Ry
     estimated scf accuracy    <       0.06439333 Ry

     total magnetization       =    -0.61 Bohr mag/cell
     absolute magnetization    =     2.47 Bohr mag/cell

     iteration # 75     ecut=    45.00 Ry     beta= 0.10
     Davidson diagonalization with overlap
     ethr =  1.33E-05,  avg # of iterations =  1.0

     total cpu time spent up to now is     5557.1 secs

     total energy              =  -14691.86278071 Ry
     Harris-Foulkes estimate   =  -14691.87480546 Ry
     estimated scf accuracy    <       0.20976093 Ry

     total magnetization       =    -0.38 Bohr mag/cell
     absolute magnetization    =     2.12 Bohr mag/cell

     iteration # 76     ecut=    45.00 Ry     beta= 0.10
     Davidson diagonalization with overlap
     ethr =  1.33E-05,  avg # of iterations =  1.0

     total cpu time spent up to now is     5627.2 secs

     total energy              =  -14691.86861083 Ry
     Harris-Foulkes estimate   =  -14691.86702952 Ry
     estimated scf accuracy    <       0.03938285 Ry

     total magnetization       =     0.11 Bohr mag/cell
     absolute magnetization    =     1.18 Bohr mag/cell

     iteration # 77     ecut=    45.00 Ry     beta= 0.10
     Davidson diagonalization with overlap
     ethr =  1.33E-05,  avg # of iterations =  1.0

     total cpu time spent up to now is     5697.2 secs

     total energy              =  -14691.86405974 Ry
     Harris-Foulkes estimate   =  -14691.86909744 Ry
     estimated scf accuracy    <       0.02463259 Ry

     total magnetization       =    -0.11 Bohr mag/cell
     absolute magnetization    =     1.34 Bohr mag/cell

     iteration # 78     ecut=    45.00 Ry     beta= 0.10
     Davidson diagonalization with overlap
     ethr =  8.32E-06,  avg # of iterations =  1.0

     total cpu time spent up to now is     5767.4 secs

     total energy              =  -14691.86519839 Ry
     Harris-Foulkes estimate   =  -14691.86597062 Ry
     estimated scf accuracy    <       0.01314456 Ry

     total magnetization       =     0.14 Bohr mag/cell
     absolute magnetization    =     1.07 Bohr mag/cell

     iteration # 79     ecut=    45.00 Ry     beta= 0.10
     Davidson diagonalization with overlap
     ethr =  4.44E-06,  avg # of iterations =  1.2

     total cpu time spent up to now is     5838.9 secs

     total energy              =  -14691.86587364 Ry
     Harris-Foulkes estimate   =  -14691.86542153 Ry
     estimated scf accuracy    <       0.02543746 Ry

     total magnetization       =     0.34 Bohr mag/cell
     absolute magnetization    =     0.97 Bohr mag/cell

     iteration # 80     ecut=    45.00 Ry     beta= 0.10
     Davidson diagonalization with overlap
     ethr =  4.44E-06,  avg # of iterations =  1.0

     total cpu time spent up to now is     5909.0 secs

     total energy              =  -14691.86594267 Ry
     Harris-Foulkes estimate   =  -14691.86703335 Ry
     estimated scf accuracy    <       0.18648298 Ry

     total magnetization       =     0.48 Bohr mag/cell
     absolute magnetization    =     1.29 Bohr mag/cell

     iteration # 81     ecut=    45.00 Ry     beta= 0.10
     Davidson diagonalization with overlap
     ethr =  4.44E-06,  avg # of iterations =  1.0

     total cpu time spent up to now is     5978.9 secs

     total energy              =  -14691.86660786 Ry
     Harris-Foulkes estimate   =  -14691.86635502 Ry
     estimated scf accuracy    <       0.13425870 Ry

     total magnetization       =     0.80 Bohr mag/cell
     absolute magnetization    =     1.28 Bohr mag/cell

     iteration # 82     ecut=    45.00 Ry     beta= 0.10
     Davidson diagonalization with overlap
     ethr =  4.44E-06,  avg # of iterations =  1.0

     total cpu time spent up to now is     6048.7 secs

     total energy              =  -14691.86675171 Ry
     Harris-Foulkes estimate   =  -14691.86666773 Ry
     estimated scf accuracy    <       0.16598729 Ry

     total magnetization       =     0.78 Bohr mag/cell
     absolute magnetization    =     1.33 Bohr mag/cell

     iteration # 83     ecut=    45.00 Ry     beta= 0.10
     Davidson diagonalization with overlap
     ethr =  4.44E-06,  avg # of iterations =  1.0

     total cpu time spent up to now is     6118.5 secs

     total energy              =  -14691.86607096 Ry
     Harris-Foulkes estimate   =  -14691.86710148 Ry
     estimated scf accuracy    <       0.16616616 Ry

     total magnetization       =     0.39 Bohr mag/cell
     absolute magnetization    =     1.23 Bohr mag/cell

     iteration # 84     ecut=    45.00 Ry     beta= 0.10
     Davidson diagonalization with overlap
     ethr =  4.44E-06,  avg # of iterations =  1.0

     total cpu time spent up to now is     6188.6 secs

     total energy              =  -14691.86689965 Ry
     Harris-Foulkes estimate   =  -14691.86637658 Ry
     estimated scf accuracy    <       0.15222771 Ry

     total magnetization       =     0.33 Bohr mag/cell
     absolute magnetization    =     1.20 Bohr mag/cell

     iteration # 85     ecut=    45.00 Ry     beta= 0.10
     Davidson diagonalization with overlap
     ethr =  4.44E-06,  avg # of iterations =  1.0

     total cpu time spent up to now is     6258.5 secs

     total energy              =  -14691.86464227 Ry
     Harris-Foulkes estimate   =  -14691.86700750 Ry
     estimated scf accuracy    <       0.17451067 Ry

     total magnetization       =     0.19 Bohr mag/cell
     absolute magnetization    =     1.32 Bohr mag/cell

     iteration # 86     ecut=    45.00 Ry     beta= 0.10
     Davidson diagonalization with overlap
     ethr =  4.44E-06,  avg # of iterations =  1.0

     total cpu time spent up to now is     6328.3 secs

     total energy              =  -14691.86368470 Ry
     Harris-Foulkes estimate   =  -14691.86532758 Ry
     estimated scf accuracy    <       0.06215876 Ry

     total magnetization       =     0.38 Bohr mag/cell
     absolute magnetization    =     0.98 Bohr mag/cell

     iteration # 87     ecut=    45.00 Ry     beta= 0.10
     Davidson diagonalization with overlap
     ethr =  4.44E-06,  avg # of iterations =  1.0

     total cpu time spent up to now is     6398.1 secs

     total energy              =  -14691.86367242 Ry
     Harris-Foulkes estimate   =  -14691.86436142 Ry
     estimated scf accuracy    <       0.04096583 Ry

     total magnetization       =     0.46 Bohr mag/cell
     absolute magnetization    =     0.79 Bohr mag/cell

     iteration # 88     ecut=    45.00 Ry     beta= 0.10
     Davidson diagonalization with overlap
     ethr =  4.44E-06,  avg # of iterations =  1.1

     total cpu time spent up to now is     6469.4 secs

     total energy              =  -14691.86425209 Ry
     Harris-Foulkes estimate   =  -14691.86492948 Ry
     estimated scf accuracy    <       0.16289681 Ry

     total magnetization       =    -0.03 Bohr mag/cell
     absolute magnetization    =     1.16 Bohr mag/cell

     iteration # 89     ecut=    45.00 Ry     beta= 0.10
     Davidson diagonalization with overlap
     ethr =  4.44E-06,  avg # of iterations =  1.0

     total cpu time spent up to now is     6539.1 secs

     total energy              =  -14691.86398457 Ry
     Harris-Foulkes estimate   =  -14691.86474535 Ry
     estimated scf accuracy    <       0.00547989 Ry

     total magnetization       =     0.31 Bohr mag/cell
     absolute magnetization    =     1.10 Bohr mag/cell

     iteration # 90     ecut=    45.00 Ry     beta= 0.10
     Davidson diagonalization with overlap
     ethr =  1.85E-06,  avg # of iterations =  1.1

     total cpu time spent up to now is     6610.7 secs

     total energy              =  -14691.86415756 Ry
     Harris-Foulkes estimate   =  -14691.86426904 Ry
     estimated scf accuracy    <       0.01055605 Ry

     total magnetization       =     0.31 Bohr mag/cell
     absolute magnetization    =     0.93 Bohr mag/cell

     iteration # 91     ecut=    45.00 Ry     beta= 0.10
     Davidson diagonalization with overlap
     ethr =  1.85E-06,  avg # of iterations =  1.0

     total cpu time spent up to now is     6680.5 secs

     total energy              =  -14691.86435346 Ry
     Harris-Foulkes estimate   =  -14691.86425299 Ry
     estimated scf accuracy    <       0.00459419 Ry

     total magnetization       =     0.09 Bohr mag/cell
     absolute magnetization    =     0.92 Bohr mag/cell

     iteration # 92     ecut=    45.00 Ry     beta= 0.10
     Davidson diagonalization with overlap
     ethr =  1.55E-06,  avg # of iterations =  1.0

     total cpu time spent up to now is     6750.3 secs

     total energy              =  -14691.86429457 Ry
     Harris-Foulkes estimate   =  -14691.86437347 Ry
     estimated scf accuracy    <       0.00738152 Ry

     total magnetization       =     0.09 Bohr mag/cell
     absolute magnetization    =     0.96 Bohr mag/cell

     iteration # 93     ecut=    45.00 Ry     beta= 0.10
     Davidson diagonalization with overlap
     ethr =  1.55E-06,  avg # of iterations =  1.0

     total cpu time spent up to now is     6820.5 secs

     total energy              =  -14691.86445944 Ry
     Harris-Foulkes estimate   =  -14691.86433360 Ry
     estimated scf accuracy    <       0.00545330 Ry

     total magnetization       =     0.15 Bohr mag/cell
     absolute magnetization    =     0.95 Bohr mag/cell

     iteration # 94     ecut=    45.00 Ry     beta= 0.10
     Davidson diagonalization with overlap
     ethr =  1.55E-06,  avg # of iterations =  1.0

     total cpu time spent up to now is     6890.4 secs

     total energy              =  -14691.86441979 Ry
     Harris-Foulkes estimate   =  -14691.86452685 Ry
     estimated scf accuracy    <       0.01233486 Ry

     total magnetization       =     0.08 Bohr mag/cell
     absolute magnetization    =     1.00 Bohr mag/cell

     iteration # 95     ecut=    45.00 Ry     beta= 0.10
     Davidson diagonalization with overlap
     ethr =  1.55E-06,  avg # of iterations =  1.0

     total cpu time spent up to now is     6960.7 secs

     total energy              =  -14691.86436825 Ry
     Harris-Foulkes estimate   =  -14691.86449784 Ry
     estimated scf accuracy    <       0.01630488 Ry

     total magnetization       =    -0.03 Bohr mag/cell
     absolute magnetization    =     0.97 Bohr mag/cell

     iteration # 96     ecut=    45.00 Ry     beta= 0.10
     Davidson diagonalization with overlap
     ethr =  1.55E-06,  avg # of iterations =  1.0

     total cpu time spent up to now is     7030.4 secs

     total energy              =  -14691.86414005 Ry
     Harris-Foulkes estimate   =  -14691.86444806 Ry
     estimated scf accuracy    <       0.00699370 Ry

     total magnetization       =     0.03 Bohr mag/cell
     absolute magnetization    =     0.95 Bohr mag/cell

     iteration # 97     ecut=    45.00 Ry     beta= 0.10
     Davidson diagonalization with overlap
     ethr =  1.55E-06,  avg # of iterations =  1.0

     total cpu time spent up to now is     7100.2 secs

     total energy              =  -14691.86455187 Ry
     Harris-Foulkes estimate   =  -14691.86424318 Ry
     estimated scf accuracy    <       0.00693205 Ry

     total magnetization       =    -0.05 Bohr mag/cell
     absolute magnetization    =     0.94 Bohr mag/cell

     iteration # 98     ecut=    45.00 Ry     beta= 0.10
     Davidson diagonalization with overlap
     ethr =  1.55E-06,  avg # of iterations =  1.0

     total cpu time spent up to now is     7170.2 secs

     total energy              =  -14691.86465318 Ry
     Harris-Foulkes estimate   =  -14691.86465015 Ry
     estimated scf accuracy    <       0.04143763 Ry

     total magnetization       =    -0.10 Bohr mag/cell
     absolute magnetization    =     1.11 Bohr mag/cell

     iteration # 99     ecut=    45.00 Ry     beta= 0.10
     Davidson diagonalization with overlap
     ethr =  1.55E-06,  avg # of iterations =  1.0

     total cpu time spent up to now is     7240.0 secs

     total energy              =  -14691.86385098 Ry
     Harris-Foulkes estimate   =  -14691.86466410 Ry
     estimated scf accuracy    <       0.05930445 Ry

     total magnetization       =    -0.09 Bohr mag/cell
     absolute magnetization    =     1.09 Bohr mag/cell

     iteration #100     ecut=    45.00 Ry     beta= 0.10
     Davidson diagonalization with overlap
     ethr =  1.55E-06,  avg # of iterations =  1.0
 
     Magnetic moment per site:
     atom:    1    charge:   13.6642    magn:   -0.0834    constr:    0.0000
     atom:    2    charge:   13.6624    magn:    0.0397    constr:    0.0000
     atom:    3    charge:   13.6614    magn:   -0.0277    constr:    0.0000
     atom:    4    charge:   13.6622    magn:    0.0212    constr:    0.0000
     atom:    5    charge:   13.6625    magn:    0.0213    constr:    0.0000
     atom:    6    charge:   13.6622    magn:    0.0212    constr:    0.0000
     atom:    7    charge:   13.6614    magn:   -0.0277    constr:    0.0000
     atom:    8    charge:   13.6624    magn:    0.0397    constr:    0.0000
     atom:    9    charge:    9.0751    magn:    0.0054    constr:    0.0000
     atom:   10    charge:    9.0752    magn:   -0.0023    constr:    0.0000
     atom:   11    charge:    9.0748    magn:    0.0012    constr:    0.0000
     atom:   12    charge:    9.0765    magn:    0.0014    constr:    0.0000
     atom:   13    charge:    9.0759    magn:   -0.0047    constr:    0.0000
     atom:   14    charge:    9.0751    magn:    0.0010    constr:    0.0000
     atom:   15    charge:    9.0755    magn:    0.0000    constr:    0.0000
     atom:   16    charge:    9.0738    magn:   -0.0029    constr:    0.0000
     atom:   17    charge:    9.0738    magn:   -0.0029    constr:    0.0000
     atom:   18    charge:    9.0755    magn:    0.0000    constr:    0.0000
     atom:   19    charge:    9.0751    magn:    0.0010    constr:    0.0000
     atom:   20    charge:    9.0759    magn:   -0.0047    constr:    0.0000
     atom:   21    charge:    9.0765    magn:    0.0014    constr:    0.0000
     atom:   22    charge:    9.0748    magn:    0.0012    constr:    0.0000
     atom:   23    charge:    9.0752    magn:   -0.0023    constr:    0.0000
     atom:   24    charge:    9.0751    magn:    0.0054    constr:    0.0000

     total cpu time spent up to now is     7310.2 secs

     total energy              =  -14691.86417643 Ry
     Harris-Foulkes estimate   =  -14691.86418225 Ry
     estimated scf accuracy    <       0.00891900 Ry

     total magnetization       =     0.02 Bohr mag/cell
     absolute magnetization    =     0.85 Bohr mag/cell

     End of self-consistent calculation

     convergence NOT achieved after 100 iterations: stopping

     Writing output data file mnau2.save/
 
     init_run     :     39.83s CPU     40.90s WALL (       1 calls)
     electrons    :   7093.74s CPU   7264.93s WALL (       1 calls)

     Called by init_run:
     wfcinit      :     37.48s CPU     38.41s WALL (       1 calls)
     potinit      :      0.95s CPU      0.99s WALL (       1 calls)
     hinit0       :      0.80s CPU      0.85s WALL (       1 calls)

     Called by electrons:
     c_bands      :   6112.04s CPU   6248.92s WALL (     100 calls)
     sum_band     :    889.97s CPU    921.15s WALL (     100 calls)
     v_of_rho     :      9.49s CPU      9.87s WALL (     101 calls)
     newd         :     19.39s CPU     19.52s WALL (     101 calls)
     PAW_pot      :     59.56s CPU     60.18s WALL (     101 calls)
     mix_rho      :      2.44s CPU      2.93s WALL (     100 calls)

     Called by c_bands:
     init_us_2    :     31.93s CPU     32.15s WALL (   12120 calls)
     cegterg      :   5911.13s CPU   6044.78s WALL (    6000 calls)

     Called by sum_band:
     sum_band:bec :     13.80s CPU     13.91s WALL (    6000 calls)
     addusdens    :     39.04s CPU     39.39s WALL (     100 calls)

     Called by *egterg:
     h_psi        :   2941.48s CPU   3030.65s WALL (   13134 calls)
     s_psi        :    454.02s CPU    454.35s WALL (   13194 calls)
     g_psi        :      4.66s CPU      4.70s WALL (    7074 calls)
     cdiaghg      :   1478.16s CPU   1511.21s WALL (   13074 calls)

     Called by h_psi:
     h_psi:pot    :   2763.45s CPU   2848.99s WALL (   13134 calls)
     h_psi:calbec :    554.85s CPU    577.08s WALL (   13134 calls)
     vloc_psi     :   1755.23s CPU   1818.07s WALL (   13134 calls)
     add_vuspsi   :    453.06s CPU    453.60s WALL (   13134 calls)
     vhpsi        :    171.57s CPU    175.08s WALL (   13134 calls)

     General routines
     calbec       :    949.68s CPU    987.96s WALL (   38328 calls)
     fft          :      8.33s CPU      9.06s WALL (    2525 calls)
     ffts         :      0.61s CPU      0.80s WALL (     402 calls)
     fftw         :   2107.62s CPU   2183.15s WALL ( 5392602 calls)
     interpolate  :      1.01s CPU      1.04s WALL (     202 calls)
     davcio       :      0.01s CPU      0.18s WALL (     138 calls)
 
     Parallel routines
     fft_scatt_xy :     88.91s CPU     91.92s WALL ( 5395529 calls)
     fft_scatt_yz :   1628.57s CPU   1687.78s WALL ( 5395529 calls)

     Hubbard U routines
     new_ns       :     36.59s CPU     39.50s WALL (     100 calls)
     vhpsi        :    171.57s CPU    175.08s WALL (   13134 calls)
 
     PWSCF        :     1h59m CPU       59h 2m WALL

       2h
 
   This run was terminated on:  19: 9:24   7Apr2019            

=------------------------------------------------------------------------------=
   JOB DONE.
=------------------------------------------------------------------------------=
