
     Program PWSCF v.6.3MaX starts on  6Apr2019 at 22:40: 5 

     This program is part of the open-source Quantum ESPRESSO suite
     for quantum simulation of materials; please cite
         "P. Giannozzi et al., J. Phys.:Condens. Matter 21 395502 (2009);
         "P. Giannozzi et al., J. Phys.:Condens. Matter 29 465901 (2017);
          URL http://www.quantum-espresso.org", 
     in publications or presentations arising from this work. More details at
     http://www.quantum-espresso.org/quote

     Parallel version (MPI), running on    32 processors

     MPI processes distributed on     5 nodes
     R & G space division:  proc/nbgrp/npool/nimage =      32
     Waiting for input...
     Reading input from standard input

     Current dimensions of program PWSCF are:
     Max number of different atomic species (ntypx) = 10
     Max number of k-points (npk) =  40000
     Max angular momentum in pseudopotentials (lmaxx) =  3
               file Mn.pbe-spn-kjpaw_psl.0.3.1.UPF: wavefunction(s)  3P 3D renormalized
               file Mn.pbe-spn-kjpaw_psl.0.3.1.UPF: wavefunction(s)  3P 3D renormalized
               file Au.pbe-dn-kjpaw_psl.0.1.UPF: wavefunction(s)  6S 6P 5D renormalized

     Subspace diagonalization in iterative solution of the eigenvalue problem:
     one sub-group per band group will be used
     scalapack distributed-memory algorithm (size of sub-group:  4*  4 procs)

     Found symmetry operation: I + (  0.0000  0.0000 -0.5000)
     This is a supercell, fractional translations are disabled
 
     Parallelization info
     --------------------
     sticks:   dense  smooth     PW     G-vecs:    dense   smooth      PW
     Min          41      18      5                11487     3460     563
     Max          42      19      6                11527     3505     606
     Sum        1313     593    177               368373   111379   18691
 


     bravais-lattice index     =            0
     lattice parameter (alat)  =       6.4153  a.u.
     unit-cell volume          =    2724.7774 (a.u.)^3
     number of atoms/cell      =           24
     number of atomic types    =            3
     number of electrons       =       296.00
     number of Kohn-Sham states=          178
     kinetic-energy cutoff     =      45.0000  Ry
     charge density cutoff     =     400.0000  Ry
     convergence threshold     =      1.0E-06
     mixing beta               =       0.1000
     number of iterations used =            8  plain     mixing
     Exchange-correlation      = SLA PW PBX PBC ( 1  4  3  4 0 0)

     celldm(1)=   6.415315  celldm(2)=   0.000000  celldm(3)=   0.000000
     celldm(4)=   0.000000  celldm(5)=   0.000000  celldm(6)=   0.000000

     crystal axes: (cart. coord. in units of alat)
               a(1) = (   1.000000   0.000000   0.000000 )  
               a(2) = (   0.000000   1.000000   0.000000 )  
               a(3) = (   0.000000   0.000000  10.319937 )  

     reciprocal axes: (cart. coord. in units 2 pi/alat)
               b(1) = (  1.000000  0.000000  0.000000 )  
               b(2) = (  0.000000  1.000000  0.000000 )  
               b(3) = (  0.000000  0.000000  0.096900 )  


     PseudoPot. # 1 for Mn read from file:
     ./pseudo/Mn.pbe-spn-kjpaw_psl.0.3.1.UPF
     MD5 check sum: 7b43a3fb0e93e198b8dd8488d8cf503e
     Pseudo is Projector augmented-wave + core cor, Zval = 15.0
     Generated using "atomic" code by A. Dal Corso v.5.0.99 svn rev. 10869
     Shape of augmentation charge: PSQ
     Using radial grid of 1187 points,  6 beta functions with: 
                l(1) =   0
                l(2) =   0
                l(3) =   1
                l(4) =   1
                l(5) =   2
                l(6) =   2
     Q(r) pseudized with 0 coefficients 


     PseudoPot. # 2 for Mn read from file:
     ./pseudo/Mn.pbe-spn-kjpaw_psl.0.3.1.UPF
     MD5 check sum: 7b43a3fb0e93e198b8dd8488d8cf503e
     Pseudo is Projector augmented-wave + core cor, Zval = 15.0
     Generated using "atomic" code by A. Dal Corso v.5.0.99 svn rev. 10869
     Shape of augmentation charge: PSQ
     Using radial grid of 1187 points,  6 beta functions with: 
                l(1) =   0
                l(2) =   0
                l(3) =   1
                l(4) =   1
                l(5) =   2
                l(6) =   2
     Q(r) pseudized with 0 coefficients 


     PseudoPot. # 3 for Au read from file:
     ./pseudo/Au.pbe-dn-kjpaw_psl.0.1.UPF
     MD5 check sum: be11e2e8e535ebe2b3ccfb4f88f554cb
     Pseudo is Projector augmented-wave + core cor, Zval = 11.0
     Generated using "atomic" code by A. Dal Corso v.5.0.2 svn rev. 9415
     Shape of augmentation charge: PSQ
     Using radial grid of 1279 points,  6 beta functions with: 
                l(1) =   0
                l(2) =   0
                l(3) =   1
                l(4) =   1
                l(5) =   2
                l(6) =   2
     Q(r) pseudized with 0 coefficients 


     atomic species   valence    mass     pseudopotential
        Mn1           15.00    54.93800     Mn( 1.00)
        Mn2           15.00    54.93800     Mn( 1.00)
        Au            11.00   196.96600     Au( 1.00)

     Starting magnetic structure 
     atomic species   magnetization
        Mn1          0.800
        Mn2         -0.800
        Au           0.000


     Full LDA+U calculation (l_max = 2) with parameters (eV):
     U(  1) =   3.1200   J(  1) =   0.7000   B(  1) =   0.0803
     U(  2) =   3.1200   J(  2) =   0.7000   B(  2) =   0.0803



      8 Sym. Ops. (no inversion) found



   Cartesian axes

     site n.     atom                  positions (alat units)
         1           Mn1 tau(   1) = (   0.0000000   0.0000000   0.0000000  )
         2           Mn1 tau(   2) = (   0.5000000   0.5000000   1.2899921  )
         3           Mn1 tau(   3) = (   0.0000000   0.0000000   2.5799843  )
         4           Mn2 tau(   4) = (   0.5000000   0.5000000   3.8699764  )
         5           Mn1 tau(   5) = (   0.0000000   0.0000000   5.1599686  )
         6           Mn1 tau(   6) = (   0.5000000   0.5000000   6.4499607  )
         7           Mn1 tau(   7) = (   0.0000000   0.0000000   7.7399528  )
         8           Mn2 tau(   8) = (   0.5000000   0.5000000   9.0299450  )
         9           Au  tau(   9) = (   0.5000000   0.5000000   0.4127975  )
        10           Au  tau(  10) = (   0.0000000   0.0000000   0.8771947  )
        11           Au  tau(  11) = (   0.0000000   0.0000000   1.7027896  )
        12           Au  tau(  12) = (   0.5000000   0.5000000   2.1671868  )
        13           Au  tau(  13) = (   0.5000000   0.5000000   2.9927818  )
        14           Au  tau(  14) = (   0.0000000   0.0000000   3.4571789  )
        15           Au  tau(  15) = (   0.0000000   0.0000000   4.2827739  )
        16           Au  tau(  16) = (   0.5000000   0.5000000   4.7471711  )
        17           Au  tau(  17) = (   0.5000000   0.5000000   5.5727660  )
        18           Au  tau(  18) = (   0.0000000   0.0000000   6.0371632  )
        19           Au  tau(  19) = (   0.0000000   0.0000000   6.8627582  )
        20           Au  tau(  20) = (   0.5000000   0.5000000   7.3271553  )
        21           Au  tau(  21) = (   0.5000000   0.5000000   8.1527503  )
        22           Au  tau(  22) = (   0.0000000   0.0000000   8.6171475  )
        23           Au  tau(  23) = (   0.0000000   0.0000000   9.4427424  )
        24           Au  tau(  24) = (   0.5000000   0.5000000   9.9071396  )

     number of k points=    30 (tetrahedron method)
                       cart. coord. in units 2pi/alat
        k(    1) = (   0.0000000   0.0000000   0.0000000), wk =   0.0078125
        k(    2) = (   0.0000000   0.0000000  -0.0484499), wk =   0.0078125
        k(    3) = (   0.0000000   0.1250000   0.0000000), wk =   0.0312500
        k(    4) = (   0.0000000   0.1250000  -0.0484499), wk =   0.0312500
        k(    5) = (   0.0000000   0.2500000   0.0000000), wk =   0.0312500
        k(    6) = (   0.0000000   0.2500000  -0.0484499), wk =   0.0312500
        k(    7) = (   0.0000000   0.3750000   0.0000000), wk =   0.0312500
        k(    8) = (   0.0000000   0.3750000  -0.0484499), wk =   0.0312500
        k(    9) = (   0.0000000  -0.5000000   0.0000000), wk =   0.0156250
        k(   10) = (   0.0000000  -0.5000000  -0.0484499), wk =   0.0156250
        k(   11) = (   0.1250000   0.1250000   0.0000000), wk =   0.0312500
        k(   12) = (   0.1250000   0.1250000  -0.0484499), wk =   0.0312500
        k(   13) = (   0.1250000   0.2500000   0.0000000), wk =   0.0625000
        k(   14) = (   0.1250000   0.2500000  -0.0484499), wk =   0.0625000
        k(   15) = (   0.1250000   0.3750000   0.0000000), wk =   0.0625000
        k(   16) = (   0.1250000   0.3750000  -0.0484499), wk =   0.0625000
        k(   17) = (   0.1250000  -0.5000000   0.0000000), wk =   0.0312500
        k(   18) = (   0.1250000  -0.5000000  -0.0484499), wk =   0.0312500
        k(   19) = (   0.2500000   0.2500000   0.0000000), wk =   0.0312500
        k(   20) = (   0.2500000   0.2500000  -0.0484499), wk =   0.0312500
        k(   21) = (   0.2500000   0.3750000   0.0000000), wk =   0.0625000
        k(   22) = (   0.2500000   0.3750000  -0.0484499), wk =   0.0625000
        k(   23) = (   0.2500000  -0.5000000   0.0000000), wk =   0.0312500
        k(   24) = (   0.2500000  -0.5000000  -0.0484499), wk =   0.0312500
        k(   25) = (   0.3750000   0.3750000   0.0000000), wk =   0.0312500
        k(   26) = (   0.3750000   0.3750000  -0.0484499), wk =   0.0312500
        k(   27) = (   0.3750000  -0.5000000   0.0000000), wk =   0.0312500
        k(   28) = (   0.3750000  -0.5000000  -0.0484499), wk =   0.0312500
        k(   29) = (  -0.5000000  -0.5000000   0.0000000), wk =   0.0078125
        k(   30) = (  -0.5000000  -0.5000000  -0.0484499), wk =   0.0078125

     Dense  grid:   368373 G-vectors     FFT dimensions: (  45,  45, 432)

     Smooth grid:   111379 G-vectors     FFT dimensions: (  27,  27, 288)

     Estimated max dynamical RAM per process >     143.50 MB

     Estimated total dynamical RAM >       4.48 GB
     Generating pointlists ...
     new r_m :   0.3377 (alat units)  2.1668 (a.u.) for type    1
     new r_m :   0.3377 (alat units)  2.1668 (a.u.) for type    2
     new r_m :   0.3377 (alat units)  2.1668 (a.u.) for type    3

     Check: negative/imaginary core charge=   -0.000006    0.000000

     Initial potential from superposition of free atoms

     starting charge  295.99426, renormalised to  296.00000
     Number of +U iterations with fixed ns =  0
     Starting occupations:
 --- enter write_ns ---
 LDA+U parameters:
U(  1) =   3.1200   J(  1) =   0.7000   B(  1) =   0.0803
U(  2) =   3.1200   J(  2) =   0.7000   B(  2) =   0.0803
atom    1   Tr[ns(na)] (up, down, total) =   5.00000  0.00000  5.00000
   spin  1
    eigenvalues: 
  1.000  1.000  1.000  1.000  1.000
    eigenvectors:
  1.000  0.000  0.000  0.000  0.000
  0.000  1.000  0.000  0.000  0.000
  0.000  0.000  1.000  0.000  0.000
  0.000  0.000  0.000  1.000  0.000
  0.000  0.000  0.000  0.000  1.000
    occupations:
  1.000  0.000  0.000  0.000  0.000
  0.000  1.000  0.000  0.000  0.000
  0.000  0.000  1.000  0.000  0.000
  0.000  0.000  0.000  1.000  0.000
  0.000  0.000  0.000  0.000  1.000
   spin  2
    eigenvalues: 
  0.000  0.000  0.000  0.000  0.000
    eigenvectors:
  1.000  0.000  0.000  0.000  0.000
  0.000  1.000  0.000  0.000  0.000
  0.000  0.000  1.000  0.000  0.000
  0.000  0.000  0.000  1.000  0.000
  0.000  0.000  0.000  0.000  1.000
    occupations:
  0.000  0.000  0.000  0.000  0.000
  0.000  0.000  0.000  0.000  0.000
  0.000  0.000  0.000  0.000  0.000
  0.000  0.000  0.000  0.000  0.000
  0.000  0.000  0.000  0.000  0.000
atomic mag. moment =     5.000000
atom    2   Tr[ns(na)] (up, down, total) =   5.00000  0.00000  5.00000
   spin  1
    eigenvalues: 
  1.000  1.000  1.000  1.000  1.000
    eigenvectors:
  1.000  0.000  0.000  0.000  0.000
  0.000  1.000  0.000  0.000  0.000
  0.000  0.000  1.000  0.000  0.000
  0.000  0.000  0.000  1.000  0.000
  0.000  0.000  0.000  0.000  1.000
    occupations:
  1.000  0.000  0.000  0.000  0.000
  0.000  1.000  0.000  0.000  0.000
  0.000  0.000  1.000  0.000  0.000
  0.000  0.000  0.000  1.000  0.000
  0.000  0.000  0.000  0.000  1.000
   spin  2
    eigenvalues: 
  0.000  0.000  0.000  0.000  0.000
    eigenvectors:
  1.000  0.000  0.000  0.000  0.000
  0.000  1.000  0.000  0.000  0.000
  0.000  0.000  1.000  0.000  0.000
  0.000  0.000  0.000  1.000  0.000
  0.000  0.000  0.000  0.000  1.000
    occupations:
  0.000  0.000  0.000  0.000  0.000
  0.000  0.000  0.000  0.000  0.000
  0.000  0.000  0.000  0.000  0.000
  0.000  0.000  0.000  0.000  0.000
  0.000  0.000  0.000  0.000  0.000
atomic mag. moment =     5.000000
atom    3   Tr[ns(na)] (up, down, total) =   5.00000  0.00000  5.00000
   spin  1
    eigenvalues: 
  1.000  1.000  1.000  1.000  1.000
    eigenvectors:
  1.000  0.000  0.000  0.000  0.000
  0.000  1.000  0.000  0.000  0.000
  0.000  0.000  1.000  0.000  0.000
  0.000  0.000  0.000  1.000  0.000
  0.000  0.000  0.000  0.000  1.000
    occupations:
  1.000  0.000  0.000  0.000  0.000
  0.000  1.000  0.000  0.000  0.000
  0.000  0.000  1.000  0.000  0.000
  0.000  0.000  0.000  1.000  0.000
  0.000  0.000  0.000  0.000  1.000
   spin  2
    eigenvalues: 
  0.000  0.000  0.000  0.000  0.000
    eigenvectors:
  1.000  0.000  0.000  0.000  0.000
  0.000  1.000  0.000  0.000  0.000
  0.000  0.000  1.000  0.000  0.000
  0.000  0.000  0.000  1.000  0.000
  0.000  0.000  0.000  0.000  1.000
    occupations:
  0.000  0.000  0.000  0.000  0.000
  0.000  0.000  0.000  0.000  0.000
  0.000  0.000  0.000  0.000  0.000
  0.000  0.000  0.000  0.000  0.000
  0.000  0.000  0.000  0.000  0.000
atomic mag. moment =     5.000000
atom    4   Tr[ns(na)] (up, down, total) =   0.00000  5.00000  5.00000
   spin  1
    eigenvalues: 
  0.000  0.000  0.000  0.000  0.000
    eigenvectors:
  1.000  0.000  0.000  0.000  0.000
  0.000  1.000  0.000  0.000  0.000
  0.000  0.000  1.000  0.000  0.000
  0.000  0.000  0.000  1.000  0.000
  0.000  0.000  0.000  0.000  1.000
    occupations:
  0.000  0.000  0.000  0.000  0.000
  0.000  0.000  0.000  0.000  0.000
  0.000  0.000  0.000  0.000  0.000
  0.000  0.000  0.000  0.000  0.000
  0.000  0.000  0.000  0.000  0.000
   spin  2
    eigenvalues: 
  1.000  1.000  1.000  1.000  1.000
    eigenvectors:
  1.000  0.000  0.000  0.000  0.000
  0.000  1.000  0.000  0.000  0.000
  0.000  0.000  1.000  0.000  0.000
  0.000  0.000  0.000  1.000  0.000
  0.000  0.000  0.000  0.000  1.000
    occupations:
  1.000  0.000  0.000  0.000  0.000
  0.000  1.000  0.000  0.000  0.000
  0.000  0.000  1.000  0.000  0.000
  0.000  0.000  0.000  1.000  0.000
  0.000  0.000  0.000  0.000  1.000
atomic mag. moment =    -5.000000
atom    5   Tr[ns(na)] (up, down, total) =   5.00000  0.00000  5.00000
   spin  1
    eigenvalues: 
  1.000  1.000  1.000  1.000  1.000
    eigenvectors:
  1.000  0.000  0.000  0.000  0.000
  0.000  1.000  0.000  0.000  0.000
  0.000  0.000  1.000  0.000  0.000
  0.000  0.000  0.000  1.000  0.000
  0.000  0.000  0.000  0.000  1.000
    occupations:
  1.000  0.000  0.000  0.000  0.000
  0.000  1.000  0.000  0.000  0.000
  0.000  0.000  1.000  0.000  0.000
  0.000  0.000  0.000  1.000  0.000
  0.000  0.000  0.000  0.000  1.000
   spin  2
    eigenvalues: 
  0.000  0.000  0.000  0.000  0.000
    eigenvectors:
  1.000  0.000  0.000  0.000  0.000
  0.000  1.000  0.000  0.000  0.000
  0.000  0.000  1.000  0.000  0.000
  0.000  0.000  0.000  1.000  0.000
  0.000  0.000  0.000  0.000  1.000
    occupations:
  0.000  0.000  0.000  0.000  0.000
  0.000  0.000  0.000  0.000  0.000
  0.000  0.000  0.000  0.000  0.000
  0.000  0.000  0.000  0.000  0.000
  0.000  0.000  0.000  0.000  0.000
atomic mag. moment =     5.000000
atom    6   Tr[ns(na)] (up, down, total) =   5.00000  0.00000  5.00000
   spin  1
    eigenvalues: 
  1.000  1.000  1.000  1.000  1.000
    eigenvectors:
  1.000  0.000  0.000  0.000  0.000
  0.000  1.000  0.000  0.000  0.000
  0.000  0.000  1.000  0.000  0.000
  0.000  0.000  0.000  1.000  0.000
  0.000  0.000  0.000  0.000  1.000
    occupations:
  1.000  0.000  0.000  0.000  0.000
  0.000  1.000  0.000  0.000  0.000
  0.000  0.000  1.000  0.000  0.000
  0.000  0.000  0.000  1.000  0.000
  0.000  0.000  0.000  0.000  1.000
   spin  2
    eigenvalues: 
  0.000  0.000  0.000  0.000  0.000
    eigenvectors:
  1.000  0.000  0.000  0.000  0.000
  0.000  1.000  0.000  0.000  0.000
  0.000  0.000  1.000  0.000  0.000
  0.000  0.000  0.000  1.000  0.000
  0.000  0.000  0.000  0.000  1.000
    occupations:
  0.000  0.000  0.000  0.000  0.000
  0.000  0.000  0.000  0.000  0.000
  0.000  0.000  0.000  0.000  0.000
  0.000  0.000  0.000  0.000  0.000
  0.000  0.000  0.000  0.000  0.000
atomic mag. moment =     5.000000
atom    7   Tr[ns(na)] (up, down, total) =   5.00000  0.00000  5.00000
   spin  1
    eigenvalues: 
  1.000  1.000  1.000  1.000  1.000
    eigenvectors:
  1.000  0.000  0.000  0.000  0.000
  0.000  1.000  0.000  0.000  0.000
  0.000  0.000  1.000  0.000  0.000
  0.000  0.000  0.000  1.000  0.000
  0.000  0.000  0.000  0.000  1.000
    occupations:
  1.000  0.000  0.000  0.000  0.000
  0.000  1.000  0.000  0.000  0.000
  0.000  0.000  1.000  0.000  0.000
  0.000  0.000  0.000  1.000  0.000
  0.000  0.000  0.000  0.000  1.000
   spin  2
    eigenvalues: 
  0.000  0.000  0.000  0.000  0.000
    eigenvectors:
  1.000  0.000  0.000  0.000  0.000
  0.000  1.000  0.000  0.000  0.000
  0.000  0.000  1.000  0.000  0.000
  0.000  0.000  0.000  1.000  0.000
  0.000  0.000  0.000  0.000  1.000
    occupations:
  0.000  0.000  0.000  0.000  0.000
  0.000  0.000  0.000  0.000  0.000
  0.000  0.000  0.000  0.000  0.000
  0.000  0.000  0.000  0.000  0.000
  0.000  0.000  0.000  0.000  0.000
atomic mag. moment =     5.000000
atom    8   Tr[ns(na)] (up, down, total) =   0.00000  5.00000  5.00000
   spin  1
    eigenvalues: 
  0.000  0.000  0.000  0.000  0.000
    eigenvectors:
  1.000  0.000  0.000  0.000  0.000
  0.000  1.000  0.000  0.000  0.000
  0.000  0.000  1.000  0.000  0.000
  0.000  0.000  0.000  1.000  0.000
  0.000  0.000  0.000  0.000  1.000
    occupations:
  0.000  0.000  0.000  0.000  0.000
  0.000  0.000  0.000  0.000  0.000
  0.000  0.000  0.000  0.000  0.000
  0.000  0.000  0.000  0.000  0.000
  0.000  0.000  0.000  0.000  0.000
   spin  2
    eigenvalues: 
  1.000  1.000  1.000  1.000  1.000
    eigenvectors:
  1.000  0.000  0.000  0.000  0.000
  0.000  1.000  0.000  0.000  0.000
  0.000  0.000  1.000  0.000  0.000
  0.000  0.000  0.000  1.000  0.000
  0.000  0.000  0.000  0.000  1.000
    occupations:
  1.000  0.000  0.000  0.000  0.000
  0.000  1.000  0.000  0.000  0.000
  0.000  0.000  1.000  0.000  0.000
  0.000  0.000  0.000  1.000  0.000
  0.000  0.000  0.000  0.000  1.000
atomic mag. moment =    -5.000000
N of occupied +U levels =   40.000000
 --- exit write_ns ---
 Atomic wfc used for LDA+U Projector are NOT orthogonalized
     Starting wfcs are  224 randomized atomic wfcs
     Checking if some PAW data can be deallocated... 

     total cpu time spent up to now is       33.6 secs

     Self-consistent Calculation

     iteration #  1     ecut=    45.00 Ry     beta= 0.10
     Davidson diagonalization with overlap
     ethr =  1.00E-02,  avg # of iterations =  3.7
 --- enter write_ns ---
 LDA+U parameters:
U(  1) =   3.1200   J(  1) =   0.7000   B(  1) =   0.0803
U(  2) =   3.1200   J(  2) =   0.7000   B(  2) =   0.0803
atom    1   Tr[ns(na)] (up, down, total) =   5.01739  0.40563  5.42302
   spin  1
    eigenvalues: 
  1.003  1.003  1.003  1.004  1.004
    eigenvectors:
  0.000  0.000  0.000  1.000  0.000
  0.000  0.132  0.868  0.000  0.000
  0.000  0.868  0.132  0.000  0.000
  0.000  0.000  0.000  0.000  1.000
  1.000  0.000  0.000  0.000  0.000
    occupations:
  1.004 -0.000 -0.000  0.000  0.000
 -0.000  1.003 -0.000  0.000  0.000
 -0.000 -0.000  1.003  0.000  0.000
  0.000  0.000  0.000  1.004 -0.000
  0.000  0.000  0.000 -0.000  1.003
   spin  2
    eigenvalues: 
  0.053  0.072  0.080  0.080  0.121
    eigenvectors:
  0.000  1.000  0.000  0.000  0.000
  0.000  0.000  0.178  0.822  0.000
  0.000  0.000  0.822  0.178  0.000
  1.000  0.000  0.000  0.000  0.000
  0.000  0.000  0.000  0.000  1.000
    occupations:
  0.072 -0.000 -0.000  0.000  0.000
 -0.000  0.080 -0.000  0.000  0.000
 -0.000 -0.000  0.080  0.000  0.000
  0.000  0.000  0.000  0.053 -0.000
  0.000  0.000  0.000 -0.000  0.121
atomic mag. moment =     4.611760
atom    2   Tr[ns(na)] (up, down, total) =   5.01759  0.40085  5.41845
   spin  1
    eigenvalues: 
  1.003  1.003  1.003  1.004  1.004
    eigenvectors:
  0.000  0.000  0.000  1.000  0.000
  0.000  0.128  0.872  0.000  0.000
  0.000  0.872  0.128  0.000  0.000
  0.000  0.000  0.000  0.000  1.000
  1.000  0.000  0.000  0.000  0.000
    occupations:
  1.004 -0.000 -0.000  0.000  0.000
 -0.000  1.003 -0.000  0.000  0.000
 -0.000 -0.000  1.003  0.000  0.000
  0.000  0.000  0.000  1.004 -0.000
  0.000  0.000  0.000 -0.000  1.003
   spin  2
    eigenvalues: 
  0.053  0.075  0.081  0.081  0.112
    eigenvectors:
  0.000  1.000  0.000  0.000  0.000
  0.000  0.000  0.132  0.868  0.000
  0.000  0.000  0.868  0.132  0.000
  1.000  0.000  0.000  0.000  0.000
  0.000  0.000  0.000  0.000  1.000
    occupations:
  0.075 -0.000 -0.000  0.000  0.000
 -0.000  0.081 -0.000  0.000  0.000
 -0.000 -0.000  0.081  0.000  0.000
  0.000  0.000  0.000  0.053 -0.000
  0.000  0.000  0.000 -0.000  0.112
atomic mag. moment =     4.616741
atom    3   Tr[ns(na)] (up, down, total) =   5.01743  0.40688  5.42431
   spin  1
    eigenvalues: 
  1.003  1.003  1.003  1.004  1.004
    eigenvectors:
  0.000  0.000  0.000  1.000  0.000
  0.000  0.138  0.862  0.000  0.000
  0.000  0.862  0.138  0.000  0.000
  0.000  0.000  0.000  0.000  1.000
  1.000  0.000  0.000  0.000  0.000
    occupations:
  1.004 -0.000 -0.000  0.000  0.000
 -0.000  1.003 -0.000  0.000  0.000
 -0.000 -0.000  1.003  0.000  0.000
  0.000  0.000  0.000  1.004 -0.000
  0.000  0.000  0.000 -0.000  1.003
   spin  2
    eigenvalues: 
  0.053  0.073  0.080  0.080  0.121
    eigenvectors:
  0.000  1.000  0.000  0.000  0.000
  0.000  0.000  0.184  0.816  0.000
  0.000  0.000  0.816  0.184  0.000
  1.000  0.000  0.000  0.000  0.000
  0.000  0.000  0.000  0.000  1.000
    occupations:
  0.073 -0.000 -0.000  0.000  0.000
 -0.000  0.080 -0.000  0.000  0.000
 -0.000 -0.000  0.080  0.000  0.000
  0.000  0.000  0.000  0.053 -0.000
  0.000  0.000  0.000 -0.000  0.121
atomic mag. moment =     4.610551
atom    4   Tr[ns(na)] (up, down, total) =   0.41644  5.01726  5.43370
   spin  1
    eigenvalues: 
  0.054  0.076  0.081  0.081  0.125
    eigenvectors:
  0.000  1.000  0.000  0.000  0.000
  0.000  0.000  0.133  0.867  0.000
  0.000  0.000  0.867  0.133  0.000
  1.000  0.000  0.000  0.000  0.000
  0.000  0.000  0.000  0.000  1.000
    occupations:
  0.076 -0.000 -0.000  0.000  0.000
 -0.000  0.081 -0.000  0.000  0.000
 -0.000 -0.000  0.081  0.000  0.000
  0.000  0.000  0.000  0.054 -0.000
  0.000  0.000  0.000 -0.000  0.125
   spin  2
    eigenvalues: 
  1.003  1.003  1.003  1.004  1.004
    eigenvectors:
  0.000  0.000  0.000  1.000  0.000
  0.000  0.079  0.921  0.000  0.000
  0.000  0.921  0.079  0.000  0.000
  0.000  0.000  0.000  0.000  1.000
  1.000  0.000  0.000  0.000  0.000
    occupations:
  1.004 -0.000 -0.000  0.000  0.000
 -0.000  1.003 -0.000  0.000  0.000
 -0.000 -0.000  1.003  0.000  0.000
  0.000  0.000  0.000  1.004 -0.000
  0.000  0.000  0.000 -0.000  1.003
atomic mag. moment =    -4.600819
atom    5   Tr[ns(na)] (up, down, total) =   5.01746  0.40641  5.42387
   spin  1
    eigenvalues: 
  1.003  1.003  1.003  1.004  1.004
    eigenvectors:
  0.000  0.000  0.000  1.000  0.000
  0.000  0.131  0.869  0.000  0.000
  0.000  0.869  0.131  0.000  0.000
  0.000  0.000  0.000  0.000  1.000
  1.000  0.000  0.000  0.000  0.000
    occupations:
  1.004 -0.000 -0.000  0.000  0.000
 -0.000  1.003 -0.000  0.000  0.000
 -0.000 -0.000  1.003  0.000  0.000
  0.000  0.000  0.000  1.004 -0.000
  0.000  0.000  0.000 -0.000  1.003
   spin  2
    eigenvalues: 
  0.053  0.072  0.080  0.080  0.121
    eigenvectors:
  0.000  1.000  0.000  0.000  0.000
  0.000  0.000  0.130  0.870  0.000
  0.000  0.000  0.870  0.130  0.000
  1.000  0.000  0.000  0.000  0.000
  0.000  0.000  0.000  0.000  1.000
    occupations:
  0.072 -0.000 -0.000  0.000  0.000
 -0.000  0.080 -0.000  0.000  0.000
 -0.000 -0.000  0.080  0.000  0.000
  0.000  0.000  0.000  0.053 -0.000
  0.000  0.000  0.000 -0.000  0.121
atomic mag. moment =     4.611047
atom    6   Tr[ns(na)] (up, down, total) =   5.01768  0.39934  5.41702
   spin  1
    eigenvalues: 
  1.003  1.003  1.003  1.004  1.004
    eigenvectors:
  0.000  0.000  0.000  1.000  0.000
  0.000  0.110  0.890  0.000  0.000
  0.000  0.890  0.110  0.000  0.000
  0.000  0.000  0.000  0.000  1.000
  1.000  0.000  0.000  0.000  0.000
    occupations:
  1.004 -0.000 -0.000  0.000  0.000
 -0.000  1.003 -0.000  0.000  0.000
 -0.000 -0.000  1.003  0.000  0.000
  0.000  0.000  0.000  1.004 -0.000
  0.000  0.000  0.000 -0.000  1.003
   spin  2
    eigenvalues: 
  0.053  0.075  0.081  0.081  0.111
    eigenvectors:
  0.000  1.000  0.000  0.000  0.000
  0.000  0.000  0.134  0.866  0.000
  0.000  0.000  0.866  0.134  0.000
  1.000  0.000  0.000  0.000  0.000
  0.000  0.000  0.000  0.000  1.000
    occupations:
  0.075 -0.000 -0.000  0.000  0.000
 -0.000  0.081 -0.000  0.000  0.000
 -0.000 -0.000  0.081  0.000  0.000
  0.000  0.000  0.000  0.053 -0.000
  0.000  0.000  0.000 -0.000  0.111
atomic mag. moment =     4.618348
atom    7   Tr[ns(na)] (up, down, total) =   5.01745  0.40583  5.42328
   spin  1
    eigenvalues: 
  1.003  1.003  1.003  1.004  1.004
    eigenvectors:
  0.000  0.000  0.000  1.000  0.000
  0.000  0.141  0.859  0.000  0.000
  0.000  0.859  0.141  0.000  0.000
  0.000  0.000  0.000  0.000  1.000
  1.000  0.000  0.000  0.000  0.000
    occupations:
  1.004 -0.000 -0.000  0.000  0.000
 -0.000  1.003 -0.000  0.000  0.000
 -0.000 -0.000  1.003  0.000  0.000
  0.000  0.000  0.000  1.004 -0.000
  0.000  0.000  0.000 -0.000  1.003
   spin  2
    eigenvalues: 
  0.053  0.072  0.080  0.080  0.121
    eigenvectors:
  0.000  1.000  0.000  0.000  0.000
  0.000  0.000  0.146  0.854  0.000
  0.000  0.000  0.854  0.146  0.000
  1.000  0.000  0.000  0.000  0.000
  0.000  0.000  0.000  0.000  1.000
    occupations:
  0.072 -0.000 -0.000  0.000  0.000
 -0.000  0.080 -0.000  0.000  0.000
 -0.000 -0.000  0.080  0.000  0.000
  0.000  0.000  0.000  0.053 -0.000
  0.000  0.000  0.000 -0.000  0.121
atomic mag. moment =     4.611619
atom    8   Tr[ns(na)] (up, down, total) =   0.41638  5.01737  5.43375
   spin  1
    eigenvalues: 
  0.054  0.076  0.081  0.081  0.125
    eigenvectors:
  0.000  1.000  0.000  0.000  0.000
  0.000  0.000  0.169  0.831  0.000
  0.000  0.000  0.831  0.169  0.000
  1.000  0.000  0.000  0.000  0.000
  0.000  0.000  0.000  0.000  1.000
    occupations:
  0.076 -0.000 -0.000  0.000  0.000
 -0.000  0.081 -0.000  0.000  0.000
 -0.000 -0.000  0.081  0.000  0.000
  0.000  0.000  0.000  0.054 -0.000
  0.000  0.000  0.000 -0.000  0.125
   spin  2
    eigenvalues: 
  1.003  1.003  1.003  1.004  1.004
    eigenvectors:
  0.000  0.000  0.000  1.000  0.000
  0.000  0.117  0.883  0.000  0.000
  0.000  0.883  0.117  0.000  0.000
  0.000  0.000  0.000  0.000  1.000
  1.000  0.000  0.000  0.000  0.000
    occupations:
  1.004 -0.000 -0.000  0.000  0.000
 -0.000  1.003 -0.000  0.000  0.000
 -0.000 -0.000  1.003  0.000  0.000
  0.000  0.000  0.000  1.004 -0.000
  0.000  0.000  0.000 -0.000  1.003
atomic mag. moment =    -4.600989
N of occupied +U levels =   43.397389
 --- exit write_ns ---

     total cpu time spent up to now is      116.8 secs

     total energy              =  -14687.27672594 Ry
     Harris-Foulkes estimate   =  -14685.81610984 Ry
     estimated scf accuracy    <      11.55162257 Ry

     total magnetization       =    20.25 Bohr mag/cell
     absolute magnetization    =    41.56 Bohr mag/cell

     iteration #  2     ecut=    45.00 Ry     beta= 0.10
     Davidson diagonalization with overlap
     ethr =  3.90E-03,  avg # of iterations =  1.0

     total cpu time spent up to now is      177.4 secs

     total energy              =  -14692.11733533 Ry
     Harris-Foulkes estimate   =  -14687.34961523 Ry
     estimated scf accuracy    <       9.32845775 Ry

     total magnetization       =    19.98 Bohr mag/cell
     absolute magnetization    =    41.22 Bohr mag/cell

     iteration #  3     ecut=    45.00 Ry     beta= 0.10
     Davidson diagonalization with overlap
     ethr =  3.15E-03,  avg # of iterations =  3.8

     total cpu time spent up to now is      261.2 secs

     total energy              =  -14692.83765146 Ry
     Harris-Foulkes estimate   =  -14693.71865091 Ry
     estimated scf accuracy    <      69.26418150 Ry

     total magnetization       =    19.15 Bohr mag/cell
     absolute magnetization    =    38.88 Bohr mag/cell

     iteration #  4     ecut=    45.00 Ry     beta= 0.10
     Davidson diagonalization with overlap
     ethr =  3.15E-03,  avg # of iterations =  2.9

     total cpu time spent up to now is      331.9 secs

     total energy              =  -14693.66997422 Ry
     Harris-Foulkes estimate   =  -14693.77829158 Ry
     estimated scf accuracy    <       5.59363209 Ry

     total magnetization       =    18.92 Bohr mag/cell
     absolute magnetization    =    38.86 Bohr mag/cell

     iteration #  5     ecut=    45.00 Ry     beta= 0.10
     Davidson diagonalization with overlap
     ethr =  1.89E-03,  avg # of iterations =  1.4

     total cpu time spent up to now is      394.9 secs

     total energy              =  -14693.44996177 Ry
     Harris-Foulkes estimate   =  -14693.72659403 Ry
     estimated scf accuracy    <       2.63286680 Ry

     total magnetization       =    18.75 Bohr mag/cell
     absolute magnetization    =    38.85 Bohr mag/cell

     iteration #  6     ecut=    45.00 Ry     beta= 0.10
     Davidson diagonalization with overlap
     ethr =  8.89E-04,  avg # of iterations =  2.4

     total cpu time spent up to now is      463.1 secs

     total energy              =  -14693.06054526 Ry
     Harris-Foulkes estimate   =  -14693.48884407 Ry
     estimated scf accuracy    <       2.83280303 Ry

     total magnetization       =    18.79 Bohr mag/cell
     absolute magnetization    =    38.97 Bohr mag/cell

     iteration #  7     ecut=    45.00 Ry     beta= 0.10
     Davidson diagonalization with overlap
     ethr =  8.89E-04,  avg # of iterations =  4.9

     total cpu time spent up to now is      554.9 secs

     total energy              =  -14693.86519409 Ry
     Harris-Foulkes estimate   =  -14693.45117396 Ry
     estimated scf accuracy    <      10.82407200 Ry

     total magnetization       =    18.53 Bohr mag/cell
     absolute magnetization    =    38.67 Bohr mag/cell

     iteration #  8     ecut=    45.00 Ry     beta= 0.10
     Davidson diagonalization with overlap
     ethr =  8.89E-04,  avg # of iterations =  2.1

     total cpu time spent up to now is      621.6 secs

     total energy              =  -14694.00352704 Ry
     Harris-Foulkes estimate   =  -14694.00986367 Ry
     estimated scf accuracy    <       0.26538617 Ry

     total magnetization       =    17.70 Bohr mag/cell
     absolute magnetization    =    37.51 Bohr mag/cell

     iteration #  9     ecut=    45.00 Ry     beta= 0.10
     Davidson diagonalization with overlap
     ethr =  8.97E-05,  avg # of iterations =  6.4

     total cpu time spent up to now is      717.8 secs

     total energy              =  -14694.00658760 Ry
     Harris-Foulkes estimate   =  -14694.01125894 Ry
     estimated scf accuracy    <       0.18852237 Ry

     total magnetization       =    17.68 Bohr mag/cell
     absolute magnetization    =    37.36 Bohr mag/cell

     iteration # 10     ecut=    45.00 Ry     beta= 0.10
     Davidson diagonalization with overlap
     ethr =  6.37E-05,  avg # of iterations =  1.0

     total cpu time spent up to now is      778.3 secs

     total energy              =  -14693.97958017 Ry
     Harris-Foulkes estimate   =  -14694.01103165 Ry
     estimated scf accuracy    <       0.13225293 Ry

     total magnetization       =    17.54 Bohr mag/cell
     absolute magnetization    =    37.24 Bohr mag/cell

     iteration # 11     ecut=    45.00 Ry     beta= 0.10
     Davidson diagonalization with overlap
     ethr =  4.47E-05,  avg # of iterations =  2.8

     total cpu time spent up to now is      859.0 secs

     total energy              =  -14694.00009055 Ry
     Harris-Foulkes estimate   =  -14694.00177135 Ry
     estimated scf accuracy    <       0.05412878 Ry

     total magnetization       =    17.60 Bohr mag/cell
     absolute magnetization    =    37.34 Bohr mag/cell

     iteration # 12     ecut=    45.00 Ry     beta= 0.10
     Davidson diagonalization with overlap
     ethr =  1.83E-05,  avg # of iterations =  1.8

     total cpu time spent up to now is      923.7 secs

     total energy              =  -14694.00122607 Ry
     Harris-Foulkes estimate   =  -14694.00179815 Ry
     estimated scf accuracy    <       0.01794016 Ry

     total magnetization       =    17.59 Bohr mag/cell
     absolute magnetization    =    37.32 Bohr mag/cell

     iteration # 13     ecut=    45.00 Ry     beta= 0.10
     Davidson diagonalization with overlap
     c_bands:  1 eigenvalues not converged
     ethr =  6.06E-06,  avg # of iterations =  3.7

     total cpu time spent up to now is      999.4 secs

     total energy              =  -14694.00257069 Ry
     Harris-Foulkes estimate   =  -14694.00182529 Ry
     estimated scf accuracy    <       0.01566936 Ry

     total magnetization       =    17.59 Bohr mag/cell
     absolute magnetization    =    37.31 Bohr mag/cell

     iteration # 14     ecut=    45.00 Ry     beta= 0.10
     Davidson diagonalization with overlap
     ethr =  5.29E-06,  avg # of iterations =  1.6

     total cpu time spent up to now is     1063.0 secs

     total energy              =  -14694.00423240 Ry
     Harris-Foulkes estimate   =  -14694.00322872 Ry
     estimated scf accuracy    <       0.00791563 Ry

     total magnetization       =    17.57 Bohr mag/cell
     absolute magnetization    =    37.29 Bohr mag/cell

     iteration # 15     ecut=    45.00 Ry     beta= 0.10
     Davidson diagonalization with overlap
     ethr =  2.67E-06,  avg # of iterations =  2.6

     total cpu time spent up to now is     1132.2 secs

     total energy              =  -14694.00483925 Ry
     Harris-Foulkes estimate   =  -14694.00465790 Ry
     estimated scf accuracy    <       0.00253790 Ry

     total magnetization       =    17.56 Bohr mag/cell
     absolute magnetization    =    37.28 Bohr mag/cell

     iteration # 16     ecut=    45.00 Ry     beta= 0.10
     Davidson diagonalization with overlap
     ethr =  8.57E-07,  avg # of iterations =  2.9

     total cpu time spent up to now is     1203.7 secs

     total energy              =  -14694.00525097 Ry
     Harris-Foulkes estimate   =  -14694.00501734 Ry
     estimated scf accuracy    <       0.00518547 Ry

     total magnetization       =    17.53 Bohr mag/cell
     absolute magnetization    =    37.26 Bohr mag/cell

     iteration # 17     ecut=    45.00 Ry     beta= 0.10
     Davidson diagonalization with overlap
     ethr =  8.57E-07,  avg # of iterations =  1.0

     total cpu time spent up to now is     1236.9 secs

     total energy              =  -14694.00543105 Ry
     Harris-Foulkes estimate   =  -14694.00531046 Ry
     estimated scf accuracy    <       0.00123739 Ry

     total magnetization       =    17.53 Bohr mag/cell
     absolute magnetization    =    37.27 Bohr mag/cell

     iteration # 18     ecut=    45.00 Ry     beta= 0.10
     Davidson diagonalization with overlap
     ethr =  4.18E-07,  avg # of iterations =  1.7

     total cpu time spent up to now is     1272.9 secs

     total energy              =  -14694.00544355 Ry
     Harris-Foulkes estimate   =  -14694.00546082 Ry
     estimated scf accuracy    <       0.00099072 Ry

     total magnetization       =    17.52 Bohr mag/cell
     absolute magnetization    =    37.27 Bohr mag/cell

     iteration # 19     ecut=    45.00 Ry     beta= 0.10
     Davidson diagonalization with overlap
     ethr =  3.35E-07,  avg # of iterations =  1.0

     total cpu time spent up to now is     1306.2 secs

     total energy              =  -14694.00549146 Ry
     Harris-Foulkes estimate   =  -14694.00545340 Ry
     estimated scf accuracy    <       0.00052515 Ry

     total magnetization       =    17.52 Bohr mag/cell
     absolute magnetization    =    37.27 Bohr mag/cell

     iteration # 20     ecut=    45.00 Ry     beta= 0.10
     Davidson diagonalization with overlap
     ethr =  1.77E-07,  avg # of iterations =  1.7

     total cpu time spent up to now is     1342.2 secs

     total energy              =  -14694.00555128 Ry
     Harris-Foulkes estimate   =  -14694.00549911 Ry
     estimated scf accuracy    <       0.00037891 Ry

     total magnetization       =    17.52 Bohr mag/cell
     absolute magnetization    =    37.26 Bohr mag/cell

     iteration # 21     ecut=    45.00 Ry     beta= 0.10
     Davidson diagonalization with overlap
     ethr =  1.28E-07,  avg # of iterations =  1.2

     total cpu time spent up to now is     1376.6 secs

     total energy              =  -14694.00556885 Ry
     Harris-Foulkes estimate   =  -14694.00556384 Ry
     estimated scf accuracy    <       0.00108643 Ry

     total magnetization       =    17.51 Bohr mag/cell
     absolute magnetization    =    37.27 Bohr mag/cell

     iteration # 22     ecut=    45.00 Ry     beta= 0.10
     Davidson diagonalization with overlap
     ethr =  1.28E-07,  avg # of iterations =  1.0

     total cpu time spent up to now is     1409.7 secs

     total energy              =  -14694.00558318 Ry
     Harris-Foulkes estimate   =  -14694.00557766 Ry
     estimated scf accuracy    <       0.00050929 Ry

     total magnetization       =    17.51 Bohr mag/cell
     absolute magnetization    =    37.26 Bohr mag/cell

     iteration # 23     ecut=    45.00 Ry     beta= 0.10
     Davidson diagonalization with overlap
     ethr =  1.28E-07,  avg # of iterations =  1.0

     total cpu time spent up to now is     1442.8 secs

     total energy              =  -14694.00558738 Ry
     Harris-Foulkes estimate   =  -14694.00558658 Ry
     estimated scf accuracy    <       0.00010208 Ry

     total magnetization       =    17.51 Bohr mag/cell
     absolute magnetization    =    37.26 Bohr mag/cell

     iteration # 24     ecut=    45.00 Ry     beta= 0.10
     Davidson diagonalization with overlap
     ethr =  3.45E-08,  avg # of iterations =  1.2

     total cpu time spent up to now is     1476.8 secs

     total energy              =  -14694.00558918 Ry
     Harris-Foulkes estimate   =  -14694.00558888 Ry
     estimated scf accuracy    <       0.00039286 Ry

     total magnetization       =    17.51 Bohr mag/cell
     absolute magnetization    =    37.26 Bohr mag/cell

     iteration # 25     ecut=    45.00 Ry     beta= 0.10
     Davidson diagonalization with overlap
     ethr =  3.45E-08,  avg # of iterations =  1.0

     total cpu time spent up to now is     1527.8 secs

     total energy              =  -14694.00559271 Ry
     Harris-Foulkes estimate   =  -14694.00559137 Ry
     estimated scf accuracy    <       0.00005048 Ry

     total magnetization       =    17.51 Bohr mag/cell
     absolute magnetization    =    37.26 Bohr mag/cell

     iteration # 26     ecut=    45.00 Ry     beta= 0.10
     Davidson diagonalization with overlap
     ethr =  1.71E-08,  avg # of iterations =  1.3

     total cpu time spent up to now is     1584.8 secs

     total energy              =  -14694.00559423 Ry
     Harris-Foulkes estimate   =  -14694.00559302 Ry
     estimated scf accuracy    <       0.00024373 Ry

     total magnetization       =    17.51 Bohr mag/cell
     absolute magnetization    =    37.26 Bohr mag/cell

     iteration # 27     ecut=    45.00 Ry     beta= 0.10
     Davidson diagonalization with overlap
     ethr =  1.71E-08,  avg # of iterations =  1.0

     total cpu time spent up to now is     1640.7 secs

     total energy              =  -14694.00559569 Ry
     Harris-Foulkes estimate   =  -14694.00559463 Ry
     estimated scf accuracy    <       0.00010067 Ry

     total magnetization       =    17.51 Bohr mag/cell
     absolute magnetization    =    37.26 Bohr mag/cell

     iteration # 28     ecut=    45.00 Ry     beta= 0.10
     Davidson diagonalization with overlap
     ethr =  1.71E-08,  avg # of iterations =  1.0

     total cpu time spent up to now is     1678.4 secs

     total energy              =  -14694.00559569 Ry
     Harris-Foulkes estimate   =  -14694.00559546 Ry
     estimated scf accuracy    <       0.00024068 Ry

     total magnetization       =    17.51 Bohr mag/cell
     absolute magnetization    =    37.26 Bohr mag/cell

     iteration # 29     ecut=    45.00 Ry     beta= 0.10
     Davidson diagonalization with overlap
     ethr =  1.71E-08,  avg # of iterations =  1.0

     total cpu time spent up to now is     1723.4 secs

     total energy              =  -14694.00559671 Ry
     Harris-Foulkes estimate   =  -14694.00559633 Ry
     estimated scf accuracy    <       0.00012880 Ry

     total magnetization       =    17.51 Bohr mag/cell
     absolute magnetization    =    37.26 Bohr mag/cell

     iteration # 30     ecut=    45.00 Ry     beta= 0.10
     Davidson diagonalization with overlap
     ethr =  1.71E-08,  avg # of iterations =  1.0

     total cpu time spent up to now is     1778.8 secs

     total energy              =  -14694.00559804 Ry
     Harris-Foulkes estimate   =  -14694.00559724 Ry
     estimated scf accuracy    <       0.00000694 Ry

     total magnetization       =    17.51 Bohr mag/cell
     absolute magnetization    =    37.26 Bohr mag/cell

     iteration # 31     ecut=    45.00 Ry     beta= 0.10
     Davidson diagonalization with overlap
     ethr =  2.34E-09,  avg # of iterations =  1.1

     total cpu time spent up to now is     1834.6 secs

     total energy              =  -14694.00559866 Ry
     Harris-Foulkes estimate   =  -14694.00559801 Ry
     estimated scf accuracy    <       0.00001285 Ry

     total magnetization       =    17.51 Bohr mag/cell
     absolute magnetization    =    37.26 Bohr mag/cell

     iteration # 32     ecut=    45.00 Ry     beta= 0.10
     Davidson diagonalization with overlap
     ethr =  2.34E-09,  avg # of iterations =  1.0

     total cpu time spent up to now is     1889.9 secs

     total energy              =  -14694.00559886 Ry
     Harris-Foulkes estimate   =  -14694.00559844 Ry
     estimated scf accuracy    <       0.00003111 Ry

     total magnetization       =    17.51 Bohr mag/cell
     absolute magnetization    =    37.26 Bohr mag/cell

     iteration # 33     ecut=    45.00 Ry     beta= 0.10
     Davidson diagonalization with overlap
     ethr =  2.34E-09,  avg # of iterations =  1.1

     total cpu time spent up to now is     1945.3 secs

     total energy              =  -14694.00559922 Ry
     Harris-Foulkes estimate   =  -14694.00559876 Ry
     estimated scf accuracy    <       0.00007550 Ry

     total magnetization       =    17.51 Bohr mag/cell
     absolute magnetization    =    37.26 Bohr mag/cell

     iteration # 34     ecut=    45.00 Ry     beta= 0.10
     Davidson diagonalization with overlap
     ethr =  2.34E-09,  avg # of iterations =  1.0

     total cpu time spent up to now is     2000.8 secs

     total energy              =  -14694.00559956 Ry
     Harris-Foulkes estimate   =  -14694.00559914 Ry
     estimated scf accuracy    <       0.00000424 Ry

     total magnetization       =    17.51 Bohr mag/cell
     absolute magnetization    =    37.26 Bohr mag/cell

     iteration # 35     ecut=    45.00 Ry     beta= 0.10
     Davidson diagonalization with overlap
     ethr =  1.43E-09,  avg # of iterations =  1.0

     total cpu time spent up to now is     2056.3 secs

     total energy              =  -14694.00559979 Ry
     Harris-Foulkes estimate   =  -14694.00559945 Ry
     estimated scf accuracy    <       0.00000833 Ry

     total magnetization       =    17.51 Bohr mag/cell
     absolute magnetization    =    37.26 Bohr mag/cell

     iteration # 36     ecut=    45.00 Ry     beta= 0.10
     Davidson diagonalization with overlap
     ethr =  1.43E-09,  avg # of iterations =  1.0

     total cpu time spent up to now is     2111.7 secs

     total energy              =  -14694.00559991 Ry
     Harris-Foulkes estimate   =  -14694.00559959 Ry
     estimated scf accuracy    <       0.00000348 Ry

     total magnetization       =    17.51 Bohr mag/cell
     absolute magnetization    =    37.26 Bohr mag/cell

     iteration # 37     ecut=    45.00 Ry     beta= 0.10
     Davidson diagonalization with overlap
     ethr =  1.18E-09,  avg # of iterations =  1.0

     total cpu time spent up to now is     2167.1 secs

     total energy              =  -14694.00560006 Ry
     Harris-Foulkes estimate   =  -14694.00559981 Ry
     estimated scf accuracy    <       0.00000101 Ry

     total magnetization       =    17.51 Bohr mag/cell
     absolute magnetization    =    37.26 Bohr mag/cell

     iteration # 38     ecut=    45.00 Ry     beta= 0.10
     Davidson diagonalization with overlap
     ethr =  3.40E-10,  avg # of iterations =  1.6

     total cpu time spent up to now is     2225.7 secs

     total energy              =  -14694.00560008 Ry
     Harris-Foulkes estimate   =  -14694.00559992 Ry
     estimated scf accuracy    <       0.00000130 Ry

     total magnetization       =    17.51 Bohr mag/cell
     absolute magnetization    =    37.26 Bohr mag/cell

     iteration # 39     ecut=    45.00 Ry     beta= 0.10
     Davidson diagonalization with overlap
     ethr =  3.40E-10,  avg # of iterations =  1.4
 
     Magnetic moment per site:
     atom:    1    charge:   13.5459    magn:    4.2494    constr:    0.0000
     atom:    2    charge:   13.5516    magn:    4.2059    constr:    0.0000
     atom:    3    charge:   13.5460    magn:    4.2498    constr:    0.0000
     atom:    4    charge:   13.5469    magn:   -4.2391    constr:    0.0000
     atom:    5    charge:   13.5459    magn:    4.2503    constr:    0.0000
     atom:    6    charge:   13.5517    magn:    4.2062    constr:    0.0000
     atom:    7    charge:   13.5458    magn:    4.2498    constr:    0.0000
     atom:    8    charge:   13.5466    magn:   -4.2417    constr:    0.0000
     atom:    9    charge:    9.1220    magn:    0.0332    constr:    0.0000
     atom:   10    charge:    9.1225    magn:    0.0378    constr:    0.0000
     atom:   11    charge:    9.1225    magn:    0.0379    constr:    0.0000
     atom:   12    charge:    9.1222    magn:    0.0334    constr:    0.0000
     atom:   13    charge:    9.1234    magn:    0.0441    constr:    0.0000
     atom:   14    charge:    9.1247    magn:   -0.0373    constr:    0.0000
     atom:   15    charge:    9.1247    magn:   -0.0372    constr:    0.0000
     atom:   16    charge:    9.1235    magn:    0.0444    constr:    0.0000
     atom:   17    charge:    9.1222    magn:    0.0338    constr:    0.0000
     atom:   18    charge:    9.1226    magn:    0.0382    constr:    0.0000
     atom:   19    charge:    9.1225    magn:    0.0381    constr:    0.0000
     atom:   20    charge:    9.1221    magn:    0.0336    constr:    0.0000
     atom:   21    charge:    9.1236    magn:    0.0437    constr:    0.0000
     atom:   22    charge:    9.1248    magn:   -0.0380    constr:    0.0000
     atom:   23    charge:    9.1248    magn:   -0.0381    constr:    0.0000
     atom:   24    charge:    9.1235    magn:    0.0435    constr:    0.0000

     total cpu time spent up to now is     2283.0 secs

     End of self-consistent calculation
 --- enter write_ns ---
 LDA+U parameters:
U(  1) =   3.1200   J(  1) =   0.7000   B(  1) =   0.0803
U(  2) =   3.1200   J(  2) =   0.7000   B(  2) =   0.0803
atom    1   Tr[ns(na)] (up, down, total) =   4.97373  0.72480  5.69853
   spin  1
    eigenvalues: 
  0.985  0.994  0.994  0.998  1.002
    eigenvectors:
  0.000  0.000  0.000  1.000  0.000
  0.000  0.131  0.869  0.000  0.000
  0.000  0.869  0.131  0.000  0.000
  0.000  0.000  0.000  0.000  1.000
  1.000  0.000  0.000  0.000  0.000
    occupations:
  0.998 -0.000 -0.000  0.000  0.000
 -0.000  0.994 -0.000  0.000  0.000
 -0.000 -0.000  0.994  0.000  0.000
  0.000  0.000  0.000  1.002 -0.000
  0.000  0.000  0.000 -0.000  0.985
   spin  2
    eigenvalues: 
  0.066  0.120  0.146  0.146  0.247
    eigenvectors:
  0.000  1.000  0.000  0.000  0.000
  0.000  0.000  0.145  0.855  0.000
  0.000  0.000  0.855  0.145  0.000
  1.000  0.000  0.000  0.000  0.000
  0.000  0.000  0.000  0.000  1.000
    occupations:
  0.120 -0.000 -0.000  0.000  0.000
 -0.000  0.146 -0.000  0.000  0.000
 -0.000 -0.000  0.146  0.000  0.000
  0.000  0.000  0.000  0.066 -0.000
  0.000  0.000  0.000 -0.000  0.247
atomic mag. moment =     4.248924
atom    2   Tr[ns(na)] (up, down, total) =   4.97019  0.75921  5.72940
   spin  1
    eigenvalues: 
  0.985  0.994  0.994  0.996  1.002
    eigenvectors:
  0.000  0.000  0.000  1.000  0.000
  0.000  0.122  0.878  0.000  0.000
  0.000  0.878  0.122  0.000  0.000
  0.000  0.000  0.000  0.000  1.000
  1.000  0.000  0.000  0.000  0.000
    occupations:
  0.996 -0.000 -0.000  0.000  0.000
 -0.000  0.994 -0.000  0.000  0.000
 -0.000 -0.000  0.994  0.000  0.000
  0.000  0.000  0.000  1.002 -0.000
  0.000  0.000  0.000 -0.000  0.985
   spin  2
    eigenvalues: 
  0.065  0.137  0.144  0.144  0.269
    eigenvectors:
  0.000  1.000  0.000  0.000  0.000
  0.000  0.000  0.122  0.878  0.000
  0.000  0.000  0.878  0.122  0.000
  1.000  0.000  0.000  0.000  0.000
  0.000  0.000  0.000  0.000  1.000
    occupations:
  0.137 -0.000 -0.000  0.000  0.000
 -0.000  0.144 -0.000  0.000  0.000
 -0.000 -0.000  0.144  0.000  0.000
  0.000  0.000  0.000  0.065 -0.000
  0.000  0.000  0.000 -0.000  0.269
atomic mag. moment =     4.210984
atom    3   Tr[ns(na)] (up, down, total) =   4.97376  0.72470  5.69846
   spin  1
    eigenvalues: 
  0.985  0.994  0.994  0.998  1.002
    eigenvectors:
  0.000  0.000  0.000  1.000  0.000
  0.000  0.106  0.894  0.000  0.000
  0.000  0.894  0.106  0.000  0.000
  0.000  0.000  0.000  0.000  1.000
  1.000  0.000  0.000  0.000  0.000
    occupations:
  0.998 -0.000 -0.000  0.000  0.000
 -0.000  0.994 -0.000  0.000  0.000
 -0.000 -0.000  0.994  0.000  0.000
  0.000  0.000  0.000  1.002 -0.000
  0.000  0.000  0.000 -0.000  0.985
   spin  2
    eigenvalues: 
  0.066  0.120  0.146  0.146  0.247
    eigenvectors:
  0.000  1.000  0.000  0.000  0.000
  0.000  0.000  0.129  0.871  0.000
  0.000  0.000  0.871  0.129  0.000
  1.000  0.000  0.000  0.000  0.000
  0.000  0.000  0.000  0.000  1.000
    occupations:
  0.120 -0.000 -0.000  0.000  0.000
 -0.000  0.146 -0.000  0.000  0.000
 -0.000 -0.000  0.146  0.000  0.000
  0.000  0.000  0.000  0.066 -0.000
  0.000  0.000  0.000 -0.000  0.247
atomic mag. moment =     4.249058
atom    4   Tr[ns(na)] (up, down, total) =   0.73497  4.96974  5.70471
   spin  1
    eigenvalues: 
  0.065  0.135  0.141  0.141  0.253
    eigenvectors:
  0.000  1.000  0.000  0.000  0.000
  0.000  0.000  0.154  0.846  0.000
  0.000  0.000  0.846  0.154  0.000
  1.000  0.000  0.000  0.000  0.000
  0.000  0.000  0.000  0.000  1.000
    occupations:
  0.135 -0.000 -0.000  0.000  0.000
 -0.000  0.141 -0.000  0.000  0.000
 -0.000 -0.000  0.141  0.000  0.000
  0.000  0.000  0.000  0.065 -0.000
  0.000  0.000  0.000 -0.000  0.253
   spin  2
    eigenvalues: 
  0.984  0.994  0.994  0.995  1.003
    eigenvectors:
  0.000  0.000  0.000  1.000  0.000
  0.000  0.122  0.878  0.000  0.000
  0.000  0.878  0.122  0.000  0.000
  0.000  0.000  0.000  0.000  1.000
  1.000  0.000  0.000  0.000  0.000
    occupations:
  0.995 -0.000 -0.000  0.000  0.000
 -0.000  0.994 -0.000  0.000  0.000
 -0.000 -0.000  0.994  0.000  0.000
  0.000  0.000  0.000  1.003 -0.000
  0.000  0.000  0.000 -0.000  0.984
atomic mag. moment =    -4.234774
atom    5   Tr[ns(na)] (up, down, total) =   4.97379  0.72439  5.69818
   spin  1
    eigenvalues: 
  0.985  0.994  0.994  0.998  1.002
    eigenvectors:
  0.000  0.000  0.000  1.000  0.000
  0.000  0.127  0.873  0.000  0.000
  0.000  0.873  0.127  0.000  0.000
  0.000  0.000  0.000  0.000  1.000
  1.000  0.000  0.000  0.000  0.000
    occupations:
  0.998 -0.000 -0.000  0.000  0.000
 -0.000  0.994 -0.000  0.000  0.000
 -0.000 -0.000  0.994  0.000  0.000
  0.000  0.000  0.000  1.002 -0.000
  0.000  0.000  0.000 -0.000  0.985
   spin  2
    eigenvalues: 
  0.066  0.120  0.146  0.146  0.247
    eigenvectors:
  0.000  1.000  0.000  0.000  0.000
  0.000  0.000  0.107  0.893  0.000
  0.000  0.000  0.893  0.107  0.000
  1.000  0.000  0.000  0.000  0.000
  0.000  0.000  0.000  0.000  1.000
    occupations:
  0.120 -0.000 -0.000  0.000  0.000
 -0.000  0.146 -0.000  0.000  0.000
 -0.000 -0.000  0.146  0.000  0.000
  0.000  0.000  0.000  0.066 -0.000
  0.000  0.000  0.000 -0.000  0.247
atomic mag. moment =     4.249396
atom    6   Tr[ns(na)] (up, down, total) =   4.97022  0.75916  5.72937
   spin  1
    eigenvalues: 
  0.985  0.994  0.994  0.996  1.002
    eigenvectors:
  0.000  0.000  0.000  1.000  0.000
  0.000  0.130  0.870  0.000  0.000
  0.000  0.870  0.130  0.000  0.000
  0.000  0.000  0.000  0.000  1.000
  1.000  0.000  0.000  0.000  0.000
    occupations:
  0.996 -0.000 -0.000  0.000  0.000
 -0.000  0.994 -0.000  0.000  0.000
 -0.000 -0.000  0.994  0.000  0.000
  0.000  0.000  0.000  1.002 -0.000
  0.000  0.000  0.000 -0.000  0.985
   spin  2
    eigenvalues: 
  0.064  0.137  0.144  0.144  0.269
    eigenvectors:
  0.000  1.000  0.000  0.000  0.000
  0.000  0.000  0.110  0.890  0.000
  0.000  0.000  0.890  0.110  0.000
  1.000  0.000  0.000  0.000  0.000
  0.000  0.000  0.000  0.000  1.000
    occupations:
  0.137 -0.000 -0.000  0.000  0.000
 -0.000  0.144 -0.000  0.000  0.000
 -0.000 -0.000  0.144  0.000  0.000
  0.000  0.000  0.000  0.064 -0.000
  0.000  0.000  0.000 -0.000  0.269
atomic mag. moment =     4.211063
atom    7   Tr[ns(na)] (up, down, total) =   4.97376  0.72452  5.69828
   spin  1
    eigenvalues: 
  0.985  0.994  0.994  0.998  1.002
    eigenvectors:
  0.000  0.000  0.000  1.000  0.000
  0.000  0.128  0.872  0.000  0.000
  0.000  0.872  0.128  0.000  0.000
  0.000  0.000  0.000  0.000  1.000
  1.000  0.000  0.000  0.000  0.000
    occupations:
  0.998 -0.000 -0.000  0.000  0.000
 -0.000  0.994 -0.000  0.000  0.000
 -0.000 -0.000  0.994  0.000  0.000
  0.000  0.000  0.000  1.002 -0.000
  0.000  0.000  0.000 -0.000  0.985
   spin  2
    eigenvalues: 
  0.066  0.120  0.146  0.146  0.247
    eigenvectors:
  0.000  1.000  0.000  0.000  0.000
  0.000  0.000  0.126  0.874  0.000
  0.000  0.000  0.874  0.126  0.000
  1.000  0.000  0.000  0.000  0.000
  0.000  0.000  0.000  0.000  1.000
    occupations:
  0.120 -0.000 -0.000  0.000  0.000
 -0.000  0.146 -0.000  0.000  0.000
 -0.000 -0.000  0.146  0.000  0.000
  0.000  0.000  0.000  0.066 -0.000
  0.000  0.000  0.000 -0.000  0.247
atomic mag. moment =     4.249238
atom    8   Tr[ns(na)] (up, down, total) =   0.73338  4.97000  5.70338
   spin  1
    eigenvalues: 
  0.064  0.134  0.142  0.142  0.251
    eigenvectors:
  0.000  1.000  0.000  0.000  0.000
  0.000  0.000  0.129  0.871  0.000
  0.000  0.000  0.871  0.129  0.000
  1.000  0.000  0.000  0.000  0.000
  0.000  0.000  0.000  0.000  1.000
    occupations:
  0.134 -0.000 -0.000  0.000  0.000
 -0.000  0.142 -0.000  0.000  0.000
 -0.000 -0.000  0.142  0.000  0.000
  0.000  0.000  0.000  0.064 -0.000
  0.000  0.000  0.000 -0.000  0.251
   spin  2
    eigenvalues: 
  0.984  0.994  0.994  0.996  1.003
    eigenvectors:
  0.000  0.000  0.000  1.000  0.000
  0.000  0.138  0.862  0.000  0.000
  0.000  0.862  0.138  0.000  0.000
  0.000  0.000  0.000  0.000  1.000
  1.000  0.000  0.000  0.000  0.000
    occupations:
  0.996 -0.000 -0.000  0.000  0.000
 -0.000  0.994 -0.000  0.000  0.000
 -0.000 -0.000  0.994  0.000  0.000
  0.000  0.000  0.000  1.003 -0.000
  0.000  0.000  0.000 -0.000  0.984
atomic mag. moment =    -4.236622
N of occupied +U levels =   45.660316
 --- exit write_ns ---

 ------ SPIN UP ------------


          k = 0.0000 0.0000 0.0000 ( 13925 PWs)   bands (ev):

   -66.7586 -66.7582 -66.7577 -66.7571 -66.6206 -66.6204 -62.2185 -62.2169
   -35.5273 -35.5268 -35.5262 -35.5256 -35.4757 -35.4757 -35.4754 -35.4754
   -35.4750 -35.4750 -35.4745 -35.4745 -35.4020 -35.4018 -35.3336 -35.3336
   -35.3333 -35.3333 -31.0435 -31.0423 -31.0354 -31.0354 -31.0336 -31.0336
     5.7407   5.8770   5.9068   6.2770   6.3909   6.9557   7.0629   7.6123
     8.2137   8.3773   8.3848   8.3953   8.4237   8.5245   8.5425   8.5542
     8.6987   8.7627   8.8368   8.8901   8.8916   8.8960   9.1256   9.2684
     9.3004   9.3754   9.3954   9.4408   9.5358   9.6485   9.6871   9.7972
     9.8982   9.9068  10.0005  10.0227  10.0958  10.1224  10.1224  10.1305
    10.1535  10.1535  10.1601  10.2009  10.2009  10.2625  10.3021  10.3118
    10.3290  10.3290  10.3488  10.3488  10.5788  10.5788  10.5794  10.5794
    10.5881  10.5881  10.5905  10.6133  10.6133  10.6293  10.6293  10.6431
    10.6431  10.6632  10.6812  10.7468  10.7468  10.7854  10.7854  10.8285
    10.9249  11.0099  11.0099  11.0241  11.0399  11.0399  11.1404  11.2194
    11.2365  11.2510  11.3334  11.4055  11.4055  11.4372  11.4397  11.4707
    11.6036  11.6036  11.6295  11.6946  11.7727  11.8642  11.8740  11.8932
    11.8932  11.9018  11.9364  11.9688  12.1569  12.1569  12.1591  12.1852
    12.1918  12.2391  12.3309  12.3309  12.5678  12.6178  12.6659  12.6659
    12.7147  12.7147  12.8152  12.8369  12.8616  13.0147  13.0745  13.0792
    13.3094  13.7898  14.2822  15.0021  15.6372  16.3381  16.9052  16.9052
    16.9089  16.9089  16.9419  16.9435  17.0977  17.1001  17.5250  17.5591
    18.1923  19.3306  19.6334  20.0357  20.0357  20.3763  20.3763  20.4366
    20.4366  21.3322

          k = 0.0000 0.0000-0.0484 ( 13878 PWs)   bands (ev):

   -66.7586 -66.7582 -66.7577 -66.7571 -66.6206 -66.6204 -62.2185 -62.2169
   -35.5273 -35.5268 -35.5262 -35.5256 -35.4757 -35.4757 -35.4754 -35.4754
   -35.4750 -35.4750 -35.4745 -35.4745 -35.4020 -35.4018 -35.3336 -35.3336
   -35.3333 -35.3333 -31.0435 -31.0423 -31.0354 -31.0354 -31.0336 -31.0336
     5.7781   5.7787   6.0757   6.0758   6.6501   6.6502   7.3841   7.3846
     8.3851   8.3853   8.3895   8.3898   8.4514   8.4518   8.5390   8.5392
     8.6234   8.6235   8.8627   8.8627   8.9824   8.9825   9.2059   9.2060
     9.3172   9.3172   9.3815   9.3818   9.6374   9.6378   9.7234   9.7234
     9.9021   9.9022  10.0115  10.0116  10.1133  10.1144  10.1330  10.1330
    10.1337  10.1337  10.2359  10.2361  10.2474  10.2474  10.2477  10.2477
    10.2817  10.2817  10.4598  10.4598  10.4599  10.4599  10.5790  10.5790
    10.5792  10.5792  10.6249  10.6249  10.6285  10.6285  10.6289  10.6289
    10.7303  10.7303  10.7305  10.7305  10.7549  10.7550  10.8395  10.8395
    10.8395  10.8395  10.9742  10.9742  11.1993  11.1993  11.2275  11.2276
    11.2436  11.2436  11.2437  11.2437  11.3856  11.3857  11.4551  11.4553
    11.6627  11.6627  11.7589  11.7589  11.7590  11.7590  11.8232  11.8232
    11.8830  11.8831  11.9535  11.9537  12.1885  12.1887  12.2010  12.2011
    12.2557  12.2557  12.2558  12.2558  12.5932  12.5933  12.6929  12.6929
    12.6930  12.6930  12.8499  12.8500  12.8910  12.8912  13.0768  13.0769
    13.5319  13.5321  14.6271  14.6274  16.0267  16.0274  16.9057  16.9057
    16.9085  16.9085  16.9419  16.9435  17.0977  17.1001  17.5340  17.5355
    18.6164  18.6171  20.1303  20.1303  20.1309  20.1309  20.4744  20.4746
    20.8333  20.8333

          k = 0.0000 0.1250 0.0000 ( 13879 PWs)   bands (ev):

   -66.7583 -66.7579 -66.7574 -66.7569 -66.6203 -66.6201 -62.2186 -62.2169
   -35.5272 -35.5267 -35.5261 -35.5255 -35.4775 -35.4772 -35.4767 -35.4762
   -35.4757 -35.4753 -35.4749 -35.4744 -35.4019 -35.4016 -35.3353 -35.3351
   -35.3335 -35.3332 -31.0433 -31.0421 -31.0376 -31.0357 -31.0353 -31.0335
     5.9843   6.1176   6.1447   6.5045   6.6083   7.1489   7.2343   7.7417
     8.2297   8.4676   8.5107   8.5205   8.5286   8.6111   8.6553   8.6654
     8.6852   8.7665   8.8006   8.8884   8.9590   8.9868   9.1482   9.2086
     9.2334   9.2582   9.3067   9.4084   9.4325   9.6117   9.7085   9.7845
     9.8128   9.8171   9.8254   9.8809   9.9251   9.9289   9.9385   9.9515
    10.0267  10.0450  10.0503  10.1102  10.1492  10.1891  10.1944  10.2342
    10.2724  10.2784  10.3447  10.3851  10.4076  10.4178  10.5046  10.5660
    10.5921  10.6322  10.6542  10.6821  10.6920  10.7200  10.7516  10.8269
    10.8313  10.8361  10.8580  10.8801  10.8812  11.0153  11.0658  11.0688
    11.1212  11.1338  11.1352  11.1421  11.1519  11.1580  11.2657  11.3075
    11.3125  11.3377  11.3707  11.3851  11.4008  11.4261  11.4320  11.5556
    11.6062  11.6912  11.7292  11.7409  11.7968  11.8113  11.8200  11.8356
    11.8544  11.9521  11.9960  12.0145  12.0229  12.1631  12.1651  12.1673
    12.2267  12.2888  12.3007  12.4039  12.4958  12.5607  12.5628  12.6482
    12.6763  12.7189  12.7603  12.9417  12.9511  12.9537  12.9735  12.9926
    13.2685  13.8411  14.3188  15.1313  15.7547  16.4681  16.6872  16.7581
    16.9522  16.9539  16.9959  16.9983  17.0327  17.0356  17.5548  17.8761
    18.2808  18.6057  18.8824  18.9924  19.7061  19.7305  19.8362  19.9168
    20.6455  20.8583

          k = 0.0000 0.1250-0.0484 ( 13868 PWs)   bands (ev):

   -66.7583 -66.7579 -66.7574 -66.7569 -66.6203 -66.6201 -62.2186 -62.2169
   -35.5272 -35.5267 -35.5261 -35.5255 -35.4775 -35.4772 -35.4767 -35.4762
   -35.4757 -35.4753 -35.4749 -35.4744 -35.4019 -35.4016 -35.3353 -35.3351
   -35.3335 -35.3332 -31.0433 -31.0421 -31.0376 -31.0357 -31.0353 -31.0335
     6.0207   6.0213   6.3090   6.3091   6.8566   6.8567   7.5343   7.5347
     8.4099   8.4101   8.4932   8.4936   8.5261   8.5263   8.6514   8.6515
     8.7176   8.7176   8.9065   8.9066   8.9796   8.9796   9.1243   9.1245
     9.2546   9.2548   9.3649   9.3654   9.5204   9.5205   9.7736   9.7740
     9.7937   9.7942   9.8586   9.8590   9.9274   9.9276   9.9424   9.9427
    10.0304  10.0307  10.0840  10.0842  10.1691  10.1693  10.2258  10.2260
    10.2860  10.2861  10.3127  10.3128  10.4621  10.4626  10.5511  10.5512
    10.5808  10.5813  10.6456  10.6462  10.6876  10.6878  10.8321  10.8323
    10.8400  10.8406  10.8662  10.8664  10.9615  10.9616  11.0347  11.0351
    11.1210  11.1211  11.1241  11.1242  11.1896  11.1896  11.2530  11.2533
    11.3511  11.3512  11.3707  11.3708  11.4514  11.4516  11.4697  11.4698
    11.6553  11.6554  11.7197  11.7198  11.7727  11.7728  11.8459  11.8459
    11.9387  11.9388  11.9656  11.9658  12.1371  12.1373  12.1652  12.1653
    12.2199  12.2199  12.3616  12.3617  12.5337  12.5339  12.6069  12.6071
    12.7003  12.7004  12.8447  12.8448  12.9464  12.9465  12.9643  12.9643
    13.5329  13.5331  14.7151  14.7155  16.1524  16.1533  16.7396  16.7420
    16.9523  16.9538  16.9959  16.9983  17.0327  17.0355  17.6414  17.6430
    18.6734  18.6739  18.8842  18.8847  19.3180  19.3180  20.3017  20.3018
    20.7220  20.7225

          k = 0.0000 0.2500 0.0000 ( 13848 PWs)   bands (ev):

   -66.7582 -66.7577 -66.7572 -66.7567 -66.6202 -66.6199 -62.2182 -62.2165
   -35.5268 -35.5263 -35.5257 -35.5251 -35.4817 -35.4813 -35.4809 -35.4804
   -35.4754 -35.4750 -35.4746 -35.4741 -35.4015 -35.4012 -35.3395 -35.3393
   -35.3332 -35.3330 -31.0429 -31.0427 -31.0415 -31.0410 -31.0349 -31.0331
     6.6735   6.7958   6.8142   7.1326   7.2043   7.6394   7.6631   8.0093
     8.2113   8.4373   8.4414   8.6431   8.6688   8.7227   8.7797   8.7840
     8.8331   8.8393   8.9142   8.9264   8.9292   8.9459   8.9542   9.0891
     9.0976   9.1031   9.3471   9.4647   9.4739   9.4990   9.5496   9.5874
     9.6044   9.6068   9.6136   9.6682   9.6737   9.6816   9.7956   9.8536
     9.8915   9.9189   9.9425   9.9945  10.0308  10.1507  10.2395  10.2623
    10.3346  10.4699  10.4899  10.5390  10.5814  10.6021  10.6161  10.6222
    10.7333  10.7337  10.7551  10.7897  10.8055  10.8256  10.8603  10.8802
    11.0324  11.0461  11.0824  11.0852  11.1089  11.1226  11.1492  11.1828
    11.2591  11.2923  11.3402  11.3450  11.3790  11.4092  11.4280  11.4908
    11.5184  11.5383  11.5869  11.5915  11.6311  11.6525  11.6616  11.7079
    11.7227  11.7547  11.7799  11.7837  11.8090  11.8240  11.8311  11.8688
    11.8748  11.9626  11.9962  12.0284  12.0306  12.1151  12.1156  12.1177
    12.2234  12.2381  12.2952  12.3595  12.4970  12.5163  12.5839  12.6666
    12.7443  12.7612  12.7889  12.9154  12.9755  12.9953  13.0201  13.0258
    13.1414  13.9895  14.3864  15.3682  15.7706  16.0249  16.1573  16.2630
    16.2930  16.5964  16.7935  16.8554  16.8578  16.8626  17.1593  17.2838
    17.2867  17.4387  17.5420  17.6835  18.3498  18.3914  18.4228  18.4646
    19.2651  20.3025

          k = 0.0000 0.2500-0.0484 ( 13842 PWs)   bands (ev):

   -66.7582 -66.7577 -66.7572 -66.7567 -66.6202 -66.6199 -62.2182 -62.2165
   -35.5268 -35.5263 -35.5257 -35.5251 -35.4817 -35.4813 -35.4809 -35.4804
   -35.4754 -35.4750 -35.4746 -35.4741 -35.4015 -35.4012 -35.3395 -35.3393
   -35.3332 -35.3330 -31.0429 -31.0427 -31.0415 -31.0410 -31.0349 -31.0331
     6.7065   6.7070   6.9609   6.9610   7.4072   7.4073   7.8767   7.8771
     8.3087   8.3090   8.5547   8.5548   8.7247   8.7251   8.7623   8.7624
     8.8385   8.8388   8.9193   8.9194   8.9498   8.9499   9.0071   9.0072
     9.0952   9.0960   9.4680   9.4682   9.4712   9.4713   9.5184   9.5186
     9.6084   9.6090   9.6348   9.6349   9.6720   9.6722   9.8433   9.8434
     9.9332   9.9333   9.9946   9.9947  10.0154  10.0155  10.2761  10.2763
    10.3912  10.3913  10.5488  10.5492  10.5725  10.5726  10.6253  10.6253
    10.7038  10.7039  10.7518  10.7519  10.8501  10.8502  10.9197  10.9197
    10.9801  10.9802  11.0475  11.0477  11.1611  11.1613  11.1991  11.1992
    11.2627  11.2628  11.3180  11.3181  11.3946  11.3950  11.4871  11.4872
    11.5197  11.5197  11.5565  11.5567  11.6643  11.6644  11.6946  11.6949
    11.7291  11.7293  11.7768  11.7772  11.8389  11.8392  11.8473  11.8473
    11.8938  11.8941  11.9946  11.9949  12.1166  12.1167  12.1192  12.1195
    12.1960  12.1963  12.3486  12.3488  12.4974  12.4976  12.6901  12.6903
    12.7061  12.7063  12.7780  12.7781  12.9857  12.9858  13.0232  13.0232
    13.5363  13.5365  14.8944  14.8949  16.0175  16.0185  16.0998  16.1005
    16.5472  16.5481  16.7949  16.7951  16.8554  16.8578  17.2199  17.2202
    17.2838  17.2867  17.7861  17.7871  18.0492  18.0495  18.6951  18.6952
    19.5428  19.5430

          k = 0.0000 0.3750 0.0000 ( 13856 PWs)   bands (ev):

   -66.7587 -66.7583 -66.7578 -66.7573 -66.6208 -66.6205 -62.2172 -62.2155
   -35.5264 -35.5259 -35.5253 -35.5247 -35.4858 -35.4854 -35.4850 -35.4845
   -35.4752 -35.4748 -35.4744 -35.4739 -35.4011 -35.4008 -35.3436 -35.3434
   -35.3330 -35.3328 -31.0482 -31.0464 -31.0422 -31.0410 -31.0346 -31.0328
     7.6346   7.7318   7.7344   7.9545   7.9550   8.1121   8.1327   8.1710
     8.1752   8.2155   8.2310   8.3353   8.3567   8.5032   8.5566   8.7069
     8.8366   8.9335   8.9676   9.0102   9.1285   9.1854   9.2209   9.2253
     9.2315   9.2335   9.2418   9.2481   9.3126   9.3303   9.3745   9.3885
     9.4338   9.4606   9.5858   9.6487   9.6543   9.6595   9.7214   9.7253
     9.7411   9.9908  10.0107  10.0444  10.0720  10.0732  10.1867  10.3549
    10.3575  10.3747  10.4065  10.4222  10.5013  10.5184  10.5379  10.7238
    10.7695  10.8431  10.8551  10.9490  10.9672  11.1107  11.1415  11.1667
    11.2512  11.3202  11.3219  11.3662  11.3894  11.4648  11.4726  11.4745
    11.4750  11.5067  11.5284  11.5400  11.5402  11.5767  11.6133  11.6178
    11.6392  11.6906  11.7052  11.7313  11.7871  11.8227  11.8300  11.8642
    11.8778  11.9237  11.9526  12.0007  12.0403  12.0562  12.0659  12.0773
    12.0901  12.1515  12.1688  12.1925  12.2673  12.2998  12.3724  12.3780
    12.3951  12.4013  12.5061  12.5317  12.5510  12.6180  12.6207  12.7597
    12.8409  12.8552  12.8749  12.9578  13.0005  13.0465  13.0608  13.0690
    13.0730  13.9103  14.1099  14.1249  14.2328  14.2538  14.9969  15.0068
    15.0410  15.0966  15.7302  15.7862  15.9515  15.9824  16.7849  16.7873
    16.9348  16.9672  16.9902  17.0748  17.4854  17.4883  17.9284  17.9588
    19.4500  19.5756

          k = 0.0000 0.3750-0.0484 ( 13872 PWs)   bands (ev):

   -66.7587 -66.7583 -66.7578 -66.7573 -66.6208 -66.6205 -62.2172 -62.2155
   -35.5264 -35.5259 -35.5253 -35.5247 -35.4858 -35.4854 -35.4850 -35.4845
   -35.4752 -35.4748 -35.4744 -35.4739 -35.4011 -35.4008 -35.3436 -35.3434
   -35.3330 -35.3328 -31.0482 -31.0464 -31.0422 -31.0410 -31.0346 -31.0328
     7.6600   7.6606   7.8387   7.8388   8.0549   8.0551   8.1565   8.1568
     8.1887   8.1890   8.2781   8.2782   8.4286   8.4287   8.6376   8.6377
     8.9046   8.9048   8.9642   8.9645   9.1724   9.1726   9.2224   9.2225
     9.2369   9.2371   9.2708   9.2709   9.3239   9.3242   9.3456   9.3458
     9.4179   9.4180   9.6519   9.6524   9.6525   9.6525   9.7314   9.7316
     9.8522   9.8523  10.0072  10.0073  10.0519  10.0520  10.3379  10.3379
    10.3793  10.3793  10.4128  10.4129  10.4719  10.4719  10.6104  10.6106
    10.7829  10.7832  10.9808  10.9809  11.0156  11.0156  11.1840  11.1843
    11.2675  11.2677  11.3558  11.3561  11.3710  11.3712  11.4562  11.4563
    11.4759  11.4760  11.5466  11.5468  11.5652  11.5653  11.6150  11.6151
    11.7002  11.7002  11.7367  11.7369  11.7885  11.7889  11.8068  11.8070
    11.8828  11.8831  12.0128  12.0133  12.0692  12.0696  12.0972  12.0973
    12.1406  12.1408  12.1510  12.1511  12.3423  12.3425  12.3943  12.3944
    12.4274  12.4275  12.4867  12.4869  12.5279  12.5281  12.6154  12.6156
    12.8015  12.8017  12.8687  12.8688  13.0535  13.0535  13.0714  13.0715
    13.5588  13.5588  14.0184  14.0189  14.5333  14.5334  14.6550  14.6552
    15.3337  15.3342  15.6670  15.6671  15.9739  15.9743  16.7849  16.7873
    16.9612  16.9623  17.0276  17.0287  17.4854  17.4883  17.9463  17.9464
    19.5532  19.5533

          k = 0.0000-0.5000 0.0000 ( 13918 PWs)   bands (ev):

   -66.7592 -66.7587 -66.7583 -66.7577 -66.6212 -66.6210 -62.2166 -62.2149
   -35.5262 -35.5257 -35.5251 -35.5245 -35.4874 -35.4871 -35.4866 -35.4861
   -35.4751 -35.4747 -35.4743 -35.4738 -35.4009 -35.4006 -35.3453 -35.3450
   -35.3329 -35.3327 -31.0505 -31.0487 -31.0419 -31.0407 -31.0345 -31.0327
     8.1070   8.1076   8.1260   8.1481   8.1555   8.2190   8.2398   8.2808
     8.3184   8.3753   8.4175   8.4584   8.4802   8.5088   8.6204   8.6573
     8.6717   8.8009   8.8178   8.8598   9.1152   9.1322   9.1327   9.1453
     9.1944   9.2485   9.2816   9.2828   9.3118   9.3203   9.3453   9.4191
     9.4995   9.6559   9.6635   9.6650   9.6850   9.6897   9.7043   9.7516
     9.8057   9.8405   9.8604  10.0194  10.0332  10.0340  10.0764  10.1227
    10.1469  10.4060  10.4886  10.4906  10.5250  10.5349  10.5510  10.5698
    10.5763  10.7184  10.7208  11.1502  11.1581  11.2487  11.2580  11.2755
    11.3506  11.3936  11.4134  11.5066  11.5246  11.5427  11.5551  11.5570
    11.5601  11.5715  11.5768  11.6216  11.6367  11.6476  11.6508  11.6753
    11.7112  11.7403  11.7885  11.8197  11.8394  11.8473  11.9123  11.9462
    11.9485  12.1163  12.1745  12.1917  12.3074  12.3359  12.4027  12.4092
    12.4096  12.4298  12.4939  12.5213  12.5379  12.5784  12.5832  12.6354
    12.6430  12.6544  12.6728  12.6918  12.7550  12.8380  12.8413  12.8604
    12.9322  12.9398  12.9717  13.0289  13.0726  13.0887  13.0891  13.0952
    13.1272  13.3413  13.4391  13.4716  13.7244  13.8091  13.9314  13.9811
    14.3248  14.4178  14.4580  14.5313  14.7584  14.8218  16.6599  16.7165
    16.7662  16.7686  16.8306  16.8336  17.5592  17.5622  17.9077  17.9268
    19.4687  19.5398

          k = 0.0000-0.5000-0.0484 ( 13892 PWs)   bands (ev):

   -66.7592 -66.7587 -66.7583 -66.7577 -66.6212 -66.6210 -62.2166 -62.2149
   -35.5262 -35.5257 -35.5251 -35.5245 -35.4874 -35.4871 -35.4866 -35.4861
   -35.4751 -35.4747 -35.4743 -35.4738 -35.4009 -35.4006 -35.3453 -35.3450
   -35.3329 -35.3327 -31.0505 -31.0487 -31.0419 -31.0407 -31.0345 -31.0327
     8.1155   8.1158   8.1179   8.1183   8.2036   8.2039   8.2443   8.2450
     8.3517   8.3523   8.4638   8.4643   8.4704   8.4707   8.6242   8.6245
     8.7509   8.7513   8.8376   8.8378   9.1273   9.1276   9.1324   9.1325
     9.2541   9.2546   9.2822   9.2823   9.2920   9.2922   9.3622   9.3627
     9.5752   9.5753   9.6642   9.6643   9.6924   9.6930   9.7318   9.7324
     9.8228   9.8230   9.9454   9.9456  10.0336  10.0336  10.1112  10.1117
    10.2423  10.2429  10.4681  10.4682  10.4896  10.4896  10.5718  10.5721
    10.7196  10.7197  10.9116  10.9119  11.2094  11.2102  11.2536  11.2538
    11.3971  11.3971  11.4689  11.4690  11.5119  11.5125  11.5489  11.5491
    11.5674  11.5674  11.5924  11.5926  11.6078  11.6084  11.7236  11.7239
    11.7773  11.7774  11.7996  11.8001  11.8308  11.8309  11.9473  11.9474
    11.9568  11.9569  12.2408  12.2412  12.2718  12.2719  12.4059  12.4060
    12.4473  12.4477  12.5204  12.5211  12.5589  12.5590  12.5755  12.5757
    12.6391  12.6393  12.7101  12.7103  12.8029  12.8031  12.8396  12.8397
    12.9036  12.9038  13.0472  13.0472  13.0853  13.0854  13.0889  13.0890
    13.1753  13.1754  13.5818  13.5820  13.6264  13.6264  14.1086  14.1089
    14.1851  14.1852  14.6508  14.6516  14.7232  14.7238  16.6881  16.6899
    16.7662  16.7686  16.8313  16.8330  17.5592  17.5622  17.9174  17.9178
    19.6258  19.6260

          k = 0.1250 0.1250 0.0000 ( 13839 PWs)   bands (ev):

   -66.7580 -66.7576 -66.7571 -66.7565 -66.6200 -66.6198 -62.2186 -62.2169
   -35.5270 -35.5265 -35.5259 -35.5253 -35.4774 -35.4774 -35.4771 -35.4770
   -35.4767 -35.4766 -35.4762 -35.4761 -35.4017 -35.4015 -35.3353 -35.3352
   -35.3350 -35.3350 -31.0431 -31.0419 -31.0375 -31.0373 -31.0357 -31.0355
     6.2157   6.3461   6.3737   6.7252   6.8238   7.3459   7.4164   7.8910
     8.2928   8.5511   8.5745   8.6604   8.6691   8.6921   8.6971   8.7429
     8.7706   8.7932   8.8809   8.9893   9.0289   9.0642   9.0676   9.2102
     9.3113   9.3155   9.3843   9.3928   9.4589   9.5207   9.5897   9.6765
     9.6773   9.7454   9.7953   9.8428   9.8514   9.8778   9.8884   9.8919
     9.8976   9.9033   9.9232   9.9248  10.0331  10.1184  10.1204  10.1462
    10.2258  10.2786  10.3307  10.3363  10.3703  10.4248  10.4335  10.4764
    10.5166  10.5705  10.5875  10.5944  10.6106  10.6863  10.6920  10.7833
    10.7865  10.8183  10.8896  11.0172  11.0370  11.0552  11.0758  11.1548
    11.1647  11.1843  11.2136  11.2143  11.2232  11.2433  11.2705  11.3136
    11.3981  11.4600  11.4708  11.4802  11.5122  11.5534  11.5602  11.6582
    11.6963  11.7376  11.7409  11.7870  11.7873  11.8505  11.8826  11.9521
    11.9618  11.9866  12.0507  12.0767  12.1312  12.1418  12.1419  12.2133
    12.3190  12.3205  12.3662  12.3840  12.5372  12.5671  12.5915  12.6375
    12.7025  12.7166  12.7531  12.8098  12.8441  12.8450  12.8478  13.0011
    13.2816  13.9450  14.4244  15.2791  15.9156  16.5383  16.8405  16.8438
    16.8489  16.8822  16.9330  16.9818  16.9835  17.0073  17.5961  18.1931
    18.4388  19.1169  19.1967  19.2217  19.4345  19.4879  19.6145  19.8025
    20.0067  20.0480

          k = 0.1250 0.1250-0.0484 ( 13838 PWs)   bands (ev):

   -66.7580 -66.7576 -66.7571 -66.7565 -66.6200 -66.6198 -62.2186 -62.2169
   -35.5270 -35.5265 -35.5259 -35.5253 -35.4774 -35.4774 -35.4771 -35.4770
   -35.4767 -35.4766 -35.4762 -35.4761 -35.4017 -35.4015 -35.3353 -35.3352
   -35.3350 -35.3350 -31.0431 -31.0419 -31.0375 -31.0373 -31.0357 -31.0355
     6.2515   6.2520   6.5340   6.5341   7.0637   7.0638   7.6996   7.7000
     8.4459   8.4461   8.5771   8.5775   8.6643   8.6645   8.7817   8.7819
     8.7942   8.7942   8.8920   8.8920   9.0463   9.0463   9.1664   9.1665
     9.2898   9.2900   9.4169   9.4170   9.4680   9.4685   9.6358   9.6358
     9.7159   9.7167   9.8204   9.8205   9.8596   9.8600   9.8968   9.8972
     9.8973   9.8975   9.9232   9.9234  10.0815  10.0818  10.1191  10.1197
    10.2592  10.2597  10.3333  10.3334  10.4160  10.4162  10.4292  10.4295
    10.5530  10.5533  10.5904  10.5905  10.6611  10.6613  10.7055  10.7060
    10.8007  10.8013  10.9793  10.9794  11.0641  11.0642  11.1074  11.1076
    11.1364  11.1367  11.1913  11.1915  11.2857  11.2859  11.3225  11.3226
    11.3622  11.3622  11.4864  11.4865  11.5319  11.5320  11.6169  11.6171
    11.7511  11.7511  11.7828  11.7829  11.8176  11.8177  11.8445  11.8448
    11.9868  11.9870  12.0636  12.0636  12.1398  12.1400  12.2196  12.2197
    12.3101  12.3102  12.3493  12.3494  12.5670  12.5672  12.6071  12.6074
    12.7306  12.7307  12.7908  12.7909  12.8391  12.8391  12.8620  12.8621
    13.5904  13.5906  14.8531  14.8535  16.2763  16.2774  16.8450  16.8477
    16.8722  16.8746  16.9697  16.9721  16.9819  16.9834  17.7643  17.7659
    19.1056  19.1059  19.2072  19.2077  19.2855  19.2860  19.5890  19.5892
    19.9517  19.9517

          k = 0.1250 0.2500 0.0000 ( 13846 PWs)   bands (ev):

   -66.7578 -66.7573 -66.7568 -66.7563 -66.6198 -66.6195 -62.2183 -62.2166
   -35.5267 -35.5262 -35.5256 -35.5249 -35.4816 -35.4812 -35.4808 -35.4803
   -35.4772 -35.4768 -35.4764 -35.4759 -35.4014 -35.4011 -35.3394 -35.3392
   -35.3350 -35.3348 -31.0427 -31.0425 -31.0413 -31.0409 -31.0370 -31.0352
     6.8604   6.9802   7.0099   7.3266   7.4086   7.8424   7.8702   8.2037
     8.3562   8.5451   8.5497   8.7194   8.7504   8.7697   8.8229   8.8763
     8.9552   8.9861   8.9935   9.0516   9.0767   9.0891   9.0963   9.1425
     9.2355   9.2581   9.3668   9.4665   9.4711   9.4898   9.5110   9.5366
     9.5537   9.5847   9.6298   9.6427   9.6576   9.6982   9.7713   9.7994
     9.8407   9.8862   9.9338   9.9655   9.9689  10.0273  10.0954  10.2196
    10.2963  10.3217  10.3353  10.3617  10.4097  10.4404  10.4547  10.5001
    10.5075  10.5234  10.5469  10.6124  10.6439  10.6841  10.7551  10.7845
    10.8489  10.8539  10.8607  10.8970  10.9880  11.0650  11.0805  11.2267
    11.2706  11.3057  11.3194  11.3994  11.4702  11.4730  11.4858  11.5144
    11.5403  11.5513  11.5782  11.6471  11.6536  11.6911  11.7299  11.7592
    11.7747  11.7925  11.8202  11.8285  11.8336  11.8720  11.9349  11.9738
    12.0277  12.0642  12.0910  12.1213  12.1629  12.1914  12.2117  12.2671
    12.3413  12.4987  12.5283  12.5503  12.5817  12.6220  12.6340  12.6767
    12.7084  12.7124  12.7515  12.8005  12.8160  12.8575  12.8736  13.1591
    13.4031  14.2462  14.6987  15.5068  16.0534  16.2776  16.3796  16.5400
    16.5404  16.7306  16.9344  16.9716  17.0814  17.0888  17.1466  17.3388
    17.3427  17.7563  17.8429  17.8861  18.6172  18.6694  18.7236  18.8843
    19.2890  20.4281

          k = 0.1250 0.2500-0.0484 ( 13868 PWs)   bands (ev):

   -66.7578 -66.7573 -66.7568 -66.7563 -66.6198 -66.6195 -62.2183 -62.2166
   -35.5267 -35.5262 -35.5256 -35.5249 -35.4816 -35.4812 -35.4808 -35.4803
   -35.4772 -35.4768 -35.4764 -35.4759 -35.4014 -35.4011 -35.3394 -35.3392
   -35.3350 -35.3348 -31.0427 -31.0425 -31.0413 -31.0409 -31.0370 -31.0352
     6.8939   6.8945   7.1548   7.1549   7.6114   7.6115   8.0761   8.0765
     8.4411   8.4413   8.6435   8.6436   8.7770   8.7774   8.8404   8.8404
     8.9829   8.9833   9.0321   9.0322   9.0816   9.0818   9.0925   9.0926
     9.2448   9.2455   9.4562   9.4568   9.4957   9.4960   9.5032   9.5032
     9.5507   9.5508   9.6118   9.6122   9.6976   9.6977   9.7580   9.7582
     9.8941   9.8942   9.9625   9.9626   9.9916   9.9918  10.1459  10.1462
[...]
    11.6138  11.6568  11.6856  11.8874  11.8972  11.8975  11.9983  12.0353
    12.0410  12.0783  12.1432  12.1516  12.1520  12.2488  12.2518  12.2862
    12.4042  12.4390  12.5260  12.5392  12.6105  12.6954  12.7478  12.9431
    12.9851  13.2113  13.4533  13.8038  13.8220  14.2760  14.4848  14.7976
    15.1546  15.2303  15.3493  15.3771  15.4653  15.5452  15.9893  16.0485
    16.1735  16.2060  16.8668  16.8938  16.9131  16.9618  17.0936  17.1081
    17.1414  17.1739  17.2116  17.2316  17.2431  17.2968  17.4001  17.4518
    17.4972  17.5012  17.5197  17.5304  17.9759  18.0270  18.0430  18.2037
    18.2665  18.2771  18.2944  18.3856  18.4523  18.8900  19.0291  19.1134
    19.6296  19.6370

          k = 0.2500 0.3750-0.0484 ( 13916 PWs)   bands (ev):

   -66.8082 -66.8043 -62.1525 -62.1523 -62.1520 -62.1517 -62.0549 -62.0545
   -35.5741 -35.5714 -35.5362 -35.5319 -35.5319 -35.5276 -30.9858 -30.9857
   -30.9853 -30.9850 -30.9801 -30.9799 -30.9795 -30.9793 -30.9733 -30.9731
   -30.9728 -30.9724 -30.8870 -30.8866 -30.8842 -30.8838 -30.8784 -30.8780
     8.0561   8.0566   8.4155   8.4157   8.6661   8.6665   8.8303   8.8306
     8.8582   8.8584   8.8866   8.8873   9.1196   9.1197   9.2534   9.2536
     9.3138   9.3140   9.3954   9.3955   9.4012   9.4019   9.4306   9.4307
     9.6224   9.6226   9.6538   9.6539   9.7227   9.7229   9.7487   9.7488
     9.8150   9.8152   9.8609   9.8611   9.9389   9.9391  10.0559  10.0560
    10.2091  10.2094  10.2326  10.2326  10.4607  10.4607  10.5411  10.5413
    10.5779  10.5783  10.5843  10.5844  10.7159  10.7160  10.7576  10.7579
    10.8673  10.8675  10.8809  10.8810  11.0372  11.0373  11.1618  11.1635
    11.1985  11.1991  11.3111  11.3113  11.4122  11.4124  11.5675  11.5682
    11.6153  11.6174  11.7955  11.7959  11.8975  11.8977  12.0255  12.0256
    12.0929  12.0930  12.1026  12.1027  12.2055  12.2055  12.2775  12.2777
    12.4238  12.4240  12.5306  12.5310  12.6418  12.6419  12.8314  12.8315
    13.1125  13.1127  13.5813  13.5813  14.0763  14.0763  14.6642  14.6644
    15.1956  15.1958  15.3812  15.3812  15.4902  15.4904  16.0207  16.0209
    16.1904  16.1906  16.8752  16.8753  16.9421  16.9423  17.0951  17.0952
    17.1620  17.1622  17.2269  17.2271  17.2603  17.2605  17.4322  17.4325
    17.5071  17.5072  17.5163  17.5165  18.0096  18.0097  18.0770  18.0771
    18.2349  18.2352  18.4227  18.4228  18.6403  18.6404  19.0665  19.0667
    19.6303  19.6308

          k = 0.2500-0.5000 0.0000 ( 13940 PWs)   bands (ev):

   -66.8084 -66.8046 -62.1522 -62.1520 -62.1516 -62.1513 -62.0545 -62.0541
   -35.5740 -35.5713 -35.5378 -35.5336 -35.5317 -35.5275 -30.9880 -30.9879
   -30.9875 -30.9873 -30.9799 -30.9797 -30.9794 -30.9791 -30.9732 -30.9729
   -30.9726 -30.9722 -30.8868 -30.8865 -30.8864 -30.8860 -30.8782 -30.8778
     8.4646   8.4718   8.4719   8.5005   8.7228   8.7924   8.8003   8.8149
     8.8158   8.8170   8.8678   8.8700   9.0377   9.0526   9.1465   9.1654
     9.2255   9.2521   9.2931   9.3121   9.3658   9.3886   9.3951   9.4444
     9.5741   9.5943   9.6156   9.6272   9.6491   9.6935   9.7558   9.7604
     9.7884   9.8570   9.8733   9.9643   9.9809  10.0071  10.0250  10.0672
    10.3706  10.3730  10.4266  10.4271  10.4277  10.5351  10.7309  10.7461
    10.7727  10.7789  10.8194  10.8605  10.8734  10.8902  10.9130  10.9386
    10.9617  10.9640  10.9675  11.0789  11.1072  11.1232  11.2074  11.2271
    11.2428  11.2596  11.3073  11.3374  11.5256  11.5280  11.6627  11.6660
    11.8454  11.8567  11.8752  11.8818  11.8944  11.9385  11.9895  11.9910
    12.0656  12.0681  12.2174  12.2891  12.3212  12.3224  12.3597  12.4252
    12.4827  12.4973  12.7563  12.8275  12.9019  12.9383  12.9865  13.1277
    13.1851  13.2969  13.6139  13.7598  13.8129  13.8948  13.9424  14.3252
    14.3709  14.4529  14.6169  14.7623  14.8133  14.9565  15.3727  15.5358
    16.1142  16.1454  16.8989  16.9380  16.9483  16.9507  17.0844  17.0911
    17.1337  17.1363  17.1437  17.1445  17.1694  17.1892  17.4560  17.4600
    17.4924  17.5292  17.8244  17.8528  17.8641  17.8796  18.1251  18.1340
    18.1863  18.2719  18.3090  18.3208  18.3634  18.3867  18.5722  18.6581
    19.7557  19.8459

          k = 0.2500-0.5000-0.0484 ( 13912 PWs)   bands (ev):

   -66.8084 -66.8046 -62.1522 -62.1520 -62.1516 -62.1513 -62.0545 -62.0541
   -35.5740 -35.5713 -35.5378 -35.5336 -35.5317 -35.5275 -30.9880 -30.9879
   -30.9875 -30.9873 -30.9799 -30.9797 -30.9794 -30.9791 -30.9732 -30.9729
   -30.9726 -30.9722 -30.8868 -30.8865 -30.8864 -30.8860 -30.8782 -30.8778
     8.4676   8.4686   8.4847   8.4850   8.7573   8.7574   8.8086   8.8088
     8.8152   8.8158   8.8688   8.8690   9.0441   9.0442   9.1580   9.1582
     9.2396   9.2397   9.3021   9.3023   9.3780   9.3786   9.4182   9.4183
     9.5744   9.5745   9.6176   9.6179   9.6982   9.6985   9.7381   9.7381
     9.8189   9.8190   9.9239   9.9241   9.9953   9.9955  10.0486  10.0487
    10.3716  10.3718  10.4267  10.4276  10.4764  10.4767  10.7542  10.7542
    10.7608  10.7609  10.8719  10.8721  10.8744  10.8748  10.8953  10.8954
    10.9531  10.9532  11.0377  11.0380  11.1212  11.1212  11.2225  11.2229
    11.2428  11.2429  11.3239  11.3257  11.5259  11.5280  11.6637  11.6650
    11.8502  11.8504  11.8791  11.8793  11.9157  11.9159  11.9902  11.9905
    12.0667  12.0672  12.2424  12.2426  12.3223  12.3225  12.4290  12.4292
    12.4580  12.4582  12.8162  12.8163  12.8806  12.8808  13.0712  13.0713
    13.2433  13.2437  13.6882  13.6883  13.8245  13.8246  14.1177  14.1179
    14.4735  14.4737  14.6669  14.6669  14.8845  14.8848  15.4633  15.4634
    16.1298  16.1304  16.9185  16.9189  16.9494  16.9496  17.0874  17.0876
    17.1392  17.1392  17.1394  17.1398  17.1790  17.1793  17.4579  17.4582
    17.5111  17.5112  17.8384  17.8386  17.8715  17.8718  18.1286  18.1286
    18.2213  18.2213  18.2854  18.2859  18.4849  18.4850  18.5291  18.5293
    19.9864  19.9865

          k = 0.3750 0.3750 0.0000 ( 13948 PWs)   bands (ev):

   -66.8079 -66.8041 -62.1524 -62.1522 -62.1518 -62.1515 -62.0547 -62.0543
   -35.5739 -35.5712 -35.5358 -35.5358 -35.5316 -35.5315 -30.9854 -30.9853
   -30.9852 -30.9850 -30.9849 -30.9847 -30.9846 -30.9844 -30.9730 -30.9728
   -30.9724 -30.9721 -30.8866 -30.8863 -30.8838 -30.8835 -30.8834 -30.8831
     8.1636   8.1878   8.4941   8.5169   8.5192   8.7006   8.7347   8.8409
     9.0411   9.0468   9.1155   9.1556   9.1767   9.2388   9.2709   9.3069
     9.3247   9.3357   9.3618   9.4186   9.4300   9.4743   9.5136   9.5251
     9.5275   9.5739   9.5911   9.6075   9.6903   9.7206   9.7289   9.9129
     9.9576   9.9775  10.0104  10.0294  10.0870  10.1241  10.1405  10.1433
    10.2242  10.2655  10.2750  10.4266  10.4435  10.5670  10.5751  10.5852
    10.5974  10.6861  10.7601  10.7646  10.8028  10.8288  10.8382  10.9247
    11.0482  11.0668  11.1691  11.1835  11.2004  11.2544  11.2750  11.3423
    11.4476  11.4832  11.4927  11.5302  11.5828  11.6009  11.6088  11.6179
    11.7569  11.8791  11.9024  11.9530  11.9636  11.9706  11.9733  12.0468
    12.0606  12.0708  12.0965  12.1531  12.1583  12.2307  12.2330  12.2437
    12.3822  12.4206  12.5277  12.6588  12.6675  12.9065  12.9933  13.1846
    13.3760  13.5125  13.9273  14.0873  14.3724  14.5895  14.7712  14.8977
    15.0979  15.1479  15.2360  15.3014  15.4254  15.4447  16.3266  16.3406
    16.4166  16.4651  16.9684  17.0388  17.0628  17.0834  17.1167  17.1279
    17.1592  17.1636  17.2707  17.3930  17.4182  17.4828  17.6402  17.7102
    17.8529  17.8739  17.8739  17.8804  17.9622  18.0433  18.1131  18.2079
    18.3311  18.3605  18.3830  18.4091  18.6006  18.8695  19.0095  19.0427
    19.0915  19.1037

          k = 0.3750 0.3750-0.0484 ( 13950 PWs)   bands (ev):

   -66.8079 -66.8041 -62.1524 -62.1522 -62.1518 -62.1515 -62.0547 -62.0543
   -35.5739 -35.5712 -35.5358 -35.5358 -35.5316 -35.5315 -30.9854 -30.9853
   -30.9852 -30.9850 -30.9849 -30.9847 -30.9846 -30.9844 -30.9730 -30.9728
   -30.9724 -30.9721 -30.8866 -30.8863 -30.8838 -30.8835 -30.8834 -30.8831
     8.1745   8.1752   8.4999   8.5005   8.5874   8.5876   8.8227   8.8229
     9.0484   9.0488   9.1122   9.1124   9.1964   9.1965   9.3075   9.3077
     9.3295   9.3296   9.4288   9.4289   9.4559   9.4561   9.4576   9.4577
     9.5671   9.5672   9.6115   9.6116   9.6738   9.6739   9.8566   9.8567
     9.9681   9.9682   9.9780   9.9788  10.1307  10.1308  10.1669  10.1670
    10.2405  10.2413  10.3091  10.3093  10.5229  10.5233  10.5623  10.5625
    10.6930  10.6931  10.7394  10.7395  10.8233  10.8238  10.8646  10.8648
    11.0572  11.0574  11.1810  11.1820  11.2428  11.2445  11.2934  11.2944
    11.4597  11.4600  11.5163  11.5167  11.5906  11.5914  11.6143  11.6154
    11.8017  11.8019  11.9571  11.9575  11.9725  11.9727  11.9831  11.9834
    12.0661  12.0662  12.1294  12.1295  12.1955  12.1956  12.2398  12.2400
    12.4036  12.4038  12.5641  12.5644  12.7959  12.7960  13.0997  13.0998
    13.4499  13.4501  14.0003  14.0004  14.4769  14.4771  14.8485  14.8486
    15.1181  15.1183  15.2721  15.2724  15.4361  15.4363  16.3333  16.3336
    16.4396  16.4400  17.0065  17.0067  17.0671  17.0672  17.1248  17.1252
    17.1614  17.1616  17.3242  17.3244  17.4496  17.4498  17.6824  17.6828
    17.8739  17.8739  17.9002  17.9006  17.9443  17.9446  18.2212  18.2215
    18.2378  18.2380  18.6181  18.6182  18.6372  18.6374  18.7607  18.7607
    19.1600  19.1602

          k = 0.3750-0.5000 0.0000 ( 13934 PWs)   bands (ev):

   -66.8080 -66.8042 -62.1521 -62.1519 -62.1516 -62.1513 -62.0545 -62.0541
   -35.5738 -35.5710 -35.5374 -35.5357 -35.5332 -35.5314 -30.9875 -30.9873
   -30.9870 -30.9867 -30.9851 -30.9849 -30.9846 -30.9843 -30.9729 -30.9726
   -30.9723 -30.9719 -30.8865 -30.8862 -30.8859 -30.8855 -30.8834 -30.8830
     8.2801   8.2902   8.3057   8.3317   8.6483   8.6860   8.7434   8.7856
     8.9534   9.0592   9.1340   9.1867   9.1877   9.1913   9.2109   9.2767
     9.2786   9.2980   9.3262   9.3746   9.3777   9.4133   9.4246   9.4837
     9.5124   9.5474   9.6217   9.6498   9.7074   9.7122   9.8807   9.9393
     9.9662   9.9852  10.0030  10.0037  10.0826  10.0938  10.1923  10.2278
    10.3214  10.3720  10.3779  10.4820  10.5518  10.5628  10.6372  10.7304
    10.7318  10.7407  10.7964  10.8665  10.8713  11.0866  11.0944  11.1125
    11.1723  11.2122  11.2234  11.3197  11.3638  11.3885  11.4688  11.5107
    11.5172  11.6465  11.6625  11.6887  11.7098  11.7452  11.7813  11.8225
    11.9302  11.9565  11.9852  11.9857  11.9937  12.0077  12.0843  12.1009
    12.1085  12.1131  12.1821  12.2022  12.2956  12.2989  12.2995  12.3623
    12.3679  12.4186  12.9300  13.0431  13.0511  13.1010  13.1810  13.2766
    13.6747  13.7201  14.1474  14.2300  14.3226  14.3671  14.4405  14.4410
    14.6600  14.6982  14.7215  14.7639  15.3914  15.3958  15.7380  15.7546
    16.7806  16.8115  17.0255  17.0621  17.0636  17.0731  17.0736  17.1025
    17.1051  17.2077  17.2677  17.3219  17.3376  17.6878  17.7603  17.8572
    17.9043  17.9341  18.0256  18.0364  18.0869  18.1096  18.1650  18.1920
    18.2053  18.4953  18.4987  18.5731  18.7623  18.7649  18.8883  18.9129
    18.9627  19.1801

          k = 0.3750-0.5000-0.0484 ( 13940 PWs)   bands (ev):

   -66.8080 -66.8042 -62.1521 -62.1519 -62.1516 -62.1513 -62.0545 -62.0541
   -35.5738 -35.5710 -35.5374 -35.5357 -35.5332 -35.5314 -30.9875 -30.9874
   -30.9870 -30.9867 -30.9851 -30.9849 -30.9846 -30.9843 -30.9729 -30.9726
   -30.9723 -30.9719 -30.8865 -30.8862 -30.8859 -30.8855 -30.8834 -30.8830
     8.2845   8.2856   8.3176   8.3179   8.7031   8.7033   8.7123   8.7125
     9.0687   9.0689   9.1035   9.1038   9.1899   9.1900   9.2140   9.2142
     9.3104   9.3106   9.3726   9.3727   9.3960   9.3962   9.4555   9.4557
     9.5357   9.5358   9.5993   9.5995   9.7659   9.7659   9.8416   9.8417
     9.9938   9.9943  10.0130  10.0136  10.1394  10.1396  10.1940  10.1943
    10.2602  10.2609  10.5096  10.5097  10.5747  10.5749  10.6401  10.6403
    10.7574  10.7576  10.7678  10.7680  11.0323  11.0330  11.0923  11.0929
    11.2155  11.2178  11.2403  11.2407  11.3799  11.3817  11.4873  11.4884
    11.5784  11.5786  11.6976  11.6977  11.7125  11.7127  11.8071  11.8071
    11.9434  11.9436  11.9881  11.9883  11.9961  11.9961  12.0938  12.0939
    12.1105  12.1111  12.1898  12.1901  12.2987  12.2988  12.3351  12.3352
    12.3885  12.3887  12.9816  12.9818  13.0720  13.0722  13.2387  13.2388
    13.6974  13.6978  14.1791  14.1792  14.3881  14.3883  14.4008  14.4010
    14.6940  14.6943  14.7339  14.7341  15.3936  15.3936  15.7464  15.7464
    16.7947  16.7952  17.0406  17.0408  17.0730  17.0735  17.0837  17.0841
    17.1651  17.1654  17.2415  17.2417  17.5470  17.5472  17.7924  17.7926
    17.9714  17.9715  17.9991  17.9993  18.1237  18.1238  18.1402  18.1406
    18.3354  18.3355  18.5434  18.5435  18.8321  18.8324  18.9250  18.9254
    18.9876  18.9877

          k =-0.5000-0.5000 0.0000 ( 13964 PWs)   bands (ev):

   -66.8080 -66.8042 -62.1520 -62.1518 -62.1514 -62.1511 -62.0543 -62.0539
   -35.5737 -35.5710 -35.5372 -35.5372 -35.5330 -35.5330 -30.9873 -30.9873
   -30.9871 -30.9871 -30.9868 -30.9868 -30.9865 -30.9865 -30.9728 -30.9725
   -30.9722 -30.9718 -30.8864 -30.8861 -30.8856 -30.8856 -30.8852 -30.8852
     8.1977   8.2078   8.2339   8.2572   8.6122   8.6362   8.7089   8.7787
     8.8702   8.9860   9.2052   9.2111   9.2148   9.2439   9.2582   9.2582
     9.2790   9.2790   9.3486   9.3486   9.4192   9.4477   9.4555   9.4555
     9.4742   9.4742   9.7105   9.7105   9.7132   9.7132   9.9248   9.9357
     9.9357   9.9369   9.9369   9.9672  10.0542  10.0542  10.0878  10.0878
    10.4821  10.4821  10.5220  10.5920  10.5920  10.6136  10.6175  10.6824
    10.6865  10.6978  10.9846  10.9846  11.1647  11.1662  11.1874  11.1874
    11.2863  11.2944  11.4016  11.4055  11.4817  11.4817  11.9079  11.9079
    11.9277  11.9277  11.9757  11.9764  11.9769  11.9776  12.0177  12.0177
    12.0338  12.0338  12.0390  12.0391  12.0831  12.0833  12.0835  12.0837
    12.1312  12.1313  12.1545  12.1570  12.2105  12.2274  12.2742  12.2763
    12.3195  12.3344  13.3939  13.4063  13.4094  13.4223  13.4398  13.4402
    13.9101  13.9101  14.0422  14.0422  14.2903  14.2903  14.4575  14.4575
    14.7161  14.7161  14.7707  14.7707  15.9175  15.9175  15.9209  15.9209
    16.6130  16.6331  16.7707  16.8817  16.8976  16.9057  17.0252  17.1792
    17.1792  17.2206  17.4049  17.4049  17.6292  17.6292  17.7566  17.7772
    17.8491  18.0961  18.0962  18.0963  18.0964  18.1391  18.1600  18.2151
    18.2158  18.2444  18.2979  18.2979  18.3018  18.4471  18.4471  18.6794
    18.7662  18.7834

          k =-0.5000-0.5000-0.0484 ( 13992 PWs)   bands (ev):

   -66.8080 -66.8042 -62.1520 -62.1518 -62.1514 -62.1511 -62.0543 -62.0539
   -35.5737 -35.5710 -35.5372 -35.5372 -35.5330 -35.5330 -30.9873 -30.9873
   -30.9871 -30.9871 -30.9868 -30.9868 -30.9865 -30.9865 -30.9728 -30.9725
   -30.9722 -30.9718 -30.8864 -30.8861 -30.8856 -30.8856 -30.8852 -30.8852
     8.2020   8.2032   8.2446   8.2450   8.6680   8.6682   8.6705   8.6707
     9.0189   9.0190   9.0693   9.0695   9.2664   9.2664   9.2666   9.2666
     9.3592   9.3594   9.3800   9.3804   9.3846   9.3846   9.3848   9.3848
     9.5745   9.5745   9.5746   9.5746   9.8768   9.8768   9.8771   9.8771
     9.9360   9.9360   9.9372   9.9372   9.9464   9.9480  10.2887  10.2887
    10.2889  10.2889  10.5511  10.5513  10.6742  10.6745  10.6844  10.6845
    10.7982  10.7982  10.7984  10.7984  11.1649  11.1659  11.2889  11.2919
    11.3562  11.3562  11.3564  11.3564  11.4016  11.4055  11.9277  11.9277
    11.9757  11.9764  11.9769  11.9776  11.9787  11.9787  11.9788  11.9788
    12.0177  12.0177  12.0390  12.0391  12.0831  12.0833  12.0835  12.0837
    12.1312  12.1313  12.1556  12.1559  12.2181  12.2186  12.2752  12.2753
    12.3274  12.3276  13.3978  13.3980  13.4180  13.4182  13.4398  13.4401
    13.9653  13.9653  13.9656  13.9656  14.3807  14.3807  14.3810  14.3810
    14.7472  14.7472  14.7475  14.7475  15.9191  15.9191  15.9192  15.9192
    16.6211  16.6222  16.8150  16.8152  16.9014  16.9018  17.1276  17.1282
    17.2563  17.2563  17.2565  17.2565  17.7970  17.7972  17.9058  17.9058
    17.9059  17.9059  17.9253  17.9255  18.0961  18.0962  18.0963  18.0964
    18.1971  18.1974  18.2151  18.2158  18.5326  18.5328  18.7750  18.7751
    18.9035  18.9035

     the Fermi energy is    15.2818 ev

!    total energy              =  -14694.00560107 Ry
     Harris-Foulkes estimate   =  -14694.00559979 Ry
     estimated scf accuracy    <       0.00000045 Ry

     total all-electron energy =   -626921.601323 Ry

     The total energy is the sum of the following terms:

     one-electron contribution =    -714.47773073 Ry
     hartree contribution      =     656.53731498 Ry
     xc contribution           =    -737.88200104 Ry
     ewald contribution        =   -2196.78933708 Ry
     Hubbard energy            =       0.44925704 Ry
     one-center paw contrib.   =  -11701.84310423 Ry

     total magnetization       =    17.51 Bohr mag/cell
     absolute magnetization    =    37.26 Bohr mag/cell

     convergence has been achieved in  39 iterations

     Writing output data file mnau2.save/
 
     init_run     :     30.38s CPU     30.89s WALL (       1 calls)
     electrons    :   2212.25s CPU   2280.90s WALL (       1 calls)

     Called by init_run:
     wfcinit      :     28.48s CPU     28.89s WALL (       1 calls)
     potinit      :      1.08s CPU      1.13s WALL (       1 calls)
     hinit0       :      0.43s CPU      0.45s WALL (       1 calls)

     Called by electrons:
     c_bands      :   1851.10s CPU   1882.52s WALL (      39 calls)
     sum_band     :    326.27s CPU    331.68s WALL (      39 calls)
     v_of_rho     :      2.86s CPU      2.88s WALL (      40 calls)
     newd         :      7.98s CPU      8.05s WALL (      40 calls)
     PAW_pot      :     23.69s CPU     23.98s WALL (      40 calls)
     mix_rho      :      0.81s CPU      0.83s WALL (      39 calls)

     Called by c_bands:
     init_us_2    :      4.59s CPU      4.63s WALL (    4800 calls)
     cegterg      :   1789.08s CPU   1819.65s WALL (    2340 calls)

     Called by sum_band:
     sum_band:bec :      1.47s CPU      1.47s WALL (    2340 calls)
     addusdens    :      7.48s CPU      7.57s WALL (      39 calls)

     Called by *egterg:
     h_psi        :   1181.02s CPU   1199.67s WALL (    6694 calls)
     s_psi        :     38.65s CPU     38.68s WALL (    6754 calls)
     g_psi        :      1.39s CPU      1.40s WALL (    4294 calls)
     cdiaghg      :    340.46s CPU    350.07s WALL (    6634 calls)

     Called by h_psi:
     h_psi:pot    :   1124.51s CPU   1142.40s WALL (    6694 calls)
     h_psi:calbec :     82.33s CPU     84.52s WALL (    6694 calls)
     vloc_psi     :   1004.86s CPU   1020.51s WALL (    6694 calls)
     add_vuspsi   :     37.27s CPU     37.33s WALL (    6694 calls)
     vhpsi        :     55.56s CPU     56.32s WALL (    6694 calls)

     General routines
     calbec       :    178.98s CPU    183.14s WALL (   18128 calls)
     fft          :      3.15s CPU      3.19s WALL (     996 calls)
     ffts         :      0.16s CPU      0.17s WALL (     158 calls)
     fftw         :   1239.86s CPU   1259.30s WALL ( 2141486 calls)
     interpolate  :      0.23s CPU      0.23s WALL (      80 calls)
     davcio       :      0.00s CPU      1.20s WALL (      60 calls)
 
     Parallel routines
     fft_scatt_xy :     21.45s CPU     21.62s WALL ( 2142640 calls)
     fft_scatt_yz :   1129.96s CPU   1148.43s WALL ( 2142640 calls)

     Hubbard U routines
     new_ns       :      6.91s CPU      7.12s WALL (      39 calls)
     vhpsi        :     55.56s CPU     56.32s WALL (    6694 calls)
 
     PWSCF        : 37m54.43s CPU    40m38.24s WALL

 
   This run was terminated on:  23:20:43   6Apr2019            

=------------------------------------------------------------------------------=
   JOB DONE.
=------------------------------------------------------------------------------=
