
     Program PWSCF v.6.3MaX starts on  6Apr2019 at 23:20:46 

     This program is part of the open-source Quantum ESPRESSO suite
     for quantum simulation of materials; please cite
         "P. Giannozzi et al., J. Phys.:Condens. Matter 21 395502 (2009);
         "P. Giannozzi et al., J. Phys.:Condens. Matter 29 465901 (2017);
          URL http://www.quantum-espresso.org", 
     in publications or presentations arising from this work. More details at
     http://www.quantum-espresso.org/quote

     Parallel version (MPI), running on    32 processors

     MPI processes distributed on     5 nodes
     R & G space division:  proc/nbgrp/npool/nimage =      32
     Waiting for input...
     Reading input from standard input

     Current dimensions of program PWSCF are:
     Max number of different atomic species (ntypx) = 10
     Max number of k-points (npk) =  40000
     Max angular momentum in pseudopotentials (lmaxx) =  3
               file Mn.pbe-spn-kjpaw_psl.0.3.1.UPF: wavefunction(s)  3P 3D renormalized
               file Mn.pbe-spn-kjpaw_psl.0.3.1.UPF: wavefunction(s)  3P 3D renormalized
               file Au.pbe-dn-kjpaw_psl.0.1.UPF: wavefunction(s)  6S 6P 5D renormalized

     Subspace diagonalization in iterative solution of the eigenvalue problem:
     one sub-group per band group will be used
     scalapack distributed-memory algorithm (size of sub-group:  4*  4 procs)

 
     Parallelization info
     --------------------
     sticks:   dense  smooth     PW     G-vecs:    dense   smooth      PW
     Min          41      18      5                11487     3460     563
     Max          42      19      6                11527     3505     606
     Sum        1313     593    177               368373   111379   18691
 


     bravais-lattice index     =            0
     lattice parameter (alat)  =       6.4153  a.u.
     unit-cell volume          =    2724.7774 (a.u.)^3
     number of atoms/cell      =           24
     number of atomic types    =            3
     number of electrons       =       296.00
     number of Kohn-Sham states=          178
     kinetic-energy cutoff     =      45.0000  Ry
     charge density cutoff     =     400.0000  Ry
     convergence threshold     =      1.0E-06
     mixing beta               =       0.1000
     number of iterations used =            8  plain     mixing
     Exchange-correlation      = SLA PW PBX PBC ( 1  4  3  4 0 0)

     celldm(1)=   6.415315  celldm(2)=   0.000000  celldm(3)=   0.000000
     celldm(4)=   0.000000  celldm(5)=   0.000000  celldm(6)=   0.000000

     crystal axes: (cart. coord. in units of alat)
               a(1) = (   1.000000   0.000000   0.000000 )  
               a(2) = (   0.000000   1.000000   0.000000 )  
               a(3) = (   0.000000   0.000000  10.319937 )  

     reciprocal axes: (cart. coord. in units 2 pi/alat)
               b(1) = (  1.000000  0.000000  0.000000 )  
               b(2) = (  0.000000  1.000000  0.000000 )  
               b(3) = (  0.000000  0.000000  0.096900 )  


     PseudoPot. # 1 for Mn read from file:
     ./pseudo/Mn.pbe-spn-kjpaw_psl.0.3.1.UPF
     MD5 check sum: 7b43a3fb0e93e198b8dd8488d8cf503e
     Pseudo is Projector augmented-wave + core cor, Zval = 15.0
     Generated using "atomic" code by A. Dal Corso v.5.0.99 svn rev. 10869
     Shape of augmentation charge: PSQ
     Using radial grid of 1187 points,  6 beta functions with: 
                l(1) =   0
                l(2) =   0
                l(3) =   1
                l(4) =   1
                l(5) =   2
                l(6) =   2
     Q(r) pseudized with 0 coefficients 


     PseudoPot. # 2 for Mn read from file:
     ./pseudo/Mn.pbe-spn-kjpaw_psl.0.3.1.UPF
     MD5 check sum: 7b43a3fb0e93e198b8dd8488d8cf503e
     Pseudo is Projector augmented-wave + core cor, Zval = 15.0
     Generated using "atomic" code by A. Dal Corso v.5.0.99 svn rev. 10869
     Shape of augmentation charge: PSQ
     Using radial grid of 1187 points,  6 beta functions with: 
                l(1) =   0
                l(2) =   0
                l(3) =   1
                l(4) =   1
                l(5) =   2
                l(6) =   2
     Q(r) pseudized with 0 coefficients 


     PseudoPot. # 3 for Au read from file:
     ./pseudo/Au.pbe-dn-kjpaw_psl.0.1.UPF
     MD5 check sum: be11e2e8e535ebe2b3ccfb4f88f554cb
     Pseudo is Projector augmented-wave + core cor, Zval = 11.0
     Generated using "atomic" code by A. Dal Corso v.5.0.2 svn rev. 9415
     Shape of augmentation charge: PSQ
     Using radial grid of 1279 points,  6 beta functions with: 
                l(1) =   0
                l(2) =   0
                l(3) =   1
                l(4) =   1
                l(5) =   2
                l(6) =   2
     Q(r) pseudized with 0 coefficients 


     atomic species   valence    mass     pseudopotential
        Mn1           15.00    54.93800     Mn( 1.00)
        Mn2           15.00    54.93800     Mn( 1.00)
        Au            11.00   196.96600     Au( 1.00)

     Starting magnetic structure 
     atomic species   magnetization
        Mn1          0.800
        Mn2         -0.800
        Au           0.000


     Full LDA+U calculation (l_max = 2) with parameters (eV):
     U(  1) =   3.1200   J(  1) =   0.7000   B(  1) =   0.0803
     U(  2) =   3.1200   J(  2) =   0.7000   B(  2) =   0.0803



      8 Sym. Ops. (no inversion) found



   Cartesian axes

     site n.     atom                  positions (alat units)
         1           Mn1 tau(   1) = (   0.0000000   0.0000000   0.0000000  )
         2           Mn1 tau(   2) = (   0.5000000   0.5000000   1.2899921  )
         3           Mn1 tau(   3) = (   0.0000000   0.0000000   2.5799843  )
         4           Mn2 tau(   4) = (   0.5000000   0.5000000   3.8699764  )
         5           Mn1 tau(   5) = (   0.0000000   0.0000000   5.1599686  )
         6           Mn1 tau(   6) = (   0.5000000   0.5000000   6.4499607  )
         7           Mn2 tau(   7) = (   0.0000000   0.0000000   7.7399528  )
         8           Mn2 tau(   8) = (   0.5000000   0.5000000   9.0299450  )
         9           Au  tau(   9) = (   0.5000000   0.5000000   0.4127975  )
        10           Au  tau(  10) = (   0.0000000   0.0000000   0.8771947  )
        11           Au  tau(  11) = (   0.0000000   0.0000000   1.7027896  )
        12           Au  tau(  12) = (   0.5000000   0.5000000   2.1671868  )
        13           Au  tau(  13) = (   0.5000000   0.5000000   2.9927818  )
        14           Au  tau(  14) = (   0.0000000   0.0000000   3.4571789  )
        15           Au  tau(  15) = (   0.0000000   0.0000000   4.2827739  )
        16           Au  tau(  16) = (   0.5000000   0.5000000   4.7471711  )
        17           Au  tau(  17) = (   0.5000000   0.5000000   5.5727660  )
        18           Au  tau(  18) = (   0.0000000   0.0000000   6.0371632  )
        19           Au  tau(  19) = (   0.0000000   0.0000000   6.8627582  )
        20           Au  tau(  20) = (   0.5000000   0.5000000   7.3271553  )
        21           Au  tau(  21) = (   0.5000000   0.5000000   8.1527503  )
        22           Au  tau(  22) = (   0.0000000   0.0000000   8.6171475  )
        23           Au  tau(  23) = (   0.0000000   0.0000000   9.4427424  )
        24           Au  tau(  24) = (   0.5000000   0.5000000   9.9071396  )

     number of k points=    30 (tetrahedron method)
                       cart. coord. in units 2pi/alat
        k(    1) = (   0.0000000   0.0000000   0.0000000), wk =   0.0078125
        k(    2) = (   0.0000000   0.0000000  -0.0484499), wk =   0.0078125
        k(    3) = (   0.0000000   0.1250000   0.0000000), wk =   0.0312500
        k(    4) = (   0.0000000   0.1250000  -0.0484499), wk =   0.0312500
        k(    5) = (   0.0000000   0.2500000   0.0000000), wk =   0.0312500
        k(    6) = (   0.0000000   0.2500000  -0.0484499), wk =   0.0312500
        k(    7) = (   0.0000000   0.3750000   0.0000000), wk =   0.0312500
        k(    8) = (   0.0000000   0.3750000  -0.0484499), wk =   0.0312500
        k(    9) = (   0.0000000  -0.5000000   0.0000000), wk =   0.0156250
        k(   10) = (   0.0000000  -0.5000000  -0.0484499), wk =   0.0156250
        k(   11) = (   0.1250000   0.1250000   0.0000000), wk =   0.0312500
        k(   12) = (   0.1250000   0.1250000  -0.0484499), wk =   0.0312500
        k(   13) = (   0.1250000   0.2500000   0.0000000), wk =   0.0625000
        k(   14) = (   0.1250000   0.2500000  -0.0484499), wk =   0.0625000
        k(   15) = (   0.1250000   0.3750000   0.0000000), wk =   0.0625000
        k(   16) = (   0.1250000   0.3750000  -0.0484499), wk =   0.0625000
        k(   17) = (   0.1250000  -0.5000000   0.0000000), wk =   0.0312500
        k(   18) = (   0.1250000  -0.5000000  -0.0484499), wk =   0.0312500
        k(   19) = (   0.2500000   0.2500000   0.0000000), wk =   0.0312500
        k(   20) = (   0.2500000   0.2500000  -0.0484499), wk =   0.0312500
        k(   21) = (   0.2500000   0.3750000   0.0000000), wk =   0.0625000
        k(   22) = (   0.2500000   0.3750000  -0.0484499), wk =   0.0625000
        k(   23) = (   0.2500000  -0.5000000   0.0000000), wk =   0.0312500
        k(   24) = (   0.2500000  -0.5000000  -0.0484499), wk =   0.0312500
        k(   25) = (   0.3750000   0.3750000   0.0000000), wk =   0.0312500
        k(   26) = (   0.3750000   0.3750000  -0.0484499), wk =   0.0312500
        k(   27) = (   0.3750000  -0.5000000   0.0000000), wk =   0.0312500
        k(   28) = (   0.3750000  -0.5000000  -0.0484499), wk =   0.0312500
        k(   29) = (  -0.5000000  -0.5000000   0.0000000), wk =   0.0078125
        k(   30) = (  -0.5000000  -0.5000000  -0.0484499), wk =   0.0078125

     Dense  grid:   368373 G-vectors     FFT dimensions: (  45,  45, 432)

     Smooth grid:   111379 G-vectors     FFT dimensions: (  27,  27, 288)

     Estimated max dynamical RAM per process >     143.50 MB

     Estimated total dynamical RAM >       4.48 GB
     Generating pointlists ...
     new r_m :   0.3377 (alat units)  2.1668 (a.u.) for type    1
     new r_m :   0.3377 (alat units)  2.1668 (a.u.) for type    2
     new r_m :   0.3377 (alat units)  2.1668 (a.u.) for type    3

     Check: negative/imaginary core charge=   -0.000006    0.000000

     Initial potential from superposition of free atoms

     starting charge  295.99426, renormalised to  296.00000
     Number of +U iterations with fixed ns =  0
     Starting occupations:
 --- enter write_ns ---
 LDA+U parameters:
U(  1) =   3.1200   J(  1) =   0.7000   B(  1) =   0.0803
U(  2) =   3.1200   J(  2) =   0.7000   B(  2) =   0.0803
atom    1   Tr[ns(na)] (up, down, total) =   5.00000  0.00000  5.00000
   spin  1
    eigenvalues: 
  1.000  1.000  1.000  1.000  1.000
    eigenvectors:
  1.000  0.000  0.000  0.000  0.000
  0.000  1.000  0.000  0.000  0.000
  0.000  0.000  1.000  0.000  0.000
  0.000  0.000  0.000  1.000  0.000
  0.000  0.000  0.000  0.000  1.000
    occupations:
  1.000  0.000  0.000  0.000  0.000
  0.000  1.000  0.000  0.000  0.000
  0.000  0.000  1.000  0.000  0.000
  0.000  0.000  0.000  1.000  0.000
  0.000  0.000  0.000  0.000  1.000
   spin  2
    eigenvalues: 
  0.000  0.000  0.000  0.000  0.000
    eigenvectors:
  1.000  0.000  0.000  0.000  0.000
  0.000  1.000  0.000  0.000  0.000
  0.000  0.000  1.000  0.000  0.000
  0.000  0.000  0.000  1.000  0.000
  0.000  0.000  0.000  0.000  1.000
    occupations:
  0.000  0.000  0.000  0.000  0.000
  0.000  0.000  0.000  0.000  0.000
  0.000  0.000  0.000  0.000  0.000
  0.000  0.000  0.000  0.000  0.000
  0.000  0.000  0.000  0.000  0.000
atomic mag. moment =     5.000000
atom    2   Tr[ns(na)] (up, down, total) =   5.00000  0.00000  5.00000
   spin  1
    eigenvalues: 
  1.000  1.000  1.000  1.000  1.000
    eigenvectors:
  1.000  0.000  0.000  0.000  0.000
  0.000  1.000  0.000  0.000  0.000
  0.000  0.000  1.000  0.000  0.000
  0.000  0.000  0.000  1.000  0.000
  0.000  0.000  0.000  0.000  1.000
    occupations:
  1.000  0.000  0.000  0.000  0.000
  0.000  1.000  0.000  0.000  0.000
  0.000  0.000  1.000  0.000  0.000
  0.000  0.000  0.000  1.000  0.000
  0.000  0.000  0.000  0.000  1.000
   spin  2
    eigenvalues: 
  0.000  0.000  0.000  0.000  0.000
    eigenvectors:
  1.000  0.000  0.000  0.000  0.000
  0.000  1.000  0.000  0.000  0.000
  0.000  0.000  1.000  0.000  0.000
  0.000  0.000  0.000  1.000  0.000
  0.000  0.000  0.000  0.000  1.000
    occupations:
  0.000  0.000  0.000  0.000  0.000
  0.000  0.000  0.000  0.000  0.000
  0.000  0.000  0.000  0.000  0.000
  0.000  0.000  0.000  0.000  0.000
  0.000  0.000  0.000  0.000  0.000
atomic mag. moment =     5.000000
atom    3   Tr[ns(na)] (up, down, total) =   5.00000  0.00000  5.00000
   spin  1
    eigenvalues: 
  1.000  1.000  1.000  1.000  1.000
    eigenvectors:
  1.000  0.000  0.000  0.000  0.000
  0.000  1.000  0.000  0.000  0.000
  0.000  0.000  1.000  0.000  0.000
  0.000  0.000  0.000  1.000  0.000
  0.000  0.000  0.000  0.000  1.000
    occupations:
  1.000  0.000  0.000  0.000  0.000
  0.000  1.000  0.000  0.000  0.000
  0.000  0.000  1.000  0.000  0.000
  0.000  0.000  0.000  1.000  0.000
  0.000  0.000  0.000  0.000  1.000
   spin  2
    eigenvalues: 
  0.000  0.000  0.000  0.000  0.000
    eigenvectors:
  1.000  0.000  0.000  0.000  0.000
  0.000  1.000  0.000  0.000  0.000
  0.000  0.000  1.000  0.000  0.000
  0.000  0.000  0.000  1.000  0.000
  0.000  0.000  0.000  0.000  1.000
    occupations:
  0.000  0.000  0.000  0.000  0.000
  0.000  0.000  0.000  0.000  0.000
  0.000  0.000  0.000  0.000  0.000
  0.000  0.000  0.000  0.000  0.000
  0.000  0.000  0.000  0.000  0.000
atomic mag. moment =     5.000000
atom    4   Tr[ns(na)] (up, down, total) =   0.00000  5.00000  5.00000
   spin  1
    eigenvalues: 
  0.000  0.000  0.000  0.000  0.000
    eigenvectors:
  1.000  0.000  0.000  0.000  0.000
  0.000  1.000  0.000  0.000  0.000
  0.000  0.000  1.000  0.000  0.000
  0.000  0.000  0.000  1.000  0.000
  0.000  0.000  0.000  0.000  1.000
    occupations:
  0.000  0.000  0.000  0.000  0.000
  0.000  0.000  0.000  0.000  0.000
  0.000  0.000  0.000  0.000  0.000
  0.000  0.000  0.000  0.000  0.000
  0.000  0.000  0.000  0.000  0.000
   spin  2
    eigenvalues: 
  1.000  1.000  1.000  1.000  1.000
    eigenvectors:
  1.000  0.000  0.000  0.000  0.000
  0.000  1.000  0.000  0.000  0.000
  0.000  0.000  1.000  0.000  0.000
  0.000  0.000  0.000  1.000  0.000
  0.000  0.000  0.000  0.000  1.000
    occupations:
  1.000  0.000  0.000  0.000  0.000
  0.000  1.000  0.000  0.000  0.000
  0.000  0.000  1.000  0.000  0.000
  0.000  0.000  0.000  1.000  0.000
  0.000  0.000  0.000  0.000  1.000
atomic mag. moment =    -5.000000
atom    5   Tr[ns(na)] (up, down, total) =   5.00000  0.00000  5.00000
   spin  1
    eigenvalues: 
  1.000  1.000  1.000  1.000  1.000
    eigenvectors:
  1.000  0.000  0.000  0.000  0.000
  0.000  1.000  0.000  0.000  0.000
  0.000  0.000  1.000  0.000  0.000
  0.000  0.000  0.000  1.000  0.000
  0.000  0.000  0.000  0.000  1.000
    occupations:
  1.000  0.000  0.000  0.000  0.000
  0.000  1.000  0.000  0.000  0.000
  0.000  0.000  1.000  0.000  0.000
  0.000  0.000  0.000  1.000  0.000
  0.000  0.000  0.000  0.000  1.000
   spin  2
    eigenvalues: 
  0.000  0.000  0.000  0.000  0.000
    eigenvectors:
  1.000  0.000  0.000  0.000  0.000
  0.000  1.000  0.000  0.000  0.000
  0.000  0.000  1.000  0.000  0.000
  0.000  0.000  0.000  1.000  0.000
  0.000  0.000  0.000  0.000  1.000
    occupations:
  0.000  0.000  0.000  0.000  0.000
  0.000  0.000  0.000  0.000  0.000
  0.000  0.000  0.000  0.000  0.000
  0.000  0.000  0.000  0.000  0.000
  0.000  0.000  0.000  0.000  0.000
atomic mag. moment =     5.000000
atom    6   Tr[ns(na)] (up, down, total) =   5.00000  0.00000  5.00000
   spin  1
    eigenvalues: 
  1.000  1.000  1.000  1.000  1.000
    eigenvectors:
  1.000  0.000  0.000  0.000  0.000
  0.000  1.000  0.000  0.000  0.000
  0.000  0.000  1.000  0.000  0.000
  0.000  0.000  0.000  1.000  0.000
  0.000  0.000  0.000  0.000  1.000
    occupations:
  1.000  0.000  0.000  0.000  0.000
  0.000  1.000  0.000  0.000  0.000
  0.000  0.000  1.000  0.000  0.000
  0.000  0.000  0.000  1.000  0.000
  0.000  0.000  0.000  0.000  1.000
   spin  2
    eigenvalues: 
  0.000  0.000  0.000  0.000  0.000
    eigenvectors:
  1.000  0.000  0.000  0.000  0.000
  0.000  1.000  0.000  0.000  0.000
  0.000  0.000  1.000  0.000  0.000
  0.000  0.000  0.000  1.000  0.000
  0.000  0.000  0.000  0.000  1.000
    occupations:
  0.000  0.000  0.000  0.000  0.000
  0.000  0.000  0.000  0.000  0.000
  0.000  0.000  0.000  0.000  0.000
  0.000  0.000  0.000  0.000  0.000
  0.000  0.000  0.000  0.000  0.000
atomic mag. moment =     5.000000
atom    7   Tr[ns(na)] (up, down, total) =   0.00000  5.00000  5.00000
   spin  1
    eigenvalues: 
  0.000  0.000  0.000  0.000  0.000
    eigenvectors:
  1.000  0.000  0.000  0.000  0.000
  0.000  1.000  0.000  0.000  0.000
  0.000  0.000  1.000  0.000  0.000
  0.000  0.000  0.000  1.000  0.000
  0.000  0.000  0.000  0.000  1.000
    occupations:
  0.000  0.000  0.000  0.000  0.000
  0.000  0.000  0.000  0.000  0.000
  0.000  0.000  0.000  0.000  0.000
  0.000  0.000  0.000  0.000  0.000
  0.000  0.000  0.000  0.000  0.000
   spin  2
    eigenvalues: 
  1.000  1.000  1.000  1.000  1.000
    eigenvectors:
  1.000  0.000  0.000  0.000  0.000
  0.000  1.000  0.000  0.000  0.000
  0.000  0.000  1.000  0.000  0.000
  0.000  0.000  0.000  1.000  0.000
  0.000  0.000  0.000  0.000  1.000
    occupations:
  1.000  0.000  0.000  0.000  0.000
  0.000  1.000  0.000  0.000  0.000
  0.000  0.000  1.000  0.000  0.000
  0.000  0.000  0.000  1.000  0.000
  0.000  0.000  0.000  0.000  1.000
atomic mag. moment =    -5.000000
atom    8   Tr[ns(na)] (up, down, total) =   0.00000  5.00000  5.00000
   spin  1
    eigenvalues: 
  0.000  0.000  0.000  0.000  0.000
    eigenvectors:
  1.000  0.000  0.000  0.000  0.000
  0.000  1.000  0.000  0.000  0.000
  0.000  0.000  1.000  0.000  0.000
  0.000  0.000  0.000  1.000  0.000
  0.000  0.000  0.000  0.000  1.000
    occupations:
  0.000  0.000  0.000  0.000  0.000
  0.000  0.000  0.000  0.000  0.000
  0.000  0.000  0.000  0.000  0.000
  0.000  0.000  0.000  0.000  0.000
  0.000  0.000  0.000  0.000  0.000
   spin  2
    eigenvalues: 
  1.000  1.000  1.000  1.000  1.000
    eigenvectors:
  1.000  0.000  0.000  0.000  0.000
  0.000  1.000  0.000  0.000  0.000
  0.000  0.000  1.000  0.000  0.000
  0.000  0.000  0.000  1.000  0.000
  0.000  0.000  0.000  0.000  1.000
    occupations:
  1.000  0.000  0.000  0.000  0.000
  0.000  1.000  0.000  0.000  0.000
  0.000  0.000  1.000  0.000  0.000
  0.000  0.000  0.000  1.000  0.000
  0.000  0.000  0.000  0.000  1.000
atomic mag. moment =    -5.000000
N of occupied +U levels =   40.000000
 --- exit write_ns ---
 Atomic wfc used for LDA+U Projector are NOT orthogonalized
     Starting wfcs are  224 randomized atomic wfcs
     Checking if some PAW data can be deallocated... 

     total cpu time spent up to now is       33.1 secs

     Self-consistent Calculation

     iteration #  1     ecut=    45.00 Ry     beta= 0.10
     Davidson diagonalization with overlap
     ethr =  1.00E-02,  avg # of iterations =  4.1
 --- enter write_ns ---
 LDA+U parameters:
U(  1) =   3.1200   J(  1) =   0.7000   B(  1) =   0.0803
U(  2) =   3.1200   J(  2) =   0.7000   B(  2) =   0.0803
atom    1   Tr[ns(na)] (up, down, total) =   5.01741  0.40638  5.42379
   spin  1
    eigenvalues: 
  1.003  1.003  1.003  1.004  1.004
    eigenvectors:
  0.000  0.000  0.000  1.000  0.000
  0.000  0.112  0.888  0.000  0.000
  0.000  0.888  0.112  0.000  0.000
  0.000  0.000  0.000  0.000  1.000
  1.000  0.000  0.000  0.000  0.000
    occupations:
  1.004 -0.000 -0.000  0.000  0.000
 -0.000  1.003 -0.000  0.000  0.000
 -0.000 -0.000  1.003  0.000  0.000
  0.000  0.000  0.000  1.004 -0.000
  0.000  0.000  0.000 -0.000  1.003
   spin  2
    eigenvalues: 
  0.052  0.074  0.080  0.080  0.120
    eigenvectors:
  0.000  1.000  0.000  0.000  0.000
  0.000  0.000  0.157  0.843  0.000
  0.000  0.000  0.843  0.157  0.000
  1.000  0.000  0.000  0.000  0.000
  0.000  0.000  0.000  0.000  1.000
    occupations:
  0.074 -0.000 -0.000  0.000  0.000
 -0.000  0.080 -0.000  0.000  0.000
 -0.000 -0.000  0.080  0.000  0.000
  0.000  0.000  0.000  0.052 -0.000
  0.000  0.000  0.000 -0.000  0.120
atomic mag. moment =     4.611037
atom    2   Tr[ns(na)] (up, down, total) =   5.01761  0.39926  5.41687
   spin  1
    eigenvalues: 
  1.003  1.003  1.003  1.004  1.004
    eigenvectors:
  0.000  0.000  0.000  1.000  0.000
  0.000  0.130  0.870  0.000  0.000
  0.000  0.870  0.130  0.000  0.000
  0.000  0.000  0.000  0.000  1.000
  1.000  0.000  0.000  0.000  0.000
    occupations:
  1.004 -0.000 -0.000  0.000  0.000
 -0.000  1.003 -0.000  0.000  0.000
 -0.000 -0.000  1.003  0.000  0.000
  0.000  0.000  0.000  1.004 -0.000
  0.000  0.000  0.000 -0.000  1.003
   spin  2
    eigenvalues: 
  0.053  0.075  0.081  0.081  0.109
    eigenvectors:
  0.000  1.000  0.000  0.000  0.000
  0.000  0.000  0.188  0.812  0.000
  0.000  0.000  0.812  0.188  0.000
  1.000  0.000  0.000  0.000  0.000
  0.000  0.000  0.000  0.000  1.000
    occupations:
  0.075 -0.000 -0.000  0.000  0.000
 -0.000  0.081 -0.000  0.000  0.000
 -0.000 -0.000  0.081  0.000  0.000
  0.000  0.000  0.000  0.053 -0.000
  0.000  0.000  0.000 -0.000  0.109
atomic mag. moment =     4.618353
atom    3   Tr[ns(na)] (up, down, total) =   5.01743  0.40570  5.42313
   spin  1
    eigenvalues: 
  1.003  1.003  1.003  1.004  1.004
    eigenvectors:
  0.000  0.000  0.000  1.000  0.000
  0.000  0.134  0.866  0.000  0.000
  0.000  0.866  0.134  0.000  0.000
  0.000  0.000  0.000  0.000  1.000
  1.000  0.000  0.000  0.000  0.000
    occupations:
  1.004 -0.000 -0.000  0.000  0.000
 -0.000  1.003 -0.000  0.000  0.000
 -0.000 -0.000  1.003  0.000  0.000
  0.000  0.000  0.000  1.004 -0.000
  0.000  0.000  0.000 -0.000  1.003
   spin  2
    eigenvalues: 
  0.053  0.071  0.080  0.080  0.121
    eigenvectors:
  0.000  1.000  0.000  0.000  0.000
  0.000  0.000  0.168  0.832  0.000
  0.000  0.000  0.832  0.168  0.000
  1.000  0.000  0.000  0.000  0.000
  0.000  0.000  0.000  0.000  1.000
    occupations:
  0.071 -0.000 -0.000  0.000  0.000
 -0.000  0.080 -0.000  0.000  0.000
 -0.000 -0.000  0.080  0.000  0.000
  0.000  0.000  0.000  0.053 -0.000
  0.000  0.000  0.000 -0.000  0.121
atomic mag. moment =     4.611727
atom    4   Tr[ns(na)] (up, down, total) =   0.41480  5.01725  5.43205
   spin  1
    eigenvalues: 
  0.053  0.075  0.081  0.081  0.125
    eigenvectors:
  0.000  1.000  0.000  0.000  0.000
  0.000  0.000  0.113  0.887  0.000
  0.000  0.000  0.887  0.113  0.000
  1.000  0.000  0.000  0.000  0.000
  0.000  0.000  0.000  0.000  1.000
    occupations:
  0.075 -0.000 -0.000  0.000  0.000
 -0.000  0.081 -0.000  0.000  0.000
 -0.000 -0.000  0.081  0.000  0.000
  0.000  0.000  0.000  0.053 -0.000
  0.000  0.000  0.000 -0.000  0.125
   spin  2
    eigenvalues: 
  1.003  1.003  1.003  1.004  1.004
    eigenvectors:
  0.000  0.000  0.000  1.000  0.000
  0.000  0.141  0.859  0.000  0.000
  0.000  0.859  0.141  0.000  0.000
  0.000  0.000  0.000  0.000  1.000
  1.000  0.000  0.000  0.000  0.000
    occupations:
  1.004 -0.000 -0.000  0.000  0.000
 -0.000  1.003 -0.000  0.000  0.000
 -0.000 -0.000  1.003  0.000  0.000
  0.000  0.000  0.000  1.004 -0.000
  0.000  0.000  0.000 -0.000  1.003
atomic mag. moment =    -4.602444
atom    5   Tr[ns(na)] (up, down, total) =   5.01743  0.41312  5.43056
   spin  1
    eigenvalues: 
  1.003  1.003  1.003  1.004  1.004
    eigenvectors:
  0.000  0.000  0.000  1.000  0.000
  0.000  0.168  0.832  0.000  0.000
  0.000  0.832  0.168  0.000  0.000
  0.000  0.000  0.000  0.000  1.000
  1.000  0.000  0.000  0.000  0.000
    occupations:
  1.004 -0.000 -0.000  0.000  0.000
 -0.000  1.003 -0.000  0.000  0.000
 -0.000 -0.000  1.003  0.000  0.000
  0.000  0.000  0.000  1.004 -0.000
  0.000  0.000  0.000 -0.000  1.003
   spin  2
    eigenvalues: 
  0.053  0.074  0.082  0.082  0.123
    eigenvectors:
  0.000  1.000  0.000  0.000  0.000
  0.000  0.000  0.136  0.864  0.000
  0.000  0.000  0.864  0.136  0.000
  1.000  0.000  0.000  0.000  0.000
  0.000  0.000  0.000  0.000  1.000
    occupations:
  0.074 -0.000 -0.000  0.000  0.000
 -0.000  0.082 -0.000  0.000  0.000
 -0.000 -0.000  0.082  0.000  0.000
  0.000  0.000  0.000  0.053 -0.000
  0.000  0.000  0.000 -0.000  0.123
atomic mag. moment =     4.604309
atom    6   Tr[ns(na)] (up, down, total) =   5.01755  0.41358  5.43113
   spin  1
    eigenvalues: 
  1.003  1.003  1.003  1.004  1.004
    eigenvectors:
  0.000  0.000  0.000  1.000  0.000
  0.000  0.089  0.911  0.000  0.000
  0.000  0.911  0.089  0.000  0.000
  0.000  0.000  0.000  0.000  1.000
  1.000  0.000  0.000  0.000  0.000
    occupations:
  1.004 -0.000 -0.000  0.000  0.000
 -0.000  1.003 -0.000  0.000  0.000
 -0.000 -0.000  1.003  0.000  0.000
  0.000  0.000  0.000  1.004 -0.000
  0.000  0.000  0.000 -0.000  1.003
   spin  2
    eigenvalues: 
  0.053  0.075  0.082  0.082  0.122
    eigenvectors:
  0.000  1.000  0.000  0.000  0.000
  0.000  0.000  0.148  0.852  0.000
  0.000  0.000  0.852  0.148  0.000
  1.000  0.000  0.000  0.000  0.000
  0.000  0.000  0.000  0.000  1.000
    occupations:
  0.075 -0.000 -0.000  0.000  0.000
 -0.000  0.082 -0.000  0.000  0.000
 -0.000 -0.000  0.082  0.000  0.000
  0.000  0.000  0.000  0.053 -0.000
  0.000  0.000  0.000 -0.000  0.122
atomic mag. moment =     4.603967
atom    7   Tr[ns(na)] (up, down, total) =   0.41402  5.01757  5.43159
   spin  1
    eigenvalues: 
  0.053  0.075  0.082  0.082  0.121
    eigenvectors:
  0.000  1.000  0.000  0.000  0.000
  0.000  0.000  0.163  0.837  0.000
  0.000  0.000  0.837  0.163  0.000
  1.000  0.000  0.000  0.000  0.000
  0.000  0.000  0.000  0.000  1.000
    occupations:
  0.075 -0.000 -0.000  0.000  0.000
 -0.000  0.082 -0.000  0.000  0.000
 -0.000 -0.000  0.082  0.000  0.000
  0.000  0.000  0.000  0.053 -0.000
  0.000  0.000  0.000 -0.000  0.121
   spin  2
    eigenvalues: 
  1.003  1.003  1.003  1.004  1.004
    eigenvectors:
  0.000  0.000  0.000  1.000  0.000
  0.000  0.113  0.887  0.000  0.000
  0.000  0.887  0.113  0.000  0.000
  0.000  0.000  0.000  0.000  1.000
  1.000  0.000  0.000  0.000  0.000
    occupations:
  1.004 -0.000 -0.000  0.000  0.000
 -0.000  1.003 -0.000  0.000  0.000
 -0.000 -0.000  1.003  0.000  0.000
  0.000  0.000  0.000  1.004 -0.000
  0.000  0.000  0.000 -0.000  1.003
atomic mag. moment =    -4.603554
atom    8   Tr[ns(na)] (up, down, total) =   0.41305  5.01748  5.43053
   spin  1
    eigenvalues: 
  0.053  0.075  0.082  0.082  0.120
    eigenvectors:
  0.000  1.000  0.000  0.000  0.000
  0.000  0.000  0.138  0.862  0.000
  0.000  0.000  0.862  0.138  0.000
  1.000  0.000  0.000  0.000  0.000
  0.000  0.000  0.000  0.000  1.000
    occupations:
  0.075 -0.000 -0.000  0.000  0.000
 -0.000  0.082 -0.000  0.000  0.000
 -0.000 -0.000  0.082  0.000  0.000
  0.000  0.000  0.000  0.053 -0.000
  0.000  0.000  0.000 -0.000  0.120
   spin  2
    eigenvalues: 
  1.003  1.003  1.003  1.004  1.004
    eigenvectors:
  0.000  0.000  0.000  1.000  0.000
  0.000  0.088  0.912  0.000  0.000
  0.000  0.912  0.088  0.000  0.000
  0.000  0.000  0.000  0.000  1.000
  1.000  0.000  0.000  0.000  0.000
    occupations:
  1.004 -0.000 -0.000  0.000  0.000
 -0.000  1.003 -0.000  0.000  0.000
 -0.000 -0.000  1.003  0.000  0.000
  0.000  0.000  0.000  1.004 -0.000
  0.000  0.000  0.000 -0.000  1.003
atomic mag. moment =    -4.604429
N of occupied +U levels =   43.419640
 --- exit write_ns ---

     total cpu time spent up to now is      122.4 secs

     total energy              =  -14687.27646526 Ry
     Harris-Foulkes estimate   =  -14685.81626431 Ry
     estimated scf accuracy    <      11.56753025 Ry

     total magnetization       =    10.10 Bohr mag/cell
     absolute magnetization    =    41.52 Bohr mag/cell

     iteration #  2     ecut=    45.00 Ry     beta= 0.10
     Davidson diagonalization with overlap
     ethr =  3.91E-03,  avg # of iterations =  1.0

     total cpu time spent up to now is      183.1 secs

     total energy              =  -14688.75630782 Ry
     Harris-Foulkes estimate   =  -14687.35463069 Ry
     estimated scf accuracy    <       9.95208004 Ry

     total magnetization       =     9.95 Bohr mag/cell
     absolute magnetization    =    41.19 Bohr mag/cell

     iteration #  3     ecut=    45.00 Ry     beta= 0.10
     Davidson diagonalization with overlap
     ethr =  3.36E-03,  avg # of iterations =  3.8

     total cpu time spent up to now is      261.2 secs

     total energy              =  -14692.07005312 Ry
     Harris-Foulkes estimate   =  -14689.99634594 Ry
     estimated scf accuracy    <     111.21348013 Ry

     total magnetization       =    10.11 Bohr mag/cell
     absolute magnetization    =    40.72 Bohr mag/cell

     iteration #  4     ecut=    45.00 Ry     beta= 0.10
     Davidson diagonalization with overlap
     ethr =  3.36E-03,  avg # of iterations =  3.1

     total cpu time spent up to now is      338.4 secs

     total energy              =  -14694.32714668 Ry
     Harris-Foulkes estimate   =  -14694.16234573 Ry
     estimated scf accuracy    <       4.45802661 Ry

     total magnetization       =     9.26 Bohr mag/cell
     absolute magnetization    =    38.50 Bohr mag/cell

     iteration #  5     ecut=    45.00 Ry     beta= 0.10
     Davidson diagonalization with overlap
     ethr =  1.51E-03,  avg # of iterations =  3.0

     total cpu time spent up to now is      386.4 secs

     total energy              =  -14694.52724255 Ry
     Harris-Foulkes estimate   =  -14694.36238102 Ry
     estimated scf accuracy    <       7.51607907 Ry

     total magnetization       =     9.20 Bohr mag/cell
     absolute magnetization    =    38.36 Bohr mag/cell

     iteration #  6     ecut=    45.00 Ry     beta= 0.10
     Davidson diagonalization with overlap
     ethr =  1.51E-03,  avg # of iterations =  1.2

     total cpu time spent up to now is      420.2 secs

     total energy              =  -14693.28039815 Ry
     Harris-Foulkes estimate   =  -14694.55536670 Ry
     estimated scf accuracy    <       6.15809835 Ry

     total magnetization       =     9.20 Bohr mag/cell
     absolute magnetization    =    38.17 Bohr mag/cell

     iteration #  7     ecut=    45.00 Ry     beta= 0.10
     Davidson diagonalization with overlap
     ethr =  1.51E-03,  avg # of iterations =  3.9

     total cpu time spent up to now is      467.1 secs

     total energy              =  -14693.85347368 Ry
     Harris-Foulkes estimate   =  -14693.69912799 Ry
     estimated scf accuracy    <       2.27878899 Ry

     total magnetization       =     9.10 Bohr mag/cell
     absolute magnetization    =    38.62 Bohr mag/cell

     iteration #  8     ecut=    45.00 Ry     beta= 0.10
     Davidson diagonalization with overlap
     ethr =  7.70E-04,  avg # of iterations =  4.8

     total cpu time spent up to now is      520.7 secs

     total energy              =  -14693.98443035 Ry
     Harris-Foulkes estimate   =  -14693.97742960 Ry
     estimated scf accuracy    <       0.18112906 Ry

     total magnetization       =     8.94 Bohr mag/cell
     absolute magnetization    =    37.74 Bohr mag/cell

     iteration #  9     ecut=    45.00 Ry     beta= 0.10
     Davidson diagonalization with overlap
     ethr =  6.12E-05,  avg # of iterations =  3.5

     total cpu time spent up to now is      575.7 secs

     total energy              =  -14693.99648530 Ry
     Harris-Foulkes estimate   =  -14694.00095410 Ry
     estimated scf accuracy    <       0.09300928 Ry

     total magnetization       =     8.81 Bohr mag/cell
     absolute magnetization    =    37.41 Bohr mag/cell

     iteration # 10     ecut=    45.00 Ry     beta= 0.10
     Davidson diagonalization with overlap
     ethr =  3.14E-05,  avg # of iterations =  1.1

     total cpu time spent up to now is      637.0 secs

     total energy              =  -14693.99397032 Ry
     Harris-Foulkes estimate   =  -14693.99862065 Ry
     estimated scf accuracy    <       0.06017243 Ry

     total magnetization       =     8.82 Bohr mag/cell
     absolute magnetization    =    37.42 Bohr mag/cell

     iteration # 11     ecut=    45.00 Ry     beta= 0.10
     Davidson diagonalization with overlap
     ethr =  2.03E-05,  avg # of iterations =  3.6

     total cpu time spent up to now is      720.3 secs

     total energy              =  -14694.00167687 Ry
     Harris-Foulkes estimate   =  -14694.00367915 Ry
     estimated scf accuracy    <       0.03725783 Ry

     total magnetization       =     8.77 Bohr mag/cell
     absolute magnetization    =    37.39 Bohr mag/cell

     iteration # 12     ecut=    45.00 Ry     beta= 0.10
     Davidson diagonalization with overlap
     ethr =  1.26E-05,  avg # of iterations =  1.2

     total cpu time spent up to now is      775.5 secs

     total energy              =  -14694.00335208 Ry
     Harris-Foulkes estimate   =  -14694.00283909 Ry
     estimated scf accuracy    <       0.00991390 Ry

     total magnetization       =     8.80 Bohr mag/cell
     absolute magnetization    =    37.38 Bohr mag/cell

     iteration # 13     ecut=    45.00 Ry     beta= 0.10
     Davidson diagonalization with overlap
     ethr =  3.35E-06,  avg # of iterations =  4.5

     total cpu time spent up to now is      836.4 secs

     total energy              =  -14694.00543913 Ry
     Harris-Foulkes estimate   =  -14694.00428054 Ry
     estimated scf accuracy    <       0.00695077 Ry

     total magnetization       =     8.77 Bohr mag/cell
     absolute magnetization    =    37.31 Bohr mag/cell

     iteration # 14     ecut=    45.00 Ry     beta= 0.10
     Davidson diagonalization with overlap
     ethr =  2.35E-06,  avg # of iterations =  2.4

     total cpu time spent up to now is      884.7 secs

     total energy              =  -14694.00639488 Ry
     Harris-Foulkes estimate   =  -14694.00651921 Ry
     estimated scf accuracy    <       0.00250011 Ry

     total magnetization       =     8.76 Bohr mag/cell
     absolute magnetization    =    37.30 Bohr mag/cell

     iteration # 15     ecut=    45.00 Ry     beta= 0.10
     Davidson diagonalization with overlap
     ethr =  8.45E-07,  avg # of iterations =  2.8

     total cpu time spent up to now is      928.7 secs

     total energy              =  -14694.00635606 Ry
     Harris-Foulkes estimate   =  -14694.00665824 Ry
     estimated scf accuracy    <       0.01623068 Ry

     total magnetization       =     8.77 Bohr mag/cell
     absolute magnetization    =    37.28 Bohr mag/cell

     iteration # 16     ecut=    45.00 Ry     beta= 0.10
     Davidson diagonalization with overlap
     ethr =  8.45E-07,  avg # of iterations =  1.8

     total cpu time spent up to now is      965.6 secs

     total energy              =  -14694.00669746 Ry
     Harris-Foulkes estimate   =  -14694.00664530 Ry
     estimated scf accuracy    <       0.00663817 Ry

     total magnetization       =     8.75 Bohr mag/cell
     absolute magnetization    =    37.27 Bohr mag/cell

     iteration # 17     ecut=    45.00 Ry     beta= 0.10
     Davidson diagonalization with overlap
     ethr =  8.45E-07,  avg # of iterations =  1.0

     total cpu time spent up to now is     1002.5 secs

     total energy              =  -14694.00682429 Ry
     Harris-Foulkes estimate   =  -14694.00674868 Ry
     estimated scf accuracy    <       0.00149005 Ry

     total magnetization       =     8.75 Bohr mag/cell
     absolute magnetization    =    37.27 Bohr mag/cell

     iteration # 18     ecut=    45.00 Ry     beta= 0.10
     Davidson diagonalization with overlap
     ethr =  5.03E-07,  avg # of iterations =  1.1

     total cpu time spent up to now is     1059.6 secs

     total energy              =  -14694.00694728 Ry
     Harris-Foulkes estimate   =  -14694.00686333 Ry
     estimated scf accuracy    <       0.00068984 Ry

     total magnetization       =     8.75 Bohr mag/cell
     absolute magnetization    =    37.27 Bohr mag/cell

     iteration # 19     ecut=    45.00 Ry     beta= 0.10
     Davidson diagonalization with overlap
     ethr =  2.33E-07,  avg # of iterations =  1.6

     total cpu time spent up to now is     1118.8 secs

     total energy              =  -14694.00703581 Ry
     Harris-Foulkes estimate   =  -14694.00699001 Ry
     estimated scf accuracy    <       0.00054253 Ry

     total magnetization       =     8.75 Bohr mag/cell
     absolute magnetization    =    37.26 Bohr mag/cell

     iteration # 20     ecut=    45.00 Ry     beta= 0.10
     Davidson diagonalization with overlap
     ethr =  1.83E-07,  avg # of iterations =  1.0

     total cpu time spent up to now is     1175.6 secs

     total energy              =  -14694.00708380 Ry
     Harris-Foulkes estimate   =  -14694.00702449 Ry
     estimated scf accuracy    <       0.00016689 Ry

     total magnetization       =     8.75 Bohr mag/cell
     absolute magnetization    =    37.26 Bohr mag/cell

     iteration # 21     ecut=    45.00 Ry     beta= 0.10
     Davidson diagonalization with overlap
     ethr =  5.64E-08,  avg # of iterations =  1.5

     total cpu time spent up to now is     1235.1 secs

     total energy              =  -14694.00710327 Ry
     Harris-Foulkes estimate   =  -14694.00708942 Ry
     estimated scf accuracy    <       0.00014216 Ry

     total magnetization       =     8.75 Bohr mag/cell
     absolute magnetization    =    37.26 Bohr mag/cell

     iteration # 22     ecut=    45.00 Ry     beta= 0.10
     Davidson diagonalization with overlap
     ethr =  4.80E-08,  avg # of iterations =  1.0

     total cpu time spent up to now is     1295.8 secs

     total energy              =  -14694.00715447 Ry
     Harris-Foulkes estimate   =  -14694.00710689 Ry
     estimated scf accuracy    <       0.00009860 Ry

     total magnetization       =     8.75 Bohr mag/cell
     absolute magnetization    =    37.26 Bohr mag/cell

     iteration # 23     ecut=    45.00 Ry     beta= 0.10
     Davidson diagonalization with overlap
     ethr =  3.33E-08,  avg # of iterations =  1.6

     total cpu time spent up to now is     1360.0 secs

     total energy              =  -14694.00716947 Ry
     Harris-Foulkes estimate   =  -14694.00715774 Ry
     estimated scf accuracy    <       0.00002650 Ry

     total magnetization       =     8.75 Bohr mag/cell
     absolute magnetization    =    37.26 Bohr mag/cell

     iteration # 24     ecut=    45.00 Ry     beta= 0.10
     Davidson diagonalization with overlap
     ethr =  8.95E-09,  avg # of iterations =  2.0

     total cpu time spent up to now is     1426.2 secs

     total energy              =  -14694.00717416 Ry
     Harris-Foulkes estimate   =  -14694.00716944 Ry
     estimated scf accuracy    <       0.00000856 Ry

     total magnetization       =     8.75 Bohr mag/cell
     absolute magnetization    =    37.26 Bohr mag/cell

     iteration # 25     ecut=    45.00 Ry     beta= 0.10
     Davidson diagonalization with overlap
     ethr =  2.89E-09,  avg # of iterations =  2.0

     total cpu time spent up to now is     1492.5 secs

     total energy              =  -14694.00717386 Ry
     Harris-Foulkes estimate   =  -14694.00717281 Ry
     estimated scf accuracy    <       0.00001055 Ry

     total magnetization       =     8.75 Bohr mag/cell
     absolute magnetization    =    37.26 Bohr mag/cell

     iteration # 26     ecut=    45.00 Ry     beta= 0.10
     Davidson diagonalization with overlap
     ethr =  2.89E-09,  avg # of iterations =  1.1

     total cpu time spent up to now is     1550.3 secs

     total energy              =  -14694.00717508 Ry
     Harris-Foulkes estimate   =  -14694.00717419 Ry
     estimated scf accuracy    <       0.00006539 Ry

     total magnetization       =     8.75 Bohr mag/cell
     absolute magnetization    =    37.27 Bohr mag/cell

     iteration # 27     ecut=    45.00 Ry     beta= 0.10
     Davidson diagonalization with overlap
     ethr =  2.89E-09,  avg # of iterations =  1.2

     total cpu time spent up to now is     1605.6 secs

     total energy              =  -14694.00717878 Ry
     Harris-Foulkes estimate   =  -14694.00717763 Ry
     estimated scf accuracy    <       0.00001286 Ry

     total magnetization       =     8.75 Bohr mag/cell
     absolute magnetization    =    37.27 Bohr mag/cell

     iteration # 28     ecut=    45.00 Ry     beta= 0.10
     Davidson diagonalization with overlap
     ethr =  2.89E-09,  avg # of iterations =  1.1

     total cpu time spent up to now is     1660.6 secs

     total energy              =  -14694.00717812 Ry
     Harris-Foulkes estimate   =  -14694.00717708 Ry
     estimated scf accuracy    <       0.00000263 Ry

     total magnetization       =     8.74 Bohr mag/cell
     absolute magnetization    =    37.27 Bohr mag/cell

     iteration # 29     ecut=    45.00 Ry     beta= 0.10
     Davidson diagonalization with overlap
     ethr =  8.90E-10,  avg # of iterations =  1.9

     total cpu time spent up to now is     1716.5 secs

     total energy              =  -14694.00717838 Ry
     Harris-Foulkes estimate   =  -14694.00717755 Ry
     estimated scf accuracy    <       0.00000185 Ry

     total magnetization       =     8.75 Bohr mag/cell
     absolute magnetization    =    37.27 Bohr mag/cell

     iteration # 30     ecut=    45.00 Ry     beta= 0.10
     Davidson diagonalization with overlap
     ethr =  6.25E-10,  avg # of iterations =  2.0
 
     Magnetic moment per site:
     atom:    1    charge:   13.5497    magn:    4.2268    constr:    0.0000
     atom:    2    charge:   13.5520    magn:    4.2034    constr:    0.0000
     atom:    3    charge:   13.5456    magn:    4.2526    constr:    0.0000
     atom:    4    charge:   13.5470    magn:   -4.2342    constr:    0.0000
     atom:    5    charge:   13.5453    magn:    4.2510    constr:    0.0000
     atom:    6    charge:   13.5489    magn:    4.2295    constr:    0.0000
     atom:    7    charge:   13.5488    magn:   -4.2330    constr:    0.0000
     atom:    8    charge:   13.5484    magn:   -4.2348    constr:    0.0000
     atom:    9    charge:    9.1212    magn:    0.0314    constr:    0.0000
     atom:   10    charge:    9.1220    magn:    0.0360    constr:    0.0000
     atom:   11    charge:    9.1223    magn:    0.0382    constr:    0.0000
     atom:   12    charge:    9.1220    magn:    0.0330    constr:    0.0000
     atom:   13    charge:    9.1231    magn:    0.0448    constr:    0.0000
     atom:   14    charge:    9.1246    magn:   -0.0371    constr:    0.0000
     atom:   15    charge:    9.1235    magn:   -0.0377    constr:    0.0000
     atom:   16    charge:    9.1232    magn:    0.0513    constr:    0.0000
     atom:   17    charge:    9.1232    magn:    0.0392    constr:    0.0000
     atom:   18    charge:    9.1230    magn:    0.0394    constr:    0.0000
     atom:   19    charge:    9.1225    magn:    0.0432    constr:    0.0000
     atom:   20    charge:    9.1224    magn:   -0.0441    constr:    0.0000
     atom:   21    charge:    9.1230    magn:   -0.0388    constr:    0.0000
     atom:   22    charge:    9.1234    magn:   -0.0398    constr:    0.0000
     atom:   23    charge:    9.1239    magn:   -0.0448    constr:    0.0000
     atom:   24    charge:    9.1222    magn:    0.0370    constr:    0.0000

     total cpu time spent up to now is     1760.8 secs

     End of self-consistent calculation
 --- enter write_ns ---
 LDA+U parameters:
U(  1) =   3.1200   J(  1) =   0.7000   B(  1) =   0.0803
U(  2) =   3.1200   J(  2) =   0.7000   B(  2) =   0.0803
atom    1   Tr[ns(na)] (up, down, total) =   4.97069  0.74440  5.71509
   spin  1
    eigenvalues: 
  0.984  0.993  0.993  0.997  1.002
    eigenvectors:
  0.000  0.000  0.000  1.000  0.000
  0.000  0.098  0.902  0.000  0.000
  0.000  0.902  0.098  0.000  0.000
  0.000  0.000  0.000  0.000  1.000
  1.000  0.000  0.000  0.000  0.000
    occupations:
  0.997 -0.000 -0.000  0.000  0.000
 -0.000  0.993 -0.000  0.000  0.000
 -0.000 -0.000  0.993  0.000  0.000
  0.000  0.000  0.000  1.002 -0.000
  0.000  0.000  0.000 -0.000  0.984
   spin  2
    eigenvalues: 
  0.065  0.132  0.145  0.145  0.256
    eigenvectors:
  0.000  1.000  0.000  0.000  0.000
  0.000  0.000  0.119  0.881  0.000
  0.000  0.000  0.881  0.119  0.000
  1.000  0.000  0.000  0.000  0.000
  0.000  0.000  0.000  0.000  1.000
    occupations:
  0.132 -0.000 -0.000  0.000  0.000
 -0.000  0.145 -0.000  0.000  0.000
 -0.000 -0.000  0.145  0.000  0.000
  0.000  0.000  0.000  0.065 -0.000
  0.000  0.000  0.000 -0.000  0.256
atomic mag. moment =     4.226289
atom    2   Tr[ns(na)] (up, down, total) =   4.96973  0.76169  5.73142
   spin  1
    eigenvalues: 
  0.984  0.993  0.993  0.996  1.002
    eigenvectors:
  0.000  0.000  0.000  1.000  0.000
  0.000  0.104  0.896  0.000  0.000
  0.000  0.896  0.104  0.000  0.000
  0.000  0.000  0.000  0.000  1.000
  1.000  0.000  0.000  0.000  0.000
    occupations:
  0.996 -0.000 -0.000  0.000  0.000
 -0.000  0.993 -0.000  0.000  0.000
 -0.000 -0.000  0.993  0.000  0.000
  0.000  0.000  0.000  1.002 -0.000
  0.000  0.000  0.000 -0.000  0.984
   spin  2
    eigenvalues: 
  0.065  0.141  0.143  0.143  0.270
    eigenvectors:
  0.000  1.000  0.000  0.000  0.000
  0.000  0.000  0.164  0.836  0.000
  0.000  0.000  0.836  0.164  0.000
  1.000  0.000  0.000  0.000  0.000
  0.000  0.000  0.000  0.000  1.000
    occupations:
  0.141 -0.000 -0.000  0.000  0.000
 -0.000  0.143 -0.000  0.000  0.000
 -0.000 -0.000  0.143  0.000  0.000
  0.000  0.000  0.000  0.065 -0.000
  0.000  0.000  0.000 -0.000  0.270
atomic mag. moment =     4.208049
atom    3   Tr[ns(na)] (up, down, total) =   4.97375  0.72291  5.69665
   spin  1
    eigenvalues: 
  0.985  0.994  0.994  0.998  1.002
    eigenvectors:
  0.000  0.000  0.000  1.000  0.000
  0.000  0.125  0.875  0.000  0.000
  0.000  0.875  0.125  0.000  0.000
  0.000  0.000  0.000  0.000  1.000
  1.000  0.000  0.000  0.000  0.000
    occupations:
  0.998 -0.000 -0.000  0.000  0.000
 -0.000  0.994 -0.000  0.000  0.000
 -0.000 -0.000  0.994  0.000  0.000
  0.000  0.000  0.000  1.002 -0.000
  0.000  0.000  0.000 -0.000  0.985
   spin  2
    eigenvalues: 
  0.066  0.117  0.147  0.147  0.246
    eigenvectors:
  0.000  1.000  0.000  0.000  0.000
  0.000  0.000  0.123  0.877  0.000
  0.000  0.000  0.877  0.123  0.000
  1.000  0.000  0.000  0.000  0.000
  0.000  0.000  0.000  0.000  1.000
    occupations:
  0.117 -0.000 -0.000  0.000  0.000
 -0.000  0.147 -0.000  0.000  0.000
 -0.000 -0.000  0.147  0.000  0.000
  0.000  0.000  0.000  0.066 -0.000
  0.000  0.000  0.000 -0.000  0.246
atomic mag. moment =     4.250840
atom    4   Tr[ns(na)] (up, down, total) =   0.73804  4.96916  5.70720
   spin  1
    eigenvalues: 
  0.065  0.131  0.145  0.145  0.251
    eigenvectors:
  0.000  1.000  0.000  0.000  0.000
  0.000  0.000  0.151  0.849  0.000
  0.000  0.000  0.849  0.151  0.000
  1.000  0.000  0.000  0.000  0.000
  0.000  0.000  0.000  0.000  1.000
    occupations:
  0.131 -0.000 -0.000  0.000  0.000
 -0.000  0.145 -0.000  0.000  0.000
 -0.000 -0.000  0.145  0.000  0.000
  0.000  0.000  0.000  0.065 -0.000
  0.000  0.000  0.000 -0.000  0.251
   spin  2
    eigenvalues: 
  0.984  0.994  0.994  0.995  1.003
    eigenvectors:
  0.000  0.000  0.000  1.000  0.000
  0.000  0.085  0.915  0.000  0.000
  0.000  0.915  0.085  0.000  0.000
  0.000  0.000  0.000  0.000  1.000
  1.000  0.000  0.000  0.000  0.000
    occupations:
  0.995 -0.000 -0.000  0.000  0.000
 -0.000  0.994 -0.000  0.000  0.000
 -0.000 -0.000  0.994  0.000  0.000
  0.000  0.000  0.000  1.003 -0.000
  0.000  0.000  0.000 -0.000  0.984
atomic mag. moment =    -4.231121
atom    5   Tr[ns(na)] (up, down, total) =   4.97383  0.72439  5.69822
   spin  1
    eigenvalues: 
  0.985  0.994  0.994  0.997  1.003
    eigenvectors:
  0.000  0.000  0.000  1.000  0.000
  0.000  0.116  0.884  0.000  0.000
  0.000  0.884  0.116  0.000  0.000
  0.000  0.000  0.000  0.000  1.000
  1.000  0.000  0.000  0.000  0.000
    occupations:
  0.997 -0.000 -0.000  0.000  0.000
 -0.000  0.994 -0.000  0.000  0.000
 -0.000 -0.000  0.994  0.000  0.000
  0.000  0.000  0.000  1.003 -0.000
  0.000  0.000  0.000 -0.000  0.985
   spin  2
    eigenvalues: 
  0.066  0.120  0.146  0.146  0.247
    eigenvectors:
  0.000  1.000  0.000  0.000  0.000
  0.000  0.000  0.142  0.858  0.000
  0.000  0.000  0.858  0.142  0.000
  1.000  0.000  0.000  0.000  0.000
  0.000  0.000  0.000  0.000  1.000
    occupations:
  0.120 -0.000 -0.000  0.000  0.000
 -0.000  0.146 -0.000  0.000  0.000
 -0.000 -0.000  0.146  0.000  0.000
  0.000  0.000  0.000  0.066 -0.000
  0.000  0.000  0.000 -0.000  0.247
atomic mag. moment =     4.249439
atom    6   Tr[ns(na)] (up, down, total) =   4.97109  0.74281  5.71390
   spin  1
    eigenvalues: 
  0.984  0.994  0.994  0.996  1.002
    eigenvectors:
  0.000  0.000  0.000  1.000  0.000
  0.000  0.130  0.870  0.000  0.000
  0.000  0.870  0.130  0.000  0.000
  0.000  0.000  0.000  0.000  1.000
  1.000  0.000  0.000  0.000  0.000
    occupations:
  0.996 -0.000 -0.000  0.000  0.000
 -0.000  0.994 -0.000  0.000  0.000
 -0.000 -0.000  0.994  0.000  0.000
  0.000  0.000  0.000  1.002 -0.000
  0.000  0.000  0.000 -0.000  0.984
   spin  2
    eigenvalues: 
  0.064  0.131  0.146  0.146  0.256
    eigenvectors:
  0.000  1.000  0.000  0.000  0.000
  0.000  0.000  0.121  0.879  0.000
  0.000  0.000  0.879  0.121  0.000
  1.000  0.000  0.000  0.000  0.000
  0.000  0.000  0.000  0.000  1.000
    occupations:
  0.131 -0.000 -0.000  0.000  0.000
 -0.000  0.146 -0.000  0.000  0.000
 -0.000 -0.000  0.146  0.000  0.000
  0.000  0.000  0.000  0.064 -0.000
  0.000  0.000  0.000 -0.000  0.256
atomic mag. moment =     4.228285
atom    7   Tr[ns(na)] (up, down, total) =   0.74124  4.97163  5.71287
   spin  1
    eigenvalues: 
  0.064  0.133  0.144  0.144  0.256
    eigenvectors:
  0.000  1.000  0.000  0.000  0.000
  0.000  0.000  0.121  0.879  0.000
  0.000  0.000  0.879  0.121  0.000
  1.000  0.000  0.000  0.000  0.000
  0.000  0.000  0.000  0.000  1.000
    occupations:
  0.133 -0.000 -0.000  0.000  0.000
 -0.000  0.144 -0.000  0.000  0.000
 -0.000 -0.000  0.144  0.000  0.000
  0.000  0.000  0.000  0.064 -0.000
  0.000  0.000  0.000 -0.000  0.256
   spin  2
    eigenvalues: 
  0.985  0.994  0.994  0.997  1.002
    eigenvectors:
  0.000  0.000  0.000  1.000  0.000
  0.000  0.154  0.846  0.000  0.000
  0.000  0.846  0.154  0.000  0.000
  0.000  0.000  0.000  0.000  1.000
  1.000  0.000  0.000  0.000  0.000
    occupations:
  0.997 -0.000 -0.000  0.000  0.000
 -0.000  0.994 -0.000  0.000  0.000
 -0.000 -0.000  0.994  0.000  0.000
  0.000  0.000  0.000  1.002 -0.000
  0.000  0.000  0.000 -0.000  0.985
atomic mag. moment =    -4.230392
atom    8   Tr[ns(na)] (up, down, total) =   0.73960  4.97180  5.71139
   spin  1
    eigenvalues: 
  0.064  0.139  0.141  0.141  0.255
    eigenvectors:
  0.000  1.000  0.000  0.000  0.000
  0.000  0.000  0.168  0.832  0.000
  0.000  0.000  0.832  0.168  0.000
  1.000  0.000  0.000  0.000  0.000
  0.000  0.000  0.000  0.000  1.000
    occupations:
  0.139 -0.000 -0.000  0.000  0.000
 -0.000  0.141 -0.000  0.000  0.000
 -0.000 -0.000  0.141  0.000  0.000
  0.000  0.000  0.000  0.064 -0.000
  0.000  0.000  0.000 -0.000  0.255
   spin  2
    eigenvalues: 
  0.985  0.994  0.994  0.996  1.002
    eigenvectors:
  0.000  0.000  0.000  1.000  0.000
  0.000  0.119  0.881  0.000  0.000
  0.000  0.881  0.119  0.000  0.000
  0.000  0.000  0.000  0.000  1.000
  1.000  0.000  0.000  0.000  0.000
    occupations:
  0.996 -0.000 -0.000  0.000  0.000
 -0.000  0.994 -0.000  0.000  0.000
 -0.000 -0.000  0.994  0.000  0.000
  0.000  0.000  0.000  1.002 -0.000
  0.000  0.000  0.000 -0.000  0.985
atomic mag. moment =    -4.232202
N of occupied +U levels =   45.686739
 --- exit write_ns ---

 ------ SPIN UP ------------


          k = 0.0000 0.0000 0.0000 ( 13925 PWs)   bands (ev):

   -66.7792 -66.7781 -66.7064 -66.6936 -66.6269 -62.2259 -62.1358 -62.1240
   -35.5481 -35.5479 -35.4961 -35.4961 -35.4943 -35.4943 -35.4778 -35.4626
   -35.4229 -35.4229 -35.4116 -35.4116 -35.4068 -35.3407 -35.3407 -31.0529
   -31.0418 -31.0418 -30.9625 -30.9542 -30.9542 -30.9512 -30.9423 -30.9423
     5.7509   5.8766   5.9578   6.3318   6.3906   6.9795   7.0811   7.6142
     8.2760   8.3856   8.3883   8.4072   8.4414   8.5452   8.6007   8.7176
     8.7774   8.8041   8.8628   8.9122   9.0322   9.1650   9.2023   9.2762
     9.3016   9.3724   9.4476   9.4766   9.6055   9.7131   9.8759   9.8988
     9.9111   9.9385  10.0216  10.0986  10.1164  10.1164  10.1603  10.1771
    10.1771  10.1898  10.1898  10.2308  10.2837  10.2906  10.3338  10.3338
    10.3490  10.3490  10.5322  10.5408  10.5690  10.5690  10.5748  10.5748
    10.5959  10.6007  10.6007  10.6106  10.6106  10.6562  10.6562  10.6639
    10.7010  10.7010  10.7373  10.7665  10.7665  10.9722  10.9818  10.9818
    11.0191  11.0431  11.0431  11.0938  11.1501  11.2267  11.2505  11.2735
    11.3860  11.3860  11.3879  11.4659  11.5547  11.5547  11.6465  11.6621
    11.7168  11.7508  11.8181  11.8679  11.8679  11.8895  11.9588  11.9839
    11.9839  12.0813  12.0983  12.1664  12.1855  12.2411  12.2752  12.2752
    12.5584  12.5584  12.5960  12.6698  12.6921  12.6921  12.8160  12.8584
    12.9755  12.9883  13.0754  13.2310  13.7643  14.0020  14.8331  15.5076
    16.1845  16.8306  16.8306  16.8832  16.8832  16.9329  16.9859  17.0421
    17.0960  17.1245  17.1245  17.1410  17.1949  17.5201  17.5617  17.5861
    18.4016  19.4138  19.7642  20.0622  20.0622  20.3986  20.3986  20.5128
    20.5128  21.4231

          k = 0.0000 0.0000-0.0484 ( 13878 PWs)   bands (ev):

   -66.7792 -66.7781 -66.7064 -66.6936 -66.6269 -62.2259 -62.1358 -62.1240
   -35.5481 -35.5479 -35.4961 -35.4961 -35.4943 -35.4943 -35.4778 -35.4626
   -35.4229 -35.4229 -35.4116 -35.4116 -35.4068 -35.3407 -35.3407 -31.0529
   -31.0418 -31.0418 -30.9625 -30.9542 -30.9542 -30.9512 -30.9423 -30.9423
     5.7674   5.8203   6.0752   6.1414   6.6461   6.6968   7.3873   7.4100
     8.3825   8.3857   8.4071   8.4333   8.4528   8.5344   8.5454   8.6345
     8.7168   8.7806   8.8643   8.9931   9.0800   9.1556   9.2157   9.3114
     9.3358   9.3417   9.3773   9.4495   9.6346   9.7260   9.8635   9.8988
     9.9110   9.9365  10.0217  10.1013  10.1190  10.1190  10.1559  10.1559
    10.1599  10.2392  10.2408  10.2408  10.2551  10.2551  10.2846  10.2895
    10.4578  10.4578  10.4668  10.4668  10.5235  10.5264  10.5705  10.5705
    10.5758  10.5758  10.6254  10.6408  10.6499  10.6499  10.6872  10.6872
    10.7276  10.7276  10.7562  10.8003  10.8003  10.8447  10.8447  10.9786
    10.9923  11.0875  11.1987  11.2081  11.2081  11.2183  11.2280  11.2456
    11.2456  11.2717  11.3918  11.4671  11.6401  11.6650  11.6693  11.6693
    11.7154  11.7486  11.7617  11.7617  11.8262  11.8905  11.9592  12.0379
    12.0379  12.0642  12.0982  12.1855  12.2041  12.2161  12.2610  12.2610
    12.5620  12.5620  12.5977  12.6684  12.6911  12.6911  12.8523  12.8586
    12.8989  12.9882  13.0754  13.3736  13.5374  14.2377  14.6371  15.7172
    16.0370  16.8306  16.8306  16.8833  16.8833  16.9329  16.9859  17.0421
    17.0960  17.1244  17.1244  17.1410  17.1948  17.5183  17.5614  17.5950
    18.6341  18.8999  20.1260  20.1260  20.2038  20.2038  20.4986  20.6120
    20.8591  20.8591

          k = 0.0000 0.1250 0.0000 ( 13879 PWs)   bands (ev):

   -66.7789 -66.7778 -66.7061 -66.6933 -66.6266 -62.2259 -62.1358 -62.1240
   -35.5480 -35.5477 -35.4979 -35.4961 -35.4960 -35.4942 -35.4777 -35.4625
   -35.4246 -35.4228 -35.4134 -35.4115 -35.4066 -35.3425 -35.3406 -31.0527
   -31.0439 -31.0416 -30.9623 -30.9563 -30.9540 -30.9510 -30.9445 -30.9422
     5.9943   6.1174   6.1956   6.5577   6.6118   7.1779   7.2554   7.7561
     8.2848   8.4780   8.5206   8.5280   8.5403   8.6474   8.6889   8.7126
     8.7886   8.8326   8.9183   8.9554   9.0142   9.1711   9.2033   9.2499
     9.3141   9.3367   9.3436   9.4436   9.6150   9.6758   9.7590   9.7803
     9.8201   9.8593   9.8835   9.8998   9.9223   9.9978  10.0113  10.0426
    10.0555  10.0739  10.1360  10.1771  10.2256  10.2290  10.2457  10.2767
    10.3255  10.3954  10.3991  10.4275  10.4656  10.5186  10.5402  10.6040
    10.6324  10.6631  10.6686  10.6928  10.7615  10.7821  10.8171  10.8207
    10.8306  10.8825  10.8898  10.9928  11.0543  11.0573  11.1041  11.1186
    11.1307  11.1419  11.1932  11.2116  11.2502  11.2952  11.3239  11.3649
    11.3672  11.4077  11.4213  11.4355  11.5221  11.6754  11.6830  11.7191
    11.7552  11.8027  11.8086  11.8114  11.8416  11.8975  11.9279  11.9822
    12.0212  12.0865  12.0954  12.1618  12.1797  12.2438  12.3426  12.4116
    12.4204  12.4321  12.5360  12.6151  12.7080  12.7554  12.8391  12.8669
    12.9497  12.9500  12.9596  13.2000  13.8228  14.0532  14.9582  15.6139
    16.3153  16.5772  16.7184  16.9156  16.9427  16.9450  16.9939  16.9990
    17.0103  17.0492  17.0887  17.1090  17.2669  17.5049  17.6090  17.9249
    18.5074  18.6430  18.9302  19.0994  19.7840  19.8511  19.9101  20.0399
    20.6771  20.9263

          k = 0.0000 0.1250-0.0484 ( 13868 PWs)   bands (ev):

   -66.7789 -66.7778 -66.7061 -66.6933 -66.6266 -62.2259 -62.1358 -62.1240
   -35.5480 -35.5477 -35.4979 -35.4961 -35.4960 -35.4942 -35.4777 -35.4625
   -35.4246 -35.4228 -35.4134 -35.4115 -35.4066 -35.3425 -35.3406 -31.0527
   -31.0439 -31.0416 -30.9623 -30.9563 -30.9540 -30.9510 -30.9445 -30.9422
     6.0101   6.0627   6.3096   6.3733   6.8587   6.9024   7.5507   7.5620
     8.4183   8.4857   8.4998   8.5216   8.5281   8.5453   8.6589   8.7258
     8.7951   8.8512   8.9362   8.9768   9.0670   9.1229   9.1733   9.2659
     9.2835   9.3172   9.3623   9.5292   9.5517   9.6701   9.7725   9.7807
     9.8179   9.8650   9.8799   9.9117   9.9223   9.9763  10.0113  10.0368
    10.0643  10.0819  10.1336  10.1747  10.2214  10.2275  10.2842  10.2858
    10.3119  10.3213  10.4053  10.4492  10.4850  10.5616  10.5650  10.5940
    10.6223  10.6292  10.6627  10.6743  10.6928  10.8138  10.8267  10.8283
    10.8705  10.8756  10.9451  10.9958  11.0103  11.0428  11.0939  11.1221
    11.1293  11.1592  11.1692  11.2084  11.2532  11.2715  11.3325  11.3576
    11.3601  11.4023  11.4558  11.4684  11.6115  11.6254  11.6379  11.6903
    11.7220  11.7626  11.7840  11.8559  11.8771  11.9359  11.9516  11.9886
    12.0239  12.0842  12.0946  12.1424  12.1619  12.2234  12.3615  12.4228
    12.4238  12.4294  12.5317  12.6110  12.7090  12.8037  12.8389  12.8473
    12.8675  12.9497  12.9594  13.3841  13.5395  14.3446  14.7230  15.8445
    16.1374  16.6303  16.7061  16.9156  16.9410  16.9461  16.9939  16.9991
    17.0103  17.0492  17.0885  17.1090  17.2669  17.4936  17.6868  17.7693
    18.6810  18.7849  18.9180  19.1183  19.3608  19.4612  20.3800  20.4161
    20.7171  20.8074

          k = 0.0000 0.2500 0.0000 ( 13848 PWs)   bands (ev):

   -66.7787 -66.7776 -66.7059 -66.6931 -66.6265 -62.2255 -62.1354 -62.1237
   -35.5476 -35.5473 -35.5021 -35.5003 -35.4958 -35.4940 -35.4773 -35.4621
   -35.4288 -35.4225 -35.4176 -35.4113 -35.4062 -35.3467 -35.3404 -31.0521
   -31.0492 -31.0413 -30.9617 -30.9616 -30.9537 -30.9504 -30.9498 -30.9419
     6.6826   6.7957   6.8645   7.1793   7.2179   7.6784   7.6899   8.0546
     8.2463   8.4762   8.4926   8.6808   8.7127   8.7434   8.7952   8.8296
     8.8458   8.8735   8.9178   8.9373   8.9819   8.9986   9.0793   9.2091
     9.2557   9.3999   9.4623   9.4769   9.5204   9.5658   9.5941   9.6367
     9.6373   9.6683   9.6766   9.7185   9.7576   9.7885   9.8440   9.8759
     9.9282   9.9957  10.0156  10.1478  10.1509  10.1560  10.2657  10.3254
    10.3696  10.5227  10.5537  10.5594  10.5997  10.6070  10.6326  10.7409
    10.7611  10.8029  10.8085  10.8625  10.8656  10.8898  10.9617  11.0067
    11.0497  11.0883  11.1278  11.1641  11.1714  11.1741  11.2159  11.2827
    11.3545  11.3669  11.3933  11.4222  11.4267  11.4373  11.5248  11.5383
    11.5462  11.6075  11.6204  11.6481  11.6726  11.7177  11.7456  11.7652
    11.8155  11.8217  11.8405  11.8579  11.8752  11.9201  11.9849  11.9870
    12.0365  12.0564  12.0883  12.1129  12.1381  12.2265  12.2595  12.3914
    12.4589  12.5425  12.5566  12.5723  12.7167  12.7801  12.8742  12.8870
    12.9262  12.9839  13.0219  13.0975  13.9793  14.1681  15.1976  15.6197
    16.0134  16.0344  16.2007  16.2911  16.3460  16.5445  16.7954  16.8055
    16.8531  17.0148  17.0348  17.0697  17.2313  17.2617  17.3434  17.3802
    17.4063  17.6439  17.7451  17.9354  18.4425  18.5014  18.5329  18.7250
    19.4256  20.4003

          k = 0.0000 0.2500-0.0484 ( 13842 PWs)   bands (ev):

   -66.7787 -66.7776 -66.7059 -66.6931 -66.6265 -62.2255 -62.1354 -62.1237
   -35.5476 -35.5473 -35.5021 -35.5003 -35.4958 -35.4940 -35.4773 -35.4621
   -35.4288 -35.4225 -35.4176 -35.4113 -35.4062 -35.3467 -35.3404 -31.0521
   -31.0492 -31.0413 -30.9617 -30.9616 -30.9537 -30.9504 -30.9498 -30.9419
     6.6959   6.7475   6.9649   7.0198   7.4251   7.4476   7.8955   7.9355
     8.3315   8.3678   8.5984   8.6038   8.7246   8.7585   8.8048   8.8177
     8.8461   8.8735   8.9127   8.9373   8.9820   9.0194   9.0808   9.1719
     9.2485   9.4624   9.4765   9.4765   9.5220   9.5628   9.5771   9.6066
     9.6401   9.6668   9.6734   9.6766   9.7517   9.7917   9.8459   9.9276
     9.9959   9.9982  10.0149  10.0446  10.1452  10.1511  10.2896  10.3340
    10.4002  10.4660  10.5486  10.6071  10.6071  10.6284  10.6368  10.7172
    10.7185  10.7649  10.8085  10.8753  10.9040  10.9398  10.9496  11.0143
    11.0412  11.0436  11.0842  11.1784  11.1976  11.2194  11.2407  11.2527
    11.3498  11.3659  11.3775  11.4081  11.4238  11.4736  11.5078  11.5333
    11.5351  11.5605  11.6427  11.6605  11.6986  11.7271  11.7668  11.7907
    11.8096  11.8319  11.8403  11.8446  11.8656  11.8880  11.9319  11.9993
    12.0302  12.0552  12.1128  12.1502  12.1633  12.1996  12.2385  12.3927
    12.4639  12.5335  12.5646  12.6508  12.6874  12.7156  12.7805  12.8861
    12.9269  12.9837  13.0219  13.4143  13.5442  14.5890  14.8798  15.8671
    15.9031  16.0620  16.1211  16.3201  16.3602  16.5538  16.7954  16.8000
    16.8531  17.0148  17.0325  17.0706  17.2563  17.2617  17.3326  17.3434
    17.4063  17.5931  17.8941  18.0368  18.1901  18.2173  18.8168  18.8600
    19.6133  19.7619

          k = 0.0000 0.3750 0.0000 ( 13856 PWs)   bands (ev):

   -66.7793 -66.7782 -66.7065 -66.6937 -66.6271 -62.2246 -62.1344 -62.1227
   -35.5472 -35.5469 -35.5061 -35.5044 -35.4955 -35.4938 -35.4769 -35.4616
   -35.4329 -35.4223 -35.4217 -35.4110 -35.4058 -35.3508 -35.3402 -31.0546
   -31.0516 -31.0410 -30.9671 -30.9612 -30.9552 -30.9534 -30.9498 -30.9415
     7.6412   7.7334   7.7787   7.9721   7.9807   8.1250   8.1352   8.1726
     8.1958   8.2724   8.2867   8.4233   8.4513   8.6189   8.6558   8.8697
     8.8945   8.9460   9.0432   9.1045   9.1519   9.2206   9.2226   9.2278
     9.2391   9.2602   9.2779   9.3151   9.3649   9.4085   9.5135   9.5287
     9.5894   9.5952   9.6136   9.6746   9.6949   9.7001   9.8711   9.9062
     9.9365  10.0095  10.0442  10.0808  10.0977  10.1340  10.2184  10.3542
    10.3710  10.4179  10.4693  10.5399  10.5728  10.6312  10.6401  10.8330
    10.8647  10.8783  10.9920  11.0368  11.1464  11.2056  11.2102  11.3127
    11.3304  11.3498  11.3837  11.4110  11.4711  11.4868  11.4903  11.4949
    11.5173  11.5702  11.5770  11.5883  11.5937  11.6469  11.6607  11.6823
    11.7399  11.7649  11.8265  11.8284  11.8341  11.9012  11.9023  11.9204
    12.0178  12.0469  12.0549  12.0632  12.0889  12.1054  12.1534  12.1677
    12.1850  12.2222  12.3058  12.3536  12.3878  12.4056  12.4246  12.5069
    12.5190  12.6009  12.6425  12.6752  12.8120  12.8708  12.9618  12.9669
    12.9794  12.9949  13.0516  13.0697  13.9050  14.0239  14.0480  14.2327
    14.2760  14.8243  14.8902  15.0610  15.1043  15.6266  15.6306  15.9122
    15.9435  16.7577  16.7824  16.8277  16.9118  16.9425  16.9719  17.0529
    17.1095  17.2444  17.4634  17.5518  17.5730  17.9344  17.9655  18.1610
    19.5409  19.6640

          k = 0.0000 0.3750-0.0484 ( 13872 PWs)   bands (ev):

   -66.7793 -66.7782 -66.7065 -66.6937 -66.6271 -62.2246 -62.1344 -62.1227
   -35.5472 -35.5469 -35.5061 -35.5044 -35.4955 -35.4938 -35.4769 -35.4616
   -35.4329 -35.4223 -35.4217 -35.4110 -35.4058 -35.3508 -35.3402 -31.0546
   -31.0516 -31.0410 -30.9671 -30.9612 -30.9552 -30.9534 -30.9498 -30.9415
     7.6494   7.6994   7.8475   7.8778   8.0634   8.0792   8.1565   8.1631
     8.2148   8.2288   8.3420   8.3677   8.4928   8.5809   8.6913   8.8239
     8.9364   8.9785   9.0041   9.0625   9.2021   9.2143   9.2225   9.2280
     9.2391   9.2600   9.3038   9.3254   9.3658   9.4074   9.4446   9.5139
     9.5557   9.5952   9.6489   9.6742   9.6961   9.8162   9.8686   9.8882
     9.9327   9.9895  10.0199  10.0511  10.0813  10.0846  10.3351  10.3670
    10.4063  10.4178  10.4381  10.5196  10.5351  10.6427  10.6497  10.8031
    10.8140  10.9115  11.0204  11.0698  11.1922  11.1997  11.2367  11.2795
    11.2895  11.3567  11.3968  11.4417  11.4568  11.4628  11.4695  11.4765
    11.5243  11.5335  11.5689  11.5790  11.6097  11.6338  11.6885  11.7092
    11.7101  11.7657  11.7874  11.8015  11.8706  11.8768  11.8937  11.9795
    12.0132  12.0360  12.0499  12.0777  12.0841  12.1078  12.1445  12.2015
    12.2516  12.2743  12.3379  12.3927  12.3963  12.4139  12.4473  12.4839
    12.5124  12.5263  12.5965  12.6367  12.6800  12.8122  12.8708  12.9666
    12.9796  13.0516  13.0697  13.5055  13.5333  14.0001  14.0430  14.4470
    14.4723  14.5892  14.6464  15.2011  15.2450  15.6200  15.6340  15.8713
    15.9123  16.7577  16.7824  16.8238  16.9404  16.9425  16.9718  17.0304
    17.1264  17.2383  17.4634  17.5518  17.5730  17.9333  17.9696  18.1628
    19.5731  19.6810

          k = 0.0000-0.5000 0.0000 ( 13918 PWs)   bands (ev):

   -66.7797 -66.7787 -66.7070 -66.6942 -66.6275 -62.2240 -62.1339 -62.1221
   -35.5470 -35.5468 -35.5078 -35.5060 -35.4954 -35.4937 -35.4767 -35.4615
   -35.4346 -35.4233 -35.4222 -35.4109 -35.4057 -35.3524 -35.3401 -31.0569
   -31.0513 -31.0408 -30.9693 -30.9609 -30.9575 -30.9532 -30.9496 -30.9414
     8.1053   8.1116   8.1363   8.1441   8.2017   8.2483   8.3092   8.3390
     8.3611   8.4398   8.4606   8.4984   8.5107   8.6191   8.6732   8.6858
     8.7434   8.8277   9.0362   9.0414   9.1223   9.1297   9.1498   9.1549
     9.2184   9.2899   9.2986   9.3240   9.4588   9.4606   9.5427   9.5480
     9.5769   9.6667   9.6769   9.7002   9.7330   9.7663   9.8282   9.8354
     9.8377   9.9545  10.0275  10.0328  10.0342  10.0721  10.0999  10.1961
    10.3375  10.4690  10.4971  10.5580  10.5704  10.5729  10.5981  10.6030
    10.7291  10.9011  11.1994  11.2575  11.3106  11.3613  11.3842  11.3858
    11.4120  11.4880  11.4889  11.5313  11.5346  11.5470  11.5536  11.5667
    11.5700  11.5963  11.6167  11.6525  11.6545  11.7205  11.7355  11.7673
    11.7867  11.8202  11.8392  11.9051  11.9453  12.0596  12.0636  12.1677
    12.2407  12.2417  12.3036  12.4042  12.4112  12.4169  12.4347  12.4919
    12.5081  12.5453  12.5627  12.5858  12.6443  12.6631  12.6658  12.6882
    12.7031  12.7392  12.8499  12.8654  12.9060  12.9509  12.9703  12.9985
    13.0017  13.0826  13.0874  13.1107  13.2505  13.4267  13.4546  13.7283
    13.8256  13.8564  13.8863  14.3194  14.3782  14.4828  14.5245  14.8162
    14.8388  16.6479  16.6810  16.7106  16.7637  16.8286  16.8322  16.8369
    16.9872  17.0085  17.5373  17.6342  17.6384  17.9134  18.0082  18.0292
    19.5742  19.6226

          k = 0.0000-0.5000-0.0484 ( 13892 PWs)   bands (ev):

   -66.7797 -66.7787 -66.7070 -66.6942 -66.6275 -62.2240 -62.1339 -62.1221
   -35.5470 -35.5468 -35.5078 -35.5060 -35.4954 -35.4937 -35.4767 -35.4615
   -35.4346 -35.4233 -35.4222 -35.4109 -35.4057 -35.3524 -35.3401 -31.0569
   -31.0513 -31.0408 -30.9693 -30.9609 -30.9575 -30.9532 -30.9496 -30.9414
     8.1058   8.1110   8.1375   8.1421   8.2052   8.2443   8.3210   8.3309
     8.3503   8.4594   8.4665   8.4948   8.4973   8.6193   8.6630   8.6843
     8.7578   8.8329   9.0252   9.0263   9.1223   9.1297   9.1498   9.1548
     9.2439   9.2899   9.2986   9.3508   9.4586   9.4606   9.5068   9.5070
     9.5773   9.6667   9.6856   9.7292   9.7475   9.7569   9.8259   9.8347
     9.8377   9.9555  10.0270  10.0330  10.0340  10.0998  10.1603  10.1661
    10.2429  10.4689  10.4971  10.5667  10.5704  10.5902  10.6032  10.6055
    10.7291  10.9225  11.1991  11.2522  11.3315  11.3401  11.3842  11.3862
    11.4212  11.4775  11.4962  11.5125  11.5301  11.5484  11.5507  11.5734
    11.5786  11.5892  11.6075  11.6229  11.6361  11.7303  11.7566  11.7658
    11.7861  11.8149  11.8353  11.9454  11.9635  12.0596  12.0655  12.1948
    12.2146  12.2386  12.2689  12.4051  12.4143  12.4160  12.4502  12.4977
    12.5093  12.5303  12.5550  12.5833  12.6445  12.6850  12.6857  12.6880
    12.7044  12.7166  12.8216  12.8499  12.9057  12.9985  13.0019  13.0062
    13.0272  13.0452  13.0826  13.0874  13.1881  13.5285  13.5546  13.5799
    13.6486  14.0570  14.0576  14.1268  14.1999  14.6356  14.6930  14.7472
    14.7599  16.6669  16.6822  16.6932  16.7637  16.8286  16.8320  16.8369
    16.9872  17.0085  17.5373  17.6342  17.6384  17.9135  18.0081  18.0292
    19.6230  19.6749

          k = 0.1250 0.1250 0.0000 ( 13839 PWs)   bands (ev):

   -66.7786 -66.7775 -66.7058 -66.6930 -66.6263 -62.2260 -62.1359 -62.1241
   -35.5478 -35.5476 -35.4978 -35.4977 -35.4960 -35.4960 -35.4775 -35.4623
   -35.4246 -35.4245 -35.4133 -35.4133 -35.4065 -35.3424 -35.3424 -31.0525
   -31.0439 -31.0437 -30.9621 -30.9563 -30.9561 -30.9507 -30.9444 -30.9442
     6.2258   6.3464   6.4254   6.7784   6.8301   7.3785   7.4398   7.9145
     8.3435   8.5607   8.6010   8.6601   8.6748   8.7202   8.7396   8.7885
     8.8148   8.9276   9.0044   9.0350   9.0470   9.1327   9.2605   9.3376
     9.3446   9.3805   9.3911   9.4677   9.5210   9.6316   9.6462   9.6910
     9.7154   9.8186   9.8369   9.8499   9.8680   9.8739   9.8941   9.9016
     9.9154   9.9281  10.0912  10.1055  10.1156  10.1341  10.2607  10.2694
    10.3145  10.3328  10.3428  10.3807  10.4043  10.4401  10.5074  10.5228
    10.5500  10.5903  10.6256  10.6771  10.7144  10.7414  10.7750  10.8565
    10.8644  10.9327  11.0234  11.0345  11.0611  11.1022  11.1186  11.1771
    11.1796  11.1966  11.2255  11.2635  11.3109  11.3879  11.4071  11.4353
    11.4890  11.5282  11.5360  11.5557  11.6135  11.6897  11.7218  11.7666
    11.7793  11.8007  11.8266  11.9038  11.9626  11.9793  12.0141  12.0638
    12.0879  12.0925  12.1287  12.1388  12.2326  12.3324  12.3325  12.3499
    12.4657  12.5834  12.5990  12.6057  12.7036  12.7301  12.7351  12.7634
    12.8293  12.8425  12.9544  13.2177  13.9261  14.1551  15.1016  15.7473
    16.4177  16.7302  16.7388  16.8226  16.8569  16.8961  16.9565  16.9727
    16.9860  17.0057  17.0402  17.1598  17.2012  17.5285  17.6752  18.2713
    18.6719  19.1460  19.2352  19.2782  19.5273  19.5435  19.7202  19.9656
    20.0620  20.1561

          k = 0.1250 0.1250-0.0484 ( 13838 PWs)   bands (ev):

   -66.7786 -66.7775 -66.7058 -66.6930 -66.6263 -62.2260 -62.1359 -62.1241
   -35.5478 -35.5476 -35.4978 -35.4977 -35.4960 -35.4960 -35.4775 -35.4623
   -35.4246 -35.4245 -35.4133 -35.4133 -35.4065 -35.3424 -35.3424 -31.0525
   -31.0439 -31.0437 -30.9621 -30.9563 -30.9561 -30.9507 -30.9444 -30.9442
     6.2410   6.2938   6.5357   6.5991   7.0701   7.1094   7.7203   7.7340
     8.4588   8.5283   8.5735   8.6159   8.6602   8.6746   8.7887   8.8028
     8.8825   8.9272   8.9293   9.0477   9.0563   9.1864   9.2021   9.3098
     9.3339   9.4271   9.4378   9.4608   9.4817   9.6263   9.6417   9.7078
     9.7129   9.8211   9.8339   9.8511   9.8671   9.8741   9.8942   9.8957
     9.9183   9.9354  10.0617  10.1049  10.1164  10.1681  10.2484  10.2693
    10.3076  10.3327  10.3428  10.3776  10.4284  10.4404  10.4846  10.5227
    10.5523  10.5893  10.6544  10.6835  10.7179  10.7279  10.7827  10.8008
    10.8471  10.9917  11.0251  11.0321  11.0659  11.1127  11.1174  11.1564
    11.1857  11.1919  11.2167  11.3081  11.3300  11.3395  11.3701  11.4272
    11.4775  11.5135  11.5443  11.5870  11.6338  11.7264  11.7404  11.7712
    11.7907  11.7962  11.8281  11.8593  11.8722  11.9766  12.0427  12.0688
    12.0916  12.1342  12.1426  12.1429  12.2442  12.2978  12.3150  12.3506
    12.4767  12.5819  12.6033  12.6078  12.7268  12.7288  12.7431  12.7807
    12.8112  12.8389  12.8571  13.4412  13.5962  14.4795  14.8542  15.9703
    16.2478  16.7387  16.7912  16.8227  16.8652  16.8992  16.9265  16.9726
    16.9863  17.0057  17.0403  17.1598  17.2059  17.4987  17.8413  17.9490
    19.1329  19.2345  19.2582  19.2845  19.3734  19.3865  19.6092  19.8084
    19.9822  20.1038

          k = 0.1250 0.2500 0.0000 ( 13846 PWs)   bands (ev):

   -66.7783 -66.7772 -66.7055 -66.6927 -66.6261 -62.2257 -62.1356 -62.1238
   -35.5474 -35.5472 -35.5019 -35.5002 -35.4975 -35.4957 -35.4771 -35.4619
   -35.4287 -35.4243 -35.4175 -35.4130 -35.4061 -35.3466 -35.3422 -31.0520
   -31.0491 -31.0434 -30.9616 -30.9615 -30.9558 -30.9502 -30.9496 -30.9440
     6.8709   6.9818   7.0641   7.3789   7.4227   7.8813   7.8978   8.2466
     8.3890   8.5832   8.6006   8.7527   8.8019   8.8066   8.8426   8.9519
     8.9798   9.0229   9.0450   9.0571   9.0896   9.1243   9.2241   9.2724
     9.3625   9.4241   9.4547   9.4895   9.5056   9.5341   9.5439   9.5620
     9.5931   9.6224   9.6785   9.7098   9.7773   9.8063   9.8160   9.8782
     9.9314   9.9584   9.9738  10.0458  10.0541  10.1025  10.1262  10.2723
    10.3280  10.3545  10.3892  10.4044  10.4402  10.4528  10.5142  10.5382
    10.5499  10.5996  10.6392  10.6597  10.7143  10.8177  10.8553  10.8687
    10.9062  10.9613  10.9962  11.0499  11.0639  11.1011  11.1808  11.2765
    11.3589  11.4002  11.4235  11.4653  11.4839  11.5021  11.5425  11.5584
    11.5750  11.6425  11.6728  11.6980  11.7258  11.7492  11.7997  11.8045
    11.8349  11.8718  11.9247  11.9434  12.0057  12.0363  12.0583  12.0942
    12.1624  12.1759  12.1979  12.2156  12.2744  12.4058  12.5250  12.5303
    12.5506  12.5844  12.6215  12.6313  12.7006  12.7181  12.7447  12.7995
    12.8102  12.8615  13.0945  13.3356  14.2112  14.4134  15.3501  15.8351
    16.2625  16.2740  16.3622  16.4946  16.5383  16.6939  16.8790  16.9381
    17.0210  17.0756  17.1007  17.1725  17.2105  17.2561  17.3760  17.4491
    17.6267  17.9050  17.9716  18.2064  18.7314  18.7883  18.9613  18.9905
    19.4366  20.4577

          k = 0.1250 0.2500-0.0484 ( 13868 PWs)   bands (ev):

   -66.7783 -66.7772 -66.7055 -66.6927 -66.6261 -62.2257 -62.1356 -62.1238
   -35.5474 -35.5472 -35.5019 -35.5002 -35.4975 -35.4957 -35.4771 -35.4619
   -35.4287 -35.4243 -35.4175 -35.4130 -35.4061 -35.3466 -35.3422 -31.0520
   -31.0491 -31.0434 -30.9616 -30.9615 -30.9558 -30.9502 -30.9496 -30.9440
     6.8840   6.9372   7.1591   7.2222   7.6290   7.6545   8.0966   8.1307
     8.4639   8.4957   8.6893   8.6985   8.7743   8.8156   8.8934   8.9223
     8.9927   9.0230   9.0365   9.0628   9.0939   9.1312   9.2152   9.2316
     9.3798   9.4537   9.4850   9.4877   9.5100   9.5292   9.5395   9.5511
     9.5937   9.6124   9.6734   9.6923   9.7462   9.7834   9.8500   9.8793
     9.9596   9.9627  10.0117  10.0231  10.0420  10.1124  10.1459  10.2163
    10.2974  10.3611  10.3988  10.4111  10.4352  10.5068  10.5126  10.5342
    10.5564  10.5923  10.5991  10.7204  10.7302  10.7748  10.8144  10.8441
    10.9335  10.9483  11.0230  11.0405  11.1043  11.1487  11.1824  11.2138
    11.2956  11.4057  11.4555  11.4685  11.4716  11.5063  11.5610  11.5689
    11.6253  11.6425  11.6797  11.6951  11.7048  11.7359  11.7827  11.7987
    11.8254  11.8365  11.9076  11.9755  12.0325  12.0523  12.0734  12.0863
    12.1420  12.1876  12.2039  12.2154  12.2522  12.4102  12.5061  12.5255
    12.5377  12.5934  12.6158  12.6961  12.7227  12.7294  12.7756  12.8050
    12.8159  12.8487  12.8766  13.6658  13.7995  14.7695  15.1135  16.0067
    16.1372  16.3207  16.3640  16.4686  16.5423  16.7122  16.8825  16.9275
    17.0075  17.0906  17.1248  17.1604  17.1884  17.2566  17.3894  17.4476
    17.6125  17.8344  18.1670  18.3181  18.4726  18.5057  19.1009  19.1618
    19.7789  19.8318

          k = 0.1250 0.3750 0.0000 ( 13875 PWs)   bands (ev):

   -66.7788 -66.7777 -66.7060 -66.6932 -66.6265 -62.2248 -62.1347 -62.1230
   -35.5471 -35.5468 -35.5060 -35.5042 -35.4973 -35.4955 -35.4768 -35.4616
   -35.4328 -35.4240 -35.4215 -35.4128 -35.4057 -35.3507 -35.3419 -31.0544
   -31.0514 -31.0431 -30.9668 -30.9610 -30.9555 -30.9550 -30.9497 -30.9436
     7.7403   7.8304   7.9132   8.1284   8.1521   8.3160   8.3215   8.3478
     8.3718   8.4355   8.4411   8.5675   8.5969   8.7444   8.7727   8.9050
     8.9665   9.0259   9.0738   9.1422   9.2098   9.2369   9.2484   9.2610
     9.2724   9.3067   9.3657   9.4025   9.4208   9.4511   9.4978   9.5125
     9.5426   9.5791   9.6299   9.6495   9.6729   9.7745   9.8557   9.8864
     9.9100   9.9274   9.9634   9.9852  10.0540  10.2423  10.2957  10.3222
    10.3624  10.4073  10.4434  10.5105  10.5543  10.5698  10.5765  10.6471
    10.7343  10.7803  10.8226  10.8470  11.0045  11.0514  11.0926  11.1156
    11.1272  11.1655  11.2170  11.2557  11.3030  11.3615  11.4300  11.4746
    11.4981  11.5270  11.5473  11.5728  11.5881  11.6295  11.6522  11.6831
    11.7065  11.7555  11.7660  11.7869  11.7934  11.8643  11.8793  11.8955
    11.9241  11.9494  11.9698  11.9982  12.0527  12.0709  12.0951  12.1780
    12.2000  12.3133  12.3347  12.4162  12.4585  12.4790  12.5182  12.5234
    12.5519  12.5958  12.6278  12.6997  12.7721  12.8256  12.8402  12.8771
    13.1169  13.1964  13.5895  13.7378  14.2787  14.3974  14.4613  14.6257
    14.7248  15.1160  15.1569  15.4535  15.5333  15.9331  15.9895  16.3188
    16.3344  16.8774  16.8872  16.9228  17.0279  17.0975  17.1372  17.1455
    17.2297  17.2731  17.6278  17.6472  17.8647  18.0306  18.0494  18.2979
    19.5717  19.6509

          k = 0.1250 0.3750-0.0484 ( 13882 PWs)   bands (ev):

   -66.7788 -66.7777 -66.7060 -66.6932 -66.6265 -62.2248 -62.1347 -62.1230
   -35.5471 -35.5468 -35.5060 -35.5042 -35.4973 -35.4955 -35.4768 -35.4616
   -35.4328 -35.4240 -35.4215 -35.4128 -35.4057 -35.3507 -35.3419 -31.0544
   -31.0514 -31.0431 -30.9668 -30.9610 -30.9555 -30.9550 -30.9497 -30.9436
     7.7490   7.8016   7.9747   8.0310   8.2525   8.2599   8.3317   8.3550
     8.3781   8.3955   8.4899   8.5257   8.6274   8.7163   8.7966   8.9115
     8.9593   8.9935   9.0994   9.1565   9.2066   9.2273   9.2475   9.2638
     9.2914   9.3321   9.3630   9.3701   9.4032   9.4331   9.4724   9.5206
     9.5335   9.5844   9.6570   9.6731   9.7454   9.7648   9.8076   9.8610
     9.9122   9.9293   9.9496   9.9800  10.0555  10.2226  10.3224  10.3497
    10.3922  10.4125  10.4575  10.4699  10.5372  10.5659  10.5805  10.6132
    10.7350  10.7778  10.8336  10.9187  10.9669  11.0300  11.0829  11.1057
    11.1221  11.1646  11.2258  11.2709  11.3243  11.3817  11.3996  11.4546
    11.4940  11.5343  11.5605  11.5760  11.5937  11.6213  11.6420  11.6916
    11.7135  11.7370  11.7691  11.7941  11.8151  11.8304  11.8899  11.9101
    11.9257  11.9445  11.9673  12.0013  12.0531  12.0689  12.1131  12.1232
    12.2325  12.2939  12.3874  12.4010  12.4340  12.4622  12.5158  12.5388
    12.5573  12.6229  12.6256  12.6673  12.7624  12.8011  12.8658  12.9703
    12.9814  13.3603  13.3897  13.9747  14.0573  14.4022  14.4544  14.7372
    14.8301  15.0041  15.0779  15.4785  15.5235  16.0280  16.0367  16.2529
    16.2873  16.8784  16.8887  16.9236  17.0520  17.0895  17.1371  17.1495
    17.2057  17.2855  17.6207  17.6597  17.8362  18.0450  18.0542  18.3059
    19.6479  19.7306

          k = 0.1250-0.5000 0.0000 ( 13890 PWs)   bands (ev):

[...]
    11.5585  11.5847  11.6104  11.6686  11.6925  11.7796  11.8272  11.8898
    11.9164  11.9688  11.9759  12.0271  12.0439  12.0751  12.0880  12.1528
    12.1730  12.2558  12.2628  12.3935  12.4204  12.4964  12.5358  12.5566
    12.5955  12.6243  12.7530  12.7822  13.0306  13.0682  13.3789  13.5756
    13.9666  14.0287  14.4952  14.6154  15.1576  15.2233  15.2890  15.3869
    15.3965  15.6691  15.8061  16.0062  16.1745  16.6167  16.7036  16.8744
    16.9444  16.9669  17.0657  17.1055  17.1650  17.1964  17.2224  17.2673
    17.3041  17.4487  17.4865  17.4970  17.5711  17.7709  17.9705  18.0210
    18.1414  18.1761  18.2273  18.2878  18.4231  18.7506  18.8985  19.0524
    19.4684  19.6229

          k = 0.2500 0.3750-0.0484 ( 13916 PWs)   bands (ev):

   -66.8101 -66.7236 -66.7099 -62.1712 -62.1709 -62.1212 -62.1109 -62.0632
   -35.5770 -35.5378 -35.5334 -35.4910 -35.4808 -35.4529 -35.4486 -35.4377
   -35.4334 -31.0040 -31.0026 -30.9982 -30.9969 -30.9951 -30.9917 -30.9519
   -30.9476 -30.9462 -30.9436 -30.9379 -30.9340 -30.8948 -30.8928 -30.8871
     7.9726   8.0477   8.3285   8.4045   8.5869   8.6528   8.7410   8.7849
     8.8061   8.8378   8.8521   8.8775   9.0317   9.0340   9.1050   9.2140
     9.2484   9.2796   9.3279   9.3504   9.3703   9.3712   9.3914   9.4005
     9.4285   9.5371   9.5810   9.6054   9.6396   9.6881   9.7141   9.7209
     9.7412   9.7852   9.8347   9.8389   9.8783   9.9318   9.9621  10.0368
    10.1074  10.2023  10.2080  10.2318  10.2668  10.3068  10.3611  10.4102
    10.4668  10.5319  10.5413  10.5559  10.5790  10.6071  10.6879  10.7142
    10.7466  10.7678  10.8476  10.8680  10.9059  10.9309  10.9811  11.0458
    11.1019  11.1605  11.1931  11.2600  11.2918  11.3183  11.4151  11.4510
    11.5530  11.6057  11.6141  11.6400  11.7101  11.7480  11.8747  11.8890
    11.9161  11.9337  11.9757  12.0213  12.0572  12.0892  12.0972  12.1205
    12.2100  12.2287  12.2625  12.3967  12.4208  12.5011  12.5258  12.5572
    12.6009  12.6586  12.6755  12.8873  12.9035  13.1838  13.2893  13.6829
    13.7988  14.2137  14.3341  14.7161  15.1429  15.1994  15.2247  15.4135
    15.4953  15.6304  15.7878  16.0117  16.1794  16.6156  16.7036  16.8842
    16.9156  16.9880  17.0746  17.0964  17.1699  17.1957  17.2247  17.2372
    17.3345  17.4383  17.4884  17.4969  17.5709  17.7717  17.9814  18.0039
    18.0333  18.2101  18.2911  18.4102  18.4996  18.5377  18.8765  19.0438
    19.4673  19.6187

          k = 0.2500-0.5000 0.0000 ( 13940 PWs)   bands (ev):

   -66.8104 -66.7239 -66.7101 -62.1708 -62.1705 -62.1208 -62.1105 -62.0628
   -35.5769 -35.5394 -35.5333 -35.4909 -35.4806 -35.4546 -35.4485 -35.4393
   -35.4333 -31.0062 -31.0049 -30.9980 -30.9967 -30.9949 -30.9915 -30.9542
   -30.9474 -30.9460 -30.9458 -30.9377 -30.9338 -30.8951 -30.8946 -30.8869
     8.3877   8.3902   8.4599   8.4772   8.6716   8.6821   8.7565   8.7887
     8.7927   8.8058   8.8067   8.8622   8.9658   8.9716   9.0305   9.1392
     9.1737   9.1744   9.2258   9.2820   9.2852   9.3185   9.3574   9.3666
     9.4073   9.4454   9.5621   9.5820   9.5933   9.6120   9.7107   9.7348
     9.7435   9.7887   9.8551   9.9270   9.9546   9.9716  10.0014  10.0356
    10.2407  10.2457  10.3620  10.4197  10.4278  10.4841  10.5231  10.5408
    10.5458  10.7177  10.7277  10.7772  10.7784  10.8154  10.8481  10.8737
    10.8933  10.9425  10.9441  10.9789  11.0706  11.0962  11.1065  11.1652
    11.1680  11.2292  11.2375  11.2904  11.3031  11.3216  11.5180  11.6210
    11.6229  11.6561  11.6872  11.6975  11.8417  11.8688  11.8793  11.8834
    11.9140  11.9796  12.0041  12.0057  12.0577  12.1780  12.1792  12.2513
    12.3165  12.3302  12.3508  12.4395  12.4459  12.4910  12.5001  12.7775
    12.8294  12.9555  12.9600  13.0329  13.2055  13.3930  13.4085  13.6710
    13.7842  13.9991  14.0320  14.1009  14.3887  14.5959  14.6425  14.6836
    14.8201  15.2846  15.2856  15.4437  16.1157  16.3814  16.3858  16.8973
    16.9497  17.0756  17.0823  17.0984  17.1136  17.1258  17.1426  17.1546
    17.1634  17.4558  17.4924  17.6483  17.6649  17.8211  17.8585  18.1201
    18.1273  18.1318  18.2066  18.2829  18.2996  18.3015  18.5219  18.5668
    19.6606  19.6949

          k = 0.2500-0.5000-0.0484 ( 13912 PWs)   bands (ev):

   -66.8104 -66.7239 -66.7101 -62.1708 -62.1705 -62.1208 -62.1105 -62.0628
   -35.5769 -35.5394 -35.5333 -35.4909 -35.4806 -35.4546 -35.4485 -35.4393
   -35.4333 -31.0062 -31.0049 -30.9980 -30.9967 -30.9949 -30.9915 -30.9542
   -30.9474 -30.9460 -30.9458 -30.9377 -30.9338 -30.8951 -30.8946 -30.8869
     8.3880   8.3912   8.4591   8.4741   8.6841   8.6842   8.7451   8.7888
     8.7915   8.8037   8.8069   8.8622   8.9656   8.9705   9.0283   9.1485
     9.1721   9.1856   9.2186   9.2799   9.2852   9.3186   9.3529   9.3652
     9.4076   9.4459   9.5530   9.5805   9.6104   9.6261   9.6791   9.6996
     9.7976   9.8177   9.8317   9.8975   9.9693   9.9800   9.9950  10.0351
    10.2417  10.2450  10.3619  10.4199  10.4676  10.4798  10.4828  10.5383
    10.5405  10.7373  10.7401  10.7623  10.7686  10.8415  10.8598  10.8671
    10.8789  10.9169  10.9312  11.0180  11.0714  11.0741  11.1159  11.1645
    11.1766  11.2227  11.2294  11.3047  11.3056  11.3124  11.5179  11.6210
    11.6227  11.6561  11.6873  11.6975  11.8404  11.8711  11.8827  11.8848
    11.9111  11.9804  12.0016  12.0033  12.0578  12.1771  12.1824  12.2301
    12.3160  12.3675  12.3676  12.4372  12.4496  12.4656  12.4762  12.8159
    12.8781  12.8922  12.9057  13.0751  13.2386  13.3698  13.3777  13.7222
    13.8271  13.8896  13.9769  14.2337  14.4338  14.4902  14.5537  14.7665
    14.8811  15.2305  15.2728  15.4781  16.1192  16.3796  16.3826  16.8989
    16.9498  17.0727  17.0867  17.0962  17.1162  17.1218  17.1450  17.1514
    17.1660  17.4556  17.4910  17.6486  17.6677  17.8181  17.8570  18.1206
    18.1276  18.1333  18.1837  18.2594  18.3652  18.3765  18.4671  18.4957
    19.8517  19.8814

          k = 0.3750 0.3750 0.0000 ( 13948 PWs)   bands (ev):

   -66.8099 -66.7234 -66.7097 -62.1710 -62.1707 -62.1210 -62.1107 -62.0630
   -35.5768 -35.5374 -35.5374 -35.4908 -35.4805 -35.4526 -35.4525 -35.4374
   -35.4373 -31.0036 -31.0033 -31.0022 -31.0020 -30.9948 -30.9914 -30.9515
   -30.9513 -30.9472 -30.9432 -30.9430 -30.9337 -30.8945 -30.8924 -30.8922
     8.0710   8.1690   8.4044   8.4454   8.4958   8.6475   8.6717   8.7796
     9.0026   9.0277   9.0515   9.0613   9.1217   9.1961   9.2140   9.2648
     9.3165   9.3203   9.3410   9.3428   9.4014   9.4023   9.4796   9.4866
     9.5092   9.5156   9.5414   9.5819   9.6673   9.6899   9.7130   9.8516
     9.9512   9.9613   9.9778  10.0138  10.0638  10.0988  10.1185  10.1213
    10.1356  10.1616  10.1870  10.2509  10.2623  10.4002  10.4174  10.4725
    10.5581  10.5904  10.5918  10.6625  10.6746  10.7288  10.7430  10.7837
    10.8284  10.9547  10.9974  11.0565  11.1006  11.1195  11.1794  11.1913
    11.2562  11.3866  11.4505  11.4734  11.5166  11.5473  11.5546  11.5721
    11.5872  11.6047  11.6312  11.6984  11.7665  11.9011  11.9455  11.9607
    11.9639  11.9787  11.9893  12.0322  12.0374  12.0906  12.1103  12.1196
    12.1431  12.2254  12.2472  12.3474  12.3886  12.4098  12.5278  12.6463
    12.6828  12.7170  13.0116  13.0563  13.3280  13.4492  13.8921  14.0323
    14.3392  14.5071  14.8279  15.0427  15.0985  15.1695  15.2490  15.3507
    15.4319  15.8873  16.1797  16.3203  16.4320  16.9888  16.9911  17.0085
    17.0485  17.0878  17.1034  17.1553  17.2425  17.3724  17.3859  17.4853
    17.5010  17.7025  17.8303  17.8587  17.8817  17.9317  18.0575  18.0616
    18.1114  18.2501  18.2993  18.3473  18.3781  18.6413  18.8688  18.9273
    18.9722  19.0241

          k = 0.3750 0.3750-0.0484 ( 13950 PWs)   bands (ev):

   -66.8099 -66.7234 -66.7097 -62.1710 -62.1707 -62.1210 -62.1107 -62.0630
   -35.5768 -35.5374 -35.5374 -35.4908 -35.4805 -35.4526 -35.4525 -35.4374
   -35.4373 -31.0036 -31.0033 -31.0022 -31.0020 -30.9948 -30.9914 -30.9515
   -30.9513 -30.9472 -30.9432 -30.9430 -30.9337 -30.8945 -30.8924 -30.8922
     8.0721   8.1655   8.4053   8.4660   8.5062   8.5594   8.7307   8.7968
     9.0038   9.0133   9.0431   9.0664   9.1121   9.1702   9.2198   9.2709
     9.3176   9.3312   9.3377   9.4101   9.4145   9.4180   9.4386   9.4440
     9.4535   9.5473   9.5818   9.5943   9.6293   9.6468   9.8241   9.8476
     9.9004   9.9507   9.9534   9.9726  10.0974  10.1212  10.1227  10.1328
    10.1594  10.1636  10.2066  10.2338  10.2923  10.3159  10.4295  10.4766
    10.5431  10.5470  10.6562  10.6779  10.6899  10.7101  10.7538  10.8193
    10.8277  10.8798  10.9977  11.0563  11.1005  11.1132  11.1736  11.2442
    11.2640  11.3669  11.4479  11.4790  11.5110  11.5478  11.5511  11.5598
    11.5850  11.6058  11.6311  11.6984  11.8183  11.8405  11.9460  11.9634
    11.9769  11.9895  11.9999  12.0305  12.0563  12.0581  12.0739  12.1367
    12.1840  12.2227  12.2238  12.3466  12.3935  12.4098  12.5610  12.5942
    12.6457  12.8231  12.9005  13.1609  13.2537  13.4912  13.8470  14.1035
    14.2687  14.5568  14.8034  15.0512  15.1127  15.1425  15.2716  15.3387
    15.4341  15.8874  16.1759  16.3198  16.4383  16.9516  17.0191  17.0312
    17.0442  17.0803  17.1063  17.1548  17.2580  17.3270  17.3640  17.4991
    17.5453  17.6947  17.8018  17.8587  17.9023  17.9391  18.0285  18.0575
    18.1908  18.2089  18.2483  18.4826  18.5167  18.5215  18.6028  18.7479
    18.9224  19.1476

          k = 0.3750-0.5000 0.0000 ( 13934 PWs)   bands (ev):

   -66.8100 -66.7235 -66.7097 -62.1708 -62.1705 -62.1208 -62.1105 -62.0628
   -35.5767 -35.5390 -35.5372 -35.4907 -35.4804 -35.4542 -35.4524 -35.4389
   -35.4372 -31.0056 -31.0043 -31.0032 -31.0019 -30.9946 -30.9912 -30.9536
   -30.9512 -30.9471 -30.9453 -30.9429 -30.9335 -30.8945 -30.8943 -30.8921
     8.1940   8.1966   8.2765   8.3104   8.5587   8.5687   8.7188   8.7247
     8.9361   8.9732   9.1234   9.1378   9.1728   9.1770   9.2123   9.2306
     9.2318   9.2636   9.3008   9.3073   9.3173   9.3857   9.4111   9.4543
     9.4794   9.4857   9.5938   9.6370   9.6469   9.6642   9.8779   9.9132
     9.9258   9.9319   9.9935   9.9946  10.0684  10.0727  10.0937  10.1062
    10.2018  10.2790  10.2819  10.3367  10.3642  10.4086  10.4843  10.5862
    10.6618  10.6989  10.7070  10.7310  10.7903  10.8267  10.9064  11.0066
    11.0792  11.0809  11.1412  11.1745  11.2111  11.2698  11.3488  11.3701
    11.4034  11.4411  11.4928  11.5250  11.5674  11.6574  11.6660  11.6922
    11.7059  11.7843  11.7972  11.8060  11.9332  11.9585  11.9640  11.9927
    11.9943  12.0558  12.0567  12.0819  12.1006  12.1769  12.2127  12.2247
    12.2819  12.2956  12.3151  12.3608  12.3683  12.4593  12.4700  12.9566
    13.0402  13.1340  13.1355  13.2176  13.6821  13.8280  13.8336  14.1770
    14.3571  14.3799  14.5153  14.5176  14.6729  14.7142  14.9618  14.9630
    15.3829  15.7347  15.9849  15.9868  16.7846  16.9866  16.9925  17.0340
    17.0551  17.0689  17.0927  17.1061  17.1849  17.2481  17.4579  17.5143
    17.5968  17.8234  17.9168  17.9739  18.0064  18.0475  18.1240  18.1331
    18.1589  18.2181  18.3821  18.5004  18.6679  18.7050  18.8559  18.8604
    18.9174  18.9257

          k = 0.3750-0.5000-0.0484 ( 13940 PWs)   bands (ev):

   -66.8100 -66.7235 -66.7097 -62.1708 -62.1705 -62.1208 -62.1105 -62.0628
   -35.5767 -35.5390 -35.5372 -35.4907 -35.4804 -35.4542 -35.4524 -35.4389
   -35.4372 -31.0056 -31.0043 -31.0032 -31.0019 -30.9946 -30.9912 -30.9536
   -30.9512 -30.9471 -30.9453 -30.9429 -30.9335 -30.8945 -30.8943 -30.8921
     8.1944   8.1973   8.2754   8.3077   8.5760   8.5763   8.6905   8.7035
     9.0080   9.0138   9.0591   9.0983   9.1738   9.1791   9.1842   9.1956
     9.2601   9.2605   9.3004   9.3583   9.3734   9.3736   9.3844   9.4477
     9.5026   9.5126   9.5177   9.5705   9.7411   9.7601   9.7786   9.7979
     9.9764   9.9890   9.9911  10.0050  10.0638  10.0667  10.1411  10.1749
    10.1804  10.1866  10.2535  10.3120  10.3170  10.4944  10.5640  10.6256
    10.6494  10.6550  10.7056  10.7110  10.7487  10.7633  10.9963  11.0277
    11.0734  11.0828  11.1453  11.1776  11.2079  11.2174  11.3619  11.3894
    11.4017  11.4320  11.4707  11.5359  11.6035  11.6368  11.6437  11.7005
    11.7179  11.7785  11.7974  11.8079  11.9383  11.9546  11.9683  11.9898
    11.9906  12.0528  12.0554  12.0846  12.1008  12.1762  12.2101  12.2196
    12.2948  12.2953  12.3235  12.3685  12.3827  12.4429  12.4475  12.9809
    13.0623  13.0945  13.1144  13.2379  13.6889  13.8254  13.8270  14.1865
    14.3375  14.3968  14.4892  14.5406  14.6859  14.6992  14.9593  14.9669
    15.3830  15.7345  15.9849  15.9867  16.7819  16.9842  17.0001  17.0256
    17.0551  17.0602  17.0848  17.1247  17.2316  17.2386  17.3796  17.5209
    17.6566  17.7933  17.9175  17.9659  18.0280  18.0734  18.0988  18.1301
    18.1928  18.2103  18.2849  18.5325  18.7611  18.8118  18.8310  18.8473
    18.8668  18.9191

          k =-0.5000-0.5000 0.0000 ( 13964 PWs)   bands (ev):

   -66.8100 -66.7235 -66.7097 -62.1706 -62.1703 -62.1206 -62.1103 -62.0627
   -35.5766 -35.5388 -35.5388 -35.4906 -35.4803 -35.4540 -35.4540 -35.4388
   -35.4388 -31.0054 -31.0054 -31.0041 -31.0041 -30.9945 -30.9911 -30.9534
   -30.9534 -30.9470 -30.9451 -30.9451 -30.9334 -30.8943 -30.8943 -30.8942
     8.1094   8.1122   8.1940   8.2372   8.5043   8.5124   8.6815   8.7038
     8.8552   8.8976   9.1534   9.1660   9.2067   9.2239   9.2512   9.2512
     9.2883   9.2883   9.3291   9.3291   9.4160   9.4295   9.4428   9.4428
     9.4592   9.4592   9.6967   9.6967   9.7018   9.7018   9.9202   9.9311
     9.9311   9.9326   9.9326   9.9618   9.9702  10.0320  10.0320  10.0728
    10.0728  10.1020  10.1020  10.4841  10.4841  10.5441  10.6151  10.6212
    10.6212  10.6277  10.6692  10.6759  11.0649  11.0649  11.1401  11.1441
    11.1543  11.1878  11.1878  11.2810  11.4000  11.4329  11.4342  11.4814
    11.4963  11.5585  11.5585  11.9188  11.9420  11.9420  11.9600  11.9663
    11.9725  11.9735  11.9948  12.0038  12.0093  12.0279  12.0590  12.0629
    12.0681  12.0762  12.0917  12.0975  12.1201  12.1424  12.2018  12.2193
    12.2231  12.2647  12.3126  12.3266  12.3266  12.3422  12.3429  13.3874
    13.4002  13.4138  13.4169  13.4281  13.8843  13.8843  14.0449  14.0449
    14.3240  14.3240  14.5750  14.5750  14.7318  14.7318  15.2525  15.2525
    15.9071  15.9071  16.6140  16.6421  16.6421  16.6872  16.6956  16.8069
    16.8847  16.9757  16.9809  17.1252  17.3088  17.3088  17.4623  17.4623
    17.7604  17.7715  17.8542  17.9936  18.0777  18.0811  18.1387  18.1387
    18.1403  18.1450  18.1616  18.2047  18.2094  18.2678  18.3669  18.3669
    18.5362  18.7736

          k =-0.5000-0.5000-0.0484 ( 13992 PWs)   bands (ev):

   -66.8100 -66.7235 -66.7097 -62.1706 -62.1703 -62.1206 -62.1103 -62.0627
   -35.5766 -35.5388 -35.5388 -35.4906 -35.4803 -35.4540 -35.4540 -35.4388
   -35.4388 -31.0054 -31.0054 -31.0041 -31.0041 -30.9945 -30.9911 -30.9534
   -30.9534 -30.9470 -30.9451 -30.9451 -30.9334 -30.8943 -30.8943 -30.8942
     8.1098   8.1127   8.1929   8.2350   8.5207   8.5211   8.6583   8.6592
     8.9537   8.9543   9.0149   9.0595   9.2535   9.2535   9.2787   9.2787
     9.3280   9.3516   9.3625   9.3625   9.3629   9.3644   9.3771   9.3771
     9.5575   9.5575   9.5641   9.5641   9.8618   9.8618   9.8707   9.8707
     9.9310   9.9310   9.9332   9.9332   9.9379   9.9553   9.9633  10.0730
    10.0730  10.2748  10.2748  10.3119  10.3119  10.5420  10.6182  10.6279
    10.6679  10.6758  10.7856  10.7856  10.8887  10.8887  11.1402  11.1440
    11.1542  11.2812  11.3411  11.3411  11.4000  11.4329  11.4341  11.4728
    11.4728  11.4814  11.4963  11.9188  11.9600  11.9663  11.9676  11.9676
    11.9725  11.9735  11.9948  12.0038  12.0093  12.0279  12.0590  12.0629
    12.0681  12.0762  12.0917  12.0975  12.1201  12.1423  12.2053  12.2185
    12.2196  12.2645  12.3150  12.3181  12.3181  12.3408  12.3429  13.3874
    13.4003  13.4138  13.4168  13.4281  13.9295  13.9295  13.9782  13.9782
    14.3695  14.3695  14.5428  14.5428  14.7408  14.7408  15.2524  15.2524
    15.9071  15.9071  16.6140  16.6447  16.6447  16.6875  16.6956  16.8053
    16.8849  16.9804  16.9815  17.1183  17.2410  17.2410  17.6353  17.6353
    17.7972  17.8071  17.8128  17.8736  17.8736  17.9225  18.0777  18.0812
    18.1403  18.1450  18.1979  18.2047  18.2418  18.2546  18.5232  18.7739
    18.7788  18.7788

     the Fermi energy is    15.2635 ev

!    total energy              =  -14694.00718264 Ry
     Harris-Foulkes estimate   =  -14694.00717902 Ry
     estimated scf accuracy    <       0.00000079 Ry

     total all-electron energy =   -626921.602905 Ry

     The total energy is the sum of the following terms:

     one-electron contribution =    -714.50415023 Ry
     hartree contribution      =     656.55242670 Ry
     xc contribution           =    -737.87707419 Ry
     ewald contribution        =   -2196.78933708 Ry
     Hubbard energy            =       0.45129300 Ry
     one-center paw contrib.   =  -11701.84034084 Ry

     total magnetization       =     8.74 Bohr mag/cell
     absolute magnetization    =    37.27 Bohr mag/cell

     convergence has been achieved in  30 iterations

     Writing output data file mnau2.save/
 
     init_run     :     29.70s CPU     30.25s WALL (       1 calls)
     electrons    :   1696.86s CPU   1728.79s WALL (       1 calls)

     Called by init_run:
     wfcinit      :     27.82s CPU     28.27s WALL (       1 calls)
     potinit      :      1.07s CPU      1.11s WALL (       1 calls)
     hinit0       :      0.43s CPU      0.45s WALL (       1 calls)

     Called by electrons:
     c_bands      :   1428.31s CPU   1454.78s WALL (      30 calls)
     sum_band     :    242.50s CPU    246.66s WALL (      30 calls)
     v_of_rho     :      2.19s CPU      2.22s WALL (      31 calls)
     newd         :      6.06s CPU      6.12s WALL (      31 calls)
     PAW_pot      :     17.89s CPU     18.12s WALL (      31 calls)
     mix_rho      :      0.53s CPU      0.56s WALL (      30 calls)

     Called by c_bands:
     init_us_2    :      3.53s CPU      3.56s WALL (    3720 calls)
     cegterg      :   1382.24s CPU   1408.20s WALL (    1800 calls)

     Called by sum_band:
     sum_band:bec :      1.09s CPU      1.09s WALL (    1800 calls)
     addusdens    :      5.74s CPU      5.79s WALL (      30 calls)

     Called by *egterg:
     h_psi        :    875.01s CPU    889.30s WALL (    5834 calls)
     s_psi        :     30.58s CPU     30.62s WALL (    5894 calls)
     g_psi        :      1.09s CPU      1.10s WALL (    3974 calls)
     cdiaghg      :    309.02s CPU    319.14s WALL (    5774 calls)

     Called by h_psi:
     h_psi:pot    :    833.21s CPU    846.99s WALL (    5834 calls)
     h_psi:calbec :     62.61s CPU     64.26s WALL (    5834 calls)
     vloc_psi     :    741.24s CPU    753.34s WALL (    5834 calls)
     add_vuspsi   :     29.31s CPU     29.37s WALL (    5834 calls)
     vhpsi        :     41.06s CPU     41.56s WALL (    5834 calls)

     General routines
     calbec       :    134.95s CPU    138.02s WALL (   15328 calls)
     fft          :      2.26s CPU      2.30s WALL (     771 calls)
     ffts         :      0.12s CPU      0.13s WALL (     122 calls)
     fftw         :    914.29s CPU    929.34s WALL ( 1669590 calls)
     interpolate  :      0.17s CPU      0.17s WALL (      62 calls)
     davcio       :      0.01s CPU      1.00s WALL (      60 calls)
 
     Parallel routines
     fft_scatt_xy :     16.77s CPU     16.92s WALL ( 1670483 calls)
     fft_scatt_yz :    829.17s CPU    843.49s WALL ( 1670483 calls)

     Hubbard U routines
     new_ns       :      5.33s CPU      5.53s WALL (      30 calls)
     vhpsi        :     41.06s CPU     41.56s WALL (    5834 calls)
 
     PWSCF        : 29m17.42s CPU    32m13.62s WALL

 
   This run was terminated on:  23:53: 0   6Apr2019            

=------------------------------------------------------------------------------=
   JOB DONE.
=------------------------------------------------------------------------------=
