
     Program PWSCF v.6.3MaX starts on  6Apr2019 at 21:12:10 

     This program is part of the open-source Quantum ESPRESSO suite
     for quantum simulation of materials; please cite
         "P. Giannozzi et al., J. Phys.:Condens. Matter 21 395502 (2009);
         "P. Giannozzi et al., J. Phys.:Condens. Matter 29 465901 (2017);
          URL http://www.quantum-espresso.org", 
     in publications or presentations arising from this work. More details at
     http://www.quantum-espresso.org/quote

     Parallel version (MPI), running on    32 processors

     MPI processes distributed on     4 nodes
     R & G space division:  proc/nbgrp/npool/nimage =      32
     Waiting for input...
     Reading input from standard input

     Current dimensions of program PWSCF are:
     Max number of different atomic species (ntypx) = 10
     Max number of k-points (npk) =  40000
     Max angular momentum in pseudopotentials (lmaxx) =  3
               file Mn.pbe-spn-kjpaw_psl.0.3.1.UPF: wavefunction(s)  3P 3D renormalized
               file Mn.pbe-spn-kjpaw_psl.0.3.1.UPF: wavefunction(s)  3P 3D renormalized
               file Au.pbe-dn-kjpaw_psl.0.1.UPF: wavefunction(s)  6S 6P 5D renormalized

     Subspace diagonalization in iterative solution of the eigenvalue problem:
     one sub-group per band group will be used
     scalapack distributed-memory algorithm (size of sub-group:  4*  4 procs)

 
     Parallelization info
     --------------------
     sticks:   dense  smooth     PW     G-vecs:    dense   smooth      PW
     Min          41      18      5                11487     3460     563
     Max          42      19      6                11527     3505     606
     Sum        1313     593    177               368373   111379   18691
 


     bravais-lattice index     =            0
     lattice parameter (alat)  =       6.4153  a.u.
     unit-cell volume          =    2724.7774 (a.u.)^3
     number of atoms/cell      =           24
     number of atomic types    =            3
     number of electrons       =       296.00
     number of Kohn-Sham states=          178
     kinetic-energy cutoff     =      45.0000  Ry
     charge density cutoff     =     400.0000  Ry
     convergence threshold     =      1.0E-06
     mixing beta               =       0.1000
     number of iterations used =            8  plain     mixing
     Exchange-correlation      = SLA PW PBX PBC ( 1  4  3  4 0 0)

     celldm(1)=   6.415315  celldm(2)=   0.000000  celldm(3)=   0.000000
     celldm(4)=   0.000000  celldm(5)=   0.000000  celldm(6)=   0.000000

     crystal axes: (cart. coord. in units of alat)
               a(1) = (   1.000000   0.000000   0.000000 )  
               a(2) = (   0.000000   1.000000   0.000000 )  
               a(3) = (   0.000000   0.000000  10.319937 )  

     reciprocal axes: (cart. coord. in units 2 pi/alat)
               b(1) = (  1.000000  0.000000  0.000000 )  
               b(2) = (  0.000000  1.000000  0.000000 )  
               b(3) = (  0.000000  0.000000  0.096900 )  


     PseudoPot. # 1 for Mn read from file:
     ./pseudo/Mn.pbe-spn-kjpaw_psl.0.3.1.UPF
     MD5 check sum: 7b43a3fb0e93e198b8dd8488d8cf503e
     Pseudo is Projector augmented-wave + core cor, Zval = 15.0
     Generated using "atomic" code by A. Dal Corso v.5.0.99 svn rev. 10869
     Shape of augmentation charge: PSQ
     Using radial grid of 1187 points,  6 beta functions with: 
                l(1) =   0
                l(2) =   0
                l(3) =   1
                l(4) =   1
                l(5) =   2
                l(6) =   2
     Q(r) pseudized with 0 coefficients 


     PseudoPot. # 2 for Mn read from file:
     ./pseudo/Mn.pbe-spn-kjpaw_psl.0.3.1.UPF
     MD5 check sum: 7b43a3fb0e93e198b8dd8488d8cf503e
     Pseudo is Projector augmented-wave + core cor, Zval = 15.0
     Generated using "atomic" code by A. Dal Corso v.5.0.99 svn rev. 10869
     Shape of augmentation charge: PSQ
     Using radial grid of 1187 points,  6 beta functions with: 
                l(1) =   0
                l(2) =   0
                l(3) =   1
                l(4) =   1
                l(5) =   2
                l(6) =   2
     Q(r) pseudized with 0 coefficients 


     PseudoPot. # 3 for Au read from file:
     ./pseudo/Au.pbe-dn-kjpaw_psl.0.1.UPF
     MD5 check sum: be11e2e8e535ebe2b3ccfb4f88f554cb
     Pseudo is Projector augmented-wave + core cor, Zval = 11.0
     Generated using "atomic" code by A. Dal Corso v.5.0.2 svn rev. 9415
     Shape of augmentation charge: PSQ
     Using radial grid of 1279 points,  6 beta functions with: 
                l(1) =   0
                l(2) =   0
                l(3) =   1
                l(4) =   1
                l(5) =   2
                l(6) =   2
     Q(r) pseudized with 0 coefficients 


     atomic species   valence    mass     pseudopotential
        Mn1           15.00    54.93800     Mn( 1.00)
        Mn2           15.00    54.93800     Mn( 1.00)
        Au            11.00   196.96600     Au( 1.00)

     Starting magnetic structure 
     atomic species   magnetization
        Mn1          0.800
        Mn2         -0.800
        Au           0.000


     Full LDA+U calculation (l_max = 2) with parameters (eV):
     U(  1) =   3.1200   J(  1) =   0.7000   B(  1) =   0.0803
     U(  2) =   3.1200   J(  2) =   0.7000   B(  2) =   0.0803



     16 Sym. Ops., with inversion, found ( 8 have fractional translation)



   Cartesian axes

     site n.     atom                  positions (alat units)
         1           Mn1 tau(   1) = (   0.0000000   0.0000000   0.0000000  )
         2           Mn1 tau(   2) = (   0.5000000   0.5000000   1.2899921  )
         3           Mn1 tau(   3) = (   0.0000000   0.0000000   2.5799843  )
         4           Mn2 tau(   4) = (   0.5000000   0.5000000   3.8699764  )
         5           Mn1 tau(   5) = (   0.0000000   0.0000000   5.1599686  )
         6           Mn2 tau(   6) = (   0.5000000   0.5000000   6.4499607  )
         7           Mn1 tau(   7) = (   0.0000000   0.0000000   7.7399528  )
         8           Mn2 tau(   8) = (   0.5000000   0.5000000   9.0299450  )
         9           Au  tau(   9) = (   0.5000000   0.5000000   0.4127975  )
        10           Au  tau(  10) = (   0.0000000   0.0000000   0.8771947  )
        11           Au  tau(  11) = (   0.0000000   0.0000000   1.7027896  )
        12           Au  tau(  12) = (   0.5000000   0.5000000   2.1671868  )
        13           Au  tau(  13) = (   0.5000000   0.5000000   2.9927818  )
        14           Au  tau(  14) = (   0.0000000   0.0000000   3.4571789  )
        15           Au  tau(  15) = (   0.0000000   0.0000000   4.2827739  )
        16           Au  tau(  16) = (   0.5000000   0.5000000   4.7471711  )
        17           Au  tau(  17) = (   0.5000000   0.5000000   5.5727660  )
        18           Au  tau(  18) = (   0.0000000   0.0000000   6.0371632  )
        19           Au  tau(  19) = (   0.0000000   0.0000000   6.8627582  )
        20           Au  tau(  20) = (   0.5000000   0.5000000   7.3271553  )
        21           Au  tau(  21) = (   0.5000000   0.5000000   8.1527503  )
        22           Au  tau(  22) = (   0.0000000   0.0000000   8.6171475  )
        23           Au  tau(  23) = (   0.0000000   0.0000000   9.4427424  )
        24           Au  tau(  24) = (   0.5000000   0.5000000   9.9071396  )

     number of k points=    30 (tetrahedron method)
                       cart. coord. in units 2pi/alat
        k(    1) = (   0.0000000   0.0000000   0.0000000), wk =   0.0078125
        k(    2) = (   0.0000000   0.0000000  -0.0484499), wk =   0.0078125
        k(    3) = (   0.0000000   0.1250000   0.0000000), wk =   0.0312500
        k(    4) = (   0.0000000   0.1250000  -0.0484499), wk =   0.0312500
        k(    5) = (   0.0000000   0.2500000   0.0000000), wk =   0.0312500
        k(    6) = (   0.0000000   0.2500000  -0.0484499), wk =   0.0312500
        k(    7) = (   0.0000000   0.3750000   0.0000000), wk =   0.0312500
        k(    8) = (   0.0000000   0.3750000  -0.0484499), wk =   0.0312500
        k(    9) = (   0.0000000  -0.5000000   0.0000000), wk =   0.0156250
        k(   10) = (   0.0000000  -0.5000000  -0.0484499), wk =   0.0156250
        k(   11) = (   0.1250000   0.1250000   0.0000000), wk =   0.0312500
        k(   12) = (   0.1250000   0.1250000  -0.0484499), wk =   0.0312500
        k(   13) = (   0.1250000   0.2500000   0.0000000), wk =   0.0625000
        k(   14) = (   0.1250000   0.2500000  -0.0484499), wk =   0.0625000
        k(   15) = (   0.1250000   0.3750000   0.0000000), wk =   0.0625000
        k(   16) = (   0.1250000   0.3750000  -0.0484499), wk =   0.0625000
        k(   17) = (   0.1250000  -0.5000000   0.0000000), wk =   0.0312500
        k(   18) = (   0.1250000  -0.5000000  -0.0484499), wk =   0.0312500
        k(   19) = (   0.2500000   0.2500000   0.0000000), wk =   0.0312500
        k(   20) = (   0.2500000   0.2500000  -0.0484499), wk =   0.0312500
        k(   21) = (   0.2500000   0.3750000   0.0000000), wk =   0.0625000
        k(   22) = (   0.2500000   0.3750000  -0.0484499), wk =   0.0625000
        k(   23) = (   0.2500000  -0.5000000   0.0000000), wk =   0.0312500
        k(   24) = (   0.2500000  -0.5000000  -0.0484499), wk =   0.0312500
        k(   25) = (   0.3750000   0.3750000   0.0000000), wk =   0.0312500
        k(   26) = (   0.3750000   0.3750000  -0.0484499), wk =   0.0312500
        k(   27) = (   0.3750000  -0.5000000   0.0000000), wk =   0.0312500
        k(   28) = (   0.3750000  -0.5000000  -0.0484499), wk =   0.0312500
        k(   29) = (  -0.5000000  -0.5000000   0.0000000), wk =   0.0078125
        k(   30) = (  -0.5000000  -0.5000000  -0.0484499), wk =   0.0078125

     Dense  grid:   368373 G-vectors     FFT dimensions: (  45,  45, 432)

     Smooth grid:   111379 G-vectors     FFT dimensions: (  27,  27, 288)

     Estimated max dynamical RAM per process >     143.50 MB

     Estimated total dynamical RAM >       4.48 GB
     Generating pointlists ...
     new r_m :   0.3377 (alat units)  2.1668 (a.u.) for type    1
     new r_m :   0.3377 (alat units)  2.1668 (a.u.) for type    2
     new r_m :   0.3377 (alat units)  2.1668 (a.u.) for type    3

     Check: negative/imaginary core charge=   -0.000006    0.000000

     Initial potential from superposition of free atoms

     starting charge  295.99426, renormalised to  296.00000
     Number of +U iterations with fixed ns =  0
     Starting occupations:
 --- enter write_ns ---
 LDA+U parameters:
U(  1) =   3.1200   J(  1) =   0.7000   B(  1) =   0.0803
U(  2) =   3.1200   J(  2) =   0.7000   B(  2) =   0.0803
atom    1   Tr[ns(na)] (up, down, total) =   5.00000  0.00000  5.00000
   spin  1
    eigenvalues: 
  1.000  1.000  1.000  1.000  1.000
    eigenvectors:
  1.000  0.000  0.000  0.000  0.000
  0.000  1.000  0.000  0.000  0.000
  0.000  0.000  1.000  0.000  0.000
  0.000  0.000  0.000  1.000  0.000
  0.000  0.000  0.000  0.000  1.000
    occupations:
  1.000  0.000  0.000  0.000  0.000
  0.000  1.000  0.000  0.000  0.000
  0.000  0.000  1.000  0.000  0.000
  0.000  0.000  0.000  1.000  0.000
  0.000  0.000  0.000  0.000  1.000
   spin  2
    eigenvalues: 
  0.000  0.000  0.000  0.000  0.000
    eigenvectors:
  1.000  0.000  0.000  0.000  0.000
  0.000  1.000  0.000  0.000  0.000
  0.000  0.000  1.000  0.000  0.000
  0.000  0.000  0.000  1.000  0.000
  0.000  0.000  0.000  0.000  1.000
    occupations:
  0.000  0.000  0.000  0.000  0.000
  0.000  0.000  0.000  0.000  0.000
  0.000  0.000  0.000  0.000  0.000
  0.000  0.000  0.000  0.000  0.000
  0.000  0.000  0.000  0.000  0.000
atomic mag. moment =     5.000000
atom    2   Tr[ns(na)] (up, down, total) =   5.00000  0.00000  5.00000
   spin  1
    eigenvalues: 
  1.000  1.000  1.000  1.000  1.000
    eigenvectors:
  1.000  0.000  0.000  0.000  0.000
  0.000  1.000  0.000  0.000  0.000
  0.000  0.000  1.000  0.000  0.000
  0.000  0.000  0.000  1.000  0.000
  0.000  0.000  0.000  0.000  1.000
    occupations:
  1.000  0.000  0.000  0.000  0.000
  0.000  1.000  0.000  0.000  0.000
  0.000  0.000  1.000  0.000  0.000
  0.000  0.000  0.000  1.000  0.000
  0.000  0.000  0.000  0.000  1.000
   spin  2
    eigenvalues: 
  0.000  0.000  0.000  0.000  0.000
    eigenvectors:
  1.000  0.000  0.000  0.000  0.000
  0.000  1.000  0.000  0.000  0.000
  0.000  0.000  1.000  0.000  0.000
  0.000  0.000  0.000  1.000  0.000
  0.000  0.000  0.000  0.000  1.000
    occupations:
  0.000  0.000  0.000  0.000  0.000
  0.000  0.000  0.000  0.000  0.000
  0.000  0.000  0.000  0.000  0.000
  0.000  0.000  0.000  0.000  0.000
  0.000  0.000  0.000  0.000  0.000
atomic mag. moment =     5.000000
atom    3   Tr[ns(na)] (up, down, total) =   5.00000  0.00000  5.00000
   spin  1
    eigenvalues: 
  1.000  1.000  1.000  1.000  1.000
    eigenvectors:
  1.000  0.000  0.000  0.000  0.000
  0.000  1.000  0.000  0.000  0.000
  0.000  0.000  1.000  0.000  0.000
  0.000  0.000  0.000  1.000  0.000
  0.000  0.000  0.000  0.000  1.000
    occupations:
  1.000  0.000  0.000  0.000  0.000
  0.000  1.000  0.000  0.000  0.000
  0.000  0.000  1.000  0.000  0.000
  0.000  0.000  0.000  1.000  0.000
  0.000  0.000  0.000  0.000  1.000
   spin  2
    eigenvalues: 
  0.000  0.000  0.000  0.000  0.000
    eigenvectors:
  1.000  0.000  0.000  0.000  0.000
  0.000  1.000  0.000  0.000  0.000
  0.000  0.000  1.000  0.000  0.000
  0.000  0.000  0.000  1.000  0.000
  0.000  0.000  0.000  0.000  1.000
    occupations:
  0.000  0.000  0.000  0.000  0.000
  0.000  0.000  0.000  0.000  0.000
  0.000  0.000  0.000  0.000  0.000
  0.000  0.000  0.000  0.000  0.000
  0.000  0.000  0.000  0.000  0.000
atomic mag. moment =     5.000000
atom    4   Tr[ns(na)] (up, down, total) =   0.00000  5.00000  5.00000
   spin  1
    eigenvalues: 
  0.000  0.000  0.000  0.000  0.000
    eigenvectors:
  1.000  0.000  0.000  0.000  0.000
  0.000  1.000  0.000  0.000  0.000
  0.000  0.000  1.000  0.000  0.000
  0.000  0.000  0.000  1.000  0.000
  0.000  0.000  0.000  0.000  1.000
    occupations:
  0.000  0.000  0.000  0.000  0.000
  0.000  0.000  0.000  0.000  0.000
  0.000  0.000  0.000  0.000  0.000
  0.000  0.000  0.000  0.000  0.000
  0.000  0.000  0.000  0.000  0.000
   spin  2
    eigenvalues: 
  1.000  1.000  1.000  1.000  1.000
    eigenvectors:
  1.000  0.000  0.000  0.000  0.000
  0.000  1.000  0.000  0.000  0.000
  0.000  0.000  1.000  0.000  0.000
  0.000  0.000  0.000  1.000  0.000
  0.000  0.000  0.000  0.000  1.000
    occupations:
  1.000  0.000  0.000  0.000  0.000
  0.000  1.000  0.000  0.000  0.000
  0.000  0.000  1.000  0.000  0.000
  0.000  0.000  0.000  1.000  0.000
  0.000  0.000  0.000  0.000  1.000
atomic mag. moment =    -5.000000
atom    5   Tr[ns(na)] (up, down, total) =   5.00000  0.00000  5.00000
   spin  1
    eigenvalues: 
  1.000  1.000  1.000  1.000  1.000
    eigenvectors:
  1.000  0.000  0.000  0.000  0.000
  0.000  1.000  0.000  0.000  0.000
  0.000  0.000  1.000  0.000  0.000
  0.000  0.000  0.000  1.000  0.000
  0.000  0.000  0.000  0.000  1.000
    occupations:
  1.000  0.000  0.000  0.000  0.000
  0.000  1.000  0.000  0.000  0.000
  0.000  0.000  1.000  0.000  0.000
  0.000  0.000  0.000  1.000  0.000
  0.000  0.000  0.000  0.000  1.000
   spin  2
    eigenvalues: 
  0.000  0.000  0.000  0.000  0.000
    eigenvectors:
  1.000  0.000  0.000  0.000  0.000
  0.000  1.000  0.000  0.000  0.000
  0.000  0.000  1.000  0.000  0.000
  0.000  0.000  0.000  1.000  0.000
  0.000  0.000  0.000  0.000  1.000
    occupations:
  0.000  0.000  0.000  0.000  0.000
  0.000  0.000  0.000  0.000  0.000
  0.000  0.000  0.000  0.000  0.000
  0.000  0.000  0.000  0.000  0.000
  0.000  0.000  0.000  0.000  0.000
atomic mag. moment =     5.000000
atom    6   Tr[ns(na)] (up, down, total) =   0.00000  5.00000  5.00000
   spin  1
    eigenvalues: 
  0.000  0.000  0.000  0.000  0.000
    eigenvectors:
  1.000  0.000  0.000  0.000  0.000
  0.000  1.000  0.000  0.000  0.000
  0.000  0.000  1.000  0.000  0.000
  0.000  0.000  0.000  1.000  0.000
  0.000  0.000  0.000  0.000  1.000
    occupations:
  0.000  0.000  0.000  0.000  0.000
  0.000  0.000  0.000  0.000  0.000
  0.000  0.000  0.000  0.000  0.000
  0.000  0.000  0.000  0.000  0.000
  0.000  0.000  0.000  0.000  0.000
   spin  2
    eigenvalues: 
  1.000  1.000  1.000  1.000  1.000
    eigenvectors:
  1.000  0.000  0.000  0.000  0.000
  0.000  1.000  0.000  0.000  0.000
  0.000  0.000  1.000  0.000  0.000
  0.000  0.000  0.000  1.000  0.000
  0.000  0.000  0.000  0.000  1.000
    occupations:
  1.000  0.000  0.000  0.000  0.000
  0.000  1.000  0.000  0.000  0.000
  0.000  0.000  1.000  0.000  0.000
  0.000  0.000  0.000  1.000  0.000
  0.000  0.000  0.000  0.000  1.000
atomic mag. moment =    -5.000000
atom    7   Tr[ns(na)] (up, down, total) =   5.00000  0.00000  5.00000
   spin  1
    eigenvalues: 
  1.000  1.000  1.000  1.000  1.000
    eigenvectors:
  1.000  0.000  0.000  0.000  0.000
  0.000  1.000  0.000  0.000  0.000
  0.000  0.000  1.000  0.000  0.000
  0.000  0.000  0.000  1.000  0.000
  0.000  0.000  0.000  0.000  1.000
    occupations:
  1.000  0.000  0.000  0.000  0.000
  0.000  1.000  0.000  0.000  0.000
  0.000  0.000  1.000  0.000  0.000
  0.000  0.000  0.000  1.000  0.000
  0.000  0.000  0.000  0.000  1.000
   spin  2
    eigenvalues: 
  0.000  0.000  0.000  0.000  0.000
    eigenvectors:
  1.000  0.000  0.000  0.000  0.000
  0.000  1.000  0.000  0.000  0.000
  0.000  0.000  1.000  0.000  0.000
  0.000  0.000  0.000  1.000  0.000
  0.000  0.000  0.000  0.000  1.000
    occupations:
  0.000  0.000  0.000  0.000  0.000
  0.000  0.000  0.000  0.000  0.000
  0.000  0.000  0.000  0.000  0.000
  0.000  0.000  0.000  0.000  0.000
  0.000  0.000  0.000  0.000  0.000
atomic mag. moment =     5.000000
atom    8   Tr[ns(na)] (up, down, total) =   0.00000  5.00000  5.00000
   spin  1
    eigenvalues: 
  0.000  0.000  0.000  0.000  0.000
    eigenvectors:
  1.000  0.000  0.000  0.000  0.000
  0.000  1.000  0.000  0.000  0.000
  0.000  0.000  1.000  0.000  0.000
  0.000  0.000  0.000  1.000  0.000
  0.000  0.000  0.000  0.000  1.000
    occupations:
  0.000  0.000  0.000  0.000  0.000
  0.000  0.000  0.000  0.000  0.000
  0.000  0.000  0.000  0.000  0.000
  0.000  0.000  0.000  0.000  0.000
  0.000  0.000  0.000  0.000  0.000
   spin  2
    eigenvalues: 
  1.000  1.000  1.000  1.000  1.000
    eigenvectors:
  1.000  0.000  0.000  0.000  0.000
  0.000  1.000  0.000  0.000  0.000
  0.000  0.000  1.000  0.000  0.000
  0.000  0.000  0.000  1.000  0.000
  0.000  0.000  0.000  0.000  1.000
    occupations:
  1.000  0.000  0.000  0.000  0.000
  0.000  1.000  0.000  0.000  0.000
  0.000  0.000  1.000  0.000  0.000
  0.000  0.000  0.000  1.000  0.000
  0.000  0.000  0.000  0.000  1.000
atomic mag. moment =    -5.000000
N of occupied +U levels =   40.000000
 --- exit write_ns ---
 Atomic wfc used for LDA+U Projector are NOT orthogonalized
     Starting wfcs are  224 randomized atomic wfcs
     Checking if some PAW data can be deallocated... 

     total cpu time spent up to now is       18.8 secs

     Self-consistent Calculation

     iteration #  1     ecut=    45.00 Ry     beta= 0.10
     Davidson diagonalization with overlap
     ethr =  1.00E-02,  avg # of iterations =  4.1
 --- enter write_ns ---
 LDA+U parameters:
U(  1) =   3.1200   J(  1) =   0.7000   B(  1) =   0.0803
U(  2) =   3.1200   J(  2) =   0.7000   B(  2) =   0.0803
atom    1   Tr[ns(na)] (up, down, total) =   5.01744  0.40545  5.42288
   spin  1
    eigenvalues: 
  1.003  1.003  1.003  1.004  1.004
    eigenvectors:
  0.000  0.000  0.000  1.000  0.000
  0.000  0.150  0.850  0.000  0.000
  0.000  0.850  0.150  0.000  0.000
  0.000  0.000  0.000  0.000  1.000
  1.000  0.000  0.000  0.000  0.000
    occupations:
  1.004 -0.000 -0.000  0.000  0.000
 -0.000  1.003 -0.000  0.000  0.000
 -0.000 -0.000  1.003  0.000  0.000
  0.000  0.000  0.000  1.004 -0.000
  0.000  0.000  0.000 -0.000  1.003
   spin  2
    eigenvalues: 
  0.053  0.072  0.080  0.080  0.120
    eigenvectors:
  0.000  1.000  0.000  0.000  0.000
  0.000  0.000  0.159  0.841  0.000
  0.000  0.000  0.841  0.159  0.000
  1.000  0.000  0.000  0.000  0.000
  0.000  0.000  0.000  0.000  1.000
    occupations:
  0.072 -0.000 -0.000  0.000  0.000
 -0.000  0.080 -0.000  0.000  0.000
 -0.000 -0.000  0.080  0.000  0.000
  0.000  0.000  0.000  0.053 -0.000
  0.000  0.000  0.000 -0.000  0.120
atomic mag. moment =     4.611989
atom    2   Tr[ns(na)] (up, down, total) =   5.01759  0.40223  5.41982
   spin  1
    eigenvalues: 
  1.003  1.003  1.003  1.004  1.004
    eigenvectors:
  0.000  0.000  0.000  1.000  0.000
  0.000  0.150  0.850  0.000  0.000
  0.000  0.850  0.150  0.000  0.000
  0.000  0.000  0.000  0.000  1.000
  1.000  0.000  0.000  0.000  0.000
    occupations:
  1.004 -0.000 -0.000  0.000  0.000
 -0.000  1.003 -0.000  0.000  0.000
 -0.000 -0.000  1.003  0.000  0.000
  0.000  0.000  0.000  1.004 -0.000
  0.000  0.000  0.000 -0.000  1.003
   spin  2
    eigenvalues: 
  0.053  0.075  0.081  0.081  0.113
    eigenvectors:
  0.000  1.000  0.000  0.000  0.000
  0.000  0.000  0.131  0.869  0.000
  0.000  0.000  0.869  0.131  0.000
  1.000  0.000  0.000  0.000  0.000
  0.000  0.000  0.000  0.000  1.000
    occupations:
  0.075 -0.000 -0.000  0.000  0.000
 -0.000  0.081 -0.000  0.000  0.000
 -0.000 -0.000  0.081  0.000  0.000
  0.000  0.000  0.000  0.053 -0.000
  0.000  0.000  0.000 -0.000  0.113
atomic mag. moment =     4.615366
atom    3   Tr[ns(na)] (up, down, total) =   5.01744  0.40545  5.42288
   spin  1
    eigenvalues: 
  1.003  1.003  1.003  1.004  1.004
    eigenvectors:
  0.000  0.000  0.000  1.000  0.000
  0.000  0.108  0.892  0.000  0.000
  0.000  0.892  0.108  0.000  0.000
  0.000  0.000  0.000  0.000  1.000
  1.000  0.000  0.000  0.000  0.000
    occupations:
  1.004 -0.000 -0.000  0.000  0.000
 -0.000  1.003 -0.000  0.000  0.000
 -0.000 -0.000  1.003  0.000  0.000
  0.000  0.000  0.000  1.004 -0.000
  0.000  0.000  0.000 -0.000  1.003
   spin  2
    eigenvalues: 
  0.053  0.072  0.080  0.080  0.120
    eigenvectors:
  0.000  1.000  0.000  0.000  0.000
  0.000  0.000  0.187  0.813  0.000
  0.000  0.000  0.813  0.187  0.000
  1.000  0.000  0.000  0.000  0.000
  0.000  0.000  0.000  0.000  1.000
    occupations:
  0.072 -0.000 -0.000  0.000  0.000
 -0.000  0.080 -0.000  0.000  0.000
 -0.000 -0.000  0.080  0.000  0.000
  0.000  0.000  0.000  0.053 -0.000
  0.000  0.000  0.000 -0.000  0.120
atomic mag. moment =     4.611989
atom    4   Tr[ns(na)] (up, down, total) =   0.41169  5.01726  5.42895
   spin  1
    eigenvalues: 
  0.053  0.074  0.080  0.080  0.124
    eigenvectors:
  0.000  1.000  0.000  0.000  0.000
  0.000  0.000  0.113  0.887  0.000
  0.000  0.000  0.887  0.113  0.000
  1.000  0.000  0.000  0.000  0.000
  0.000  0.000  0.000  0.000  1.000
    occupations:
  0.074 -0.000 -0.000  0.000  0.000
 -0.000  0.080 -0.000  0.000  0.000
 -0.000 -0.000  0.080  0.000  0.000
  0.000  0.000  0.000  0.053 -0.000
  0.000  0.000  0.000 -0.000  0.124
   spin  2
    eigenvalues: 
  1.003  1.003  1.003  1.004  1.004
    eigenvectors:
  0.000  0.000  0.000  1.000  0.000
  0.000  0.123  0.877  0.000  0.000
  0.000  0.877  0.123  0.000  0.000
  0.000  0.000  0.000  0.000  1.000
  1.000  0.000  0.000  0.000  0.000
    occupations:
  1.004 -0.000 -0.000  0.000  0.000
 -0.000  1.003 -0.000  0.000  0.000
 -0.000 -0.000  1.003  0.000  0.000
  0.000  0.000  0.000  1.004 -0.000
  0.000  0.000  0.000 -0.000  1.003
atomic mag. moment =    -4.605572
atom    5   Tr[ns(na)] (up, down, total) =   5.01731  0.41089  5.42821
   spin  1
    eigenvalues: 
  1.003  1.003  1.003  1.004  1.004
    eigenvectors:
  0.000  0.000  0.000  1.000  0.000
  0.000  0.116  0.884  0.000  0.000
  0.000  0.884  0.116  0.000  0.000
  0.000  0.000  0.000  0.000  1.000
  1.000  0.000  0.000  0.000  0.000
    occupations:
  1.004 -0.000 -0.000  0.000  0.000
 -0.000  1.003 -0.000  0.000  0.000
 -0.000 -0.000  1.003  0.000  0.000
  0.000  0.000  0.000  1.004 -0.000
  0.000  0.000  0.000 -0.000  1.003
   spin  2
    eigenvalues: 
  0.053  0.073  0.080  0.080  0.126
    eigenvectors:
  0.000  1.000  0.000  0.000  0.000
  0.000  0.000  0.145  0.855  0.000
  0.000  0.000  0.855  0.145  0.000
  1.000  0.000  0.000  0.000  0.000
  0.000  0.000  0.000  0.000  1.000
    occupations:
  0.073 -0.000 -0.000  0.000  0.000
 -0.000  0.080 -0.000  0.000  0.000
 -0.000 -0.000  0.080  0.000  0.000
  0.000  0.000  0.000  0.053 -0.000
  0.000  0.000  0.000 -0.000  0.126
atomic mag. moment =     4.606418
atom    6   Tr[ns(na)] (up, down, total) =   0.40888  5.01749  5.42638
   spin  1
    eigenvalues: 
  0.053  0.072  0.080  0.080  0.125
    eigenvectors:
  0.000  1.000  0.000  0.000  0.000
  0.000  0.000  0.111  0.889  0.000
  0.000  0.000  0.889  0.111  0.000
  1.000  0.000  0.000  0.000  0.000
  0.000  0.000  0.000  0.000  1.000
    occupations:
  0.072 -0.000 -0.000  0.000  0.000
 -0.000  0.080 -0.000  0.000  0.000
 -0.000 -0.000  0.080  0.000  0.000
  0.000  0.000  0.000  0.053 -0.000
  0.000  0.000  0.000 -0.000  0.125
   spin  2
    eigenvalues: 
  1.003  1.003  1.003  1.004  1.004
    eigenvectors:
  0.000  0.000  0.000  1.000  0.000
  0.000  0.127  0.873  0.000  0.000
  0.000  0.873  0.127  0.000  0.000
  0.000  0.000  0.000  0.000  1.000
  1.000  0.000  0.000  0.000  0.000
    occupations:
  1.004 -0.000 -0.000  0.000  0.000
 -0.000  1.003 -0.000  0.000  0.000
 -0.000 -0.000  1.003  0.000  0.000
  0.000  0.000  0.000  1.004 -0.000
  0.000  0.000  0.000 -0.000  1.003
atomic mag. moment =    -4.608607
atom    7   Tr[ns(na)] (up, down, total) =   5.01731  0.41089  5.42821
   spin  1
    eigenvalues: 
  1.003  1.003  1.003  1.004  1.004
    eigenvectors:
  0.000  0.000  0.000  1.000  0.000
  0.000  0.140  0.860  0.000  0.000
  0.000  0.860  0.140  0.000  0.000
  0.000  0.000  0.000  0.000  1.000
  1.000  0.000  0.000  0.000  0.000
    occupations:
  1.004 -0.000 -0.000  0.000  0.000
 -0.000  1.003 -0.000  0.000  0.000
 -0.000 -0.000  1.003  0.000  0.000
  0.000  0.000  0.000  1.004 -0.000
  0.000  0.000  0.000 -0.000  1.003
   spin  2
    eigenvalues: 
  0.053  0.073  0.080  0.080  0.126
    eigenvectors:
  0.000  1.000  0.000  0.000  0.000
  0.000  0.000  0.111  0.889  0.000
  0.000  0.000  0.889  0.111  0.000
  1.000  0.000  0.000  0.000  0.000
  0.000  0.000  0.000  0.000  1.000
    occupations:
  0.073 -0.000 -0.000  0.000  0.000
 -0.000  0.080 -0.000  0.000  0.000
 -0.000 -0.000  0.080  0.000  0.000
  0.000  0.000  0.000  0.053 -0.000
  0.000  0.000  0.000 -0.000  0.126
atomic mag. moment =     4.606418
atom    8   Tr[ns(na)] (up, down, total) =   0.41169  5.01726  5.42895
   spin  1
    eigenvalues: 
  0.053  0.074  0.080  0.080  0.124
    eigenvectors:
  0.000  1.000  0.000  0.000  0.000
  0.000  0.000  0.147  0.853  0.000
  0.000  0.000  0.853  0.147  0.000
  1.000  0.000  0.000  0.000  0.000
  0.000  0.000  0.000  0.000  1.000
    occupations:
  0.074 -0.000 -0.000  0.000  0.000
 -0.000  0.080 -0.000  0.000  0.000
 -0.000 -0.000  0.080  0.000  0.000
  0.000  0.000  0.000  0.053 -0.000
  0.000  0.000  0.000 -0.000  0.124
   spin  2
    eigenvalues: 
  1.003  1.003  1.003  1.004  1.004
    eigenvectors:
  0.000  0.000  0.000  1.000  0.000
  0.000  0.095  0.905  0.000  0.000
  0.000  0.905  0.095  0.000  0.000
  0.000  0.000  0.000  0.000  1.000
  1.000  0.000  0.000  0.000  0.000
    occupations:
  1.004 -0.000 -0.000  0.000  0.000
 -0.000  1.003 -0.000  0.000  0.000
 -0.000 -0.000  1.003  0.000  0.000
  0.000  0.000  0.000  1.004 -0.000
  0.000  0.000  0.000 -0.000  1.003
atomic mag. moment =    -4.605572
N of occupied +U levels =   43.406274
 --- exit write_ns ---

     total cpu time spent up to now is       62.8 secs

     total energy              =  -14687.28342878 Ry
     Harris-Foulkes estimate   =  -14685.82494727 Ry
     estimated scf accuracy    <      11.56483328 Ry

     total magnetization       =    10.08 Bohr mag/cell
     absolute magnetization    =    41.62 Bohr mag/cell

     iteration #  2     ecut=    45.00 Ry     beta= 0.10
     Davidson diagonalization with overlap
     ethr =  3.91E-03,  avg # of iterations =  1.0

     total cpu time spent up to now is       87.3 secs

     total energy              =  -14689.18200104 Ry
     Harris-Foulkes estimate   =  -14687.35998001 Ry
     estimated scf accuracy    <       9.76667555 Ry

     total magnetization       =     9.87 Bohr mag/cell
     absolute magnetization    =    41.26 Bohr mag/cell

     iteration #  3     ecut=    45.00 Ry     beta= 0.10
     Davidson diagonalization with overlap
     ethr =  3.30E-03,  avg # of iterations =  4.6

     total cpu time spent up to now is      128.5 secs

     total energy              =  -14691.72875052 Ry
     Harris-Foulkes estimate   =  -14690.67272574 Ry
     estimated scf accuracy    <     148.18623141 Ry

     total magnetization       =    10.16 Bohr mag/cell
     absolute magnetization    =    40.50 Bohr mag/cell

     iteration #  4     ecut=    45.00 Ry     beta= 0.10
     Davidson diagonalization with overlap
     ethr =  3.30E-03,  avg # of iterations =  3.8

     total cpu time spent up to now is      166.9 secs

     total energy              =  -14695.10612471 Ry
     Harris-Foulkes estimate   =  -14694.20185410 Ry
     estimated scf accuracy    <       3.58428573 Ry

     total magnetization       =     9.25 Bohr mag/cell
     absolute magnetization    =    38.54 Bohr mag/cell

     iteration #  5     ecut=    45.00 Ry     beta= 0.10
     Davidson diagonalization with overlap
     ethr =  1.21E-03,  avg # of iterations =  4.4

     total cpu time spent up to now is      206.0 secs

     total energy              =  -14692.76845996 Ry
     Harris-Foulkes estimate   =  -14695.26689264 Ry
     estimated scf accuracy    <       7.36292322 Ry

     total magnetization       =     8.97 Bohr mag/cell
     absolute magnetization    =    37.60 Bohr mag/cell

     iteration #  6     ecut=    45.00 Ry     beta= 0.10
     Davidson diagonalization with overlap
     ethr =  1.21E-03,  avg # of iterations =  5.0

     total cpu time spent up to now is      269.5 secs

     total energy              =  -14693.90282379 Ry
     Harris-Foulkes estimate   =  -14693.86365180 Ry
     estimated scf accuracy    <       1.48247004 Ry

     total magnetization       =     9.21 Bohr mag/cell
     absolute magnetization    =    38.24 Bohr mag/cell

     iteration #  7     ecut=    45.00 Ry     beta= 0.10
     Davidson diagonalization with overlap
     ethr =  5.01E-04,  avg # of iterations =  2.0

     total cpu time spent up to now is      297.8 secs

     total energy              =  -14693.96328348 Ry
     Harris-Foulkes estimate   =  -14693.96946867 Ry
     estimated scf accuracy    <       0.21411373 Ry

     total magnetization       =     8.96 Bohr mag/cell
     absolute magnetization    =    38.03 Bohr mag/cell

     iteration #  8     ecut=    45.00 Ry     beta= 0.10
     Davidson diagonalization with overlap
     ethr =  7.23E-05,  avg # of iterations =  4.2

     total cpu time spent up to now is      338.8 secs

     total energy              =  -14693.99477018 Ry
     Harris-Foulkes estimate   =  -14693.98715903 Ry
     estimated scf accuracy    <       0.07006855 Ry

     total magnetization       =     8.86 Bohr mag/cell
     absolute magnetization    =    37.57 Bohr mag/cell

     iteration #  9     ecut=    45.00 Ry     beta= 0.10
     Davidson diagonalization with overlap
     ethr =  2.37E-05,  avg # of iterations =  2.3

     total cpu time spent up to now is      368.5 secs

     total energy              =  -14693.99230776 Ry
     Harris-Foulkes estimate   =  -14693.99945035 Ry
     estimated scf accuracy    <       0.09562356 Ry

     total magnetization       =     8.79 Bohr mag/cell
     absolute magnetization    =    37.35 Bohr mag/cell

     iteration # 10     ecut=    45.00 Ry     beta= 0.10
     Davidson diagonalization with overlap
     ethr =  2.37E-05,  avg # of iterations =  1.1

     total cpu time spent up to now is      393.3 secs

     total energy              =  -14693.99149328 Ry
     Harris-Foulkes estimate   =  -14693.99500787 Ry
     estimated scf accuracy    <       0.03804434 Ry

     total magnetization       =     8.78 Bohr mag/cell
     absolute magnetization    =    37.36 Bohr mag/cell

     iteration # 11     ecut=    45.00 Ry     beta= 0.10
     Davidson diagonalization with overlap
     ethr =  1.29E-05,  avg # of iterations =  2.5

     total cpu time spent up to now is      424.2 secs

     total energy              =  -14693.99519127 Ry
     Harris-Foulkes estimate   =  -14693.99377769 Ry
     estimated scf accuracy    <       0.00660688 Ry

     total magnetization       =     8.80 Bohr mag/cell
     absolute magnetization    =    37.47 Bohr mag/cell

     iteration # 12     ecut=    45.00 Ry     beta= 0.10
     Davidson diagonalization with overlap
     ethr =  2.23E-06,  avg # of iterations =  5.0

     total cpu time spent up to now is      472.6 secs

     total energy              =  -14693.99614975 Ry
     Harris-Foulkes estimate   =  -14693.99615344 Ry
     estimated scf accuracy    <       0.00165678 Ry

     total magnetization       =     8.78 Bohr mag/cell
     absolute magnetization    =    37.39 Bohr mag/cell

     iteration # 13     ecut=    45.00 Ry     beta= 0.10
     Davidson diagonalization with overlap
     ethr =  5.60E-07,  avg # of iterations =  3.5

     total cpu time spent up to now is      513.0 secs

     total energy              =  -14693.99662673 Ry
     Harris-Foulkes estimate   =  -14693.99645395 Ry
     estimated scf accuracy    <       0.00482278 Ry

     total magnetization       =     8.78 Bohr mag/cell
     absolute magnetization    =    37.38 Bohr mag/cell

     iteration # 14     ecut=    45.00 Ry     beta= 0.10
     Davidson diagonalization with overlap
     ethr =  5.60E-07,  avg # of iterations =  1.0

     total cpu time spent up to now is      537.5 secs

     total energy              =  -14693.99681662 Ry
     Harris-Foulkes estimate   =  -14693.99674172 Ry
     estimated scf accuracy    <       0.00125242 Ry

     total magnetization       =     8.77 Bohr mag/cell
     absolute magnetization    =    37.38 Bohr mag/cell

     iteration # 15     ecut=    45.00 Ry     beta= 0.10
     Davidson diagonalization with overlap
     ethr =  4.23E-07,  avg # of iterations =  2.0

     total cpu time spent up to now is      567.3 secs

     total energy              =  -14693.99695014 Ry
     Harris-Foulkes estimate   =  -14693.99691656 Ry
     estimated scf accuracy    <       0.00013232 Ry

     total magnetization       =     8.76 Bohr mag/cell
     absolute magnetization    =    37.37 Bohr mag/cell

     iteration # 16     ecut=    45.00 Ry     beta= 0.10
     Davidson diagonalization with overlap
     ethr =  4.47E-08,  avg # of iterations =  2.4

     total cpu time spent up to now is      597.4 secs

     total energy              =  -14693.99697924 Ry
     Harris-Foulkes estimate   =  -14693.99695598 Ry
     estimated scf accuracy    <       0.00008638 Ry

     total magnetization       =     8.76 Bohr mag/cell
     absolute magnetization    =    37.37 Bohr mag/cell

     iteration # 17     ecut=    45.00 Ry     beta= 0.10
     Davidson diagonalization with overlap
     ethr =  2.92E-08,  avg # of iterations =  2.0

     total cpu time spent up to now is      625.6 secs

     total energy              =  -14693.99701781 Ry
     Harris-Foulkes estimate   =  -14693.99698195 Ry
     estimated scf accuracy    <       0.00010908 Ry

     total magnetization       =     8.76 Bohr mag/cell
     absolute magnetization    =    37.36 Bohr mag/cell

     iteration # 18     ecut=    45.00 Ry     beta= 0.10
     Davidson diagonalization with overlap
     ethr =  2.92E-08,  avg # of iterations =  1.9

     total cpu time spent up to now is      653.9 secs

     total energy              =  -14693.99703621 Ry
     Harris-Foulkes estimate   =  -14693.99702680 Ry
     estimated scf accuracy    <       0.00002458 Ry

     total magnetization       =     8.76 Bohr mag/cell
     absolute magnetization    =    37.36 Bohr mag/cell

     iteration # 19     ecut=    45.00 Ry     beta= 0.10
     Davidson diagonalization with overlap
     ethr =  8.30E-09,  avg # of iterations =  2.3

     total cpu time spent up to now is      685.4 secs

     total energy              =  -14693.99704264 Ry
     Harris-Foulkes estimate   =  -14693.99703710 Ry
     estimated scf accuracy    <       0.00000742 Ry

     total magnetization       =     8.76 Bohr mag/cell
     absolute magnetization    =    37.35 Bohr mag/cell

     iteration # 20     ecut=    45.00 Ry     beta= 0.10
     Davidson diagonalization with overlap
     ethr =  2.51E-09,  avg # of iterations =  2.9

     total cpu time spent up to now is      718.5 secs

     total energy              =  -14693.99704591 Ry
     Harris-Foulkes estimate   =  -14693.99704251 Ry
     estimated scf accuracy    <       0.00000367 Ry

     total magnetization       =     8.76 Bohr mag/cell
     absolute magnetization    =    37.35 Bohr mag/cell

     iteration # 21     ecut=    45.00 Ry     beta= 0.10
     Davidson diagonalization with overlap
     ethr =  1.24E-09,  avg # of iterations =  2.6

     total cpu time spent up to now is      750.2 secs

     total energy              =  -14693.99704879 Ry
     Harris-Foulkes estimate   =  -14693.99704637 Ry
     estimated scf accuracy    <       0.00000198 Ry

     total magnetization       =     8.76 Bohr mag/cell
     absolute magnetization    =    37.36 Bohr mag/cell

     iteration # 22     ecut=    45.00 Ry     beta= 0.10
     Davidson diagonalization with overlap
     ethr =  6.67E-10,  avg # of iterations =  2.3

     total cpu time spent up to now is      780.7 secs

     total energy              =  -14693.99705029 Ry
     Harris-Foulkes estimate   =  -14693.99704847 Ry
     estimated scf accuracy    <       0.00000104 Ry

     total magnetization       =     8.76 Bohr mag/cell
     absolute magnetization    =    37.35 Bohr mag/cell

     iteration # 23     ecut=    45.00 Ry     beta= 0.10
     Davidson diagonalization with overlap
     ethr =  3.52E-10,  avg # of iterations =  2.5

     total cpu time spent up to now is      812.7 secs

     total energy              =  -14693.99705290 Ry
     Harris-Foulkes estimate   =  -14693.99705148 Ry
     estimated scf accuracy    <       0.00000342 Ry

     total magnetization       =     8.76 Bohr mag/cell
     absolute magnetization    =    37.35 Bohr mag/cell

     iteration # 24     ecut=    45.00 Ry     beta= 0.10
     Davidson diagonalization with overlap
     ethr =  3.52E-10,  avg # of iterations =  2.0

     total cpu time spent up to now is      841.7 secs

     total energy              =  -14693.99705199 Ry
     Harris-Foulkes estimate   =  -14693.99705076 Ry
     estimated scf accuracy    <       0.00000193 Ry

     total magnetization       =     8.76 Bohr mag/cell
     absolute magnetization    =    37.35 Bohr mag/cell

     iteration # 25     ecut=    45.00 Ry     beta= 0.10
     Davidson diagonalization with overlap
     ethr =  3.52E-10,  avg # of iterations =  2.0
 
     Magnetic moment per site:
     atom:    1    charge:   13.5461    magn:    4.2476    constr:    0.0000
     atom:    2    charge:   13.5522    magn:    4.2064    constr:    0.0000
     atom:    3    charge:   13.5461    magn:    4.2476    constr:    0.0000
     atom:    4    charge:   13.5449    magn:   -4.2539    constr:    0.0000
     atom:    5    charge:   13.5416    magn:    4.2735    constr:    0.0000
     atom:    6    charge:   13.5411    magn:   -4.2776    constr:    0.0000
     atom:    7    charge:   13.5416    magn:    4.2735    constr:    0.0000
     atom:    8    charge:   13.5449    magn:   -4.2539    constr:    0.0000
     atom:    9    charge:    9.1221    magn:    0.0342    constr:    0.0000
     atom:   10    charge:    9.1226    magn:    0.0383    constr:    0.0000
     atom:   11    charge:    9.1226    magn:    0.0383    constr:    0.0000
     atom:   12    charge:    9.1221    magn:    0.0342    constr:    0.0000
     atom:   13    charge:    9.1236    magn:    0.0406    constr:    0.0000
     atom:   14    charge:    9.1246    magn:   -0.0396    constr:    0.0000
     atom:   15    charge:    9.1248    magn:   -0.0391    constr:    0.0000
     atom:   16    charge:    9.1250    magn:    0.0420    constr:    0.0000
     atom:   17    charge:    9.1257    magn:    0.0380    constr:    0.0000
     atom:   18    charge:    9.1258    magn:   -0.0367    constr:    0.0000
     atom:   19    charge:    9.1258    magn:   -0.0367    constr:    0.0000
     atom:   20    charge:    9.1257    magn:    0.0380    constr:    0.0000
     atom:   21    charge:    9.1250    magn:    0.0420    constr:    0.0000
     atom:   22    charge:    9.1248    magn:   -0.0391    constr:    0.0000
     atom:   23    charge:    9.1246    magn:   -0.0396    constr:    0.0000
     atom:   24    charge:    9.1236    magn:    0.0406    constr:    0.0000

     total cpu time spent up to now is      870.4 secs

     End of self-consistent calculation
 --- enter write_ns ---
 LDA+U parameters:
U(  1) =   3.1200   J(  1) =   0.7000   B(  1) =   0.0803
U(  2) =   3.1200   J(  2) =   0.7000   B(  2) =   0.0803
atom    1   Tr[ns(na)] (up, down, total) =   4.97336  0.72606  5.69942
   spin  1
    eigenvalues: 
  0.985  0.994  0.994  0.998  1.002
    eigenvectors:
  0.000  0.000  0.000  1.000  0.000
  0.000  0.105  0.895  0.000  0.000
  0.000  0.895  0.105  0.000  0.000
  0.000  0.000  0.000  0.000  1.000
  1.000  0.000  0.000  0.000  0.000
    occupations:
  0.998 -0.000 -0.000  0.000  0.000
 -0.000  0.994 -0.000  0.000  0.000
 -0.000 -0.000  0.994  0.000  0.000
  0.000  0.000  0.000  1.002 -0.000
  0.000  0.000  0.000 -0.000  0.985
   spin  2
    eigenvalues: 
  0.066  0.127  0.142  0.142  0.249
    eigenvectors:
  0.000  1.000  0.000  0.000  0.000
  0.000  0.000  0.147  0.853  0.000
  0.000  0.000  0.853  0.147  0.000
  1.000  0.000  0.000  0.000  0.000
  0.000  0.000  0.000  0.000  1.000
    occupations:
  0.127 -0.000 -0.000  0.000  0.000
 -0.000  0.142 -0.000  0.000  0.000
 -0.000 -0.000  0.142  0.000  0.000
  0.000  0.000  0.000  0.066 -0.000
  0.000  0.000  0.000 -0.000  0.249
atomic mag. moment =     4.247301
atom    2   Tr[ns(na)] (up, down, total) =   4.96999  0.76028  5.73027
   spin  1
    eigenvalues: 
  0.985  0.993  0.993  0.996  1.002
    eigenvectors:
  0.000  0.000  0.000  1.000  0.000
  0.000  0.113  0.887  0.000  0.000
  0.000  0.887  0.113  0.000  0.000
  0.000  0.000  0.000  0.000  1.000
  1.000  0.000  0.000  0.000  0.000
    occupations:
  0.996 -0.000 -0.000  0.000  0.000
 -0.000  0.993 -0.000  0.000  0.000
 -0.000 -0.000  0.993  0.000  0.000
  0.000  0.000  0.000  1.002 -0.000
  0.000  0.000  0.000 -0.000  0.985
   spin  2
    eigenvalues: 
  0.064  0.141  0.143  0.143  0.269
    eigenvectors:
  0.000  1.000  0.000  0.000  0.000
  0.000  0.000  0.145  0.855  0.000
  0.000  0.000  0.855  0.145  0.000
  1.000  0.000  0.000  0.000  0.000
  0.000  0.000  0.000  0.000  1.000
    occupations:
  0.141 -0.000 -0.000  0.000  0.000
 -0.000  0.143 -0.000  0.000  0.000
 -0.000 -0.000  0.143  0.000  0.000
  0.000  0.000  0.000  0.064 -0.000
  0.000  0.000  0.000 -0.000  0.269
atomic mag. moment =     4.209706
atom    3   Tr[ns(na)] (up, down, total) =   4.97336  0.72606  5.69942
   spin  1
    eigenvalues: 
  0.985  0.994  0.994  0.998  1.002
    eigenvectors:
  0.000  0.000  0.000  1.000  0.000
  0.000  0.124  0.876  0.000  0.000
  0.000  0.876  0.124  0.000  0.000
  0.000  0.000  0.000  0.000  1.000
  1.000  0.000  0.000  0.000  0.000
    occupations:
  0.998 -0.000 -0.000  0.000  0.000
 -0.000  0.994 -0.000  0.000  0.000
 -0.000 -0.000  0.994  0.000  0.000
  0.000  0.000  0.000  1.002 -0.000
  0.000  0.000  0.000 -0.000  0.985
   spin  2
    eigenvalues: 
  0.066  0.127  0.142  0.142  0.249
    eigenvectors:
  0.000  1.000  0.000  0.000  0.000
  0.000  0.000  0.110  0.890  0.000
  0.000  0.000  0.890  0.110  0.000
  1.000  0.000  0.000  0.000  0.000
  0.000  0.000  0.000  0.000  1.000
    occupations:
  0.127 -0.000 -0.000  0.000  0.000
 -0.000  0.142 -0.000  0.000  0.000
 -0.000 -0.000  0.142  0.000  0.000
  0.000  0.000  0.000  0.066 -0.000
  0.000  0.000  0.000 -0.000  0.249
atomic mag. moment =     4.247301
atom    4   Tr[ns(na)] (up, down, total) =   0.72272  4.97177  5.69449
   spin  1
    eigenvalues: 
  0.066  0.126  0.142  0.142  0.246
    eigenvectors:
  0.000  1.000  0.000  0.000  0.000
  0.000  0.000  0.146  0.854  0.000
  0.000  0.000  0.854  0.146  0.000
  1.000  0.000  0.000  0.000  0.000
  0.000  0.000  0.000  0.000  1.000
    occupations:
  0.126 -0.000 -0.000  0.000  0.000
 -0.000  0.142 -0.000  0.000  0.000
 -0.000 -0.000  0.142  0.000  0.000
  0.000  0.000  0.000  0.066 -0.000
  0.000  0.000  0.000 -0.000  0.246
   spin  2
    eigenvalues: 
  0.985  0.994  0.994  0.997  1.003
    eigenvectors:
  0.000  0.000  0.000  1.000  0.000
  0.000  0.120  0.880  0.000  0.000
  0.000  0.880  0.120  0.000  0.000
  0.000  0.000  0.000  0.000  1.000
  1.000  0.000  0.000  0.000  0.000
    occupations:
  0.997 -0.000 -0.000  0.000  0.000
 -0.000  0.994 -0.000  0.000  0.000
 -0.000 -0.000  0.994  0.000  0.000
  0.000  0.000  0.000  1.003 -0.000
  0.000  0.000  0.000 -0.000  0.985
atomic mag. moment =    -4.249054
atom    5   Tr[ns(na)] (up, down, total) =   4.97429  0.70601  5.68031
   spin  1
    eigenvalues: 
  0.985  0.994  0.994  0.998  1.003
    eigenvectors:
  0.000  0.000  0.000  1.000  0.000
  0.000  0.103  0.897  0.000  0.000
  0.000  0.897  0.103  0.000  0.000
  0.000  0.000  0.000  0.000  1.000
  1.000  0.000  0.000  0.000  0.000
    occupations:
  0.998 -0.000 -0.000  0.000  0.000
 -0.000  0.994 -0.000  0.000  0.000
 -0.000 -0.000  0.994  0.000  0.000
  0.000  0.000  0.000  1.003 -0.000
  0.000  0.000  0.000 -0.000  0.985
   spin  2
    eigenvalues: 
  0.067  0.111  0.145  0.145  0.238
    eigenvectors:
  0.000  1.000  0.000  0.000  0.000
  0.000  0.000  0.136  0.864  0.000
  0.000  0.000  0.864  0.136  0.000
  1.000  0.000  0.000  0.000  0.000
  0.000  0.000  0.000  0.000  1.000
    occupations:
  0.111 -0.000 -0.000  0.000  0.000
 -0.000  0.145 -0.000  0.000  0.000
 -0.000 -0.000  0.145  0.000  0.000
  0.000  0.000  0.000  0.067 -0.000
  0.000  0.000  0.000 -0.000  0.238
atomic mag. moment =     4.268282
atom    6   Tr[ns(na)] (up, down, total) =   0.70264  4.97478  5.67742
   spin  1
    eigenvalues: 
  0.067  0.108  0.145  0.145  0.238
    eigenvectors:
  0.000  1.000  0.000  0.000  0.000
  0.000  0.000  0.105  0.895  0.000
  0.000  0.000  0.895  0.105  0.000
  1.000  0.000  0.000  0.000  0.000
  0.000  0.000  0.000  0.000  1.000
    occupations:
  0.108 -0.000 -0.000  0.000  0.000
 -0.000  0.145 -0.000  0.000  0.000
 -0.000 -0.000  0.145  0.000  0.000
  0.000  0.000  0.000  0.067 -0.000
  0.000  0.000  0.000 -0.000  0.238
   spin  2
    eigenvalues: 
  0.986  0.994  0.994  0.998  1.003
    eigenvectors:
  0.000  0.000  0.000  1.000  0.000
  0.000  0.109  0.891  0.000  0.000
  0.000  0.891  0.109  0.000  0.000
  0.000  0.000  0.000  0.000  1.000
  1.000  0.000  0.000  0.000  0.000
    occupations:
  0.998 -0.000 -0.000  0.000  0.000
 -0.000  0.994 -0.000  0.000  0.000
 -0.000 -0.000  0.994  0.000  0.000
  0.000  0.000  0.000  1.003 -0.000
  0.000  0.000  0.000 -0.000  0.986
atomic mag. moment =    -4.272142
atom    7   Tr[ns(na)] (up, down, total) =   4.97429  0.70601  5.68031
   spin  1
    eigenvalues: 
  0.985  0.994  0.994  0.998  1.003
    eigenvectors:
  0.000  0.000  0.000  1.000  0.000
  0.000  0.122  0.878  0.000  0.000
  0.000  0.878  0.122  0.000  0.000
  0.000  0.000  0.000  0.000  1.000
  1.000  0.000  0.000  0.000  0.000
    occupations:
  0.998 -0.000 -0.000  0.000  0.000
 -0.000  0.994 -0.000  0.000  0.000
 -0.000 -0.000  0.994  0.000  0.000
  0.000  0.000  0.000  1.003 -0.000
  0.000  0.000  0.000 -0.000  0.985
   spin  2
    eigenvalues: 
  0.067  0.111  0.145  0.145  0.238
    eigenvectors:
  0.000  1.000  0.000  0.000  0.000
  0.000  0.000  0.129  0.871  0.000
  0.000  0.000  0.871  0.129  0.000
  1.000  0.000  0.000  0.000  0.000
  0.000  0.000  0.000  0.000  1.000
    occupations:
  0.111 -0.000 -0.000  0.000  0.000
 -0.000  0.145 -0.000  0.000  0.000
 -0.000 -0.000  0.145  0.000  0.000
  0.000  0.000  0.000  0.067 -0.000
  0.000  0.000  0.000 -0.000  0.238
atomic mag. moment =     4.268282
atom    8   Tr[ns(na)] (up, down, total) =   0.72272  4.97177  5.69449
   spin  1
    eigenvalues: 
  0.066  0.126  0.142  0.142  0.246
    eigenvectors:
  0.000  1.000  0.000  0.000  0.000
  0.000  0.000  0.152  0.848  0.000
  0.000  0.000  0.848  0.152  0.000
  1.000  0.000  0.000  0.000  0.000
  0.000  0.000  0.000  0.000  1.000
    occupations:
  0.126 -0.000 -0.000  0.000  0.000
 -0.000  0.142 -0.000  0.000  0.000
 -0.000 -0.000  0.142  0.000  0.000
  0.000  0.000  0.000  0.066 -0.000
  0.000  0.000  0.000 -0.000  0.246
   spin  2
    eigenvalues: 
  0.985  0.994  0.994  0.997  1.003
    eigenvectors:
  0.000  0.000  0.000  1.000  0.000
  0.000  0.116  0.884  0.000  0.000
  0.000  0.884  0.116  0.000  0.000
  0.000  0.000  0.000  0.000  1.000
  1.000  0.000  0.000  0.000  0.000
    occupations:
  0.997 -0.000 -0.000  0.000  0.000
 -0.000  0.994 -0.000  0.000  0.000
 -0.000 -0.000  0.994  0.000  0.000
  0.000  0.000  0.000  1.003 -0.000
  0.000  0.000  0.000 -0.000  0.985
atomic mag. moment =    -4.249054
N of occupied +U levels =   45.556137
 --- exit write_ns ---

 ------ SPIN UP ------------


          k = 0.0000 0.0000 0.0000 ( 13925 PWs)   bands (ev):

   -66.8337 -66.8337 -66.7319 -66.7319 -66.6021 -62.2049 -62.1930 -62.1930
   -35.5994 -35.5994 -35.5501 -35.5501 -35.5501 -35.5501 -35.4997 -35.4997
   -35.4495 -35.4495 -35.4495 -35.4495 -35.3814 -35.3162 -35.3162 -31.0255
   -31.0237 -31.0237 -31.0158 -31.0158 -31.0110 -31.0110 -31.0110 -31.0110
     5.7636   5.9044   5.9213   6.2785   6.4394   7.0092   7.0606   7.6188
     8.2830   8.4083   8.4138   8.4915   8.5109   8.5187   8.5562   8.5674
     8.7057   8.8317   8.8843   8.9001   8.9588   9.2151   9.2186   9.2721
     9.3094   9.3829   9.4046   9.4546   9.6433   9.7343   9.9226   9.9692
     9.9834  10.0394  10.0699  10.1199  10.1308  10.1308  10.1532  10.1545
    10.1563  10.1758  10.1758  10.2022  10.2022  10.3048  10.3130  10.3422
    10.3422  10.3547  10.3547  10.5574  10.5809  10.5809  10.5810  10.5810
    10.5981  10.6002  10.6002  10.6098  10.6098  10.6198  10.6198  10.6572
    10.6572  10.6747  10.7666  10.7792  10.7792  10.9762  10.9762  10.9924
    11.0496  11.0496  11.0794  11.1449  11.2521  11.2607  11.2646  11.3282
    11.4165  11.4165  11.4176  11.4414  11.4460  11.4870  11.4870  11.4885
    11.6840  11.8316  11.8316  11.8418  11.8828  11.9117  11.9168  11.9807
    12.1182  12.1577  12.1577  12.1671  12.2059  12.2515  12.3414  12.3414
    12.3848  12.3848  12.6172  12.7134  12.7134  12.7878  12.8149  12.8258
    12.8768  13.0242  13.0953  13.1007  13.6488  14.2904  15.0234  15.2535
    16.1676  16.8675  16.8675  16.9212  16.9212  16.9478  16.9478  16.9505
    16.9584  16.9584  17.1459  17.1459  17.1677  17.5677  17.5799  17.5979
    18.4042  19.5287  19.6610  20.0718  20.0718  20.4368  20.4368  20.4692
    20.4692  21.3728

          k = 0.0000 0.0000-0.0484 ( 13878 PWs)   bands (ev):

   -66.8337 -66.8337 -66.7319 -66.7319 -66.6021 -62.2049 -62.1930 -62.1930
   -35.5994 -35.5994 -35.5501 -35.5501 -35.5501 -35.5501 -35.4997 -35.4997
   -35.4495 -35.4495 -35.4495 -35.4495 -35.3814 -35.3162 -35.3162 -31.0255
   -31.0237 -31.0237 -31.0158 -31.0158 -31.0110 -31.0110 -31.0110 -31.0110
     5.7981   5.8044   6.0741   6.1145   6.6560   6.7086   7.3798   7.4218
     8.4084   8.4092   8.4697   8.4819   8.4891   8.5145   8.5587   8.5659
     8.6144   8.6655   8.8850   8.9983   9.0493   9.2000   9.2089   9.3078
     9.3223   9.3583   9.3842   9.4149   9.6589   9.7435   9.9228   9.9675
     9.9855  10.0359  10.0388  10.1356  10.1359  10.1359  10.1395  10.1552
    10.1562  10.1562  10.2122  10.2506  10.2506  10.2609  10.2609  10.2805
    10.3053  10.4687  10.4687  10.4697  10.4697  10.5468  10.5812  10.5812
    10.5824  10.5824  10.6003  10.6003  10.6218  10.6513  10.6513  10.6598
    10.7455  10.7455  10.7752  10.7832  10.7832  10.8538  10.8538  10.9967
    11.0491  11.1926  11.2110  11.2110  11.2372  11.2440  11.2496  11.2496
    11.2522  11.3626  11.4205  11.4235  11.4407  11.4908  11.6008  11.6008
    11.6859  11.7774  11.7774  11.8455  11.8765  11.9115  11.9235  11.9792
    12.0993  12.1990  12.2059  12.2357  12.2391  12.2391  12.2457  12.2457
    12.4161  12.4161  12.6183  12.7128  12.7128  12.7837  12.8191  12.8761
    12.8863  12.8890  13.0953  13.2244  13.5535  14.5419  14.6321  15.5322
    16.0556  16.8672  16.8672  16.9224  16.9224  16.9469  16.9469  16.9504
    16.9584  16.9584  17.1459  17.1459  17.1676  17.5695  17.5732  17.6017
    18.6458  18.9218  20.1541  20.1541  20.1877  20.1877  20.5029  20.5838
    20.8678  20.8678

          k = 0.0000 0.1250 0.0000 ( 13879 PWs)   bands (ev):

   -66.8334 -66.8334 -66.7317 -66.7317 -66.6018 -62.2049 -62.1930 -62.1930
   -35.5992 -35.5992 -35.5519 -35.5519 -35.5500 -35.5500 -35.4995 -35.4995
   -35.4513 -35.4513 -35.4494 -35.4494 -35.3813 -35.3180 -35.3161 -31.0258
   -31.0253 -31.0235 -31.0156 -31.0156 -31.0132 -31.0132 -31.0109 -31.0109
     6.0071   6.1447   6.1602   6.5088   6.6553   7.2001   7.2409   7.7593
     8.2928   8.5033   8.5432   8.5972   8.6178   8.6224   8.6508   8.6812
     8.7407   8.7751   8.8174   8.9345   9.0164   9.1804   9.2094   9.2470
     9.3241   9.3706   9.3751   9.4432   9.6244   9.7531   9.7806   9.8148
     9.8309   9.8357   9.8370   9.8891   9.9437   9.9797  10.0412  10.0523
    10.1152  10.1189  10.1478  10.1783  10.1887  10.1891  10.2331  10.2799
    10.2975  10.3263  10.4277  10.4462  10.4471  10.4536  10.5119  10.5994
    10.6182  10.6551  10.7067  10.7408  10.7472  10.7724  10.7907  10.8486
    10.8524  10.8995  10.9261  10.9852  11.0241  11.0337  11.1183  11.1232
    11.1434  11.1470  11.2196  11.2223  11.3006  11.3260  11.3538  11.3711
    11.3795  11.4115  11.4131  11.4316  11.5026  11.5163  11.6300  11.7250
    11.7384  11.7455  11.8217  11.8459  11.8643  11.8998  11.9388  12.0037
    12.0132  12.0421  12.1029  12.1824  12.2398  12.2459  12.2877  12.3870
    12.5045  12.5556  12.5574  12.6500  12.6726  12.7354  12.7361  12.7631
    12.9675  12.9816  12.9984  13.0812  13.6926  14.3270  15.1492  15.3774
    16.2899  16.6799  16.7084  16.7579  16.9600  16.9704  16.9717  17.0053
    17.0350  17.0460  17.0465  17.0615  17.0766  17.6140  17.6150  17.9350
    18.4822  18.6794  18.9859  19.0369  19.7910  19.8698  19.9463  19.9679
    20.6930  20.9682

          k = 0.0000 0.1250-0.0484 ( 13868 PWs)   bands (ev):

   -66.8334 -66.8334 -66.7317 -66.7317 -66.6018 -62.2049 -62.1930 -62.1930
   -35.5992 -35.5992 -35.5519 -35.5519 -35.5500 -35.5500 -35.4995 -35.4995
   -35.4513 -35.4513 -35.4494 -35.4494 -35.3813 -35.3180 -35.3161 -31.0258
   -31.0253 -31.0235 -31.0156 -31.0156 -31.0132 -31.0132 -31.0109 -31.0109
     6.0409   6.0467   6.3099   6.3473   6.8661   6.9121   7.5455   7.5712
     8.4355   8.5053   8.5166   8.5454   8.5779   8.6148   8.6280   8.6781
     8.7096   8.7605   8.9236   8.9637   9.0004   9.1662   9.1731   9.2853
     9.3015   9.3276   9.3846   9.5258   9.5717   9.7687   9.7825   9.7948
     9.8058   9.8509   9.8764   9.8788   9.9441   9.9669  10.0391  10.0764
    10.0801  10.1345  10.1380  10.1730  10.2089  10.2098  10.2127  10.2649
    10.3312  10.3318  10.3646  10.4037  10.4891  10.4924  10.5879  10.5903
    10.6062  10.6101  10.6502  10.7064  10.7453  10.7919  10.8516  10.8601
    10.8843  10.8962  10.9587  10.9660  10.9815  11.0306  11.0648  11.1305
    11.1490  11.1497  11.2308  11.2610  11.2856  11.3028  11.3531  11.3750
    11.3806  11.4021  11.4129  11.4747  11.4857  11.5445  11.6209  11.6823
    11.7365  11.7398  11.8051  11.8676  11.8959  11.9294  11.9381  11.9489
    11.9880  12.1210  12.1338  12.1369  12.1824  12.2524  12.3250  12.3818
    12.4859  12.5538  12.5857  12.6303  12.6941  12.7084  12.7495  12.8328
    12.8360  12.9675  12.9817  13.2480  13.5534  14.6219  14.7186  15.6716
    16.1759  16.6800  16.7151  16.7677  16.9602  16.9702  16.9717  17.0053
    17.0350  17.0457  17.0470  17.0614  17.0766  17.5839  17.7243  17.7620
    18.6956  18.7744  18.9303  19.1382  19.3767  19.4143  20.3737  20.4217
    20.7438  20.8099

          k = 0.0000 0.2500 0.0000 ( 13848 PWs)   bands (ev):

   -66.8332 -66.8332 -66.7315 -66.7315 -66.6017 -62.2045 -62.1926 -62.1926
   -35.5988 -35.5988 -35.5561 -35.5561 -35.5498 -35.5498 -35.4991 -35.4991
   -35.4555 -35.4555 -35.4492 -35.4492 -35.3809 -35.3222 -35.3159 -31.0311
   -31.0247 -31.0232 -31.0185 -31.0185 -31.0150 -31.0150 -31.0106 -31.0106
     6.6961   6.8214   6.8327   7.1448   7.2452   7.6812   7.6908   8.0525
     8.2571   8.4885   8.4893   8.6899   8.7128   8.7518   8.8022   8.8035
     8.8601   8.8868   8.9343   8.9494   8.9508   9.0374   9.1014   9.1054
     9.1658   9.4391   9.4889   9.5257   9.5273   9.5805   9.5973   9.6321
     9.6337   9.6405   9.6754   9.6869   9.6944   9.7764   9.8640   9.8684
     9.9495  10.0027  10.0473  10.0586  10.1655  10.2546  10.2784  10.3534
    10.4131  10.5684  10.5685  10.5875  10.6213  10.6315  10.6461  10.7270
    10.7979  10.8195  10.8342  10.8489  10.8607  10.8750  10.8779  10.9474
    11.0837  11.0964  11.1127  11.1303  11.1359  11.1628  11.2794  11.2910
    11.2917  11.3007  11.3633  11.3962  11.4068  11.4562  11.4659  11.5613
    11.5659  11.6338  11.6410  11.6550  11.6752  11.6819  11.7328  11.7761
    11.8273  11.8330  11.8621  11.8828  11.9087  11.9206  11.9426  12.0017
    12.0059  12.0504  12.0775  12.0825  12.1335  12.2324  12.2854  12.4061
    12.4804  12.5774  12.6219  12.7017  12.7279  12.7457  12.7542  12.8053
    12.9207  13.0049  13.0129  13.0420  13.8517  14.3856  15.3650  15.5325
    15.9485  16.0291  16.1143  16.1945  16.4998  16.5234  16.7223  16.8271
    16.9007  16.9029  16.9269  17.2156  17.2523  17.2701  17.3010  17.3011
    17.4334  17.6294  17.7358  17.9487  18.4604  18.5031  18.5338  18.6722
    19.4188  20.4376

          k = 0.0000 0.2500-0.0484 ( 13842 PWs)   bands (ev):

   -66.8332 -66.8332 -66.7315 -66.7315 -66.6017 -62.2045 -62.1926 -62.1926
   -35.5988 -35.5988 -35.5561 -35.5561 -35.5498 -35.5498 -35.4991 -35.4991
   -35.4555 -35.4555 -35.4492 -35.4492 -35.3809 -35.3222 -35.3159 -31.0311
   -31.0247 -31.0232 -31.0185 -31.0185 -31.0150 -31.0150 -31.0106 -31.0106
     6.7273   6.7315   6.9685   6.9971   7.4275   7.4511   7.9099   7.9224
     8.3476   8.3668   8.6024   8.6039   8.7515   8.7784   8.7848   8.7862
     8.8600   8.8693   8.9421   8.9523   8.9930   9.0387   9.0561   9.1080
     9.1617   9.4892   9.4916   9.5171   9.5498   9.5526   9.6042   9.6268
     9.6365   9.6366   9.6448   9.6935   9.7018   9.7038   9.8655   9.9500
    10.0016  10.0172  10.0254  10.0619  10.0671  10.2366  10.3355  10.3527
    10.4125  10.5307  10.5722  10.5979  10.6435  10.6537  10.6971  10.7016
    10.7406  10.7594  10.7932  10.8552  10.8708  10.9209  10.9625  10.9923
    11.0070  11.0196  11.0878  11.1629  11.2149  11.2156  11.2359  11.2618
    11.2915  11.3069  11.3372  11.4030  11.4127  11.4648  11.5192  11.5248
    11.5627  11.5873  11.6021  11.6571  11.6788  11.7255  11.7735  11.8038
    11.8236  11.8471  11.8642  11.8733  11.9011  11.9279  11.9291  11.9334
    11.9791  12.0168  12.1335  12.1421  12.1916  12.2038  12.2170  12.4288
    12.4702  12.6406  12.6694  12.6767  12.6916  12.7106  12.7389  12.7772
    12.8015  13.0047  13.0420  13.3324  13.5542  14.7932  14.8749  15.7932
    16.0080  16.0216  16.0413  16.2464  16.3248  16.6689  16.6717  16.8305
    16.9007  16.9029  16.9269  17.1972  17.2701  17.3010  17.3011  17.3140
    17.3850  17.5693  17.8761  18.0691  18.1642  18.2241  18.8044  18.8471
    19.6169  19.7443

          k = 0.0000 0.3750 0.0000 ( 13856 PWs)   bands (ev):

   -66.8338 -66.8338 -66.7321 -66.7321 -66.6023 -62.2036 -62.1916 -62.1916
   -35.5984 -35.5984 -35.5601 -35.5601 -35.5495 -35.5495 -35.4987 -35.4987
   -35.4596 -35.4596 -35.4490 -35.4490 -35.3805 -35.3263 -35.3157 -31.0365
   -31.0242 -31.0239 -31.0239 -31.0229 -31.0145 -31.0145 -31.0102 -31.0102
     7.6563   7.7538   7.7542   7.9723   7.9725   8.1372   8.1513   8.1997
     8.2145   8.2755   8.2889   8.3986   8.4079   8.6025   8.6220   8.7725
     8.9244   8.9772   9.1323   9.1575   9.1643   9.2025   9.2442   9.2536
     9.2666   9.3068   9.3091   9.3319   9.3359   9.3742   9.3998   9.4463
     9.4677   9.6158   9.6861   9.6905   9.6977   9.7130   9.7866   9.8371
     9.9454  10.0453  10.0577  10.1220  10.1415  10.1506  10.2034  10.3794
    10.4263  10.4373  10.5214  10.5753  10.6222  10.6952  10.7057  10.8548
    10.8757  10.9137  10.9165  10.9747  10.9952  11.1731  11.1876  11.2531
    11.2575  11.3276  11.3474  11.3613  11.4003  11.4911  11.5109  11.5321
    11.5475  11.5484  11.5710  11.5866  11.6044  11.6511  11.7002  11.7384
    11.7624  11.7868  11.8235  11.8384  11.8556  11.8811  11.9127  11.9426
    12.0299  12.0398  12.0590  12.0907  12.1105  12.1155  12.1319  12.1366
    12.1761  12.1934  12.3412  12.3444  12.3718  12.3853  12.4207  12.5403
    12.5564  12.6091  12.7207  12.7543  12.7950  12.8390  12.8534  12.8918
    12.9639  12.9835  13.0727  13.0896  13.9318  14.0203  14.0558  14.2483
    14.2693  14.8900  14.9051  15.0724  15.1157  15.5606  15.5870  15.9119
    15.9465  16.8055  16.8323  16.8323  16.8543  16.8940  16.9959  17.0363
    17.1017  17.2227  17.4716  17.5025  17.5025  17.9111  17.9716  18.0802
    19.5673  19.6892

          k = 0.0000 0.3750-0.0484 ( 13872 PWs)   bands (ev):

   -66.8338 -66.8338 -66.7321 -66.7321 -66.6023 -62.2036 -62.1916 -62.1916
   -35.5984 -35.5984 -35.5601 -35.5601 -35.5496 -35.5495 -35.4987 -35.4987
   -35.4596 -35.4596 -35.4490 -35.4490 -35.3805 -35.3263 -35.3157 -31.0365
   -31.0242 -31.0239 -31.0239 -31.0229 -31.0145 -31.0145 -31.0102 -31.0102
     7.6817   7.6820   7.8534   7.8637   8.0674   8.0772   8.1795   8.1862
     8.2260   8.2580   8.3244   8.3377   8.4846   8.5168   8.7096   8.7248
     8.9338   8.9854   9.0910   9.1256   9.2261   9.2284   9.2446   9.2528
     9.2788   9.3098   9.3298   9.3341   9.3359   9.3593   9.3659   9.4159
     9.4375   9.6710   9.6775   9.6902   9.7020   9.7077   9.8439   9.8678
     9.9340   9.9569  10.0506  10.0643  10.1119  10.1457  10.3576  10.4149
    10.4322  10.4374  10.4570  10.5381  10.6167  10.7401  10.7415  10.7790
    10.8134  10.8944  11.0194  11.0272  11.0356  11.0708  11.1942  11.2316
    11.3021  11.3562  11.3627  11.3652  11.3956  11.4268  11.4622  11.4705
    11.4959  11.5686  11.6318  11.6392  11.6518  11.6795  11.6882  11.7291
    11.7378  11.7581  11.7823  11.7966  11.8925  11.9236  11.9495  11.9928
    11.9939  12.0097  12.0275  12.0438  12.0805  12.0913  12.1656  12.2422
    12.2498  12.2563  12.2816  12.3732  12.4190  12.4229  12.4497  12.4781
    12.5422  12.5465  12.6151  12.7218  12.7578  12.7891  12.8393  12.8553
    12.8915  13.0727  13.0896  13.5071  13.5392  14.0179  14.0402  14.4242
    14.4841  14.6444  14.6753  15.2381  15.2735  15.5584  15.5589  15.8729
    15.9208  16.7855  16.8323  16.8323  16.8543  16.9229  16.9965  17.0386
    17.1165  17.2087  17.4716  17.5025  17.5025  17.9013  17.9861  18.0785
    19.5868  19.7461

          k = 0.0000-0.5000 0.0000 ( 13918 PWs)   bands (ev):

   -66.8342 -66.8342 -66.7325 -66.7325 -66.6027 -62.2030 -62.1910 -62.1910
   -35.5982 -35.5982 -35.5618 -35.5618 -35.5494 -35.5494 -35.4985 -35.4985
   -35.4612 -35.4612 -35.4489 -35.4489 -35.3803 -35.3279 -35.3156 -31.0387
   -31.0261 -31.0261 -31.0239 -31.0227 -31.0142 -31.0142 -31.0101 -31.0101
     8.1321   8.1430   8.1593   8.1948   8.2264   8.2438   8.2620   8.3228
     8.3348   8.4162   8.4409   8.4941   8.5114   8.5211   8.6068   8.6659
     8.7699   8.8546   9.1442   9.1506   9.1536   9.2031   9.2157   9.2252
     9.2510   9.2588   9.2602   9.3082   9.3305   9.3499   9.3762   9.5711
     9.5748   9.6886   9.6928   9.7192   9.7526   9.7735   9.7944   9.8475
     9.8647   9.9421  10.0296  10.0341  10.0360  10.0561  10.1560  10.1655
    10.2991  10.4798  10.5154  10.5426  10.5493  10.6011  10.7002  10.7016
    10.7430  11.0127  11.1468  11.1627  11.2185  11.2349  11.2776  11.3949
    11.4477  11.4710  11.4931  11.5093  11.5641  11.5654  11.5674  11.5847
    11.5875  11.5956  11.6373  11.6420  11.6666  11.6690  11.7086  11.7404
    11.7861  11.8130  11.8267  11.8617  11.9684  12.0179  12.1177  12.1841
    12.2369  12.2810  12.4079  12.4139  12.4202  12.4311  12.4722  12.4916
    12.5292  12.5368  12.5880  12.5992  12.6029  12.6600  12.6674  12.7443
    12.7760  12.8094  12.8131  12.8488  12.8652  12.9401  12.9467  12.9905
    13.0060  13.1029  13.1079  13.1446  13.2051  13.3433  13.3779  13.6295
    13.7491  13.9522  14.0041  14.3382  14.4120  14.4678  14.5299  14.7725
    14.8693  16.5202  16.7330  16.8135  16.8136  16.8357  16.8449  16.8720
    16.8752  16.9076  17.5454  17.5764  17.5764  17.9116  17.9552  17.9891
    19.5846  19.6604

          k = 0.0000-0.5000-0.0484 ( 13892 PWs)   bands (ev):

   -66.8342 -66.8342 -66.7325 -66.7325 -66.6027 -62.2030 -62.1910 -62.1910
   -35.5982 -35.5982 -35.5618 -35.5618 -35.5494 -35.5494 -35.4985 -35.4985
   -35.4612 -35.4612 -35.4489 -35.4489 -35.3803 -35.3279 -35.3156 -31.0387
   -31.0261 -31.0261 -31.0239 -31.0227 -31.0142 -31.0142 -31.0101 -31.0101
     8.1331   8.1352   8.1868   8.1931   8.1940   8.2427   8.2909   8.2936
     8.3650   8.3989   8.4490   8.4790   8.4929   8.5564   8.6000   8.6658
     8.7680   8.8554   9.1333   9.1462   9.1536   9.2018   9.2062   9.2588
     9.2602   9.2623   9.2773   9.3082   9.3193   9.3299   9.3780   9.5155
     9.5956   9.6886   9.7104   9.7417   9.7468   9.7625   9.7724   9.8427
     9.9404   9.9594   9.9879  10.0341  10.0360  10.0561  10.1286  10.2594
    10.2596  10.3193  10.4866  10.5154  10.5990  10.7003  10.7015  10.7430
    10.8880  10.9335  10.9855  11.2108  11.2198  11.2367  11.2790  11.3871
    11.4088  11.4861  11.4946  11.5067  11.5428  11.5459  11.5734  11.5868
    11.5922  11.6024  11.6186  11.6356  11.6633  11.7471  11.7838  11.7887
    11.7944  11.8159  11.8578  11.8974  11.9035  11.9543  11.9684  12.2418
    12.2954  12.3177  12.3637  12.4083  12.4133  12.4312  12.4696  12.4759
    12.5419  12.5476  12.5611  12.5923  12.6141  12.6674  12.7319  12.7344
    12.7736  12.8095  12.8118  12.8130  12.8652  12.8809  12.9358  13.0403
    13.0638  13.1032  13.1079  13.1490  13.1786  13.2518  13.5248  13.6005
    13.6391  14.0660  14.1276  14.1684  14.2275  14.6352  14.6629  14.7360
    14.7858  16.5393  16.7053  16.8135  16.8136  16.8357  16.8560  16.8734
    16.8739  16.9076  17.5454  17.5764  17.5764  17.9187  17.9463  17.9916
    19.6498  19.6925

          k = 0.1250 0.1250 0.0000 ( 13839 PWs)   bands (ev):

   -66.8331 -66.8331 -66.7314 -66.7314 -66.6015 -62.2050 -62.1930 -62.1930
   -35.5991 -35.5991 -35.5518 -35.5518 -35.5518 -35.5518 -35.4994 -35.4994
   -35.4512 -35.4512 -35.4512 -35.4512 -35.3811 -35.3179 -35.3179 -31.0258
   -31.0256 -31.0251 -31.0154 -31.0154 -31.0131 -31.0131 -31.0129 -31.0129
     6.2392   6.3742   6.3900   6.7314   6.8706   7.3959   7.4292   7.9167
     8.3534   8.5841   8.6823   8.6833   8.7211   8.7394   8.7408   8.7558
     8.7605   8.8085   8.8894   9.0206   9.0678   9.1184   9.2864   9.3544
     9.3603   9.3886   9.3951   9.4726   9.5526   9.6099   9.6517   9.6966
     9.7952   9.8115   9.8191   9.8675   9.8784   9.8970   9.9115   9.9166
     9.9272   9.9401  10.0633  10.1415  10.1438  10.1473  10.1978  10.2230
    10.2925  10.3548  10.3565  10.3883  10.3963  10.3985  10.4524  10.5005
    10.5714  10.6090  10.6560  10.7063  10.7172  10.7281  10.7827  10.8072
    10.8696  10.8841  10.9243  11.0461  11.1183  11.1471  11.1679  11.1999
    11.2508  11.2564  11.2588  11.2817  11.3475  11.3777  11.3882  11.4042
    11.4429  11.4813  11.5153  11.5342  11.5780  11.5802  11.7505  11.7836
    11.8166  11.8310  11.8597  11.8793  11.9125  11.9593  11.9768  11.9966
    12.0434  12.1143  12.1529  12.2145  12.2974  12.3636  12.3953  12.4373
    12.5144  12.5220  12.5333  12.5962  12.6461  12.6575  12.7262  12.7512
    12.8473  12.8636  13.0058  13.1039  13.7924  14.4299  15.2889  15.5085
    16.3771  16.7838  16.7976  16.8576  16.8936  16.8970  16.9113  16.9548
    16.9682  16.9887  17.0010  17.0030  17.0224  17.6476  17.6754  18.2799
    18.6528  19.1752  19.2511  19.4035  19.4669  19.5926  19.6529  19.8442
    20.1280  20.1862

          k = 0.1250 0.1250-0.0484 ( 13838 PWs)   bands (ev):

   -66.8331 -66.8331 -66.7314 -66.7314 -66.6015 -62.2050 -62.1930 -62.1930
   -35.5991 -35.5991 -35.5518 -35.5518 -35.5518 -35.5518 -35.4994 -35.4994
   -35.4512 -35.4512 -35.4512 -35.4512 -35.3811 -35.3179 -35.3179 -31.0258
   -31.0256 -31.0251 -31.0154 -31.0154 -31.0131 -31.0131 -31.0129 -31.0129
     6.2718   6.2787   6.5365   6.5728   7.0760   7.1179   7.7219   7.7362
     8.4757   8.5410   8.6019   8.6543   8.6834   8.7390   8.7581   8.7862
     8.8078   8.8378   8.9275   8.9341   9.0681   9.2006   9.2209   9.3211
     9.3445   9.4200   9.4542   9.4885   9.5086   9.5785   9.6586   9.7369
     9.7785   9.8038   9.8453   9.8532   9.8797   9.8965   9.8991   9.9176
     9.9229   9.9402  10.1147  10.1298  10.1424  10.1428  10.1473  10.2340
    10.2974  10.3534  10.3546  10.3970  10.3981  10.4310  10.4523  10.4637
    10.5736  10.6087  10.6631  10.6980  10.7318  10.7607  10.7747  10.7811
    10.8250  10.8744  11.0037  11.0326  11.1219  11.1256  11.1281  11.2089
    11.2627  11.2959  11.3124  11.3163  11.3259  11.3428  11.3534  11.3750
    11.3960  11.4644  11.5145  11.5807  11.5938  11.6202  11.7852  11.7980
    11.8109  11.8195  11.8294  11.8466  11.9064  11.9121  11.9672  12.0124
    12.0866  12.1346  12.1560  12.2479  12.2954  12.3025  12.3688  12.4681
    12.5108  12.5389  12.5557  12.5892  12.6156  12.6768  12.7505  12.7933
    12.7997  12.8574  12.8728  13.3184  13.6105  14.7535  14.8484  15.7780
    16.2928  16.7970  16.8122  16.8489  16.8597  16.8953  16.9352  16.9665
    16.9847  16.9890  16.9990  17.0008  17.0032  17.5913  17.8829  17.9395
    19.1370  19.2576  19.2607  19.3094  19.3931  19.4425  19.6336  19.6783
    19.9977  20.0445

          k = 0.1250 0.2500 0.0000 ( 13846 PWs)   bands (ev):

   -66.8328 -66.8328 -66.7311 -66.7311 -66.6013 -62.2047 -62.1927 -62.1927
   -35.5987 -35.5987 -35.5560 -35.5560 -35.5515 -35.5515 -35.4990 -35.4990
   -35.4554 -35.4554 -35.4509 -35.4509 -35.3808 -35.3221 -35.3177 -31.0309
   -31.0253 -31.0245 -31.0183 -31.0183 -31.0149 -31.0149 -31.0127 -31.0127
     6.8860   7.0114   7.0282   7.3383   7.4537   7.8861   7.8976   8.2482
     8.4025   8.6006   8.6014   8.7707   8.7996   8.8037   8.8833   8.9010
     8.9810   9.0024   9.0099   9.0839   9.1000   9.1418   9.1557   9.2301
     9.3255   9.4270   9.4889   9.5006   9.5124   9.5198   9.5550   9.5618
     9.5893   9.6401   9.6625   9.7384   9.7400   9.8088   9.8663   9.9097
     9.9180   9.9708   9.9780  10.0084  10.0733  10.1456  10.1626  10.2725
    10.3438  10.3725  10.3764  10.4000  10.4325  10.4740  10.5079  10.5496
    10.5566  10.6042  10.6719  10.6855  10.7619  10.7966  10.8388  10.8668
    10.8998  10.9164  11.0122  11.0240  11.0382  11.1029  11.2367  11.2802
    11.3005  11.3283  11.3413  11.4379  11.4889  11.5010  11.5074  11.5760
    11.5853  11.6475  11.6672  11.7012  11.7094  11.7230  11.8138  11.8308
    11.8521  11.9122  11.9451  11.9659  11.9816  12.0320  12.1021  12.1288
    12.1560  12.1760  12.1833  12.2309  12.3212  12.3605  12.5068  12.5354
    12.5534  12.5995  12.6141  12.6310  12.6389  12.7157  12.7271  12.7558
    12.8276  12.8845  13.1664  13.2622  14.0905  14.6753  15.4937  15.6463
    16.1589  16.2579  16.4028  16.4053  16.6486  16.6941  16.8155  16.9638
    16.9639  17.0027  17.1020  17.1134  17.2279  17.2514  17.4353  17.4708
    17.6466  17.8895  17.9385  18.2327  18.7462  18.7860  18.9370  18.9618
    19.4192  20.4772

          k = 0.1250 0.2500-0.0484 ( 13868 PWs)   bands (ev):

   -66.8328 -66.8328 -66.7311 -66.7311 -66.6013 -62.2047 -62.1927 -62.1927
   -35.5987 -35.5987 -35.5560 -35.5560 -35.5515 -35.5515 -35.4990 -35.4990
   -35.4554 -35.4554 -35.4509 -35.4509 -35.3808 -35.3221 -35.3177 -31.0309
   -31.0253 -31.0245 -31.0183 -31.0183 -31.0149 -31.0149 -31.0127 -31.0127
     6.9147   6.9255   7.1617   7.1946   7.6313   7.6595   8.1101   8.1218
     8.4828   8.5006   8.6960   8.6982   8.8012   8.8480   8.8706   8.8834
     8.9947   9.0028   9.0388   9.0827   9.0828   9.1150   9.1582   9.2366
     9.3116   9.4615   9.4785   9.5175   9.5179   9.5249   9.5426   9.5738
     9.5839   9.6353   9.6716   9.7067   9.7131   9.7830   9.8797   9.9031
     9.9636   9.9884  10.0002  10.0295  10.0333  10.1299  10.2057  10.2207
    10.3063  10.3622  10.3890  10.3961  10.4558  10.4833  10.5302  10.5329
    10.5919  10.6030  10.6790  10.6896  10.7525  10.7566  10.7869  10.8667
    10.9253  10.9707  11.0078  11.0105  11.0794  11.0948  11.1811  11.2860
    11.2873  11.2954  11.4346  11.4513  11.4612  11.4758  11.5214  11.5581
    11.6332  11.6480  11.6625  11.6646  11.7012  11.7256  11.8195  11.8206
    11.8523  11.9130  11.9369  11.9786  12.0188  12.0296  12.0796  12.1019
    12.1486  12.2065  12.2215  12.2334  12.2573  12.4228  12.4520  12.5009
    12.5557  12.5977  12.6224  12.6495  12.6700  12.7343  12.7526  12.8227
    12.8263  12.8695  12.8961  13.5874  13.8284  15.0318  15.0894  15.7973
    16.2052  16.2927  16.3085  16.4411  16.5798  16.7327  16.8366  16.9415
    16.9793  16.9918  17.1020  17.1385  17.1769  17.3016  17.3922  17.4860
    17.6647  17.7894  18.1525  18.3430  18.4437  18.5127  19.1060  19.1302
    19.7700  19.8139

          k = 0.1250 0.3750 0.0000 ( 13875 PWs)   bands (ev):

   -66.8333 -66.8333 -66.7316 -66.7315 -66.6017 -62.2038 -62.1919 -62.1919
   -35.5983 -35.5983 -35.5600 -35.5600 -35.5513 -35.5513 -35.4986 -35.4986
   -35.4594 -35.4594 -35.4507 -35.4507 -35.3804 -35.3262 -35.3174 -31.0362
   -31.0249 -31.0240 -31.0237 -31.0237 -31.0143 -31.0143 -31.0123 -31.0123
     7.7583   7.8621   7.8784   8.1037   8.1601   8.3326   8.3391   8.3717
     8.3910   8.4410   8.4733   8.5281   8.5562   8.7189   8.7352   8.8510
     8.9464   9.0519   9.0867   9.1504   9.2596   9.2665   9.2988   9.3146
     9.3187   9.3290   9.3344   9.3709   9.3949   9.3998   9.4387   9.4426
     9.4719   9.6083   9.6573   9.6922   9.7259   9.7533   9.7844   9.9015
     9.9081   9.9591   9.9633  10.0139  10.0516  10.2591  10.3030  10.3347
    10.3897  10.4341  10.4801  10.5143  10.5597  10.6208  10.6409  10.6713
    10.7214  10.7668  10.8521  10.8702  10.9143  10.9918  11.0376  11.0394
    11.1201  11.1766  11.2210  11.2890  11.3035  11.3274  11.3692  11.4787
    11.4930  11.5229  11.5588  11.5897  11.6068  11.6069  11.6714  11.7043
    11.7068  11.7692  11.7775  11.8041  11.8261  11.8281  11.8805  11.8874
    11.8993  11.9242  11.9639  11.9929  12.0083  12.0609  12.1182  12.1426
    12.2711  12.2763  12.3490  12.4406  12.4540  12.4901  12.5188  12.5330
    12.5659  12.5707  12.6107  12.6242  12.7544  12.8731  12.8828  12.8887
    13.1573  13.2041  13.6335  13.6771  14.2717  14.3792  14.5173  14.6477
    14.7021  15.1681  15.2009  15.4387  15.6116  15.7991  15.8408  16.3164
    16.3448  16.9318  16.9639  16.9704  16.9987  17.0538  17.1236  17.1992
    17.2031  17.2375  17.6205  17.6934  17.7280  17.9782  18.0719  18.2003
    19.5970  19.6664

          k = 0.1250 0.3750-0.0484 ( 13882 PWs)   bands (ev):

   -66.8333 -66.8333 -66.7316 -66.7315 -66.6017 -62.2038 -62.1919 -62.1919
   -35.5983 -35.5983 -35.5600 -35.5600 -35.5513 -35.5513 -35.4986 -35.4986
   -35.4594 -35.4594 -35.4507 -35.4507 -35.3804 -35.3262 -35.3174 -31.0362
   -31.0249 -31.0240 -31.0237 -31.0237 -31.0143 -31.0143 -31.0123 -31.0123
     7.7797   7.7957   7.9785   8.0046   8.2524   8.2588   8.3586   8.3755
     8.3929   8.4462   8.4775   8.4986   8.6090   8.6443   8.8049   8.8237
     8.9553   9.0184   9.0892   9.2158   9.2378   9.2708   9.2805   9.3048
     9.3300   9.3442   9.3452   9.3517   9.3817   9.3901   9.4122   9.4305
     9.4873   9.6261   9.6697   9.7173   9.7555   9.7629   9.8216   9.8226
     9.8790   9.9022   9.9805  10.0224  10.0726  10.2230  10.3418  10.3937
    10.4145  10.4372  10.4617  10.4976  10.5566  10.5616  10.6358  10.7072
    10.7265  10.7513  10.8760  10.8866  10.9011  10.9052  11.0486  11.0978
    11.1519  11.1562  11.2367  11.2486  11.2932  11.3274  11.4070  11.4169
    11.5128  11.5703  11.5711  11.5849  11.6052  11.6121  11.6167  11.7095
    11.7220  11.7570  11.7994  11.8114  11.8305  11.8407  11.8499  11.8557
    11.9258  11.9302  11.9670  11.9930  12.0003  12.0566  12.1177  12.1466
    12.2342  12.3552  12.3664  12.3869  12.4154  12.4888  12.5278  12.5351
    12.5601  12.5790  12.6120  12.6821  12.7326  12.7925  12.8883  13.0104
    13.0271  13.3766  13.3941  13.9109  14.0997  14.4255  14.4478  14.7475
    14.8076  15.0761  15.1170  15.5109  15.5131  15.8937  15.9130  16.2708
    16.3056  16.9296  16.9561  16.9790  16.9895  17.0752  17.1193  17.1978
    17.2085  17.2339  17.6378  17.6607  17.7438  17.9559  18.0901  18.2085
    19.6607  19.7717

          k = 0.1250-0.5000 0.0000 ( 13890 PWs)   bands (ev):

   -66.8337 -66.8337 -66.7319 -66.7319 -66.6021 -62.2033 -62.1914 -62.1914
   -35.5981 -35.5981 -35.5616 -35.5616 -35.5512 -35.5512 -35.4985 -35.4985
   -35.4611 -35.4611 -35.4506 -35.4506 -35.3802 -35.3278 -35.3173 -31.0385
   -31.0259 -31.0259 -31.0248 -31.0238 -31.0141 -31.0141 -31.0122 -31.0122
     8.2997   8.3031   8.3149   8.3723   8.3849   8.4053   8.4204   8.4430
     8.5125   8.5134   8.5353   8.5799   8.5997   8.6191   8.6357   8.6648
     8.8527   8.8634   9.1070   9.1464   9.1679   9.2141   9.2385   9.2421
     9.2734   9.2927   9.3035   9.3106   9.3141   9.3195   9.3814   9.4760
     9.5820   9.6480   9.6641   9.7487   9.8099   9.8321   9.8406   9.8745
     9.8929   9.8983   9.9116   9.9593   9.9641  10.2614  10.3165  10.4169
    10.4504  10.4629  10.4971  10.5411  10.5675  10.5970  10.8095  10.8214
    10.8421  10.8436  10.8964  10.9856  10.9860  11.0035  11.0209  11.2245
    11.2953  11.3345  11.4036  11.4733  11.5388  11.5399  11.5458  11.5531
    11.5772  11.6255  11.6337  11.6641  11.6797  11.7315  11.7435  11.8119
    11.8425  11.8582  11.8951  11.9661  11.9681  11.9735  11.9832  11.9892
    12.0271  12.0841  12.0968  12.1272  12.1276  12.1508  12.2017  12.2344
    12.2951  12.3236  12.4260  12.4557  12.4976  12.5389  12.5402  12.5711
    12.6135  12.6523  12.6678  12.8424  12.8548  12.8906  12.9163  13.1925
    13.2058  13.2751  13.4957  13.6293  13.6695  13.8861  13.9167  14.1926
    14.2643  14.3578  14.6552  14.8679  14.9335  15.1300  15.2017  15.4638
    15.5809  16.6514  16.8789  16.9301  16.9336  16.9680  16.9807  17.0504
    17.1097  17.1370  17.6105  17.6615  17.7281  17.9339  17.9916  18.0218
    19.5747  19.6243

          k = 0.1250-0.5000-0.0484 ( 13872 PWs)   bands (ev):

   -66.8337 -66.8337 -66.7319 -66.7319 -66.6021 -62.2033 -62.1914 -62.1914
   -35.5981 -35.5981 -35.5616 -35.5616 -35.5512 -35.5512 -35.4985 -35.4985
   -35.4611 -35.4611 -35.4506 -35.4506 -35.3802 -35.3278 -35.3173 -31.0385
   -31.0259 -31.0259 -31.0248 -31.0238 -31.0141 -31.0141 -31.0122 -31.0122
     8.2996   8.3001   8.3307   8.3565   8.3694   8.4067   8.4402   8.4488
     8.4978   8.5246   8.5337   8.5794   8.5927   8.6284   8.6309   8.6625
     8.8580   8.8650   9.0748   9.1669   9.1692   9.2276   9.2405   9.2409
     9.2737   9.2869   9.2995   9.3109   9.3276   9.3570   9.3594   9.4094
     9.5934   9.6488   9.7307   9.7741   9.7895   9.8098   9.8268   9.8647
[...]
    11.5029  11.5362  11.6016  11.6304  11.6584  11.7401  11.7407  11.9175
    11.9230  11.9243  11.9326  12.0497  12.0515  12.1046  12.1123  12.1878
    12.1906  12.2901  12.3045  12.3244  12.3740  12.4294  12.4794  12.5563
    12.5696  12.6174  12.7782  12.8178  13.0820  13.1476  13.4283  13.6043
    13.9805  13.9952  14.3849  14.6585  15.1598  15.2321  15.2689  15.4082
    15.4394  15.8314  15.8690  16.0085  16.1653  16.3317  16.4079  16.9059
    16.9582  17.1055  17.1240  17.1261  17.1662  17.2423  17.2717  17.3359
    17.3545  17.4480  17.4925  17.4983  17.5297  17.6511  17.9979  18.0531
    18.0985  18.2040  18.2073  18.2570  18.4403  18.6989  18.8324  19.0849
    19.5949  19.6437

          k = 0.2500 0.3750-0.0484 ( 13916 PWs)   bands (ev):

   -66.8322 -66.7960 -66.7960 -62.2082 -62.2082 -62.1280 -62.1280 -62.0370
   -35.6004 -35.5612 -35.5612 -35.5581 -35.5538 -35.5243 -35.5243 -35.5200
   -35.5200 -31.0400 -31.0400 -31.0343 -31.0343 -31.0273 -31.0273 -30.9610
   -30.9610 -30.9553 -30.9553 -30.9491 -30.9491 -30.8692 -30.8663 -30.8605
     7.9948   8.0732   8.2230   8.4276   8.6574   8.6607   8.6815   8.8308
     8.8447   8.8777   8.9005   8.9040   8.9084   8.9406   9.0965   9.1126
     9.1515   9.2716   9.3204   9.3377   9.3567   9.4160   9.4258   9.4444
     9.4576   9.4586   9.5918   9.6279   9.6871   9.6891   9.7312   9.7526
     9.8049   9.8079   9.8292   9.8517   9.8857   9.9139   9.9704  10.0262
    10.1328  10.1720  10.2129  10.2194  10.2588  10.2694  10.4307  10.4601
    10.4801  10.5360  10.5444  10.5566  10.6043  10.6294  10.6842  10.6909
    10.7354  10.7733  10.8031  10.8756  10.8900  10.9087  11.0532  11.0896
    11.1005  11.1803  11.1944  11.2099  11.2522  11.3216  11.4264  11.4934
    11.4948  11.5818  11.5972  11.6326  11.6453  11.6610  11.8553  11.8584
    11.9187  11.9235  11.9325  12.0454  12.0743  12.0969  12.1302  12.1474
    12.2449  12.2479  12.3191  12.3223  12.3611  12.4482  12.4759  12.5533
    12.5567  12.6631  12.6953  12.9458  12.9467  13.2518  13.3465  13.7022
    13.8026  14.2207  14.2415  14.7043  15.1777  15.1941  15.2247  15.4383
    15.4880  15.8091  15.8322  16.0434  16.1692  16.3212  16.4101  16.9053
    16.9591  17.1074  17.1219  17.1274  17.1694  17.2437  17.2568  17.3275
    17.3794  17.4304  17.5072  17.5143  17.5226  17.6389  18.0187  18.0292
    18.0741  18.0979  18.2644  18.4231  18.5287  18.5515  18.7524  19.0704
    19.5905  19.6455

          k = 0.2500-0.5000 0.0000 ( 13940 PWs)   bands (ev):

   -66.8325 -66.7963 -66.7963 -62.2078 -62.2078 -62.1277 -62.1277 -62.0366
   -35.6002 -35.5611 -35.5611 -35.5597 -35.5537 -35.5259 -35.5259 -35.5198
   -35.5198 -31.0423 -31.0423 -31.0342 -31.0342 -31.0271 -31.0271 -30.9633
   -30.9633 -30.9551 -30.9551 -30.9490 -30.9490 -30.8690 -30.8685 -30.8603
     8.3907   8.4547   8.4914   8.5053   8.5263   8.6344   8.7790   8.8255
     8.8315   8.8368   8.8388   8.8447   8.8848   8.9553   9.0270   9.0731
     9.1042   9.1833   9.1964   9.2254   9.2494   9.3243   9.3486   9.4230
     9.4304   9.4733   9.5634   9.6012   9.6347   9.6788   9.7025   9.7587
     9.7890   9.8339   9.8597   9.8612   9.9163   9.9692  10.0018  10.0656
    10.2834  10.3484  10.3639  10.3856  10.4331  10.4594  10.4662  10.4717
    10.5971  10.7240  10.7472  10.7808  10.8045  10.8386  10.8586  10.8854
    10.9024  10.9262  10.9558  10.9687  10.9708  10.9779  11.1135  11.2031
    11.2279  11.2360  11.2681  11.2999  11.3352  11.3454  11.4411  11.5416
    11.5809  11.6721  11.6810  11.6866  11.8480  11.8593  11.8903  11.8929
    11.9311  11.9862  12.0112  12.0312  12.0655  12.0997  12.1266  12.2293
    12.3086  12.3410  12.3438  12.4257  12.4347  12.4826  12.5161  12.7770
    12.8732  12.9517  13.0001  13.1030  13.2068  13.2289  13.4601  13.6497
    13.8420  13.9087  13.9820  14.4301  14.4619  14.4678  14.5012  14.7550
    14.8969  15.1106  15.3719  15.7345  15.9994  16.1375  16.2666  16.9008
    16.9720  17.0340  17.0748  17.0813  17.0924  17.1462  17.1463  17.1947
    17.3475  17.4806  17.5428  17.6929  17.7225  17.8663  17.8812  17.9484
    18.0448  18.1231  18.1460  18.2560  18.2806  18.3127  18.5148  18.6126
    19.6223  19.7492

          k = 0.2500-0.5000-0.0484 ( 13912 PWs)   bands (ev):

   -66.8325 -66.7963 -66.7963 -62.2078 -62.2078 -62.1277 -62.1277 -62.0366
   -35.6002 -35.5611 -35.5611 -35.5597 -35.5537 -35.5259 -35.5259 -35.5198
   -35.5198 -31.0423 -31.0423 -31.0342 -31.0342 -31.0271 -31.0271 -30.9633
   -30.9633 -30.9551 -30.9551 -30.9490 -30.9490 -30.8690 -30.8685 -30.8603
     8.3936   8.4561   8.4878   8.4924   8.5287   8.6697   8.7442   8.8239
     8.8316   8.8379   8.8384   8.8461   8.8857   8.9548   9.0249   9.0983
     9.1115   9.1654   9.1807   9.2232   9.2607   9.3284   9.3591   9.4181
     9.4331   9.4679   9.5410   9.6085   9.6308   9.7079   9.7174   9.7483
     9.7765   9.7815   9.8936   9.9049   9.9107   9.9381  10.0093  10.0577
    10.2862  10.3566  10.3765  10.3865  10.4337  10.4538  10.4694  10.4789
    10.5400  10.7489  10.7568  10.7860  10.8319  10.8528  10.8615  10.8763
    10.8824  10.8943  10.9292  10.9584  10.9694  11.0643  11.0665  11.2206
    11.2244  11.2300  11.2837  11.2904  11.3153  11.3556  11.4467  11.5407
    11.5796  11.6722  11.6824  11.6852  11.8471  11.8615  11.8855  11.8962
    11.9333  11.9870  12.0103  12.0315  12.0618  12.1011  12.1250  12.2470
    12.2613  12.3442  12.4014  12.4248  12.4461  12.4638  12.4823  12.8326
    12.8528  12.9000  13.0495  13.0881  13.1611  13.2899  13.4233  13.7321
    13.7538  13.8572  14.1484  14.2549  14.3553  14.6101  14.6538  14.6747
    14.9250  15.0015  15.4651  15.6957  15.9885  16.1538  16.2599  16.9202
    16.9720  17.0115  17.0744  17.0821  17.0920  17.1464  17.1541  17.1833
    17.3662  17.4805  17.5248  17.7069  17.7236  17.8607  17.8675  17.9513
    18.0560  18.1216  18.1565  18.1941  18.3218  18.4125  18.4922  18.5124
    19.7776  19.9545

          k = 0.3750 0.3750 0.0000 ( 13948 PWs)   bands (ev):

   -66.8320 -66.7958 -66.7958 -62.2080 -62.2080 -62.1279 -62.1279 -62.0368
   -35.6001 -35.5610 -35.5610 -35.5578 -35.5577 -35.5239 -35.5239 -35.5239
   -35.5239 -31.0396 -31.0396 -31.0394 -31.0394 -31.0270 -31.0270 -30.9606
   -30.9606 -30.9604 -30.9604 -30.9488 -30.9488 -30.8689 -30.8659 -30.8656
     8.1114   8.2043   8.3004   8.4596   8.5297   8.5647   8.7214   8.7274
     8.9715   9.0438   9.0561   9.1026   9.1381   9.1759   9.1922   9.2756
     9.3003   9.3109   9.3254   9.3538   9.3919   9.3920   9.4929   9.5045
     9.5068   9.5370   9.5540   9.5985   9.6768   9.6996   9.7028   9.8888
     9.9518   9.9724   9.9917  10.0010  10.0412  10.0413  10.0625  10.1315
    10.1490  10.1750  10.2216  10.2776  10.2958  10.3262  10.3319  10.4555
    10.5556  10.5595  10.5866  10.7285  10.7350  10.7647  10.8340  10.8356
    10.8717  10.8840  10.9897  11.0691  11.0793  11.1889  11.2116  11.2381
    11.2813  11.2818  11.3015  11.4566  11.4769  11.4856  11.5202  11.5375
    11.6078  11.6118  11.6347  11.6350  11.7831  11.9570  11.9627  11.9664
    11.9831  11.9947  11.9994  12.0162  12.0331  12.1008  12.1264  12.1403
    12.1895  12.2512  12.2673  12.2909  12.3255  12.4028  12.5040  12.5314
    12.7030  12.7052  13.0136  13.1096  13.3779  13.5209  13.7459  14.0301
    14.4802  14.6088  14.8507  14.8852  15.1015  15.1814  15.2188  15.3109
    15.4602  16.2288  16.3471  16.3514  16.4450  16.4906  16.5960  17.0413
    17.0618  17.1311  17.1391  17.1446  17.1656  17.3582  17.4647  17.6214
    17.6869  17.8020  17.8314  17.8656  17.8680  17.8928  18.0138  18.0666
    18.1134  18.2150  18.2453  18.2936  18.4719  18.5812  18.8479  18.8866
    18.8977  18.9750

          k = 0.3750 0.3750-0.0484 ( 13950 PWs)   bands (ev):

   -66.8320 -66.7958 -66.7958 -62.2080 -62.2080 -62.1279 -62.1279 -62.0368
   -35.6001 -35.5610 -35.5610 -35.5578 -35.5577 -35.5239 -35.5239 -35.5239
   -35.5239 -31.0396 -31.0396 -31.0394 -31.0394 -31.0270 -31.0270 -30.9606
   -30.9606 -30.9604 -30.9604 -30.9488 -30.9488 -30.8689 -30.8659 -30.8656
     8.1149   8.1918   8.3154   8.4616   8.5168   8.5920   8.6310   8.8197
     8.9580   9.0405   9.0662   9.0949   9.1004   9.1920   9.2059   9.2237
     9.3268   9.3288   9.3486   9.3503   9.4035   9.4446   9.4460   9.4617
     9.4658   9.5781   9.5886   9.5939   9.6248   9.6784   9.8255   9.8365
     9.9217   9.9581   9.9884   9.9936  10.0000  10.0596  10.1397  10.1401
    10.1673  10.1915  10.2090  10.2562  10.2597  10.3183  10.3837  10.3915
    10.5443  10.5667  10.6441  10.7071  10.7124  10.8370  10.8407  10.8521
    10.8650  10.8786  10.8861  11.0794  11.1027  11.1918  11.2012  11.2528
    11.2693  11.3026  11.3278  11.4398  11.4509  11.4973  11.4987  11.5454
    11.6014  11.6195  11.6293  11.6378  11.8433  11.8609  11.9641  11.9789
    11.9962  11.9995  12.0152  12.0420  12.0577  12.0593  12.0863  12.1680
    12.2103  12.2427  12.2720  12.2922  12.2980  12.4244  12.4969  12.5669
    12.5890  12.8628  12.8812  13.2155  13.2919  13.5777  13.7133  14.0448
    14.4430  14.6866  14.7659  14.9231  15.1161  15.1470  15.2470  15.3024
    15.4604  16.2306  16.3381  16.3450  16.4685  16.4969  16.5771  17.0540
    17.0592  17.1298  17.1387  17.1450  17.1660  17.3484  17.4410  17.6653
    17.6964  17.7951  17.8308  17.8667  17.8667  17.9090  17.9280  18.0055
    18.2077  18.2172  18.3351  18.3973  18.4820  18.5023  18.6121  18.7297
    18.8104  19.1739

          k = 0.3750-0.5000 0.0000 ( 13934 PWs)   bands (ev):

   -66.8321 -66.7959 -66.7959 -62.2078 -62.2078 -62.1276 -62.1276 -62.0366
   -35.6000 -35.5609 -35.5609 -35.5594 -35.5576 -35.5255 -35.5255 -35.5238
   -35.5238 -31.0417 -31.0417 -31.0393 -31.0393 -31.0269 -31.0268 -30.9627
   -30.9627 -30.9603 -30.9603 -30.9487 -30.9487 -30.8688 -30.8680 -30.8655
     8.2333   8.2569   8.3090   8.3445   8.3627   8.4757   8.7315   8.7741
     8.8465   9.0671   9.1343   9.1479   9.1771   9.1880   9.1916   9.2168
     9.2471   9.2515   9.2947   9.3027   9.3592   9.4014   9.4170   9.4186
     9.4798   9.5330   9.5886   9.6060   9.6996   9.7024   9.8443   9.8782
     9.9512   9.9701   9.9864  10.0040  10.0139  10.0160  10.1143  10.1607
    10.2024  10.2144  10.2641  10.3763  10.3924  10.3957  10.4437  10.5418
    10.5965  10.6624  10.7296  10.7852  10.8210  10.8362  10.8904  11.1120
    11.1298  11.1605  11.1622  11.1700  11.2004  11.2188  11.2505  11.3010
    11.4056  11.4454  11.4769  11.4922  11.5381  11.5714  11.6619  11.7167
    11.7222  11.7966  11.8100  11.8512  11.9184  11.9633  11.9732  12.0110
    12.0118  12.0683  12.1005  12.1159  12.1438  12.1514  12.1538  12.1981
    12.2254  12.2650  12.3189  12.3723  12.3845  12.3944  12.4839  12.9430
    13.0858  13.1170  13.1893  13.3419  13.5654  13.7251  13.9245  14.1524
    14.2614  14.3004  14.4265  14.4353  14.7125  14.7519  15.3387  15.4080
    15.4514  15.5345  15.7475  15.9806  16.7417  16.8117  16.9219  17.0531
    17.0632  17.0697  17.0832  17.0989  17.2238  17.2521  17.3063  17.6575
    17.7102  17.8304  17.8307  18.0067  18.0136  18.0188  18.1235  18.1366
    18.1516  18.4039  18.4321  18.4503  18.4915  18.6241  18.8141  18.8642
    18.9016  19.0883

          k = 0.3750-0.5000-0.0484 ( 13940 PWs)   bands (ev):

   -66.8321 -66.7959 -66.7959 -62.2078 -62.2078 -62.1276 -62.1276 -62.0366
   -35.6000 -35.5609 -35.5609 -35.5594 -35.5576 -35.5255 -35.5255 -35.5238
   -35.5238 -31.0417 -31.0417 -31.0393 -31.0393 -31.0268 -31.0268 -30.9627
   -30.9627 -30.9603 -30.9603 -30.9487 -30.9487 -30.8688 -30.8680 -30.8655
     8.2364   8.2588   8.3038   8.3315   8.3668   8.5026   8.7014   8.7285
     8.9668   9.0399   9.1031   9.1127   9.1402   9.1903   9.2119   9.2247
     9.2492   9.2821   9.2983   9.3024   9.3860   9.3930   9.4095   9.4143
     9.5000   9.5117   9.5752   9.6003   9.7207   9.7220   9.8215   9.8473
     9.9518   9.9679   9.9698  10.0161  10.0222  10.0653  10.1381  10.1635
    10.1885  10.2460  10.2576  10.2779  10.2802  10.5268  10.5390  10.5461
    10.6117  10.6223  10.6808  10.7703  10.7751  10.8073  11.0115  11.1008
    11.1122  11.1341  11.1501  11.1652  11.2086  11.2376  11.2815  11.3213
    11.3707  11.4009  11.4616  11.5237  11.5531  11.5907  11.6406  11.7188
    11.7353  11.7725  11.8328  11.8421  11.9237  11.9497  11.9795  12.0111
    12.0135  12.0623  12.1101  12.1117  12.1463  12.1494  12.1512  12.2026
    12.2124  12.2927  12.3196  12.3518  12.3923  12.4133  12.4549  12.9900
    13.0354  13.0905  13.2511  13.3189  13.5496  13.7487  13.9120  14.1743
    14.2086  14.3510  14.4139  14.4297  14.7107  14.7548  15.3405  15.4055
    15.4524  15.5284  15.7561  15.9776  16.7371  16.8273  16.9071  17.0529
    17.0707  17.0732  17.0833  17.0838  17.1750  17.2653  17.4561  17.4821
    17.7612  17.7947  17.9396  17.9772  17.9936  18.0296  18.1102  18.1466
    18.1833  18.2649  18.3611  18.5460  18.5823  18.6188  18.8478  18.9377
    18.9571  18.9693

          k =-0.5000-0.5000 0.0000 ( 13964 PWs)   bands (ev):

   -66.8321 -66.7959 -66.7959 -62.2077 -62.2077 -62.1275 -62.1275 -62.0364
   -35.5999 -35.5608 -35.5608 -35.5592 -35.5592 -35.5254 -35.5254 -35.5254
   -35.5254 -31.0415 -31.0415 -31.0415 -31.0415 -31.0267 -31.0267 -30.9625
   -30.9625 -30.9625 -30.9625 -30.9486 -30.9486 -30.8686 -30.8677 -30.8677
     8.1644   8.1706   8.2263   8.2719   8.2858   8.3990   8.6889   8.7720
     8.7767   8.9967   9.1673   9.1818   9.2138   9.2285   9.2589   9.2589
     9.2961   9.2961   9.3327   9.3327   9.4086   9.4548   9.4548   9.4580
     9.4614   9.4614   9.7032   9.7032   9.7043   9.7043   9.8515   9.9469
     9.9469   9.9569   9.9569   9.9571   9.9571   9.9832  10.0469  10.0595
    10.0595  10.0775  10.0775  10.5061  10.5166  10.5166  10.5721  10.5721
    10.6027  10.6197  10.7001  10.7027  10.9795  10.9795  11.1787  11.1858
    11.1963  11.2104  11.2847  11.2847  11.2960  11.3291  11.3958  11.4193
    11.4193  11.7249  11.7249  11.9214  11.9214  11.9556  11.9556  11.9652
    11.9843  11.9849  12.0045  12.0045  12.0456  12.0456  12.0546  12.0553
    12.0774  12.0782  12.1047  12.1048  12.1468  12.1746  12.1823  12.1931
    12.1931  12.2018  12.2337  12.2646  12.2899  12.3445  12.3941  13.3985
    13.4104  13.4226  13.4382  13.4555  13.8827  13.8827  14.0986  14.0986
    14.2108  14.2108  14.4468  14.4468  14.7691  14.7691  15.8596  15.8596
    15.9344  15.9344  16.0249  16.0249  16.5980  16.6270  16.6936  16.7704
    16.9116  16.9477  17.0243  17.2835  17.3059  17.3059  17.5863  17.5863
    17.7551  17.7872  17.8542  17.8685  18.0412  18.0412  18.1197  18.1197
    18.2198  18.2237  18.2237  18.2242  18.2328  18.2942  18.2952  18.2952
    18.6791  18.7476

          k =-0.5000-0.5000-0.0484 ( 13992 PWs)   bands (ev):

   -66.8321 -66.7959 -66.7959 -62.2077 -62.2077 -62.1275 -62.1275 -62.0364
   -35.5999 -35.5608 -35.5608 -35.5592 -35.5592 -35.5254 -35.5254 -35.5254
   -35.5254 -31.0415 -31.0415 -31.0415 -31.0415 -31.0267 -31.0267 -30.9625
   -30.9625 -30.9625 -30.9625 -30.9486 -30.9486 -30.8686 -30.8677 -30.8677
     8.1673   8.1724   8.2212   8.2601   8.2900   8.4201   8.6753   8.6841
     8.9410   8.9974   9.0664   9.0696   9.2615   9.2615   9.2855   9.2855
     9.3138   9.3612   9.3612   9.3663   9.3761   9.3830   9.3909   9.3909
     9.5642   9.5642   9.5682   9.5682   9.8691   9.8691   9.8703   9.8731
     9.8731   9.9470   9.9470   9.9571   9.9571   9.9572   9.9572   9.9625
    10.0545  10.2786  10.2786  10.3092  10.3092  10.5211  10.5612  10.6588
    10.6904  10.7001  10.7723  10.7723  10.8416  10.8416  11.1783  11.1863
    11.1960  11.2116  11.2923  11.3317  11.3678  11.3678  11.3958  11.4193
    11.4193  11.6365  11.6365  11.9556  11.9556  11.9652  11.9843  11.9849
    11.9939  11.9939  12.0045  12.0045  12.0456  12.0456  12.0546  12.0553
    12.0774  12.0782  12.1047  12.1048  12.1468  12.1660  12.1660  12.1756
    12.1810  12.2022  12.2268  12.2776  12.2899  12.3353  12.3970  13.3991
    13.4088  13.4240  13.4377  13.4555  13.9214  13.9214  14.0121  14.0121
    14.2847  14.2847  14.4199  14.4199  14.7707  14.7707  15.8600  15.8600
    15.9329  15.9329  16.0264  16.0264  16.5962  16.6353  16.6754  16.8136
    16.8701  16.9116  17.1261  17.2075  17.2715  17.2715  17.7790  17.7972
    17.8102  17.8102  17.8135  17.8135  17.9036  17.9266  17.9755  18.0412
    18.0412  18.1197  18.1197  18.2177  18.2328  18.5220  18.5744  18.7499
    18.7733  18.7733

     the Fermi energy is    15.3017 ev

!    total energy              =  -14693.99705835 Ry
     Harris-Foulkes estimate   =  -14693.99705257 Ry
     estimated scf accuracy    <       0.00000048 Ry

     total all-electron energy =   -626921.592780 Ry

     The total energy is the sum of the following terms:

     one-electron contribution =    -714.31580908 Ry
     hartree contribution      =     656.42057351 Ry
     xc contribution           =    -737.89899195 Ry
     ewald contribution        =   -2196.78933708 Ry
     Hubbard energy            =       0.44263796 Ry
     one-center paw contrib.   =  -11701.85613171 Ry

     total magnetization       =     8.76 Bohr mag/cell
     absolute magnetization    =    37.36 Bohr mag/cell

     convergence has been achieved in  25 iterations

     Writing output data file mnau2.save/
 
     init_run     :     14.06s CPU     14.63s WALL (       1 calls)
     electrons    :    830.01s CPU    853.20s WALL (       1 calls)

     Called by init_run:
     wfcinit      :     12.50s CPU     12.79s WALL (       1 calls)
     potinit      :      0.79s CPU      0.81s WALL (       1 calls)
     hinit0       :      0.46s CPU      0.70s WALL (       1 calls)

     Called by electrons:
     c_bands      :    729.10s CPU    748.15s WALL (      25 calls)
     sum_band     :     87.18s CPU     89.60s WALL (      25 calls)
     v_of_rho     :      1.24s CPU      1.25s WALL (      26 calls)
     newd         :      3.29s CPU      3.31s WALL (      26 calls)
     PAW_pot      :      9.32s CPU      9.42s WALL (      26 calls)
     mix_rho      :      0.26s CPU      0.28s WALL (      25 calls)

     Called by c_bands:
     init_us_2    :      3.74s CPU      3.78s WALL (    3120 calls)
     cegterg      :    703.60s CPU    722.48s WALL (    1500 calls)

     Called by sum_band:
     sum_band:bec :      1.09s CPU      1.10s WALL (    1500 calls)
     addusdens    :      5.31s CPU      5.57s WALL (      25 calls)

     Called by *egterg:
     h_psi        :    295.08s CPU    303.03s WALL (    5734 calls)
     s_psi        :     29.73s CPU     29.78s WALL (    5794 calls)
     g_psi        :      1.06s CPU      1.06s WALL (    4174 calls)
     cdiaghg      :    288.26s CPU    298.82s WALL (    5674 calls)

     Called by h_psi:
     h_psi:pot    :    279.02s CPU    286.79s WALL (    5734 calls)
     h_psi:calbec :     39.61s CPU     41.07s WALL (    5734 calls)
     vloc_psi     :    210.54s CPU    216.33s WALL (    5734 calls)
     add_vuspsi   :     28.82s CPU     29.36s WALL (    5734 calls)
     vhpsi        :     15.30s CPU     15.48s WALL (    5734 calls)

     General routines
     calbec       :     70.99s CPU     73.43s WALL (   14528 calls)
     fft          :      1.23s CPU      1.48s WALL (     646 calls)
     ffts         :      0.05s CPU      0.05s WALL (     102 calls)
     fftw         :    248.44s CPU    255.28s WALL ( 1433492 calls)
     interpolate  :      0.11s CPU      0.11s WALL (      52 calls)
     davcio       :      0.00s CPU      0.01s WALL (      60 calls)
 
     Parallel routines
     fft_scatt_xy :     15.52s CPU     15.89s WALL ( 1434240 calls)
     fft_scatt_yz :    166.60s CPU    171.70s WALL ( 1434240 calls)

     Hubbard U routines
     new_ns       :      2.74s CPU      2.83s WALL (      25 calls)
     vhpsi        :     15.30s CPU     15.48s WALL (    5734 calls)
 
     PWSCF        : 14m14.25s CPU    15m 0.48s WALL

 
   This run was terminated on:  21:27:11   6Apr2019            

=------------------------------------------------------------------------------=
   JOB DONE.
=------------------------------------------------------------------------------=
