
     Program PWSCF v.6.3MaX starts on  6Apr2019 at 21:27:12 

     This program is part of the open-source Quantum ESPRESSO suite
     for quantum simulation of materials; please cite
         "P. Giannozzi et al., J. Phys.:Condens. Matter 21 395502 (2009);
         "P. Giannozzi et al., J. Phys.:Condens. Matter 29 465901 (2017);
          URL http://www.quantum-espresso.org", 
     in publications or presentations arising from this work. More details at
     http://www.quantum-espresso.org/quote

     Parallel version (MPI), running on    32 processors

     MPI processes distributed on     4 nodes
     R & G space division:  proc/nbgrp/npool/nimage =      32
     Waiting for input...
     Reading input from standard input

     Current dimensions of program PWSCF are:
     Max number of different atomic species (ntypx) = 10
     Max number of k-points (npk) =  40000
     Max angular momentum in pseudopotentials (lmaxx) =  3
               file Mn.pbe-spn-kjpaw_psl.0.3.1.UPF: wavefunction(s)  3P 3D renormalized
               file Mn.pbe-spn-kjpaw_psl.0.3.1.UPF: wavefunction(s)  3P 3D renormalized
               file Au.pbe-dn-kjpaw_psl.0.1.UPF: wavefunction(s)  6S 6P 5D renormalized

     Subspace diagonalization in iterative solution of the eigenvalue problem:
     one sub-group per band group will be used
     scalapack distributed-memory algorithm (size of sub-group:  4*  4 procs)

 
     Parallelization info
     --------------------
     sticks:   dense  smooth     PW     G-vecs:    dense   smooth      PW
     Min          41      18      5                11487     3460     563
     Max          42      19      6                11527     3505     606
     Sum        1313     593    177               368373   111379   18691
 


     bravais-lattice index     =            0
     lattice parameter (alat)  =       6.4153  a.u.
     unit-cell volume          =    2724.7774 (a.u.)^3
     number of atoms/cell      =           24
     number of atomic types    =            3
     number of electrons       =       296.00
     number of Kohn-Sham states=          178
     kinetic-energy cutoff     =      45.0000  Ry
     charge density cutoff     =     400.0000  Ry
     convergence threshold     =      1.0E-06
     mixing beta               =       0.1000
     number of iterations used =            8  plain     mixing
     Exchange-correlation      = SLA PW PBX PBC ( 1  4  3  4 0 0)

     celldm(1)=   6.415315  celldm(2)=   0.000000  celldm(3)=   0.000000
     celldm(4)=   0.000000  celldm(5)=   0.000000  celldm(6)=   0.000000

     crystal axes: (cart. coord. in units of alat)
               a(1) = (   1.000000   0.000000   0.000000 )  
               a(2) = (   0.000000   1.000000   0.000000 )  
               a(3) = (   0.000000   0.000000  10.319937 )  

     reciprocal axes: (cart. coord. in units 2 pi/alat)
               b(1) = (  1.000000  0.000000  0.000000 )  
               b(2) = (  0.000000  1.000000  0.000000 )  
               b(3) = (  0.000000  0.000000  0.096900 )  


     PseudoPot. # 1 for Mn read from file:
     ./pseudo/Mn.pbe-spn-kjpaw_psl.0.3.1.UPF
     MD5 check sum: 7b43a3fb0e93e198b8dd8488d8cf503e
     Pseudo is Projector augmented-wave + core cor, Zval = 15.0
     Generated using "atomic" code by A. Dal Corso v.5.0.99 svn rev. 10869
     Shape of augmentation charge: PSQ
     Using radial grid of 1187 points,  6 beta functions with: 
                l(1) =   0
                l(2) =   0
                l(3) =   1
                l(4) =   1
                l(5) =   2
                l(6) =   2
     Q(r) pseudized with 0 coefficients 


     PseudoPot. # 2 for Mn read from file:
     ./pseudo/Mn.pbe-spn-kjpaw_psl.0.3.1.UPF
     MD5 check sum: 7b43a3fb0e93e198b8dd8488d8cf503e
     Pseudo is Projector augmented-wave + core cor, Zval = 15.0
     Generated using "atomic" code by A. Dal Corso v.5.0.99 svn rev. 10869
     Shape of augmentation charge: PSQ
     Using radial grid of 1187 points,  6 beta functions with: 
                l(1) =   0
                l(2) =   0
                l(3) =   1
                l(4) =   1
                l(5) =   2
                l(6) =   2
     Q(r) pseudized with 0 coefficients 


     PseudoPot. # 3 for Au read from file:
     ./pseudo/Au.pbe-dn-kjpaw_psl.0.1.UPF
     MD5 check sum: be11e2e8e535ebe2b3ccfb4f88f554cb
     Pseudo is Projector augmented-wave + core cor, Zval = 11.0
     Generated using "atomic" code by A. Dal Corso v.5.0.2 svn rev. 9415
     Shape of augmentation charge: PSQ
     Using radial grid of 1279 points,  6 beta functions with: 
                l(1) =   0
                l(2) =   0
                l(3) =   1
                l(4) =   1
                l(5) =   2
                l(6) =   2
     Q(r) pseudized with 0 coefficients 


     atomic species   valence    mass     pseudopotential
        Mn1           15.00    54.93800     Mn( 1.00)
        Mn2           15.00    54.93800     Mn( 1.00)
        Au            11.00   196.96600     Au( 1.00)

     Starting magnetic structure 
     atomic species   magnetization
        Mn1          0.800
        Mn2         -0.800
        Au           0.000


     Full LDA+U calculation (l_max = 2) with parameters (eV):
     U(  1) =   3.1200   J(  1) =   0.7000   B(  1) =   0.0803
     U(  2) =   3.1200   J(  2) =   0.7000   B(  2) =   0.0803



      8 Sym. Ops. (no inversion) found



   Cartesian axes

     site n.     atom                  positions (alat units)
         1           Mn1 tau(   1) = (   0.0000000   0.0000000   0.0000000  )
         2           Mn1 tau(   2) = (   0.5000000   0.5000000   1.2899921  )
         3           Mn1 tau(   3) = (   0.0000000   0.0000000   2.5799843  )
         4           Mn2 tau(   4) = (   0.5000000   0.5000000   3.8699764  )
         5           Mn1 tau(   5) = (   0.0000000   0.0000000   5.1599686  )
         6           Mn2 tau(   6) = (   0.5000000   0.5000000   6.4499607  )
         7           Mn2 tau(   7) = (   0.0000000   0.0000000   7.7399528  )
         8           Mn2 tau(   8) = (   0.5000000   0.5000000   9.0299450  )
         9           Au  tau(   9) = (   0.5000000   0.5000000   0.4127975  )
        10           Au  tau(  10) = (   0.0000000   0.0000000   0.8771947  )
        11           Au  tau(  11) = (   0.0000000   0.0000000   1.7027896  )
        12           Au  tau(  12) = (   0.5000000   0.5000000   2.1671868  )
        13           Au  tau(  13) = (   0.5000000   0.5000000   2.9927818  )
        14           Au  tau(  14) = (   0.0000000   0.0000000   3.4571789  )
        15           Au  tau(  15) = (   0.0000000   0.0000000   4.2827739  )
        16           Au  tau(  16) = (   0.5000000   0.5000000   4.7471711  )
        17           Au  tau(  17) = (   0.5000000   0.5000000   5.5727660  )
        18           Au  tau(  18) = (   0.0000000   0.0000000   6.0371632  )
        19           Au  tau(  19) = (   0.0000000   0.0000000   6.8627582  )
        20           Au  tau(  20) = (   0.5000000   0.5000000   7.3271553  )
        21           Au  tau(  21) = (   0.5000000   0.5000000   8.1527503  )
        22           Au  tau(  22) = (   0.0000000   0.0000000   8.6171475  )
        23           Au  tau(  23) = (   0.0000000   0.0000000   9.4427424  )
        24           Au  tau(  24) = (   0.5000000   0.5000000   9.9071396  )

     number of k points=    30 (tetrahedron method)
                       cart. coord. in units 2pi/alat
        k(    1) = (   0.0000000   0.0000000   0.0000000), wk =   0.0078125
        k(    2) = (   0.0000000   0.0000000  -0.0484499), wk =   0.0078125
        k(    3) = (   0.0000000   0.1250000   0.0000000), wk =   0.0312500
        k(    4) = (   0.0000000   0.1250000  -0.0484499), wk =   0.0312500
        k(    5) = (   0.0000000   0.2500000   0.0000000), wk =   0.0312500
        k(    6) = (   0.0000000   0.2500000  -0.0484499), wk =   0.0312500
        k(    7) = (   0.0000000   0.3750000   0.0000000), wk =   0.0312500
        k(    8) = (   0.0000000   0.3750000  -0.0484499), wk =   0.0312500
        k(    9) = (   0.0000000  -0.5000000   0.0000000), wk =   0.0156250
        k(   10) = (   0.0000000  -0.5000000  -0.0484499), wk =   0.0156250
        k(   11) = (   0.1250000   0.1250000   0.0000000), wk =   0.0312500
        k(   12) = (   0.1250000   0.1250000  -0.0484499), wk =   0.0312500
        k(   13) = (   0.1250000   0.2500000   0.0000000), wk =   0.0625000
        k(   14) = (   0.1250000   0.2500000  -0.0484499), wk =   0.0625000
        k(   15) = (   0.1250000   0.3750000   0.0000000), wk =   0.0625000
        k(   16) = (   0.1250000   0.3750000  -0.0484499), wk =   0.0625000
        k(   17) = (   0.1250000  -0.5000000   0.0000000), wk =   0.0312500
        k(   18) = (   0.1250000  -0.5000000  -0.0484499), wk =   0.0312500
        k(   19) = (   0.2500000   0.2500000   0.0000000), wk =   0.0312500
        k(   20) = (   0.2500000   0.2500000  -0.0484499), wk =   0.0312500
        k(   21) = (   0.2500000   0.3750000   0.0000000), wk =   0.0625000
        k(   22) = (   0.2500000   0.3750000  -0.0484499), wk =   0.0625000
        k(   23) = (   0.2500000  -0.5000000   0.0000000), wk =   0.0312500
        k(   24) = (   0.2500000  -0.5000000  -0.0484499), wk =   0.0312500
        k(   25) = (   0.3750000   0.3750000   0.0000000), wk =   0.0312500
        k(   26) = (   0.3750000   0.3750000  -0.0484499), wk =   0.0312500
        k(   27) = (   0.3750000  -0.5000000   0.0000000), wk =   0.0312500
        k(   28) = (   0.3750000  -0.5000000  -0.0484499), wk =   0.0312500
        k(   29) = (  -0.5000000  -0.5000000   0.0000000), wk =   0.0078125
        k(   30) = (  -0.5000000  -0.5000000  -0.0484499), wk =   0.0078125

     Dense  grid:   368373 G-vectors     FFT dimensions: (  45,  45, 432)

     Smooth grid:   111379 G-vectors     FFT dimensions: (  27,  27, 288)

     Estimated max dynamical RAM per process >     143.50 MB

     Estimated total dynamical RAM >       4.48 GB
     Generating pointlists ...
     new r_m :   0.3377 (alat units)  2.1668 (a.u.) for type    1
     new r_m :   0.3377 (alat units)  2.1668 (a.u.) for type    2
     new r_m :   0.3377 (alat units)  2.1668 (a.u.) for type    3

     Check: negative/imaginary core charge=   -0.000006    0.000000

     Initial potential from superposition of free atoms

     starting charge  295.99426, renormalised to  296.00000
     Number of +U iterations with fixed ns =  0
     Starting occupations:
 --- enter write_ns ---
 LDA+U parameters:
U(  1) =   3.1200   J(  1) =   0.7000   B(  1) =   0.0803
U(  2) =   3.1200   J(  2) =   0.7000   B(  2) =   0.0803
atom    1   Tr[ns(na)] (up, down, total) =   5.00000  0.00000  5.00000
   spin  1
    eigenvalues: 
  1.000  1.000  1.000  1.000  1.000
    eigenvectors:
  1.000  0.000  0.000  0.000  0.000
  0.000  1.000  0.000  0.000  0.000
  0.000  0.000  1.000  0.000  0.000
  0.000  0.000  0.000  1.000  0.000
  0.000  0.000  0.000  0.000  1.000
    occupations:
  1.000  0.000  0.000  0.000  0.000
  0.000  1.000  0.000  0.000  0.000
  0.000  0.000  1.000  0.000  0.000
  0.000  0.000  0.000  1.000  0.000
  0.000  0.000  0.000  0.000  1.000
   spin  2
    eigenvalues: 
  0.000  0.000  0.000  0.000  0.000
    eigenvectors:
  1.000  0.000  0.000  0.000  0.000
  0.000  1.000  0.000  0.000  0.000
  0.000  0.000  1.000  0.000  0.000
  0.000  0.000  0.000  1.000  0.000
  0.000  0.000  0.000  0.000  1.000
    occupations:
  0.000  0.000  0.000  0.000  0.000
  0.000  0.000  0.000  0.000  0.000
  0.000  0.000  0.000  0.000  0.000
  0.000  0.000  0.000  0.000  0.000
  0.000  0.000  0.000  0.000  0.000
atomic mag. moment =     5.000000
atom    2   Tr[ns(na)] (up, down, total) =   5.00000  0.00000  5.00000
   spin  1
    eigenvalues: 
  1.000  1.000  1.000  1.000  1.000
    eigenvectors:
  1.000  0.000  0.000  0.000  0.000
  0.000  1.000  0.000  0.000  0.000
  0.000  0.000  1.000  0.000  0.000
  0.000  0.000  0.000  1.000  0.000
  0.000  0.000  0.000  0.000  1.000
    occupations:
  1.000  0.000  0.000  0.000  0.000
  0.000  1.000  0.000  0.000  0.000
  0.000  0.000  1.000  0.000  0.000
  0.000  0.000  0.000  1.000  0.000
  0.000  0.000  0.000  0.000  1.000
   spin  2
    eigenvalues: 
  0.000  0.000  0.000  0.000  0.000
    eigenvectors:
  1.000  0.000  0.000  0.000  0.000
  0.000  1.000  0.000  0.000  0.000
  0.000  0.000  1.000  0.000  0.000
  0.000  0.000  0.000  1.000  0.000
  0.000  0.000  0.000  0.000  1.000
    occupations:
  0.000  0.000  0.000  0.000  0.000
  0.000  0.000  0.000  0.000  0.000
  0.000  0.000  0.000  0.000  0.000
  0.000  0.000  0.000  0.000  0.000
  0.000  0.000  0.000  0.000  0.000
atomic mag. moment =     5.000000
atom    3   Tr[ns(na)] (up, down, total) =   5.00000  0.00000  5.00000
   spin  1
    eigenvalues: 
  1.000  1.000  1.000  1.000  1.000
    eigenvectors:
  1.000  0.000  0.000  0.000  0.000
  0.000  1.000  0.000  0.000  0.000
  0.000  0.000  1.000  0.000  0.000
  0.000  0.000  0.000  1.000  0.000
  0.000  0.000  0.000  0.000  1.000
    occupations:
  1.000  0.000  0.000  0.000  0.000
  0.000  1.000  0.000  0.000  0.000
  0.000  0.000  1.000  0.000  0.000
  0.000  0.000  0.000  1.000  0.000
  0.000  0.000  0.000  0.000  1.000
   spin  2
    eigenvalues: 
  0.000  0.000  0.000  0.000  0.000
    eigenvectors:
  1.000  0.000  0.000  0.000  0.000
  0.000  1.000  0.000  0.000  0.000
  0.000  0.000  1.000  0.000  0.000
  0.000  0.000  0.000  1.000  0.000
  0.000  0.000  0.000  0.000  1.000
    occupations:
  0.000  0.000  0.000  0.000  0.000
  0.000  0.000  0.000  0.000  0.000
  0.000  0.000  0.000  0.000  0.000
  0.000  0.000  0.000  0.000  0.000
  0.000  0.000  0.000  0.000  0.000
atomic mag. moment =     5.000000
atom    4   Tr[ns(na)] (up, down, total) =   0.00000  5.00000  5.00000
   spin  1
    eigenvalues: 
  0.000  0.000  0.000  0.000  0.000
    eigenvectors:
  1.000  0.000  0.000  0.000  0.000
  0.000  1.000  0.000  0.000  0.000
  0.000  0.000  1.000  0.000  0.000
  0.000  0.000  0.000  1.000  0.000
  0.000  0.000  0.000  0.000  1.000
    occupations:
  0.000  0.000  0.000  0.000  0.000
  0.000  0.000  0.000  0.000  0.000
  0.000  0.000  0.000  0.000  0.000
  0.000  0.000  0.000  0.000  0.000
  0.000  0.000  0.000  0.000  0.000
   spin  2
    eigenvalues: 
  1.000  1.000  1.000  1.000  1.000
    eigenvectors:
  1.000  0.000  0.000  0.000  0.000
  0.000  1.000  0.000  0.000  0.000
  0.000  0.000  1.000  0.000  0.000
  0.000  0.000  0.000  1.000  0.000
  0.000  0.000  0.000  0.000  1.000
    occupations:
  1.000  0.000  0.000  0.000  0.000
  0.000  1.000  0.000  0.000  0.000
  0.000  0.000  1.000  0.000  0.000
  0.000  0.000  0.000  1.000  0.000
  0.000  0.000  0.000  0.000  1.000
atomic mag. moment =    -5.000000
atom    5   Tr[ns(na)] (up, down, total) =   5.00000  0.00000  5.00000
   spin  1
    eigenvalues: 
  1.000  1.000  1.000  1.000  1.000
    eigenvectors:
  1.000  0.000  0.000  0.000  0.000
  0.000  1.000  0.000  0.000  0.000
  0.000  0.000  1.000  0.000  0.000
  0.000  0.000  0.000  1.000  0.000
  0.000  0.000  0.000  0.000  1.000
    occupations:
  1.000  0.000  0.000  0.000  0.000
  0.000  1.000  0.000  0.000  0.000
  0.000  0.000  1.000  0.000  0.000
  0.000  0.000  0.000  1.000  0.000
  0.000  0.000  0.000  0.000  1.000
   spin  2
    eigenvalues: 
  0.000  0.000  0.000  0.000  0.000
    eigenvectors:
  1.000  0.000  0.000  0.000  0.000
  0.000  1.000  0.000  0.000  0.000
  0.000  0.000  1.000  0.000  0.000
  0.000  0.000  0.000  1.000  0.000
  0.000  0.000  0.000  0.000  1.000
    occupations:
  0.000  0.000  0.000  0.000  0.000
  0.000  0.000  0.000  0.000  0.000
  0.000  0.000  0.000  0.000  0.000
  0.000  0.000  0.000  0.000  0.000
  0.000  0.000  0.000  0.000  0.000
atomic mag. moment =     5.000000
atom    6   Tr[ns(na)] (up, down, total) =   0.00000  5.00000  5.00000
   spin  1
    eigenvalues: 
  0.000  0.000  0.000  0.000  0.000
    eigenvectors:
  1.000  0.000  0.000  0.000  0.000
  0.000  1.000  0.000  0.000  0.000
  0.000  0.000  1.000  0.000  0.000
  0.000  0.000  0.000  1.000  0.000
  0.000  0.000  0.000  0.000  1.000
    occupations:
  0.000  0.000  0.000  0.000  0.000
  0.000  0.000  0.000  0.000  0.000
  0.000  0.000  0.000  0.000  0.000
  0.000  0.000  0.000  0.000  0.000
  0.000  0.000  0.000  0.000  0.000
   spin  2
    eigenvalues: 
  1.000  1.000  1.000  1.000  1.000
    eigenvectors:
  1.000  0.000  0.000  0.000  0.000
  0.000  1.000  0.000  0.000  0.000
  0.000  0.000  1.000  0.000  0.000
  0.000  0.000  0.000  1.000  0.000
  0.000  0.000  0.000  0.000  1.000
    occupations:
  1.000  0.000  0.000  0.000  0.000
  0.000  1.000  0.000  0.000  0.000
  0.000  0.000  1.000  0.000  0.000
  0.000  0.000  0.000  1.000  0.000
  0.000  0.000  0.000  0.000  1.000
atomic mag. moment =    -5.000000
atom    7   Tr[ns(na)] (up, down, total) =   0.00000  5.00000  5.00000
   spin  1
    eigenvalues: 
  0.000  0.000  0.000  0.000  0.000
    eigenvectors:
  1.000  0.000  0.000  0.000  0.000
  0.000  1.000  0.000  0.000  0.000
  0.000  0.000  1.000  0.000  0.000
  0.000  0.000  0.000  1.000  0.000
  0.000  0.000  0.000  0.000  1.000
    occupations:
  0.000  0.000  0.000  0.000  0.000
  0.000  0.000  0.000  0.000  0.000
  0.000  0.000  0.000  0.000  0.000
  0.000  0.000  0.000  0.000  0.000
  0.000  0.000  0.000  0.000  0.000
   spin  2
    eigenvalues: 
  1.000  1.000  1.000  1.000  1.000
    eigenvectors:
  1.000  0.000  0.000  0.000  0.000
  0.000  1.000  0.000  0.000  0.000
  0.000  0.000  1.000  0.000  0.000
  0.000  0.000  0.000  1.000  0.000
  0.000  0.000  0.000  0.000  1.000
    occupations:
  1.000  0.000  0.000  0.000  0.000
  0.000  1.000  0.000  0.000  0.000
  0.000  0.000  1.000  0.000  0.000
  0.000  0.000  0.000  1.000  0.000
  0.000  0.000  0.000  0.000  1.000
atomic mag. moment =    -5.000000
atom    8   Tr[ns(na)] (up, down, total) =   0.00000  5.00000  5.00000
   spin  1
    eigenvalues: 
  0.000  0.000  0.000  0.000  0.000
    eigenvectors:
  1.000  0.000  0.000  0.000  0.000
  0.000  1.000  0.000  0.000  0.000
  0.000  0.000  1.000  0.000  0.000
  0.000  0.000  0.000  1.000  0.000
  0.000  0.000  0.000  0.000  1.000
    occupations:
  0.000  0.000  0.000  0.000  0.000
  0.000  0.000  0.000  0.000  0.000
  0.000  0.000  0.000  0.000  0.000
  0.000  0.000  0.000  0.000  0.000
  0.000  0.000  0.000  0.000  0.000
   spin  2
    eigenvalues: 
  1.000  1.000  1.000  1.000  1.000
    eigenvectors:
  1.000  0.000  0.000  0.000  0.000
  0.000  1.000  0.000  0.000  0.000
  0.000  0.000  1.000  0.000  0.000
  0.000  0.000  0.000  1.000  0.000
  0.000  0.000  0.000  0.000  1.000
    occupations:
  1.000  0.000  0.000  0.000  0.000
  0.000  1.000  0.000  0.000  0.000
  0.000  0.000  1.000  0.000  0.000
  0.000  0.000  0.000  1.000  0.000
  0.000  0.000  0.000  0.000  1.000
atomic mag. moment =    -5.000000
N of occupied +U levels =   40.000000
 --- exit write_ns ---
 Atomic wfc used for LDA+U Projector are NOT orthogonalized
     Starting wfcs are  224 randomized atomic wfcs
     Checking if some PAW data can be deallocated... 

     total cpu time spent up to now is       17.1 secs

     Self-consistent Calculation

     iteration #  1     ecut=    45.00 Ry     beta= 0.10
     Davidson diagonalization with overlap
     ethr =  1.00E-02,  avg # of iterations =  4.2
 --- enter write_ns ---
 LDA+U parameters:
U(  1) =   3.1200   J(  1) =   0.7000   B(  1) =   0.0803
U(  2) =   3.1200   J(  2) =   0.7000   B(  2) =   0.0803
atom    1   Tr[ns(na)] (up, down, total) =   5.01746  0.40763  5.42509
   spin  1
    eigenvalues: 
  1.003  1.003  1.003  1.004  1.004
    eigenvectors:
  0.000  0.000  0.000  1.000  0.000
  0.000  0.109  0.891  0.000  0.000
  0.000  0.891  0.109  0.000  0.000
  0.000  0.000  0.000  0.000  1.000
  1.000  0.000  0.000  0.000  0.000
    occupations:
  1.004 -0.000 -0.000  0.000  0.000
 -0.000  1.003 -0.000  0.000  0.000
 -0.000 -0.000  1.003  0.000  0.000
  0.000  0.000  0.000  1.004 -0.000
  0.000  0.000  0.000 -0.000  1.003
   spin  2
    eigenvalues: 
  0.053  0.074  0.081  0.081  0.120
    eigenvectors:
  0.000  1.000  0.000  0.000  0.000
  0.000  0.000  0.162  0.838  0.000
  0.000  0.000  0.838  0.162  0.000
  1.000  0.000  0.000  0.000  0.000
  0.000  0.000  0.000  0.000  1.000
    occupations:
  0.074 -0.000 -0.000  0.000  0.000
 -0.000  0.081 -0.000  0.000  0.000
 -0.000 -0.000  0.081  0.000  0.000
  0.000  0.000  0.000  0.053 -0.000
  0.000  0.000  0.000 -0.000  0.120
atomic mag. moment =     4.609838
atom    2   Tr[ns(na)] (up, down, total) =   5.01768  0.40300  5.42069
   spin  1
    eigenvalues: 
  1.003  1.003  1.003  1.004  1.004
    eigenvectors:
  0.000  0.000  0.000  1.000  0.000
  0.000  0.114  0.886  0.000  0.000
  0.000  0.886  0.114  0.000  0.000
  0.000  0.000  0.000  0.000  1.000
  1.000  0.000  0.000  0.000  0.000
    occupations:
  1.004 -0.000 -0.000  0.000  0.000
 -0.000  1.003 -0.000  0.000  0.000
 -0.000 -0.000  1.003  0.000  0.000
  0.000  0.000  0.000  1.004 -0.000
  0.000  0.000  0.000 -0.000  1.003
   spin  2
    eigenvalues: 
  0.053  0.075  0.082  0.082  0.111
    eigenvectors:
  0.000  1.000  0.000  0.000  0.000
  0.000  0.000  0.183  0.817  0.000
  0.000  0.000  0.817  0.183  0.000
  1.000  0.000  0.000  0.000  0.000
  0.000  0.000  0.000  0.000  1.000
    occupations:
  0.075 -0.000 -0.000  0.000  0.000
 -0.000  0.082 -0.000  0.000  0.000
 -0.000 -0.000  0.082  0.000  0.000
  0.000  0.000  0.000  0.053 -0.000
  0.000  0.000  0.000 -0.000  0.111
atomic mag. moment =     4.614683
atom    3   Tr[ns(na)] (up, down, total) =   5.01750  0.40659  5.42409
   spin  1
    eigenvalues: 
  1.003  1.003  1.003  1.004  1.004
    eigenvectors:
  0.000  0.000  0.000  1.000  0.000
  0.000  0.116  0.884  0.000  0.000
  0.000  0.884  0.116  0.000  0.000
  0.000  0.000  0.000  0.000  1.000
  1.000  0.000  0.000  0.000  0.000
    occupations:
  1.004 -0.000 -0.000  0.000  0.000
 -0.000  1.003 -0.000  0.000  0.000
 -0.000 -0.000  1.003  0.000  0.000
  0.000  0.000  0.000  1.004 -0.000
  0.000  0.000  0.000 -0.000  1.003
   spin  2
    eigenvalues: 
  0.053  0.072  0.080  0.080  0.121
    eigenvectors:
  0.000  1.000  0.000  0.000  0.000
  0.000  0.000  0.139  0.861  0.000
  0.000  0.000  0.861  0.139  0.000
  1.000  0.000  0.000  0.000  0.000
  0.000  0.000  0.000  0.000  1.000
    occupations:
  0.072 -0.000 -0.000  0.000  0.000
 -0.000  0.080 -0.000  0.000  0.000
 -0.000 -0.000  0.080  0.000  0.000
  0.000  0.000  0.000  0.053 -0.000
  0.000  0.000  0.000 -0.000  0.121
atomic mag. moment =     4.610902
atom    4   Tr[ns(na)] (up, down, total) =   0.41354  5.01717  5.43071
   spin  1
    eigenvalues: 
  0.053  0.074  0.080  0.080  0.126
    eigenvectors:
  0.000  1.000  0.000  0.000  0.000
  0.000  0.000  0.112  0.888  0.000
  0.000  0.000  0.888  0.112  0.000
  1.000  0.000  0.000  0.000  0.000
  0.000  0.000  0.000  0.000  1.000
    occupations:
  0.074 -0.000 -0.000  0.000  0.000
 -0.000  0.080 -0.000  0.000  0.000
 -0.000 -0.000  0.080  0.000  0.000
  0.000  0.000  0.000  0.053 -0.000
  0.000  0.000  0.000 -0.000  0.126
   spin  2
    eigenvalues: 
  1.003  1.003  1.003  1.004  1.004
    eigenvectors:
  0.000  0.000  0.000  1.000  0.000
  0.000  0.139  0.861  0.000  0.000
  0.000  0.861  0.139  0.000  0.000
  0.000  0.000  0.000  0.000  1.000
  1.000  0.000  0.000  0.000  0.000
    occupations:
  1.004 -0.000 -0.000  0.000  0.000
 -0.000  1.003 -0.000  0.000  0.000
 -0.000 -0.000  1.003  0.000  0.000
  0.000  0.000  0.000  1.004 -0.000
  0.000  0.000  0.000 -0.000  1.003
atomic mag. moment =    -4.603631
atom    5   Tr[ns(na)] (up, down, total) =   5.01732  0.41327  5.43059
   spin  1
    eigenvalues: 
  1.003  1.003  1.003  1.004  1.004
    eigenvectors:
  0.000  0.000  0.000  1.000  0.000
  0.000  0.138  0.862  0.000  0.000
  0.000  0.862  0.138  0.000  0.000
  0.000  0.000  0.000  0.000  1.000
  1.000  0.000  0.000  0.000  0.000
    occupations:
  1.004 -0.000 -0.000  0.000  0.000
 -0.000  1.003 -0.000  0.000  0.000
 -0.000 -0.000  1.003  0.000  0.000
  0.000  0.000  0.000  1.004 -0.000
  0.000  0.000  0.000 -0.000  1.003
   spin  2
    eigenvalues: 
  0.053  0.074  0.080  0.080  0.126
    eigenvectors:
  0.000  1.000  0.000  0.000  0.000
  0.000  0.000  0.135  0.865  0.000
  0.000  0.000  0.865  0.135  0.000
  1.000  0.000  0.000  0.000  0.000
  0.000  0.000  0.000  0.000  1.000
    occupations:
  0.074 -0.000 -0.000  0.000  0.000
 -0.000  0.080 -0.000  0.000  0.000
 -0.000 -0.000  0.080  0.000  0.000
  0.000  0.000  0.000  0.053 -0.000
  0.000  0.000  0.000 -0.000  0.126
atomic mag. moment =     4.604044
atom    6   Tr[ns(na)] (up, down, total) =   0.40576  5.01762  5.42338
   spin  1
    eigenvalues: 
  0.053  0.072  0.080  0.080  0.121
    eigenvectors:
  0.000  1.000  0.000  0.000  0.000
  0.000  0.000  0.179  0.821  0.000
  0.000  0.000  0.821  0.179  0.000
  1.000  0.000  0.000  0.000  0.000
  0.000  0.000  0.000  0.000  1.000
    occupations:
  0.072 -0.000 -0.000  0.000  0.000
 -0.000  0.080 -0.000  0.000  0.000
 -0.000 -0.000  0.080  0.000  0.000
  0.000  0.000  0.000  0.053 -0.000
  0.000  0.000  0.000 -0.000  0.121
   spin  2
    eigenvalues: 
  1.003  1.003  1.003  1.004  1.004
    eigenvectors:
  0.000  0.000  0.000  1.000  0.000
  0.000  0.089  0.911  0.000  0.000
  0.000  0.911  0.089  0.000  0.000
  0.000  0.000  0.000  0.000  1.000
  1.000  0.000  0.000  0.000  0.000
    occupations:
  1.004 -0.000 -0.000  0.000  0.000
 -0.000  1.003 -0.000  0.000  0.000
 -0.000 -0.000  1.003  0.000  0.000
  0.000  0.000  0.000  1.004 -0.000
  0.000  0.000  0.000 -0.000  1.003
atomic mag. moment =    -4.611856
atom    7   Tr[ns(na)] (up, down, total) =   0.40301  5.01770  5.42071
   spin  1
    eigenvalues: 
  0.053  0.075  0.082  0.082  0.111
    eigenvectors:
  0.000  1.000  0.000  0.000  0.000
  0.000  0.000  0.160  0.840  0.000
  0.000  0.000  0.840  0.160  0.000
  1.000  0.000  0.000  0.000  0.000
  0.000  0.000  0.000  0.000  1.000
    occupations:
  0.075 -0.000 -0.000  0.000  0.000
 -0.000  0.082 -0.000  0.000  0.000
 -0.000 -0.000  0.082  0.000  0.000
  0.000  0.000  0.000  0.053 -0.000
  0.000  0.000  0.000 -0.000  0.111
   spin  2
    eigenvalues: 
  1.003  1.003  1.003  1.004  1.004
    eigenvectors:
  0.000  0.000  0.000  1.000  0.000
  0.000  0.129  0.871  0.000  0.000
  0.000  0.871  0.129  0.000  0.000
  0.000  0.000  0.000  0.000  1.000
  1.000  0.000  0.000  0.000  0.000
    occupations:
  1.004 -0.000 -0.000  0.000  0.000
 -0.000  1.003 -0.000  0.000  0.000
 -0.000 -0.000  1.003  0.000  0.000
  0.000  0.000  0.000  1.004 -0.000
  0.000  0.000  0.000 -0.000  1.003
atomic mag. moment =    -4.614685
atom    8   Tr[ns(na)] (up, down, total) =   0.40837  5.01746  5.42583
   spin  1
    eigenvalues: 
  0.053  0.074  0.081  0.081  0.120
    eigenvectors:
  0.000  1.000  0.000  0.000  0.000
  0.000  0.000  0.187  0.813  0.000
  0.000  0.000  0.813  0.187  0.000
  1.000  0.000  0.000  0.000  0.000
  0.000  0.000  0.000  0.000  1.000
    occupations:
  0.074 -0.000 -0.000  0.000  0.000
 -0.000  0.081 -0.000  0.000  0.000
 -0.000 -0.000  0.081  0.000  0.000
  0.000  0.000  0.000  0.053 -0.000
  0.000  0.000  0.000 -0.000  0.120
   spin  2
    eigenvalues: 
  1.003  1.003  1.003  1.004  1.004
    eigenvectors:
  0.000  0.000  0.000  1.000  0.000
  0.000  0.118  0.882  0.000  0.000
  0.000  0.882  0.118  0.000  0.000
  0.000  0.000  0.000  0.000  1.000
  1.000  0.000  0.000  0.000  0.000
    occupations:
  1.004 -0.000 -0.000  0.000  0.000
 -0.000  1.003 -0.000  0.000  0.000
 -0.000 -0.000  1.003  0.000  0.000
  0.000  0.000  0.000  1.004 -0.000
  0.000  0.000  0.000 -0.000  1.003
atomic mag. moment =    -4.609094
N of occupied +U levels =   43.401092
 --- exit write_ns ---

     total cpu time spent up to now is       61.7 secs

     total energy              =  -14687.27806862 Ry
     Harris-Foulkes estimate   =  -14685.81886839 Ry
     estimated scf accuracy    <      11.55436061 Ry

     total magnetization       =    -0.00 Bohr mag/cell
     absolute magnetization    =    41.56 Bohr mag/cell

     iteration #  2     ecut=    45.00 Ry     beta= 0.10
     Davidson diagonalization with overlap
     ethr =  3.90E-03,  avg # of iterations =  1.0

     total cpu time spent up to now is       86.2 secs

     total energy              =  -14690.61236487 Ry
     Harris-Foulkes estimate   =  -14687.35244335 Ry
     estimated scf accuracy    <       9.46375138 Ry

     total magnetization       =    -0.00 Bohr mag/cell
     absolute magnetization    =    41.21 Bohr mag/cell

     iteration #  3     ecut=    45.00 Ry     beta= 0.10
     Davidson diagonalization with overlap
     ethr =  3.20E-03,  avg # of iterations =  5.0

     total cpu time spent up to now is      131.2 secs

     total energy              =  -14690.49584024 Ry
     Harris-Foulkes estimate   =  -14692.73360475 Ry
     estimated scf accuracy    <     286.34845960 Ry

     total magnetization       =     0.06 Bohr mag/cell
     absolute magnetization    =    38.85 Bohr mag/cell

     iteration #  4     ecut=    45.00 Ry     beta= 0.10
     Davidson diagonalization with overlap
     ethr =  3.20E-03,  avg # of iterations =  4.8

     total cpu time spent up to now is      172.9 secs

     total energy              =  -14693.90064142 Ry
     Harris-Foulkes estimate   =  -14694.05878193 Ry
     estimated scf accuracy    <       4.45916517 Ry

     total magnetization       =    -0.00 Bohr mag/cell
     absolute magnetization    =    38.61 Bohr mag/cell

     iteration #  5     ecut=    45.00 Ry     beta= 0.10
     Davidson diagonalization with overlap
     ethr =  1.51E-03,  avg # of iterations =  3.3

     total cpu time spent up to now is      206.0 secs

     total energy              =  -14693.76211697 Ry
     Harris-Foulkes estimate   =  -14693.92720882 Ry
     estimated scf accuracy    <       3.36662423 Ry

     total magnetization       =     0.03 Bohr mag/cell
     absolute magnetization    =    38.69 Bohr mag/cell

     iteration #  6     ecut=    45.00 Ry     beta= 0.10
     Davidson diagonalization with overlap
     ethr =  1.14E-03,  avg # of iterations =  2.5

     total cpu time spent up to now is      236.4 secs

     total energy              =  -14693.40023192 Ry
     Harris-Foulkes estimate   =  -14693.78082765 Ry
     estimated scf accuracy    <       3.77636981 Ry

     total magnetization       =    -0.14 Bohr mag/cell
     absolute magnetization    =    38.80 Bohr mag/cell

     iteration #  7     ecut=    45.00 Ry     beta= 0.10
     Davidson diagonalization with overlap
     ethr =  1.14E-03,  avg # of iterations =  3.5

     total cpu time spent up to now is      271.3 secs

     total energy              =  -14693.68993246 Ry
     Harris-Foulkes estimate   =  -14693.52559169 Ry
     estimated scf accuracy    <       4.87544090 Ry

     total magnetization       =     0.24 Bohr mag/cell
     absolute magnetization    =    38.94 Bohr mag/cell

     iteration #  8     ecut=    45.00 Ry     beta= 0.10
     Davidson diagonalization with overlap
     ethr =  1.14E-03,  avg # of iterations =  4.4

     total cpu time spent up to now is      315.2 secs

     total energy              =  -14693.98655617 Ry
     Harris-Foulkes estimate   =  -14694.05907688 Ry
     estimated scf accuracy    <       1.14070590 Ry

     total magnetization       =     0.07 Bohr mag/cell
     absolute magnetization    =    37.15 Bohr mag/cell

     iteration #  9     ecut=    45.00 Ry     beta= 0.10
     Davidson diagonalization with overlap
     ethr =  3.85E-04,  avg # of iterations =  1.4

     total cpu time spent up to now is      341.3 secs

     total energy              =  -14694.00259109 Ry
     Harris-Foulkes estimate   =  -14694.01157703 Ry
     estimated scf accuracy    <       0.32417048 Ry

     total magnetization       =    -0.02 Bohr mag/cell
     absolute magnetization    =    37.35 Bohr mag/cell

     iteration # 10     ecut=    45.00 Ry     beta= 0.10
     Davidson diagonalization with overlap
     ethr =  1.10E-04,  avg # of iterations =  1.8

     total cpu time spent up to now is      368.9 secs

     total energy              =  -14693.97591634 Ry
     Harris-Foulkes estimate   =  -14694.00725891 Ry
     estimated scf accuracy    <       0.21349179 Ry

     total magnetization       =     0.04 Bohr mag/cell
     absolute magnetization    =    37.35 Bohr mag/cell

     iteration # 11     ecut=    45.00 Ry     beta= 0.10
     Davidson diagonalization with overlap
     ethr =  7.21E-05,  avg # of iterations =  3.2

     total cpu time spent up to now is      404.1 secs

     total energy              =  -14693.99695266 Ry
     Harris-Foulkes estimate   =  -14693.99662942 Ry
     estimated scf accuracy    <       0.04425255 Ry

     total magnetization       =    -0.00 Bohr mag/cell
     absolute magnetization    =    37.38 Bohr mag/cell

     iteration # 12     ecut=    45.00 Ry     beta= 0.10
     Davidson diagonalization with overlap
     ethr =  1.50E-05,  avg # of iterations =  4.5

     total cpu time spent up to now is      443.4 secs

     total energy              =  -14693.99941686 Ry
     Harris-Foulkes estimate   =  -14693.99990443 Ry
     estimated scf accuracy    <       0.03414700 Ry

     total magnetization       =     0.01 Bohr mag/cell
     absolute magnetization    =    37.32 Bohr mag/cell

     iteration # 13     ecut=    45.00 Ry     beta= 0.10
     Davidson diagonalization with overlap
     ethr =  1.15E-05,  avg # of iterations =  1.7

     total cpu time spent up to now is      470.3 secs

     total energy              =  -14694.00217927 Ry
     Harris-Foulkes estimate   =  -14694.00100931 Ry
     estimated scf accuracy    <       0.00630940 Ry

     total magnetization       =    -0.00 Bohr mag/cell
     absolute magnetization    =    37.29 Bohr mag/cell

     iteration # 14     ecut=    45.00 Ry     beta= 0.10
     Davidson diagonalization with overlap
     ethr =  2.13E-06,  avg # of iterations =  5.0

     total cpu time spent up to now is      516.3 secs

     total energy              =  -14694.00288732 Ry
     Harris-Foulkes estimate   =  -14694.00273071 Ry
     estimated scf accuracy    <       0.02083694 Ry

     total magnetization       =    -0.00 Bohr mag/cell
     absolute magnetization    =    37.28 Bohr mag/cell

     iteration # 15     ecut=    45.00 Ry     beta= 0.10
     Davidson diagonalization with overlap
     c_bands:  1 eigenvalues not converged
     c_bands:  1 eigenvalues not converged
     ethr =  2.13E-06,  avg # of iterations =  4.3

     total cpu time spent up to now is      553.6 secs

     total energy              =  -14694.00357348 Ry
     Harris-Foulkes estimate   =  -14694.00330606 Ry
     estimated scf accuracy    <       0.00595280 Ry

     total magnetization       =     0.01 Bohr mag/cell
     absolute magnetization    =    37.26 Bohr mag/cell

     iteration # 16     ecut=    45.00 Ry     beta= 0.10
     Davidson diagonalization with overlap
     ethr =  2.01E-06,  avg # of iterations =  1.8

     total cpu time spent up to now is      580.8 secs

     total energy              =  -14694.00404810 Ry
     Harris-Foulkes estimate   =  -14694.00379754 Ry
     estimated scf accuracy    <       0.00211784 Ry

     total magnetization       =     0.00 Bohr mag/cell
     absolute magnetization    =    37.27 Bohr mag/cell

     iteration # 17     ecut=    45.00 Ry     beta= 0.10
     Davidson diagonalization with overlap
     ethr =  7.15E-07,  avg # of iterations =  2.7

     total cpu time spent up to now is      611.7 secs

     total energy              =  -14694.00417159 Ry
     Harris-Foulkes estimate   =  -14694.00425233 Ry
     estimated scf accuracy    <       0.01518743 Ry

     total magnetization       =    -0.03 Bohr mag/cell
     absolute magnetization    =    37.26 Bohr mag/cell

     iteration # 18     ecut=    45.00 Ry     beta= 0.10
     Davidson diagonalization with overlap
     ethr =  7.15E-07,  avg # of iterations =  1.1

     total cpu time spent up to now is      636.5 secs

     total energy              =  -14694.00450587 Ry
     Harris-Foulkes estimate   =  -14694.00432941 Ry
     estimated scf accuracy    <       0.00057109 Ry

     total magnetization       =     0.00 Bohr mag/cell
     absolute magnetization    =    37.25 Bohr mag/cell

     iteration # 19     ecut=    45.00 Ry     beta= 0.10
     Davidson diagonalization with overlap
     ethr =  1.93E-07,  avg # of iterations =  2.8

     total cpu time spent up to now is      669.0 secs

     total energy              =  -14694.00455551 Ry
     Harris-Foulkes estimate   =  -14694.00454667 Ry
     estimated scf accuracy    <       0.00015869 Ry

     total magnetization       =    -0.00 Bohr mag/cell
     absolute magnetization    =    37.25 Bohr mag/cell

     iteration # 20     ecut=    45.00 Ry     beta= 0.10
     Davidson diagonalization with overlap
     ethr =  5.36E-08,  avg # of iterations =  2.8

     total cpu time spent up to now is      700.2 secs

     total energy              =  -14694.00458444 Ry
     Harris-Foulkes estimate   =  -14694.00456023 Ry
     estimated scf accuracy    <       0.00011540 Ry

     total magnetization       =     0.00 Bohr mag/cell
     absolute magnetization    =    37.25 Bohr mag/cell

     iteration # 21     ecut=    45.00 Ry     beta= 0.10
     Davidson diagonalization with overlap
     ethr =  3.90E-08,  avg # of iterations =  1.2

     total cpu time spent up to now is      725.4 secs

     total energy              =  -14694.00462415 Ry
     Harris-Foulkes estimate   =  -14694.00458512 Ry
     estimated scf accuracy    <       0.00011480 Ry

     total magnetization       =    -0.00 Bohr mag/cell
     absolute magnetization    =    37.25 Bohr mag/cell

     iteration # 22     ecut=    45.00 Ry     beta= 0.10
     Davidson diagonalization with overlap
     ethr =  3.88E-08,  avg # of iterations =  2.2

     total cpu time spent up to now is      754.7 secs

     total energy              =  -14694.00463645 Ry
     Harris-Foulkes estimate   =  -14694.00462717 Ry
     estimated scf accuracy    <       0.00001941 Ry

     total magnetization       =    -0.00 Bohr mag/cell
     absolute magnetization    =    37.24 Bohr mag/cell

     iteration # 23     ecut=    45.00 Ry     beta= 0.10
     Davidson diagonalization with overlap
     ethr =  6.56E-09,  avg # of iterations =  2.4

     total cpu time spent up to now is      785.8 secs

     total energy              =  -14694.00463963 Ry
     Harris-Foulkes estimate   =  -14694.00463574 Ry
     estimated scf accuracy    <       0.00001166 Ry

     total magnetization       =     0.00 Bohr mag/cell
     absolute magnetization    =    37.24 Bohr mag/cell

     iteration # 24     ecut=    45.00 Ry     beta= 0.10
     Davidson diagonalization with overlap
     ethr =  3.94E-09,  avg # of iterations =  1.4

     total cpu time spent up to now is      811.7 secs

     total energy              =  -14694.00464043 Ry
     Harris-Foulkes estimate   =  -14694.00463914 Ry
     estimated scf accuracy    <       0.00004776 Ry

     total magnetization       =    -0.00 Bohr mag/cell
     absolute magnetization    =    37.24 Bohr mag/cell

     iteration # 25     ecut=    45.00 Ry     beta= 0.10
     Davidson diagonalization with overlap
     ethr =  3.94E-09,  avg # of iterations =  1.1

     total cpu time spent up to now is      836.3 secs

     total energy              =  -14694.00464256 Ry
     Harris-Foulkes estimate   =  -14694.00464116 Ry
     estimated scf accuracy    <       0.00000982 Ry

     total magnetization       =    -0.00 Bohr mag/cell
     absolute magnetization    =    37.23 Bohr mag/cell

     iteration # 26     ecut=    45.00 Ry     beta= 0.10
     Davidson diagonalization with overlap
     ethr =  3.32E-09,  avg # of iterations =  1.2

     total cpu time spent up to now is      861.5 secs

     total energy              =  -14694.00464423 Ry
     Harris-Foulkes estimate   =  -14694.00464222 Ry
     estimated scf accuracy    <       0.00000592 Ry

     total magnetization       =    -0.00 Bohr mag/cell
     absolute magnetization    =    37.23 Bohr mag/cell

     iteration # 27     ecut=    45.00 Ry     beta= 0.10
     Davidson diagonalization with overlap
     ethr =  2.00E-09,  avg # of iterations =  1.8

     total cpu time spent up to now is      889.1 secs

     total energy              =  -14694.00464479 Ry
     Harris-Foulkes estimate   =  -14694.00464417 Ry
     estimated scf accuracy    <       0.00002353 Ry

     total magnetization       =     0.00 Bohr mag/cell
     absolute magnetization    =    37.23 Bohr mag/cell

     iteration # 28     ecut=    45.00 Ry     beta= 0.10
     Davidson diagonalization with overlap
     ethr =  2.00E-09,  avg # of iterations =  1.0

     total cpu time spent up to now is      913.6 secs

     total energy              =  -14694.00464588 Ry
     Harris-Foulkes estimate   =  -14694.00464484 Ry
     estimated scf accuracy    <       0.00000239 Ry

     total magnetization       =    -0.00 Bohr mag/cell
     absolute magnetization    =    37.23 Bohr mag/cell

     iteration # 29     ecut=    45.00 Ry     beta= 0.10
     Davidson diagonalization with overlap
     ethr =  8.07E-10,  avg # of iterations =  1.6
 
     Magnetic moment per site:
     atom:    1    charge:   13.5490    magn:    4.2309    constr:    0.0000
     atom:    2    charge:   13.5527    magn:    4.2051    constr:    0.0000
     atom:    3    charge:   13.5460    magn:    4.2506    constr:    0.0000
     atom:    4    charge:   13.5433    magn:   -4.2585    constr:    0.0000
     atom:    5    charge:   13.5432    magn:    4.2584    constr:    0.0000
     atom:    6    charge:   13.5461    magn:   -4.2506    constr:    0.0000
     atom:    7    charge:   13.5525    magn:   -4.2051    constr:    0.0000
     atom:    8    charge:   13.5491    magn:   -4.2309    constr:    0.0000
     atom:    9    charge:    9.1217    magn:    0.0335    constr:    0.0000
     atom:   10    charge:    9.1219    magn:    0.0357    constr:    0.0000
     atom:   11    charge:    9.1223    magn:    0.0379    constr:    0.0000
     atom:   12    charge:    9.1220    magn:    0.0338    constr:    0.0000
     atom:   13    charge:    9.1232    magn:    0.0406    constr:    0.0000
     atom:   14    charge:    9.1252    magn:   -0.0386    constr:    0.0000
     atom:   15    charge:    9.1245    magn:   -0.0422    constr:    0.0000
     atom:   16    charge:    9.1244    magn:    0.0422    constr:    0.0000
     atom:   17    charge:    9.1251    magn:    0.0386    constr:    0.0000
     atom:   18    charge:    9.1233    magn:   -0.0406    constr:    0.0000
     atom:   19    charge:    9.1221    magn:   -0.0338    constr:    0.0000
     atom:   20    charge:    9.1222    magn:   -0.0379    constr:    0.0000
     atom:   21    charge:    9.1218    magn:   -0.0357    constr:    0.0000
     atom:   22    charge:    9.1218    magn:   -0.0335    constr:    0.0000
     atom:   23    charge:    9.1234    magn:   -0.0389    constr:    0.0000
     atom:   24    charge:    9.1232    magn:    0.0389    constr:    0.0000

     total cpu time spent up to now is      940.5 secs

     End of self-consistent calculation
 --- enter write_ns ---
 LDA+U parameters:
U(  1) =   3.1200   J(  1) =   0.7000   B(  1) =   0.0803
U(  2) =   3.1200   J(  2) =   0.7000   B(  2) =   0.0803
atom    1   Tr[ns(na)] (up, down, total) =   4.97103  0.74084  5.71187
   spin  1
    eigenvalues: 
  0.984  0.994  0.994  0.997  1.002
    eigenvectors:
  0.000  0.000  0.000  1.000  0.000
  0.000  0.126  0.874  0.000  0.000
  0.000  0.874  0.126  0.000  0.000
  0.000  0.000  0.000  0.000  1.000
  1.000  0.000  0.000  0.000  0.000
    occupations:
  0.997 -0.000 -0.000  0.000  0.000
 -0.000  0.994 -0.000  0.000  0.000
 -0.000 -0.000  0.994  0.000  0.000
  0.000  0.000  0.000  1.002 -0.000
  0.000  0.000  0.000 -0.000  0.984
   spin  2
    eigenvalues: 
  0.065  0.138  0.141  0.141  0.256
    eigenvectors:
  0.000  1.000  0.000  0.000  0.000
  0.000  0.000  0.132  0.868  0.000
  0.000  0.000  0.868  0.132  0.000
  1.000  0.000  0.000  0.000  0.000
  0.000  0.000  0.000  0.000  1.000
    occupations:
  0.138 -0.000 -0.000  0.000  0.000
 -0.000  0.141 -0.000  0.000  0.000
 -0.000 -0.000  0.141  0.000  0.000
  0.000  0.000  0.000  0.065 -0.000
  0.000  0.000  0.000 -0.000  0.256
atomic mag. moment =     4.230187
atom    2   Tr[ns(na)] (up, down, total) =   4.97003  0.76171  5.73174
   spin  1
    eigenvalues: 
  0.984  0.993  0.993  0.996  1.002
    eigenvectors:
  0.000  0.000  0.000  1.000  0.000
  0.000  0.111  0.889  0.000  0.000
  0.000  0.889  0.111  0.000  0.000
  0.000  0.000  0.000  0.000  1.000
  1.000  0.000  0.000  0.000  0.000
    occupations:
  0.996 -0.000 -0.000  0.000  0.000
 -0.000  0.993 -0.000  0.000  0.000
 -0.000 -0.000  0.993  0.000  0.000
  0.000  0.000  0.000  1.002 -0.000
  0.000  0.000  0.000 -0.000  0.984
   spin  2
    eigenvalues: 
  0.064  0.143  0.143  0.143  0.269
    eigenvectors:
  0.000  1.000  0.000  0.000  0.000
  0.000  0.000  0.136  0.864  0.000
  0.000  0.000  0.864  0.136  0.000
  1.000  0.000  0.000  0.000  0.000
  0.000  0.000  0.000  0.000  1.000
    occupations:
  0.143 -0.000 -0.000  0.000  0.000
 -0.000  0.143 -0.000  0.000  0.000
 -0.000 -0.000  0.143  0.000  0.000
  0.000  0.000  0.000  0.064 -0.000
  0.000  0.000  0.000 -0.000  0.269
atomic mag. moment =     4.208317
atom    3   Tr[ns(na)] (up, down, total) =   4.97360  0.72446  5.69806
   spin  1
    eigenvalues: 
  0.985  0.994  0.994  0.998  1.002
    eigenvectors:
  0.000  0.000  0.000  1.000  0.000
  0.000  0.169  0.831  0.000  0.000
  0.000  0.831  0.169  0.000  0.000
  0.000  0.000  0.000  0.000  1.000
  1.000  0.000  0.000  0.000  0.000
    occupations:
  0.998 -0.000 -0.000  0.000  0.000
 -0.000  0.994 -0.000  0.000  0.000
 -0.000 -0.000  0.994  0.000  0.000
  0.000  0.000  0.000  1.002 -0.000
  0.000  0.000  0.000 -0.000  0.985
   spin  2
    eigenvalues: 
  0.066  0.123  0.144  0.144  0.247
    eigenvectors:
  0.000  1.000  0.000  0.000  0.000
  0.000  0.000  0.156  0.844  0.000
  0.000  0.000  0.844  0.156  0.000
  1.000  0.000  0.000  0.000  0.000
  0.000  0.000  0.000  0.000  1.000
    occupations:
  0.123 -0.000 -0.000  0.000  0.000
 -0.000  0.144 -0.000  0.000  0.000
 -0.000 -0.000  0.144  0.000  0.000
  0.000  0.000  0.000  0.066 -0.000
  0.000  0.000  0.000 -0.000  0.247
atomic mag. moment =     4.249144
atom    4   Tr[ns(na)] (up, down, total) =   0.71734  4.97202  5.68936
   spin  1
    eigenvalues: 
  0.066  0.116  0.145  0.145  0.245
    eigenvectors:
  0.000  1.000  0.000  0.000  0.000
  0.000  0.000  0.118  0.882  0.000
  0.000  0.000  0.882  0.118  0.000
  1.000  0.000  0.000  0.000  0.000
  0.000  0.000  0.000  0.000  1.000
    occupations:
  0.116 -0.000 -0.000  0.000  0.000
 -0.000  0.145 -0.000  0.000  0.000
 -0.000 -0.000  0.145  0.000  0.000
  0.000  0.000  0.000  0.066 -0.000
  0.000  0.000  0.000 -0.000  0.245
   spin  2
    eigenvalues: 
  0.985  0.994  0.994  0.996  1.003
    eigenvectors:
  0.000  0.000  0.000  1.000  0.000
  0.000  0.123  0.877  0.000  0.000
  0.000  0.877  0.123  0.000  0.000
  0.000  0.000  0.000  0.000  1.000
  1.000  0.000  0.000  0.000  0.000
    occupations:
  0.996 -0.000 -0.000  0.000  0.000
 -0.000  0.994 -0.000  0.000  0.000
 -0.000 -0.000  0.994  0.000  0.000
  0.000  0.000  0.000  1.003 -0.000
  0.000  0.000  0.000 -0.000  0.985
atomic mag. moment =    -4.254685
atom    5   Tr[ns(na)] (up, down, total) =   4.97202  0.71736  5.68939
   spin  1
    eigenvalues: 
  0.985  0.994  0.994  0.996  1.003
    eigenvectors:
  0.000  0.000  0.000  1.000  0.000
  0.000  0.117  0.883  0.000  0.000
  0.000  0.883  0.117  0.000  0.000
  0.000  0.000  0.000  0.000  1.000
  1.000  0.000  0.000  0.000  0.000
    occupations:
  0.996 -0.000 -0.000  0.000  0.000
 -0.000  0.994 -0.000  0.000  0.000
 -0.000 -0.000  0.994  0.000  0.000
  0.000  0.000  0.000  1.003 -0.000
  0.000  0.000  0.000 -0.000  0.985
   spin  2
    eigenvalues: 
  0.066  0.116  0.145  0.145  0.245
    eigenvectors:
  0.000  1.000  0.000  0.000  0.000
  0.000  0.000  0.140  0.860  0.000
  0.000  0.000  0.860  0.140  0.000
  1.000  0.000  0.000  0.000  0.000
  0.000  0.000  0.000  0.000  1.000
    occupations:
  0.116 -0.000 -0.000  0.000  0.000
 -0.000  0.145 -0.000  0.000  0.000
 -0.000 -0.000  0.145  0.000  0.000
  0.000  0.000  0.000  0.066 -0.000
  0.000  0.000  0.000 -0.000  0.245
atomic mag. moment =     4.254661
atom    6   Tr[ns(na)] (up, down, total) =   0.72445  4.97360  5.69806
   spin  1
    eigenvalues: 
  0.066  0.123  0.144  0.144  0.247
    eigenvectors:
  0.000  1.000  0.000  0.000  0.000
  0.000  0.000  0.150  0.850  0.000
  0.000  0.000  0.850  0.150  0.000
  1.000  0.000  0.000  0.000  0.000
  0.000  0.000  0.000  0.000  1.000
    occupations:
  0.123 -0.000 -0.000  0.000  0.000
 -0.000  0.144 -0.000  0.000  0.000
 -0.000 -0.000  0.144  0.000  0.000
  0.000  0.000  0.000  0.066 -0.000
  0.000  0.000  0.000 -0.000  0.247
   spin  2
    eigenvalues: 
  0.985  0.994  0.994  0.998  1.002
    eigenvectors:
  0.000  0.000  0.000  1.000  0.000
  0.000  0.112  0.888  0.000  0.000
  0.000  0.888  0.112  0.000  0.000
  0.000  0.000  0.000  0.000  1.000
  1.000  0.000  0.000  0.000  0.000
    occupations:
  0.998 -0.000 -0.000  0.000  0.000
 -0.000  0.994 -0.000  0.000  0.000
 -0.000 -0.000  0.994  0.000  0.000
  0.000  0.000  0.000  1.002 -0.000
  0.000  0.000  0.000 -0.000  0.985
atomic mag. moment =    -4.249151
atom    7   Tr[ns(na)] (up, down, total) =   0.76168  4.97003  5.73171
   spin  1
    eigenvalues: 
  0.064  0.143  0.143  0.143  0.269
    eigenvectors:
  0.000  1.000  0.000  0.000  0.000
  0.000  0.000  0.120  0.880  0.000
  0.000  0.000  0.880  0.120  0.000
  1.000  0.000  0.000  0.000  0.000
  0.000  0.000  0.000  0.000  1.000
    occupations:
  0.143 -0.000 -0.000  0.000  0.000
 -0.000  0.143 -0.000  0.000  0.000
 -0.000 -0.000  0.143  0.000  0.000
  0.000  0.000  0.000  0.064 -0.000
  0.000  0.000  0.000 -0.000  0.269
   spin  2
    eigenvalues: 
  0.984  0.993  0.993  0.996  1.002
    eigenvectors:
  0.000  0.000  0.000  1.000  0.000
  0.000  0.109  0.891  0.000  0.000
  0.000  0.891  0.109  0.000  0.000
  0.000  0.000  0.000  0.000  1.000
  1.000  0.000  0.000  0.000  0.000
    occupations:
  0.996 -0.000 -0.000  0.000  0.000
 -0.000  0.993 -0.000  0.000  0.000
 -0.000 -0.000  0.993  0.000  0.000
  0.000  0.000  0.000  1.002 -0.000
  0.000  0.000  0.000 -0.000  0.984
atomic mag. moment =    -4.208345
atom    8   Tr[ns(na)] (up, down, total) =   0.74085  4.97103  5.71189
   spin  1
    eigenvalues: 
  0.065  0.138  0.141  0.141  0.256
    eigenvectors:
  0.000  1.000  0.000  0.000  0.000
  0.000  0.000  0.093  0.907  0.000
  0.000  0.000  0.907  0.093  0.000
  1.000  0.000  0.000  0.000  0.000
  0.000  0.000  0.000  0.000  1.000
    occupations:
  0.138 -0.000 -0.000  0.000  0.000
 -0.000  0.141 -0.000  0.000  0.000
 -0.000 -0.000  0.141  0.000  0.000
  0.000  0.000  0.000  0.065 -0.000
  0.000  0.000  0.000 -0.000  0.256
   spin  2
    eigenvalues: 
  0.985  0.994  0.994  0.997  1.002
    eigenvectors:
  0.000  0.000  0.000  1.000  0.000
  0.000  0.097  0.903  0.000  0.000
  0.000  0.903  0.097  0.000  0.000
  0.000  0.000  0.000  0.000  1.000
  1.000  0.000  0.000  0.000  0.000
    occupations:
  0.997 -0.000 -0.000  0.000  0.000
 -0.000  0.994 -0.000  0.000  0.000
 -0.000 -0.000  0.994  0.000  0.000
  0.000  0.000  0.000  1.002 -0.000
  0.000  0.000  0.000 -0.000  0.985
atomic mag. moment =    -4.230179
N of occupied +U levels =   45.662070
 --- exit write_ns ---

 ------ SPIN UP ------------


          k = 0.0000 0.0000 0.0000 ( 13925 PWs)   bands (ev):

   -66.8612 -66.7592 -66.7095 -66.6140 -62.2523 -62.1543 -62.1246 -62.0511
   -35.6308 -35.5758 -35.5758 -35.5273 -35.4781 -35.4768 -35.4768 -35.4274
   -35.4274 -35.3915 -35.3294 -35.3294 -31.0762 -31.0690 -31.0690 -30.9768
   -30.9743 -30.9743 -30.9493 -30.9437 -30.9437 -30.8833 -30.8683 -30.8683
     5.7634   5.8940   5.9907   6.3450   6.4326   7.0256   7.0781   7.6178
     8.3294   8.3925   8.4032   8.4651   8.5128   8.5500   8.6332   8.8291
     8.8666   8.8797   8.9504   9.1094   9.1862   9.2185   9.2267   9.2811
     9.3196   9.3752   9.4650   9.6134   9.7256   9.7303   9.9072   9.9445
    10.0261  10.0866  10.0985  10.1117  10.1117  10.1692  10.1832  10.1832
    10.1977  10.1977  10.2544  10.2883  10.3476  10.3476  10.3482  10.3519
    10.3519  10.4921  10.5452  10.5452  10.5601  10.5857  10.5857  10.6063
    10.6063  10.6117  10.6181  10.6181  10.6525  10.6525  10.6742  10.7419
    10.7670  10.7670  10.8922  10.9608  10.9608  10.9843  11.0493  11.0493
    11.0899  11.1580  11.2396  11.2566  11.2712  11.3874  11.3874  11.3996
    11.4036  11.4782  11.4913  11.4913  11.6722  11.8144  11.8144  11.8223
    11.8656  11.9006  11.9239  11.9239  11.9643  12.0018  12.1242  12.1825
    12.1913  12.2378  12.2378  12.2528  12.3271  12.3271  12.6053  12.6971
    12.6971  12.7707  12.8206  12.8637  12.9752  13.0811  13.1158  13.6305
    13.9330  14.7675  15.1271  16.0991  16.7990  16.7990  16.8548  16.8548
    16.9099  16.9472  16.9472  16.9752  17.0098  17.0976  17.1046  17.1474
    17.1737  17.2253  17.2253  17.2283  17.5146  17.5696  17.5873  17.6555
    18.5313  19.5931  19.8266  20.0892  20.0892  20.4511  20.4511  20.5653
    20.5653  21.4749

          k = 0.0000 0.0000-0.0484 ( 13878 PWs)   bands (ev):

   -66.8612 -66.7592 -66.7095 -66.6140 -62.2523 -62.1543 -62.1246 -62.0511
   -35.6308 -35.5758 -35.5758 -35.5273 -35.4781 -35.4768 -35.4768 -35.4274
   -35.4274 -35.3915 -35.3294 -35.3294 -31.0762 -31.0690 -31.0690 -30.9768
   -30.9743 -30.9743 -30.9493 -30.9437 -30.9437 -30.8833 -30.8683 -30.8683
     5.7747   5.8491   6.0951   6.1739   6.6805   6.7189   7.3888   7.4345
     8.3925   8.3968   8.4599   8.4651   8.5064   8.5500   8.6222   8.6656
     8.8664   8.8903   9.0536   9.1042   9.1158   9.1958   9.2869   9.3182
     9.3532   9.3872   9.4232   9.5616   9.7328   9.7453   9.9072   9.9445
    10.0261  10.0827  10.1045  10.1132  10.1132  10.1649  10.1649  10.1665
    10.2406  10.2406  10.2584  10.2708  10.2708  10.2882  10.3475  10.4680
    10.4680  10.4705  10.4705  10.4980  10.5433  10.5460  10.5460  10.5864
    10.5864  10.6375  10.6456  10.6456  10.6589  10.7327  10.7340  10.7340
    10.7774  10.7774  10.8492  10.8492  10.9153  10.9854  11.0499  11.1863
    11.1863  11.2046  11.2348  11.2396  11.2499  11.2499  11.2696  11.3998
    11.4051  11.4779  11.6026  11.6026  11.6726  11.7283  11.7283  11.8196
    11.8654  11.9007  11.9644  11.9697  11.9697  12.0144  12.0981  12.1913
    12.2128  12.2217  12.2217  12.2383  12.3344  12.3344  12.6055  12.6970
    12.6970  12.7706  12.8400  12.8637  12.9090  13.0811  13.2339  13.4644
    14.1303  14.5476  15.2941  16.0356  16.7992  16.7992  16.8543  16.8543
    16.9099  16.9476  16.9476  16.9752  17.0098  17.0976  17.1045  17.1474
    17.1737  17.2252  17.2252  17.2283  17.5112  17.5560  17.6173  17.6514
    18.6664  19.1478  20.1405  20.1405  20.2665  20.2665  20.5806  20.6735
    20.9141  20.9142

          k = 0.0000 0.1250 0.0000 ( 13879 PWs)   bands (ev):

   -66.8610 -66.7589 -66.7092 -66.6138 -62.2523 -62.1543 -62.1246 -62.0511
   -35.6306 -35.5775 -35.5757 -35.5271 -35.4785 -35.4779 -35.4767 -35.4292
   -35.4273 -35.3913 -35.3312 -35.3293 -31.0760 -31.0711 -31.0689 -30.9766
   -30.9765 -30.9742 -30.9491 -30.9459 -30.9436 -30.8831 -30.8704 -30.8681
     6.0067   6.1343   6.2289   6.5747   6.6519   7.2229   7.2629   7.7724
     8.3342   8.4925   8.5279   8.5768   8.6091   8.6587   8.7175   8.7649
     8.8318   8.9274   9.0179   9.0905   9.2043   9.2186   9.2476   9.3374
     9.3679   9.3869   9.4579   9.5290   9.6299   9.7557   9.7639   9.8189
     9.8661   9.8674   9.9256   9.9280  10.0211  10.0493  10.0869  10.0974
    10.1466  10.1496  10.1793  10.2102  10.2451  10.2782  10.3099  10.3682
    10.4173  10.4205  10.4535  10.4776  10.5183  10.5299  10.5884  10.6383
    10.6888  10.6932  10.7123  10.7723  10.7974  10.8220  10.8416  10.8975
    10.9120  10.9275  10.9723  11.0761  11.1136  11.1205  11.1290  11.1585
    11.1697  11.2217  11.2908  11.3459  11.3501  11.3655  11.3767  11.3900
    11.4396  11.5120  11.5641  11.6914  11.7247  11.7516  11.8086  11.8164
    11.8394  11.8861  11.9261  11.9789  11.9841  12.0693  12.1083  12.1580
    12.1677  12.1739  12.2290  12.2526  12.3761  12.5018  12.5385  12.6200
    12.6752  12.7194  12.7572  12.9478  12.9549  12.9657  13.0897  13.6804
    14.0043  14.8923  15.2458  16.2187  16.5256  16.6636  16.7561  16.9203
    16.9255  16.9415  16.9691  16.9788  16.9945  17.0012  17.0735  17.0842
    17.1292  17.1412  17.2322  17.3423  17.4696  17.6319  17.6573  17.9868
    18.6222  18.7190  19.0205  19.1733  19.9244  19.9416  20.0101  20.1115
    20.7059  21.0009

          k = 0.0000 0.1250-0.0484 ( 13868 PWs)   bands (ev):

   -66.8610 -66.7589 -66.7092 -66.6138 -62.2523 -62.1543 -62.1246 -62.0511
   -35.6306 -35.5775 -35.5757 -35.5271 -35.4785 -35.4779 -35.4767 -35.4292
   -35.4273 -35.3913 -35.3312 -35.3293 -31.0760 -31.0711 -31.0689 -30.9766
   -30.9765 -30.9742 -30.9491 -30.9459 -30.9436 -30.8831 -30.8704 -30.8681
     6.0175   6.0910   6.3298   6.4072   6.8932   6.9269   7.5666   7.5905
     8.4371   8.5001   8.5294   8.5623   8.5920   8.6171   8.6652   8.7471
     8.8780   8.9552   9.0008   9.1499   9.1541   9.2213   9.2817   9.3101
     9.3267   9.3662   9.5309   9.5538   9.5769   9.7640   9.7769   9.8185
     9.8270   9.8668   9.9280   9.9601  10.0212  10.0459  10.0794  10.0905
    10.1481  10.1565  10.1827  10.1960  10.2467  10.3111  10.3247  10.3389
    10.3749  10.4025  10.4761  10.4872  10.5292  10.5827  10.5972  10.6371
    10.6545  10.6881  10.6956  10.7093  10.8039  10.8372  10.8774  10.8844
    10.9524  10.9625  10.9708  11.0532  11.0796  11.1190  11.1274  11.1389
    11.1758  11.2455  11.2716  11.3011  11.3590  11.3642  11.3877  11.4245
    11.4623  11.5407  11.5815  11.6597  11.6640  11.7266  11.7789  11.8495
    11.8834  11.9154  11.9430  11.9529  12.0157  12.0383  12.1060  12.1218
    12.1677  12.1872  12.2467  12.2496  12.3743  12.5047  12.5376  12.6179
    12.6764  12.7190  12.7874  12.8527  12.9549  12.9657  13.2539  13.4656
    14.2518  14.6272  15.4345  16.1305  16.5606  16.6750  16.7389  16.9200
    16.9255  16.9415  16.9699  16.9789  16.9945  17.0013  17.0735  17.0841
    17.1292  17.1415  17.2322  17.3423  17.4726  17.5821  17.7968  17.8298
    18.6954  18.8848  18.9654  19.3378  19.4396  19.5539  20.4764  20.5123
    20.7307  20.8939

          k = 0.0000 0.2500 0.0000 ( 13848 PWs)   bands (ev):

   -66.8608 -66.7588 -66.7091 -66.6136 -62.2520 -62.1540 -62.1242 -62.0507
   -35.6302 -35.5817 -35.5754 -35.5267 -35.4827 -35.4775 -35.4764 -35.4334
   -35.4271 -35.3909 -35.3354 -35.3291 -31.0764 -31.0754 -31.0685 -30.9818
   -30.9760 -30.9738 -30.9512 -30.9485 -30.9432 -30.8825 -30.8758 -30.8678
     6.6946   6.8112   6.8989   7.2073   7.2504   7.7140   7.7243   8.1076
     8.2834   8.5215   8.5429   8.7228   8.7403   8.7637   8.8141   8.8508
     8.8910   8.9351   8.9464   9.0239   9.0482   9.1005   9.2794   9.3986
     9.4541   9.4723   9.5033   9.5394   9.5955   9.5963   9.6477   9.6565
     9.6600   9.6802   9.7075   9.8023   9.8400   9.8844   9.9309   9.9763
    10.0174  10.0196  10.1352  10.1672  10.1773  10.2689  10.2911  10.3684
    10.4240  10.5570  10.6052  10.6144  10.6161  10.6388  10.7505  10.7767
    10.8182  10.8439  10.8524  10.9086  10.9876  10.9966  11.0373  11.0951
    11.1199  11.1319  11.1611  11.1932  11.2008  11.2695  11.2835  11.3375
    11.3777  11.3984  11.4439  11.4593  11.5229  11.5610  11.5863  11.6058
    11.6581  11.6768  11.6872  11.7184  11.7549  11.8096  11.8167  11.8514
    11.8590  11.9017  11.9379  11.9898  12.0124  12.0332  12.0776  12.1188
    12.1382  12.2223  12.2343  12.3045  12.4356  12.4881  12.5681  12.6542
    12.6808  12.7328  12.7868  12.8757  12.9898  13.0135  13.0277  13.8413
    14.1412  15.1326  15.3685  15.9402  16.0191  16.0793  16.0917  16.2818
    16.4109  16.6409  16.7639  16.8065  16.8552  16.9056  17.0710  17.0774
    17.1018  17.2177  17.2324  17.2677  17.3265  17.3878  17.4681  17.4684
    17.5053  17.7680  18.0093  18.0723  18.5282  18.5530  18.6815  18.9393
    19.5625  20.5188

          k = 0.0000 0.2500-0.0484 ( 13842 PWs)   bands (ev):

   -66.8608 -66.7588 -66.7091 -66.6136 -62.2520 -62.1540 -62.1242 -62.0507
   -35.6302 -35.5817 -35.5754 -35.5267 -35.4827 -35.4775 -35.4764 -35.4334
   -35.4271 -35.3909 -35.3354 -35.3291 -31.0764 -31.0754 -31.0685 -30.9818
   -30.9760 -30.9738 -30.9512 -30.9485 -30.9432 -30.8825 -30.8758 -30.8678
     6.7037   6.7741   6.9852   7.0570   7.4599   7.4763   7.9247   7.9923
     8.3683   8.4196   8.6407   8.6568   8.7400   8.7734   8.8321   8.8589
     8.8767   8.9286   8.9449   9.0355   9.0469   9.1034   9.2827   9.3414
     9.4723   9.5031   9.5398   9.5496   9.5903   9.5949   9.6415   9.6538
     9.6570   9.6802   9.7048   9.7118   9.8395   9.9312   9.9784  10.0112
    10.0182  10.0239  10.0721  10.1364  10.1738  10.2511  10.3462  10.3746
    10.4126  10.5561  10.5671  10.6218  10.6497  10.6499  10.7412  10.7740
    10.8103  10.8255  10.8623  10.9212  10.9593  11.0275  11.0411  11.0765
    11.1089  11.1170  11.1975  11.2023  11.2332  11.2615  11.2703  11.3115
    11.3780  11.4044  11.4410  11.5117  11.5168  11.5360  11.5583  11.5755
    11.6142  11.7018  11.7127  11.7551  11.7936  11.8060  11.8282  11.8547
    11.8777  11.8852  11.9074  11.9422  12.0021  12.0037  12.1187  12.1372
    12.1681  12.2067  12.2400  12.2844  12.4406  12.4835  12.6321  12.6603
    12.6797  12.6855  12.7296  12.7872  12.9899  13.0277  13.3288  13.4753
    14.5107  14.7718  15.6228  15.8792  15.9766  16.0529  16.1348  16.2514
    16.4517  16.6302  16.7639  16.8078  16.8552  16.9056  17.0710  17.0775
    17.1019  17.2124  17.2324  17.2838  17.3265  17.3878  17.4052  17.4684
    17.5610  17.7947  18.0328  18.1384  18.3425  18.3530  18.9346  19.0178
    19.6893  19.9480

          k = 0.0000 0.3750 0.0000 ( 13856 PWs)   bands (ev):

   -66.8614 -66.7594 -66.7096 -66.6142 -62.2510 -62.1530 -62.1232 -62.0497
   -35.6298 -35.5858 -35.5752 -35.5263 -35.4868 -35.4771 -35.4762 -35.4375
   -35.4268 -35.3905 -35.3395 -35.3289 -31.0818 -31.0749 -31.0682 -30.9872
   -30.9755 -30.9735 -30.9566 -30.9479 -30.9429 -30.8819 -30.8812 -30.8675
     7.6518   7.7435   7.8106   7.9850   8.0096   8.1444   8.1584   8.2090
     8.2242   8.3334   8.3524   8.4912   8.5801   8.6842   8.8418   8.9245
     8.9717   8.9949   9.1435   9.1693   9.2115   9.2290   9.2381   9.3000
     9.3003   9.3034   9.3061   9.3781   9.4191   9.4705   9.6077   9.6316
     9.6719   9.6790   9.6859   9.8042   9.8261   9.8288   9.9506   9.9976
    10.0139  10.0464  10.0730  10.1070  10.1839  10.2029  10.2411  10.3683
    10.4230  10.4404  10.5339  10.6271  10.6510  10.7635  10.8509  10.8867
    10.9631  10.9727  11.1004  11.1636  11.1982  11.2800  11.2882  11.3404
    11.3748  11.3979  11.3995  11.4798  11.5162  11.5320  11.5646  11.5841
    11.6205  11.6355  11.6393  11.6725  11.6850  11.7189  11.7651  11.8067
    11.8383  11.8392  11.8465  11.8563  11.9432  11.9931  12.0079  12.0597
    12.0766  12.0874  12.1048  12.1471  12.1474  12.1752  12.2858  12.3104
    12.3566  12.3696  12.4007  12.4377  12.5253  12.5557  12.6131  12.7428
    12.7575  12.8257  12.8774  12.9670  12.9857  13.0578  13.0755  13.8965
    13.9593  13.9737  14.2447  14.2925  14.7127  14.7927  15.0673  15.1114
    15.4282  15.4797  15.8783  15.9229  16.7355  16.7727  16.7851  16.8417
    16.8573  16.9004  16.9731  16.9986  17.0543  17.1246  17.1897  17.3816
    17.4336  17.5250  17.5704  17.6353  17.9091  17.9814  18.0571  18.2796
    19.5835  19.7374

          k = 0.0000 0.3750-0.0484 ( 13872 PWs)   bands (ev):

   -66.8614 -66.7594 -66.7096 -66.6142 -62.2510 -62.1530 -62.1232 -62.0497
   -35.6298 -35.5858 -35.5752 -35.5263 -35.4868 -35.4771 -35.4762 -35.4375
   -35.4268 -35.3905 -35.3395 -35.3289 -31.0818 -31.0749 -31.0682 -30.9872
   -30.9755 -30.9735 -30.9566 -30.9479 -30.9429 -30.8819 -30.8812 -30.8675
     7.6572   7.7203   7.8642   7.9068   8.0853   8.0992   8.1754   8.1875
     8.2605   8.2837   8.4110   8.4490   8.5991   8.6779   8.8552   8.8959
     8.9781   9.0202   9.1172   9.1481   9.2290   9.2380   9.2382   9.2823
     9.3000   9.3061   9.3593   9.3782   9.4190   9.4673   9.5144   9.6535
     9.6795   9.6853   9.6958   9.8060   9.8273   9.9094   9.9492   9.9975
    10.0092  10.0415  10.0466  10.0810  10.0995  10.1846  10.3489  10.4229
    10.4230  10.4307  10.4899  10.6251  10.6450  10.7690  10.8107  10.9245
    10.9535  10.9634  11.1156  11.1755  11.1990  11.2513  11.3226  11.3723
    11.3830  11.4019  11.4520  11.4588  11.4728  11.4862  11.5473  11.5668
    11.5904  11.6253  11.6393  11.7008  11.7041  11.7334  11.7641  11.7776
    11.7906  11.8312  11.8837  11.9064  11.9409  11.9883  11.9887  11.9901
    12.0554  12.0819  12.1509  12.1561  12.2053  12.2499  12.2837  12.3561
    12.3611  12.4028  12.4518  12.4679  12.4895  12.5361  12.5484  12.6148
    12.7440  12.7570  12.8253  12.8775  13.0578  13.0755  13.4716  13.4908
    14.0071  14.0576  14.3435  14.3655  14.6088  14.6679  15.0747  15.1685
    15.4993  15.5215  15.8304  15.8802  16.7355  16.7546  16.7851  16.8573
    16.8595  16.9074  16.9734  16.9986  17.0642  17.1100  17.1980  17.3812
    17.4336  17.5250  17.5704  17.6353  17.9121  17.9782  18.0587  18.2816
    19.5864  19.7697

          k = 0.0000-0.5000 0.0000 ( 13918 PWs)   bands (ev):

   -66.8618 -66.7598 -66.7101 -66.6146 -62.2504 -62.1524 -62.1226 -62.0491
   -35.6296 -35.5874 -35.5751 -35.5261 -35.4884 -35.4769 -35.4761 -35.4391
   -35.4267 -35.3903 -35.3411 -35.3288 -31.0841 -31.0746 -31.0681 -30.9894
   -30.9752 -30.9734 -30.9589 -30.9477 -30.9428 -30.8835 -30.8817 -30.8673
     8.1176   8.1226   8.1729   8.1786   8.2276   8.2810   8.3254   8.3850
     8.4465   8.4706   8.5165   8.5301   8.5462   8.6456   8.7467   8.8354
     8.9279   8.9390   9.1301   9.1385   9.1706   9.2009   9.2161   9.2256
     9.2354   9.2955   9.3118   9.3495   9.5584   9.5937   9.6400   9.6734
     9.6898   9.7167   9.7302   9.7432   9.7480   9.8328   9.8630   9.9803
     9.9968  10.0018  10.0364  10.0387  10.0833  10.1074  10.2239  10.3138
    10.4086  10.4779  10.5020  10.5534  10.5922  10.6708  10.7317  10.9370
    11.0739  11.1922  11.2641  11.3733  11.3826  11.4530  11.4559  11.4580
    11.5153  11.5299  11.5428  11.5613  11.5621  11.5787  11.5956  11.6067
    11.6144  11.6338  11.6720  11.7027  11.7326  11.7644  11.7981  11.8440
    11.8640  11.8706  11.9543  12.0843  12.1949  12.2683  12.2732  12.3698
    12.4133  12.4174  12.4401  12.4584  12.4847  12.5045  12.5325  12.5442
    12.5704  12.5945  12.6371  12.6529  12.7196  12.7789  12.7882  12.8549
    12.8557  12.9179  12.9564  12.9811  13.0873  13.0946  13.1115  13.2363
    13.2445  13.4037  13.6223  13.7653  13.8748  13.9067  14.3378  14.4069
    14.4232  14.5235  14.8301  14.8940  16.4946  16.6809  16.6917  16.7664
    16.8365  16.8397  16.8415  16.8649  16.9046  16.9087  17.0581  17.0933
    17.5074  17.5998  17.6459  17.7066  17.8998  18.0088  18.0261  18.1098
    19.6225  19.6730

          k = 0.0000-0.5000-0.0484 ( 13892 PWs)   bands (ev):

   -66.8618 -66.7598 -66.7101 -66.6146 -62.2504 -62.1524 -62.1226 -62.0491
   -35.6296 -35.5874 -35.5751 -35.5261 -35.4884 -35.4769 -35.4761 -35.4391
   -35.4267 -35.3903 -35.3411 -35.3288 -31.0841 -31.0746 -31.0681 -30.9894
   -30.9752 -30.9734 -30.9589 -30.9477 -30.9428 -30.8835 -30.8817 -30.8673
     8.1175   8.1223   8.1747   8.1790   8.2253   8.2787   8.3296   8.3821
     8.4664   8.4719   8.4825   8.5297   8.5610   8.6487   8.7426   8.8325
     8.9327   8.9458   9.1301   9.1365   9.1385   9.2009   9.2099   9.2256
     9.2608   9.2955   9.3118   9.3928   9.5516   9.5583   9.5883   9.6734
     9.7041   9.7307   9.7430   9.7480   9.7542   9.8313   9.8622   9.9814
     9.9968  10.0225  10.0359  10.0387  10.0833  10.1910  10.1987  10.2500
    10.3296  10.4779  10.5020  10.5921  10.6430  10.6708  10.7317  10.9276
    11.0741  11.1890  11.2624  11.3714  11.3754  11.4540  11.4581  11.4757
    11.5188  11.5246  11.5441  11.5478  11.5607  11.5834  11.5942  11.6041
    11.6174  11.6325  11.6338  11.6970  11.7382  11.7642  11.8012  11.8422
    11.8687  11.9237  11.9543  12.0880  12.1590  12.2684  12.2761  12.3698
    12.4133  12.4210  12.4484  12.4593  12.4847  12.5032  12.5288  12.5305
    12.5733  12.5930  12.6529  12.6566  12.7181  12.7789  12.7886  12.8261
    12.8549  12.9177  12.9952  13.0035  13.0665  13.0873  13.0946  13.1848
    13.2864  13.5163  13.5719  13.5941  14.0545  14.0761  14.1013  14.1883
    14.6177  14.6952  14.7537  14.8307  16.5130  16.6706  16.6822  16.7664
    16.8365  16.8397  16.8413  16.8649  16.9045  16.9150  17.0572  17.0934
    17.5074  17.5998  17.6459  17.7066  17.9001  18.0080  18.0267  18.1098
    19.6451  19.6878

          k = 0.1250 0.1250 0.0000 ( 13839 PWs)   bands (ev):

   -66.8607 -66.7586 -66.7089 -66.6135 -62.2524 -62.1544 -62.1247 -62.0512
   -35.6305 -35.5775 -35.5774 -35.5270 -35.4785 -35.4784 -35.4778 -35.4291
   -35.4291 -35.3911 -35.3311 -35.3311 -31.0758 -31.0711 -31.0709 -30.9764
   -30.9764 -30.9762 -30.9489 -30.9458 -30.9456 -30.8829 -30.8704 -30.8702
     6.2385   6.3642   6.4595   6.7985   6.8694   7.4229   7.4546   7.9409
     8.3907   8.5751   8.6674   8.6799   8.7122   8.7603   8.7814   8.7926
     8.8489   9.0501   9.0511   9.1005   9.2784   9.3002   9.3416   9.3681
     9.4010   9.4168   9.4661   9.4941   9.5964   9.6454   9.6788   9.7650
     9.7783   9.8322   9.8397   9.8722   9.8936   9.8996   9.9247   9.9580
    10.0873  10.0996  10.1040  10.1674  10.1815  10.2628  10.3290  10.3429
    10.3436  10.3750  10.3908  10.4199  10.4362  10.4426  10.5591  10.5960
    10.6474  10.6698  10.6887  10.7586  10.7698  10.7703  10.8723  10.9157
    10.9420  10.9985  11.0562  11.1205  11.1241  11.1499  11.2010  11.2039
    11.2616  11.2870  11.2937  11.3353  11.3815  11.4610  11.4984  11.5003
    11.5618  11.5680  11.6546  11.7400  11.7722  11.8073  11.8256  11.8465
    11.9169  11.9627  11.9954  12.0139  12.0497  12.0908  12.1108  12.1437
    12.2093  12.2950  12.3012  12.3556  12.3804  12.4872  12.5502  12.5944
    12.6293  12.7145  12.7349  12.8335  12.8475  12.9560  13.1074  13.7772
    14.1063  15.0310  15.3680  16.3234  16.6726  16.7121  16.7628  16.7883
    16.8459  16.8803  16.8911  16.9344  16.9496  16.9747  17.0058  17.0367
    17.1633  17.1802  17.2329  17.2641  17.4629  17.6925  17.7406  18.3557
    18.8367  19.1682  19.2692  19.4246  19.6120  19.6215  19.7910  20.0852
    20.1466  20.2837

          k = 0.1250 0.1250-0.0484 ( 13838 PWs)   bands (ev):

   -66.8607 -66.7586 -66.7089 -66.6135 -62.2524 -62.1544 -62.1247 -62.0512
   -35.6305 -35.5775 -35.5774 -35.5270 -35.4785 -35.4784 -35.4778 -35.4291
   -35.4291 -35.3911 -35.3311 -35.3311 -31.0758 -31.0711 -31.0709 -30.9764
   -30.9764 -30.9762 -30.9489 -30.9458 -30.9456 -30.8829 -30.8704 -30.8702
     6.2488   6.3229   6.5565   6.6347   7.1052   7.1359   7.7432   7.7688
     8.4816   8.5834   8.6208   8.6674   8.6762   8.7122   8.7926   8.8252
     8.9251   8.9672   9.0511   9.2129   9.2362   9.2572   9.3064   9.3498
     9.4434   9.4479   9.4777   9.5071   9.5677   9.6485   9.6589   9.7765
     9.7784   9.8332   9.8456   9.8746   9.8994   9.9081   9.9228   9.9323
    10.0961  10.0991  10.1044  10.1639  10.1815  10.2647  10.3299  10.3410
    10.3413  10.3760  10.3848  10.4143  10.4420  10.4548  10.5495  10.5956
    10.6408  10.6673  10.7147  10.7647  10.7747  10.7775  10.8529  10.8644
    10.9451  11.0378  11.0569  11.1288  11.1356  11.1397  11.1813  11.2033
    11.2774  11.3037  11.3154  11.3415  11.3765  11.4117  11.4268  11.4979
    11.5642  11.6312  11.6926  11.7731  11.7900  11.8107  11.8131  11.8198
    11.8761  11.9042  11.9774  12.0264  12.0936  12.1047  12.1431  12.1495
    12.2113  12.2676  12.2774  12.3563  12.3905  12.4873  12.5576  12.5981
    12.6246  12.7347  12.7526  12.8091  12.8424  12.8615  13.3175  13.5178
    14.3826  14.7510  15.5562  16.2389  16.7123  16.7219  16.7565  16.7874
    16.8468  16.8621  16.9098  16.9353  16.9495  16.9618  17.0057  17.0367
    17.1656  17.1803  17.2328  17.2630  17.4733  17.6042  17.9785  18.0487
    19.1453  19.2976  19.3008  19.3926  19.4924  19.5762  19.6727  19.9310
    20.0543  20.1936

          k = 0.1250 0.2500 0.0000 ( 13846 PWs)   bands (ev):

   -66.8604 -66.7584 -66.7087 -66.6132 -62.2521 -62.1541 -62.1244 -62.0509
   -35.6301 -35.5816 -35.5772 -35.5266 -35.4826 -35.4782 -35.4774 -35.4333
   -35.4288 -35.3908 -35.3353 -35.3308 -31.0762 -31.0752 -31.0706 -30.9816
   -30.9760 -30.9758 -30.9510 -30.9483 -30.9454 -30.8823 -30.8756 -30.8699
     6.8845   7.0026   7.1002   7.4087   7.4583   7.9202   7.9301   8.2988
     8.4259   8.6304   8.6554   8.7807   8.8443   8.8511   8.8947   8.9843
     9.0150   9.0526   9.0883   9.0944   9.1744   9.2400   9.4030   9.4151
     9.4444   9.4894   9.4997   9.5178   9.5359   9.5562   9.5771   9.6248
     9.6635   9.6945   9.7367   9.8177   9.8487   9.8827   9.9264   9.9504
     9.9737  10.0069  10.0676  10.0880  10.1359  10.1472  10.2062  10.3156
    10.3598  10.3637  10.3959  10.4269  10.4534  10.5351  10.5439  10.5845
    10.6478  10.7181  10.7260  10.8054  10.8654  10.8917  10.9248  10.9613
    10.9923  11.0365  11.0719  11.1108  11.1429  11.2087  11.2595  11.3233
    11.4138  11.4262  11.4780  11.4905  11.5119  11.5681  11.6168  11.6437
    11.6803  11.7048  11.7664  11.8049  11.8362  11.8492  11.8781  11.9284
    11.9822  12.0195  12.0535  12.0963  12.1155  12.1700  12.1853  12.2119
    12.2703  12.3344  12.3534  12.4826  12.5278  12.5627  12.5990  12.6235
    12.6577  12.7085  12.7374  12.8140  12.8680  13.0811  13.2221  14.0512
    14.3483  15.2827  15.4960  16.1005  16.1994  16.2803  16.3782  16.4973
    16.5061  16.7369  16.8658  16.9073  16.9286  17.0490  17.0637  17.0958
    17.1672  17.1741  17.2013  17.2710  17.3437  17.4120  17.4884  17.7096
    17.7442  17.9855  18.2865  18.3465  18.8278  18.9181  19.0352  19.1830
    19.5753  20.4711

          k = 0.1250 0.2500-0.0484 ( 13868 PWs)   bands (ev):

   -66.8604 -66.7584 -66.7087 -66.6132 -62.2521 -62.1541 -62.1244 -62.0509
   -35.6301 -35.5816 -35.5772 -35.5266 -35.4826 -35.4782 -35.4774 -35.4333
   -35.4288 -35.3908 -35.3353 -35.3308 -31.0762 -31.0752 -31.0706 -30.9816
   -30.9760 -30.9758 -30.9510 -30.9483 -30.9454 -30.8823 -30.8756 -30.8699
     6.8928   6.9685   7.1815   7.2629   7.6652   7.6848   8.1267   8.1855
     8.5026   8.5467   8.7409   8.7562   8.7894   8.8603   8.9501   8.9630
     9.0035   9.0595   9.0819   9.0990   9.1777   9.2422   9.3584   9.4219
     9.4523   9.5022   9.5134   9.5261   9.5381   9.5598   9.5865   9.6412
     9.6539   9.7015   9.7054   9.7614   9.8589   9.8732   9.9487   9.9671
    10.0078  10.0232  10.0461  10.0812  10.1391  10.1463  10.2309  10.2478
    10.3406  10.3683  10.4079  10.4269  10.5011  10.5277  10.5518  10.5896
    10.6112  10.7180  10.7518  10.8138  10.8497  10.8871  10.9280  10.9535
    10.9867  11.0235  11.0744  11.0983  11.1902  11.2093  11.2920  11.3098
    11.3504  11.4263  11.4729  11.4979  11.5335  11.5700  11.6186  11.6483
    11.6920  11.7046  11.7772  11.7906  11.8344  11.8425  11.8658  11.9255
    11.9787  12.0182  12.0683  12.0908  12.1411  12.1574  12.1933  12.2164
    12.2419  12.3226  12.3905  12.4668  12.5179  12.5474  12.6107  12.6304
    12.7060  12.7303  12.7562  12.8144  12.8497  12.8765  13.5432  13.7100
    14.6579  14.9931  15.6748  16.0997  16.2011  16.2145  16.4082  16.4480
    16.5642  16.7283  16.8414  16.9142  16.9455  17.0438  17.0835  17.0966
    17.1286  17.1825  17.2057  17.2751  17.3783  17.3851  17.4898  17.6217
    17.7881  18.0719  18.3334  18.4369  18.6283  18.6405  19.2117  19.2951
    19.8809  19.9723

          k = 0.1250 0.3750 0.0000 ( 13875 PWs)   bands (ev):

   -66.8608 -66.7588 -66.7091 -66.6137 -62.2513 -62.1533 -62.1235 -62.0500
   -35.6297 -35.5856 -35.5769 -35.5262 -35.4866 -35.4779 -35.4770 -35.4373
   -35.4286 -35.3904 -35.3393 -35.3306 -31.0816 -31.0747 -31.0703 -30.9870
   -30.9756 -30.9753 -30.9564 -30.9478 -30.9450 -30.8818 -30.8810 -30.8695
     7.7545   7.8538   7.9499   8.1675   8.1690   8.3327   8.3448   8.3757
     8.4027   8.4853   8.5059   8.6357   8.7092   8.7928   8.9316   8.9858
     9.0563   9.0872   9.1154   9.2089   9.2457   9.2801   9.2942   9.3034
     9.3147   9.3715   9.3792   9.4119   9.4603   9.4945   9.5675   9.6068
     9.6501   9.6745   9.7204   9.7757   9.8170   9.8959   9.9136   9.9185
     9.9518   9.9816  10.0446  10.0578  10.2140  10.3012  10.3320  10.3369
    10.4018  10.4404  10.4992  10.5749  10.6117  10.6408  10.7247  10.7639
    10.8269  10.8821  10.8908  10.9655  11.0936  11.1173  11.1550  11.1828
    11.2360  11.2555  11.2622  11.3308  11.3480  11.4069  11.4989  11.5119
    11.5493  11.5785  11.5867  11.6129  11.6750  11.7078  11.7437  11.7611
    11.7876  11.7998  11.8654  11.8836  11.8910  11.9432  11.9689  11.9785
    12.0053  12.0786  12.1074  12.1397  12.1497  12.2864  12.3028  12.3529
    12.4492  12.4691  12.5025  12.5170  12.5500  12.5622  12.5990  12.7028
    12.7761  12.8041  12.8747  13.0290  13.1177  13.5264  13.5873  14.1912
    14.3157  14.3667  14.6247  14.7138  14.9850  15.0072  15.4030  15.4991
    15.6762  15.7015  16.2687  16.3006  16.7804  16.8491  16.9072  16.9361
    16.9863  17.0883  17.1234  17.1451  17.1634  17.1790  17.2210  17.2713
    17.6129  17.6679  17.7257  17.9761  18.0209  18.0719  18.1639  18.4393
    19.6341  19.7243

          k = 0.1250 0.3750-0.0484 ( 13882 PWs)   bands (ev):

   -66.8608 -66.7588 -66.7091 -66.6137 -62.2513 -62.1533 -62.1235 -62.0500
   -35.6297 -35.5856 -35.5769 -35.5262 -35.4866 -35.4779 -35.4770 -35.4373
   -35.4286 -35.3904 -35.3393 -35.3306 -31.0816 -31.0747 -31.0703 -30.9870
   -30.9756 -30.9753 -30.9564 -30.9478 -30.9450 -30.8818 -30.8810 -30.8695
     7.7592   7.8343   7.9964   8.0735   8.2751   8.2811   8.3466   8.3716
     8.4227   8.4535   8.5576   8.5890   8.7336   8.7846   8.9331   9.0073
     9.0429   9.0501   9.1333   9.2265   9.2437   9.2848   9.2893   9.3041
     9.3242   9.3769   9.3963   9.4108   9.4295   9.4700   9.5405   9.6043
     9.6690   9.7183   9.7319   9.7943   9.8377   9.8677   9.8876   9.9003
     9.9474   9.9739  10.0373  10.0739  10.2226  10.2512  10.3333  10.3984
    10.4291  10.4473  10.5072  10.5340  10.6108  10.6275  10.7113  10.7527
    10.8345  10.8474  10.9581  10.9975  11.0842  11.1001  11.1275  11.1579
    11.2266  11.2426  11.2974  11.3478  11.3837  11.4234  11.4318  11.5216
    11.5598  11.5662  11.5837  11.6219  11.6724  11.7023  11.7413  11.7767
    11.7942  11.8160  11.8350  11.8799  11.9139  11.9428  11.9629  11.9731
    12.0095  12.0761  12.0938  12.1260  12.1909  12.2426  12.3415  12.3644
    12.4362  12.4547  12.4993  12.5075  12.5457  12.5786  12.6313  12.6613
    12.7600  12.8658  12.9039  12.9141  13.2681  13.3095  13.8219  13.9610
    14.4006  14.4595  14.5820  14.6937  14.9922  15.0517  15.3412  15.3837
    15.7684  15.7862  16.2392  16.2769  16.7671  16.8504  16.9179  16.9348
    16.9969  17.0872  17.1239  17.1479  17.1598  17.1815  17.2103  17.2755
    17.6149  17.6740  17.7175  17.9435  18.0297  18.0982  18.1573  18.4479
    19.6618  19.7877

          k = 0.1250-0.5000 0.0000 ( 13890 PWs)   bands (ev):

   -66.8612 -66.7592 -66.7095 -66.6141 -62.2507 -62.1527 -62.1230 -62.0495
   -35.6296 -35.5873 -35.5768 -35.5260 -35.4883 -35.4778 -35.4768 -35.4390
   -35.4285 -35.3902 -35.3410 -35.3305 -31.0838 -31.0745 -31.0701 -30.9892
   -30.9754 -30.9751 -30.9586 -30.9476 -30.9448 -30.8832 -30.8816 -30.8694
     8.2849   8.2855   8.3287   8.3572   8.3725   8.4325   8.4609   8.4905
[...]
    11.4122  11.4722  11.5663  11.6083  11.6124  11.6349  11.6760  11.7034
    11.7581  11.8469  11.8813  11.8990  11.9315  11.9957  12.0118  12.0222
    12.0435  12.0650  12.1151  12.1434  12.2194  12.2689  12.3310  12.3664
    12.4102  12.4958  12.5292  12.5837  12.6353  12.6560  12.7174  12.7934
    12.8311  13.1205  13.2078  13.5978  13.6828  14.1177  14.2216  14.6632
    14.9806  15.1614  15.3266  15.4043  15.4960  15.5126  15.9507  16.0746
    16.1967  16.3154  16.8505  16.8990  16.9996  17.0431  17.0802  17.1464
    17.1748  17.2304  17.2643  17.4220  17.4429  17.5037  17.5873  17.8495
    17.9978  18.0362  18.0993  18.2291  18.4206  18.4902  18.7405  19.0459
    19.4016  19.5705

          k = 0.2500 0.3750-0.0484 ( 13916 PWs)   bands (ev):

   -66.8600 -66.7580 -66.7084 -66.6129 -62.2517 -62.1536 -62.1238 -62.0505
   -35.6295 -35.5852 -35.5809 -35.5260 -35.4863 -35.4820 -35.4769 -35.4371
   -35.4328 -35.3902 -35.3391 -35.3347 -31.0812 -31.0755 -31.0745 -30.9865
   -30.9807 -30.9750 -30.9558 -30.9500 -30.9474 -30.8816 -30.8805 -30.8748
     7.9213   8.0323   8.2172   8.3843   8.5641   8.6130   8.6607   8.7620
     8.7730   8.8172   8.8342   8.8643   8.9196   8.9452   9.0392   9.0845
     9.1093   9.2399   9.2766   9.3014   9.3107   9.3493   9.3670   9.3844
     9.3998   9.4193   9.4925   9.4999   9.6005   9.6438   9.6747   9.6984
     9.7112   9.7818   9.7871   9.8141   9.8417   9.8825   9.9377   9.9616
    10.0403  10.1171  10.1502  10.1821  10.2118  10.2476  10.2956  10.3016
    10.3503  10.3669  10.4380  10.4968  10.5159  10.5551  10.5926  10.6018
    10.6542  10.6775  10.7456  10.7904  10.8491  10.8770  10.9025  10.9426
    10.9864  11.0495  11.0829  11.1340  11.1911  11.2607  11.2788  11.3317
    11.4212  11.4972  11.5389  11.5714  11.6090  11.6526  11.6810  11.7425
    11.7597  11.8168  11.8806  11.8985  11.9345  11.9846  12.0101  12.0180
    12.0659  12.0776  12.0958  12.1581  12.2200  12.2625  12.3150  12.3675
    12.4232  12.4943  12.5193  12.5945  12.6520  12.6821  12.6928  12.7171
    12.9662  12.9819  13.3180  13.4707  13.8269  13.9702  14.3504  14.5801
    15.0596  15.1903  15.2432  15.3266  15.5299  15.5950  15.9279  16.0497
    16.2049  16.3264  16.8432  16.9183  16.9851  17.0451  17.0815  17.1260
    17.1932  17.2258  17.2810  17.3977  17.4613  17.4971  17.5820  17.8469
    17.9456  18.0269  18.2338  18.3049  18.3785  18.4434  18.6314  19.0316
    19.4005  19.5699

          k = 0.2500-0.5000 0.0000 ( 13940 PWs)   bands (ev):

   -66.8602 -66.7582 -66.7087 -66.6131 -62.2513 -62.1533 -62.1234 -62.0501
   -35.6293 -35.5869 -35.5808 -35.5258 -35.4879 -35.4818 -35.4768 -35.4388
   -35.4327 -35.3901 -35.3407 -35.3346 -31.0834 -31.0753 -31.0743 -30.9887
   -30.9806 -30.9749 -30.9580 -30.9498 -30.9472 -30.8828 -30.8814 -30.8746
     8.3304   8.3471   8.4471   8.4535   8.5316   8.6157   8.7307   8.7684
     8.7758   8.7954   8.8071   8.8362   8.8447   8.9440   8.9721   9.0168
     9.0649   9.1528   9.1739   9.1745   9.1832   9.2546   9.2641   9.3111
     9.3634   9.4308   9.4492   9.4581   9.5712   9.5958   9.6511   9.6784
     9.7301   9.7741   9.7841   9.8607   9.8913   9.9362   9.9825  10.0380
    10.1099  10.1807  10.3269  10.3451  10.3549  10.4126  10.4135  10.4633
    10.5206  10.5648  10.5711  10.5954  10.7031  10.7116  10.7773  10.8251
    10.8365  10.8747  10.8988  10.9343  10.9445  10.9712  11.0831  11.0882
    11.1637  11.1656  11.1896  11.2402  11.2485  11.2823  11.3144  11.3302
    11.4687  11.5377  11.6367  11.6384  11.6713  11.7034  11.7427  11.7671
    11.8233  11.8624  11.8862  11.9191  11.9592  11.9807  12.0107  12.0538
    12.0544  12.0965  12.2424  12.2519  12.2721  12.3290  12.3362  12.4093
    12.4759  12.4967  12.5062  12.5577  12.7872  12.8647  12.9976  13.0494
    13.1284  13.2573  13.4850  13.6683  13.7096  13.8443  14.0756  14.1764
    14.4622  14.5040  14.6479  14.8431  14.8685  15.1432  15.3754  15.6203
    16.0143  16.1458  16.5413  16.7813  16.9592  16.9712  17.0239  17.0699
    17.1276  17.1287  17.1595  17.3129  17.4678  17.5711  17.7377  17.7998
    17.9137  17.9831  18.1173  18.1565  18.2195  18.2906  18.4881  18.5319
    19.4960  19.5775

          k = 0.2500-0.5000-0.0484 ( 13912 PWs)   bands (ev):

   -66.8602 -66.7582 -66.7087 -66.6131 -62.2513 -62.1533 -62.1234 -62.0501
   -35.6293 -35.5869 -35.5808 -35.5258 -35.4879 -35.4818 -35.4768 -35.4388
   -35.4327 -35.3901 -35.3407 -35.3346 -31.0834 -31.0753 -31.0743 -30.9887
   -30.9806 -30.9749 -30.9580 -30.9498 -30.9472 -30.8828 -30.8814 -30.8746
     8.3321   8.3474   8.4454   8.4456   8.5334   8.6514   8.6944   8.7685
     8.7746   8.7955   8.8074   8.8365   8.8429   8.9433   8.9731   9.0354
     9.0627   9.1418   9.1661   9.1748   9.1974   9.2543   9.2623   9.3213
     9.3572   9.4221   9.4303   9.4761   9.5853   9.6056   9.6226   9.6926
     9.7157   9.7476   9.8281   9.8732   9.8878   9.9166   9.9933  10.0157
    10.1233  10.1811  10.3244  10.3382  10.3776  10.4149  10.4188  10.4642
    10.5170  10.5306  10.5712  10.5789  10.7232  10.7472  10.7702  10.8202
    10.8218  10.8701  10.9100  10.9402  10.9515  10.9728  11.0294  11.1133
    11.1733  11.1753  11.1840  11.2277  11.2537  11.2979  11.3116  11.3234
    11.4640  11.5387  11.6365  11.6385  11.6709  11.7043  11.7447  11.7671
    11.8229  11.8628  11.8862  11.9180  11.9593  11.9810  12.0132  12.0517
    12.0557  12.0959  12.2261  12.2354  12.2764  12.3380  12.3892  12.4314
    12.4502  12.4757  12.4923  12.5393  12.8480  12.8946  12.9005  13.0736
    13.1115  13.3085  13.4457  13.6205  13.8044  13.8881  13.9141  14.3689
    14.3951  14.4444  14.6270  14.8070  14.9697  15.1640  15.2882  15.6646
    16.0008  16.1569  16.5292  16.7807  16.9594  16.9855  17.0237  17.0702
    17.1203  17.1273  17.1688  17.2975  17.4681  17.5866  17.7233  17.7980
    17.9232  17.9842  18.1229  18.1359  18.2763  18.2983  18.4631  18.4665
    19.6366  19.7533

          k = 0.3750 0.3750 0.0000 ( 13948 PWs)   bands (ev):

   -66.8597 -66.7577 -66.7082 -66.6126 -62.2515 -62.1535 -62.1236 -62.0503
   -35.6292 -35.5849 -35.5848 -35.5257 -35.4859 -35.4859 -35.4766 -35.4368
   -35.4367 -35.3900 -35.3387 -35.3387 -31.0808 -31.0806 -31.0742 -30.9861
   -30.9859 -30.9747 -30.9553 -30.9551 -30.9470 -30.8812 -30.8801 -30.8799
     8.0167   8.1536   8.2994   8.3626   8.4756   8.5544   8.6568   8.7089
     8.9528   8.9951   9.0133   9.0339   9.0456   9.1496   9.1735   9.1765
     9.2431   9.2636   9.2993   9.3496   9.3499   9.3751   9.4236   9.4791
     9.4808   9.4861   9.5252   9.5568   9.6492   9.6689   9.6872   9.8194
     9.9260   9.9402   9.9509   9.9851  10.0110  10.0358  10.0361  10.0852
    10.1003  10.1223  10.1444  10.1899  10.2503  10.2512  10.2599  10.3749
    10.3856  10.4437  10.4950  10.5562  10.5567  10.6457  10.6744  10.7162
    10.7394  10.7628  10.8305  10.8474  10.9485  11.0350  11.0630  11.0814
    11.1750  11.2089  11.2240  11.2845  11.3211  11.4363  11.4795  11.5197
    11.5665  11.5770  11.5993  11.6188  11.6408  11.6631  11.7018  11.7581
    11.7871  11.9336  11.9555  11.9609  11.9805  11.9892  12.0126  12.0153
    12.0344  12.0654  12.1089  12.1269  12.1773  12.2233  12.2975  12.3321
    12.4032  12.4578  12.4901  12.5512  12.7226  12.7773  12.7938  13.1147
    13.1608  13.4968  13.6893  14.0412  14.3195  14.5843  14.7687  15.0972
    15.1584  15.1891  15.2637  15.4391  15.6236  16.0251  16.2937  16.4240
    16.5267  16.8330  17.0359  17.0644  17.0817  17.1113  17.1462  17.3272
    17.4080  17.4735  17.6061  17.7169  17.7710  17.8345  17.8604  18.0208
    18.0364  18.0902  18.1109  18.2397  18.2585  18.4769  18.6486  18.7340
    18.7836  18.8938

          k = 0.3750 0.3750-0.0484 ( 13950 PWs)   bands (ev):

   -66.8597 -66.7577 -66.7082 -66.6126 -62.2515 -62.1535 -62.1236 -62.0503
   -35.6292 -35.5849 -35.5848 -35.5257 -35.4859 -35.4859 -35.4766 -35.4368
   -35.4367 -35.3900 -35.3387 -35.3387 -31.0808 -31.0806 -31.0742 -30.9861
   -30.9859 -30.9747 -30.9553 -30.9551 -30.9470 -30.8812 -30.8801 -30.8799
     8.0180   8.1463   8.3155   8.3631   8.4747   8.5351   8.6216   8.7816
     8.9334   8.9928   9.0090   9.0395   9.0475   9.0998   9.1657   9.1919
     9.2427   9.2994   9.3077   9.3456   9.3870   9.3870   9.4026   9.4352
     9.4389   9.5330   9.5628   9.5726   9.5736   9.6389   9.7912   9.8299
     9.8583   9.9270   9.9443   9.9486  10.0094  10.0334  10.0705  10.1110
    10.1241  10.1325  10.1525  10.2024  10.2228  10.2413  10.2888  10.3264
    10.4023  10.4303  10.4737  10.5228  10.6021  10.6699  10.6832  10.6885
    10.7467  10.8293  10.8294  10.8478  10.8786  11.0249  11.0630  11.0773
    11.1687  11.1991  11.2525  11.3083  11.3290  11.4368  11.4782  11.5211
    11.5667  11.5755  11.5869  11.6008  11.6182  11.6631  11.7127  11.7581
    11.8429  11.8977  11.9337  11.9609  11.9819  11.9845  12.0160  12.0464
    12.0508  12.0661  12.0791  12.1148  12.2089  12.2254  12.2993  12.3020
    12.4178  12.4545  12.4954  12.5768  12.6342  12.7931  12.8888  12.9928
    13.2660  13.4322  13.7398  13.9970  14.3860  14.5144  14.8005  15.1126
    15.1518  15.1587  15.2815  15.4363  15.6236  16.0281  16.2911  16.4170
    16.5333  16.8568  17.0230  17.0454  17.0812  17.1152  17.1439  17.2814
    17.4491  17.5344  17.5543  17.7041  17.7836  17.8343  17.9081  17.9620
    18.0010  18.1056  18.1839  18.3066  18.3608  18.3987  18.4341  18.5406
    18.7721  19.0122

          k = 0.3750-0.5000 0.0000 ( 13934 PWs)   bands (ev):

   -66.8598 -66.7578 -66.7082 -66.6127 -62.2513 -62.1532 -62.1234 -62.0501
   -35.6291 -35.5865 -35.5847 -35.5256 -35.4875 -35.4858 -35.4765 -35.4384
   -35.4366 -35.3898 -35.3403 -35.3385 -31.0829 -31.0805 -31.0740 -30.9882
   -30.9858 -30.9746 -30.9574 -30.9550 -30.9469 -30.8822 -30.8811 -30.8798
     8.1407   8.1462   8.2635   8.2865   8.3669   8.4665   8.6847   8.7110
     8.8319   8.9465   9.1050   9.1135   9.1290   9.1613   9.1761   9.2008
     9.2243   9.2283   9.2471   9.2506   9.3082   9.3819   9.3928   9.3963
     9.4311   9.4634   9.5616   9.5827   9.6258   9.6581   9.8257   9.8498
     9.9082   9.9258   9.9555   9.9560   9.9971   9.9980  10.0791  10.1270
    10.1441  10.1772  10.1926  10.1994  10.3222  10.3612  10.3731  10.3871
    10.4623  10.4791  10.5903  10.6690  10.6993  10.7529  10.7916  10.8634
    10.8804  11.0131  11.0661  11.0904  11.1112  11.1505  11.1760  11.2279
    11.2580  11.3069  11.3214  11.3799  11.4437  11.4895  11.5169  11.5621
    11.6052  11.6163  11.6975  11.7137  11.7420  11.7874  11.8030  11.8156
    11.9019  11.9509  11.9955  11.9959  12.0395  12.0675  12.0774  12.0987
    12.1013  12.1388  12.1848  12.2424  12.2449  12.3037  12.3180  12.3638
    12.3942  12.4411  12.5372  12.5870  12.9668  13.0714  13.1773  13.2329
    13.5711  13.7438  13.8942  14.1869  14.2974  14.3684  14.4371  14.6397
    14.7137  14.7883  15.3397  15.3927  15.4002  15.7421  16.0658  16.3809
    16.7591  16.8963  17.0065  17.0212  17.0651  17.0704  17.1138  17.2183
    17.3972  17.4797  17.5571  17.8071  17.8307  17.9800  17.9926  18.0437
    18.1341  18.1653  18.2852  18.3534  18.4400  18.6126  18.7708  18.7742
    18.8564  18.8647

          k = 0.3750-0.5000-0.0484 ( 13940 PWs)   bands (ev):

   -66.8598 -66.7578 -66.7082 -66.6127 -62.2513 -62.1532 -62.1234 -62.0501
   -35.6291 -35.5865 -35.5847 -35.5256 -35.4875 -35.4858 -35.4765 -35.4384
   -35.4366 -35.3898 -35.3403 -35.3385 -31.0829 -31.0805 -31.0740 -30.9882
   -30.9858 -30.9746 -30.9574 -30.9550 -30.9469 -30.8822 -30.8811 -30.8798
     8.1419   8.1466   8.2610   8.2795   8.3706   8.4956   8.6248   8.7028
     8.9293   8.9750   9.0073   9.0867   9.1189   9.1557   9.1838   9.1921
     9.2146   9.2510   9.2727   9.2762   9.3319   9.3605   9.3850   9.4000
     9.4635   9.4714   9.4881   9.5598   9.6906   9.7121   9.7652   9.7901
     9.9090   9.9438   9.9490   9.9868   9.9994  10.0110  10.1240  10.1373
    10.1613  10.1639  10.1737  10.2131  10.2573  10.2714  10.3350  10.4613
    10.5013  10.5688  10.6250  10.6623  10.6689  10.7203  10.7513  10.7597
    11.0143  11.0191  11.0684  11.0813  11.1049  11.1522  11.1692  11.2361
    11.2610  11.2920  11.3040  11.3837  11.4728  11.4817  11.4830  11.5674
    11.6189  11.6226  11.6952  11.6997  11.7617  11.7868  11.7873  11.8215
    11.9044  11.9487  11.9942  11.9971  12.0400  12.0611  12.0782  12.0961
    12.1056  12.1376  12.1787  12.2369  12.2459  12.3117  12.3201  12.3967
    12.3997  12.4423  12.5192  12.5549  13.0208  13.0808  13.0969  13.2718
    13.5528  13.7620  13.8893  14.2004  14.2742  14.3493  14.4633  14.6708
    14.7049  14.7630  15.3424  15.3984  15.3995  15.7378  16.0658  16.3798
    16.7651  16.8825  17.0051  17.0326  17.0578  17.0649  17.1904  17.2311
    17.2420  17.5299  17.6568  17.7210  17.8601  17.9545  18.0219  18.0289
    18.1359  18.1491  18.1819  18.4808  18.4845  18.6083  18.7548  18.8217
    18.8477  18.8778

          k =-0.5000-0.5000 0.0000 ( 13964 PWs)   bands (ev):

   -66.8598 -66.7578 -66.7082 -66.6127 -62.2511 -62.1531 -62.1232 -62.0499
   -35.6290 -35.5863 -35.5863 -35.5255 -35.4873 -35.4873 -35.4764 -35.4382
   -35.4382 -35.3898 -35.3401 -35.3401 -31.0826 -31.0826 -31.0739 -30.9879
   -30.9879 -30.9745 -30.9572 -30.9572 -30.9468 -30.8820 -30.8820 -30.8810
     8.0578   8.0588   8.1806   8.2130   8.2908   8.3944   8.6559   8.6674
     8.7638   8.8666   9.1045   9.1468   9.1785   9.1995   9.2354   9.2354
     9.2994   9.2994   9.3154   9.3154   9.4001   9.4349   9.4408   9.4408
     9.4469   9.4469   9.6866   9.6866   9.6940   9.6940   9.8207   9.9058
     9.9058   9.9246   9.9246   9.9609   9.9662   9.9992   9.9992  10.0398
    10.0398  10.0504  10.0612  10.0612  10.1700  10.1700  10.5144  10.5144
    10.5170  10.5955  10.6350  10.6350  10.6696  10.6820  11.0846  11.0846
    11.1096  11.1270  11.1425  11.2168  11.2200  11.2721  11.2721  11.3107
    11.3633  11.4572  11.4979  11.5275  11.5362  11.5880  11.7340  11.7340
    11.9161  11.9434  11.9486  11.9486  11.9528  11.9714  11.9759  11.9950
    12.0068  12.0136  12.0356  12.0367  12.0554  12.0699  12.0798  12.0943
    12.1031  12.1278  12.1410  12.2050  12.2155  12.2608  12.2694  12.3257
    12.3440  12.4119  12.5391  12.5391  13.3521  13.4013  13.4173  13.4387
    13.8532  13.8532  14.0958  14.0958  14.3368  14.3368  14.7252  14.7252
    14.8754  14.8754  15.8706  15.8706  15.9687  15.9687  16.5754  16.6717
    16.6977  16.8437  16.8535  16.8934  16.9763  17.0510  17.0510  17.1305
    17.3082  17.3082  17.7457  17.7761  17.8339  17.9189  18.0005  18.0097
    18.0258  18.0258  18.0934  18.1314  18.2047  18.2108  18.2108  18.2153
    18.2371  18.5520

          k =-0.5000-0.5000-0.0484 ( 13992 PWs)   bands (ev):

   -66.8598 -66.7578 -66.7082 -66.6127 -62.2511 -62.1531 -62.1232 -62.0499
   -35.6290 -35.5863 -35.5863 -35.5255 -35.4873 -35.4873 -35.4764 -35.4382
   -35.4382 -35.3898 -35.3401 -35.3401 -31.0826 -31.0826 -31.0739 -30.9879
   -30.9879 -30.9745 -30.9572 -30.9572 -30.9468 -30.8820 -30.8820 -30.8810
     8.0587   8.0592   8.1780   8.2069   8.2947   8.4176   8.5895   8.6543
     8.8844   8.9128   8.9613   9.0436   9.2360   9.2360   9.2877   9.2877
     9.3023   9.3350   9.3450   9.3450   9.3457   9.3604   9.3791   9.3791
     9.5501   9.5501   9.5532   9.5532   9.8419   9.8524   9.8524   9.8657
     9.8657   9.9058   9.9058   9.9247   9.9247   9.9410   9.9680   9.9999
     9.9999  10.0563  10.1319  10.1319  10.2663  10.2663  10.3539  10.3539
    10.5149  10.5981  10.6688  10.6820  10.8078  10.8078  10.9218  10.9218
    11.1096  11.1262  11.1426  11.2167  11.2219  11.3091  11.3633  11.3997
    11.3997  11.4572  11.4979  11.5275  11.5366  11.5880  11.6369  11.6369
    11.9161  11.9434  11.9528  11.9714  11.9759  11.9950  11.9979  11.9979
    12.0068  12.0136  12.0356  12.0367  12.0554  12.0699  12.0798  12.0943
    12.1031  12.1278  12.1409  12.2052  12.2101  12.2692  12.2729  12.3176
    12.3441  12.4132  12.5292  12.5292  13.3521  13.4013  13.4173  13.4387
    13.8928  13.8928  14.0261  14.0261  14.3831  14.3831  14.7030  14.7030
    14.8831  14.8831  15.8699  15.8699  15.9701  15.9701  16.5753  16.6742
    16.6949  16.8437  16.8514  16.8934  16.9849  17.0133  17.0133  17.1215
    17.4233  17.4233  17.7603  17.7757  17.7757  17.8053  17.8182  17.9328
    17.9350  18.0097  18.0934  18.1314  18.2027  18.2153  18.2752  18.5438
    18.6029  18.6029

     the Fermi energy is    15.2853 ev

!    total energy              =  -14694.00464927 Ry
     Harris-Foulkes estimate   =  -14694.00464568 Ry
     estimated scf accuracy    <       0.00000083 Ry

     total all-electron energy =   -626921.600371 Ry

     The total energy is the sum of the following terms:

     one-electron contribution =    -714.47121958 Ry
     hartree contribution      =     656.52736249 Ry
     xc contribution           =    -737.87795383 Ry
     ewald contribution        =   -2196.78933708 Ry
     Hubbard energy            =       0.44955468 Ry
     one-center paw contrib.   =  -11701.84305594 Ry

     total magnetization       =    -0.00 Bohr mag/cell
     absolute magnetization    =    37.23 Bohr mag/cell

     convergence has been achieved in  29 iterations

     Writing output data file mnau2.save/
 
     init_run     :     13.71s CPU     14.19s WALL (       1 calls)
     electrons    :    901.04s CPU    924.12s WALL (       1 calls)

     Called by init_run:
     wfcinit      :     12.49s CPU     12.81s WALL (       1 calls)
     potinit      :      0.59s CPU      0.61s WALL (       1 calls)
     hinit0       :      0.34s CPU      0.46s WALL (       1 calls)

     Called by electrons:
     c_bands      :    784.32s CPU    803.58s WALL (      29 calls)
     sum_band     :    100.81s CPU    103.79s WALL (      29 calls)
     v_of_rho     :      1.41s CPU      1.42s WALL (      30 calls)
     newd         :      3.79s CPU      3.81s WALL (      30 calls)
     PAW_pot      :     10.75s CPU     10.86s WALL (      30 calls)
     mix_rho      :      0.30s CPU      0.31s WALL (      29 calls)

     Called by c_bands:
     init_us_2    :      4.32s CPU      4.37s WALL (    3600 calls)
     cegterg      :    754.66s CPU    773.72s WALL (    1740 calls)

     Called by sum_band:
     sum_band:bec :      1.25s CPU      1.26s WALL (    1740 calls)
     addusdens    :      6.11s CPU      6.41s WALL (      29 calls)

     Called by *egterg:
     h_psi        :    329.27s CPU    338.09s WALL (    6332 calls)
     s_psi        :     33.18s CPU     33.22s WALL (    6392 calls)
     g_psi        :      1.16s CPU      1.16s WALL (    4532 calls)
     cdiaghg      :    294.20s CPU    304.12s WALL (    6272 calls)

     Called by h_psi:
     h_psi:pot    :    311.39s CPU    320.03s WALL (    6332 calls)
     h_psi:calbec :     44.41s CPU     45.92s WALL (    6332 calls)
     vloc_psi     :    234.79s CPU    241.30s WALL (    6332 calls)
     add_vuspsi   :     32.15s CPU     32.77s WALL (    6332 calls)
     vhpsi        :     17.04s CPU     17.22s WALL (    6332 calls)

     General routines
     calbec       :     80.23s CPU     82.84s WALL (   16204 calls)
     fft          :      1.06s CPU      1.10s WALL (     746 calls)
     ffts         :      0.05s CPU      0.06s WALL (     118 calls)
     fftw         :    279.46s CPU    287.38s WALL ( 1616468 calls)
     interpolate  :      0.11s CPU      0.11s WALL (      60 calls)
     davcio       :      0.00s CPU      0.01s WALL (      60 calls)
 
     Parallel routines
     fft_scatt_xy :     17.40s CPU     17.81s WALL ( 1617332 calls)
     fft_scatt_yz :    188.53s CPU    194.41s WALL ( 1617332 calls)

     Hubbard U routines
     new_ns       :      3.17s CPU      3.28s WALL (      29 calls)
     vhpsi        :     17.04s CPU     17.22s WALL (    6332 calls)
 
     PWSCF        : 15m23.61s CPU    16m41.56s WALL

 
   This run was terminated on:  21:43:54   6Apr2019            

=------------------------------------------------------------------------------=
   JOB DONE.
=------------------------------------------------------------------------------=
