
     Program PWSCF v.6.3MaX starts on  6Apr2019 at 21:43:55 

     This program is part of the open-source Quantum ESPRESSO suite
     for quantum simulation of materials; please cite
         "P. Giannozzi et al., J. Phys.:Condens. Matter 21 395502 (2009);
         "P. Giannozzi et al., J. Phys.:Condens. Matter 29 465901 (2017);
          URL http://www.quantum-espresso.org", 
     in publications or presentations arising from this work. More details at
     http://www.quantum-espresso.org/quote

     Parallel version (MPI), running on    32 processors

     MPI processes distributed on     4 nodes
     R & G space division:  proc/nbgrp/npool/nimage =      32
     Waiting for input...
     Reading input from standard input

     Current dimensions of program PWSCF are:
     Max number of different atomic species (ntypx) = 10
     Max number of k-points (npk) =  40000
     Max angular momentum in pseudopotentials (lmaxx) =  3
               file Mn.pbe-spn-kjpaw_psl.0.3.1.UPF: wavefunction(s)  3P 3D renormalized
               file Mn.pbe-spn-kjpaw_psl.0.3.1.UPF: wavefunction(s)  3P 3D renormalized
               file Au.pbe-dn-kjpaw_psl.0.1.UPF: wavefunction(s)  6S 6P 5D renormalized

     Subspace diagonalization in iterative solution of the eigenvalue problem:
     one sub-group per band group will be used
     scalapack distributed-memory algorithm (size of sub-group:  4*  4 procs)

 
     Parallelization info
     --------------------
     sticks:   dense  smooth     PW     G-vecs:    dense   smooth      PW
     Min          41      18      5                11487     3460     563
     Max          42      19      6                11527     3505     606
     Sum        1313     593    177               368373   111379   18691
 


     bravais-lattice index     =            0
     lattice parameter (alat)  =       6.4153  a.u.
     unit-cell volume          =    2724.7774 (a.u.)^3
     number of atoms/cell      =           24
     number of atomic types    =            3
     number of electrons       =       296.00
     number of Kohn-Sham states=          178
     kinetic-energy cutoff     =      45.0000  Ry
     charge density cutoff     =     400.0000  Ry
     convergence threshold     =      1.0E-06
     mixing beta               =       0.1000
     number of iterations used =            8  plain     mixing
     Exchange-correlation      = SLA PW PBX PBC ( 1  4  3  4 0 0)

     celldm(1)=   6.415315  celldm(2)=   0.000000  celldm(3)=   0.000000
     celldm(4)=   0.000000  celldm(5)=   0.000000  celldm(6)=   0.000000

     crystal axes: (cart. coord. in units of alat)
               a(1) = (   1.000000   0.000000   0.000000 )  
               a(2) = (   0.000000   1.000000   0.000000 )  
               a(3) = (   0.000000   0.000000  10.319937 )  

     reciprocal axes: (cart. coord. in units 2 pi/alat)
               b(1) = (  1.000000  0.000000  0.000000 )  
               b(2) = (  0.000000  1.000000  0.000000 )  
               b(3) = (  0.000000  0.000000  0.096900 )  


     PseudoPot. # 1 for Mn read from file:
     ./pseudo/Mn.pbe-spn-kjpaw_psl.0.3.1.UPF
     MD5 check sum: 7b43a3fb0e93e198b8dd8488d8cf503e
     Pseudo is Projector augmented-wave + core cor, Zval = 15.0
     Generated using "atomic" code by A. Dal Corso v.5.0.99 svn rev. 10869
     Shape of augmentation charge: PSQ
     Using radial grid of 1187 points,  6 beta functions with: 
                l(1) =   0
                l(2) =   0
                l(3) =   1
                l(4) =   1
                l(5) =   2
                l(6) =   2
     Q(r) pseudized with 0 coefficients 


     PseudoPot. # 2 for Mn read from file:
     ./pseudo/Mn.pbe-spn-kjpaw_psl.0.3.1.UPF
     MD5 check sum: 7b43a3fb0e93e198b8dd8488d8cf503e
     Pseudo is Projector augmented-wave + core cor, Zval = 15.0
     Generated using "atomic" code by A. Dal Corso v.5.0.99 svn rev. 10869
     Shape of augmentation charge: PSQ
     Using radial grid of 1187 points,  6 beta functions with: 
                l(1) =   0
                l(2) =   0
                l(3) =   1
                l(4) =   1
                l(5) =   2
                l(6) =   2
     Q(r) pseudized with 0 coefficients 


     PseudoPot. # 3 for Au read from file:
     ./pseudo/Au.pbe-dn-kjpaw_psl.0.1.UPF
     MD5 check sum: be11e2e8e535ebe2b3ccfb4f88f554cb
     Pseudo is Projector augmented-wave + core cor, Zval = 11.0
     Generated using "atomic" code by A. Dal Corso v.5.0.2 svn rev. 9415
     Shape of augmentation charge: PSQ
     Using radial grid of 1279 points,  6 beta functions with: 
                l(1) =   0
                l(2) =   0
                l(3) =   1
                l(4) =   1
                l(5) =   2
                l(6) =   2
     Q(r) pseudized with 0 coefficients 


     atomic species   valence    mass     pseudopotential
        Mn1           15.00    54.93800     Mn( 1.00)
        Mn2           15.00    54.93800     Mn( 1.00)
        Au            11.00   196.96600     Au( 1.00)

     Starting magnetic structure 
     atomic species   magnetization
        Mn1          0.800
        Mn2         -0.800
        Au           0.000


     Full LDA+U calculation (l_max = 2) with parameters (eV):
     U(  1) =   3.1200   J(  1) =   0.7000   B(  1) =   0.0803
     U(  2) =   3.1200   J(  2) =   0.7000   B(  2) =   0.0803



     16 Sym. Ops., with inversion, found ( 8 have fractional translation)



   Cartesian axes

     site n.     atom                  positions (alat units)
         1           Mn1 tau(   1) = (   0.0000000   0.0000000   0.0000000  )
         2           Mn1 tau(   2) = (   0.5000000   0.5000000   1.2899921  )
         3           Mn1 tau(   3) = (   0.0000000   0.0000000   2.5799843  )
         4           Mn2 tau(   4) = (   0.5000000   0.5000000   3.8699764  )
         5           Mn2 tau(   5) = (   0.0000000   0.0000000   5.1599686  )
         6           Mn1 tau(   6) = (   0.5000000   0.5000000   6.4499607  )
         7           Mn2 tau(   7) = (   0.0000000   0.0000000   7.7399528  )
         8           Mn2 tau(   8) = (   0.5000000   0.5000000   9.0299450  )
         9           Au  tau(   9) = (   0.5000000   0.5000000   0.4127975  )
        10           Au  tau(  10) = (   0.0000000   0.0000000   0.8771947  )
        11           Au  tau(  11) = (   0.0000000   0.0000000   1.7027896  )
        12           Au  tau(  12) = (   0.5000000   0.5000000   2.1671868  )
        13           Au  tau(  13) = (   0.5000000   0.5000000   2.9927818  )
        14           Au  tau(  14) = (   0.0000000   0.0000000   3.4571789  )
        15           Au  tau(  15) = (   0.0000000   0.0000000   4.2827739  )
        16           Au  tau(  16) = (   0.5000000   0.5000000   4.7471711  )
        17           Au  tau(  17) = (   0.5000000   0.5000000   5.5727660  )
        18           Au  tau(  18) = (   0.0000000   0.0000000   6.0371632  )
        19           Au  tau(  19) = (   0.0000000   0.0000000   6.8627582  )
        20           Au  tau(  20) = (   0.5000000   0.5000000   7.3271553  )
        21           Au  tau(  21) = (   0.5000000   0.5000000   8.1527503  )
        22           Au  tau(  22) = (   0.0000000   0.0000000   8.6171475  )
        23           Au  tau(  23) = (   0.0000000   0.0000000   9.4427424  )
        24           Au  tau(  24) = (   0.5000000   0.5000000   9.9071396  )

     number of k points=    30 (tetrahedron method)
                       cart. coord. in units 2pi/alat
        k(    1) = (   0.0000000   0.0000000   0.0000000), wk =   0.0078125
        k(    2) = (   0.0000000   0.0000000  -0.0484499), wk =   0.0078125
        k(    3) = (   0.0000000   0.1250000   0.0000000), wk =   0.0312500
        k(    4) = (   0.0000000   0.1250000  -0.0484499), wk =   0.0312500
        k(    5) = (   0.0000000   0.2500000   0.0000000), wk =   0.0312500
        k(    6) = (   0.0000000   0.2500000  -0.0484499), wk =   0.0312500
        k(    7) = (   0.0000000   0.3750000   0.0000000), wk =   0.0312500
        k(    8) = (   0.0000000   0.3750000  -0.0484499), wk =   0.0312500
        k(    9) = (   0.0000000  -0.5000000   0.0000000), wk =   0.0156250
        k(   10) = (   0.0000000  -0.5000000  -0.0484499), wk =   0.0156250
        k(   11) = (   0.1250000   0.1250000   0.0000000), wk =   0.0312500
        k(   12) = (   0.1250000   0.1250000  -0.0484499), wk =   0.0312500
        k(   13) = (   0.1250000   0.2500000   0.0000000), wk =   0.0625000
        k(   14) = (   0.1250000   0.2500000  -0.0484499), wk =   0.0625000
        k(   15) = (   0.1250000   0.3750000   0.0000000), wk =   0.0625000
        k(   16) = (   0.1250000   0.3750000  -0.0484499), wk =   0.0625000
        k(   17) = (   0.1250000  -0.5000000   0.0000000), wk =   0.0312500
        k(   18) = (   0.1250000  -0.5000000  -0.0484499), wk =   0.0312500
        k(   19) = (   0.2500000   0.2500000   0.0000000), wk =   0.0312500
        k(   20) = (   0.2500000   0.2500000  -0.0484499), wk =   0.0312500
        k(   21) = (   0.2500000   0.3750000   0.0000000), wk =   0.0625000
        k(   22) = (   0.2500000   0.3750000  -0.0484499), wk =   0.0625000
        k(   23) = (   0.2500000  -0.5000000   0.0000000), wk =   0.0312500
        k(   24) = (   0.2500000  -0.5000000  -0.0484499), wk =   0.0312500
        k(   25) = (   0.3750000   0.3750000   0.0000000), wk =   0.0312500
        k(   26) = (   0.3750000   0.3750000  -0.0484499), wk =   0.0312500
        k(   27) = (   0.3750000  -0.5000000   0.0000000), wk =   0.0312500
        k(   28) = (   0.3750000  -0.5000000  -0.0484499), wk =   0.0312500
        k(   29) = (  -0.5000000  -0.5000000   0.0000000), wk =   0.0078125
        k(   30) = (  -0.5000000  -0.5000000  -0.0484499), wk =   0.0078125

     Dense  grid:   368373 G-vectors     FFT dimensions: (  45,  45, 432)

     Smooth grid:   111379 G-vectors     FFT dimensions: (  27,  27, 288)

     Estimated max dynamical RAM per process >     143.50 MB

     Estimated total dynamical RAM >       4.48 GB
     Generating pointlists ...
     new r_m :   0.3377 (alat units)  2.1668 (a.u.) for type    1
     new r_m :   0.3377 (alat units)  2.1668 (a.u.) for type    2
     new r_m :   0.3377 (alat units)  2.1668 (a.u.) for type    3

     Check: negative/imaginary core charge=   -0.000006    0.000000

     Initial potential from superposition of free atoms

     starting charge  295.99426, renormalised to  296.00000
     Number of +U iterations with fixed ns =  0
     Starting occupations:
 --- enter write_ns ---
 LDA+U parameters:
U(  1) =   3.1200   J(  1) =   0.7000   B(  1) =   0.0803
U(  2) =   3.1200   J(  2) =   0.7000   B(  2) =   0.0803
atom    1   Tr[ns(na)] (up, down, total) =   5.00000  0.00000  5.00000
   spin  1
    eigenvalues: 
  1.000  1.000  1.000  1.000  1.000
    eigenvectors:
  1.000  0.000  0.000  0.000  0.000
  0.000  1.000  0.000  0.000  0.000
  0.000  0.000  1.000  0.000  0.000
  0.000  0.000  0.000  1.000  0.000
  0.000  0.000  0.000  0.000  1.000
    occupations:
  1.000  0.000  0.000  0.000  0.000
  0.000  1.000  0.000  0.000  0.000
  0.000  0.000  1.000  0.000  0.000
  0.000  0.000  0.000  1.000  0.000
  0.000  0.000  0.000  0.000  1.000
   spin  2
    eigenvalues: 
  0.000  0.000  0.000  0.000  0.000
    eigenvectors:
  1.000  0.000  0.000  0.000  0.000
  0.000  1.000  0.000  0.000  0.000
  0.000  0.000  1.000  0.000  0.000
  0.000  0.000  0.000  1.000  0.000
  0.000  0.000  0.000  0.000  1.000
    occupations:
  0.000  0.000  0.000  0.000  0.000
  0.000  0.000  0.000  0.000  0.000
  0.000  0.000  0.000  0.000  0.000
  0.000  0.000  0.000  0.000  0.000
  0.000  0.000  0.000  0.000  0.000
atomic mag. moment =     5.000000
atom    2   Tr[ns(na)] (up, down, total) =   5.00000  0.00000  5.00000
   spin  1
    eigenvalues: 
  1.000  1.000  1.000  1.000  1.000
    eigenvectors:
  1.000  0.000  0.000  0.000  0.000
  0.000  1.000  0.000  0.000  0.000
  0.000  0.000  1.000  0.000  0.000
  0.000  0.000  0.000  1.000  0.000
  0.000  0.000  0.000  0.000  1.000
    occupations:
  1.000  0.000  0.000  0.000  0.000
  0.000  1.000  0.000  0.000  0.000
  0.000  0.000  1.000  0.000  0.000
  0.000  0.000  0.000  1.000  0.000
  0.000  0.000  0.000  0.000  1.000
   spin  2
    eigenvalues: 
  0.000  0.000  0.000  0.000  0.000
    eigenvectors:
  1.000  0.000  0.000  0.000  0.000
  0.000  1.000  0.000  0.000  0.000
  0.000  0.000  1.000  0.000  0.000
  0.000  0.000  0.000  1.000  0.000
  0.000  0.000  0.000  0.000  1.000
    occupations:
  0.000  0.000  0.000  0.000  0.000
  0.000  0.000  0.000  0.000  0.000
  0.000  0.000  0.000  0.000  0.000
  0.000  0.000  0.000  0.000  0.000
  0.000  0.000  0.000  0.000  0.000
atomic mag. moment =     5.000000
atom    3   Tr[ns(na)] (up, down, total) =   5.00000  0.00000  5.00000
   spin  1
    eigenvalues: 
  1.000  1.000  1.000  1.000  1.000
    eigenvectors:
  1.000  0.000  0.000  0.000  0.000
  0.000  1.000  0.000  0.000  0.000
  0.000  0.000  1.000  0.000  0.000
  0.000  0.000  0.000  1.000  0.000
  0.000  0.000  0.000  0.000  1.000
    occupations:
  1.000  0.000  0.000  0.000  0.000
  0.000  1.000  0.000  0.000  0.000
  0.000  0.000  1.000  0.000  0.000
  0.000  0.000  0.000  1.000  0.000
  0.000  0.000  0.000  0.000  1.000
   spin  2
    eigenvalues: 
  0.000  0.000  0.000  0.000  0.000
    eigenvectors:
  1.000  0.000  0.000  0.000  0.000
  0.000  1.000  0.000  0.000  0.000
  0.000  0.000  1.000  0.000  0.000
  0.000  0.000  0.000  1.000  0.000
  0.000  0.000  0.000  0.000  1.000
    occupations:
  0.000  0.000  0.000  0.000  0.000
  0.000  0.000  0.000  0.000  0.000
  0.000  0.000  0.000  0.000  0.000
  0.000  0.000  0.000  0.000  0.000
  0.000  0.000  0.000  0.000  0.000
atomic mag. moment =     5.000000
atom    4   Tr[ns(na)] (up, down, total) =   0.00000  5.00000  5.00000
   spin  1
    eigenvalues: 
  0.000  0.000  0.000  0.000  0.000
    eigenvectors:
  1.000  0.000  0.000  0.000  0.000
  0.000  1.000  0.000  0.000  0.000
  0.000  0.000  1.000  0.000  0.000
  0.000  0.000  0.000  1.000  0.000
  0.000  0.000  0.000  0.000  1.000
    occupations:
  0.000  0.000  0.000  0.000  0.000
  0.000  0.000  0.000  0.000  0.000
  0.000  0.000  0.000  0.000  0.000
  0.000  0.000  0.000  0.000  0.000
  0.000  0.000  0.000  0.000  0.000
   spin  2
    eigenvalues: 
  1.000  1.000  1.000  1.000  1.000
    eigenvectors:
  1.000  0.000  0.000  0.000  0.000
  0.000  1.000  0.000  0.000  0.000
  0.000  0.000  1.000  0.000  0.000
  0.000  0.000  0.000  1.000  0.000
  0.000  0.000  0.000  0.000  1.000
    occupations:
  1.000  0.000  0.000  0.000  0.000
  0.000  1.000  0.000  0.000  0.000
  0.000  0.000  1.000  0.000  0.000
  0.000  0.000  0.000  1.000  0.000
  0.000  0.000  0.000  0.000  1.000
atomic mag. moment =    -5.000000
atom    5   Tr[ns(na)] (up, down, total) =   0.00000  5.00000  5.00000
   spin  1
    eigenvalues: 
  0.000  0.000  0.000  0.000  0.000
    eigenvectors:
  1.000  0.000  0.000  0.000  0.000
  0.000  1.000  0.000  0.000  0.000
  0.000  0.000  1.000  0.000  0.000
  0.000  0.000  0.000  1.000  0.000
  0.000  0.000  0.000  0.000  1.000
    occupations:
  0.000  0.000  0.000  0.000  0.000
  0.000  0.000  0.000  0.000  0.000
  0.000  0.000  0.000  0.000  0.000
  0.000  0.000  0.000  0.000  0.000
  0.000  0.000  0.000  0.000  0.000
   spin  2
    eigenvalues: 
  1.000  1.000  1.000  1.000  1.000
    eigenvectors:
  1.000  0.000  0.000  0.000  0.000
  0.000  1.000  0.000  0.000  0.000
  0.000  0.000  1.000  0.000  0.000
  0.000  0.000  0.000  1.000  0.000
  0.000  0.000  0.000  0.000  1.000
    occupations:
  1.000  0.000  0.000  0.000  0.000
  0.000  1.000  0.000  0.000  0.000
  0.000  0.000  1.000  0.000  0.000
  0.000  0.000  0.000  1.000  0.000
  0.000  0.000  0.000  0.000  1.000
atomic mag. moment =    -5.000000
atom    6   Tr[ns(na)] (up, down, total) =   5.00000  0.00000  5.00000
   spin  1
    eigenvalues: 
  1.000  1.000  1.000  1.000  1.000
    eigenvectors:
  1.000  0.000  0.000  0.000  0.000
  0.000  1.000  0.000  0.000  0.000
  0.000  0.000  1.000  0.000  0.000
  0.000  0.000  0.000  1.000  0.000
  0.000  0.000  0.000  0.000  1.000
    occupations:
  1.000  0.000  0.000  0.000  0.000
  0.000  1.000  0.000  0.000  0.000
  0.000  0.000  1.000  0.000  0.000
  0.000  0.000  0.000  1.000  0.000
  0.000  0.000  0.000  0.000  1.000
   spin  2
    eigenvalues: 
  0.000  0.000  0.000  0.000  0.000
    eigenvectors:
  1.000  0.000  0.000  0.000  0.000
  0.000  1.000  0.000  0.000  0.000
  0.000  0.000  1.000  0.000  0.000
  0.000  0.000  0.000  1.000  0.000
  0.000  0.000  0.000  0.000  1.000
    occupations:
  0.000  0.000  0.000  0.000  0.000
  0.000  0.000  0.000  0.000  0.000
  0.000  0.000  0.000  0.000  0.000
  0.000  0.000  0.000  0.000  0.000
  0.000  0.000  0.000  0.000  0.000
atomic mag. moment =     5.000000
atom    7   Tr[ns(na)] (up, down, total) =   0.00000  5.00000  5.00000
   spin  1
    eigenvalues: 
  0.000  0.000  0.000  0.000  0.000
    eigenvectors:
  1.000  0.000  0.000  0.000  0.000
  0.000  1.000  0.000  0.000  0.000
  0.000  0.000  1.000  0.000  0.000
  0.000  0.000  0.000  1.000  0.000
  0.000  0.000  0.000  0.000  1.000
    occupations:
  0.000  0.000  0.000  0.000  0.000
  0.000  0.000  0.000  0.000  0.000
  0.000  0.000  0.000  0.000  0.000
  0.000  0.000  0.000  0.000  0.000
  0.000  0.000  0.000  0.000  0.000
   spin  2
    eigenvalues: 
  1.000  1.000  1.000  1.000  1.000
    eigenvectors:
  1.000  0.000  0.000  0.000  0.000
  0.000  1.000  0.000  0.000  0.000
  0.000  0.000  1.000  0.000  0.000
  0.000  0.000  0.000  1.000  0.000
  0.000  0.000  0.000  0.000  1.000
    occupations:
  1.000  0.000  0.000  0.000  0.000
  0.000  1.000  0.000  0.000  0.000
  0.000  0.000  1.000  0.000  0.000
  0.000  0.000  0.000  1.000  0.000
  0.000  0.000  0.000  0.000  1.000
atomic mag. moment =    -5.000000
atom    8   Tr[ns(na)] (up, down, total) =   0.00000  5.00000  5.00000
   spin  1
    eigenvalues: 
  0.000  0.000  0.000  0.000  0.000
    eigenvectors:
  1.000  0.000  0.000  0.000  0.000
  0.000  1.000  0.000  0.000  0.000
  0.000  0.000  1.000  0.000  0.000
  0.000  0.000  0.000  1.000  0.000
  0.000  0.000  0.000  0.000  1.000
    occupations:
  0.000  0.000  0.000  0.000  0.000
  0.000  0.000  0.000  0.000  0.000
  0.000  0.000  0.000  0.000  0.000
  0.000  0.000  0.000  0.000  0.000
  0.000  0.000  0.000  0.000  0.000
   spin  2
    eigenvalues: 
  1.000  1.000  1.000  1.000  1.000
    eigenvectors:
  1.000  0.000  0.000  0.000  0.000
  0.000  1.000  0.000  0.000  0.000
  0.000  0.000  1.000  0.000  0.000
  0.000  0.000  0.000  1.000  0.000
  0.000  0.000  0.000  0.000  1.000
    occupations:
  1.000  0.000  0.000  0.000  0.000
  0.000  1.000  0.000  0.000  0.000
  0.000  0.000  1.000  0.000  0.000
  0.000  0.000  0.000  1.000  0.000
  0.000  0.000  0.000  0.000  1.000
atomic mag. moment =    -5.000000
N of occupied +U levels =   40.000000
 --- exit write_ns ---
 Atomic wfc used for LDA+U Projector are NOT orthogonalized
     Starting wfcs are  224 randomized atomic wfcs
     Checking if some PAW data can be deallocated... 

     total cpu time spent up to now is       17.0 secs

     Self-consistent Calculation

     iteration #  1     ecut=    45.00 Ry     beta= 0.10
     Davidson diagonalization with overlap
     ethr =  1.00E-02,  avg # of iterations =  4.4
 --- enter write_ns ---
 LDA+U parameters:
U(  1) =   3.1200   J(  1) =   0.7000   B(  1) =   0.0803
U(  2) =   3.1200   J(  2) =   0.7000   B(  2) =   0.0803
atom    1   Tr[ns(na)] (up, down, total) =   5.01748  0.40713  5.42461
   spin  1
    eigenvalues: 
  1.003  1.003  1.003  1.004  1.004
    eigenvectors:
  0.000  0.000  0.000  1.000  0.000
  0.000  0.118  0.882  0.000  0.000
  0.000  0.882  0.118  0.000  0.000
  0.000  0.000  0.000  0.000  1.000
  1.000  0.000  0.000  0.000  0.000
    occupations:
  1.004 -0.000 -0.000  0.000  0.000
 -0.000  1.003 -0.000  0.000  0.000
 -0.000 -0.000  1.003  0.000  0.000
  0.000  0.000  0.000  1.004 -0.000
  0.000  0.000  0.000 -0.000  1.003
   spin  2
    eigenvalues: 
  0.053  0.073  0.081  0.081  0.120
    eigenvectors:
  0.000  1.000  0.000  0.000  0.000
  0.000  0.000  0.134  0.866  0.000
  0.000  0.000  0.866  0.134  0.000
  1.000  0.000  0.000  0.000  0.000
  0.000  0.000  0.000  0.000  1.000
    occupations:
  0.073 -0.000 -0.000  0.000  0.000
 -0.000  0.081 -0.000  0.000  0.000
 -0.000 -0.000  0.081  0.000  0.000
  0.000  0.000  0.000  0.053 -0.000
  0.000  0.000  0.000 -0.000  0.120
atomic mag. moment =     4.610345
atom    2   Tr[ns(na)] (up, down, total) =   5.01770  0.40138  5.41908
   spin  1
    eigenvalues: 
  1.003  1.003  1.003  1.004  1.004
    eigenvectors:
  0.000  0.000  0.000  1.000  0.000
  0.000  0.107  0.893  0.000  0.000
  0.000  0.893  0.107  0.000  0.000
  0.000  0.000  0.000  0.000  1.000
  1.000  0.000  0.000  0.000  0.000
    occupations:
  1.004 -0.000 -0.000  0.000  0.000
 -0.000  1.003 -0.000  0.000  0.000
 -0.000 -0.000  1.003  0.000  0.000
  0.000  0.000  0.000  1.004 -0.000
  0.000  0.000  0.000 -0.000  1.003
   spin  2
    eigenvalues: 
  0.053  0.076  0.081  0.081  0.110
    eigenvectors:
  0.000  1.000  0.000  0.000  0.000
  0.000  0.000  0.121  0.879  0.000
  0.000  0.000  0.879  0.121  0.000
  1.000  0.000  0.000  0.000  0.000
  0.000  0.000  0.000  0.000  1.000
    occupations:
  0.076 -0.000 -0.000  0.000  0.000
 -0.000  0.081 -0.000  0.000  0.000
 -0.000 -0.000  0.081  0.000  0.000
  0.000  0.000  0.000  0.053 -0.000
  0.000  0.000  0.000 -0.000  0.110
atomic mag. moment =     4.616328
atom    3   Tr[ns(na)] (up, down, total) =   5.01748  0.40713  5.42461
   spin  1
    eigenvalues: 
  1.003  1.003  1.003  1.004  1.004
    eigenvectors:
  0.000  0.000  0.000  1.000  0.000
  0.000  0.102  0.898  0.000  0.000
  0.000  0.898  0.102  0.000  0.000
  0.000  0.000  0.000  0.000  1.000
  1.000  0.000  0.000  0.000  0.000
    occupations:
  1.004 -0.000 -0.000  0.000  0.000
 -0.000  1.003 -0.000  0.000  0.000
 -0.000 -0.000  1.003  0.000  0.000
  0.000  0.000  0.000  1.004 -0.000
  0.000  0.000  0.000 -0.000  1.003
   spin  2
    eigenvalues: 
  0.053  0.073  0.081  0.081  0.120
    eigenvectors:
  0.000  1.000  0.000  0.000  0.000
  0.000  0.000  0.157  0.843  0.000
  0.000  0.000  0.843  0.157  0.000
  1.000  0.000  0.000  0.000  0.000
  0.000  0.000  0.000  0.000  1.000
    occupations:
  0.073 -0.000 -0.000  0.000  0.000
 -0.000  0.081 -0.000  0.000  0.000
 -0.000 -0.000  0.081  0.000  0.000
  0.000  0.000  0.000  0.053 -0.000
  0.000  0.000  0.000 -0.000  0.120
atomic mag. moment =     4.610345
atom    4   Tr[ns(na)] (up, down, total) =   0.41240  5.01738  5.42978
   spin  1
    eigenvalues: 
  0.053  0.075  0.082  0.082  0.121
    eigenvectors:
  0.000  1.000  0.000  0.000  0.000
  0.000  0.000  0.121  0.879  0.000
  0.000  0.000  0.879  0.121  0.000
  1.000  0.000  0.000  0.000  0.000
  0.000  0.000  0.000  0.000  1.000
    occupations:
  0.075 -0.000 -0.000  0.000  0.000
 -0.000  0.082 -0.000  0.000  0.000
 -0.000 -0.000  0.082  0.000  0.000
  0.000  0.000  0.000  0.053 -0.000
  0.000  0.000  0.000 -0.000  0.121
   spin  2
    eigenvalues: 
  1.003  1.003  1.003  1.004  1.004
    eigenvectors:
  0.000  0.000  0.000  1.000  0.000
  0.000  0.132  0.868  0.000  0.000
  0.000  0.868  0.132  0.000  0.000
  0.000  0.000  0.000  0.000  1.000
  1.000  0.000  0.000  0.000  0.000
    occupations:
  1.004 -0.000 -0.000  0.000  0.000
 -0.000  1.003 -0.000  0.000  0.000
 -0.000 -0.000  1.003  0.000  0.000
  0.000  0.000  0.000  1.004 -0.000
  0.000  0.000  0.000 -0.000  1.003
atomic mag. moment =    -4.604976
atom    5   Tr[ns(na)] (up, down, total) =   0.41046  5.01749  5.42795
   spin  1
    eigenvalues: 
  0.053  0.073  0.082  0.082  0.121
    eigenvectors:
  0.000  1.000  0.000  0.000  0.000
  0.000  0.000  0.136  0.864  0.000
  0.000  0.000  0.864  0.136  0.000
  1.000  0.000  0.000  0.000  0.000
  0.000  0.000  0.000  0.000  1.000
    occupations:
  0.073 -0.000 -0.000  0.000  0.000
 -0.000  0.082 -0.000  0.000  0.000
 -0.000 -0.000  0.082  0.000  0.000
  0.000  0.000  0.000  0.053 -0.000
  0.000  0.000  0.000 -0.000  0.121
   spin  2
    eigenvalues: 
  1.003  1.003  1.003  1.004  1.004
    eigenvectors:
  0.000  0.000  0.000  1.000  0.000
  0.000  0.096  0.904  0.000  0.000
  0.000  0.904  0.096  0.000  0.000
  0.000  0.000  0.000  0.000  1.000
  1.000  0.000  0.000  0.000  0.000
    occupations:
  1.004 -0.000 -0.000  0.000  0.000
 -0.000  1.003 -0.000  0.000  0.000
 -0.000 -0.000  1.003  0.000  0.000
  0.000  0.000  0.000  1.004 -0.000
  0.000  0.000  0.000 -0.000  1.003
atomic mag. moment =    -4.607027
atom    6   Tr[ns(na)] (up, down, total) =   5.01746  0.41369  5.43115
   spin  1
    eigenvalues: 
  1.003  1.003  1.003  1.004  1.004
    eigenvectors:
  0.000  0.000  0.000  1.000  0.000
  0.000  0.114  0.886  0.000  0.000
  0.000  0.886  0.114  0.000  0.000
  0.000  0.000  0.000  0.000  1.000
  1.000  0.000  0.000  0.000  0.000
    occupations:
  1.004 -0.000 -0.000  0.000  0.000
 -0.000  1.003 -0.000  0.000  0.000
 -0.000 -0.000  1.003  0.000  0.000
  0.000  0.000  0.000  1.004 -0.000
  0.000  0.000  0.000 -0.000  1.003
   spin  2
    eigenvalues: 
  0.053  0.075  0.080  0.080  0.125
    eigenvectors:
  0.000  1.000  0.000  0.000  0.000
  0.000  0.000  0.130  0.870  0.000
  0.000  0.000  0.870  0.130  0.000
  1.000  0.000  0.000  0.000  0.000
  0.000  0.000  0.000  0.000  1.000
    occupations:
  0.075 -0.000 -0.000  0.000  0.000
 -0.000  0.080 -0.000  0.000  0.000
 -0.000 -0.000  0.080  0.000  0.000
  0.000  0.000  0.000  0.053 -0.000
  0.000  0.000  0.000 -0.000  0.125
atomic mag. moment =     4.603768
atom    7   Tr[ns(na)] (up, down, total) =   0.41046  5.01749  5.42795
   spin  1
    eigenvalues: 
  0.053  0.073  0.082  0.082  0.121
    eigenvectors:
  0.000  1.000  0.000  0.000  0.000
  0.000  0.000  0.120  0.880  0.000
  0.000  0.000  0.880  0.120  0.000
  1.000  0.000  0.000  0.000  0.000
  0.000  0.000  0.000  0.000  1.000
    occupations:
  0.073 -0.000 -0.000  0.000  0.000
 -0.000  0.082 -0.000  0.000  0.000
 -0.000 -0.000  0.082  0.000  0.000
  0.000  0.000  0.000  0.053 -0.000
  0.000  0.000  0.000 -0.000  0.121
   spin  2
    eigenvalues: 
  1.003  1.003  1.003  1.004  1.004
    eigenvectors:
  0.000  0.000  0.000  1.000  0.000
  0.000  0.120  0.880  0.000  0.000
  0.000  0.880  0.120  0.000  0.000
  0.000  0.000  0.000  0.000  1.000
  1.000  0.000  0.000  0.000  0.000
    occupations:
  1.004 -0.000 -0.000  0.000  0.000
 -0.000  1.003 -0.000  0.000  0.000
 -0.000 -0.000  1.003  0.000  0.000
  0.000  0.000  0.000  1.004 -0.000
  0.000  0.000  0.000 -0.000  1.003
atomic mag. moment =    -4.607027
atom    8   Tr[ns(na)] (up, down, total) =   0.41240  5.01738  5.42978
   spin  1
    eigenvalues: 
  0.053  0.075  0.082  0.082  0.121
    eigenvectors:
  0.000  1.000  0.000  0.000  0.000
  0.000  0.000  0.121  0.879  0.000
  0.000  0.000  0.879  0.121  0.000
  1.000  0.000  0.000  0.000  0.000
  0.000  0.000  0.000  0.000  1.000
    occupations:
  0.075 -0.000 -0.000  0.000  0.000
 -0.000  0.082 -0.000  0.000  0.000
 -0.000 -0.000  0.082  0.000  0.000
  0.000  0.000  0.000  0.053 -0.000
  0.000  0.000  0.000 -0.000  0.121
   spin  2
    eigenvalues: 
  1.003  1.003  1.003  1.004  1.004
    eigenvectors:
  0.000  0.000  0.000  1.000  0.000
  0.000  0.169  0.831  0.000  0.000
  0.000  0.831  0.169  0.000  0.000
  0.000  0.000  0.000  0.000  1.000
  1.000  0.000  0.000  0.000  0.000
    occupations:
  1.004 -0.000 -0.000  0.000  0.000
 -0.000  1.003 -0.000  0.000  0.000
 -0.000 -0.000  1.003  0.000  0.000
  0.000  0.000  0.000  1.004 -0.000
  0.000  0.000  0.000 -0.000  1.003
atomic mag. moment =    -4.604976
N of occupied +U levels =   43.414904
 --- exit write_ns ---

     total cpu time spent up to now is       62.4 secs

     total energy              =  -14687.27654522 Ry
     Harris-Foulkes estimate   =  -14685.81627591 Ry
     estimated scf accuracy    <      11.56354087 Ry

     total magnetization       =     0.09 Bohr mag/cell
     absolute magnetization    =    41.52 Bohr mag/cell

     iteration #  2     ecut=    45.00 Ry     beta= 0.10
     Davidson diagonalization with overlap
     ethr =  3.91E-03,  avg # of iterations =  1.0

     total cpu time spent up to now is       87.1 secs

     total energy              =  -14690.12477896 Ry
     Harris-Foulkes estimate   =  -14687.35108544 Ry
     estimated scf accuracy    <       9.53641958 Ry

     total magnetization       =     0.01 Bohr mag/cell
     absolute magnetization    =    41.19 Bohr mag/cell

     iteration #  3     ecut=    45.00 Ry     beta= 0.10
     Davidson diagonalization with overlap
     ethr =  3.22E-03,  avg # of iterations =  4.8

     total cpu time spent up to now is      129.9 secs

     total energy              =  -14690.54653570 Ry
     Harris-Foulkes estimate   =  -14692.11552834 Ry
     estimated scf accuracy    <     268.86763109 Ry

     total magnetization       =    -1.43 Bohr mag/cell
     absolute magnetization    =    39.84 Bohr mag/cell

     iteration #  4     ecut=    45.00 Ry     beta= 0.10
     Davidson diagonalization with overlap
     ethr =  3.22E-03,  avg # of iterations =  4.8

     total cpu time spent up to now is      173.4 secs

     total energy              =  -14694.90847886 Ry
     Harris-Foulkes estimate   =  -14694.20620377 Ry
     estimated scf accuracy    <       4.07081310 Ry

     total magnetization       =    -0.13 Bohr mag/cell
     absolute magnetization    =    38.45 Bohr mag/cell

     iteration #  5     ecut=    45.00 Ry     beta= 0.10
     Davidson diagonalization with overlap
     ethr =  1.38E-03,  avg # of iterations =  3.8

     total cpu time spent up to now is      209.9 secs

     total energy              =  -14692.73197100 Ry
     Harris-Foulkes estimate   =  -14695.00850018 Ry
     estimated scf accuracy    <       7.19961538 Ry

     total magnetization       =    -0.21 Bohr mag/cell
     absolute magnetization    =    37.73 Bohr mag/cell

     iteration #  6     ecut=    45.00 Ry     beta= 0.10
     Davidson diagonalization with overlap
     ethr =  1.38E-03,  avg # of iterations =  4.8

     total cpu time spent up to now is      270.2 secs

     total energy              =  -14693.89288792 Ry
     Harris-Foulkes estimate   =  -14693.86895626 Ry
     estimated scf accuracy    <       1.63394980 Ry

     total magnetization       =     0.19 Bohr mag/cell
     absolute magnetization    =    38.06 Bohr mag/cell

     iteration #  7     ecut=    45.00 Ry     beta= 0.10
     Davidson diagonalization with overlap
     ethr =  5.52E-04,  avg # of iterations =  1.5

     total cpu time spent up to now is      296.6 secs

     total energy              =  -14693.98284574 Ry
     Harris-Foulkes estimate   =  -14693.95318654 Ry
     estimated scf accuracy    <       0.16592314 Ry

     total magnetization       =    -0.19 Bohr mag/cell
     absolute magnetization    =    37.84 Bohr mag/cell

     iteration #  8     ecut=    45.00 Ry     beta= 0.10
     Davidson diagonalization with overlap
     ethr =  5.61E-05,  avg # of iterations =  4.3

     total cpu time spent up to now is      336.7 secs

     total energy              =  -14693.99572048 Ry
     Harris-Foulkes estimate   =  -14693.99419543 Ry
     estimated scf accuracy    <       0.05485337 Ry

     total magnetization       =    -0.19 Bohr mag/cell
     absolute magnetization    =    37.57 Bohr mag/cell

     iteration #  9     ecut=    45.00 Ry     beta= 0.10
     Davidson diagonalization with overlap
     ethr =  1.85E-05,  avg # of iterations =  4.3

     total cpu time spent up to now is      394.8 secs

     total energy              =  -14694.00198163 Ry
     Harris-Foulkes estimate   =  -14694.01824580 Ry
     estimated scf accuracy    <       0.19858104 Ry

     total magnetization       =    -0.16 Bohr mag/cell
     absolute magnetization    =    37.19 Bohr mag/cell

     iteration # 10     ecut=    45.00 Ry     beta= 0.10
     Davidson diagonalization with overlap
     ethr =  1.85E-05,  avg # of iterations =  2.4

     total cpu time spent up to now is      425.3 secs

     total energy              =  -14693.99861677 Ry
     Harris-Foulkes estimate   =  -14694.00621176 Ry
     estimated scf accuracy    <       0.06811006 Ry

     total magnetization       =    -0.20 Bohr mag/cell
     absolute magnetization    =    37.22 Bohr mag/cell

     iteration # 11     ecut=    45.00 Ry     beta= 0.10
     Davidson diagonalization with overlap
     ethr =  1.85E-05,  avg # of iterations =  3.2

     total cpu time spent up to now is      461.3 secs

     total energy              =  -14694.00550242 Ry
     Harris-Foulkes estimate   =  -14694.00374929 Ry
     estimated scf accuracy    <       0.00592495 Ry

     total magnetization       =    -0.23 Bohr mag/cell
     absolute magnetization    =    37.36 Bohr mag/cell

     iteration # 12     ecut=    45.00 Ry     beta= 0.10
     Davidson diagonalization with overlap
     ethr =  2.00E-06,  avg # of iterations =  3.5

     total cpu time spent up to now is      501.4 secs

     total energy              =  -14694.00621607 Ry
     Harris-Foulkes estimate   =  -14694.00633477 Ry
     estimated scf accuracy    <       0.00202650 Ry

     total magnetization       =    -0.23 Bohr mag/cell
     absolute magnetization    =    37.28 Bohr mag/cell

     iteration # 13     ecut=    45.00 Ry     beta= 0.10
     Davidson diagonalization with overlap
     ethr =  6.85E-07,  avg # of iterations =  3.2

     total cpu time spent up to now is      543.1 secs

     total energy              =  -14694.00684791 Ry
     Harris-Foulkes estimate   =  -14694.00673860 Ry
     estimated scf accuracy    <       0.00181599 Ry

     total magnetization       =    -0.24 Bohr mag/cell
     absolute magnetization    =    37.28 Bohr mag/cell

     iteration # 14     ecut=    45.00 Ry     beta= 0.10
     Davidson diagonalization with overlap
     ethr =  6.14E-07,  avg # of iterations =  2.1

     total cpu time spent up to now is      574.2 secs

     total energy              =  -14694.00709869 Ry
     Harris-Foulkes estimate   =  -14694.00704828 Ry
     estimated scf accuracy    <       0.00020349 Ry

     total magnetization       =    -0.24 Bohr mag/cell
     absolute magnetization    =    37.27 Bohr mag/cell

     iteration # 15     ecut=    45.00 Ry     beta= 0.10
     Davidson diagonalization with overlap
     ethr =  6.87E-08,  avg # of iterations =  1.9

     total cpu time spent up to now is      602.6 secs

     total energy              =  -14694.00712248 Ry
     Harris-Foulkes estimate   =  -14694.00710250 Ry
     estimated scf accuracy    <       0.00028233 Ry

     total magnetization       =    -0.24 Bohr mag/cell
     absolute magnetization    =    37.26 Bohr mag/cell

     iteration # 16     ecut=    45.00 Ry     beta= 0.10
     Davidson diagonalization with overlap
     ethr =  6.87E-08,  avg # of iterations =  1.0

     total cpu time spent up to now is      627.2 secs

     total energy              =  -14694.00715054 Ry
     Harris-Foulkes estimate   =  -14694.00712276 Ry
     estimated scf accuracy    <       0.00021308 Ry

     total magnetization       =    -0.24 Bohr mag/cell
     absolute magnetization    =    37.27 Bohr mag/cell

     iteration # 17     ecut=    45.00 Ry     beta= 0.10
     Davidson diagonalization with overlap
     ethr =  6.87E-08,  avg # of iterations =  1.3

     total cpu time spent up to now is      653.1 secs

     total energy              =  -14694.00717607 Ry
     Harris-Foulkes estimate   =  -14694.00715241 Ry
     estimated scf accuracy    <       0.00006909 Ry

     total magnetization       =    -0.24 Bohr mag/cell
     absolute magnetization    =    37.26 Bohr mag/cell

     iteration # 18     ecut=    45.00 Ry     beta= 0.10
     Davidson diagonalization with overlap
     ethr =  2.33E-08,  avg # of iterations =  1.6

     total cpu time spent up to now is      680.2 secs

     total energy              =  -14694.00718669 Ry
     Harris-Foulkes estimate   =  -14694.00717152 Ry
     estimated scf accuracy    <       0.00003502 Ry

     total magnetization       =    -0.24 Bohr mag/cell
     absolute magnetization    =    37.26 Bohr mag/cell

     iteration # 19     ecut=    45.00 Ry     beta= 0.10
     Davidson diagonalization with overlap
     ethr =  1.18E-08,  avg # of iterations =  2.1

     total cpu time spent up to now is      709.2 secs

     total energy              =  -14694.00719053 Ry
     Harris-Foulkes estimate   =  -14694.00718295 Ry
     estimated scf accuracy    <       0.00001100 Ry

     total magnetization       =    -0.24 Bohr mag/cell
     absolute magnetization    =    37.26 Bohr mag/cell

     iteration # 20     ecut=    45.00 Ry     beta= 0.10
     Davidson diagonalization with overlap
     ethr =  3.72E-09,  avg # of iterations =  2.5

     total cpu time spent up to now is      742.8 secs

     total energy              =  -14694.00719259 Ry
     Harris-Foulkes estimate   =  -14694.00719007 Ry
     estimated scf accuracy    <       0.00000908 Ry

     total magnetization       =    -0.25 Bohr mag/cell
     absolute magnetization    =    37.26 Bohr mag/cell

     iteration # 21     ecut=    45.00 Ry     beta= 0.10
     Davidson diagonalization with overlap
     ethr =  3.07E-09,  avg # of iterations =  1.0

     total cpu time spent up to now is      767.5 secs

     total energy              =  -14694.00719401 Ry
     Harris-Foulkes estimate   =  -14694.00719144 Ry
     estimated scf accuracy    <       0.00000261 Ry

     total magnetization       =    -0.25 Bohr mag/cell
     absolute magnetization    =    37.26 Bohr mag/cell

     iteration # 22     ecut=    45.00 Ry     beta= 0.10
     Davidson diagonalization with overlap
     ethr =  8.81E-10,  avg # of iterations =  2.4

     total cpu time spent up to now is      798.0 secs

     total energy              =  -14694.00719445 Ry
     Harris-Foulkes estimate   =  -14694.00719287 Ry
     estimated scf accuracy    <       0.00000120 Ry

     total magnetization       =    -0.25 Bohr mag/cell
     absolute magnetization    =    37.26 Bohr mag/cell

     iteration # 23     ecut=    45.00 Ry     beta= 0.10
     Davidson diagonalization with overlap
     ethr =  4.07E-10,  avg # of iterations =  2.3
 
     Magnetic moment per site:
     atom:    1    charge:   13.5498    magn:    4.2276    constr:    0.0000
     atom:    2    charge:   13.5534    magn:    4.1978    constr:    0.0000
     atom:    3    charge:   13.5498    magn:    4.2276    constr:    0.0000
     atom:    4    charge:   13.5480    magn:   -4.2349    constr:    0.0000
     atom:    5    charge:   13.5451    magn:   -4.2534    constr:    0.0000
     atom:    6    charge:   13.5481    magn:    4.2302    constr:    0.0000
     atom:    7    charge:   13.5451    magn:   -4.2534    constr:    0.0000
     atom:    8    charge:   13.5480    magn:   -4.2349    constr:    0.0000
     atom:    9    charge:    9.1212    magn:    0.0311    constr:    0.0000
     atom:   10    charge:    9.1218    magn:    0.0358    constr:    0.0000
     atom:   11    charge:    9.1218    magn:    0.0358    constr:    0.0000
     atom:   12    charge:    9.1212    magn:    0.0311    constr:    0.0000
     atom:   13    charge:    9.1218    magn:    0.0373    constr:    0.0000
     atom:   14    charge:    9.1240    magn:   -0.0446    constr:    0.0000
     atom:   15    charge:    9.1235    magn:   -0.0416    constr:    0.0000
     atom:   16    charge:    9.1234    magn:   -0.0399    constr:    0.0000
     atom:   17    charge:    9.1231    magn:   -0.0499    constr:    0.0000
     atom:   18    charge:    9.1231    magn:    0.0387    constr:    0.0000
     atom:   19    charge:    9.1231    magn:    0.0387    constr:    0.0000
     atom:   20    charge:    9.1231    magn:   -0.0499    constr:    0.0000
     atom:   21    charge:    9.1234    magn:   -0.0399    constr:    0.0000
     atom:   22    charge:    9.1235    magn:   -0.0416    constr:    0.0000
     atom:   23    charge:    9.1240    magn:   -0.0446    constr:    0.0000
     atom:   24    charge:    9.1218    magn:    0.0373    constr:    0.0000

     total cpu time spent up to now is      830.0 secs

     End of self-consistent calculation
 --- enter write_ns ---
 LDA+U parameters:
U(  1) =   3.1200   J(  1) =   0.7000   B(  1) =   0.0803
U(  2) =   3.1200   J(  2) =   0.7000   B(  2) =   0.0803
atom    1   Tr[ns(na)] (up, down, total) =   4.97076  0.74449  5.71525
   spin  1
    eigenvalues: 
  0.984  0.993  0.993  0.998  1.002
    eigenvectors:
  0.000  0.000  0.000  1.000  0.000
  0.000  0.118  0.882  0.000  0.000
  0.000  0.882  0.118  0.000  0.000
  0.000  0.000  0.000  0.000  1.000
  1.000  0.000  0.000  0.000  0.000
    occupations:
  0.998 -0.000 -0.000  0.000  0.000
 -0.000  0.993 -0.000  0.000  0.000
 -0.000 -0.000  0.993  0.000  0.000
  0.000  0.000  0.000  1.002 -0.000
  0.000  0.000  0.000 -0.000  0.984
   spin  2
    eigenvalues: 
  0.065  0.132  0.145  0.145  0.257
    eigenvectors:
  0.000  1.000  0.000  0.000  0.000
  0.000  0.000  0.087  0.913  0.000
  0.000  0.000  0.913  0.087  0.000
  1.000  0.000  0.000  0.000  0.000
  0.000  0.000  0.000  0.000  1.000
    occupations:
  0.132 -0.000 -0.000  0.000  0.000
 -0.000  0.145 -0.000  0.000  0.000
 -0.000 -0.000  0.145  0.000  0.000
  0.000  0.000  0.000  0.065 -0.000
  0.000  0.000  0.000 -0.000  0.257
atomic mag. moment =     4.226270
atom    2   Tr[ns(na)] (up, down, total) =   4.96921  0.76774  5.73696
   spin  1
    eigenvalues: 
  0.984  0.993  0.993  0.996  1.002
    eigenvectors:
  0.000  0.000  0.000  1.000  0.000
  0.000  0.141  0.859  0.000  0.000
  0.000  0.859  0.141  0.000  0.000
  0.000  0.000  0.000  0.000  1.000
  1.000  0.000  0.000  0.000  0.000
    occupations:
  0.996 -0.000 -0.000  0.000  0.000
 -0.000  0.993 -0.000  0.000  0.000
 -0.000 -0.000  0.993  0.000  0.000
  0.000  0.000  0.000  1.002 -0.000
  0.000  0.000  0.000 -0.000  0.984
   spin  2
    eigenvalues: 
  0.064  0.144  0.144  0.147  0.270
    eigenvectors:
  0.000  0.000  0.000  1.000  0.000
  0.000  0.127  0.873  0.000  0.000
  0.000  0.873  0.127  0.000  0.000
  1.000  0.000  0.000  0.000  0.000
  0.000  0.000  0.000  0.000  1.000
    occupations:
  0.147 -0.000 -0.000  0.000  0.000
 -0.000  0.144 -0.000  0.000  0.000
 -0.000 -0.000  0.144  0.000  0.000
  0.000  0.000  0.000  0.064 -0.000
  0.000  0.000  0.000 -0.000  0.270
atomic mag. moment =     4.201468
atom    3   Tr[ns(na)] (up, down, total) =   4.97076  0.74449  5.71525
   spin  1
    eigenvalues: 
  0.984  0.993  0.993  0.998  1.002
    eigenvectors:
  0.000  0.000  0.000  1.000  0.000
  0.000  0.102  0.898  0.000  0.000
  0.000  0.898  0.102  0.000  0.000
  0.000  0.000  0.000  0.000  1.000
  1.000  0.000  0.000  0.000  0.000
    occupations:
  0.998 -0.000 -0.000  0.000  0.000
 -0.000  0.993 -0.000  0.000  0.000
 -0.000 -0.000  0.993  0.000  0.000
  0.000  0.000  0.000  1.002 -0.000
  0.000  0.000  0.000 -0.000  0.984
   spin  2
    eigenvalues: 
  0.065  0.132  0.145  0.145  0.257
    eigenvectors:
  0.000  1.000  0.000  0.000  0.000
  0.000  0.000  0.086  0.914  0.000
  0.000  0.000  0.914  0.086  0.000
  1.000  0.000  0.000  0.000  0.000
  0.000  0.000  0.000  0.000  1.000
    occupations:
  0.132 -0.000 -0.000  0.000  0.000
 -0.000  0.145 -0.000  0.000  0.000
 -0.000 -0.000  0.145  0.000  0.000
  0.000  0.000  0.000  0.065 -0.000
  0.000  0.000  0.000 -0.000  0.257
atomic mag. moment =     4.226270
atom    4   Tr[ns(na)] (up, down, total) =   0.73819  4.97167  5.70986
   spin  1
    eigenvalues: 
  0.064  0.136  0.141  0.141  0.257
    eigenvectors:
  0.000  1.000  0.000  0.000  0.000
  0.000  0.000  0.115  0.885  0.000
  0.000  0.000  0.885  0.115  0.000
  1.000  0.000  0.000  0.000  0.000
  0.000  0.000  0.000  0.000  1.000
    occupations:
  0.136 -0.000 -0.000  0.000  0.000
 -0.000  0.141 -0.000  0.000  0.000
 -0.000 -0.000  0.141  0.000  0.000
  0.000  0.000  0.000  0.064 -0.000
  0.000  0.000  0.000 -0.000  0.257
   spin  2
    eigenvalues: 
  0.985  0.994  0.994  0.996  1.002
    eigenvectors:
  0.000  0.000  0.000  1.000  0.000
  0.000  0.121  0.879  0.000  0.000
  0.000  0.879  0.121  0.000  0.000
  0.000  0.000  0.000  0.000  1.000
  1.000  0.000  0.000  0.000  0.000
    occupations:
  0.996 -0.000 -0.000  0.000  0.000
 -0.000  0.994 -0.000  0.000  0.000
 -0.000 -0.000  0.994  0.000  0.000
  0.000  0.000  0.000  1.002 -0.000
  0.000  0.000  0.000 -0.000  0.985
atomic mag. moment =    -4.233476
atom    5   Tr[ns(na)] (up, down, total) =   0.72246  4.97400  5.69647
   spin  1
    eigenvalues: 
  0.066  0.120  0.143  0.143  0.250
    eigenvectors:
  0.000  1.000  0.000  0.000  0.000
  0.000  0.000  0.184  0.816  0.000
  0.000  0.000  0.816  0.184  0.000
  1.000  0.000  0.000  0.000  0.000
  0.000  0.000  0.000  0.000  1.000
    occupations:
  0.120 -0.000 -0.000  0.000  0.000
 -0.000  0.143 -0.000  0.000  0.000
 -0.000 -0.000  0.143  0.000  0.000
  0.000  0.000  0.000  0.066 -0.000
  0.000  0.000  0.000 -0.000  0.250
   spin  2
    eigenvalues: 
  0.985  0.994  0.994  0.997  1.003
    eigenvectors:
  0.000  0.000  0.000  1.000  0.000
  0.000  0.115  0.885  0.000  0.000
  0.000  0.885  0.115  0.000  0.000
  0.000  0.000  0.000  0.000  1.000
  1.000  0.000  0.000  0.000  0.000
    occupations:
  0.997 -0.000 -0.000  0.000  0.000
 -0.000  0.994 -0.000  0.000  0.000
 -0.000 -0.000  0.994  0.000  0.000
  0.000  0.000  0.000  1.003 -0.000
  0.000  0.000  0.000 -0.000  0.985
atomic mag. moment =    -4.251540
atom    6   Tr[ns(na)] (up, down, total) =   4.96882  0.74142  5.71024
   spin  1
    eigenvalues: 
  0.984  0.994  0.994  0.995  1.003
    eigenvectors:
  0.000  0.000  0.000  1.000  0.000
  0.000  0.116  0.884  0.000  0.000
  0.000  0.884  0.116  0.000  0.000
  0.000  0.000  0.000  0.000  1.000
  1.000  0.000  0.000  0.000  0.000
    occupations:
  0.995 -0.000 -0.000  0.000  0.000
 -0.000  0.994 -0.000  0.000  0.000
 -0.000 -0.000  0.994  0.000  0.000
  0.000  0.000  0.000  1.003 -0.000
  0.000  0.000  0.000 -0.000  0.984
   spin  2
    eigenvalues: 
  0.065  0.127  0.148  0.148  0.253
    eigenvectors:
  0.000  1.000  0.000  0.000  0.000
  0.000  0.000  0.110  0.890  0.000
  0.000  0.000  0.890  0.110  0.000
  1.000  0.000  0.000  0.000  0.000
  0.000  0.000  0.000  0.000  1.000
    occupations:
  0.127 -0.000 -0.000  0.000  0.000
 -0.000  0.148 -0.000  0.000  0.000
 -0.000 -0.000  0.148  0.000  0.000
  0.000  0.000  0.000  0.065 -0.000
  0.000  0.000  0.000 -0.000  0.253
atomic mag. moment =     4.227401
atom    7   Tr[ns(na)] (up, down, total) =   0.72246  4.97400  5.69647
   spin  1
    eigenvalues: 
  0.066  0.120  0.143  0.143  0.250
    eigenvectors:
  0.000  1.000  0.000  0.000  0.000
  0.000  0.000  0.108  0.892  0.000
  0.000  0.000  0.892  0.108  0.000
  1.000  0.000  0.000  0.000  0.000
  0.000  0.000  0.000  0.000  1.000
    occupations:
  0.120 -0.000 -0.000  0.000  0.000
 -0.000  0.143 -0.000  0.000  0.000
 -0.000 -0.000  0.143  0.000  0.000
  0.000  0.000  0.000  0.066 -0.000
  0.000  0.000  0.000 -0.000  0.250
   spin  2
    eigenvalues: 
  0.985  0.994  0.994  0.997  1.003
    eigenvectors:
  0.000  0.000  0.000  1.000  0.000
  0.000  0.096  0.904  0.000  0.000
  0.000  0.904  0.096  0.000  0.000
  0.000  0.000  0.000  0.000  1.000
  1.000  0.000  0.000  0.000  0.000
    occupations:
  0.997 -0.000 -0.000  0.000  0.000
 -0.000  0.994 -0.000  0.000  0.000
 -0.000 -0.000  0.994  0.000  0.000
  0.000  0.000  0.000  1.003 -0.000
  0.000  0.000  0.000 -0.000  0.985
atomic mag. moment =    -4.251540
atom    8   Tr[ns(na)] (up, down, total) =   0.73819  4.97167  5.70986
   spin  1
    eigenvalues: 
  0.064  0.136  0.141  0.141  0.257
    eigenvectors:
  0.000  1.000  0.000  0.000  0.000
  0.000  0.000  0.152  0.848  0.000
  0.000  0.000  0.848  0.152  0.000
  1.000  0.000  0.000  0.000  0.000
  0.000  0.000  0.000  0.000  1.000
    occupations:
  0.136 -0.000 -0.000  0.000  0.000
 -0.000  0.141 -0.000  0.000  0.000
 -0.000 -0.000  0.141  0.000  0.000
  0.000  0.000  0.000  0.064 -0.000
  0.000  0.000  0.000 -0.000  0.257
   spin  2
    eigenvalues: 
  0.985  0.994  0.994  0.996  1.002
    eigenvectors:
  0.000  0.000  0.000  1.000  0.000
  0.000  0.136  0.864  0.000  0.000
  0.000  0.864  0.136  0.000  0.000
  0.000  0.000  0.000  0.000  1.000
  1.000  0.000  0.000  0.000  0.000
    occupations:
  0.996 -0.000 -0.000  0.000  0.000
 -0.000  0.994 -0.000  0.000  0.000
 -0.000 -0.000  0.994  0.000  0.000
  0.000  0.000  0.000  1.002 -0.000
  0.000  0.000  0.000 -0.000  0.985
atomic mag. moment =    -4.233476
N of occupied +U levels =   45.690354
 --- exit write_ns ---

 ------ SPIN UP ------------


          k = 0.0000 0.0000 0.0000 ( 13925 PWs)   bands (ev):

   -66.7784 -66.6933 -66.6933 -66.5991 -62.1784 -62.1784 -62.1473 -62.1473
   -35.5475 -35.4948 -35.4948 -35.4633 -35.4633 -35.4111 -35.4111 -35.4111
   -35.4111 -35.3749 -35.3156 -35.3156 -31.0048 -31.0048 -30.9961 -30.9961
   -30.9961 -30.9961 -30.9749 -30.9749 -30.9648 -30.9648 -30.9648 -30.9648
     5.7852   5.9009   5.9815   6.3906   6.3944   7.0135   7.0956   7.6203
     8.3493   8.4035   8.4191   8.4983   8.5430   8.5647   8.6258   8.8462
     8.8706   8.8771   8.9680   9.1103   9.1465   9.1803   9.2501   9.2839
     9.3054   9.3755   9.4593   9.6087   9.7504   9.8547   9.9216   9.9600
     9.9824  10.0440  10.1220  10.1257  10.1257  10.1862  10.1862  10.1879
    10.1879  10.2510  10.2587  10.2924  10.3000  10.3430  10.3430  10.3530
    10.3530  10.4862  10.5443  10.5936  10.5936  10.6016  10.6069  10.6069
    10.6130  10.6130  10.6245  10.6245  10.6691  10.6777  10.6777  10.7414
    10.7768  10.7768  10.9155  10.9681  10.9681  11.0045  11.0493  11.0493
    11.0523  11.1575  11.2541  11.2543  11.3095  11.3708  11.3708  11.4109
    11.4478  11.4951  11.5224  11.5224  11.6907  11.8105  11.8105  11.8282
    11.8846  11.8846  11.9029  11.9168  11.9798  12.0099  12.1055  12.1726
    12.2000  12.2464  12.2908  12.2908  12.3212  12.3212  12.6262  12.7057
    12.7057  12.8121  12.8208  12.8829  12.9400  13.0913  13.1814  13.6913
    13.7825  14.8229  15.1557  16.0960  16.7821  16.7821  16.8062  16.8062
    16.9552  16.9553  17.0177  17.0178  17.0764  17.0764  17.1074  17.1074
    17.1224  17.1224  17.1755  17.1756  17.5110  17.5304  17.6053  17.6234
    18.5633  19.5721  19.8295  20.1082  20.1082  20.4582  20.4582  20.5589
    20.5589  21.5197

          k = 0.0000 0.0000-0.0484 ( 13878 PWs)   bands (ev):

   -66.7784 -66.6933 -66.6933 -66.5991 -62.1784 -62.1784 -62.1473 -62.1473
   -35.5475 -35.4948 -35.4948 -35.4633 -35.4633 -35.4111 -35.4111 -35.4111
   -35.4111 -35.3749 -35.3156 -35.3156 -31.0048 -31.0048 -30.9961 -30.9961
   -30.9961 -30.9961 -30.9749 -30.9749 -30.9648 -30.9648 -30.9648 -30.9648
     5.8081   5.8382   6.0864   6.1887   6.6759   6.7225   7.3913   7.4400
     8.4035   8.4152   8.4954   8.4982   8.5147   8.5647   8.6207   8.6828
     8.8628   8.8768   9.0800   9.1222   9.1231   9.1574   9.2395   9.3087
     9.3600   9.3780   9.4227   9.5809   9.7527   9.8565   9.9216   9.9663
     9.9824  10.0441  10.1170  10.1298  10.1298  10.1579  10.1579  10.2410
    10.2410  10.2562  10.2651  10.2657  10.2657  10.2859  10.2998  10.4657
    10.4657  10.4705  10.4705  10.4949  10.5258  10.6015  10.6015  10.6134
    10.6134  10.6216  10.6587  10.6707  10.6707  10.7321  10.7385  10.7385
    10.7777  10.7777  10.8606  10.8606  10.9580  10.9985  11.0054  11.1928
    11.1967  11.1967  11.2361  11.2361  11.2381  11.2545  11.3074  11.4130
    11.4448  11.4978  11.6615  11.6615  11.6767  11.6767  11.6910  11.8250
    11.9027  11.9166  11.9359  11.9359  11.9799  12.0324  12.0704  12.1991
    12.1999  12.2351  12.2710  12.2710  12.3355  12.3355  12.6264  12.7056
    12.7056  12.8120  12.8596  12.8689  12.8830  13.0914  13.3461  13.3993
    14.0144  14.6311  15.3292  16.0275  16.7824  16.7824  16.8058  16.8058
    16.9551  16.9553  17.0177  17.0178  17.0773  17.0773  17.1065  17.1065
    17.1224  17.1224  17.1755  17.1756  17.5205  17.5287  17.6125  17.6165
    18.7245  19.1072  20.1761  20.1761  20.2505  20.2505  20.5431  20.7172
    20.9004  20.9004

          k = 0.0000 0.1250 0.0000 ( 13879 PWs)   bands (ev):

   -66.7781 -66.6931 -66.6931 -66.5988 -62.1784 -62.1784 -62.1473 -62.1473
   -35.5474 -35.4966 -35.4947 -35.4632 -35.4632 -35.4129 -35.4128 -35.4110
   -35.4110 -35.3747 -35.3174 -35.3155 -31.0045 -31.0045 -30.9982 -30.9982
   -30.9959 -30.9959 -30.9747 -30.9747 -30.9670 -30.9670 -30.9647 -30.9647
     6.0286   6.1418   6.2196   6.6155   6.6189   7.2154   7.2763   7.7743
     8.3539   8.5090   8.5391   8.6080   8.6387   8.6693   8.7145   8.7760
     8.8397   8.9433   9.0350   9.0585   9.2182   9.2260   9.2382   9.3314
     9.3402   9.3680   9.4604   9.5886   9.6386   9.6914   9.8055   9.8296
     9.8786   9.8961   9.9346   9.9809  10.0411  10.0430  10.0624  10.0869
    10.1679  10.1721  10.1943  10.2343  10.2491  10.2523  10.3151  10.3884
    10.3909  10.4254  10.4478  10.4615  10.5210  10.5481  10.5679  10.6616
    10.6655  10.7068  10.7340  10.7720  10.8090  10.8521  10.8538  10.9048
    10.9132  10.9737  11.0152  11.0399  11.1157  11.1360  11.1404  11.1413
    11.1652  11.2301  11.3168  11.3570  11.3678  11.3788  11.3829  11.4141
    11.4491  11.5412  11.5890  11.6979  11.7347  11.7794  11.8016  11.8221
    11.8232  11.8856  11.9407  11.9977  12.0015  12.0157  12.1055  12.1444
    12.1758  12.1897  12.2321  12.2675  12.3904  12.5332  12.5464  12.6295
    12.7199  12.7376  12.7556  12.9134  12.9686  12.9730  13.1502  13.7713
    13.8392  14.9402  15.2706  16.2101  16.5176  16.6067  16.8862  16.8875
    16.8900  16.9317  16.9715  16.9731  17.0121  17.0355  17.0600  17.0625
    17.0771  17.0931  17.2364  17.2396  17.4766  17.5268  17.7045  17.9771
    18.6767  18.7074  19.0432  19.1562  19.9052  19.9819  19.9873  20.1124
    20.7295  21.0098

          k = 0.0000 0.1250-0.0484 ( 13868 PWs)   bands (ev):

   -66.7781 -66.6931 -66.6931 -66.5988 -62.1784 -62.1784 -62.1473 -62.1473
   -35.5474 -35.4966 -35.4947 -35.4632 -35.4632 -35.4129 -35.4128 -35.4110
   -35.4110 -35.3747 -35.3174 -35.3155 -31.0045 -31.0045 -30.9982 -30.9982
   -30.9959 -30.9959 -30.9747 -30.9747 -30.9670 -30.9670 -30.9647 -30.9647
     6.0510   6.0804   6.3218   6.4203   6.8928   6.9287   7.5697   7.5946
     8.4648   8.5202   8.5431   8.5563   8.6198   8.6473   8.6807   8.7487
     8.8705   8.9650   9.0265   9.1181   9.1668   9.2367   9.2866   9.2988
     9.3091   9.3355   9.5375   9.5788   9.6098   9.6959   9.8059   9.8286
     9.8795   9.8908   9.9346  10.0005  10.0270  10.0468  10.0543  10.0914
    10.1662  10.1722  10.1940  10.2203  10.2482  10.2910  10.3177  10.3550
    10.3924  10.4034  10.4312  10.4909  10.5248  10.5777  10.6181  10.6493
    10.6600  10.6674  10.7062  10.7318  10.8205  10.8538  10.8787  10.8941
    10.9902  11.0003  11.0230  11.0333  11.0418  11.1228  11.1342  11.1443
    11.1592  11.2500  11.2808  11.3387  11.3734  11.3953  11.4098  11.4168
    11.4611  11.6090  11.6180  11.6383  11.6479  11.7498  11.7710  11.8769
    11.8771  11.9102  11.9412  11.9517  12.0158  12.0726  12.0807  12.1269
    12.1433  12.1758  12.2583  12.2722  12.3928  12.5342  12.5458  12.6273
    12.7204  12.7377  12.8036  12.8186  12.9686  12.9730  13.3493  13.4197
    14.1328  14.7117  15.4651  16.1168  16.5563  16.6028  16.8834  16.8862
    16.8875  16.9343  16.9707  16.9737  17.0122  17.0353  17.0587  17.0637
    17.0775  17.0929  17.2364  17.2395  17.4971  17.4974  17.8070  17.8207
    18.7340  18.8841  19.0058  19.2984  19.4232  19.5755  20.4940  20.4994
    20.7629  20.8856

          k = 0.0000 0.2500 0.0000 ( 13848 PWs)   bands (ev):

   -66.7780 -66.6929 -66.6929 -66.5987 -62.1780 -62.1780 -62.1469 -62.1469
   -35.5470 -35.5008 -35.4945 -35.4628 -35.4628 -35.4171 -35.4170 -35.4107
   -35.4107 -35.3743 -35.3216 -35.3153 -31.0040 -31.0040 -31.0035 -31.0035
   -30.9956 -30.9956 -30.9741 -30.9741 -30.9723 -30.9723 -30.9643 -30.9643
     6.7175   6.8202   6.8891   7.2319   7.2346   7.7236   7.7272   8.1056
     8.3014   8.5404   8.5450   8.7446   8.7510   8.7766   8.8438   8.8722
     8.9186   8.9276   8.9686   8.9824   9.0248   9.1848   9.2276   9.4038
     9.4556   9.4869   9.5452   9.5478   9.6265   9.6329   9.6432   9.6540
     9.6549   9.6565   9.6956   9.7629   9.8411   9.9025   9.9373   9.9808
    10.0166  10.0878  10.1371  10.1469  10.1598  10.1670  10.3086  10.3878
    10.4154  10.5813  10.6243  10.6368  10.6586  10.6658  10.7361  10.7943
    10.8292  10.8770  10.9223  10.9329  10.9489  10.9534  11.0442  11.0838
    11.1319  11.1743  11.1828  11.1874  11.2012  11.2415  11.2758  11.3347
    11.3858  11.3944  11.4698  11.4886  11.5408  11.5769  11.5787  11.6481
    11.6654  11.6986  11.7283  11.7306  11.7664  11.8095  11.8186  11.8608
    11.8657  11.9387  11.9635  11.9967  11.9983  12.0535  12.0593  12.0750
    12.1259  12.2237  12.2261  12.3009  12.4714  12.4958  12.5663  12.6941
    12.7103  12.7433  12.8016  12.8458  12.9988  13.0385  13.0548  13.9614
    13.9864  15.1536  15.3652  15.9775  15.9828  16.0709  16.1292  16.2565
    16.5160  16.5601  16.7745  16.7791  16.8178  16.9923  16.9982  17.0354
    17.0448  17.2291  17.2713  17.3006  17.3035  17.3789  17.3791  17.4079
    17.5607  17.7975  17.9365  18.0714  18.5477  18.6121  18.6765  18.8701
    19.5714  20.5266

          k = 0.0000 0.2500-0.0484 ( 13842 PWs)   bands (ev):

   -66.7780 -66.6929 -66.6929 -66.5987 -62.1780 -62.1780 -62.1469 -62.1469
   -35.5470 -35.5008 -35.4945 -35.4628 -35.4628 -35.4170 -35.4170 -35.4107
   -35.4107 -35.3743 -35.3216 -35.3153 -31.0040 -31.0040 -31.0035 -31.0035
   -30.9956 -30.9956 -30.9741 -30.9741 -30.9723 -30.9723 -30.9643 -30.9643
     6.7376   6.7649   6.9801   7.0648   7.4689   7.4758   7.9477   7.9777
     8.3885   8.4257   8.6474   8.6723   8.7649   8.7842   8.8561   8.8924
     8.9045   8.9078   8.9626   8.9932   9.0380   9.1925   9.2099   9.3577
     9.4869   9.5431   9.5501   9.5826   9.5869   9.6315   9.6479   9.6498
     9.6560   9.6596   9.6702   9.6956   9.8412   9.9376   9.9798  10.0162
    10.0182  10.0779  10.0922  10.1387  10.1433  10.1536  10.3369  10.3819
    10.4317  10.5793  10.5833  10.6434  10.6666  10.6894  10.7637  10.7851
    10.8288  10.8530  10.8792  10.9284  10.9413  11.0218  11.0455  11.0703
    11.1167  11.1537  11.2060  11.2074  11.2153  11.2364  11.2700  11.3305
    11.3917  11.3956  11.4615  11.5118  11.5452  11.5492  11.5503  11.6097
    11.6411  11.7309  11.7675  11.7896  11.8002  11.8059  11.8156  11.8626
    11.8633  11.8906  11.9261  11.9508  12.0161  12.0430  12.0633  12.1259
    12.1322  12.2125  12.2422  12.2873  12.4810  12.4831  12.6466  12.6612
    12.7038  12.7094  12.7368  12.8018  12.9989  13.0385  13.3711  13.4683
    14.4161  14.8367  15.6307  15.8306  16.0039  16.0712  16.1464  16.2761
    16.5083  16.5584  16.7745  16.7791  16.8184  16.9923  16.9982  17.0396
    17.0412  17.2253  17.2752  17.3006  17.3035  17.3790  17.3791  17.4172
    17.5439  17.7727  18.0421  18.1666  18.3233  18.3552  18.9337  18.9924
    19.7264  19.9130

          k = 0.0000 0.3750 0.0000 ( 13856 PWs)   bands (ev):

   -66.7786 -66.6935 -66.6935 -66.5992 -62.1770 -62.1770 -62.1459 -62.1459
   -35.5466 -35.5049 -35.4943 -35.4623 -35.4623 -35.4211 -35.4211 -35.4105
   -35.4105 -35.3739 -35.3257 -35.3151 -31.0089 -31.0089 -31.0034 -31.0034
   -30.9953 -30.9953 -30.9777 -30.9777 -30.9735 -30.9735 -30.9640 -30.9640
     7.6776   7.7546   7.8023   8.0020   8.0051   8.1502   8.1727   8.2227
     8.2410   8.3459   8.3718   8.4970   8.5864   8.6790   8.8384   8.9387
     8.9857   8.9943   9.1144   9.1598   9.2285   9.2419   9.2538   9.3082
     9.3111   9.3377   9.3394   9.3866   9.4296   9.5121   9.5454   9.6681
     9.6748   9.6870   9.6917   9.7650   9.8837   9.9227   9.9262   9.9350
     9.9587  10.0426  10.0652  10.1091  10.1297  10.1777  10.2615  10.3787
    10.4410  10.4768  10.5414  10.6795  10.6875  10.7912  10.8759  10.9041
    10.9134  11.0082  11.1100  11.1692  11.1883  11.3103  11.3138  11.3459
    11.3625  11.3717  11.4055  11.4967  11.5175  11.5566  11.5769  11.5777
    11.6343  11.6453  11.6538  11.6542  11.6996  11.7626  11.7632  11.7817
    11.8329  11.8448  11.8650  11.9352  11.9773  11.9797  12.0189  12.0631
    12.0807  12.0895  12.1240  12.1362  12.1483  12.1809  12.2738  12.3138
    12.3372  12.3672  12.4057  12.4189  12.5326  12.5909  12.6276  12.7879
    12.7893  12.8334  12.8938  12.9677  12.9872  13.0666  13.0862  13.8959
    13.9493  14.0021  14.2450  14.2856  14.7178  14.7640  15.0854  15.1215
    15.4325  15.4977  15.8821  15.9279  16.7395  16.7399  16.7905  16.8076
    16.8608  16.9239  16.9244  17.0313  17.0437  17.1258  17.1759  17.3063
    17.5012  17.5015  17.5530  17.5530  17.9181  17.9582  18.1007  18.1905
    19.6050  19.8002

          k = 0.0000 0.3750-0.0484 ( 13872 PWs)   bands (ev):

   -66.7786 -66.6935 -66.6935 -66.5992 -62.1770 -62.1770 -62.1459 -62.1459
   -35.5466 -35.5049 -35.4943 -35.4623 -35.4623 -35.4211 -35.4211 -35.4105
   -35.4105 -35.3739 -35.3257 -35.3151 -31.0089 -31.0089 -31.0034 -31.0034
   -30.9953 -30.9953 -30.9777 -30.9777 -30.9735 -30.9735 -30.9640 -30.9640
     7.6931   7.7133   7.8677   7.9081   8.0950   8.1057   8.1931   8.1955
     8.2687   8.3132   8.4139   8.4609   8.6264   8.6497   8.8574   8.9011
     9.0041   9.0204   9.0982   9.1235   9.2419   9.2538   9.2704   9.2902
     9.3377   9.3394   9.3454   9.3868   9.4295   9.5059   9.5330   9.5619
     9.6875   9.6910   9.7656   9.7990   9.9061   9.9199   9.9364   9.9469
     9.9812   9.9963  10.0475  10.0808  10.0864  10.1360  10.3632  10.4150
    10.4410  10.4710  10.5122  10.6652  10.6769  10.7977  10.8420  10.9022
    10.9324  10.9973  11.1364  11.1828  11.2242  11.2763  11.2994  11.3595
    11.3855  11.4208  11.4562  11.4588  11.4826  11.5012  11.5334  11.5867
    11.6012  11.6177  11.6808  11.6879  11.6973  11.7226  11.7683  11.7978
    11.8052  11.8864  11.9015  11.9217  11.9477  11.9825  11.9894  12.0263
    12.0795  12.0885  12.1368  12.1565  12.2007  12.2608  12.2883  12.3121
    12.3707  12.4108  12.4264  12.4734  12.4874  12.5411  12.5864  12.6289
    12.7882  12.7906  12.8321  12.8939  13.0666  13.0862  13.4695  13.4972
    14.0243  14.0396  14.3505  14.3848  14.6100  14.6305  15.1017  15.1607
    15.5128  15.5367  15.8357  15.8802  16.7395  16.7399  16.7870  16.8019
    16.8831  16.9239  16.9244  17.0092  17.0666  17.1056  17.1957  17.3046
    17.5012  17.5015  17.5530  17.5530  17.9180  17.9545  18.1096  18.1881
    19.6125  19.8352

          k = 0.0000-0.5000 0.0000 ( 13918 PWs)   bands (ev):

   -66.7790 -66.6939 -66.6939 -66.5997 -62.1764 -62.1764 -62.1453 -62.1453
   -35.5464 -35.5065 -35.4942 -35.4622 -35.4622 -35.4228 -35.4228 -35.4104
   -35.4104 -35.3738 -35.3274 -35.3150 -31.0112 -31.0112 -31.0032 -31.0032
   -30.9951 -30.9951 -30.9800 -30.9800 -30.9733 -30.9733 -30.9639 -30.9639
     8.1307   8.1446   8.2050   8.2147   8.2193   8.2923   8.3485   8.3828
     8.4620   8.4667   8.5032   8.5155   8.5740   8.6573   8.7508   8.8390
     8.9756   8.9763   9.0358   9.0674   9.1458   9.1507   9.2364   9.2582
     9.3118   9.3198   9.3793   9.4065   9.5624   9.5981   9.6307   9.6861
     9.6866   9.7009   9.7048   9.7833   9.8013   9.8430   9.8833   9.9085
     9.9888  10.0106  10.0278  10.0405  10.0462  10.0901  10.2364  10.3037
    10.4166  10.4966  10.5246  10.5882  10.6342  10.7075  10.7509  10.8585
    11.1630  11.2188  11.2783  11.3340  11.3938  11.4186  11.4850  11.4963
    11.5259  11.5407  11.5431  11.5592  11.5664  11.5694  11.5746  11.5943
    11.6053  11.6302  11.6671  11.6694  11.7433  11.7894  11.8282  11.8536
    11.9658  11.9948  11.9992  12.1238  12.1302  12.1750  12.2941  12.3822
    12.4135  12.4214  12.4334  12.4432  12.4449  12.5008  12.5456  12.5572
    12.5761  12.6274  12.6448  12.6703  12.7428  12.8187  12.8235  12.8263
    12.8755  12.9266  12.9687  12.9708  13.0871  13.0965  13.1051  13.1143
    13.3800  13.4444  13.7429  13.7454  13.8390  13.8510  14.3357  14.3886
    14.4867  14.5237  14.8555  14.8572  16.5605  16.6452  16.7030  16.7281
    16.8131  16.8151  16.8152  16.8152  16.9547  16.9908  16.9925  17.0036
    17.5773  17.5773  17.6246  17.6246  17.9682  17.9987  18.0073  18.0113
    19.6674  19.6930

          k = 0.0000-0.5000-0.0484 ( 13892 PWs)   bands (ev):

   -66.7790 -66.6939 -66.6939 -66.5997 -62.1764 -62.1764 -62.1453 -62.1453
   -35.5464 -35.5065 -35.4942 -35.4622 -35.4622 -35.4228 -35.4228 -35.4104
   -35.4104 -35.3738 -35.3274 -35.3150 -31.0112 -31.0112 -31.0032 -31.0032
   -30.9951 -30.9951 -30.9800 -30.9800 -30.9733 -30.9733 -30.9639 -30.9639
     8.1308   8.1448   8.2043   8.2085   8.2263   8.2959   8.3435   8.3783
     8.4700   8.4787   8.4911   8.5114   8.5762   8.6576   8.7475   8.8372
     8.9971   9.0119   9.0123   9.0249   9.1458   9.1507   9.2364   9.2582
     9.3118   9.3198   9.4186   9.4431   9.5352   9.5624   9.5640   9.6857
     9.6871   9.7283   9.7343   9.7788   9.8013   9.8427   9.8833   9.9085
    10.0106  10.0278  10.0405  10.0462  10.0473  10.1311  10.1889  10.2101
    10.4719  10.4966  10.5246  10.6085  10.6204  10.7075  10.7509  10.8460
    11.1631  11.2370  11.2920  11.3340  11.3849  11.4186  11.4914  11.4927
    11.5032  11.5307  11.5517  11.5664  11.5768  11.5788  11.5797  11.5925
    11.6132  11.6249  11.6410  11.6472  11.7486  11.7881  11.8230  11.8500
    11.9658  11.9992  12.0147  12.1301  12.1496  12.1749  12.2794  12.3825
    12.4152  12.4197  12.4252  12.4332  12.4580  12.5051  12.5287  12.5712
    12.5719  12.6274  12.6564  12.6704  12.7304  12.8101  12.8187  12.8263
    12.8756  12.9266  13.0093  13.0147  13.0378  13.0705  13.0965  13.1051
    13.4262  13.5424  13.5655  13.6343  14.0150  14.0307  14.1459  14.1859
    14.6959  14.7013  14.7621  14.7660  16.5662  16.6661  16.6843  16.7241
    16.8131  16.8151  16.8152  16.8152  16.9547  16.9835  16.9994  17.0035
    17.5773  17.5773  17.6246  17.6246  17.9683  17.9992  18.0067  18.0112
    19.6874  19.7179

          k = 0.1250 0.1250 0.0000 ( 13839 PWs)   bands (ev):

   -66.7778 -66.6928 -66.6928 -66.5985 -62.1784 -62.1784 -62.1474 -62.1474
   -35.5472 -35.4965 -35.4965 -35.4630 -35.4630 -35.4128 -35.4128 -35.4127
   -35.4127 -35.3746 -35.3173 -35.3173 -31.0043 -31.0043 -30.9982 -30.9982
   -30.9980 -30.9980 -30.9744 -30.9744 -30.9669 -30.9669 -30.9667 -30.9667
     6.2608   6.3721   6.4498   6.8365   6.8396   7.4190   7.4652   7.9421
     8.4115   8.5908   8.6790   8.7067   8.7460   8.7716   8.7813   8.8080
     8.8515   9.0626   9.0734   9.0793   9.2846   9.2959   9.3560   9.3619
     9.4085   9.4256   9.4262   9.4799   9.6320   9.6474   9.6632   9.7853
     9.8018   9.8375   9.8420   9.8899   9.8984   9.9041   9.9306   9.9821
    10.0959  10.1016  10.1055  10.1776  10.2487  10.2533  10.2603  10.3588
    10.3610  10.3720  10.3910  10.4070  10.4354  10.4609  10.5705  10.6060
    10.6523  10.6996  10.7009  10.7188  10.7734  10.7907  10.8644  10.9491
    10.9883  10.9986  11.0361  11.0773  11.1396  11.1560  11.2167  11.2287
    11.2448  11.3093  11.3413  11.3504  11.4121  11.4430  11.5072  11.5141
    11.5786  11.5963  11.6882  11.7364  11.7750  11.8269  11.8501  11.8548
    11.9189  11.9713  11.9876  11.9988  12.0470  12.0978  12.1079  12.1506
    12.1554  12.3040  12.3466  12.3726  12.3767  12.5099  12.6038  12.6088
    12.6423  12.7144  12.7434  12.8418  12.8575  12.9209  13.1656  13.8820
    13.9385  15.0769  15.3829  16.3262  16.6371  16.6929  16.7149  16.8073
    16.8528  16.8754  16.9472  16.9574  16.9755  16.9935  17.0155  17.0188
    17.1253  17.1367  17.1440  17.1987  17.4678  17.5806  17.7983  18.3502
    18.8548  19.1816  19.2941  19.4693  19.5791  19.6353  19.7732  20.0981
    20.1542  20.2720

          k = 0.1250 0.1250-0.0484 ( 13838 PWs)   bands (ev):

   -66.7778 -66.6928 -66.6928 -66.5985 -62.1784 -62.1784 -62.1474 -62.1474
   -35.5472 -35.4965 -35.4965 -35.4630 -35.4630 -35.4128 -35.4128 -35.4127
   -35.4127 -35.3746 -35.3173 -35.3173 -31.0043 -31.0043 -30.9982 -30.9982
   -30.9980 -30.9980 -30.9744 -30.9744 -30.9669 -30.9669 -30.9667 -30.9667
     6.2820   6.3133   6.5488   6.6469   7.1074   7.1366   7.7552   7.7636
     8.5078   8.6076   8.6123   8.6790   8.7044   8.7460   8.8080   8.8242
     8.9235   8.9805   9.0625   9.2056   9.2499   9.2596   9.3036   9.3412
     9.4378   9.4624   9.4651   9.4814   9.6082   9.6237   9.6652   9.8007
     9.8062   9.8380   9.8387   9.8847   9.9041   9.9273   9.9384   9.9393
    10.0952  10.1023  10.1265  10.1596  10.2495  10.2524  10.2703  10.3581
    10.3611  10.3681  10.3829  10.4068  10.4483  10.4611  10.5556  10.6051
    10.6688  10.6883  10.7140  10.7165  10.7998  10.8179  10.8413  10.8525
    11.0108  11.0257  11.0570  11.0641  11.1543  11.1670  11.2164  11.2240
    11.2395  11.3425  11.3455  11.3555  11.3822  11.4251  11.4373  11.5097
    11.5798  11.6677  11.7332  11.7604  11.7729  11.8161  11.8335  11.8452
    11.8864  11.8995  11.9802  12.0455  12.0790  12.0859  12.1243  12.1499
    12.1747  12.2862  12.3218  12.3709  12.3934  12.5119  12.6052  12.6235
    12.6302  12.7433  12.7752  12.7761  12.8556  12.8624  13.4010  13.4833
    14.2690  14.8318  15.5803  16.2221  16.6932  16.7144  16.7525  16.7721
    16.8307  16.8599  16.9480  16.9538  16.9761  16.9925  17.0168  17.0178
    17.1256  17.1363  17.1726  17.1768  17.5025  17.5135  18.0036  18.0341
    19.1719  19.3295  19.3340  19.4217  19.4862  19.5419  19.6507  19.9435
    20.0324  20.2206

          k = 0.1250 0.2500 0.0000 ( 13846 PWs)   bands (ev):

   -66.7776 -66.6925 -66.6925 -66.5983 -62.1782 -62.1782 -62.1471 -62.1471
   -35.5468 -35.5007 -35.4962 -35.4626 -35.4626 -35.4169 -35.4169 -35.4125
   -35.4125 -35.3742 -35.3215 -35.3171 -31.0038 -31.0038 -31.0033 -31.0033
   -30.9977 -30.9977 -30.9739 -30.9739 -30.9721 -30.9721 -30.9665 -30.9665
     6.9079   7.0122   7.0894   7.4371   7.4390   7.9300   7.9328   8.2987
     8.4448   8.6541   8.6581   8.7996   8.8515   8.8658   8.9183   9.0100
     9.0296   9.0444   9.1022   9.1082   9.1246   9.3150   9.3769   9.4165
     9.4458   9.5145   9.5156   9.5312   9.5395   9.5434   9.5943   9.5976
     9.6437   9.7137   9.7953   9.7960   9.8454   9.8926   9.9407   9.9652
     9.9776  10.0097  10.0486  10.0698  10.0990  10.1016  10.1954  10.3527
    10.3796  10.4047  10.4147  10.4418  10.4782  10.5300  10.5531  10.6037
    10.6858  10.7044  10.7372  10.8169  10.8688  10.8707  10.9536  10.9719
    11.0188  11.0226  11.1005  11.1080  11.1277  11.1368  11.3111  11.3295
    11.3933  11.4420  11.4999  11.5066  11.5587  11.5833  11.6457  11.6775
    11.6959  11.7119  11.7620  11.8182  11.8566  11.8594  11.8865  11.9472
    11.9664  12.0392  12.0399  12.1018  12.1122  12.1727  12.1820  12.2249
    12.2333  12.2972  12.3939  12.5241  12.5354  12.5918  12.6195  12.6297
    12.6737  12.7185  12.7470  12.8257  12.8729  13.0431  13.2762  14.1587
    14.1991  15.3122  15.4858  16.1734  16.1847  16.2658  16.3866  16.4139
    16.6231  16.6524  16.8483  16.8764  16.9744  17.0082  17.0731  17.1108
    17.1378  17.1438  17.1544  17.2897  17.3367  17.3635  17.5111  17.6445
    17.7987  18.0117  18.2145  18.3549  18.8990  18.9096  19.0357  19.1377
    19.5601  20.4897

          k = 0.1250 0.2500-0.0484 ( 13868 PWs)   bands (ev):

   -66.7776 -66.6925 -66.6925 -66.5983 -62.1782 -62.1782 -62.1471 -62.1471
   -35.5468 -35.5007 -35.4962 -35.4626 -35.4626 -35.4169 -35.4169 -35.4125
   -35.4125 -35.3742 -35.3215 -35.3171 -31.0038 -31.0038 -31.0033 -31.0033
   -30.9977 -30.9977 -30.9739 -30.9739 -30.9721 -30.9721 -30.9665 -30.9665
     6.9249   6.9625   7.1750   7.2717   7.6737   7.6842   8.1476   8.1753
     8.5209   8.5582   8.7513   8.7708   8.8077   8.8730   8.9751   8.9793
     9.0271   9.0464   9.0957   9.1112   9.1334   9.3116   9.3307   9.4193
     9.4934   9.5206   9.5216   9.5424   9.5447   9.5584   9.5647   9.5949
     9.6801   9.6865   9.7142   9.8194   9.8494   9.8757   9.9645   9.9727
    10.0206  10.0237  10.0384  10.0463  10.0996  10.1022  10.2364  10.2461
    10.3841  10.4153  10.4261  10.4394  10.5245  10.5541  10.5557  10.5904
    10.6327  10.6864  10.7825  10.8422  10.8433  10.9056  10.9162  10.9622
    11.0126  11.0410  11.0495  11.0803  11.1679  11.2017  11.3015  11.3291
    11.3540  11.4608  11.4755  11.5166  11.5726  11.5726  11.6478  11.6935
    11.6988  11.7188  11.7864  11.8084  11.8093  11.8568  11.9093  11.9103
    11.9915  12.0122  12.0671  12.0980  12.1335  12.1648  12.1940  12.2235
    12.2292  12.2803  12.4140  12.5089  12.5330  12.5566  12.6304  12.6560
    12.7149  12.7391  12.7891  12.8096  12.8349  12.8837  13.5946  13.6963
    14.5729  15.0395  15.7074  16.0364  16.2052  16.3283  16.3332  16.4812
    16.6139  16.6228  16.8710  16.8805  16.9776  16.9887  17.0931  17.1075
    17.1223  17.1434  17.1537  17.2970  17.3191  17.3916  17.4655  17.6879
    17.7371  18.0502  18.3399  18.4781  18.5917  18.6467  19.2311  19.2622
    19.8918  19.9540

          k = 0.1250 0.3750 0.0000 ( 13875 PWs)   bands (ev):

   -66.7780 -66.6930 -66.6930 -66.5987 -62.1773 -62.1773 -62.1462 -62.1462
   -35.5465 -35.5047 -35.4960 -35.4623 -35.4622 -35.4210 -35.4210 -35.4122
   -35.4122 -35.3738 -35.3256 -35.3168 -31.0087 -31.0087 -31.0033 -31.0033
   -30.9974 -30.9974 -30.9775 -30.9775 -30.9734 -30.9734 -30.9661 -30.9661
     7.7798   7.8676   7.9393   8.1743   8.1752   8.3426   8.3603   8.3938
     8.4093   8.4953   8.5305   8.6417   8.7207   8.7972   8.9446   8.9919
     9.0287   9.1050   9.1136   9.1668   9.2588   9.2789   9.3317   9.3415
     9.3428   9.3745   9.3844   9.4245   9.4680   9.5577   9.5626   9.6215
     9.6315   9.6702   9.6828   9.7907   9.8636   9.8871   9.8918   9.9358
     9.9500   9.9591   9.9919  10.0565  10.1919  10.2684  10.3506  10.3560
    10.4508  10.4622  10.5453  10.5768  10.6484  10.6630  10.7496  10.8024
    10.8145  10.8507  10.8996  10.9313  11.1097  11.1339  11.1393  11.1620
    11.2369  11.2807  11.2892  11.3237  11.3370  11.4032  11.5255  11.5327
    11.5412  11.5975  11.6125  11.6604  11.6711  11.7332  11.7580  11.7944
    11.8032  11.8234  11.8675  11.8897  11.9278  11.9525  11.9729  11.9948
    12.0305  12.0626  12.0907  12.1432  12.1441  12.2707  12.3260  12.3298
    12.4274  12.4707  12.5208  12.5259  12.5367  12.5869  12.5998  12.7162
    12.8072  12.8186  12.8850  13.0508  13.1147  13.4881  13.6460  14.2370
    14.2397  14.3952  14.6245  14.7121  14.9691  14.9907  15.4705  15.5070
    15.6683  15.7046  16.2733  16.2918  16.8282  16.8423  16.8656  16.8818
    17.0103  17.0893  17.1116  17.1235  17.1260  17.1816  17.1886  17.2850
    17.6175  17.6216  17.8177  17.8658  18.0257  18.0299  18.2342  18.3401
    19.6563  19.7764

          k = 0.1250 0.3750-0.0484 ( 13882 PWs)   bands (ev):

   -66.7780 -66.6930 -66.6930 -66.5987 -62.1773 -62.1773 -62.1462 -62.1462
   -35.5465 -35.5047 -35.4960 -35.4623 -35.4622 -35.4210 -35.4210 -35.4122
   -35.4122 -35.3738 -35.3256 -35.3168 -31.0087 -31.0087 -31.0033 -31.0033
   -30.9974 -30.9974 -30.9775 -30.9775 -30.9734 -30.9734 -30.9661 -30.9661
     7.7893   7.8365   7.9939   8.0763   8.2868   8.2908   8.3651   8.3779
     8.4357   8.4734   8.5596   8.6090   8.7598   8.7728   8.9462   8.9899
     9.0474   9.0559   9.1205   9.2355   9.2358   9.2718   9.3072   9.3442
     9.3445   9.3843   9.4166   9.4290   9.4313   9.5118   9.5583   9.5968
     9.6714   9.6748   9.7523   9.8122   9.8312   9.8690   9.9084   9.9089
     9.9336   9.9642   9.9897  10.0535  10.2017  10.2334  10.3533  10.4334
    10.4588  10.4718  10.4982  10.5710  10.6468  10.6506  10.7492  10.7618
    10.8367  10.8550  10.9104  10.9784  11.1041  11.1160  11.1195  11.1459
    11.2349  11.2553  11.3128  11.3352  11.3688  11.4371  11.4433  11.5357
    11.5677  11.5959  11.6151  11.6475  11.6849  11.7293  11.7566  11.8036
    11.8105  11.8260  11.8456  11.9030  11.9328  11.9519  11.9721  11.9897
    12.0333  12.0626  12.0801  12.1118  12.1915  12.2603  12.2973  12.3758
    12.4376  12.4412  12.5142  12.5218  12.5462  12.5747  12.6222  12.6963
    12.7853  12.8728  12.9123  12.9432  13.2625  13.3133  13.8834  13.9234
    14.4207  14.4255  14.5911  14.6947  14.9872  15.0159  15.3946  15.4067
    15.7513  15.8078  16.2300  16.2791  16.8126  16.8289  16.8886  16.8955
    17.0164  17.0856  17.1161  17.1250  17.1297  17.1322  17.2452  17.2619
    17.6099  17.6338  17.8108  17.8561  18.0248  18.0297  18.2417  18.3497
    19.6936  19.8500

          k = 0.1250-0.5000 0.0000 ( 13890 PWs)   bands (ev):

   -66.7784 -66.6933 -66.6933 -66.5991 -62.1768 -62.1768 -62.1457 -62.1457
   -35.5463 -35.5064 -35.4959 -35.4621 -35.4621 -35.4226 -35.4226 -35.4121
   -35.4121 -35.3737 -35.3272 -35.3167 -31.0110 -31.0110 -31.0030 -31.0030
   -30.9972 -30.9972 -30.9797 -30.9797 -30.9732 -30.9732 -30.9659 -30.9659
     8.2958   8.3195   8.3468   8.3647   8.4065   8.4607   8.4729   8.4809
     8.5735   8.5990   8.6289   8.6326   8.6350   8.6670   8.8298   8.8701
     8.9727   9.0505   9.0869   9.0931   9.1655   9.1676   9.2547   9.2790
     9.3215   9.3470   9.3855   9.3952   9.5263   9.5393   9.5548   9.6447
     9.6706   9.7075   9.7358   9.8068   9.8512   9.8540   9.8844   9.8885
     9.8921   9.8924   9.9447   9.9662  10.3257  10.3802  10.4034  10.4490
    10.5147  10.5317  10.5814  10.5956  10.6975  10.8091  10.8425  10.8429
    10.8629  10.9324  10.9836  11.0209  11.1217  11.2084  11.2459  11.3350
    11.4546  11.4770  11.4775  11.5181  11.5626  11.6033  11.6102  11.6215
    11.6251  11.6627  11.6840  11.7204  11.7577  11.8164  11.8508  11.8706
    11.8886  11.8891  11.9762  12.0355  12.0494  12.0769  12.1131  12.1152
    12.1340  12.2017  12.2238  12.2626  12.3192  12.3703  12.4670  12.4697
    12.5027  12.5346  12.5625  12.6323  12.6349  12.6428  12.8156  12.8467
    12.8484  12.8506  13.1627  13.1758  13.1821  13.1995  13.5733  13.5943
    13.7276  13.7527  14.1763  14.2376  14.3004  14.3628  14.8675  14.9312
    14.9889  15.0779  15.4616  15.5254  16.6469  16.7600  16.8187  16.8424
    16.9970  17.0028  17.0120  17.0158  17.0174  17.0577  17.0854  17.1441
    17.6716  17.7562  17.7781  17.7862  18.0145  18.0388  18.0457  18.0475
    19.6685  19.6733

          k = 0.1250-0.5000-0.0484 ( 13872 PWs)   bands (ev):

   -66.7784 -66.6933 -66.6933 -66.5991 -62.1768 -62.1768 -62.1457 -62.1457
   -35.5463 -35.5064 -35.4959 -35.4621 -35.4621 -35.4226 -35.4226 -35.4121
   -35.4121 -35.3737 -35.3272 -35.3167 -31.0110 -31.0110 -31.0031 -31.0030
   -30.9972 -30.9972 -30.9797 -30.9797 -30.9732 -30.9732 -30.9659 -30.9659
     8.2958   8.3196   8.3465   8.3648   8.4076   8.4573   8.4766   8.4791
     8.5739   8.6010   8.6288   8.6309   8.6347   8.6668   8.8339   8.8689
     8.9729   9.0315   9.0916   9.1031   9.1651   9.1706   9.2547   9.2812
     9.3205   9.3423   9.4206   9.4207   9.4604   9.4811   9.5892   9.6452
     9.7020   9.7134   9.7530   9.8244   9.8413   9.8584   9.8597   9.8812
     9.8873   9.8943   9.9446   9.9661  10.3199  10.3647  10.4272  10.4369
    10.5170  10.5516  10.5747  10.5950  10.6932  10.8092  10.8352  10.8401
    10.8539  10.9418  10.9992  11.0290  11.1219  11.2075  11.2388  11.3310
    11.4397  11.4731  11.4733  11.5056  11.5624  11.5997  11.6220  11.6397
    11.6468  11.6653  11.6658  11.7234  11.7783  11.7957  11.8379  11.8812
    11.8993  11.9027  11.9583  12.0007  12.0629  12.0902  12.1083  12.1099
    12.1532  12.2021  12.2192  12.2412  12.3478  12.3823  12.4452  12.4545
    12.4973  12.5366  12.5538  12.6426  12.6808  12.6967  12.7087  12.7443
    12.9799  12.9984  13.0041  13.0047  13.3366  13.3489  13.4445  13.4682
    13.8633  13.9037  14.0035  14.0484  14.5065  14.5463  14.6842  14.7206
    15.1447  15.2082  15.4096  15.4922  16.6529  16.7853  16.7949  16.8379
    16.9971  17.0026  17.0117  17.0158  17.0187  17.0596  17.0846  17.1438
[...]
    11.4282  11.4944  11.5193  11.5797  11.5967  11.6534  11.6722  11.6923
    11.7267  11.8530  11.8632  11.8928  11.9003  11.9552  11.9662  12.0287
    12.0484  12.0548  12.0842  12.1473  12.1865  12.2607  12.3789  12.4048
    12.4753  12.5004  12.5385  12.5594  12.5697  12.6160  12.6435  12.8080
    12.8237  13.1265  13.1871  13.5541  13.7170  14.1621  14.1731  14.6541
    15.0254  15.1614  15.3519  15.3679  15.4806  15.5683  15.7887  15.8652
    16.5258  16.6334  16.7113  16.7687  16.9120  16.9926  17.0883  17.1138
    17.1822  17.2337  17.2849  17.4749  17.4987  17.5623  17.6753  17.8473
    17.9703  18.0234  18.1147  18.2359  18.4330  18.5615  18.7141  19.0359
    19.4268  19.4632

          k = 0.2500 0.3750-0.0484 ( 13916 PWs)   bands (ev):

   -66.7844 -66.7844 -66.7346 -66.7346 -62.1977 -62.1113 -62.1113 -62.0425
   -35.5582 -35.5582 -35.5094 -35.5094 -35.5063 -35.5063 -35.5051 -35.5051
   -35.4615 -35.4615 -35.4572 -35.4572 -31.0273 -31.0227 -31.0215 -30.9442
   -30.9442 -30.9385 -30.9385 -30.9341 -30.9341 -30.8736 -30.8729 -30.8671
     7.9163   7.9871   8.2964   8.3380   8.5454   8.5791   8.6836   8.7545
     8.7631   8.7685   8.7931   8.8364   8.9784   9.0065   9.0164   9.0504
     9.1945   9.1976   9.2595   9.3117   9.3197   9.3322   9.3326   9.3604
     9.3630   9.4143   9.4630   9.5471   9.5645   9.6196   9.6581   9.6892
     9.7108   9.7496   9.7837   9.8339   9.8484   9.8693   9.9358   9.9995
    10.0694  10.0836  10.1359  10.2027  10.2059  10.2391  10.2586  10.2887
    10.3515  10.3576  10.4136  10.4191  10.5050  10.5626  10.5793  10.6037
    10.6530  10.7103  10.7466  10.7752  10.8745  10.8868  10.9076  10.9158
    10.9331  10.9982  11.0961  11.1972  11.2140  11.2334  11.2758  11.3239
    11.4298  11.4924  11.5376  11.5441  11.6021  11.6600  11.6835  11.6865
    11.7575  11.7943  11.8858  11.8926  11.9072  11.9535  11.9658  11.9999
    12.0623  12.0644  12.1084  12.1351  12.1987  12.2367  12.3803  12.4032
    12.4764  12.5085  12.5425  12.5534  12.5630  12.6146  12.6949  12.7048
    12.9473  12.9880  13.3216  13.4411  13.8252  13.9917  14.3340  14.5760
    15.1300  15.1909  15.2586  15.2600  15.5648  15.6405  15.7628  15.8280
    16.5315  16.6327  16.7085  16.7714  16.9312  16.9702  17.0904  17.1059
    17.1861  17.2316  17.3055  17.4427  17.5227  17.5593  17.6631  17.8369
    17.9653  17.9771  18.2407  18.3528  18.3989  18.4453  18.6364  19.0236
    19.4287  19.4598

          k = 0.2500-0.5000 0.0000 ( 13940 PWs)   bands (ev):

   -66.7846 -66.7846 -66.7348 -66.7348 -62.1973 -62.1109 -62.1109 -62.0421
   -35.5580 -35.5580 -35.5111 -35.5111 -35.5061 -35.5061 -35.5050 -35.5050
   -35.4631 -35.4631 -35.4570 -35.4570 -31.0295 -31.0225 -31.0214 -30.9464
   -30.9464 -30.9383 -30.9383 -30.9339 -30.9339 -30.8751 -30.8735 -30.8670
     8.3257   8.3486   8.3830   8.4060   8.6000   8.6442   8.7018   8.7592
     8.7602   8.7674   8.7858   8.8112   8.8989   8.9324   8.9552   9.0217
     9.0997   9.1261   9.1624   9.1939   9.2143   9.2581   9.2630   9.2708
     9.2961   9.3442   9.4665   9.5272   9.5344   9.5657   9.6602   9.6730
     9.7039   9.7275   9.8487   9.8518   9.8973   9.9371  10.0071  10.0255
    10.1543  10.2126  10.2319  10.2594  10.3379  10.4224  10.4225  10.5087
    10.5120  10.5293  10.5401  10.5774  10.6863  10.7060  10.7889  10.7953
    10.8088  10.8646  10.9312  10.9415  10.9678  11.0173  11.0351  11.1092
    11.1384  11.1620  11.1765  11.2230  11.2551  11.2644  11.2780  11.3075
    11.5515  11.5994  11.6002  11.6027  11.6448  11.6660  11.6782  11.6795
    11.8381  11.8766  11.8835  11.9115  11.9575  11.9758  11.9964  12.0018
    12.1455  12.1640  12.1743  12.1880  12.3097  12.3116  12.3860  12.3892
    12.4303  12.4543  12.5049  12.5122  12.8290  12.8323  12.9803  12.9979
    13.2503  13.2705  13.4905  13.4957  13.8005  13.8332  14.1435  14.1571
    14.4042  14.4087  14.7267  14.8204  15.0082  15.1345  15.3509  15.3823
    16.2688  16.2825  16.4274  16.4952  16.9701  17.0380  17.0901  17.1128
    17.1415  17.1469  17.1696  17.3216  17.4764  17.6254  17.6867  17.7432
    18.0667  18.0696  18.1179  18.1706  18.1779  18.2960  18.5011  18.5059
    19.5489  19.5518

          k = 0.2500-0.5000-0.0484 ( 13912 PWs)   bands (ev):

   -66.7846 -66.7846 -66.7348 -66.7348 -62.1973 -62.1109 -62.1109 -62.0421
   -35.5580 -35.5580 -35.5111 -35.5111 -35.5061 -35.5061 -35.5050 -35.5050
   -35.4631 -35.4631 -35.4570 -35.4570 -31.0295 -31.0225 -31.0214 -30.9464
   -30.9464 -30.9383 -30.9383 -30.9339 -30.9339 -30.8751 -30.8735 -30.8670
     8.3265   8.3511   8.3793   8.4041   8.6038   8.6596   8.6860   8.7592
     8.7620   8.7663   8.7847   8.8049   8.9029   8.9306   8.9569   9.0150
     9.1159   9.1424   9.1567   9.1744   9.2194   9.2548   9.2588   9.2726
     9.2961   9.3452   9.4669   9.5326   9.5409   9.5771   9.6184   9.6358
     9.7693   9.7894   9.8029   9.8032   9.9040   9.9549   9.9997  10.0340
    10.1567  10.2023  10.2398  10.2574  10.3387  10.4207  10.4661  10.4669
    10.5096  10.5286  10.5297  10.5689  10.7043  10.7202  10.7647  10.8031
    10.8374  10.8899  10.8961  10.9012  10.9657  11.0564  11.0586  11.0765
    11.1397  11.1481  11.1746  11.2426  11.2525  11.2738  11.2848  11.2869
    11.5518  11.5992  11.5993  11.6040  11.6450  11.6659  11.6787  11.6790
    11.8390  11.8780  11.8825  11.9107  11.9686  11.9746  11.9883  11.9999
    12.1485  12.1588  12.1674  12.1766  12.3279  12.3462  12.3750  12.3988
    12.4313  12.4619  12.4699  12.4887  12.8800  12.8995  12.9078  12.9381
    13.3010  13.3200  13.4390  13.4396  13.8583  13.9045  14.0478  14.0783
    14.4992  14.5372  14.6141  14.7134  15.0892  15.2381  15.2705  15.3516
    16.2800  16.3063  16.4077  16.4873  16.9709  17.0389  17.0886  17.1101
    17.1446  17.1526  17.1649  17.3182  17.4778  17.6446  17.6669  17.7416
    18.0646  18.0798  18.1223  18.1548  18.2109  18.3113  18.4633  18.4666
    19.7232  19.7273

          k = 0.3750 0.3750 0.0000 ( 13948 PWs)   bands (ev):

   -66.7842 -66.7842 -66.7344 -66.7344 -62.1975 -62.1111 -62.1111 -62.0423
   -35.5579 -35.5579 -35.5091 -35.5091 -35.5091 -35.5091 -35.5060 -35.5060
   -35.4611 -35.4611 -35.4611 -35.4611 -31.0269 -31.0267 -31.0224 -30.9438
   -30.9438 -30.9436 -30.9436 -30.9337 -30.9337 -30.8733 -30.8725 -30.8723
     8.0163   8.0860   8.3618   8.3877   8.4043   8.5926   8.6014   8.7514
     8.9246   8.9777   8.9963   9.0089   9.0622   9.0744   9.1843   9.2052
     9.2766   9.2770   9.3014   9.3341   9.3421   9.3774   9.4166   9.4567
     9.4698   9.4924   9.5123   9.5355   9.6493   9.6709   9.6811   9.7900
     9.9171   9.9208   9.9449   9.9931  10.0048  10.0543  10.0885  10.0943
    10.0943  10.1159  10.1287  10.1445  10.1461  10.2323  10.2585  10.3436
    10.3904  10.4338  10.5012  10.5530  10.5628  10.6029  10.6810  10.7063
    10.7071  10.7485  10.8428  10.8598  10.9664  11.0555  11.0678  11.0686
    11.0785  11.1279  11.2276  11.3728  11.4559  11.4815  11.4867  11.5201
    11.5238  11.5341  11.5894  11.5914  11.6111  11.6373  11.6735  11.6757
    11.7725  11.9424  11.9651  11.9670  11.9708  11.9823  11.9828  12.0162
    12.0208  12.0336  12.1198  12.1334  12.1336  12.2602  12.3248  12.3312
    12.3714  12.4088  12.5517  12.5777  12.6667  12.7441  12.7647  13.1221
    13.1517  13.4503  13.7976  14.0728  14.1371  14.5793  14.9320  15.0708
    15.1011  15.1876  15.2669  15.4460  15.8428  15.8799  16.1041  16.2109
    16.9179  16.9571  17.0414  17.0941  17.1032  17.1547  17.1572  17.2247
    17.3397  17.4068  17.5567  17.7280  17.7359  17.8876  17.9060  17.9891
    18.0586  18.0916  18.1288  18.2627  18.3011  18.4518  18.6482  18.7568
    18.7767  18.9124

          k = 0.3750 0.3750-0.0484 ( 13950 PWs)   bands (ev):

   -66.7842 -66.7842 -66.7344 -66.7344 -62.1975 -62.1111 -62.1111 -62.0423
   -35.5579 -35.5579 -35.5091 -35.5091 -35.5091 -35.5091 -35.5060 -35.5060
   -35.4611 -35.4611 -35.4611 -35.4611 -31.0269 -31.0267 -31.0224 -30.9438
   -30.9438 -30.9436 -30.9436 -30.9337 -30.9337 -30.8733 -30.8725 -30.8723
     8.0185   8.0813   8.3629   8.4019   8.4270   8.4874   8.6776   8.7650
     8.9100   8.9803   8.9874   9.0144   9.0673   9.0681   9.1403   9.2000
     9.3019   9.3058   9.3102   9.3308   9.3677   9.3918   9.4093   9.4232
     9.4234   9.5002   9.5519   9.5773   9.5821   9.6143   9.7895   9.8315
     9.8453   9.9208   9.9209   9.9223  10.0146  10.0939  10.0942  10.1100
    10.1147  10.1198  10.1400  10.1420  10.1616  10.2326  10.2750  10.3099
    10.3818  10.4306  10.4622  10.4962  10.6249  10.6380  10.6655  10.7074
    10.7121  10.8097  10.8426  10.8598  10.8891  11.0617  11.0622  11.0678
    11.0797  11.1071  11.2870  11.3643  11.4586  11.4766  11.5035  11.5179
    11.5236  11.5422  11.5757  11.5807  11.6041  11.6058  11.6739  11.6754
    11.8259  11.9115  11.9428  11.9677  11.9705  11.9790  12.0167  12.0190
    12.0199  12.0627  12.0688  12.1109  12.1996  12.2311  12.3267  12.3275
    12.3766  12.4048  12.5852  12.6076  12.6162  12.6620  12.8863  13.0009
    13.2642  13.3931  13.9097  13.9118  14.2195  14.5527  14.9668  15.0461
    15.1194  15.1548  15.2840  15.4434  15.8430  15.8795  16.1154  16.1990
    16.9472  16.9884  17.0253  17.0936  17.0942  17.0945  17.1572  17.1804
    17.4398  17.4524  17.4705  17.7215  17.7601  17.8620  17.9488  17.9889
    18.0416  18.0900  18.1682  18.3069  18.3806  18.4107  18.4814  18.5150
    18.7532  19.0774

          k = 0.3750-0.5000 0.0000 ( 13934 PWs)   bands (ev):

   -66.7842 -66.7842 -66.7344 -66.7344 -62.1973 -62.1109 -62.1109 -62.0421
   -35.5578 -35.5578 -35.5107 -35.5107 -35.5089 -35.5089 -35.5059 -35.5059
   -35.4627 -35.4627 -35.4610 -35.4610 -31.0290 -31.0266 -31.0222 -30.9459
   -30.9459 -30.9435 -30.9435 -30.9336 -30.9336 -30.8746 -30.8732 -30.8722
     8.1390   8.1505   8.1954   8.2089   8.4875   8.5202   8.6130   8.7209
     8.8094   8.9219   9.1066   9.1231   9.1308   9.1399   9.1796   9.2092
     9.2095   9.2211   9.2211   9.2610   9.2630   9.3554   9.3926   9.4373
     9.4387   9.4608   9.5649   9.5658   9.6230   9.6234   9.8544   9.8745
     9.8768   9.8792   9.9428   9.9546  10.0391  10.0480  10.0570  10.0613
    10.0946  10.1031  10.2351  10.2403  10.2678  10.3507  10.3695  10.3734
    10.3866  10.4828  10.6477  10.6732  10.7153  10.7192  10.7929  10.8331
    10.9372  10.9529  11.0460  11.0639  11.0737  11.0850  11.1986  11.2384
    11.2447  11.3306  11.3680  11.3888  11.4413  11.4452  11.5142  11.5432
    11.5448  11.6060  11.7039  11.7096  11.7274  11.7733  11.7918  11.8063
    11.9137  11.9519  11.9958  12.0021  12.0255  12.0373  12.0456  12.0558
    12.1849  12.1889  12.2153  12.2513  12.2716  12.2852  12.3104  12.3527
    12.3610  12.3716  12.5031  12.5331  13.0399  13.0424  13.1545  13.1739
    13.7238  13.7566  13.8632  13.9209  14.3229  14.3945  14.6780  14.6890
    14.8194  14.8677  14.9849  14.9905  15.8810  15.9497  15.9663  16.0573
    16.9507  16.9564  17.0124  17.0408  17.0606  17.0719  17.1457  17.2569
    17.2629  17.3426  17.7193  17.7341  17.8526  17.9447  18.0467  18.1249
    18.1523  18.1860  18.2284  18.2670  18.5878  18.6770  18.6980  18.8156
    18.8734  18.8862

          k = 0.3750-0.5000-0.0484 ( 13940 PWs)   bands (ev):

   -66.7842 -66.7842 -66.7344 -66.7344 -62.1973 -62.1109 -62.1109 -62.0421
   -35.5578 -35.5578 -35.5107 -35.5107 -35.5089 -35.5089 -35.5059 -35.5059
   -35.4627 -35.4627 -35.4610 -35.4610 -31.0290 -31.0266 -31.0222 -30.9459
   -30.9459 -30.9435 -30.9435 -30.9336 -30.9336 -30.8746 -30.8732 -30.8722
     8.1401   8.1524   8.1921   8.2065   8.4975   8.5558   8.5683   8.6808
     8.8608   8.9774   9.0448   9.0816   9.1214   9.1403   9.1756   9.1813
     9.2178   9.2247   9.2546   9.2724   9.2972   9.3690   9.3780   9.4488
     9.4558   9.4808   9.4918   9.5064   9.7284   9.7297   9.7322   9.7345
     9.9254   9.9258   9.9671   9.9791  10.0202  10.0459  10.0513  10.0608
    10.1458  10.1550  10.1799  10.2232  10.2537  10.2685  10.3364  10.3460
    10.5041  10.6027  10.6430  10.6595  10.6754  10.7308  10.7368  10.7470
    10.9762  11.0011  11.0623  11.0726  11.1068  11.1100  11.1480  11.1579
    11.2952  11.3506  11.3568  11.3634  11.4527  11.4778  11.4856  11.4977
    11.5790  11.6261  11.6861  11.7061  11.7352  11.7739  11.7916  11.8064
    11.9151  11.9540  11.9955  12.0011  12.0289  12.0387  12.0395  12.0510
    12.1885  12.1956  12.1968  12.2261  12.2843  12.2901  12.3416  12.3425
    12.3732  12.4313  12.4433  12.5077  13.0798  13.0830  13.1151  13.1391
    13.7365  13.7747  13.8452  13.9081  14.3324  14.4070  14.6458  14.6664
    14.8566  14.9175  14.9514  14.9754  15.8804  15.9529  15.9636  16.0578
    16.9758  16.9870  17.0089  17.0090  17.0638  17.0712  17.1046  17.1629
    17.3383  17.4584  17.6049  17.7015  17.9018  18.0085  18.0725  18.0806
    18.1060  18.1762  18.2056  18.2976  18.6793  18.7039  18.7502  18.7585
    18.8412  18.8745

          k =-0.5000-0.5000 0.0000 ( 13964 PWs)   bands (ev):

   -66.7842 -66.7842 -66.7344 -66.7344 -62.1971 -62.1107 -62.1107 -62.0420
   -35.5577 -35.5577 -35.5105 -35.5105 -35.5105 -35.5105 -35.5058 -35.5058
   -35.4625 -35.4625 -35.4625 -35.4625 -31.0287 -31.0287 -31.0221 -30.9457
   -30.9457 -30.9457 -30.9457 -30.9335 -30.9335 -30.8744 -30.8744 -30.8731
     8.0573   8.0647   8.1120   8.1220   8.4314   8.4615   8.5650   8.6831
     8.7193   8.8410   9.1351   9.1413   9.1816   9.1865   9.2397   9.2397
     9.2872   9.2872   9.3136   9.3136   9.4109   9.4156   9.4293   9.4293
     9.4469   9.4469   9.6838   9.6838   9.6892   9.6892   9.8466   9.8983
     9.8983   9.8986   9.8986   9.9193   9.9709   9.9996  10.0106  10.0106
    10.0426  10.0426  10.0592  10.0592  10.1022  10.1022  10.4984  10.4984
    10.5543  10.5836  10.6315  10.6315  10.6667  10.6834  11.0964  11.1100
    11.1189  11.1265  11.1751  11.1751  11.1944  11.1944  11.3557  11.4048
    11.4130  11.4143  11.4359  11.4360  11.4747  11.4747  11.6051  11.6051
    11.9445  11.9446  11.9583  11.9611  11.9612  11.9915  11.9915  12.0343
    12.0399  12.0399  12.0507  12.0542  12.0543  12.0894  12.0895  12.1265
    12.1568  12.1568  12.1930  12.1954  12.2090  12.2591  12.2704  12.3216
    12.3358  12.3572  12.4159  12.4159  13.3612  13.4027  13.4183  13.4373
    13.8468  13.8468  14.0704  14.0704  14.3356  14.3356  14.7398  14.7398
    15.1918  15.1918  15.2492  15.2492  16.5350  16.5350  16.6030  16.6704
    16.6977  16.7376  16.7616  16.7616  16.8893  16.9332  17.0056  17.0552
    17.3379  17.3379  17.7551  17.7640  17.8581  17.8638  18.0367  18.0690
    18.0756  18.0756  18.1463  18.1464  18.1853  18.2024  18.2024  18.2227
    18.2972  18.4971

          k =-0.5000-0.5000-0.0484 ( 13992 PWs)   bands (ev):

   -66.7842 -66.7842 -66.7344 -66.7344 -62.1971 -62.1107 -62.1107 -62.0420
   -35.5577 -35.5577 -35.5105 -35.5105 -35.5105 -35.5105 -35.5058 -35.5058
   -35.4625 -35.4625 -35.4625 -35.4625 -31.0287 -31.0287 -31.0221 -30.9457
   -30.9457 -30.9457 -30.9457 -30.9335 -30.9335 -30.8744 -30.8744 -30.8731
     8.0584   8.0664   8.1092   8.1197   8.4433   8.5060   8.5069   8.6180
     8.8003   8.9039   9.0108   9.0433   9.2410   9.2410   9.2766   9.2766
     9.3198   9.3340   9.3355   9.3450   9.3450   9.3455   9.3688   9.3688
     9.5429   9.5429   9.5517   9.5517   9.8504   9.8504   9.8540   9.8607
     9.8607   9.8984   9.8984   9.8987   9.8987   9.9455   9.9478   9.9962
    10.0434  10.0434  10.0466  10.0466  10.2729  10.2729  10.3245  10.3245
    10.5544  10.5837  10.6666  10.6834  10.7843  10.7843  10.9646  10.9646
    11.0966  11.1113  11.1175  11.1261  11.3559  11.4075  11.4117  11.4128
    11.4359  11.4360  11.4461  11.4461  11.4727  11.4727  11.4747  11.4747
    11.9445  11.9446  11.9583  11.9611  11.9612  11.9915  11.9915  12.0343
    12.0399  12.0399  12.0507  12.0542  12.0543  12.0894  12.0895  12.1265
    12.1961  12.1961  12.1966  12.1983  12.2030  12.2521  12.2765  12.3259
    12.3322  12.3568  12.3914  12.3914  13.3612  13.4027  13.4183  13.4373
    13.8877  13.8877  14.0046  14.0046  14.3724  14.3724  14.7277  14.7277
    15.1966  15.1966  15.2463  15.2463  16.5454  16.5454  16.6030  16.6704
    16.6977  16.7356  16.7356  16.7375  16.8897  16.9336  17.0050  17.0545
    17.4131  17.4131  17.7909  17.8006  17.8126  17.8140  17.8286  17.8286
    18.0528  18.0690  18.1463  18.1463  18.2112  18.2227  18.2806  18.4953
    18.6213  18.6213

     the Fermi energy is    15.2678 ev

!    total energy              =  -14694.00720233 Ry
     Harris-Foulkes estimate   =  -14694.00719438 Ry
     estimated scf accuracy    <       0.00000067 Ry

     total all-electron energy =   -626921.602924 Ry

     The total energy is the sum of the following terms:

     one-electron contribution =    -714.51328081 Ry
     hartree contribution      =     656.55855125 Ry
     xc contribution           =    -737.87513376 Ry
     ewald contribution        =   -2196.78933708 Ry
     Hubbard energy            =       0.45135483 Ry
     one-center paw contrib.   =  -11701.83935676 Ry

     total magnetization       =    -0.25 Bohr mag/cell
     absolute magnetization    =    37.26 Bohr mag/cell

     convergence has been achieved in  23 iterations

     Writing output data file mnau2.save/
 
     init_run     :     14.01s CPU     14.41s WALL (       1 calls)
     electrons    :    792.33s CPU    813.40s WALL (       1 calls)

     Called by init_run:
     wfcinit      :     12.52s CPU     12.86s WALL (       1 calls)
     potinit      :      0.75s CPU      0.77s WALL (       1 calls)
     hinit0       :      0.45s CPU      0.47s WALL (       1 calls)

     Called by electrons:
     c_bands      :    698.67s CPU    716.91s WALL (      23 calls)
     sum_band     :     81.06s CPU     83.32s WALL (      23 calls)
     v_of_rho     :      1.18s CPU      1.19s WALL (      24 calls)
     newd         :      3.02s CPU      3.05s WALL (      24 calls)
     PAW_pot      :      8.56s CPU      8.66s WALL (      24 calls)
     mix_rho      :      0.22s CPU      0.23s WALL (      23 calls)

     Called by c_bands:
     init_us_2    :      3.43s CPU      3.47s WALL (    2880 calls)
     cegterg      :    675.18s CPU    693.24s WALL (    1380 calls)

     Called by sum_band:
     sum_band:bec :      0.99s CPU      1.00s WALL (    1380 calls)
     addusdens    :      4.76s CPU      4.99s WALL (      23 calls)

     Called by *egterg:
     h_psi        :    281.41s CPU    288.99s WALL (    5291 calls)
     s_psi        :     28.20s CPU     28.24s WALL (    5351 calls)
     g_psi        :      1.02s CPU      1.03s WALL (    3851 calls)
     cdiaghg      :    279.86s CPU    290.07s WALL (    5231 calls)

     Called by h_psi:
     h_psi:pot    :    266.33s CPU    273.74s WALL (    5291 calls)
     h_psi:calbec :     37.82s CPU     39.10s WALL (    5291 calls)
     vloc_psi     :    201.25s CPU    206.91s WALL (    5291 calls)
     add_vuspsi   :     27.22s CPU     27.69s WALL (    5291 calls)
     vhpsi        :     14.39s CPU     14.55s WALL (    5291 calls)

     General routines
     calbec       :     67.20s CPU     69.36s WALL (   13402 calls)
     fft          :      1.09s CPU      1.13s WALL (     596 calls)
     ffts         :      0.04s CPU      0.05s WALL (      94 calls)
     fftw         :    237.21s CPU    243.92s WALL ( 1348406 calls)
     interpolate  :      0.09s CPU      0.09s WALL (      48 calls)
     davcio       :      0.00s CPU      0.01s WALL (      60 calls)
 
     Parallel routines
     fft_scatt_xy :     14.44s CPU     14.73s WALL ( 1349096 calls)
     fft_scatt_yz :    162.11s CPU    167.02s WALL ( 1349096 calls)

     Hubbard U routines
     new_ns       :      2.55s CPU      2.65s WALL (      23 calls)
     vhpsi        :     14.39s CPU     14.55s WALL (    5291 calls)
 
     PWSCF        : 13m35.63s CPU    14m18.41s WALL

 
   This run was terminated on:  21:58:14   6Apr2019            

=------------------------------------------------------------------------------=
   JOB DONE.
=------------------------------------------------------------------------------=
