
     Program PWSCF v.6.3MaX starts on  6Apr2019 at 21:58:15 

     This program is part of the open-source Quantum ESPRESSO suite
     for quantum simulation of materials; please cite
         "P. Giannozzi et al., J. Phys.:Condens. Matter 21 395502 (2009);
         "P. Giannozzi et al., J. Phys.:Condens. Matter 29 465901 (2017);
          URL http://www.quantum-espresso.org", 
     in publications or presentations arising from this work. More details at
     http://www.quantum-espresso.org/quote

     Parallel version (MPI), running on    32 processors

     MPI processes distributed on     4 nodes
     R & G space division:  proc/nbgrp/npool/nimage =      32
     Waiting for input...
     Reading input from standard input

     Current dimensions of program PWSCF are:
     Max number of different atomic species (ntypx) = 10
     Max number of k-points (npk) =  40000
     Max angular momentum in pseudopotentials (lmaxx) =  3
               file Mn.pbe-spn-kjpaw_psl.0.3.1.UPF: wavefunction(s)  3P 3D renormalized
               file Mn.pbe-spn-kjpaw_psl.0.3.1.UPF: wavefunction(s)  3P 3D renormalized
               file Au.pbe-dn-kjpaw_psl.0.1.UPF: wavefunction(s)  6S 6P 5D renormalized

     Subspace diagonalization in iterative solution of the eigenvalue problem:
     one sub-group per band group will be used
     scalapack distributed-memory algorithm (size of sub-group:  4*  4 procs)

 
     Parallelization info
     --------------------
     sticks:   dense  smooth     PW     G-vecs:    dense   smooth      PW
     Min          41      18      5                11487     3460     563
     Max          42      19      6                11527     3505     606
     Sum        1313     593    177               368373   111379   18691
 


     bravais-lattice index     =            0
     lattice parameter (alat)  =       6.4153  a.u.
     unit-cell volume          =    2724.7774 (a.u.)^3
     number of atoms/cell      =           24
     number of atomic types    =            3
     number of electrons       =       296.00
     number of Kohn-Sham states=          178
     kinetic-energy cutoff     =      45.0000  Ry
     charge density cutoff     =     400.0000  Ry
     convergence threshold     =      1.0E-06
     mixing beta               =       0.1000
     number of iterations used =            8  plain     mixing
     Exchange-correlation      = SLA PW PBX PBC ( 1  4  3  4 0 0)

     celldm(1)=   6.415315  celldm(2)=   0.000000  celldm(3)=   0.000000
     celldm(4)=   0.000000  celldm(5)=   0.000000  celldm(6)=   0.000000

     crystal axes: (cart. coord. in units of alat)
               a(1) = (   1.000000   0.000000   0.000000 )  
               a(2) = (   0.000000   1.000000   0.000000 )  
               a(3) = (   0.000000   0.000000  10.319937 )  

     reciprocal axes: (cart. coord. in units 2 pi/alat)
               b(1) = (  1.000000  0.000000  0.000000 )  
               b(2) = (  0.000000  1.000000  0.000000 )  
               b(3) = (  0.000000  0.000000  0.096900 )  


     PseudoPot. # 1 for Mn read from file:
     ./pseudo/Mn.pbe-spn-kjpaw_psl.0.3.1.UPF
     MD5 check sum: 7b43a3fb0e93e198b8dd8488d8cf503e
     Pseudo is Projector augmented-wave + core cor, Zval = 15.0
     Generated using "atomic" code by A. Dal Corso v.5.0.99 svn rev. 10869
     Shape of augmentation charge: PSQ
     Using radial grid of 1187 points,  6 beta functions with: 
                l(1) =   0
                l(2) =   0
                l(3) =   1
                l(4) =   1
                l(5) =   2
                l(6) =   2
     Q(r) pseudized with 0 coefficients 


     PseudoPot. # 2 for Mn read from file:
     ./pseudo/Mn.pbe-spn-kjpaw_psl.0.3.1.UPF
     MD5 check sum: 7b43a3fb0e93e198b8dd8488d8cf503e
     Pseudo is Projector augmented-wave + core cor, Zval = 15.0
     Generated using "atomic" code by A. Dal Corso v.5.0.99 svn rev. 10869
     Shape of augmentation charge: PSQ
     Using radial grid of 1187 points,  6 beta functions with: 
                l(1) =   0
                l(2) =   0
                l(3) =   1
                l(4) =   1
                l(5) =   2
                l(6) =   2
     Q(r) pseudized with 0 coefficients 


     PseudoPot. # 3 for Au read from file:
     ./pseudo/Au.pbe-dn-kjpaw_psl.0.1.UPF
     MD5 check sum: be11e2e8e535ebe2b3ccfb4f88f554cb
     Pseudo is Projector augmented-wave + core cor, Zval = 11.0
     Generated using "atomic" code by A. Dal Corso v.5.0.2 svn rev. 9415
     Shape of augmentation charge: PSQ
     Using radial grid of 1279 points,  6 beta functions with: 
                l(1) =   0
                l(2) =   0
                l(3) =   1
                l(4) =   1
                l(5) =   2
                l(6) =   2
     Q(r) pseudized with 0 coefficients 


     atomic species   valence    mass     pseudopotential
        Mn1           15.00    54.93800     Mn( 1.00)
        Mn2           15.00    54.93800     Mn( 1.00)
        Au            11.00   196.96600     Au( 1.00)

     Starting magnetic structure 
     atomic species   magnetization
        Mn1          0.800
        Mn2         -0.800
        Au           0.000


     Full LDA+U calculation (l_max = 2) with parameters (eV):
     U(  1) =   3.1200   J(  1) =   0.7000   B(  1) =   0.0803
     U(  2) =   3.1200   J(  2) =   0.7000   B(  2) =   0.0803



     16 Sym. Ops., with inversion, found ( 8 have fractional translation)



   Cartesian axes

     site n.     atom                  positions (alat units)
         1           Mn1 tau(   1) = (   0.0000000   0.0000000   0.0000000  )
         2           Mn1 tau(   2) = (   0.5000000   0.5000000   1.2899921  )
         3           Mn2 tau(   3) = (   0.0000000   0.0000000   2.5799843  )
         4           Mn1 tau(   4) = (   0.5000000   0.5000000   3.8699764  )
         5           Mn1 tau(   5) = (   0.0000000   0.0000000   5.1599686  )
         6           Mn2 tau(   6) = (   0.5000000   0.5000000   6.4499607  )
         7           Mn1 tau(   7) = (   0.0000000   0.0000000   7.7399528  )
         8           Mn2 tau(   8) = (   0.5000000   0.5000000   9.0299450  )
         9           Au  tau(   9) = (   0.5000000   0.5000000   0.4127975  )
        10           Au  tau(  10) = (   0.0000000   0.0000000   0.8771947  )
        11           Au  tau(  11) = (   0.0000000   0.0000000   1.7027896  )
        12           Au  tau(  12) = (   0.5000000   0.5000000   2.1671868  )
        13           Au  tau(  13) = (   0.5000000   0.5000000   2.9927818  )
        14           Au  tau(  14) = (   0.0000000   0.0000000   3.4571789  )
        15           Au  tau(  15) = (   0.0000000   0.0000000   4.2827739  )
        16           Au  tau(  16) = (   0.5000000   0.5000000   4.7471711  )
        17           Au  tau(  17) = (   0.5000000   0.5000000   5.5727660  )
        18           Au  tau(  18) = (   0.0000000   0.0000000   6.0371632  )
        19           Au  tau(  19) = (   0.0000000   0.0000000   6.8627582  )
        20           Au  tau(  20) = (   0.5000000   0.5000000   7.3271553  )
        21           Au  tau(  21) = (   0.5000000   0.5000000   8.1527503  )
        22           Au  tau(  22) = (   0.0000000   0.0000000   8.6171475  )
        23           Au  tau(  23) = (   0.0000000   0.0000000   9.4427424  )
        24           Au  tau(  24) = (   0.5000000   0.5000000   9.9071396  )

     number of k points=    30 (tetrahedron method)
                       cart. coord. in units 2pi/alat
        k(    1) = (   0.0000000   0.0000000   0.0000000), wk =   0.0078125
        k(    2) = (   0.0000000   0.0000000  -0.0484499), wk =   0.0078125
        k(    3) = (   0.0000000   0.1250000   0.0000000), wk =   0.0312500
        k(    4) = (   0.0000000   0.1250000  -0.0484499), wk =   0.0312500
        k(    5) = (   0.0000000   0.2500000   0.0000000), wk =   0.0312500
        k(    6) = (   0.0000000   0.2500000  -0.0484499), wk =   0.0312500
        k(    7) = (   0.0000000   0.3750000   0.0000000), wk =   0.0312500
        k(    8) = (   0.0000000   0.3750000  -0.0484499), wk =   0.0312500
        k(    9) = (   0.0000000  -0.5000000   0.0000000), wk =   0.0156250
        k(   10) = (   0.0000000  -0.5000000  -0.0484499), wk =   0.0156250
        k(   11) = (   0.1250000   0.1250000   0.0000000), wk =   0.0312500
        k(   12) = (   0.1250000   0.1250000  -0.0484499), wk =   0.0312500
        k(   13) = (   0.1250000   0.2500000   0.0000000), wk =   0.0625000
        k(   14) = (   0.1250000   0.2500000  -0.0484499), wk =   0.0625000
        k(   15) = (   0.1250000   0.3750000   0.0000000), wk =   0.0625000
        k(   16) = (   0.1250000   0.3750000  -0.0484499), wk =   0.0625000
        k(   17) = (   0.1250000  -0.5000000   0.0000000), wk =   0.0312500
        k(   18) = (   0.1250000  -0.5000000  -0.0484499), wk =   0.0312500
        k(   19) = (   0.2500000   0.2500000   0.0000000), wk =   0.0312500
        k(   20) = (   0.2500000   0.2500000  -0.0484499), wk =   0.0312500
        k(   21) = (   0.2500000   0.3750000   0.0000000), wk =   0.0625000
        k(   22) = (   0.2500000   0.3750000  -0.0484499), wk =   0.0625000
        k(   23) = (   0.2500000  -0.5000000   0.0000000), wk =   0.0312500
        k(   24) = (   0.2500000  -0.5000000  -0.0484499), wk =   0.0312500
        k(   25) = (   0.3750000   0.3750000   0.0000000), wk =   0.0312500
        k(   26) = (   0.3750000   0.3750000  -0.0484499), wk =   0.0312500
        k(   27) = (   0.3750000  -0.5000000   0.0000000), wk =   0.0312500
        k(   28) = (   0.3750000  -0.5000000  -0.0484499), wk =   0.0312500
        k(   29) = (  -0.5000000  -0.5000000   0.0000000), wk =   0.0078125
        k(   30) = (  -0.5000000  -0.5000000  -0.0484499), wk =   0.0078125

     Dense  grid:   368373 G-vectors     FFT dimensions: (  45,  45, 432)

     Smooth grid:   111379 G-vectors     FFT dimensions: (  27,  27, 288)

     Estimated max dynamical RAM per process >     143.50 MB

     Estimated total dynamical RAM >       4.48 GB
     Generating pointlists ...
     new r_m :   0.3377 (alat units)  2.1668 (a.u.) for type    1
     new r_m :   0.3377 (alat units)  2.1668 (a.u.) for type    2
     new r_m :   0.3377 (alat units)  2.1668 (a.u.) for type    3

     Check: negative/imaginary core charge=   -0.000006    0.000000

     Initial potential from superposition of free atoms

     starting charge  295.99426, renormalised to  296.00000
     Number of +U iterations with fixed ns =  0
     Starting occupations:
 --- enter write_ns ---
 LDA+U parameters:
U(  1) =   3.1200   J(  1) =   0.7000   B(  1) =   0.0803
U(  2) =   3.1200   J(  2) =   0.7000   B(  2) =   0.0803
atom    1   Tr[ns(na)] (up, down, total) =   5.00000  0.00000  5.00000
   spin  1
    eigenvalues: 
  1.000  1.000  1.000  1.000  1.000
    eigenvectors:
  1.000  0.000  0.000  0.000  0.000
  0.000  1.000  0.000  0.000  0.000
  0.000  0.000  1.000  0.000  0.000
  0.000  0.000  0.000  1.000  0.000
  0.000  0.000  0.000  0.000  1.000
    occupations:
  1.000  0.000  0.000  0.000  0.000
  0.000  1.000  0.000  0.000  0.000
  0.000  0.000  1.000  0.000  0.000
  0.000  0.000  0.000  1.000  0.000
  0.000  0.000  0.000  0.000  1.000
   spin  2
    eigenvalues: 
  0.000  0.000  0.000  0.000  0.000
    eigenvectors:
  1.000  0.000  0.000  0.000  0.000
  0.000  1.000  0.000  0.000  0.000
  0.000  0.000  1.000  0.000  0.000
  0.000  0.000  0.000  1.000  0.000
  0.000  0.000  0.000  0.000  1.000
    occupations:
  0.000  0.000  0.000  0.000  0.000
  0.000  0.000  0.000  0.000  0.000
  0.000  0.000  0.000  0.000  0.000
  0.000  0.000  0.000  0.000  0.000
  0.000  0.000  0.000  0.000  0.000
atomic mag. moment =     5.000000
atom    2   Tr[ns(na)] (up, down, total) =   5.00000  0.00000  5.00000
   spin  1
    eigenvalues: 
  1.000  1.000  1.000  1.000  1.000
    eigenvectors:
  1.000  0.000  0.000  0.000  0.000
  0.000  1.000  0.000  0.000  0.000
  0.000  0.000  1.000  0.000  0.000
  0.000  0.000  0.000  1.000  0.000
  0.000  0.000  0.000  0.000  1.000
    occupations:
  1.000  0.000  0.000  0.000  0.000
  0.000  1.000  0.000  0.000  0.000
  0.000  0.000  1.000  0.000  0.000
  0.000  0.000  0.000  1.000  0.000
  0.000  0.000  0.000  0.000  1.000
   spin  2
    eigenvalues: 
  0.000  0.000  0.000  0.000  0.000
    eigenvectors:
  1.000  0.000  0.000  0.000  0.000
  0.000  1.000  0.000  0.000  0.000
  0.000  0.000  1.000  0.000  0.000
  0.000  0.000  0.000  1.000  0.000
  0.000  0.000  0.000  0.000  1.000
    occupations:
  0.000  0.000  0.000  0.000  0.000
  0.000  0.000  0.000  0.000  0.000
  0.000  0.000  0.000  0.000  0.000
  0.000  0.000  0.000  0.000  0.000
  0.000  0.000  0.000  0.000  0.000
atomic mag. moment =     5.000000
atom    3   Tr[ns(na)] (up, down, total) =   0.00000  5.00000  5.00000
   spin  1
    eigenvalues: 
  0.000  0.000  0.000  0.000  0.000
    eigenvectors:
  1.000  0.000  0.000  0.000  0.000
  0.000  1.000  0.000  0.000  0.000
  0.000  0.000  1.000  0.000  0.000
  0.000  0.000  0.000  1.000  0.000
  0.000  0.000  0.000  0.000  1.000
    occupations:
  0.000  0.000  0.000  0.000  0.000
  0.000  0.000  0.000  0.000  0.000
  0.000  0.000  0.000  0.000  0.000
  0.000  0.000  0.000  0.000  0.000
  0.000  0.000  0.000  0.000  0.000
   spin  2
    eigenvalues: 
  1.000  1.000  1.000  1.000  1.000
    eigenvectors:
  1.000  0.000  0.000  0.000  0.000
  0.000  1.000  0.000  0.000  0.000
  0.000  0.000  1.000  0.000  0.000
  0.000  0.000  0.000  1.000  0.000
  0.000  0.000  0.000  0.000  1.000
    occupations:
  1.000  0.000  0.000  0.000  0.000
  0.000  1.000  0.000  0.000  0.000
  0.000  0.000  1.000  0.000  0.000
  0.000  0.000  0.000  1.000  0.000
  0.000  0.000  0.000  0.000  1.000
atomic mag. moment =    -5.000000
atom    4   Tr[ns(na)] (up, down, total) =   5.00000  0.00000  5.00000
   spin  1
    eigenvalues: 
  1.000  1.000  1.000  1.000  1.000
    eigenvectors:
  1.000  0.000  0.000  0.000  0.000
  0.000  1.000  0.000  0.000  0.000
  0.000  0.000  1.000  0.000  0.000
  0.000  0.000  0.000  1.000  0.000
  0.000  0.000  0.000  0.000  1.000
    occupations:
  1.000  0.000  0.000  0.000  0.000
  0.000  1.000  0.000  0.000  0.000
  0.000  0.000  1.000  0.000  0.000
  0.000  0.000  0.000  1.000  0.000
  0.000  0.000  0.000  0.000  1.000
   spin  2
    eigenvalues: 
  0.000  0.000  0.000  0.000  0.000
    eigenvectors:
  1.000  0.000  0.000  0.000  0.000
  0.000  1.000  0.000  0.000  0.000
  0.000  0.000  1.000  0.000  0.000
  0.000  0.000  0.000  1.000  0.000
  0.000  0.000  0.000  0.000  1.000
    occupations:
  0.000  0.000  0.000  0.000  0.000
  0.000  0.000  0.000  0.000  0.000
  0.000  0.000  0.000  0.000  0.000
  0.000  0.000  0.000  0.000  0.000
  0.000  0.000  0.000  0.000  0.000
atomic mag. moment =     5.000000
atom    5   Tr[ns(na)] (up, down, total) =   5.00000  0.00000  5.00000
   spin  1
    eigenvalues: 
  1.000  1.000  1.000  1.000  1.000
    eigenvectors:
  1.000  0.000  0.000  0.000  0.000
  0.000  1.000  0.000  0.000  0.000
  0.000  0.000  1.000  0.000  0.000
  0.000  0.000  0.000  1.000  0.000
  0.000  0.000  0.000  0.000  1.000
    occupations:
  1.000  0.000  0.000  0.000  0.000
  0.000  1.000  0.000  0.000  0.000
  0.000  0.000  1.000  0.000  0.000
  0.000  0.000  0.000  1.000  0.000
  0.000  0.000  0.000  0.000  1.000
   spin  2
    eigenvalues: 
  0.000  0.000  0.000  0.000  0.000
    eigenvectors:
  1.000  0.000  0.000  0.000  0.000
  0.000  1.000  0.000  0.000  0.000
  0.000  0.000  1.000  0.000  0.000
  0.000  0.000  0.000  1.000  0.000
  0.000  0.000  0.000  0.000  1.000
    occupations:
  0.000  0.000  0.000  0.000  0.000
  0.000  0.000  0.000  0.000  0.000
  0.000  0.000  0.000  0.000  0.000
  0.000  0.000  0.000  0.000  0.000
  0.000  0.000  0.000  0.000  0.000
atomic mag. moment =     5.000000
atom    6   Tr[ns(na)] (up, down, total) =   0.00000  5.00000  5.00000
   spin  1
    eigenvalues: 
  0.000  0.000  0.000  0.000  0.000
    eigenvectors:
  1.000  0.000  0.000  0.000  0.000
  0.000  1.000  0.000  0.000  0.000
  0.000  0.000  1.000  0.000  0.000
  0.000  0.000  0.000  1.000  0.000
  0.000  0.000  0.000  0.000  1.000
    occupations:
  0.000  0.000  0.000  0.000  0.000
  0.000  0.000  0.000  0.000  0.000
  0.000  0.000  0.000  0.000  0.000
  0.000  0.000  0.000  0.000  0.000
  0.000  0.000  0.000  0.000  0.000
   spin  2
    eigenvalues: 
  1.000  1.000  1.000  1.000  1.000
    eigenvectors:
  1.000  0.000  0.000  0.000  0.000
  0.000  1.000  0.000  0.000  0.000
  0.000  0.000  1.000  0.000  0.000
  0.000  0.000  0.000  1.000  0.000
  0.000  0.000  0.000  0.000  1.000
    occupations:
  1.000  0.000  0.000  0.000  0.000
  0.000  1.000  0.000  0.000  0.000
  0.000  0.000  1.000  0.000  0.000
  0.000  0.000  0.000  1.000  0.000
  0.000  0.000  0.000  0.000  1.000
atomic mag. moment =    -5.000000
atom    7   Tr[ns(na)] (up, down, total) =   5.00000  0.00000  5.00000
   spin  1
    eigenvalues: 
  1.000  1.000  1.000  1.000  1.000
    eigenvectors:
  1.000  0.000  0.000  0.000  0.000
  0.000  1.000  0.000  0.000  0.000
  0.000  0.000  1.000  0.000  0.000
  0.000  0.000  0.000  1.000  0.000
  0.000  0.000  0.000  0.000  1.000
    occupations:
  1.000  0.000  0.000  0.000  0.000
  0.000  1.000  0.000  0.000  0.000
  0.000  0.000  1.000  0.000  0.000
  0.000  0.000  0.000  1.000  0.000
  0.000  0.000  0.000  0.000  1.000
   spin  2
    eigenvalues: 
  0.000  0.000  0.000  0.000  0.000
    eigenvectors:
  1.000  0.000  0.000  0.000  0.000
  0.000  1.000  0.000  0.000  0.000
  0.000  0.000  1.000  0.000  0.000
  0.000  0.000  0.000  1.000  0.000
  0.000  0.000  0.000  0.000  1.000
    occupations:
  0.000  0.000  0.000  0.000  0.000
  0.000  0.000  0.000  0.000  0.000
  0.000  0.000  0.000  0.000  0.000
  0.000  0.000  0.000  0.000  0.000
  0.000  0.000  0.000  0.000  0.000
atomic mag. moment =     5.000000
atom    8   Tr[ns(na)] (up, down, total) =   0.00000  5.00000  5.00000
   spin  1
    eigenvalues: 
  0.000  0.000  0.000  0.000  0.000
    eigenvectors:
  1.000  0.000  0.000  0.000  0.000
  0.000  1.000  0.000  0.000  0.000
  0.000  0.000  1.000  0.000  0.000
  0.000  0.000  0.000  1.000  0.000
  0.000  0.000  0.000  0.000  1.000
    occupations:
  0.000  0.000  0.000  0.000  0.000
  0.000  0.000  0.000  0.000  0.000
  0.000  0.000  0.000  0.000  0.000
  0.000  0.000  0.000  0.000  0.000
  0.000  0.000  0.000  0.000  0.000
   spin  2
    eigenvalues: 
  1.000  1.000  1.000  1.000  1.000
    eigenvectors:
  1.000  0.000  0.000  0.000  0.000
  0.000  1.000  0.000  0.000  0.000
  0.000  0.000  1.000  0.000  0.000
  0.000  0.000  0.000  1.000  0.000
  0.000  0.000  0.000  0.000  1.000
    occupations:
  1.000  0.000  0.000  0.000  0.000
  0.000  1.000  0.000  0.000  0.000
  0.000  0.000  1.000  0.000  0.000
  0.000  0.000  0.000  1.000  0.000
  0.000  0.000  0.000  0.000  1.000
atomic mag. moment =    -5.000000
N of occupied +U levels =   40.000000
 --- exit write_ns ---
 Atomic wfc used for LDA+U Projector are NOT orthogonalized
     Starting wfcs are  224 randomized atomic wfcs
     Checking if some PAW data can be deallocated... 

     total cpu time spent up to now is       16.9 secs

     Self-consistent Calculation

     iteration #  1     ecut=    45.00 Ry     beta= 0.10
     Davidson diagonalization with overlap
     ethr =  1.00E-02,  avg # of iterations =  3.9
 --- enter write_ns ---
 LDA+U parameters:
U(  1) =   3.1200   J(  1) =   0.7000   B(  1) =   0.0803
U(  2) =   3.1200   J(  2) =   0.7000   B(  2) =   0.0803
atom    1   Tr[ns(na)] (up, down, total) =   5.01740  0.41119  5.42858
   spin  1
    eigenvalues: 
  1.003  1.003  1.003  1.004  1.004
    eigenvectors:
  0.000  0.000  0.000  1.000  0.000
  0.000  0.086  0.914  0.000  0.000
  0.000  0.914  0.086  0.000  0.000
  0.000  0.000  0.000  0.000  1.000
  1.000  0.000  0.000  0.000  0.000
    occupations:
  1.004 -0.000 -0.000  0.000  0.000
 -0.000  1.003 -0.000  0.000  0.000
 -0.000 -0.000  1.003  0.000  0.000
  0.000  0.000  0.000  1.004 -0.000
  0.000  0.000  0.000 -0.000  1.003
   spin  2
    eigenvalues: 
  0.053  0.074  0.082  0.082  0.121
    eigenvectors:
  0.000  1.000  0.000  0.000  0.000
  0.000  0.000  0.131  0.869  0.000
  0.000  0.000  0.869  0.131  0.000
  1.000  0.000  0.000  0.000  0.000
  0.000  0.000  0.000  0.000  1.000
    occupations:
  0.074 -0.000 -0.000  0.000  0.000
 -0.000  0.082 -0.000  0.000  0.000
 -0.000 -0.000  0.082  0.000  0.000
  0.000  0.000  0.000  0.053 -0.000
  0.000  0.000  0.000 -0.000  0.121
atomic mag. moment =     4.606208
atom    2   Tr[ns(na)] (up, down, total) =   5.01737  0.40996  5.42733
   spin  1
    eigenvalues: 
  1.003  1.003  1.003  1.004  1.004
    eigenvectors:
  0.000  0.000  0.000  1.000  0.000
  0.000  0.092  0.908  0.000  0.000
  0.000  0.908  0.092  0.000  0.000
  0.000  0.000  0.000  0.000  1.000
  1.000  0.000  0.000  0.000  0.000
    occupations:
  1.004 -0.000 -0.000  0.000  0.000
 -0.000  1.003 -0.000  0.000  0.000
 -0.000 -0.000  1.003  0.000  0.000
  0.000  0.000  0.000  1.004 -0.000
  0.000  0.000  0.000 -0.000  1.003
   spin  2
    eigenvalues: 
  0.053  0.073  0.082  0.082  0.120
    eigenvectors:
  0.000  1.000  0.000  0.000  0.000
  0.000  0.000  0.121  0.879  0.000
  0.000  0.000  0.879  0.121  0.000
  1.000  0.000  0.000  0.000  0.000
  0.000  0.000  0.000  0.000  1.000
    occupations:
  0.073 -0.000 -0.000  0.000  0.000
 -0.000  0.082 -0.000  0.000  0.000
 -0.000 -0.000  0.082  0.000  0.000
  0.000  0.000  0.000  0.053 -0.000
  0.000  0.000  0.000 -0.000  0.120
atomic mag. moment =     4.607408
atom    3   Tr[ns(na)] (up, down, total) =   0.41392  5.01738  5.43130
   spin  1
    eigenvalues: 
  0.053  0.075  0.081  0.081  0.124
    eigenvectors:
  0.000  1.000  0.000  0.000  0.000
  0.000  0.000  0.114  0.886  0.000
  0.000  0.000  0.886  0.114  0.000
  1.000  0.000  0.000  0.000  0.000
  0.000  0.000  0.000  0.000  1.000
    occupations:
  0.075 -0.000 -0.000  0.000  0.000
 -0.000  0.081 -0.000  0.000  0.000
 -0.000 -0.000  0.081  0.000  0.000
  0.000  0.000  0.000  0.053 -0.000
  0.000  0.000  0.000 -0.000  0.124
   spin  2
    eigenvalues: 
  1.003  1.003  1.003  1.004  1.004
    eigenvectors:
  0.000  0.000  0.000  1.000  0.000
  0.000  0.168  0.832  0.000  0.000
  0.000  0.832  0.168  0.000  0.000
  0.000  0.000  0.000  0.000  1.000
  1.000  0.000  0.000  0.000  0.000
    occupations:
  1.004 -0.000 -0.000  0.000  0.000
 -0.000  1.003 -0.000  0.000  0.000
 -0.000 -0.000  1.003  0.000  0.000
  0.000  0.000  0.000  1.004 -0.000
  0.000  0.000  0.000 -0.000  1.003
atomic mag. moment =    -4.603464
atom    4   Tr[ns(na)] (up, down, total) =   5.01737  0.40996  5.42733
   spin  1
    eigenvalues: 
  1.003  1.003  1.003  1.004  1.004
    eigenvectors:
  0.000  0.000  0.000  1.000  0.000
  0.000  0.140  0.860  0.000  0.000
  0.000  0.860  0.140  0.000  0.000
  0.000  0.000  0.000  0.000  1.000
  1.000  0.000  0.000  0.000  0.000
    occupations:
  1.004 -0.000 -0.000  0.000  0.000
 -0.000  1.003 -0.000  0.000  0.000
 -0.000 -0.000  1.003  0.000  0.000
  0.000  0.000  0.000  1.004 -0.000
  0.000  0.000  0.000 -0.000  1.003
   spin  2
    eigenvalues: 
  0.053  0.073  0.082  0.082  0.120
    eigenvectors:
  0.000  1.000  0.000  0.000  0.000
  0.000  0.000  0.081  0.919  0.000
  0.000  0.000  0.919  0.081  0.000
  1.000  0.000  0.000  0.000  0.000
  0.000  0.000  0.000  0.000  1.000
    occupations:
  0.073 -0.000 -0.000  0.000  0.000
 -0.000  0.082 -0.000  0.000  0.000
 -0.000 -0.000  0.082  0.000  0.000
  0.000  0.000  0.000  0.053 -0.000
  0.000  0.000  0.000 -0.000  0.120
atomic mag. moment =     4.607408
atom    5   Tr[ns(na)] (up, down, total) =   5.01740  0.41119  5.42858
   spin  1
    eigenvalues: 
  1.003  1.003  1.003  1.004  1.004
    eigenvectors:
  0.000  0.000  0.000  1.000  0.000
  0.000  0.117  0.883  0.000  0.000
  0.000  0.883  0.117  0.000  0.000
  0.000  0.000  0.000  0.000  1.000
  1.000  0.000  0.000  0.000  0.000
    occupations:
  1.004 -0.000 -0.000  0.000  0.000
 -0.000  1.003 -0.000  0.000  0.000
 -0.000 -0.000  1.003  0.000  0.000
  0.000  0.000  0.000  1.004 -0.000
  0.000  0.000  0.000 -0.000  1.003
   spin  2
    eigenvalues: 
  0.053  0.074  0.082  0.082  0.121
    eigenvectors:
  0.000  1.000  0.000  0.000  0.000
  0.000  0.000  0.100  0.900  0.000
  0.000  0.000  0.900  0.100  0.000
  1.000  0.000  0.000  0.000  0.000
  0.000  0.000  0.000  0.000  1.000
    occupations:
  0.074 -0.000 -0.000  0.000  0.000
 -0.000  0.082 -0.000  0.000  0.000
 -0.000 -0.000  0.082  0.000  0.000
  0.000  0.000  0.000  0.053 -0.000
  0.000  0.000  0.000 -0.000  0.121
atomic mag. moment =     4.606208
atom    6   Tr[ns(na)] (up, down, total) =   0.41041  5.01740  5.42782
   spin  1
    eigenvalues: 
  0.053  0.073  0.080  0.080  0.124
    eigenvectors:
  0.000  1.000  0.000  0.000  0.000
  0.000  0.000  0.167  0.833  0.000
  0.000  0.000  0.833  0.167  0.000
  1.000  0.000  0.000  0.000  0.000
  0.000  0.000  0.000  0.000  1.000
    occupations:
  0.073 -0.000 -0.000  0.000  0.000
 -0.000  0.080 -0.000  0.000  0.000
 -0.000 -0.000  0.080  0.000  0.000
  0.000  0.000  0.000  0.053 -0.000
  0.000  0.000  0.000 -0.000  0.124
   spin  2
    eigenvalues: 
  1.003  1.003  1.003  1.004  1.004
    eigenvectors:
  0.000  0.000  0.000  1.000  0.000
  0.000  0.118  0.882  0.000  0.000
  0.000  0.882  0.118  0.000  0.000
  0.000  0.000  0.000  0.000  1.000
  1.000  0.000  0.000  0.000  0.000
    occupations:
  1.004 -0.000 -0.000  0.000  0.000
 -0.000  1.003 -0.000  0.000  0.000
 -0.000 -0.000  1.003  0.000  0.000
  0.000  0.000  0.000  1.004 -0.000
  0.000  0.000  0.000 -0.000  1.003
atomic mag. moment =    -4.606988
atom    7   Tr[ns(na)] (up, down, total) =   5.01733  0.40986  5.42719
   spin  1
    eigenvalues: 
  1.003  1.003  1.003  1.004  1.004
    eigenvectors:
  0.000  0.000  0.000  1.000  0.000
  0.000  0.119  0.881  0.000  0.000
  0.000  0.881  0.119  0.000  0.000
  0.000  0.000  0.000  0.000  1.000
  1.000  0.000  0.000  0.000  0.000
    occupations:
  1.004 -0.000 -0.000  0.000  0.000
 -0.000  1.003 -0.000  0.000  0.000
 -0.000 -0.000  1.003  0.000  0.000
  0.000  0.000  0.000  1.004 -0.000
  0.000  0.000  0.000 -0.000  1.003
   spin  2
    eigenvalues: 
  0.053  0.072  0.080  0.080  0.125
    eigenvectors:
  0.000  1.000  0.000  0.000  0.000
  0.000  0.000  0.097  0.903  0.000
  0.000  0.000  0.903  0.097  0.000
  1.000  0.000  0.000  0.000  0.000
  0.000  0.000  0.000  0.000  1.000
    occupations:
  0.072 -0.000 -0.000  0.000  0.000
 -0.000  0.080 -0.000  0.000  0.000
 -0.000 -0.000  0.080  0.000  0.000
  0.000  0.000  0.000  0.053 -0.000
  0.000  0.000  0.000 -0.000  0.125
atomic mag. moment =     4.607474
atom    8   Tr[ns(na)] (up, down, total) =   0.41041  5.01740  5.42782
   spin  1
    eigenvalues: 
  0.053  0.073  0.080  0.080  0.124
    eigenvectors:
  0.000  1.000  0.000  0.000  0.000
  0.000  0.000  0.178  0.822  0.000
  0.000  0.000  0.822  0.178  0.000
  1.000  0.000  0.000  0.000  0.000
  0.000  0.000  0.000  0.000  1.000
    occupations:
  0.073 -0.000 -0.000  0.000  0.000
 -0.000  0.080 -0.000  0.000  0.000
 -0.000 -0.000  0.080  0.000  0.000
  0.000  0.000  0.000  0.053 -0.000
  0.000  0.000  0.000 -0.000  0.124
   spin  2
    eigenvalues: 
  1.003  1.003  1.003  1.004  1.004
    eigenvectors:
  0.000  0.000  0.000  1.000  0.000
  0.000  0.151  0.849  0.000  0.000
  0.000  0.849  0.151  0.000  0.000
  0.000  0.000  0.000  0.000  1.000
  1.000  0.000  0.000  0.000  0.000
    occupations:
  1.004 -0.000 -0.000  0.000  0.000
 -0.000  1.003 -0.000  0.000  0.000
 -0.000 -0.000  1.003  0.000  0.000
  0.000  0.000  0.000  1.004 -0.000
  0.000  0.000  0.000 -0.000  1.003
atomic mag. moment =    -4.606988
N of occupied +U levels =   43.425939
 --- exit write_ns ---

     total cpu time spent up to now is       59.3 secs

     total energy              =  -14687.28129226 Ry
     Harris-Foulkes estimate   =  -14685.81994107 Ry
     estimated scf accuracy    <      11.56927101 Ry

     total magnetization       =     9.98 Bohr mag/cell
     absolute magnetization    =    41.59 Bohr mag/cell

     iteration #  2     ecut=    45.00 Ry     beta= 0.10
     Davidson diagonalization with overlap
     ethr =  3.91E-03,  avg # of iterations =  1.0

     total cpu time spent up to now is       83.7 secs

     total energy              =  -14692.40464260 Ry
     Harris-Foulkes estimate   =  -14687.35398997 Ry
     estimated scf accuracy    <       9.32641607 Ry

     total magnetization       =     9.86 Bohr mag/cell
     absolute magnetization    =    41.27 Bohr mag/cell

     iteration #  3     ecut=    45.00 Ry     beta= 0.10
     Davidson diagonalization with overlap
     ethr =  3.15E-03,  avg # of iterations =  4.5

     total cpu time spent up to now is      128.5 secs

     total energy              =  -14693.23236774 Ry
     Harris-Foulkes estimate   =  -14694.26445794 Ry
     estimated scf accuracy    <      78.85250334 Ry

     total magnetization       =     9.40 Bohr mag/cell
     absolute magnetization    =    38.51 Bohr mag/cell

     iteration #  4     ecut=    45.00 Ry     beta= 0.10
     Davidson diagonalization with overlap
     ethr =  3.15E-03,  avg # of iterations =  2.7

     total cpu time spent up to now is      159.6 secs

     total energy              =  -14695.62443881 Ry
     Harris-Foulkes estimate   =  -14693.99915191 Ry
     estimated scf accuracy    <       3.29923881 Ry

     total magnetization       =     9.31 Bohr mag/cell
     absolute magnetization    =    38.76 Bohr mag/cell

     iteration #  5     ecut=    45.00 Ry     beta= 0.10
     Davidson diagonalization with overlap
     ethr =  1.11E-03,  avg # of iterations =  4.0

     total cpu time spent up to now is      200.6 secs

     total energy              =  -14692.68216358 Ry
     Harris-Foulkes estimate   =  -14696.13611814 Ry
     estimated scf accuracy    <      11.18086188 Ry

     total magnetization       =     8.78 Bohr mag/cell
     absolute magnetization    =    36.57 Bohr mag/cell

     iteration #  6     ecut=    45.00 Ry     beta= 0.10
     Davidson diagonalization with overlap
     ethr =  1.11E-03,  avg # of iterations =  5.0

     total cpu time spent up to now is      267.1 secs

     total energy              =  -14693.89625814 Ry
     Harris-Foulkes estimate   =  -14693.94887446 Ry
     estimated scf accuracy    <       0.47783343 Ry

     total magnetization       =     9.17 Bohr mag/cell
     absolute magnetization    =    38.33 Bohr mag/cell

     iteration #  7     ecut=    45.00 Ry     beta= 0.10
     Davidson diagonalization with overlap
     ethr =  1.61E-04,  avg # of iterations =  4.4

     total cpu time spent up to now is      310.1 secs

     total energy              =  -14693.99142618 Ry
     Harris-Foulkes estimate   =  -14693.97588549 Ry
     estimated scf accuracy    <       0.27014138 Ry

     total magnetization       =     8.91 Bohr mag/cell
     absolute magnetization    =    37.80 Bohr mag/cell

     iteration #  8     ecut=    45.00 Ry     beta= 0.10
     Davidson diagonalization with overlap
     ethr =  9.13E-05,  avg # of iterations =  2.3

     total cpu time spent up to now is      339.3 secs

     total energy              =  -14694.01274045 Ry
     Harris-Foulkes estimate   =  -14694.00959230 Ry
     estimated scf accuracy    <       0.16298641 Ry

     total magnetization       =     8.91 Bohr mag/cell
     absolute magnetization    =    37.43 Bohr mag/cell

     iteration #  9     ecut=    45.00 Ry     beta= 0.10
     Davidson diagonalization with overlap
     ethr =  5.51E-05,  avg # of iterations =  2.1

     total cpu time spent up to now is      367.7 secs

     total energy              =  -14694.00217172 Ry
     Harris-Foulkes estimate   =  -14694.01449291 Ry
     estimated scf accuracy    <       0.21972745 Ry

     total magnetization       =     8.94 Bohr mag/cell
     absolute magnetization    =    37.45 Bohr mag/cell

     iteration # 10     ecut=    45.00 Ry     beta= 0.10
     Davidson diagonalization with overlap
     ethr =  5.51E-05,  avg # of iterations =  1.1

     total cpu time spent up to now is      392.5 secs

     total energy              =  -14693.99326327 Ry
     Harris-Foulkes estimate   =  -14694.00784770 Ry
     estimated scf accuracy    <       0.12049742 Ry

     total magnetization       =     8.93 Bohr mag/cell
     absolute magnetization    =    37.37 Bohr mag/cell

     iteration # 11     ecut=    45.00 Ry     beta= 0.10
     Davidson diagonalization with overlap
     ethr =  4.07E-05,  avg # of iterations =  1.3

     total cpu time spent up to now is      418.0 secs

     total energy              =  -14693.99833568 Ry
     Harris-Foulkes estimate   =  -14693.99836563 Ry
     estimated scf accuracy    <       0.01810974 Ry

     total magnetization       =     8.92 Bohr mag/cell
     absolute magnetization    =    37.46 Bohr mag/cell

     iteration # 12     ecut=    45.00 Ry     beta= 0.10
     Davidson diagonalization with overlap
     ethr =  6.12E-06,  avg # of iterations =  4.6

     total cpu time spent up to now is      457.7 secs

     total energy              =  -14693.99825085 Ry
     Harris-Foulkes estimate   =  -14693.99874808 Ry
     estimated scf accuracy    <       0.01074694 Ry

     total magnetization       =     8.91 Bohr mag/cell
     absolute magnetization    =    37.44 Bohr mag/cell

     iteration # 13     ecut=    45.00 Ry     beta= 0.10
     Davidson diagonalization with overlap
     ethr =  3.63E-06,  avg # of iterations =  3.9

     total cpu time spent up to now is      497.0 secs

     total energy              =  -14693.99947696 Ry
     Harris-Foulkes estimate   =  -14693.99923242 Ry
     estimated scf accuracy    <       0.00103513 Ry

     total magnetization       =     8.90 Bohr mag/cell
     absolute magnetization    =    37.41 Bohr mag/cell

     iteration # 14     ecut=    45.00 Ry     beta= 0.10
     Davidson diagonalization with overlap
     ethr =  3.50E-07,  avg # of iterations =  4.2

     total cpu time spent up to now is      537.4 secs

     total energy              =  -14693.99970372 Ry
     Harris-Foulkes estimate   =  -14693.99961620 Ry
     estimated scf accuracy    <       0.00029813 Ry

     total magnetization       =     8.89 Bohr mag/cell
     absolute magnetization    =    37.40 Bohr mag/cell

     iteration # 15     ecut=    45.00 Ry     beta= 0.10
     Davidson diagonalization with overlap
     ethr =  1.01E-07,  avg # of iterations =  2.3

     total cpu time spent up to now is      568.4 secs

     total energy              =  -14693.99973862 Ry
     Harris-Foulkes estimate   =  -14693.99971345 Ry
     estimated scf accuracy    <       0.00009733 Ry

     total magnetization       =     8.89 Bohr mag/cell
     absolute magnetization    =    37.39 Bohr mag/cell

     iteration # 16     ecut=    45.00 Ry     beta= 0.10
     Davidson diagonalization with overlap
     ethr =  3.29E-08,  avg # of iterations =  1.6

     total cpu time spent up to now is      594.8 secs

     total energy              =  -14693.99976730 Ry
     Harris-Foulkes estimate   =  -14693.99974418 Ry
     estimated scf accuracy    <       0.00005563 Ry

     total magnetization       =     8.88 Bohr mag/cell
     absolute magnetization    =    37.39 Bohr mag/cell

     iteration # 17     ecut=    45.00 Ry     beta= 0.10
     Davidson diagonalization with overlap
     ethr =  1.88E-08,  avg # of iterations =  2.3

     total cpu time spent up to now is      625.0 secs

     total energy              =  -14693.99978880 Ry
     Harris-Foulkes estimate   =  -14693.99977171 Ry
     estimated scf accuracy    <       0.00002078 Ry

     total magnetization       =     8.88 Bohr mag/cell
     absolute magnetization    =    37.39 Bohr mag/cell

     iteration # 18     ecut=    45.00 Ry     beta= 0.10
     Davidson diagonalization with overlap
     ethr =  7.02E-09,  avg # of iterations =  3.0

     total cpu time spent up to now is      662.0 secs

     total energy              =  -14693.99979563 Ry
     Harris-Foulkes estimate   =  -14693.99979002 Ry
     estimated scf accuracy    <       0.00000988 Ry

     total magnetization       =     8.88 Bohr mag/cell
     absolute magnetization    =    37.38 Bohr mag/cell

     iteration # 19     ecut=    45.00 Ry     beta= 0.10
     Davidson diagonalization with overlap
     ethr =  3.34E-09,  avg # of iterations =  1.9

     total cpu time spent up to now is      689.7 secs

     total energy              =  -14693.99980079 Ry
     Harris-Foulkes estimate   =  -14693.99979708 Ry
     estimated scf accuracy    <       0.00000414 Ry

     total magnetization       =     8.88 Bohr mag/cell
     absolute magnetization    =    37.38 Bohr mag/cell

     iteration # 20     ecut=    45.00 Ry     beta= 0.10
     Davidson diagonalization with overlap
     ethr =  1.40E-09,  avg # of iterations =  2.5

     total cpu time spent up to now is      720.3 secs

     total energy              =  -14693.99980345 Ry
     Harris-Foulkes estimate   =  -14693.99980009 Ry
     estimated scf accuracy    <       0.00000337 Ry

     total magnetization       =     8.88 Bohr mag/cell
     absolute magnetization    =    37.38 Bohr mag/cell

     iteration # 21     ecut=    45.00 Ry     beta= 0.10
     Davidson diagonalization with overlap
     ethr =  1.14E-09,  avg # of iterations =  2.1

     total cpu time spent up to now is      748.6 secs

     total energy              =  -14693.99980667 Ry
     Harris-Foulkes estimate   =  -14693.99980465 Ry
     estimated scf accuracy    <       0.00000228 Ry

     total magnetization       =     8.88 Bohr mag/cell
     absolute magnetization    =    37.38 Bohr mag/cell

     iteration # 22     ecut=    45.00 Ry     beta= 0.10
     Davidson diagonalization with overlap
     ethr =  7.71E-10,  avg # of iterations =  2.0

     total cpu time spent up to now is      777.0 secs

     total energy              =  -14693.99980727 Ry
     Harris-Foulkes estimate   =  -14693.99980559 Ry
     estimated scf accuracy    <       0.00000410 Ry

     total magnetization       =     8.88 Bohr mag/cell
     absolute magnetization    =    37.38 Bohr mag/cell

     iteration # 23     ecut=    45.00 Ry     beta= 0.10
     Davidson diagonalization with overlap
     ethr =  7.71E-10,  avg # of iterations =  1.9
 
     Magnetic moment per site:
     atom:    1    charge:   13.5458    magn:    4.2444    constr:    0.0000
     atom:    2    charge:   13.5453    magn:    4.2512    constr:    0.0000
     atom:    3    charge:   13.5470    magn:   -4.2388    constr:    0.0000
     atom:    4    charge:   13.5453    magn:    4.2512    constr:    0.0000
     atom:    5    charge:   13.5458    magn:    4.2444    constr:    0.0000
     atom:    6    charge:   13.5444    magn:   -4.2584    constr:    0.0000
     atom:    7    charge:   13.5414    magn:    4.2788    constr:    0.0000
     atom:    8    charge:   13.5444    magn:   -4.2584    constr:    0.0000
     atom:    9    charge:    9.1237    magn:    0.0403    constr:    0.0000
     atom:   10    charge:    9.1236    magn:    0.0387    constr:    0.0000
     atom:   11    charge:    9.1236    magn:    0.0463    constr:    0.0000
     atom:   12    charge:    9.1231    magn:   -0.0397    constr:    0.0000
     atom:   13    charge:    9.1231    magn:   -0.0397    constr:    0.0000
     atom:   14    charge:    9.1236    magn:    0.0463    constr:    0.0000
     atom:   15    charge:    9.1236    magn:    0.0387    constr:    0.0000
     atom:   16    charge:    9.1237    magn:    0.0403    constr:    0.0000
     atom:   17    charge:    9.1242    magn:    0.0439    constr:    0.0000
     atom:   18    charge:    9.1234    magn:   -0.0394    constr:    0.0000
     atom:   19    charge:    9.1254    magn:   -0.0363    constr:    0.0000
     atom:   20    charge:    9.1252    magn:    0.0383    constr:    0.0000
     atom:   21    charge:    9.1252    magn:    0.0383    constr:    0.0000
     atom:   22    charge:    9.1254    magn:   -0.0363    constr:    0.0000
     atom:   23    charge:    9.1234    magn:   -0.0394    constr:    0.0000
     atom:   24    charge:    9.1242    magn:    0.0439    constr:    0.0000

     total cpu time spent up to now is      804.8 secs

     End of self-consistent calculation
 --- enter write_ns ---
 LDA+U parameters:
U(  1) =   3.1200   J(  1) =   0.7000   B(  1) =   0.0803
U(  2) =   3.1200   J(  2) =   0.7000   B(  2) =   0.0803
atom    1   Tr[ns(na)] (up, down, total) =   4.97301  0.72904  5.70205
   spin  1
    eigenvalues: 
  0.985  0.994  0.994  0.997  1.002
    eigenvectors:
  0.000  0.000  0.000  1.000  0.000
  0.000  0.110  0.890  0.000  0.000
  0.000  0.890  0.110  0.000  0.000
  0.000  0.000  0.000  0.000  1.000
  1.000  0.000  0.000  0.000  0.000
    occupations:
  0.997 -0.000 -0.000  0.000  0.000
 -0.000  0.994 -0.000  0.000  0.000
 -0.000 -0.000  0.994  0.000  0.000
  0.000  0.000  0.000  1.002 -0.000
  0.000  0.000  0.000 -0.000  0.985
   spin  2
    eigenvalues: 
  0.066  0.129  0.142  0.142  0.250
    eigenvectors:
  0.000  1.000  0.000  0.000  0.000
  0.000  0.000  0.096  0.904  0.000
  0.000  0.000  0.904  0.096  0.000
  1.000  0.000  0.000  0.000  0.000
  0.000  0.000  0.000  0.000  1.000
    occupations:
  0.129 -0.000 -0.000  0.000  0.000
 -0.000  0.142 -0.000  0.000  0.000
 -0.000 -0.000  0.142  0.000  0.000
  0.000  0.000  0.000  0.066 -0.000
  0.000  0.000  0.000 -0.000  0.250
atomic mag. moment =     4.243968
atom    2   Tr[ns(na)] (up, down, total) =   4.97377  0.72385  5.69762
   spin  1
    eigenvalues: 
  0.985  0.994  0.994  0.997  1.002
    eigenvectors:
  0.000  0.000  0.000  1.000  0.000
  0.000  0.157  0.843  0.000  0.000
  0.000  0.843  0.157  0.000  0.000
  0.000  0.000  0.000  0.000  1.000
  1.000  0.000  0.000  0.000  0.000
    occupations:
  0.997 -0.000 -0.000  0.000  0.000
 -0.000  0.994 -0.000  0.000  0.000
 -0.000 -0.000  0.994  0.000  0.000
  0.000  0.000  0.000  1.002 -0.000
  0.000  0.000  0.000 -0.000  0.985
   spin  2
    eigenvalues: 
  0.066  0.121  0.144  0.144  0.249
    eigenvectors:
  0.000  1.000  0.000  0.000  0.000
  0.000  0.000  0.141  0.859  0.000
  0.000  0.000  0.859  0.141  0.000
  1.000  0.000  0.000  0.000  0.000
  0.000  0.000  0.000  0.000  1.000
    occupations:
  0.121 -0.000 -0.000  0.000  0.000
 -0.000  0.144 -0.000  0.000  0.000
 -0.000 -0.000  0.144  0.000  0.000
  0.000  0.000  0.000  0.066 -0.000
  0.000  0.000  0.000 -0.000  0.249
atomic mag. moment =     4.249924
atom    3   Tr[ns(na)] (up, down, total) =   0.73570  4.96973  5.70543
   spin  1
    eigenvalues: 
  0.065  0.126  0.147  0.147  0.251
    eigenvectors:
  0.000  1.000  0.000  0.000  0.000
  0.000  0.000  0.155  0.845  0.000
  0.000  0.000  0.845  0.155  0.000
  1.000  0.000  0.000  0.000  0.000
  0.000  0.000  0.000  0.000  1.000
    occupations:
  0.126 -0.000 -0.000  0.000  0.000
 -0.000  0.147 -0.000  0.000  0.000
 -0.000 -0.000  0.147  0.000  0.000
  0.000  0.000  0.000  0.065 -0.000
  0.000  0.000  0.000 -0.000  0.251
   spin  2
    eigenvalues: 
  0.984  0.994  0.994  0.996  1.003
    eigenvectors:
  0.000  0.000  0.000  1.000  0.000
  0.000  0.096  0.904  0.000  0.000
  0.000  0.904  0.096  0.000  0.000
  0.000  0.000  0.000  0.000  1.000
  1.000  0.000  0.000  0.000  0.000
    occupations:
  0.996 -0.000 -0.000  0.000  0.000
 -0.000  0.994 -0.000  0.000  0.000
 -0.000 -0.000  0.994  0.000  0.000
  0.000  0.000  0.000  1.003 -0.000
  0.000  0.000  0.000 -0.000  0.984
atomic mag. moment =    -4.234034
atom    4   Tr[ns(na)] (up, down, total) =   4.97377  0.72385  5.69762
   spin  1
    eigenvalues: 
  0.985  0.994  0.994  0.997  1.002
    eigenvectors:
  0.000  0.000  0.000  1.000  0.000
  0.000  0.124  0.876  0.000  0.000
  0.000  0.876  0.124  0.000  0.000
  0.000  0.000  0.000  0.000  1.000
  1.000  0.000  0.000  0.000  0.000
    occupations:
  0.997 -0.000 -0.000  0.000  0.000
 -0.000  0.994 -0.000  0.000  0.000
 -0.000 -0.000  0.994  0.000  0.000
  0.000  0.000  0.000  1.002 -0.000
  0.000  0.000  0.000 -0.000  0.985
   spin  2
    eigenvalues: 
  0.066  0.121  0.144  0.144  0.249
    eigenvectors:
  0.000  1.000  0.000  0.000  0.000
  0.000  0.000  0.143  0.857  0.000
  0.000  0.000  0.857  0.143  0.000
  1.000  0.000  0.000  0.000  0.000
  0.000  0.000  0.000  0.000  1.000
    occupations:
  0.121 -0.000 -0.000  0.000  0.000
 -0.000  0.144 -0.000  0.000  0.000
 -0.000 -0.000  0.144  0.000  0.000
  0.000  0.000  0.000  0.066 -0.000
  0.000  0.000  0.000 -0.000  0.249
atomic mag. moment =     4.249924
atom    5   Tr[ns(na)] (up, down, total) =   4.97301  0.72904  5.70205
   spin  1
    eigenvalues: 
  0.985  0.994  0.994  0.997  1.002
    eigenvectors:
  0.000  0.000  0.000  1.000  0.000
  0.000  0.140  0.860  0.000  0.000
  0.000  0.860  0.140  0.000  0.000
  0.000  0.000  0.000  0.000  1.000
  1.000  0.000  0.000  0.000  0.000
    occupations:
  0.997 -0.000 -0.000  0.000  0.000
 -0.000  0.994 -0.000  0.000  0.000
 -0.000 -0.000  0.994  0.000  0.000
  0.000  0.000  0.000  1.002 -0.000
  0.000  0.000  0.000 -0.000  0.985
   spin  2
    eigenvalues: 
  0.066  0.129  0.142  0.142  0.250
    eigenvectors:
  0.000  1.000  0.000  0.000  0.000
  0.000  0.000  0.133  0.867  0.000
  0.000  0.000  0.867  0.133  0.000
  1.000  0.000  0.000  0.000  0.000
  0.000  0.000  0.000  0.000  1.000
    occupations:
  0.129 -0.000 -0.000  0.000  0.000
 -0.000  0.142 -0.000  0.000  0.000
 -0.000 -0.000  0.142  0.000  0.000
  0.000  0.000  0.000  0.066 -0.000
  0.000  0.000  0.000 -0.000  0.250
atomic mag. moment =     4.243968
atom    6   Tr[ns(na)] (up, down, total) =   0.71958  4.97244  5.69202
   spin  1
    eigenvalues: 
  0.066  0.121  0.145  0.145  0.243
    eigenvectors:
  0.000  1.000  0.000  0.000  0.000
  0.000  0.000  0.137  0.863  0.000
  0.000  0.000  0.863  0.137  0.000
  1.000  0.000  0.000  0.000  0.000
  0.000  0.000  0.000  0.000  1.000
    occupations:
  0.121 -0.000 -0.000  0.000  0.000
 -0.000  0.145 -0.000  0.000  0.000
 -0.000 -0.000  0.145  0.000  0.000
  0.000  0.000  0.000  0.066 -0.000
  0.000  0.000  0.000 -0.000  0.243
   spin  2
    eigenvalues: 
  0.985  0.994  0.994  0.997  1.003
    eigenvectors:
  0.000  0.000  0.000  1.000  0.000
  0.000  0.110  0.890  0.000  0.000
  0.000  0.890  0.110  0.000  0.000
  0.000  0.000  0.000  0.000  1.000
  1.000  0.000  0.000  0.000  0.000
    occupations:
  0.997 -0.000 -0.000  0.000  0.000
 -0.000  0.994 -0.000  0.000  0.000
 -0.000 -0.000  0.994  0.000  0.000
  0.000  0.000  0.000  1.003 -0.000
  0.000  0.000  0.000 -0.000  0.985
atomic mag. moment =    -4.252865
atom    7   Tr[ns(na)] (up, down, total) =   4.97480  0.70215  5.67695
   spin  1
    eigenvalues: 
  0.985  0.994  0.994  0.999  1.003
    eigenvectors:
  0.000  0.000  0.000  1.000  0.000
  0.000  0.113  0.887  0.000  0.000
  0.000  0.887  0.113  0.000  0.000
  0.000  0.000  0.000  0.000  1.000
  1.000  0.000  0.000  0.000  0.000
    occupations:
  0.999 -0.000 -0.000  0.000  0.000
 -0.000  0.994 -0.000  0.000  0.000
 -0.000 -0.000  0.994  0.000  0.000
  0.000  0.000  0.000  1.003 -0.000
  0.000  0.000  0.000 -0.000  0.985
   spin  2
    eigenvalues: 
  0.067  0.107  0.146  0.146  0.236
    eigenvectors:
  0.000  1.000  0.000  0.000  0.000
  0.000  0.000  0.128  0.872  0.000
  0.000  0.000  0.872  0.128  0.000
  1.000  0.000  0.000  0.000  0.000
  0.000  0.000  0.000  0.000  1.000
    occupations:
  0.107 -0.000 -0.000  0.000  0.000
 -0.000  0.146 -0.000  0.000  0.000
 -0.000 -0.000  0.146  0.000  0.000
  0.000  0.000  0.000  0.067 -0.000
  0.000  0.000  0.000 -0.000  0.236
atomic mag. moment =     4.272645
atom    8   Tr[ns(na)] (up, down, total) =   0.71958  4.97244  5.69202
   spin  1
    eigenvalues: 
  0.066  0.121  0.145  0.145  0.243
    eigenvectors:
  0.000  1.000  0.000  0.000  0.000
  0.000  0.000  0.118  0.882  0.000
  0.000  0.000  0.882  0.118  0.000
  1.000  0.000  0.000  0.000  0.000
  0.000  0.000  0.000  0.000  1.000
    occupations:
  0.121 -0.000 -0.000  0.000  0.000
 -0.000  0.145 -0.000  0.000  0.000
 -0.000 -0.000  0.145  0.000  0.000
  0.000  0.000  0.000  0.066 -0.000
  0.000  0.000  0.000 -0.000  0.243
   spin  2
    eigenvalues: 
  0.985  0.994  0.994  0.997  1.003
    eigenvectors:
  0.000  0.000  0.000  1.000  0.000
  0.000  0.104  0.896  0.000  0.000
  0.000  0.896  0.104  0.000  0.000
  0.000  0.000  0.000  0.000  1.000
  1.000  0.000  0.000  0.000  0.000
    occupations:
  0.997 -0.000 -0.000  0.000  0.000
 -0.000  0.994 -0.000  0.000  0.000
 -0.000 -0.000  0.994  0.000  0.000
  0.000  0.000  0.000  1.003 -0.000
  0.000  0.000  0.000 -0.000  0.985
atomic mag. moment =    -4.252865
N of occupied +U levels =   45.565767
 --- exit write_ns ---

 ------ SPIN UP ------------


          k = 0.0000 0.0000 0.0000 ( 13925 PWs)   bands (ev):

   -66.8392 -66.7530 -66.7530 -66.7293 -66.7293 -62.1806 -62.1806 -62.1748
   -35.6040 -35.5560 -35.5560 -35.5241 -35.5241 -35.4986 -35.4986 -35.4687
   -35.4687 -35.4687 -35.4687 -35.4462 -35.4462 -35.4462 -35.4462 -31.0017
   -31.0017 -30.9997 -30.9997 -30.9997 -30.9997 -30.9995 -30.9923 -30.9923
     5.7596   5.8955   5.9198   6.3324   6.3815   7.0111   7.0593   7.6164
     8.2825   8.4160   8.4165   8.4260   8.4717   8.5020   8.5496   8.7211
     8.7463   8.7803   8.7938   8.9099   8.9520   9.2048   9.2358   9.2599
     9.2782   9.3799   9.4518   9.4878   9.5684   9.8003   9.9202   9.9239
     9.9278   9.9757  10.1230  10.1336  10.1336  10.1399  10.1466  10.1645
    10.1726  10.1774  10.1774  10.1834  10.1944  10.1944  10.3452  10.3452
    10.3456  10.3456  10.5298  10.5728  10.5796  10.5796  10.5817  10.5817
    10.5822  10.5822  10.6027  10.6032  10.6111  10.6111  10.6134  10.6134
    10.6719  10.6971  10.6971  10.7142  10.7142  10.9639  10.9639  11.0473
    11.0473  11.0498  11.1018  11.1310  11.1492  11.2582  11.2792  11.2931
    11.3135  11.4160  11.4160  11.4297  11.4691  11.4691  11.6388  11.6928
    11.7172  11.7341  11.7436  11.7806  11.9034  11.9257  11.9257  12.0060
    12.0060  12.1054  12.1151  12.1356  12.1711  12.2490  12.3298  12.3298
    12.5464  12.5464  12.6099  12.6099  12.6605  12.6953  12.8028  12.8241
    12.9947  13.0021  13.0211  13.0773  13.8563  14.0259  15.0202  15.3998
    16.0853  16.8970  16.8970  16.9236  16.9236  16.9505  16.9505  16.9685
    16.9687  16.9837  17.1445  17.1683  17.1684  17.5770  17.5832  17.5959
    18.4385  19.5029  19.6634  20.0687  20.0687  20.4260  20.4260  20.4701
    20.4701  21.4212

          k = 0.0000 0.0000-0.0484 ( 13878 PWs)   bands (ev):

   -66.8392 -66.7530 -66.7530 -66.7293 -66.7293 -62.1806 -62.1806 -62.1748
   -35.6040 -35.5560 -35.5560 -35.5241 -35.5241 -35.4986 -35.4986 -35.4687
   -35.4687 -35.4687 -35.4687 -35.4462 -35.4462 -35.4462 -35.4462 -31.0017
   -31.0017 -30.9997 -30.9997 -30.9997 -30.9997 -30.9995 -30.9923 -30.9923
     5.7916   5.8025   6.0444   6.1543   6.6064   6.7394   7.3921   7.4061
     8.4169   8.4232   8.4250   8.4505   8.4830   8.5025   8.5105   8.5827
     8.7181   8.7494   8.7567   8.9442   9.1328   9.1337   9.2181   9.2897
     9.3270   9.3452   9.4028   9.4498   9.6075   9.8275   9.8901   9.9209
     9.9269   9.9760  10.1233  10.1453  10.1453  10.1472  10.1472  10.1553
    10.1566  10.1626  10.1628  10.1854  10.2499  10.2499  10.2548  10.2548
    10.4602  10.4602  10.4729  10.4729  10.5050  10.5604  10.5809  10.5809
    10.5819  10.5819  10.5823  10.5823  10.6255  10.6364  10.6495  10.6879
    10.6879  10.6971  10.6971  10.7968  10.7968  10.8134  10.8134  11.0653
    11.0707  11.1120  11.2097  11.2172  11.2172  11.2246  11.2341  11.2341
    11.2787  11.2937  11.3210  11.4294  11.5784  11.5784  11.6252  11.7053
    11.7194  11.7415  11.7420  11.7723  11.8488  11.8488  11.9047  12.0678
    12.0678  12.1046  12.1154  12.1157  12.2131  12.2252  12.3102  12.3102
    12.5613  12.5613  12.6013  12.6013  12.6658  12.6898  12.8036  12.8806
    12.8888  12.9942  13.0026  13.1872  13.7007  14.2336  14.7927  15.7208
    15.8860  16.8960  16.8960  16.9259  16.9259  16.9492  16.9492  16.9684
    16.9687  16.9836  17.1445  17.1683  17.1684  17.5798  17.5826  17.5955
    18.7404  18.8443  20.1560  20.1560  20.1778  20.1778  20.4330  20.6535
    20.8275  20.8275

          k = 0.0000 0.1250 0.0000 ( 13879 PWs)   bands (ev):

   -66.8389 -66.7527 -66.7527 -66.7291 -66.7291 -62.1806 -62.1806 -62.1749
   -35.6039 -35.5578 -35.5559 -35.5239 -35.5239 -35.4984 -35.4984 -35.4705
   -35.4705 -35.4686 -35.4686 -35.4480 -35.4480 -35.4461 -35.4461 -31.0019
   -31.0019 -31.0015 -31.0015 -30.9996 -30.9996 -30.9993 -30.9945 -30.9922
     6.0031   6.1358   6.1589   6.5581   6.6030   7.2010   7.2384   7.7567
     8.2912   8.5054   8.5485   8.5515   8.5660   8.6116   8.6464   8.7240
     8.7467   8.8305   8.8363   8.9444   8.9700   9.1411   9.1520   9.2892
     9.3237   9.3320   9.3992   9.4432   9.6222   9.7886   9.7914   9.7955
     9.8170   9.8347   9.8540   9.8908   9.8958  10.0255  10.0262  10.0365
    10.0465  10.1037  10.1465  10.1765  10.1780  10.1931  10.2619  10.2847
    10.2919  10.3299  10.4307  10.4468  10.4486  10.5031  10.5049  10.5866
    10.6457  10.6536  10.6570  10.7133  10.7418  10.7707  10.8098  10.8219
    10.8278  10.8446  10.9197  10.9987  11.0370  11.0601  11.0851  11.0963
    11.1250  11.1908  11.2275  11.2537  11.2697  11.3173  11.3276  11.3565
    11.3589  11.3914  11.3946  11.4427  11.4647  11.6192  11.6711  11.7036
    11.7460  11.7780  11.8027  11.8092  11.8488  11.8973  11.9303  11.9416
    11.9449  12.0827  12.0940  12.1017  12.2313  12.3602  12.3946  12.4174
    12.4361  12.4657  12.4797  12.5693  12.7062  12.7604  12.8489  12.8625
    12.8642  12.8877  12.9942  13.0571  13.8978  14.0730  15.1445  15.5141
    16.2134  16.6831  16.7165  16.7832  16.9761  16.9833  16.9937  17.0323
    17.0422  17.0512  17.0588  17.0626  17.0799  17.6198  17.6223  17.9270
    18.5233  18.6573  18.9703  19.0500  19.8366  19.8367  19.9106  19.9764
    20.6923  20.9652

          k = 0.0000 0.1250-0.0484 ( 13868 PWs)   bands (ev):

   -66.8389 -66.7527 -66.7527 -66.7291 -66.7291 -62.1806 -62.1806 -62.1749
   -35.6039 -35.5578 -35.5559 -35.5239 -35.5239 -35.4984 -35.4984 -35.4705
   -35.4705 -35.4686 -35.4686 -35.4480 -35.4480 -35.4461 -35.4461 -31.0019
   -31.0019 -31.0015 -31.0015 -30.9996 -30.9996 -30.9993 -30.9945 -30.9922
     6.0343   6.0451   6.2811   6.3843   6.8229   6.9381   7.5525   7.5598
     8.4524   8.4834   8.5184   8.5381   8.5514   8.5585   8.6185   8.6723
     8.7862   8.8386   8.8541   8.9656   9.0584   9.0691   9.1270   9.2968
     9.3137   9.3487   9.3526   9.5418   9.5580   9.7880   9.7916   9.8066
     9.8100   9.8495   9.8547   9.8764   9.9024  10.0141  10.0165  10.0489
    10.0623  10.0852  10.1569  10.1698  10.1839  10.1984  10.2459  10.2817
    10.3227  10.3343  10.3625  10.4523  10.4619  10.5306  10.5867  10.5880
    10.5905  10.6280  10.6503  10.6590  10.7276  10.8082  10.8212  10.8267
    10.8539  10.8935  10.9267  10.9416  11.0047  11.0556  11.0811  11.1325
    11.1650  11.1822  11.2091  11.2335  11.2462  11.3074  11.3339  11.3376
    11.3751  11.4063  11.4079  11.4139  11.5501  11.6618  11.6743  11.6748
    11.6767  11.7096  11.7864  11.8270  11.8809  11.9061  11.9250  11.9566
    12.0274  12.0438  12.0878  12.1024  12.1918  12.3598  12.4170  12.4234
    12.4524  12.4646  12.4657  12.5576  12.7093  12.8272  12.8341  12.8500
    12.8616  12.8630  12.8883  13.2019  13.6952  14.3312  14.8802  15.8504
    16.0123  16.6879  16.7510  16.7611  16.9763  16.9833  16.9937  17.0323
    17.0420  17.0518  17.0581  17.0629  17.0799  17.5901  17.7419  17.7492
    18.7296  18.7611  18.9805  19.0604  19.3378  19.4712  20.3483  20.4373
    20.7550  20.7880

          k = 0.0000 0.2500 0.0000 ( 13848 PWs)   bands (ev):

   -66.8388 -66.7526 -66.7526 -66.7289 -66.7289 -62.1803 -62.1803 -62.1745
   -35.6035 -35.5620 -35.5557 -35.5235 -35.5235 -35.4980 -35.4980 -35.4747
   -35.4747 -35.4684 -35.4684 -35.4522 -35.4522 -35.4459 -35.4459 -31.0071
   -31.0071 -31.0009 -31.0009 -30.9997 -30.9992 -30.9992 -30.9987 -30.9918
     6.6921   6.8126   6.8318   7.1790   7.2100   7.6791   7.6864   8.0477
     8.2533   8.4824   8.4870   8.6954   8.6957   8.7473   8.8196   8.8277
     8.8611   8.8679   8.8811   8.8950   8.9300   9.0641   9.1049   9.1606
     9.2371   9.3147   9.4842   9.4956   9.5286   9.5756   9.5790   9.6324
     9.6401   9.6430   9.6530   9.7507   9.7994   9.8032   9.8095   9.8311
     9.8650  10.0028  10.0460  10.0568  10.1626  10.2724  10.2906  10.3601
    10.4177  10.5368  10.5728  10.5771  10.6080  10.6246  10.6724  10.7040
    10.7127  10.8130  10.8261  10.8315  10.8732  10.8878  10.9499  10.9962
    11.0105  11.0647  11.0682  11.1202  11.1700  11.2135  11.2357  11.2814
    11.2913  11.3603  11.3897  11.4392  11.4481  11.4672  11.4676  11.5349
    11.5381  11.5418  11.5835  11.6479  11.6548  11.6776  11.7024  11.7755
    11.8092  11.8299  11.8793  11.8810  11.8835  11.9009  11.9367  12.0226
    12.0488  12.0600  12.0701  12.0774  12.0864  12.2153  12.3233  12.4163
    12.4982  12.5587  12.5744  12.6097  12.7131  12.7218  12.8922  12.9079
    12.9144  12.9330  12.9468  12.9928  14.0232  14.1829  15.3379  15.6346
    15.9835  16.0119  16.0928  16.3191  16.3853  16.5319  16.6002  16.9011
    16.9197  16.9301  17.0330  17.0601  17.2996  17.3002  17.3034  17.3037
    17.4779  17.5793  17.8173  17.9151  18.5021  18.5165  18.5314  18.6332
    19.4227  20.4294

          k = 0.0000 0.2500-0.0484 ( 13842 PWs)   bands (ev):

   -66.8388 -66.7526 -66.7526 -66.7289 -66.7289 -62.1803 -62.1803 -62.1745
   -35.6035 -35.5620 -35.5557 -35.5235 -35.5235 -35.4980 -35.4980 -35.4747
   -35.4747 -35.4684 -35.4684 -35.4522 -35.4522 -35.4459 -35.4459 -31.0071
   -31.0071 -31.0009 -31.0009 -30.9997 -30.9992 -30.9992 -30.9987 -30.9918
     6.7202   6.7304   6.9434   7.0251   7.4037   7.4625   7.9075   7.9165
     8.3470   8.3587   8.5986   8.6010   8.7357   8.7665   8.8055   8.8102
     8.8606   8.8746   8.8785   8.8973   8.9507   9.0577   9.1182   9.1536
     9.1811   9.3808   9.4851   9.4935   9.5384   9.5498   9.6059   9.6224
     9.6349   9.6394   9.6431   9.7245   9.7609   9.8006   9.8067   9.8290
    10.0202  10.0207  10.0211  10.0451  10.0652  10.2540  10.3520  10.3550
    10.4344  10.4739  10.5846  10.6155  10.6389  10.6516  10.6537  10.6808
    10.7112  10.7222  10.8566  10.8600  10.8832  10.9103  10.9239  10.9640
    11.0260  11.0759  11.0832  11.1390  11.1634  11.1868  11.2063  11.3066
    11.3234  11.3563  11.3930  11.4302  11.4491  11.4633  11.4762  11.5199
    11.5398  11.5487  11.5618  11.6065  11.6227  11.7262  11.7633  11.7859
    11.8095  11.8474  11.8517  11.8731  11.9034  11.9142  11.9207  11.9552
    11.9752  12.0656  12.0684  12.1667  12.1834  12.1963  12.2216  12.4694
    12.4939  12.5515  12.5977  12.6652  12.6716  12.7181  12.7214  12.8918
    12.9096  12.9300  12.9484  13.2688  13.6699  14.5694  15.0193  15.8397
    15.9422  16.0244  16.2307  16.2632  16.3390  16.3942  16.6907  16.9011
    16.9197  16.9301  17.0376  17.0575  17.3002  17.3034  17.3037  17.3497
    17.4113  17.5318  17.9923  18.0427  18.1248  18.2318  18.8172  18.8333
    19.6529  19.7091

          k = 0.0000 0.3750 0.0000 ( 13856 PWs)   bands (ev):

   -66.8393 -66.7531 -66.7531 -66.7295 -66.7295 -62.1793 -62.1793 -62.1735
   -35.6031 -35.5660 -35.5555 -35.5231 -35.5231 -35.4976 -35.4976 -35.4787
   -35.4787 -35.4681 -35.4681 -35.4562 -35.4562 -35.4456 -35.4456 -31.0125
   -31.0125 -31.0051 -31.0004 -31.0004 -30.9989 -30.9989 -30.9981 -30.9915
     7.6527   7.7465   7.7544   7.9696   7.9713   8.1274   8.1393   8.1898
     8.2129   8.2676   8.2838   8.4109   8.4141   8.6000   8.6216   8.7685
     8.9247   8.9483   9.1146   9.1245   9.1834   9.1880   9.2537   9.2540
     9.2560   9.2748   9.2848   9.2947   9.3383   9.3534   9.4902   9.5460
     9.5872   9.5909   9.6073   9.6184   9.6875   9.7106   9.7333   9.8319
     9.9771   9.9923  10.0966  10.1012  10.1337  10.1535  10.2018  10.3854
    10.4015  10.5108  10.5336  10.5728  10.6351  10.6695  10.6752  10.7426
    10.8570  10.8582  10.8762  10.9667  11.1940  11.2088  11.2114  11.2360
    11.2471  11.3333  11.3387  11.3554  11.4519  11.4756  11.4824  11.5107
    11.5197  11.5321  11.5671  11.5745  11.6066  11.6270  11.7096  11.7337
    11.7457  11.7466  11.8007  11.8238  11.8293  11.8506  11.9091  11.9506
    12.0345  12.0549  12.0587  12.0877  12.1025  12.1085  12.1234  12.1364
    12.1912  12.2081  12.3137  12.3525  12.3925  12.4145  12.4525  12.4689
    12.5510  12.6331  12.6352  12.7173  12.7968  12.8020  12.9640  12.9690
    12.9833  12.9864  12.9884  12.9987  13.9355  14.0290  14.0542  14.2430
    14.2616  14.8536  14.8594  15.1197  15.1284  15.6047  15.6126  15.8858
    15.8865  16.8302  16.8426  16.8537  16.8546  16.9156  17.0006  17.0688
    17.0878  17.2130  17.5032  17.5036  17.5054  17.9418  17.9806  18.0780
    19.6314  19.6962

          k = 0.0000 0.3750-0.0484 ( 13872 PWs)   bands (ev):

   -66.8393 -66.7531 -66.7531 -66.7295 -66.7295 -62.1793 -62.1793 -62.1735
   -35.6031 -35.5660 -35.5555 -35.5231 -35.5231 -35.4976 -35.4976 -35.4787
   -35.4787 -35.4681 -35.4681 -35.4562 -35.4562 -35.4456 -35.4456 -31.0125
   -31.0125 -31.0051 -31.0004 -31.0004 -30.9989 -30.9989 -30.9981 -30.9915
     7.6743   7.6826   7.8409   7.8716   8.0515   8.0831   8.1703   8.1736
     8.2270   8.2389   8.3308   8.3425   8.4773   8.5357   8.7095   8.7117
     8.9409   8.9532   9.0855   9.0950   9.2346   9.2346   9.2453   9.2516
     9.2539   9.2543   9.2828   9.3197   9.3407   9.3424   9.4282   9.5101
     9.5621   9.6115   9.6184   9.6670   9.6912   9.7134   9.7852   9.8680
     9.9097   9.9921  10.0324  10.0961  10.1016  10.1307  10.3717  10.3835
    10.4279  10.4739  10.5355  10.5517  10.5666  10.6659  10.7193  10.7249
    10.7426  10.9035  10.9683  11.0767  11.1306  11.1464  11.2226  11.2303
    11.2671  11.2799  11.3552  11.4018  11.4441  11.4599  11.4738  11.5092
    11.5222  11.5426  11.5465  11.6032  11.6099  11.6170  11.6522  11.6682
    11.7264  11.7578  11.8089  11.8196  11.8879  11.9086  11.9428  11.9643
    12.0033  12.0089  12.0245  12.0672  12.0927  12.1117  12.1160  12.2477
    12.2553  12.2824  12.2837  12.4000  12.4093  12.4304  12.4383  12.4848
    12.4932  12.5557  12.6115  12.6552  12.7146  12.7978  12.8011  12.9693
    12.9868  12.9877  12.9988  13.4893  13.5633  14.0223  14.0258  14.4685
    14.4873  14.5796  14.6514  15.2480  15.2791  15.5913  15.6120  15.8428
    15.8543  16.8105  16.8302  16.8537  16.8546  16.9660  16.9942  17.0654
    17.1210  17.1831  17.5032  17.5036  17.5054  17.9194  18.0196  18.0648
    19.6916  19.7094

          k = 0.0000-0.5000 0.0000 ( 13918 PWs)   bands (ev):

   -66.8398 -66.7536 -66.7536 -66.7299 -66.7299 -62.1787 -62.1787 -62.1729
   -35.6029 -35.5677 -35.5554 -35.5229 -35.5229 -35.4974 -35.4974 -35.4804
   -35.4804 -35.4680 -35.4680 -35.4579 -35.4579 -35.4455 -35.4455 -31.0148
   -31.0148 -31.0074 -31.0001 -31.0001 -30.9988 -30.9988 -30.9979 -30.9914
     8.1274   8.1294   8.1567   8.1583   8.2160   8.2222   8.3101   8.3116
     8.3836   8.3887   8.4275   8.4989   8.5068   8.5541   8.6455   8.7010
     8.7048   8.7243   9.1512   9.1573   9.1651   9.1768   9.1782   9.2286
     9.2456   9.2478   9.2592   9.2607   9.4355   9.4628   9.4708   9.5026
     9.5355   9.5452   9.6987   9.7042   9.7533   9.7672   9.7809   9.8162
     9.9318   9.9815  10.0116  10.0342  10.0369  10.0393  10.1117  10.2690
    10.3004  10.3590  10.5594  10.5706  10.5808  10.5926  10.6226  10.7018
    10.7714  10.8633  11.0766  11.2294  11.2409  11.3147  11.3155  11.3667
    11.4293  11.4314  11.5168  11.5182  11.5259  11.5349  11.5694  11.5705
    11.5717  11.6090  11.6212  11.6599  11.6680  11.6897  11.7328  11.7766
    11.7927  11.7983  11.8150  11.8277  11.9294  12.0430  12.0644  12.2069
    12.2695  12.2964  12.3610  12.3683  12.4128  12.4161  12.4230  12.4851
    12.5156  12.5790  12.5959  12.6329  12.6576  12.6587  12.6635  12.7028
    12.7416  12.7976  12.8104  12.8338  12.8509  12.9562  12.9700  12.9922
    13.0094  13.0184  13.0285  13.1800  13.2560  13.3095  13.3850  13.7421
    13.8167  13.8518  13.8838  14.3711  14.4363  14.4667  14.4839  14.8056
    14.8408  16.5927  16.7054  16.8114  16.8237  16.8344  16.8364  16.8944
    16.9004  16.9006  17.5772  17.5773  17.5794  17.9403  17.9712  17.9932
    19.6615  19.6752

          k = 0.0000-0.5000-0.0484 ( 13892 PWs)   bands (ev):

   -66.8398 -66.7536 -66.7536 -66.7299 -66.7299 -62.1787 -62.1787 -62.1729
   -35.6029 -35.5677 -35.5554 -35.5229 -35.5229 -35.4974 -35.4974 -35.4804
   -35.4804 -35.4680 -35.4680 -35.4579 -35.4579 -35.4455 -35.4455 -31.0148
   -31.0148 -31.0074 -31.0001 -31.0001 -30.9988 -30.9988 -30.9979 -30.9914
     8.1255   8.1397   8.1406   8.1649   8.2118   8.2312   8.2926   8.3359
     8.3561   8.3980   8.4431   8.4957   8.4989   8.5575   8.6450   8.6943
     8.7114   8.7258   9.1512   9.1532   9.1577   9.1646   9.1782   9.1866
     9.2458   9.2592   9.3124   9.3373   9.3997   9.4355   9.4699   9.4794
     9.5035   9.5355   9.7262   9.7352   9.7662   9.7679   9.7721   9.8158
     9.9318   9.9825  10.0236  10.0335  10.0372  10.0390  10.1313  10.2192
    10.2623  10.3924  10.5592  10.5706  10.5794  10.5941  10.6226  10.7018
    10.7667  10.8933  11.0764  11.2311  11.2409  11.3327  11.3530  11.3670
    11.3742  11.4267  11.5088  11.5187  11.5233  11.5347  11.5445  11.5662
    11.5734  11.5814  11.6075  11.6443  11.6633  11.7495  11.7524  11.7761
    11.7792  11.8007  11.8150  11.8186  11.9917  12.0441  12.0909  12.1902
    12.2069  12.2937  12.3369  12.4057  12.4141  12.4192  12.4217  12.5052
    12.5197  12.5612  12.5665  12.6509  12.6524  12.6637  12.6987  12.7077
    12.7415  12.7770  12.7958  12.8104  12.8329  12.9922  13.0101  13.0179
    13.0183  13.0270  13.0285  13.1127  13.1744  13.3596  13.4648  13.6749
    13.6854  13.9924  14.0075  14.2063  14.2522  14.6736  14.6867  14.7029
    14.7617  16.5981  16.7069  16.8114  16.8189  16.8344  16.8364  16.8956
    16.8996  16.9010  17.5772  17.5773  17.5794  17.9405  17.9712  17.9930
    19.7383  19.7987

          k = 0.1250 0.1250 0.0000 ( 13839 PWs)   bands (ev):

   -66.8386 -66.7524 -66.7524 -66.7288 -66.7288 -62.1807 -62.1807 -62.1749
   -35.6037 -35.5577 -35.5577 -35.5237 -35.5237 -35.4983 -35.4983 -35.4704
   -35.4704 -35.4703 -35.4703 -35.4479 -35.4479 -35.4478 -35.4478 -31.0018
   -31.0018 -31.0016 -31.0016 -31.0013 -31.0013 -30.9991 -30.9944 -30.9942
     6.2350   6.3650   6.3887   6.7785   6.8213   7.3961   7.4260   7.9138
     8.3510   8.5878   8.6330   8.6847   8.6926   8.7172   8.7316   8.7483
     8.7489   8.9333   8.9514   9.0083   9.0230   9.1211   9.1530   9.3649
     9.3697   9.3891   9.3979   9.4696   9.5505   9.6423   9.6810   9.7044
     9.7462   9.8102   9.8173   9.8746   9.8851   9.8901   9.8924   9.8929
     9.9126   9.9215  10.0714  10.1402  10.1518  10.1574  10.1988  10.2068
    10.3359  10.3431  10.3521  10.3569  10.3684  10.3981  10.5147  10.5313
    10.5324  10.5426  10.6617  10.7112  10.7208  10.7247  10.7947  10.7977
    10.8433  10.9002  10.9027  11.0859  11.1275  11.1339  11.1363  11.1656
    11.1911  11.2074  11.2119  11.2973  11.3809  11.4004  11.4229  11.4371
    11.4416  11.4843  11.5247  11.5494  11.5990  11.6085  11.6567  11.7773
    11.7948  11.7993  11.8342  11.8724  11.9043  11.9741  11.9944  12.0251
    12.0652  12.0901  12.1100  12.1710  12.2804  12.3469  12.3846  12.4233
    12.5122  12.5330  12.5867  12.6113  12.6518  12.7065  12.7350  12.7581
    12.7671  12.7866  12.9975  13.0783  13.9976  14.1768  15.2808  15.6578
    16.2900  16.8014  16.8285  16.8617  16.8976  16.8982  16.9273  16.9689
    16.9809  17.0047  17.0114  17.0150  17.0233  17.6611  17.6814  18.2744
    18.6716  19.1952  19.2524  19.3265  19.4817  19.5693  19.6560  19.9556
    20.0422  20.1743

          k = 0.1250 0.1250-0.0484 ( 13838 PWs)   bands (ev):

   -66.8386 -66.7524 -66.7524 -66.7288 -66.7288 -62.1807 -62.1807 -62.1749
   -35.6037 -35.5577 -35.5577 -35.5237 -35.5237 -35.4983 -35.4983 -35.4704
   -35.4704 -35.4703 -35.4703 -35.4479 -35.4479 -35.4478 -35.4478 -31.0018
   -31.0018 -31.0016 -31.0016 -31.0013 -31.0013 -30.9991 -30.9944 -30.9942
     6.2654   6.2766   6.5079   6.6090   7.0367   7.1407   7.7251   7.7277
     8.4887   8.5168   8.6040   8.6232   8.6854   8.6918   8.7458   8.7486
     8.8745   8.9270   8.9314   8.9533   9.0438   9.1354   9.1743   9.2882
     9.3574   9.4322   9.4446   9.4902   9.5071   9.6111   9.6971   9.7271
     9.7483   9.7938   9.8272   9.8755   9.8761   9.8811   9.8983   9.9071
     9.9075   9.9209  10.1077  10.1118  10.1400  10.1520  10.1574  10.2493
    10.3348  10.3512  10.3544  10.3579  10.3900  10.3981  10.4686  10.5310
    10.5325  10.5627  10.6763  10.6821  10.7353  10.7631  10.7663  10.7712
    10.8511  10.8658  10.9579  11.0816  11.1168  11.1315  11.1363  11.1672
    11.1705  11.2083  11.2829  11.3217  11.3220  11.3543  11.4121  11.4386
    11.4591  11.4652  11.5207  11.5588  11.6410  11.6465  11.6512  11.7729
    11.8000  11.8078  11.8257  11.8454  11.9016  11.9291  11.9509  12.0733
    12.0888  12.1188  12.1239  12.1588  12.2863  12.3161  12.3634  12.4610
    12.4965  12.5282  12.6027  12.6151  12.6428  12.7192  12.7518  12.7609
    12.7714  12.8132  12.8203  13.2605  13.7530  14.4671  15.0133  15.9627
    16.1231  16.8269  16.8504  16.8524  16.8658  16.8949  16.9330  16.9761
    16.9919  16.9984  17.0050  17.0148  17.0233  17.6016  17.9067  17.9254
    19.2185  19.2479  19.2628  19.3258  19.3269  19.3656  19.5785  19.8002
    19.9371  20.1164

          k = 0.1250 0.2500 0.0000 ( 13846 PWs)   bands (ev):

   -66.8384 -66.7522 -66.7522 -66.7285 -66.7285 -62.1804 -62.1804 -62.1746
   -35.6033 -35.5619 -35.5574 -35.5234 -35.5234 -35.4979 -35.4979 -35.4745
   -35.4745 -35.4701 -35.4701 -35.4520 -35.4520 -35.4476 -35.4476 -31.0070
   -31.0070 -31.0013 -31.0013 -31.0007 -31.0007 -30.9996 -30.9985 -30.9939
     6.8817   7.0013   7.0270   7.3783   7.4141   7.8840   7.8929   8.2424
     8.3978   8.5934   8.5975   8.7717   8.7805   8.8086   8.8731   8.9209
     8.9668   8.9825   9.0331   9.0394   9.0442   9.1798   9.2396   9.2702
     9.3132   9.3400   9.4824   9.4839   9.5033   9.5260   9.5282   9.5619
     9.5915   9.6167   9.6991   9.7234   9.7650   9.8195   9.8217   9.8941
     9.9239   9.9714   9.9732  10.0081  10.0881  10.1312  10.1538  10.2697
    10.3523  10.3644  10.3834  10.4326  10.4579  10.4581  10.4651  10.4898
    10.5798  10.6487  10.6577  10.6754  10.6910  10.7783  10.8671  10.8700
    10.9121  10.9209  10.9891  11.0185  11.0287  11.1473  11.1541  11.2703
    11.2900  11.3600  11.4280  11.4336  11.4748  11.5217  11.5330  11.5561
    11.6303  11.6330  11.6493  11.6609  11.6622  11.7352  11.7564  11.7865
    11.8118  11.8908  11.9556  11.9719  11.9986  12.0486  12.0499  12.1204
    12.1539  12.1725  12.1921  12.2299  12.3362  12.3946  12.5316  12.5329
    12.5595  12.5871  12.5932  12.6134  12.6371  12.6953  12.7344  12.7617
    12.8123  12.8227  13.1614  13.2423  14.2707  14.4400  15.4621  15.8423
    16.1204  16.2900  16.3812  16.4591  16.5144  16.7468  16.7575  16.9629
    16.9869  17.0206  17.1019  17.2030  17.2403  17.2757  17.3237  17.5416
    17.6833  17.7922  18.0589  18.1826  18.7807  18.7896  18.9165  18.9599
    19.4167  20.5079

          k = 0.1250 0.2500-0.0484 ( 13868 PWs)   bands (ev):

   -66.8384 -66.7522 -66.7522 -66.7285 -66.7285 -62.1804 -62.1804 -62.1746
   -35.6033 -35.5619 -35.5574 -35.5234 -35.5234 -35.4979 -35.4979 -35.4745
   -35.4745 -35.4701 -35.4701 -35.4520 -35.4520 -35.4476 -35.4476 -31.0070
   -31.0070 -31.0013 -31.0013 -31.0007 -31.0007 -30.9996 -30.9985 -30.9939
     6.9091   6.9218   7.1336   7.2281   7.6042   7.6725   8.1070   8.1155
     8.4810   8.4917   8.6914   8.6940   8.7945   8.8270   8.8852   8.9018
     8.9648   9.0127   9.0200   9.0425   9.0431   9.1780   9.2124   9.2563
     9.2975   9.4115   9.4735   9.4934   9.5084   9.5145   9.5181   9.5732
     9.6049   9.6081   9.6943   9.7091   9.7389   9.7976   9.8083   9.9163
     9.9495   9.9896  10.0020  10.0352  10.0352  10.1212  10.2037  10.2084
    10.3282  10.3366  10.3980  10.4430  10.4507  10.4812  10.4995  10.5451
    10.5651  10.5756  10.6392  10.7125  10.7198  10.7513  10.8340  10.8372
    10.9390  10.9729  10.9744  11.0302  11.0716  11.1190  11.1580  11.1916
    11.2835  11.4098  11.4206  11.4675  11.4945  11.5103  11.5504  11.5551
    11.6010  11.6142  11.6397  11.6625  11.6631  11.7372  11.7603  11.7683
    11.8168  11.8970  11.9276  12.0189  12.0279  12.0442  12.0570  12.0939
    12.0965  12.2168  12.2219  12.2246  12.2960  12.4401  12.4560  12.5294
    12.5609  12.5836  12.5931  12.6364  12.6659  12.7326  12.7600  12.8048
    12.8078  12.8476  12.8617  13.5314  13.9492  14.7590  15.2555  15.9549
    16.1110  16.2703  16.3906  16.5202  16.5397  16.5925  16.8124  16.9719
    16.9969  17.0039  17.1430  17.1534  17.2435  17.2989  17.3134  17.5965
    17.6131  17.7541  18.2556  18.3303  18.3922  18.5188  19.1102  19.1273
    19.7817  19.8035

          k = 0.1250 0.3750 0.0000 ( 13875 PWs)   bands (ev):

   -66.8388 -66.7526 -66.7526 -66.7290 -66.7290 -62.1796 -62.1796 -62.1738
   -35.6030 -35.5659 -35.5572 -35.5230 -35.5230 -35.4975 -35.4975 -35.4786
   -35.4786 -35.4699 -35.4699 -35.4561 -35.4561 -35.4473 -35.4473 -31.0123
   -31.0123 -31.0049 -31.0010 -31.0010 -31.0002 -31.0002 -30.9980 -30.9936
     7.7539   7.8509   7.8772   8.1247   8.1440   8.3188   8.3209   8.3607
     8.3993   8.4253   8.4607   8.5563   8.5568   8.7168   8.7470   8.8548
     8.9251   8.9989   9.1219   9.1498   9.2241   9.2634   9.2663   9.2745
     9.2820   9.3352   9.3368   9.3667   9.4295   9.4436   9.4839   9.5147
     9.5446   9.5550   9.5748   9.5899   9.7336   9.7769   9.7868   9.8985
     9.9264   9.9353   9.9870  10.0004  10.0092  10.2737  10.2936  10.3637
    10.3734  10.4671  10.5200  10.5315  10.5561  10.5631  10.5935  10.6542
    10.6682  10.7393  10.7945  10.8660  11.0265  11.0314  11.0491  11.0966
    11.1148  11.1170  11.2256  11.2333  11.2741  11.3516  11.4323  11.4413
    11.4957  11.5301  11.5490  11.5533  11.5722  11.6373  11.6652  11.6711
    11.7029  11.7156  11.7572  11.7849  11.8358  11.8452  11.8830  11.9042
    11.9117  11.9184  11.9452  11.9496  12.0389  12.0662  12.1123  12.1427
    12.2578  12.2972  12.3719  12.4205  12.4419  12.4637  12.4845  12.5318
    12.5414  12.5792  12.6401  12.6547  12.7766  12.7776  12.8737  12.8775
    13.1593  13.2044  13.6357  13.6664  14.3313  14.3858  14.4698  14.6492
    14.6872  15.1104  15.1563  15.5191  15.5732  15.8804  15.9279  16.2443
    16.2464  16.9569  16.9751  16.9847  17.0263  17.0431  17.1228  17.2126
    17.2358  17.2668  17.6460  17.6680  17.7270  18.0220  18.0739  18.1913
    19.6390  19.6787

          k = 0.1250 0.3750-0.0484 ( 13882 PWs)   bands (ev):

   -66.8388 -66.7526 -66.7526 -66.7290 -66.7290 -62.1796 -62.1796 -62.1738
   -35.6030 -35.5659 -35.5572 -35.5230 -35.5230 -35.4975 -35.4975 -35.4786
   -35.4786 -35.4699 -35.4699 -35.4561 -35.4561 -35.4473 -35.4473 -31.0123
   -31.0123 -31.0049 -31.0010 -31.0010 -31.0002 -31.0002 -30.9980 -30.9936
     7.7755   7.7898   7.9555   8.0283   8.2445   8.2548   8.3476   8.3583
     8.3996   8.4159   8.4887   8.5006   8.6030   8.6785   8.8107   8.8131
     8.9417   8.9691   9.1363   9.1904   9.2059   9.2410   9.2690   9.2783
     9.2898   9.3396   9.3473   9.3789   9.3957   9.4079   9.4599   9.5083
     9.5500   9.5551   9.5814   9.6839   9.7422   9.7524   9.8361   9.8576
     9.8846   9.8880   9.9846  10.0182  10.0306  10.2394  10.3582  10.3930
    10.4221  10.4337  10.4986  10.4999  10.5409  10.5638  10.5660  10.6130
    10.7071  10.7995  10.8449  10.8808  10.9224  10.9416  11.1004  11.1181
    11.1429  11.1485  11.1902  11.2442  11.3006  11.3500  11.3694  11.4618
    11.4748  11.5440  11.5512  11.5945  11.5972  11.6124  11.6299  11.6843
    11.7118  11.7368  11.7396  11.7843  11.8188  11.8429  11.8647  11.9147
    11.9198  11.9317  11.9397  11.9750  12.0204  12.0662  12.0835  12.1783
    12.2256  12.3447  12.3699  12.3918  12.4281  12.4508  12.4837  12.5383
    12.5527  12.6116  12.6437  12.6602  12.7311  12.7812  12.8233  13.0134
    13.0197  13.3811  13.3876  13.8895  14.1520  14.4239  14.4344  14.7377
    14.8268  14.9678  15.1250  15.5237  15.5308  15.9965  16.0436  16.1572
    16.1680  16.9578  16.9661  16.9871  17.0021  17.0948  17.1066  17.2115
    17.2439  17.2603  17.6458  17.6782  17.7189  17.9737  18.1277  18.1879
    19.7589  19.7677

          k = 0.1250-0.5000 0.0000 ( 13890 PWs)   bands (ev):

   -66.8392 -66.7530 -66.7530 -66.7293 -66.7293 -62.1790 -62.1790 -62.1733
   -35.6028 -35.5675 -35.5571 -35.5228 -35.5228 -35.4974 -35.4974 -35.4802
   -35.4802 -35.4697 -35.4697 -35.4577 -35.4577 -35.4472 -35.4472 -31.0146
   -31.0146 -31.0072 -31.0008 -31.0008 -31.0000 -31.0000 -30.9978 -30.9934
     8.2875   8.2917   8.3203   8.3301   8.3770   8.3949   8.4352   8.4384
     8.5091   8.5196   8.5236   8.5993   8.6137   8.6186   8.7154   8.7294
     8.7338   8.7630   9.1241   9.1575   9.1742   9.1840   9.1853   9.2352
     9.2459   9.2493   9.2958   9.3043   9.3888   9.4494   9.4594   9.4872
     9.5142   9.5374   9.6809   9.6986   9.8226   9.8498   9.8769   9.8791
     9.8820   9.8833   9.9065   9.9237   9.9575  10.2867  10.3265  10.3956
    10.4395  10.4653  10.5067  10.5426  10.6062  10.6328  10.6842  10.7449
    10.8125  10.8181  10.8701  10.9885  10.9891  11.0659  11.1113  11.1503
    11.3791  11.4014  11.4016  11.4372  11.5169  11.5315  11.5449  11.5651
    11.5769  11.5950  11.6332  11.6366  11.6449  11.7095  11.7119  11.8128
    11.8190  11.8506  11.8843  11.9395  11.9838  11.9968  12.0013  12.0063
    12.0158  12.0281  12.0787  12.1245  12.1515  12.1701  12.1709  12.2600
    12.2657  12.3744  12.4749  12.4919  12.4937  12.4956  12.4979  12.5485
    12.5560  12.6338  12.6532  12.8550  12.8729  12.8805  12.8909  13.2269
    13.2490  13.2648  13.3544  13.6764  13.7989  13.7999  13.8548  14.2441
    14.2978  14.3754  14.5001  14.9128  15.0481  15.1062  15.1591  15.4748
    15.5040  16.7374  16.8797  16.9524  16.9602  16.9619  16.9818  17.0585
    17.0613  17.1376  17.6411  17.6831  17.7166  17.9670  17.9994  18.0263
    19.6305  19.6409

          k = 0.1250-0.5000-0.0484 ( 13872 PWs)   bands (ev):

   -66.8392 -66.7530 -66.7530 -66.7293 -66.7293 -62.1790 -62.1790 -62.1733
   -35.6028 -35.5675 -35.5571 -35.5228 -35.5228 -35.4974 -35.4974 -35.4802
   -35.4802 -35.4697 -35.4697 -35.4577 -35.4577 -35.4472 -35.4472 -31.0146
   -31.0146 -31.0072 -31.0008 -31.0008 -31.0000 -31.0000 -30.9978 -30.9934
     8.2868   8.2969   8.3104   8.3336   8.3858   8.3934   8.4190   8.4507
     8.5021   8.5144   8.5360   8.5981   8.6148   8.6165   8.7235   8.7264
     8.7379   8.7539   9.1185   9.1541   9.1624   9.1792   9.1979   9.2303
     9.2684   9.2814   9.2909   9.3342   9.3520   9.3893   9.4599   9.4905
     9.5105   9.5376   9.7391   9.7505   9.8086   9.8273   9.8276   9.8586
     9.8911   9.8984   9.9070   9.9243   9.9605  10.2747  10.3299  10.4177
    10.4324  10.4667  10.4966  10.5290  10.6263  10.6382  10.6866  10.7427
    10.8185  10.8202  10.8609  10.9803  10.9955  11.0416  11.1223  11.1964
    11.3608  11.3651  11.4011  11.4016  11.5335  11.5404  11.5519  11.5539
    11.5621  11.5841  11.6263  11.6583  11.6907  11.7388  11.7582  11.7665
    11.8077  11.8506  11.9003  11.9438  11.9687  11.9785  11.9892  11.9967
    12.0063  12.0435  12.0600  12.1169  12.1373  12.2078  12.2215  12.2337
    12.2513  12.3731  12.4767  12.4784  12.4935  12.5156  12.5220  12.5224
    12.5292  12.7020  12.7173  12.7287  12.7395  13.0307  13.0533  13.0644
    13.0937  13.4261  13.4854  13.5279  13.6349  13.9962  14.0269  14.0673
    14.1143  14.5775  14.6560  14.7147  14.8523  15.2785  15.3807  15.3918
    15.3927  16.7450  16.8826  16.9442  16.9572  16.9631  16.9844  17.0586
[...]
    11.5083  11.5977  11.6187  11.6520  11.6610  11.7500  11.7574  11.9288
    11.9299  11.9399  11.9756  12.0094  12.0614  12.0803  12.0951  12.1972
    12.2007  12.2877  12.3000  12.3333  12.3939  12.4083  12.5084  12.5511
    12.5679  12.5933  12.8002  12.8009  13.1134  13.1312  13.4023  13.6339
    13.9733  14.0054  14.4732  14.5568  15.1637  15.2632  15.3146  15.3265
    15.3900  15.8808  15.9747  16.0279  16.1301  16.2810  16.3727  16.9343
    16.9680  17.0648  17.0828  17.1400  17.2052  17.2061  17.2792  17.3083
    17.3607  17.4630  17.5001  17.5199  17.5239  17.6081  18.0100  18.0405
    18.0964  18.1894  18.2149  18.2640  18.3419  18.7657  18.9214  18.9557
    19.6198  19.6573

          k = 0.2500 0.3750-0.0484 ( 13916 PWs)   bands (ev):

   -66.7880 -66.7880 -66.7620 -62.2093 -62.1465 -62.1465 -62.1293 -62.1293
   -35.5518 -35.5518 -35.5301 -35.5170 -35.5170 -35.5127 -35.5127 -35.4894
   -35.4851 -31.0424 -31.0366 -31.0258 -30.9779 -30.9779 -30.9722 -30.9722
   -30.9701 -30.9701 -30.9606 -30.9606 -30.9548 -30.9548 -30.9537 -30.9537
     8.0245   8.0706   8.2037   8.4482   8.6220   8.6735   8.7541   8.7790
     8.8559   8.8936   8.9124   8.9126   8.9176   8.9354   9.0944   9.1255
     9.1446   9.3118   9.3168   9.3599   9.3665   9.4004   9.4247   9.4428
     9.4566   9.4975   9.5594   9.6236   9.6770   9.6876   9.7479   9.7481
     9.7694   9.7863   9.8138   9.8663   9.8942   9.9284   9.9749   9.9869
    10.1841  10.1906  10.2321  10.2432  10.2589  10.2762  10.4073  10.4840
    10.5046  10.5415  10.5561  10.5884  10.6056  10.6072  10.6717  10.6991
    10.7346  10.7783  10.7853  10.8567  10.9033  10.9277  11.0409  11.0427
    11.1357  11.1855  11.2013  11.2085  11.2738  11.2910  11.4553  11.4631
    11.5099  11.6088  11.6335  11.6495  11.6503  11.6757  11.8449  11.9039
    11.9311  11.9362  11.9403  12.0384  12.0606  12.0756  12.1343  12.1439
    12.2533  12.2535  12.3111  12.3254  12.3592  12.4699  12.4789  12.5474
    12.5548  12.6631  12.6772  12.9404  12.9720  13.2599  13.3227  13.7432
    13.7828  14.1865  14.3249  14.6433  15.1911  15.2099  15.2335  15.3811
    15.4491  15.8535  15.9514  16.0402  16.1993  16.2122  16.3922  16.9259
    16.9760  17.0653  17.0821  17.1404  17.2043  17.2098  17.2536  17.3383
    17.3626  17.4611  17.5014  17.5152  17.5203  17.6082  18.0189  18.0357
    18.0565  18.0949  18.2839  18.3197  18.5376  18.5586  18.8698  18.9608
    19.6121  19.6929

          k = 0.2500-0.5000 0.0000 ( 13940 PWs)   bands (ev):

   -66.7883 -66.7882 -66.7622 -62.2089 -62.1461 -62.1461 -62.1289 -62.1289
   -35.5517 -35.5517 -35.5300 -35.5186 -35.5186 -35.5125 -35.5125 -35.4911
   -35.4850 -31.0446 -31.0365 -31.0256 -30.9802 -30.9802 -30.9720 -30.9720
   -30.9699 -30.9699 -30.9628 -30.9628 -30.9547 -30.9547 -30.9535 -30.9535
     8.4271   8.4676   8.5015   8.5172   8.5252   8.6077   8.7741   8.7758
     8.8439   8.8456   8.8539   8.8617   8.9027   8.9470   9.0386   9.0595
     9.1427   9.1612   9.2304   9.2538   9.3560   9.3710   9.3806   9.3811
     9.3964   9.4072   9.4713   9.5910   9.6526   9.6802   9.7377   9.7402
     9.7448   9.7996   9.8754   9.9255   9.9442   9.9658   9.9875  10.0030
    10.3268  10.3980  10.3994  10.4341  10.4546  10.4582  10.4612  10.5005
    10.5460  10.7384  10.7433  10.7954  10.8165  10.8342  10.8543  10.8619
    10.8772  10.8903  10.9306  10.9757  11.0279  11.0424  11.0605  11.1321
    11.2438  11.2555  11.2792  11.3058  11.3451  11.3515  11.4959  11.5556
    11.5806  11.6916  11.6923  11.6967  11.8554  11.8748  11.8905  11.8970
    11.8996  12.0071  12.0214  12.0352  12.0857  12.0984  12.1259  12.2571
    12.2736  12.3236  12.3952  12.4084  12.4334  12.4874  12.5024  12.7998
    12.8151  12.9712  13.0478  13.0931  13.1356  13.3083  13.4113  13.7036
    13.7411  13.9643  14.1301  14.2015  14.3904  14.5757  14.6636  14.7119
    14.7310  15.2162  15.4650  15.6296  16.0517  16.1624  16.2431  16.9117
    16.9194  17.0573  17.0902  17.0989  17.1070  17.1081  17.1215  17.1722
    17.2818  17.5044  17.5197  17.7363  17.7621  17.8518  17.8919  17.9412
    17.9792  18.1523  18.1914  18.2368  18.2673  18.2861  18.5114  18.5417
    19.6709  19.7194

          k = 0.2500-0.5000-0.0484 ( 13912 PWs)   bands (ev):

   -66.7883 -66.7882 -66.7622 -62.2089 -62.1461 -62.1461 -62.1289 -62.1289
   -35.5517 -35.5517 -35.5300 -35.5186 -35.5186 -35.5125 -35.5125 -35.4911
   -35.4850 -31.0446 -31.0365 -31.0256 -30.9802 -30.9802 -30.9720 -30.9720
   -30.9699 -30.9699 -30.9628 -30.9628 -30.9547 -30.9547 -30.9535 -30.9535
     8.4296   8.4742   8.4940   8.4961   8.5408   8.6173   8.7679   8.7743
     8.8438   8.8458   8.8542   8.8614   8.9027   8.9466   9.0420   9.0514
     9.1470   9.1692   9.2329   9.2517   9.3620   9.3695   9.3737   9.3754
     9.3894   9.4132   9.4726   9.5982   9.6491   9.6926   9.7035   9.7193
     9.7836   9.8386   9.8404   9.9044   9.9503   9.9664   9.9953  10.0104
    10.3283  10.3884  10.4092  10.4320  10.4554  10.4557  10.4619  10.4983
    10.5383  10.7615  10.7656  10.7846  10.7911  10.8298  10.8390  10.8716
    10.8873  10.9092  10.9330  10.9415  11.0235  11.0425  11.0810  11.1329
    11.2359  11.2610  11.2798  11.2998  11.3469  11.3528  11.4956  11.5555
    11.5812  11.6916  11.6923  11.6967  11.8572  11.8716  11.8811  11.9014
    11.9090  12.0024  12.0193  12.0382  12.0866  12.0983  12.1262  12.2525
    12.2679  12.3276  12.4079  12.4410  12.4498  12.4592  12.4633  12.8332
    12.8389  12.9152  12.9932  13.1487  13.1934  13.2719  13.3789  13.7452
    13.7661  13.8975  14.0895  14.3063  14.4259  14.5216  14.5242  14.7643
    14.8195  15.1825  15.4562  15.6464  16.0601  16.1577  16.2381  16.9127
    16.9195  17.0553  17.0891  17.1014  17.1068  17.1140  17.1158  17.1723
    17.2822  17.5040  17.5183  17.7437  17.7732  17.8317  17.8741  17.9486
    17.9889  18.1541  18.1824  18.2047  18.3090  18.3927  18.4499  18.4672
    19.8562  19.9804

          k = 0.3750 0.3750 0.0000 ( 13948 PWs)   bands (ev):

   -66.7878 -66.7878 -66.7618 -62.2091 -62.1463 -62.1463 -62.1291 -62.1291
   -35.5516 -35.5516 -35.5299 -35.5166 -35.5166 -35.5166 -35.5166 -35.4891
   -35.4890 -31.0419 -31.0417 -31.0255 -30.9775 -30.9775 -30.9773 -30.9773
   -30.9698 -30.9698 -30.9602 -30.9602 -30.9600 -30.9600 -30.9534 -30.9534
     8.1373   8.2143   8.2788   8.4845   8.5350   8.5762   8.7023   8.7068
     9.0251   9.0444   9.0739   9.0992   9.1074   9.2017   9.2337   9.2474
     9.2773   9.3360   9.3447   9.3608   9.3870   9.4125   9.4313   9.5009
     9.5090   9.5363   9.5394   9.6224   9.6655   9.6983   9.7074   9.8652
     9.9659   9.9775  10.0101  10.0145  10.0459  10.0564  10.1078  10.1383
    10.1501  10.2072  10.2171  10.2833  10.2891  10.3210  10.3308  10.4974
    10.5110  10.5999  10.6452  10.6657  10.6935  10.7216  10.8036  10.8303
    10.8812  11.0049  11.0112  11.0170  11.1181  11.1851  11.2270  11.2427
    11.2890  11.3003  11.3089  11.4673  11.4744  11.4747  11.5168  11.5557
    11.5780  11.6317  11.6450  11.6469  11.7835  11.9616  11.9695  11.9720
    11.9878  11.9981  12.0127  12.0148  12.0290  12.1234  12.1376  12.1435
    12.1452  12.2552  12.2623  12.2941  12.3558  12.4103  12.4968  12.5293
    12.6865  12.7073  13.0496  13.0805  13.4171  13.4734  13.7067  14.1693
    14.3333  14.6506  14.8701  14.8855  15.1077  15.1847  15.2109  15.3611
    15.3841  16.2653  16.3631  16.3838  16.4313  16.4573  16.6014  17.0093
    17.0511  17.0936  17.1093  17.1565  17.2807  17.3392  17.4466  17.5133
    17.6976  17.8255  17.8633  17.8759  17.8893  17.9185  17.9971  18.0108
    18.1671  18.2034  18.2533  18.2535  18.4265  18.5596  18.8706  18.9074
    18.9709  19.0292

          k = 0.3750 0.3750-0.0484 ( 13950 PWs)   bands (ev):

   -66.7878 -66.7878 -66.7618 -62.2091 -62.1463 -62.1463 -62.1291 -62.1291
   -35.5516 -35.5516 -35.5299 -35.5166 -35.5166 -35.5166 -35.5166 -35.4891
   -35.4890 -31.0419 -31.0417 -31.0255 -30.9775 -30.9775 -30.9773 -30.9773
   -30.9698 -30.9698 -30.9602 -30.9602 -30.9600 -30.9600 -30.9534 -30.9534
     8.1447   8.1924   8.2992   8.4870   8.5325   8.5954   8.6055   8.8114
     8.9602   9.0568   9.0782   9.1016   9.1471   9.1809   9.1809   9.2703
     9.3119   9.3268   9.3398   9.3503   9.4026   9.4394   9.4467   9.4589
     9.4865   9.5416   9.5906   9.5932   9.6408   9.6567   9.8314   9.8367
     9.9295   9.9381  10.0086  10.0092  10.0154  10.1025  10.1479  10.1562
    10.1605  10.1991  10.2266  10.2459  10.2773  10.3447  10.3749  10.3821
    10.5573  10.5970  10.6214  10.6833  10.7081  10.7746  10.7921  10.8396
    10.8810  10.9184  11.0109  11.0174  11.1545  11.1837  11.2155  11.2622
    11.2915  11.3035  11.3514  11.4123  11.4582  11.4975  11.4990  11.5654
    11.5716  11.6332  11.6424  11.6484  11.8528  11.8560  11.9732  11.9793
    12.0012  12.0120  12.0157  12.0356  12.0598  12.0727  12.0997  12.1704
    12.1734  12.2441  12.2746  12.2899  12.3314  12.4393  12.4855  12.5738
    12.5743  12.8391  12.9041  13.2250  13.2949  13.5599  13.6739  14.2040
    14.2893  14.7131  14.7751  14.9326  15.1306  15.1386  15.2394  15.3503
    15.3896  16.2699  16.3497  16.3519  16.4679  16.5031  16.5565  17.0218
    17.0417  17.0971  17.1064  17.1565  17.2997  17.3201  17.4173  17.5411
    17.7027  17.8543  17.8633  17.8678  17.8759  17.8894  17.9664  18.0311
    18.1895  18.2207  18.2266  18.3983  18.4679  18.4978  18.6585  18.6664
    18.9434  19.0850

          k = 0.3750-0.5000 0.0000 ( 13934 PWs)   bands (ev):

   -66.7878 -66.7878 -66.7618 -62.2089 -62.1461 -62.1461 -62.1289 -62.1289
   -35.5515 -35.5514 -35.5298 -35.5182 -35.5182 -35.5165 -35.5165 -35.4907
   -35.4889 -31.0440 -31.0416 -31.0253 -30.9796 -30.9796 -30.9772 -30.9772
   -30.9696 -30.9696 -30.9623 -30.9623 -30.9599 -30.9599 -30.9533 -30.9533
     8.2657   8.2753   8.3217   8.3510   8.3550   8.4426   8.7326   8.7506
     8.9224   9.0071   9.1375   9.1485   9.1936   9.2038   9.2148   9.2153
     9.2462   9.2945   9.2947   9.3108   9.3411   9.3511   9.4316   9.4333
     9.4607   9.5043   9.6189   9.6453   9.6564   9.6741   9.8948   9.9072
     9.9367   9.9476   9.9968  10.0144  10.0346  10.0502  10.1279  10.1406
    10.2114  10.2351  10.2653  10.3505  10.3872  10.4171  10.4331  10.5709
    10.6183  10.7084  10.7167  10.7954  10.7993  10.8217  10.9069  10.9734
    11.1452  11.1551  11.2029  11.2046  11.2164  11.2442  11.3003  11.3783
    11.3805  11.4317  11.4628  11.5172  11.5175  11.6434  11.6798  11.6823
    11.6909  11.8022  11.8243  11.8453  11.9347  11.9641  11.9877  11.9877
    11.9894  12.0831  12.1125  12.1360  12.1367  12.1443  12.1556  12.2124
    12.2167  12.2540  12.3483  12.3568  12.3903  12.4086  12.4585  12.9759
    12.9988  13.1491  13.2389  13.2972  13.6142  13.7275  13.8669  14.1905
    14.2306  14.3176  14.5243  14.5308  14.5927  14.6019  15.3760  15.4199
    15.4493  15.6071  15.7681  15.9208  16.7718  16.8267  16.8885  17.0418
    17.0466  17.0647  17.0782  17.0838  17.2537  17.2639  17.4208  17.4985
    17.6530  17.8716  17.9246  17.9592  18.0282  18.0324  18.0870  18.1066
    18.1713  18.2396  18.4444  18.5040  18.5540  18.5763  18.8399  18.9450
    18.9596  19.0410

          k = 0.3750-0.5000-0.0484 ( 13940 PWs)   bands (ev):

   -66.7878 -66.7878 -66.7618 -62.2089 -62.1461 -62.1461 -62.1289 -62.1289
   -35.5515 -35.5514 -35.5298 -35.5182 -35.5182 -35.5165 -35.5165 -35.4907
   -35.4889 -31.0440 -31.0416 -31.0253 -30.9796 -30.9796 -30.9772 -30.9772
   -30.9696 -30.9696 -30.9623 -30.9623 -30.9599 -30.9599 -30.9533 -30.9533
     8.2714   8.2799   8.3099   8.3259   8.3775   8.4544   8.7252   8.7266
     8.9732   9.0393   9.0965   9.1153   9.1716   9.2022   9.2043   9.2136
     9.2505   9.2930   9.3168   9.3357   9.3470   9.3873   9.4006   9.4062
     9.4956   9.5394   9.5522   9.5768   9.7446   9.7715   9.7784   9.8165
     9.9886   9.9973  10.0084  10.0219  10.0344  10.0534  10.1704  10.1742
    10.1752  10.2139  10.2659  10.2825  10.2846  10.5169  10.5382  10.5674
    10.6268  10.6700  10.7156  10.7166  10.7882  10.8076  10.9636  10.9929
    11.1439  11.1727  11.1956  11.2033  11.2239  11.2459  11.2797  11.3369
    11.3976  11.4420  11.4460  11.5380  11.5383  11.6240  11.6521  11.7003
    11.7017  11.8025  11.8242  11.8437  11.9382  11.9671  11.9770  11.9874
    11.9943  12.0789  12.1060  12.1391  12.1412  12.1472  12.1562  12.2112
    12.2132  12.2606  12.3721  12.3721  12.3847  12.3857  12.4407  12.9934
    13.0067  13.1237  13.2301  13.3097  13.6214  13.7249  13.8607  14.1990
    14.2357  14.3040  14.5183  14.5472  14.5848  14.6025  15.3748  15.4209
    15.4502  15.6067  15.7680  15.9208  16.7680  16.8234  16.8964  17.0433
    17.0455  17.0648  17.0777  17.0857  17.2471  17.2746  17.3914  17.5211
    17.6741  17.8332  17.8994  18.0004  18.0312  18.0598  18.0650  18.1087
    18.1755  18.2616  18.3452  18.4297  18.6623  18.6868  18.8526  18.9268
    18.9463  18.9643

          k =-0.5000-0.5000 0.0000 ( 13964 PWs)   bands (ev):

   -66.7878 -66.7878 -66.7618 -62.2087 -62.1459 -62.1459 -62.1288 -62.1288
   -35.5514 -35.5514 -35.5297 -35.5181 -35.5181 -35.5180 -35.5180 -35.4905
   -35.4905 -31.0438 -31.0438 -31.0252 -30.9794 -30.9794 -30.9794 -30.9794
   -30.9695 -30.9695 -30.9621 -30.9621 -30.9621 -30.9621 -30.9531 -30.9531
     8.1909   8.1942   8.2412   8.2762   8.2774   8.3666   8.7091   8.7376
     8.8499   8.9303   9.1743   9.2029   9.2074   9.2146   9.2675   9.2675
     9.3016   9.3016   9.3261   9.3261   9.4231   9.4425   9.4553   9.4553
     9.4589   9.4589   9.7034   9.7034   9.7044   9.7044   9.9023   9.9697
     9.9697   9.9705   9.9705   9.9762   9.9771   9.9771  10.0377  10.0612
    10.0612  10.0779  10.0779  10.5169  10.5169  10.5416  10.5655  10.5655
    10.5851  10.6374  10.6741  10.6809  11.0722  11.0722  11.1542  11.1542
    11.1898  11.1932  11.2021  11.2564  11.3169  11.3354  11.4275  11.4276
    11.4475  11.7920  11.7920  11.9315  11.9315  11.9579  11.9670  11.9670
    11.9847  12.0016  12.0027  12.0161  12.0161  12.0478  12.0571  12.0571
    12.0770  12.0992  12.0997  12.1108  12.1108  12.1715  12.1715  12.1780
    12.1853  12.2000  12.2387  12.2406  12.3051  12.3463  12.3874  13.4067
    13.4142  13.4263  13.4307  13.4337  13.8940  13.8940  14.0921  14.0921
    14.1840  14.1840  14.5809  14.5809  14.6361  14.6361  15.8871  15.8871
    15.9477  15.9477  16.0093  16.0093  16.6183  16.6514  16.6770  16.8064
    16.8269  16.9636  17.1058  17.1954  17.3856  17.3856  17.4789  17.4789
    17.7678  17.7783  17.8721  18.0202  18.0383  18.0714  18.1072  18.1072
    18.1233  18.1233  18.1972  18.1972  18.2072  18.3296  18.3296  18.3936
    18.5064  18.7634

          k =-0.5000-0.5000-0.0484 ( 13992 PWs)   bands (ev):

   -66.7878 -66.7878 -66.7618 -62.2087 -62.1459 -62.1459 -62.1288 -62.1288
   -35.5514 -35.5514 -35.5297 -35.5180 -35.5180 -35.5180 -35.5180 -35.4905
   -35.4905 -31.0438 -31.0438 -31.0252 -30.9794 -30.9794 -30.9794 -30.9794
   -30.9695 -30.9695 -30.9621 -30.9621 -30.9621 -30.9621 -30.9532 -30.9532
     8.1945   8.2018   8.2280   8.2510   8.3010   8.3772   8.6971   8.7013
     8.9264   8.9803   9.0538   9.0819   9.2741   9.2741   9.2830   9.2830
     9.3260   9.3436   9.3604   9.3604   9.3787   9.3876   9.3876   9.3918
     9.5626   9.5626   9.5693   9.5693   9.8697   9.8697   9.8730   9.8730
     9.9080   9.9700   9.9700   9.9705   9.9705   9.9776   9.9780   9.9780
    10.0348  10.2889  10.2889  10.2992  10.2992  10.5401  10.5853  10.6403
    10.6740  10.6793  10.7372  10.7372  10.9171  10.9171  11.1900  11.1930
    11.2019  11.2568  11.2677  11.2677  11.3169  11.3352  11.4275  11.4276
    11.4475  11.7095  11.7095  11.9579  11.9670  11.9670  11.9847  12.0016
    12.0027  12.0161  12.0161  12.0306  12.0306  12.0478  12.0571  12.0571
    12.0770  12.0992  12.0997  12.1108  12.1108  12.1281  12.1281  12.1786
    12.1843  12.2015  12.2382  12.2393  12.3061  12.3464  12.3872  13.4067
    13.4142  13.4263  13.4307  13.4338  13.9506  13.9506  13.9853  13.9853
    14.2472  14.2472  14.5533  14.5533  14.6514  14.6514  15.8886  15.8886
    15.9435  15.9435  16.0125  16.0125  16.6182  16.6514  16.6774  16.8049
    16.8270  16.9673  17.1055  17.1902  17.3110  17.3110  17.6590  17.6590
    17.8081  17.8173  17.8206  17.8998  17.8998  17.9402  18.0383  18.0910
    18.1072  18.1072  18.1233  18.1233  18.2675  18.3881  18.4851  18.7644
    18.7914  18.7914

     the Fermi energy is    15.2995 ev

!    total energy              =  -14693.99981643 Ry
     Harris-Foulkes estimate   =  -14693.99980865 Ry
     estimated scf accuracy    <       0.00000060 Ry

     total all-electron energy =   -626921.595538 Ry

     The total energy is the sum of the following terms:

     one-electron contribution =    -714.31513456 Ry
     hartree contribution      =     656.40974459 Ry
     xc contribution           =    -737.89414817 Ry
     ewald contribution        =   -2196.78933708 Ry
     Hubbard energy            =       0.44343002 Ry
     one-center paw contrib.   =  -11701.85437123 Ry

     total magnetization       =     8.88 Bohr mag/cell
     absolute magnetization    =    37.39 Bohr mag/cell

     convergence has been achieved in  23 iterations

     Writing output data file mnau2.save/
 
     init_run     :     13.72s CPU     14.17s WALL (       1 calls)
     electrons    :    767.38s CPU    788.89s WALL (       1 calls)

     Called by init_run:
     wfcinit      :     12.38s CPU     12.68s WALL (       1 calls)
     potinit      :      0.59s CPU      0.70s WALL (       1 calls)
     hinit0       :      0.46s CPU      0.48s WALL (       1 calls)

     Called by electrons:
     c_bands      :    675.60s CPU    693.23s WALL (      23 calls)
     sum_band     :     78.76s CPU     81.08s WALL (      23 calls)
     v_of_rho     :      1.20s CPU      1.22s WALL (      24 calls)
     newd         :      3.12s CPU      3.14s WALL (      24 calls)
     PAW_pot      :      8.65s CPU      8.74s WALL (      24 calls)
     mix_rho      :      0.31s CPU      0.87s WALL (      23 calls)

     Called by c_bands:
     init_us_2    :      3.50s CPU      3.54s WALL (    2880 calls)
     cegterg      :    652.06s CPU    669.45s WALL (    1380 calls)

     Called by sum_band:
     sum_band:bec :      0.98s CPU      0.99s WALL (    1380 calls)
     addusdens    :      4.86s CPU      5.10s WALL (      23 calls)

     Called by *egterg:
     h_psi        :    267.67s CPU    275.05s WALL (    5321 calls)
     s_psi        :     27.65s CPU     27.69s WALL (    5381 calls)
     g_psi        :      0.98s CPU      0.99s WALL (    3881 calls)
     cdiaghg      :    273.96s CPU    283.64s WALL (    5261 calls)

     Called by h_psi:
     h_psi:pot    :    252.83s CPU    260.05s WALL (    5321 calls)
     h_psi:calbec :     37.09s CPU     38.44s WALL (    5321 calls)
     vloc_psi     :    189.03s CPU    194.39s WALL (    5321 calls)
     add_vuspsi   :     26.66s CPU     27.18s WALL (    5321 calls)
     vhpsi        :     14.15s CPU     14.31s WALL (    5321 calls)

     General routines
     calbec       :     66.26s CPU     68.51s WALL (   13462 calls)
     fft          :      1.08s CPU      1.11s WALL (     596 calls)
     ffts         :      0.04s CPU      0.05s WALL (      94 calls)
     fftw         :    222.78s CPU    229.17s WALL ( 1324300 calls)
     interpolate  :      0.10s CPU      0.10s WALL (      48 calls)
     davcio       :      0.01s CPU      1.13s WALL (      60 calls)
 
     Parallel routines
     fft_scatt_xy :     14.26s CPU     14.61s WALL ( 1324990 calls)
     fft_scatt_yz :    148.67s CPU    153.37s WALL ( 1324990 calls)

     Hubbard U routines
     new_ns       :      2.54s CPU      2.61s WALL (      23 calls)
     vhpsi        :     14.15s CPU     14.31s WALL (    5321 calls)
 
     PWSCF        : 13m10.10s CPU    15m15.76s WALL

 
   This run was terminated on:  22:13:31   6Apr2019            

=------------------------------------------------------------------------------=
   JOB DONE.
=------------------------------------------------------------------------------=
