
     Program PWSCF v.6.3MaX starts on  6Apr2019 at 22:13:33 

     This program is part of the open-source Quantum ESPRESSO suite
     for quantum simulation of materials; please cite
         "P. Giannozzi et al., J. Phys.:Condens. Matter 21 395502 (2009);
         "P. Giannozzi et al., J. Phys.:Condens. Matter 29 465901 (2017);
          URL http://www.quantum-espresso.org", 
     in publications or presentations arising from this work. More details at
     http://www.quantum-espresso.org/quote

     Parallel version (MPI), running on    32 processors

     MPI processes distributed on     4 nodes
     R & G space division:  proc/nbgrp/npool/nimage =      32
     Waiting for input...
     Reading input from standard input

     Current dimensions of program PWSCF are:
     Max number of different atomic species (ntypx) = 10
     Max number of k-points (npk) =  40000
     Max angular momentum in pseudopotentials (lmaxx) =  3
               file Mn.pbe-spn-kjpaw_psl.0.3.1.UPF: wavefunction(s)  3P 3D renormalized
               file Mn.pbe-spn-kjpaw_psl.0.3.1.UPF: wavefunction(s)  3P 3D renormalized
               file Au.pbe-dn-kjpaw_psl.0.1.UPF: wavefunction(s)  6S 6P 5D renormalized

     Subspace diagonalization in iterative solution of the eigenvalue problem:
     one sub-group per band group will be used
     scalapack distributed-memory algorithm (size of sub-group:  4*  4 procs)

 
     Parallelization info
     --------------------
     sticks:   dense  smooth     PW     G-vecs:    dense   smooth      PW
     Min          41      18      5                11487     3460     563
     Max          42      19      6                11527     3505     606
     Sum        1313     593    177               368373   111379   18691
 


     bravais-lattice index     =            0
     lattice parameter (alat)  =       6.4153  a.u.
     unit-cell volume          =    2724.7774 (a.u.)^3
     number of atoms/cell      =           24
     number of atomic types    =            3
     number of electrons       =       296.00
     number of Kohn-Sham states=          178
     kinetic-energy cutoff     =      45.0000  Ry
     charge density cutoff     =     400.0000  Ry
     convergence threshold     =      1.0E-06
     mixing beta               =       0.1000
     number of iterations used =            8  plain     mixing
     Exchange-correlation      = SLA PW PBX PBC ( 1  4  3  4 0 0)

     celldm(1)=   6.415315  celldm(2)=   0.000000  celldm(3)=   0.000000
     celldm(4)=   0.000000  celldm(5)=   0.000000  celldm(6)=   0.000000

     crystal axes: (cart. coord. in units of alat)
               a(1) = (   1.000000   0.000000   0.000000 )  
               a(2) = (   0.000000   1.000000   0.000000 )  
               a(3) = (   0.000000   0.000000  10.319937 )  

     reciprocal axes: (cart. coord. in units 2 pi/alat)
               b(1) = (  1.000000  0.000000  0.000000 )  
               b(2) = (  0.000000  1.000000  0.000000 )  
               b(3) = (  0.000000  0.000000  0.096900 )  


     PseudoPot. # 1 for Mn read from file:
     ./pseudo/Mn.pbe-spn-kjpaw_psl.0.3.1.UPF
     MD5 check sum: 7b43a3fb0e93e198b8dd8488d8cf503e
     Pseudo is Projector augmented-wave + core cor, Zval = 15.0
     Generated using "atomic" code by A. Dal Corso v.5.0.99 svn rev. 10869
     Shape of augmentation charge: PSQ
     Using radial grid of 1187 points,  6 beta functions with: 
                l(1) =   0
                l(2) =   0
                l(3) =   1
                l(4) =   1
                l(5) =   2
                l(6) =   2
     Q(r) pseudized with 0 coefficients 


     PseudoPot. # 2 for Mn read from file:
     ./pseudo/Mn.pbe-spn-kjpaw_psl.0.3.1.UPF
     MD5 check sum: 7b43a3fb0e93e198b8dd8488d8cf503e
     Pseudo is Projector augmented-wave + core cor, Zval = 15.0
     Generated using "atomic" code by A. Dal Corso v.5.0.99 svn rev. 10869
     Shape of augmentation charge: PSQ
     Using radial grid of 1187 points,  6 beta functions with: 
                l(1) =   0
                l(2) =   0
                l(3) =   1
                l(4) =   1
                l(5) =   2
                l(6) =   2
     Q(r) pseudized with 0 coefficients 


     PseudoPot. # 3 for Au read from file:
     ./pseudo/Au.pbe-dn-kjpaw_psl.0.1.UPF
     MD5 check sum: be11e2e8e535ebe2b3ccfb4f88f554cb
     Pseudo is Projector augmented-wave + core cor, Zval = 11.0
     Generated using "atomic" code by A. Dal Corso v.5.0.2 svn rev. 9415
     Shape of augmentation charge: PSQ
     Using radial grid of 1279 points,  6 beta functions with: 
                l(1) =   0
                l(2) =   0
                l(3) =   1
                l(4) =   1
                l(5) =   2
                l(6) =   2
     Q(r) pseudized with 0 coefficients 


     atomic species   valence    mass     pseudopotential
        Mn1           15.00    54.93800     Mn( 1.00)
        Mn2           15.00    54.93800     Mn( 1.00)
        Au            11.00   196.96600     Au( 1.00)

     Starting magnetic structure 
     atomic species   magnetization
        Mn1          0.800
        Mn2         -0.800
        Au           0.000


     Full LDA+U calculation (l_max = 2) with parameters (eV):
     U(  1) =   3.1200   J(  1) =   0.7000   B(  1) =   0.0803
     U(  2) =   3.1200   J(  2) =   0.7000   B(  2) =   0.0803



      8 Sym. Ops. (no inversion) found



   Cartesian axes

     site n.     atom                  positions (alat units)
         1           Mn1 tau(   1) = (   0.0000000   0.0000000   0.0000000  )
         2           Mn1 tau(   2) = (   0.5000000   0.5000000   1.2899921  )
         3           Mn2 tau(   3) = (   0.0000000   0.0000000   2.5799843  )
         4           Mn1 tau(   4) = (   0.5000000   0.5000000   3.8699764  )
         5           Mn2 tau(   5) = (   0.0000000   0.0000000   5.1599686  )
         6           Mn1 tau(   6) = (   0.5000000   0.5000000   6.4499607  )
         7           Mn2 tau(   7) = (   0.0000000   0.0000000   7.7399528  )
         8           Mn2 tau(   8) = (   0.5000000   0.5000000   9.0299450  )
         9           Au  tau(   9) = (   0.5000000   0.5000000   0.4127975  )
        10           Au  tau(  10) = (   0.0000000   0.0000000   0.8771947  )
        11           Au  tau(  11) = (   0.0000000   0.0000000   1.7027896  )
        12           Au  tau(  12) = (   0.5000000   0.5000000   2.1671868  )
        13           Au  tau(  13) = (   0.5000000   0.5000000   2.9927818  )
        14           Au  tau(  14) = (   0.0000000   0.0000000   3.4571789  )
        15           Au  tau(  15) = (   0.0000000   0.0000000   4.2827739  )
        16           Au  tau(  16) = (   0.5000000   0.5000000   4.7471711  )
        17           Au  tau(  17) = (   0.5000000   0.5000000   5.5727660  )
        18           Au  tau(  18) = (   0.0000000   0.0000000   6.0371632  )
        19           Au  tau(  19) = (   0.0000000   0.0000000   6.8627582  )
        20           Au  tau(  20) = (   0.5000000   0.5000000   7.3271553  )
        21           Au  tau(  21) = (   0.5000000   0.5000000   8.1527503  )
        22           Au  tau(  22) = (   0.0000000   0.0000000   8.6171475  )
        23           Au  tau(  23) = (   0.0000000   0.0000000   9.4427424  )
        24           Au  tau(  24) = (   0.5000000   0.5000000   9.9071396  )

     number of k points=    30 (tetrahedron method)
                       cart. coord. in units 2pi/alat
        k(    1) = (   0.0000000   0.0000000   0.0000000), wk =   0.0078125
        k(    2) = (   0.0000000   0.0000000  -0.0484499), wk =   0.0078125
        k(    3) = (   0.0000000   0.1250000   0.0000000), wk =   0.0312500
        k(    4) = (   0.0000000   0.1250000  -0.0484499), wk =   0.0312500
        k(    5) = (   0.0000000   0.2500000   0.0000000), wk =   0.0312500
        k(    6) = (   0.0000000   0.2500000  -0.0484499), wk =   0.0312500
        k(    7) = (   0.0000000   0.3750000   0.0000000), wk =   0.0312500
        k(    8) = (   0.0000000   0.3750000  -0.0484499), wk =   0.0312500
        k(    9) = (   0.0000000  -0.5000000   0.0000000), wk =   0.0156250
        k(   10) = (   0.0000000  -0.5000000  -0.0484499), wk =   0.0156250
        k(   11) = (   0.1250000   0.1250000   0.0000000), wk =   0.0312500
        k(   12) = (   0.1250000   0.1250000  -0.0484499), wk =   0.0312500
        k(   13) = (   0.1250000   0.2500000   0.0000000), wk =   0.0625000
        k(   14) = (   0.1250000   0.2500000  -0.0484499), wk =   0.0625000
        k(   15) = (   0.1250000   0.3750000   0.0000000), wk =   0.0625000
        k(   16) = (   0.1250000   0.3750000  -0.0484499), wk =   0.0625000
        k(   17) = (   0.1250000  -0.5000000   0.0000000), wk =   0.0312500
        k(   18) = (   0.1250000  -0.5000000  -0.0484499), wk =   0.0312500
        k(   19) = (   0.2500000   0.2500000   0.0000000), wk =   0.0312500
        k(   20) = (   0.2500000   0.2500000  -0.0484499), wk =   0.0312500
        k(   21) = (   0.2500000   0.3750000   0.0000000), wk =   0.0625000
        k(   22) = (   0.2500000   0.3750000  -0.0484499), wk =   0.0625000
        k(   23) = (   0.2500000  -0.5000000   0.0000000), wk =   0.0312500
        k(   24) = (   0.2500000  -0.5000000  -0.0484499), wk =   0.0312500
        k(   25) = (   0.3750000   0.3750000   0.0000000), wk =   0.0312500
        k(   26) = (   0.3750000   0.3750000  -0.0484499), wk =   0.0312500
        k(   27) = (   0.3750000  -0.5000000   0.0000000), wk =   0.0312500
        k(   28) = (   0.3750000  -0.5000000  -0.0484499), wk =   0.0312500
        k(   29) = (  -0.5000000  -0.5000000   0.0000000), wk =   0.0078125
        k(   30) = (  -0.5000000  -0.5000000  -0.0484499), wk =   0.0078125

     Dense  grid:   368373 G-vectors     FFT dimensions: (  45,  45, 432)

     Smooth grid:   111379 G-vectors     FFT dimensions: (  27,  27, 288)

     Estimated max dynamical RAM per process >     143.50 MB

     Estimated total dynamical RAM >       4.48 GB
     Generating pointlists ...
     new r_m :   0.3377 (alat units)  2.1668 (a.u.) for type    1
     new r_m :   0.3377 (alat units)  2.1668 (a.u.) for type    2
     new r_m :   0.3377 (alat units)  2.1668 (a.u.) for type    3

     Check: negative/imaginary core charge=   -0.000006    0.000000

     Initial potential from superposition of free atoms

     starting charge  295.99426, renormalised to  296.00000
     Number of +U iterations with fixed ns =  0
     Starting occupations:
 --- enter write_ns ---
 LDA+U parameters:
U(  1) =   3.1200   J(  1) =   0.7000   B(  1) =   0.0803
U(  2) =   3.1200   J(  2) =   0.7000   B(  2) =   0.0803
atom    1   Tr[ns(na)] (up, down, total) =   5.00000  0.00000  5.00000
   spin  1
    eigenvalues: 
  1.000  1.000  1.000  1.000  1.000
    eigenvectors:
  1.000  0.000  0.000  0.000  0.000
  0.000  1.000  0.000  0.000  0.000
  0.000  0.000  1.000  0.000  0.000
  0.000  0.000  0.000  1.000  0.000
  0.000  0.000  0.000  0.000  1.000
    occupations:
  1.000  0.000  0.000  0.000  0.000
  0.000  1.000  0.000  0.000  0.000
  0.000  0.000  1.000  0.000  0.000
  0.000  0.000  0.000  1.000  0.000
  0.000  0.000  0.000  0.000  1.000
   spin  2
    eigenvalues: 
  0.000  0.000  0.000  0.000  0.000
    eigenvectors:
  1.000  0.000  0.000  0.000  0.000
  0.000  1.000  0.000  0.000  0.000
  0.000  0.000  1.000  0.000  0.000
  0.000  0.000  0.000  1.000  0.000
  0.000  0.000  0.000  0.000  1.000
    occupations:
  0.000  0.000  0.000  0.000  0.000
  0.000  0.000  0.000  0.000  0.000
  0.000  0.000  0.000  0.000  0.000
  0.000  0.000  0.000  0.000  0.000
  0.000  0.000  0.000  0.000  0.000
atomic mag. moment =     5.000000
atom    2   Tr[ns(na)] (up, down, total) =   5.00000  0.00000  5.00000
   spin  1
    eigenvalues: 
  1.000  1.000  1.000  1.000  1.000
    eigenvectors:
  1.000  0.000  0.000  0.000  0.000
  0.000  1.000  0.000  0.000  0.000
  0.000  0.000  1.000  0.000  0.000
  0.000  0.000  0.000  1.000  0.000
  0.000  0.000  0.000  0.000  1.000
    occupations:
  1.000  0.000  0.000  0.000  0.000
  0.000  1.000  0.000  0.000  0.000
  0.000  0.000  1.000  0.000  0.000
  0.000  0.000  0.000  1.000  0.000
  0.000  0.000  0.000  0.000  1.000
   spin  2
    eigenvalues: 
  0.000  0.000  0.000  0.000  0.000
    eigenvectors:
  1.000  0.000  0.000  0.000  0.000
  0.000  1.000  0.000  0.000  0.000
  0.000  0.000  1.000  0.000  0.000
  0.000  0.000  0.000  1.000  0.000
  0.000  0.000  0.000  0.000  1.000
    occupations:
  0.000  0.000  0.000  0.000  0.000
  0.000  0.000  0.000  0.000  0.000
  0.000  0.000  0.000  0.000  0.000
  0.000  0.000  0.000  0.000  0.000
  0.000  0.000  0.000  0.000  0.000
atomic mag. moment =     5.000000
atom    3   Tr[ns(na)] (up, down, total) =   0.00000  5.00000  5.00000
   spin  1
    eigenvalues: 
  0.000  0.000  0.000  0.000  0.000
    eigenvectors:
  1.000  0.000  0.000  0.000  0.000
  0.000  1.000  0.000  0.000  0.000
  0.000  0.000  1.000  0.000  0.000
  0.000  0.000  0.000  1.000  0.000
  0.000  0.000  0.000  0.000  1.000
    occupations:
  0.000  0.000  0.000  0.000  0.000
  0.000  0.000  0.000  0.000  0.000
  0.000  0.000  0.000  0.000  0.000
  0.000  0.000  0.000  0.000  0.000
  0.000  0.000  0.000  0.000  0.000
   spin  2
    eigenvalues: 
  1.000  1.000  1.000  1.000  1.000
    eigenvectors:
  1.000  0.000  0.000  0.000  0.000
  0.000  1.000  0.000  0.000  0.000
  0.000  0.000  1.000  0.000  0.000
  0.000  0.000  0.000  1.000  0.000
  0.000  0.000  0.000  0.000  1.000
    occupations:
  1.000  0.000  0.000  0.000  0.000
  0.000  1.000  0.000  0.000  0.000
  0.000  0.000  1.000  0.000  0.000
  0.000  0.000  0.000  1.000  0.000
  0.000  0.000  0.000  0.000  1.000
atomic mag. moment =    -5.000000
atom    4   Tr[ns(na)] (up, down, total) =   5.00000  0.00000  5.00000
   spin  1
    eigenvalues: 
  1.000  1.000  1.000  1.000  1.000
    eigenvectors:
  1.000  0.000  0.000  0.000  0.000
  0.000  1.000  0.000  0.000  0.000
  0.000  0.000  1.000  0.000  0.000
  0.000  0.000  0.000  1.000  0.000
  0.000  0.000  0.000  0.000  1.000
    occupations:
  1.000  0.000  0.000  0.000  0.000
  0.000  1.000  0.000  0.000  0.000
  0.000  0.000  1.000  0.000  0.000
  0.000  0.000  0.000  1.000  0.000
  0.000  0.000  0.000  0.000  1.000
   spin  2
    eigenvalues: 
  0.000  0.000  0.000  0.000  0.000
    eigenvectors:
  1.000  0.000  0.000  0.000  0.000
  0.000  1.000  0.000  0.000  0.000
  0.000  0.000  1.000  0.000  0.000
  0.000  0.000  0.000  1.000  0.000
  0.000  0.000  0.000  0.000  1.000
    occupations:
  0.000  0.000  0.000  0.000  0.000
  0.000  0.000  0.000  0.000  0.000
  0.000  0.000  0.000  0.000  0.000
  0.000  0.000  0.000  0.000  0.000
  0.000  0.000  0.000  0.000  0.000
atomic mag. moment =     5.000000
atom    5   Tr[ns(na)] (up, down, total) =   0.00000  5.00000  5.00000
   spin  1
    eigenvalues: 
  0.000  0.000  0.000  0.000  0.000
    eigenvectors:
  1.000  0.000  0.000  0.000  0.000
  0.000  1.000  0.000  0.000  0.000
  0.000  0.000  1.000  0.000  0.000
  0.000  0.000  0.000  1.000  0.000
  0.000  0.000  0.000  0.000  1.000
    occupations:
  0.000  0.000  0.000  0.000  0.000
  0.000  0.000  0.000  0.000  0.000
  0.000  0.000  0.000  0.000  0.000
  0.000  0.000  0.000  0.000  0.000
  0.000  0.000  0.000  0.000  0.000
   spin  2
    eigenvalues: 
  1.000  1.000  1.000  1.000  1.000
    eigenvectors:
  1.000  0.000  0.000  0.000  0.000
  0.000  1.000  0.000  0.000  0.000
  0.000  0.000  1.000  0.000  0.000
  0.000  0.000  0.000  1.000  0.000
  0.000  0.000  0.000  0.000  1.000
    occupations:
  1.000  0.000  0.000  0.000  0.000
  0.000  1.000  0.000  0.000  0.000
  0.000  0.000  1.000  0.000  0.000
  0.000  0.000  0.000  1.000  0.000
  0.000  0.000  0.000  0.000  1.000
atomic mag. moment =    -5.000000
atom    6   Tr[ns(na)] (up, down, total) =   5.00000  0.00000  5.00000
   spin  1
    eigenvalues: 
  1.000  1.000  1.000  1.000  1.000
    eigenvectors:
  1.000  0.000  0.000  0.000  0.000
  0.000  1.000  0.000  0.000  0.000
  0.000  0.000  1.000  0.000  0.000
  0.000  0.000  0.000  1.000  0.000
  0.000  0.000  0.000  0.000  1.000
    occupations:
  1.000  0.000  0.000  0.000  0.000
  0.000  1.000  0.000  0.000  0.000
  0.000  0.000  1.000  0.000  0.000
  0.000  0.000  0.000  1.000  0.000
  0.000  0.000  0.000  0.000  1.000
   spin  2
    eigenvalues: 
  0.000  0.000  0.000  0.000  0.000
    eigenvectors:
  1.000  0.000  0.000  0.000  0.000
  0.000  1.000  0.000  0.000  0.000
  0.000  0.000  1.000  0.000  0.000
  0.000  0.000  0.000  1.000  0.000
  0.000  0.000  0.000  0.000  1.000
    occupations:
  0.000  0.000  0.000  0.000  0.000
  0.000  0.000  0.000  0.000  0.000
  0.000  0.000  0.000  0.000  0.000
  0.000  0.000  0.000  0.000  0.000
  0.000  0.000  0.000  0.000  0.000
atomic mag. moment =     5.000000
atom    7   Tr[ns(na)] (up, down, total) =   0.00000  5.00000  5.00000
   spin  1
    eigenvalues: 
  0.000  0.000  0.000  0.000  0.000
    eigenvectors:
  1.000  0.000  0.000  0.000  0.000
  0.000  1.000  0.000  0.000  0.000
  0.000  0.000  1.000  0.000  0.000
  0.000  0.000  0.000  1.000  0.000
  0.000  0.000  0.000  0.000  1.000
    occupations:
  0.000  0.000  0.000  0.000  0.000
  0.000  0.000  0.000  0.000  0.000
  0.000  0.000  0.000  0.000  0.000
  0.000  0.000  0.000  0.000  0.000
  0.000  0.000  0.000  0.000  0.000
   spin  2
    eigenvalues: 
  1.000  1.000  1.000  1.000  1.000
    eigenvectors:
  1.000  0.000  0.000  0.000  0.000
  0.000  1.000  0.000  0.000  0.000
  0.000  0.000  1.000  0.000  0.000
  0.000  0.000  0.000  1.000  0.000
  0.000  0.000  0.000  0.000  1.000
    occupations:
  1.000  0.000  0.000  0.000  0.000
  0.000  1.000  0.000  0.000  0.000
  0.000  0.000  1.000  0.000  0.000
  0.000  0.000  0.000  1.000  0.000
  0.000  0.000  0.000  0.000  1.000
atomic mag. moment =    -5.000000
atom    8   Tr[ns(na)] (up, down, total) =   0.00000  5.00000  5.00000
   spin  1
    eigenvalues: 
  0.000  0.000  0.000  0.000  0.000
    eigenvectors:
  1.000  0.000  0.000  0.000  0.000
  0.000  1.000  0.000  0.000  0.000
  0.000  0.000  1.000  0.000  0.000
  0.000  0.000  0.000  1.000  0.000
  0.000  0.000  0.000  0.000  1.000
    occupations:
  0.000  0.000  0.000  0.000  0.000
  0.000  0.000  0.000  0.000  0.000
  0.000  0.000  0.000  0.000  0.000
  0.000  0.000  0.000  0.000  0.000
  0.000  0.000  0.000  0.000  0.000
   spin  2
    eigenvalues: 
  1.000  1.000  1.000  1.000  1.000
    eigenvectors:
  1.000  0.000  0.000  0.000  0.000
  0.000  1.000  0.000  0.000  0.000
  0.000  0.000  1.000  0.000  0.000
  0.000  0.000  0.000  1.000  0.000
  0.000  0.000  0.000  0.000  1.000
    occupations:
  1.000  0.000  0.000  0.000  0.000
  0.000  1.000  0.000  0.000  0.000
  0.000  0.000  1.000  0.000  0.000
  0.000  0.000  0.000  1.000  0.000
  0.000  0.000  0.000  0.000  1.000
atomic mag. moment =    -5.000000
N of occupied +U levels =   40.000000
 --- exit write_ns ---
 Atomic wfc used for LDA+U Projector are NOT orthogonalized
     Starting wfcs are  224 randomized atomic wfcs
     Checking if some PAW data can be deallocated... 

     total cpu time spent up to now is       17.3 secs

     Self-consistent Calculation

     iteration #  1     ecut=    45.00 Ry     beta= 0.10
     Davidson diagonalization with overlap
     ethr =  1.00E-02,  avg # of iterations =  4.2
 --- enter write_ns ---
 LDA+U parameters:
U(  1) =   3.1200   J(  1) =   0.7000   B(  1) =   0.0803
U(  2) =   3.1200   J(  2) =   0.7000   B(  2) =   0.0803
atom    1   Tr[ns(na)] (up, down, total) =   5.01744  0.41240  5.42985
   spin  1
    eigenvalues: 
  1.003  1.003  1.003  1.004  1.004
    eigenvectors:
  0.000  0.000  0.000  1.000  0.000
  0.000  0.102  0.898  0.000  0.000
  0.000  0.898  0.102  0.000  0.000
  0.000  0.000  0.000  0.000  1.000
  1.000  0.000  0.000  0.000  0.000
    occupations:
  1.004 -0.000 -0.000  0.000  0.000
 -0.000  1.003 -0.000  0.000  0.000
 -0.000 -0.000  1.003  0.000  0.000
  0.000  0.000  0.000  1.004 -0.000
  0.000  0.000  0.000 -0.000  1.003
   spin  2
    eigenvalues: 
  0.053  0.075  0.083  0.083  0.120
    eigenvectors:
  0.000  1.000  0.000  0.000  0.000
  0.000  0.000  0.140  0.860  0.000
  0.000  0.000  0.860  0.140  0.000
  1.000  0.000  0.000  0.000  0.000
  0.000  0.000  0.000  0.000  1.000
    occupations:
  0.075 -0.000 -0.000  0.000  0.000
 -0.000  0.083 -0.000  0.000  0.000
 -0.000 -0.000  0.083  0.000  0.000
  0.000  0.000  0.000  0.053 -0.000
  0.000  0.000  0.000 -0.000  0.120
atomic mag. moment =     4.605044
atom    2   Tr[ns(na)] (up, down, total) =   5.01749  0.41060  5.42808
   spin  1
    eigenvalues: 
  1.003  1.003  1.003  1.004  1.004
    eigenvectors:
  0.000  0.000  0.000  1.000  0.000
  0.000  0.133  0.867  0.000  0.000
  0.000  0.867  0.133  0.000  0.000
  0.000  0.000  0.000  0.000  1.000
  1.000  0.000  0.000  0.000  0.000
    occupations:
  1.004 -0.000 -0.000  0.000  0.000
 -0.000  1.003 -0.000  0.000  0.000
 -0.000 -0.000  1.003  0.000  0.000
  0.000  0.000  0.000  1.004 -0.000
  0.000  0.000  0.000 -0.000  1.003
   spin  2
    eigenvalues: 
  0.053  0.074  0.082  0.082  0.121
    eigenvectors:
  0.000  1.000  0.000  0.000  0.000
  0.000  0.000  0.198  0.802  0.000
  0.000  0.000  0.802  0.198  0.000
  1.000  0.000  0.000  0.000  0.000
  0.000  0.000  0.000  0.000  1.000
    occupations:
  0.074 -0.000 -0.000  0.000  0.000
 -0.000  0.082 -0.000  0.000  0.000
 -0.000 -0.000  0.082  0.000  0.000
  0.000  0.000  0.000  0.053 -0.000
  0.000  0.000  0.000 -0.000  0.121
atomic mag. moment =     4.606887
atom    3   Tr[ns(na)] (up, down, total) =   0.41095  5.01732  5.42827
   spin  1
    eigenvalues: 
  0.053  0.074  0.080  0.080  0.124
    eigenvectors:
  0.000  1.000  0.000  0.000  0.000
  0.000  0.000  0.113  0.887  0.000
  0.000  0.000  0.887  0.113  0.000
  1.000  0.000  0.000  0.000  0.000
  0.000  0.000  0.000  0.000  1.000
    occupations:
  0.074 -0.000 -0.000  0.000  0.000
 -0.000  0.080 -0.000  0.000  0.000
 -0.000 -0.000  0.080  0.000  0.000
  0.000  0.000  0.000  0.053 -0.000
  0.000  0.000  0.000 -0.000  0.124
   spin  2
    eigenvalues: 
  1.003  1.003  1.003  1.004  1.004
    eigenvectors:
  0.000  0.000  0.000  1.000  0.000
  0.000  0.112  0.888  0.000  0.000
  0.000  0.888  0.112  0.000  0.000
  0.000  0.000  0.000  0.000  1.000
  1.000  0.000  0.000  0.000  0.000
    occupations:
  1.004 -0.000 -0.000  0.000  0.000
 -0.000  1.003 -0.000  0.000  0.000
 -0.000 -0.000  1.003  0.000  0.000
  0.000  0.000  0.000  1.004 -0.000
  0.000  0.000  0.000 -0.000  1.003
atomic mag. moment =    -4.606375
atom    4   Tr[ns(na)] (up, down, total) =   5.01721  0.40921  5.42641
   spin  1
    eigenvalues: 
  1.003  1.003  1.003  1.004  1.004
    eigenvectors:
  0.000  0.000  0.000  1.000  0.000
  0.000  0.112  0.888  0.000  0.000
  0.000  0.888  0.112  0.000  0.000
  0.000  0.000  0.000  0.000  1.000
  1.000  0.000  0.000  0.000  0.000
    occupations:
  1.004 -0.000 -0.000  0.000  0.000
 -0.000  1.003 -0.000  0.000  0.000
 -0.000 -0.000  1.003  0.000  0.000
  0.000  0.000  0.000  1.004 -0.000
  0.000  0.000  0.000 -0.000  1.003
   spin  2
    eigenvalues: 
  0.053  0.072  0.080  0.080  0.125
    eigenvectors:
  0.000  1.000  0.000  0.000  0.000
  0.000  0.000  0.184  0.816  0.000
  0.000  0.000  0.816  0.184  0.000
  1.000  0.000  0.000  0.000  0.000
  0.000  0.000  0.000  0.000  1.000
    occupations:
  0.072 -0.000 -0.000  0.000  0.000
 -0.000  0.080 -0.000  0.000  0.000
 -0.000 -0.000  0.080  0.000  0.000
  0.000  0.000  0.000  0.053 -0.000
  0.000  0.000  0.000 -0.000  0.125
atomic mag. moment =     4.608000
atom    5   Tr[ns(na)] (up, down, total) =   0.40989  5.01734  5.42723
   spin  1
    eigenvalues: 
  0.053  0.072  0.080  0.080  0.125
    eigenvectors:
  0.000  1.000  0.000  0.000  0.000
  0.000  0.000  0.097  0.903  0.000
  0.000  0.000  0.903  0.097  0.000
  1.000  0.000  0.000  0.000  0.000
  0.000  0.000  0.000  0.000  1.000
    occupations:
  0.072 -0.000 -0.000  0.000  0.000
 -0.000  0.080 -0.000  0.000  0.000
 -0.000 -0.000  0.080  0.000  0.000
  0.000  0.000  0.000  0.053 -0.000
  0.000  0.000  0.000 -0.000  0.125
   spin  2
    eigenvalues: 
  1.003  1.003  1.003  1.004  1.004
    eigenvectors:
  0.000  0.000  0.000  1.000  0.000
  0.000  0.104  0.896  0.000  0.000
  0.000  0.896  0.104  0.000  0.000
  0.000  0.000  0.000  0.000  1.000
  1.000  0.000  0.000  0.000  0.000
    occupations:
  1.004 -0.000 -0.000  0.000  0.000
 -0.000  1.003 -0.000  0.000  0.000
 -0.000 -0.000  1.003  0.000  0.000
  0.000  0.000  0.000  1.004 -0.000
  0.000  0.000  0.000 -0.000  1.003
atomic mag. moment =    -4.607452
atom    6   Tr[ns(na)] (up, down, total) =   5.01743  0.41058  5.42802
   spin  1
    eigenvalues: 
  1.003  1.003  1.003  1.004  1.004
    eigenvectors:
  0.000  0.000  0.000  1.000  0.000
  0.000  0.125  0.875  0.000  0.000
  0.000  0.875  0.125  0.000  0.000
  0.000  0.000  0.000  0.000  1.000
  1.000  0.000  0.000  0.000  0.000
    occupations:
  1.004 -0.000 -0.000  0.000  0.000
 -0.000  1.003 -0.000  0.000  0.000
 -0.000 -0.000  1.003  0.000  0.000
  0.000  0.000  0.000  1.004 -0.000
  0.000  0.000  0.000 -0.000  1.003
   spin  2
    eigenvalues: 
  0.053  0.074  0.080  0.080  0.124
    eigenvectors:
  0.000  1.000  0.000  0.000  0.000
  0.000  0.000  0.139  0.861  0.000
  0.000  0.000  0.861  0.139  0.000
  1.000  0.000  0.000  0.000  0.000
  0.000  0.000  0.000  0.000  1.000
    occupations:
  0.074 -0.000 -0.000  0.000  0.000
 -0.000  0.080 -0.000  0.000  0.000
 -0.000 -0.000  0.080  0.000  0.000
  0.000  0.000  0.000  0.053 -0.000
  0.000  0.000  0.000 -0.000  0.124
atomic mag. moment =     4.606849
atom    7   Tr[ns(na)] (up, down, total) =   0.41046  5.01749  5.42795
   spin  1
    eigenvalues: 
  0.053  0.074  0.082  0.082  0.121
    eigenvectors:
  0.000  1.000  0.000  0.000  0.000
  0.000  0.000  0.139  0.861  0.000
  0.000  0.000  0.861  0.139  0.000
  1.000  0.000  0.000  0.000  0.000
  0.000  0.000  0.000  0.000  1.000
    occupations:
  0.074 -0.000 -0.000  0.000  0.000
 -0.000  0.082 -0.000  0.000  0.000
 -0.000 -0.000  0.082  0.000  0.000
  0.000  0.000  0.000  0.053 -0.000
  0.000  0.000  0.000 -0.000  0.121
   spin  2
    eigenvalues: 
  1.003  1.003  1.003  1.004  1.004
    eigenvectors:
  0.000  0.000  0.000  1.000  0.000
  0.000  0.139  0.861  0.000  0.000
  0.000  0.861  0.139  0.000  0.000
  0.000  0.000  0.000  0.000  1.000
  1.000  0.000  0.000  0.000  0.000
    occupations:
  1.004 -0.000 -0.000  0.000  0.000
 -0.000  1.003 -0.000  0.000  0.000
 -0.000 -0.000  1.003  0.000  0.000
  0.000  0.000  0.000  1.004 -0.000
  0.000  0.000  0.000 -0.000  1.003
atomic mag. moment =    -4.607029
atom    8   Tr[ns(na)] (up, down, total) =   0.41288  5.01744  5.43032
   spin  1
    eigenvalues: 
  0.053  0.075  0.083  0.083  0.120
    eigenvectors:
  0.000  1.000  0.000  0.000  0.000
  0.000  0.000  0.159  0.841  0.000
  0.000  0.000  0.841  0.159  0.000
  1.000  0.000  0.000  0.000  0.000
  0.000  0.000  0.000  0.000  1.000
    occupations:
  0.075 -0.000 -0.000  0.000  0.000
 -0.000  0.083 -0.000  0.000  0.000
 -0.000 -0.000  0.083  0.000  0.000
  0.000  0.000  0.000  0.053 -0.000
  0.000  0.000  0.000 -0.000  0.120
   spin  2
    eigenvalues: 
  1.003  1.003  1.003  1.004  1.004
    eigenvectors:
  0.000  0.000  0.000  1.000  0.000
  0.000  0.137  0.863  0.000  0.000
  0.000  0.863  0.137  0.000  0.000
  0.000  0.000  0.000  0.000  1.000
  1.000  0.000  0.000  0.000  0.000
    occupations:
  1.004 -0.000 -0.000  0.000  0.000
 -0.000  1.003 -0.000  0.000  0.000
 -0.000 -0.000  1.003  0.000  0.000
  0.000  0.000  0.000  1.004 -0.000
  0.000  0.000  0.000 -0.000  1.003
atomic mag. moment =    -4.604567
N of occupied +U levels =   43.426126
 --- exit write_ns ---

     total cpu time spent up to now is       61.9 secs

     total energy              =  -14687.28059681 Ry
     Harris-Foulkes estimate   =  -14685.81992669 Ry
     estimated scf accuracy    <      11.56906155 Ry

     total magnetization       =     0.00 Bohr mag/cell
     absolute magnetization    =    41.59 Bohr mag/cell

     iteration #  2     ecut=    45.00 Ry     beta= 0.10
     Davidson diagonalization with overlap
     ethr =  3.91E-03,  avg # of iterations =  1.0

     total cpu time spent up to now is       86.7 secs

     total energy              =  -14692.47639310 Ry
     Harris-Foulkes estimate   =  -14687.35330797 Ry
     estimated scf accuracy    <       9.32269139 Ry

     total magnetization       =     0.00 Bohr mag/cell
     absolute magnetization    =    41.27 Bohr mag/cell

     iteration #  3     ecut=    45.00 Ry     beta= 0.10
     Davidson diagonalization with overlap
     ethr =  3.15E-03,  avg # of iterations =  3.9

     total cpu time spent up to now is      127.9 secs

     total energy              =  -14693.41551968 Ry
     Harris-Foulkes estimate   =  -14694.29689436 Ry
     estimated scf accuracy    <      66.18966734 Ry

     total magnetization       =    -0.05 Bohr mag/cell
     absolute magnetization    =    38.52 Bohr mag/cell

     iteration #  4     ecut=    45.00 Ry     beta= 0.10
     Davidson diagonalization with overlap
     ethr =  3.15E-03,  avg # of iterations =  2.4

     total cpu time spent up to now is      157.8 secs

     total energy              =  -14695.46584385 Ry
     Harris-Foulkes estimate   =  -14694.00349585 Ry
     estimated scf accuracy    <       3.54151627 Ry

     total magnetization       =     0.01 Bohr mag/cell
     absolute magnetization    =    38.75 Bohr mag/cell

     iteration #  5     ecut=    45.00 Ry     beta= 0.10
     Davidson diagonalization with overlap
     ethr =  1.20E-03,  avg # of iterations =  3.0

     total cpu time spent up to now is      193.1 secs

     total energy              =  -14693.52201668 Ry
     Harris-Foulkes estimate   =  -14695.88287770 Ry
     estimated scf accuracy    <      11.33239594 Ry

     total magnetization       =    -0.15 Bohr mag/cell
     absolute magnetization    =    36.85 Bohr mag/cell

     iteration #  6     ecut=    45.00 Ry     beta= 0.10
     Davidson diagonalization with overlap
     ethr =  1.20E-03,  avg # of iterations =  5.7

     total cpu time spent up to now is      246.5 secs

     total energy              =  -14693.43238621 Ry
     Harris-Foulkes estimate   =  -14694.34866994 Ry
     estimated scf accuracy    <      26.51356604 Ry

     total magnetization       =     0.02 Bohr mag/cell
     absolute magnetization    =    38.23 Bohr mag/cell

     iteration #  7     ecut=    45.00 Ry     beta= 0.10
     Davidson diagonalization with overlap
     ethr =  1.20E-03,  avg # of iterations =  5.6

     total cpu time spent up to now is      292.9 secs

     total energy              =  -14693.91411800 Ry
     Harris-Foulkes estimate   =  -14693.88860933 Ry
     estimated scf accuracy    <       1.28103243 Ry

     total magnetization       =    -0.00 Bohr mag/cell
     absolute magnetization    =    38.32 Bohr mag/cell

     iteration #  8     ecut=    45.00 Ry     beta= 0.10
     Davidson diagonalization with overlap
     ethr =  4.33E-04,  avg # of iterations =  4.1

     total cpu time spent up to now is      330.9 secs

     total energy              =  -14693.95564305 Ry
     Harris-Foulkes estimate   =  -14693.96372529 Ry
     estimated scf accuracy    <       0.21359538 Ry

     total magnetization       =     0.02 Bohr mag/cell
     absolute magnetization    =    38.05 Bohr mag/cell

     iteration #  9     ecut=    45.00 Ry     beta= 0.10
     Davidson diagonalization with overlap
     ethr =  7.22E-05,  avg # of iterations =  4.6

     total cpu time spent up to now is      383.3 secs

     total energy              =  -14694.01038387 Ry
     Harris-Foulkes estimate   =  -14694.01105952 Ry
     estimated scf accuracy    <       0.18719431 Ry

     total magnetization       =     0.01 Bohr mag/cell
     absolute magnetization    =    37.42 Bohr mag/cell

     iteration # 10     ecut=    45.00 Ry     beta= 0.10
     Davidson diagonalization with overlap
     ethr =  6.32E-05,  avg # of iterations =  1.0

     total cpu time spent up to now is      407.8 secs

     total energy              =  -14693.97921973 Ry
     Harris-Foulkes estimate   =  -14694.01074967 Ry
     estimated scf accuracy    <       0.18076796 Ry

     total magnetization       =     0.01 Bohr mag/cell
     absolute magnetization    =    37.42 Bohr mag/cell

     iteration # 11     ecut=    45.00 Ry     beta= 0.10
     Davidson diagonalization with overlap
     ethr =  6.11E-05,  avg # of iterations =  1.8

     total cpu time spent up to now is      435.6 secs

     total energy              =  -14693.99204339 Ry
     Harris-Foulkes estimate   =  -14693.99207182 Ry
     estimated scf accuracy    <       0.09780007 Ry

     total magnetization       =    -0.01 Bohr mag/cell
     absolute magnetization    =    37.54 Bohr mag/cell

     iteration # 12     ecut=    45.00 Ry     beta= 0.10
     Davidson diagonalization with overlap
     ethr =  3.30E-05,  avg # of iterations =  1.0

     total cpu time spent up to now is      460.1 secs

     total energy              =  -14693.99539515 Ry
     Harris-Foulkes estimate   =  -14693.99404008 Ry
     estimated scf accuracy    <       0.04893692 Ry

     total magnetization       =     0.01 Bohr mag/cell
     absolute magnetization    =    37.52 Bohr mag/cell

     iteration # 13     ecut=    45.00 Ry     beta= 0.10
     Davidson diagonalization with overlap
     ethr =  1.65E-05,  avg # of iterations =  1.0

     total cpu time spent up to now is      484.7 secs

     total energy              =  -14693.99675283 Ry
     Harris-Foulkes estimate   =  -14693.99646838 Ry
     estimated scf accuracy    <       0.01006235 Ry

     total magnetization       =    -0.00 Bohr mag/cell
     absolute magnetization    =    37.48 Bohr mag/cell

     iteration # 14     ecut=    45.00 Ry     beta= 0.10
     Davidson diagonalization with overlap
     ethr =  3.40E-06,  avg # of iterations =  4.2

     total cpu time spent up to now is      527.5 secs

     total energy              =  -14693.99832604 Ry
     Harris-Foulkes estimate   =  -14693.99765817 Ry
     estimated scf accuracy    <       0.00287623 Ry

     total magnetization       =    -0.00 Bohr mag/cell
     absolute magnetization    =    37.46 Bohr mag/cell

     iteration # 15     ecut=    45.00 Ry     beta= 0.10
     Davidson diagonalization with overlap
     ethr =  9.72E-07,  avg # of iterations =  2.7

     total cpu time spent up to now is      559.8 secs

     total energy              =  -14693.99892277 Ry
     Harris-Foulkes estimate   =  -14693.99870743 Ry
     estimated scf accuracy    <       0.00144524 Ry

     total magnetization       =     0.00 Bohr mag/cell
     absolute magnetization    =    37.38 Bohr mag/cell

     iteration # 16     ecut=    45.00 Ry     beta= 0.10
     Davidson diagonalization with overlap
     ethr =  4.88E-07,  avg # of iterations =  2.6

     total cpu time spent up to now is      594.1 secs

     total energy              =  -14693.99905535 Ry
     Harris-Foulkes estimate   =  -14693.99915538 Ry
     estimated scf accuracy    <       0.00263425 Ry

     total magnetization       =    -0.01 Bohr mag/cell
     absolute magnetization    =    37.40 Bohr mag/cell

     iteration # 17     ecut=    45.00 Ry     beta= 0.10
     Davidson diagonalization with overlap
     ethr =  4.88E-07,  avg # of iterations =  1.0

     total cpu time spent up to now is      618.8 secs

     total energy              =  -14693.99932105 Ry
     Harris-Foulkes estimate   =  -14693.99918363 Ry
     estimated scf accuracy    <       0.00171015 Ry

     total magnetization       =     0.00 Bohr mag/cell
     absolute magnetization    =    37.39 Bohr mag/cell

     iteration # 18     ecut=    45.00 Ry     beta= 0.10
     Davidson diagonalization with overlap
     ethr =  4.88E-07,  avg # of iterations =  1.0

     total cpu time spent up to now is      643.5 secs

     total energy              =  -14693.99925808 Ry
     Harris-Foulkes estimate   =  -14693.99933717 Ry
     estimated scf accuracy    <       0.00092837 Ry

     total magnetization       =     0.00 Bohr mag/cell
     absolute magnetization    =    37.40 Bohr mag/cell

     iteration # 19     ecut=    45.00 Ry     beta= 0.10
     Davidson diagonalization with overlap
     ethr =  3.14E-07,  avg # of iterations =  1.1

     total cpu time spent up to now is      668.5 secs

     total energy              =  -14693.99933556 Ry
     Harris-Foulkes estimate   =  -14693.99928133 Ry
     estimated scf accuracy    <       0.00017479 Ry

     total magnetization       =    -0.00 Bohr mag/cell
     absolute magnetization    =    37.39 Bohr mag/cell

     iteration # 20     ecut=    45.00 Ry     beta= 0.10
     Davidson diagonalization with overlap
     ethr =  5.91E-08,  avg # of iterations =  2.4

     total cpu time spent up to now is      699.6 secs

     total energy              =  -14693.99937228 Ry
     Harris-Foulkes estimate   =  -14693.99935593 Ry
     estimated scf accuracy    <       0.00006635 Ry

     total magnetization       =    -0.00 Bohr mag/cell
     absolute magnetization    =    37.38 Bohr mag/cell

     iteration # 21     ecut=    45.00 Ry     beta= 0.10
     Davidson diagonalization with overlap
     ethr =  2.24E-08,  avg # of iterations =  1.8

     total cpu time spent up to now is      727.1 secs

     total energy              =  -14693.99937981 Ry
     Harris-Foulkes estimate   =  -14693.99937514 Ry
     estimated scf accuracy    <       0.00004062 Ry

     total magnetization       =    -0.00 Bohr mag/cell
     absolute magnetization    =    37.38 Bohr mag/cell

     iteration # 22     ecut=    45.00 Ry     beta= 0.10
     Davidson diagonalization with overlap
     ethr =  1.37E-08,  avg # of iterations =  1.2

     total cpu time spent up to now is      752.3 secs

     total energy              =  -14693.99937892 Ry
     Harris-Foulkes estimate   =  -14693.99937379 Ry
     estimated scf accuracy    <       0.00003087 Ry

     total magnetization       =    -0.00 Bohr mag/cell
     absolute magnetization    =    37.38 Bohr mag/cell

     iteration # 23     ecut=    45.00 Ry     beta= 0.10
     Davidson diagonalization with overlap
     ethr =  1.04E-08,  avg # of iterations =  1.7

     total cpu time spent up to now is      779.6 secs

     total energy              =  -14693.99939322 Ry
     Harris-Foulkes estimate   =  -14693.99939354 Ry
     estimated scf accuracy    <       0.00009395 Ry

     total magnetization       =    -0.00 Bohr mag/cell
     absolute magnetization    =    37.37 Bohr mag/cell

     iteration # 24     ecut=    45.00 Ry     beta= 0.10
     Davidson diagonalization with overlap
     ethr =  1.04E-08,  avg # of iterations =  1.4

     total cpu time spent up to now is      805.8 secs

     total energy              =  -14693.99938399 Ry
     Harris-Foulkes estimate   =  -14693.99938206 Ry
     estimated scf accuracy    <       0.00000274 Ry

     total magnetization       =    -0.00 Bohr mag/cell
     absolute magnetization    =    37.38 Bohr mag/cell

     iteration # 25     ecut=    45.00 Ry     beta= 0.10
     Davidson diagonalization with overlap
     ethr =  9.26E-10,  avg # of iterations =  3.0

     total cpu time spent up to now is      840.2 secs

     total energy              =  -14693.99938485 Ry
     Harris-Foulkes estimate   =  -14693.99938350 Ry
     estimated scf accuracy    <       0.00000370 Ry

     total magnetization       =    -0.00 Bohr mag/cell
     absolute magnetization    =    37.38 Bohr mag/cell

     iteration # 26     ecut=    45.00 Ry     beta= 0.10
     Davidson diagonalization with overlap
     ethr =  9.26E-10,  avg # of iterations =  1.5

     total cpu time spent up to now is      866.6 secs

     total energy              =  -14693.99938737 Ry
     Harris-Foulkes estimate   =  -14693.99938608 Ry
     estimated scf accuracy    <       0.00000122 Ry

     total magnetization       =    -0.00 Bohr mag/cell
     absolute magnetization    =    37.38 Bohr mag/cell

     iteration # 27     ecut=    45.00 Ry     beta= 0.10
     Davidson diagonalization with overlap
     ethr =  4.11E-10,  avg # of iterations =  2.1

     total cpu time spent up to now is      895.7 secs

     total energy              =  -14693.99938662 Ry
     Harris-Foulkes estimate   =  -14693.99938568 Ry
     estimated scf accuracy    <       0.00000529 Ry

     total magnetization       =    -0.00 Bohr mag/cell
     absolute magnetization    =    37.38 Bohr mag/cell

     iteration # 28     ecut=    45.00 Ry     beta= 0.10
     Davidson diagonalization with overlap
     ethr =  4.11E-10,  avg # of iterations =  2.1

     total cpu time spent up to now is      925.4 secs

     total energy              =  -14693.99938814 Ry
     Harris-Foulkes estimate   =  -14693.99938747 Ry
     estimated scf accuracy    <       0.00000221 Ry

     total magnetization       =    -0.00 Bohr mag/cell
     absolute magnetization    =    37.38 Bohr mag/cell

     iteration # 29     ecut=    45.00 Ry     beta= 0.10
     Davidson diagonalization with overlap
     ethr =  4.11E-10,  avg # of iterations =  2.0
 
     Magnetic moment per site:
     atom:    1    charge:   13.5486    magn:    4.2318    constr:    0.0000
     atom:    2    charge:   13.5463    magn:    4.2460    constr:    0.0000
     atom:    3    charge:   13.5451    magn:   -4.2514    constr:    0.0000
     atom:    4    charge:   13.5413    magn:    4.2760    constr:    0.0000
     atom:    5    charge:   13.5411    magn:   -4.2760    constr:    0.0000
     atom:    6    charge:   13.5451    magn:    4.2515    constr:    0.0000
     atom:    7    charge:   13.5462    magn:   -4.2461    constr:    0.0000
     atom:    8    charge:   13.5488    magn:   -4.2319    constr:    0.0000
     atom:    9    charge:    9.1231    magn:    0.0403    constr:    0.0000
     atom:   10    charge:    9.1233    magn:    0.0404    constr:    0.0000
     atom:   11    charge:    9.1237    magn:    0.0463    constr:    0.0000
     atom:   12    charge:    9.1231    magn:   -0.0403    constr:    0.0000
     atom:   13    charge:    9.1246    magn:   -0.0389    constr:    0.0000
     atom:   14    charge:    9.1252    magn:    0.0394    constr:    0.0000
     atom:   15    charge:    9.1259    magn:    0.0360    constr:    0.0000
     atom:   16    charge:    9.1257    magn:   -0.0360    constr:    0.0000
     atom:   17    charge:    9.1250    magn:   -0.0394    constr:    0.0000
     atom:   18    charge:    9.1246    magn:    0.0389    constr:    0.0000
     atom:   19    charge:    9.1232    magn:    0.0403    constr:    0.0000
     atom:   20    charge:    9.1235    magn:   -0.0463    constr:    0.0000
     atom:   21    charge:    9.1231    magn:   -0.0404    constr:    0.0000
     atom:   22    charge:    9.1233    magn:   -0.0403    constr:    0.0000
     atom:   23    charge:    9.1225    magn:   -0.0440    constr:    0.0000
     atom:   24    charge:    9.1224    magn:    0.0440    constr:    0.0000

     total cpu time spent up to now is      954.0 secs

     End of self-consistent calculation
 --- enter write_ns ---
 LDA+U parameters:
U(  1) =   3.1200   J(  1) =   0.7000   B(  1) =   0.0803
U(  2) =   3.1200   J(  2) =   0.7000   B(  2) =   0.0803
atom    1   Tr[ns(na)] (up, down, total) =   4.97137  0.74120  5.71258
   spin  1
    eigenvalues: 
  0.985  0.994  0.994  0.996  1.002
    eigenvectors:
  0.000  0.000  0.000  1.000  0.000
  0.000  0.107  0.893  0.000  0.000
  0.000  0.893  0.107  0.000  0.000
  0.000  0.000  0.000  0.000  1.000
  1.000  0.000  0.000  0.000  0.000
    occupations:
  0.996 -0.000 -0.000  0.000  0.000
 -0.000  0.994 -0.000  0.000  0.000
 -0.000 -0.000  0.994  0.000  0.000
  0.000  0.000  0.000  1.002 -0.000
  0.000  0.000  0.000 -0.000  0.985
   spin  2
    eigenvalues: 
  0.064  0.132  0.144  0.144  0.256
    eigenvectors:
  0.000  1.000  0.000  0.000  0.000
  0.000  0.000  0.104  0.896  0.000
  0.000  0.000  0.896  0.104  0.000
  1.000  0.000  0.000  0.000  0.000
  0.000  0.000  0.000  0.000  1.000
    occupations:
  0.132 -0.000 -0.000  0.000  0.000
 -0.000  0.144 -0.000  0.000  0.000
 -0.000 -0.000  0.144  0.000  0.000
  0.000  0.000  0.000  0.064 -0.000
  0.000  0.000  0.000 -0.000  0.256
atomic mag. moment =     4.230169
atom    2   Tr[ns(na)] (up, down, total) =   4.97329  0.72881  5.70210
   spin  1
    eigenvalues: 
  0.985  0.994  0.994  0.997  1.002
    eigenvectors:
  0.000  0.000  0.000  1.000  0.000
  0.000  0.121  0.879  0.000  0.000
  0.000  0.879  0.121  0.000  0.000
  0.000  0.000  0.000  0.000  1.000
  1.000  0.000  0.000  0.000  0.000
    occupations:
  0.997 -0.000 -0.000  0.000  0.000
 -0.000  0.994 -0.000  0.000  0.000
 -0.000 -0.000  0.994  0.000  0.000
  0.000  0.000  0.000  1.002 -0.000
  0.000  0.000  0.000 -0.000  0.985
   spin  2
    eigenvalues: 
  0.066  0.130  0.142  0.142  0.250
    eigenvectors:
  0.000  1.000  0.000  0.000  0.000
  0.000  0.000  0.109  0.891  0.000
  0.000  0.000  0.891  0.109  0.000
  1.000  0.000  0.000  0.000  0.000
  0.000  0.000  0.000  0.000  1.000
    occupations:
  0.130 -0.000 -0.000  0.000  0.000
 -0.000  0.142 -0.000  0.000  0.000
 -0.000 -0.000  0.142  0.000  0.000
  0.000  0.000  0.000  0.066 -0.000
  0.000  0.000  0.000 -0.000  0.250
atomic mag. moment =     4.244486
atom    3   Tr[ns(na)] (up, down, total) =   0.72497  4.97157  5.69654
   spin  1
    eigenvalues: 
  0.066  0.124  0.145  0.145  0.245
    eigenvectors:
  0.000  1.000  0.000  0.000  0.000
  0.000  0.000  0.102  0.898  0.000
  0.000  0.000  0.898  0.102  0.000
  1.000  0.000  0.000  0.000  0.000
  0.000  0.000  0.000  0.000  1.000
    occupations:
  0.124 -0.000 -0.000  0.000  0.000
 -0.000  0.145 -0.000  0.000  0.000
 -0.000 -0.000  0.145  0.000  0.000
  0.000  0.000  0.000  0.066 -0.000
  0.000  0.000  0.000 -0.000  0.245
   spin  2
    eigenvalues: 
  0.985  0.994  0.994  0.997  1.003
    eigenvectors:
  0.000  0.000  0.000  1.000  0.000
  0.000  0.116  0.884  0.000  0.000
  0.000  0.884  0.116  0.000  0.000
  0.000  0.000  0.000  0.000  1.000
  1.000  0.000  0.000  0.000  0.000
    occupations:
  0.997 -0.000 -0.000  0.000  0.000
 -0.000  0.994 -0.000  0.000  0.000
 -0.000 -0.000  0.994  0.000  0.000
  0.000  0.000  0.000  1.003 -0.000
  0.000  0.000  0.000 -0.000  0.985
atomic mag. moment =    -4.246603
atom    4   Tr[ns(na)] (up, down, total) =   4.97448  0.70381  5.67829
   spin  1
    eigenvalues: 
  0.985  0.994  0.994  0.998  1.003
    eigenvectors:
  0.000  0.000  0.000  1.000  0.000
  0.000  0.124  0.876  0.000  0.000
  0.000  0.876  0.124  0.000  0.000
  0.000  0.000  0.000  0.000  1.000
  1.000  0.000  0.000  0.000  0.000
    occupations:
  0.998 -0.000 -0.000  0.000  0.000
 -0.000  0.994 -0.000  0.000  0.000
 -0.000 -0.000  0.994  0.000  0.000
  0.000  0.000  0.000  1.003 -0.000
  0.000  0.000  0.000 -0.000  0.985
   spin  2
    eigenvalues: 
  0.067  0.106  0.147  0.147  0.238
    eigenvectors:
  0.000  1.000  0.000  0.000  0.000
  0.000  0.000  0.150  0.850  0.000
  0.000  0.000  0.850  0.150  0.000
  1.000  0.000  0.000  0.000  0.000
  0.000  0.000  0.000  0.000  1.000
    occupations:
  0.106 -0.000 -0.000  0.000  0.000
 -0.000  0.147 -0.000  0.000  0.000
 -0.000 -0.000  0.147  0.000  0.000
  0.000  0.000  0.000  0.067 -0.000
  0.000  0.000  0.000 -0.000  0.238
atomic mag. moment =     4.270664
atom    5   Tr[ns(na)] (up, down, total) =   0.70376  4.97447  5.67824
   spin  1
    eigenvalues: 
  0.067  0.106  0.147  0.147  0.238
    eigenvectors:
  0.000  1.000  0.000  0.000  0.000
  0.000  0.000  0.150  0.850  0.000
  0.000  0.000  0.850  0.150  0.000
  1.000  0.000  0.000  0.000  0.000
  0.000  0.000  0.000  0.000  1.000
    occupations:
  0.106 -0.000 -0.000  0.000  0.000
 -0.000  0.147 -0.000  0.000  0.000
 -0.000 -0.000  0.147  0.000  0.000
  0.000  0.000  0.000  0.067 -0.000
  0.000  0.000  0.000 -0.000  0.238
   spin  2
    eigenvalues: 
  0.985  0.994  0.994  0.998  1.003
    eigenvectors:
  0.000  0.000  0.000  1.000  0.000
  0.000  0.118  0.882  0.000  0.000
  0.000  0.882  0.118  0.000  0.000
  0.000  0.000  0.000  0.000  1.000
  1.000  0.000  0.000  0.000  0.000
    occupations:
  0.998 -0.000 -0.000  0.000  0.000
 -0.000  0.994 -0.000  0.000  0.000
 -0.000 -0.000  0.994  0.000  0.000
  0.000  0.000  0.000  1.003 -0.000
  0.000  0.000  0.000 -0.000  0.985
atomic mag. moment =    -4.270706
atom    6   Tr[ns(na)] (up, down, total) =   4.97156  0.72487  5.69644
   spin  1
    eigenvalues: 
  0.985  0.994  0.994  0.997  1.003
    eigenvectors:
  0.000  0.000  0.000  1.000  0.000
  0.000  0.127  0.873  0.000  0.000
  0.000  0.873  0.127  0.000  0.000
  0.000  0.000  0.000  0.000  1.000
  1.000  0.000  0.000  0.000  0.000
    occupations:
  0.997 -0.000 -0.000  0.000  0.000
 -0.000  0.994 -0.000  0.000  0.000
 -0.000 -0.000  0.994  0.000  0.000
  0.000  0.000  0.000  1.003 -0.000
  0.000  0.000  0.000 -0.000  0.985
   spin  2
    eigenvalues: 
  0.066  0.124  0.145  0.145  0.245
    eigenvectors:
  0.000  1.000  0.000  0.000  0.000
  0.000  0.000  0.137  0.863  0.000
  0.000  0.000  0.863  0.137  0.000
  1.000  0.000  0.000  0.000  0.000
  0.000  0.000  0.000  0.000  1.000
    occupations:
  0.124 -0.000 -0.000  0.000  0.000
 -0.000  0.145 -0.000  0.000  0.000
 -0.000 -0.000  0.145  0.000  0.000
  0.000  0.000  0.000  0.066 -0.000
  0.000  0.000  0.000 -0.000  0.245
atomic mag. moment =     4.246686
atom    7   Tr[ns(na)] (up, down, total) =   0.72873  4.97331  5.70203
   spin  1
    eigenvalues: 
  0.066  0.130  0.142  0.142  0.249
    eigenvectors:
  0.000  1.000  0.000  0.000  0.000
  0.000  0.000  0.117  0.883  0.000
  0.000  0.000  0.883  0.117  0.000
  1.000  0.000  0.000  0.000  0.000
  0.000  0.000  0.000  0.000  1.000
    occupations:
  0.130 -0.000 -0.000  0.000  0.000
 -0.000  0.142 -0.000  0.000  0.000
 -0.000 -0.000  0.142  0.000  0.000
  0.000  0.000  0.000  0.066 -0.000
  0.000  0.000  0.000 -0.000  0.249
   spin  2
    eigenvalues: 
  0.985  0.994  0.994  0.997  1.002
    eigenvectors:
  0.000  0.000  0.000  1.000  0.000
  0.000  0.160  0.840  0.000  0.000
  0.000  0.840  0.160  0.000  0.000
  0.000  0.000  0.000  0.000  1.000
  1.000  0.000  0.000  0.000  0.000
    occupations:
  0.997 -0.000 -0.000  0.000  0.000
 -0.000  0.994 -0.000  0.000  0.000
 -0.000 -0.000  0.994  0.000  0.000
  0.000  0.000  0.000  1.002 -0.000
  0.000  0.000  0.000 -0.000  0.985
atomic mag. moment =    -4.244581
atom    8   Tr[ns(na)] (up, down, total) =   0.74118  4.97138  5.71257
   spin  1
    eigenvalues: 
  0.064  0.132  0.144  0.144  0.256
    eigenvectors:
  0.000  1.000  0.000  0.000  0.000
  0.000  0.000  0.129  0.871  0.000
  0.000  0.000  0.871  0.129  0.000
  1.000  0.000  0.000  0.000  0.000
  0.000  0.000  0.000  0.000  1.000
    occupations:
  0.132 -0.000 -0.000  0.000  0.000
 -0.000  0.144 -0.000  0.000  0.000
 -0.000 -0.000  0.144  0.000  0.000
  0.000  0.000  0.000  0.064 -0.000
  0.000  0.000  0.000 -0.000  0.256
   spin  2
    eigenvalues: 
  0.985  0.994  0.994  0.996  1.002
    eigenvectors:
  0.000  0.000  0.000  1.000  0.000
  0.000  0.143  0.857  0.000  0.000
  0.000  0.857  0.143  0.000  0.000
  0.000  0.000  0.000  0.000  1.000
  1.000  0.000  0.000  0.000  0.000
    occupations:
  0.996 -0.000 -0.000  0.000  0.000
 -0.000  0.994 -0.000  0.000  0.000
 -0.000 -0.000  0.994  0.000  0.000
  0.000  0.000  0.000  1.002 -0.000
  0.000  0.000  0.000 -0.000  0.985
atomic mag. moment =    -4.230201
N of occupied +U levels =   45.578774
 --- exit write_ns ---

 ------ SPIN UP ------------


          k = 0.0000 0.0000 0.0000 ( 13925 PWs)   bands (ev):

   -66.8507 -66.7854 -66.7291 -66.6880 -62.2232 -62.1837 -62.1288 -62.1022
   -35.6181 -35.5662 -35.5662 -35.5492 -35.5038 -35.5038 -35.4976 -35.4589
   -35.4466 -35.4466 -35.4049 -35.4049 -31.0428 -31.0424 -31.0424 -31.0058
   -31.0023 -31.0023 -30.9548 -30.9472 -30.9472 -30.9294 -30.9202 -30.9202
     5.7773   5.9031   5.9670   6.3377   6.4391   7.0272   7.0858   7.6214
     8.3526   8.4323   8.4476   8.4868   8.5191   8.5200   8.5986   8.7490
     8.8080   8.8480   8.9645   9.0793   9.1520   9.2367   9.2665   9.2927
     9.3080   9.3810   9.4638   9.5133   9.8723   9.9332   9.9375   9.9636
     9.9963  10.0718  10.1285  10.1285  10.1357  10.1435  10.1858  10.1858
    10.1920  10.1986  10.1986  10.2048  10.3111  10.3470  10.3470  10.3554
    10.3554  10.5212  10.5688  10.5688  10.5705  10.5773  10.6017  10.6017
    10.6039  10.6039  10.6138  10.6167  10.6167  10.6247  10.6247  10.6772
    10.7268  10.7268  10.9460  10.9460  10.9673  11.0525  11.0525  11.1058
    11.1092  11.1654  11.2614  11.2670  11.3052  11.3624  11.3931  11.3931
    11.4130  11.4581  11.4581  11.4656  11.6771  11.7539  11.7750  11.7825
    11.7825  11.8819  11.9274  12.0030  12.0030  12.0518  12.1236  12.1433
    12.1836  12.2552  12.2642  12.2642  12.3827  12.3827  12.5931  12.5931
    12.6977  12.7861  12.8261  12.8273  12.9760  13.0142  13.0730  13.5736
    14.0188  14.8378  15.2366  15.9152  16.8309  16.8309  16.8673  16.8673
    16.9315  16.9319  16.9319  16.9649  16.9962  17.0601  17.1360  17.1360
    17.1507  17.1579  17.1678  17.2209  17.5489  17.5869  17.6113  17.6268
    18.6127  19.5783  19.7967  20.1043  20.1043  20.4563  20.4563  20.5466
    20.5466  21.4653

          k = 0.0000 0.0000-0.0484 ( 13878 PWs)   bands (ev):

   -66.8507 -66.7854 -66.7291 -66.6880 -62.2232 -62.1837 -62.1288 -62.1022
   -35.6181 -35.5662 -35.5662 -35.5492 -35.5038 -35.5038 -35.4976 -35.4589
   -35.4466 -35.4466 -35.4049 -35.4049 -31.0428 -31.0424 -31.0424 -31.0058
   -31.0023 -31.0023 -30.9548 -30.9472 -30.9472 -30.9294 -30.9202 -30.9202
     5.7963   5.8400   6.0725   6.1823   6.6619   6.7423   7.4031   7.4282
     8.4323   8.4502   8.4867   8.4948   8.5202   8.5227   8.5922   8.6290
     8.7489   8.8191   9.0380   9.1328   9.1604   9.2113   9.2250   9.3306
     9.3593   9.3785   9.4271   9.4861   9.8771   9.9375   9.9386   9.9635
     9.9964  10.0617  10.1321  10.1321  10.1362  10.1444  10.1629  10.1629
    10.1920  10.2129  10.2526  10.2526  10.2629  10.2629  10.3100  10.4687
    10.4687  10.4748  10.4748  10.5292  10.5562  10.5669  10.5692  10.5692
    10.6030  10.6030  10.6094  10.6094  10.6396  10.6642  10.7100  10.7100
    10.7835  10.7835  10.8171  10.8171  10.9859  11.0663  11.1078  11.2042
    11.2042  11.2124  11.2252  11.2252  11.2404  11.2623  11.3050  11.3661
    11.4138  11.4649  11.5713  11.5713  11.6758  11.7246  11.7246  11.7540
    11.7756  11.8810  11.9279  12.0321  12.0321  12.0651  12.1118  12.1236
    12.2158  12.2417  12.2465  12.2465  12.3905  12.3905  12.5925  12.5925
    12.6980  12.7856  12.8275  12.8568  12.8933  13.0142  13.1713  13.4703
    14.1590  14.6363  15.4599  15.7979  16.8319  16.8319  16.8654  16.8654
    16.9315  16.9330  16.9330  16.9649  16.9962  17.0601  17.1358  17.1358
    17.1507  17.1579  17.1678  17.2209  17.5528  17.5868  17.6098  17.6295
    18.8341  19.0325  20.1766  20.1766  20.2398  20.2398  20.5286  20.7135
    20.8936  20.8936

          k = 0.0000 0.1250 0.0000 ( 13879 PWs)   bands (ev):

   -66.8504 -66.7851 -66.7288 -66.6878 -62.2232 -62.1837 -62.1288 -62.1022
   -35.6179 -35.5680 -35.5661 -35.5491 -35.5056 -35.5037 -35.4974 -35.4587
   -35.4484 -35.4465 -35.4067 -35.4048 -31.0446 -31.0425 -31.0423 -31.0056
   -31.0045 -31.0022 -30.9545 -30.9494 -30.9471 -30.9292 -30.9224 -30.9201
     6.0206   6.1436   6.2060   6.5664   6.6589   7.2243   7.2677   7.7745
     8.3553   8.5345   8.5638   8.5964   8.6176   8.6340   8.6894   8.7659
     8.7938   8.8564   8.9806   9.0304   9.2019   9.2475   9.2616   9.3015
     9.3443   9.4118   9.4650   9.6260   9.6688   9.7791   9.7928   9.8268
     9.8457   9.8490   9.9044   9.9776  10.0348  10.0628  10.0804  10.1133
    10.1505  10.1675  10.1757  10.2122  10.2140  10.2686  10.3009  10.3144
    10.4183  10.4220  10.4532  10.4618  10.5073  10.5204  10.5751  10.6383
    10.6623  10.6759  10.7566  10.7802  10.7992  10.8092  10.8434  10.8509
    10.9373  10.9815  11.0013  11.0398  11.0797  11.1188  11.1357  11.2067
    11.2339  11.2462  11.2986  11.3188  11.3406  11.3731  11.3819  11.4280
    11.4418  11.4546  11.6076  11.6193  11.6984  11.7467  11.8032  11.8095
    11.8152  11.8922  11.9183  11.9347  11.9582  12.0564  12.0847  12.1109
    12.1532  12.1792  12.2835  12.4330  12.4512  12.4570  12.5070  12.5895
    12.6850  12.7415  12.7590  12.8705  12.8913  12.9457  13.0496  13.6392
    14.0688  14.9605  15.3504  16.0433  16.5858  16.6631  16.7326  16.9327
    16.9381  16.9593  16.9763  16.9895  17.0127  17.0355  17.0530  17.0648
    17.0753  17.1034  17.1302  17.2816  17.5248  17.6313  17.6959  17.9799
    18.6636  18.7551  19.0276  19.1495  19.9126  19.9239  20.0250  20.0930
    20.7375  21.0018

          k = 0.0000 0.1250-0.0484 ( 13868 PWs)   bands (ev):

   -66.8504 -66.7851 -66.7288 -66.6878 -62.2232 -62.1837 -62.1288 -62.1022
   -35.6179 -35.5680 -35.5661 -35.5491 -35.5056 -35.5037 -35.4974 -35.4587
   -35.4484 -35.4465 -35.4067 -35.4048 -31.0446 -31.0425 -31.0423 -31.0056
   -31.0045 -31.0022 -30.9545 -30.9494 -30.9471 -30.9292 -30.9224 -30.9201
     6.0389   6.0824   6.3093   6.4136   6.8781   6.9456   7.5717   7.5905
     8.4920   8.5354   8.5511   8.5691   8.5982   8.6137   8.6366   8.7139
     8.8270   8.8852   8.9914   9.0701   9.1669   9.2488   9.2808   9.3071
     9.3361   9.3466   9.5550   9.5806   9.6753   9.7794   9.7861   9.8241
     9.8492   9.8495   9.9033   9.9870  10.0294  10.0716  10.0730  10.1082
    10.1524  10.1649  10.1812  10.2101  10.2155  10.2562  10.3164  10.3341
    10.3871  10.4076  10.4294  10.4816  10.5076  10.5771  10.5987  10.6350
    10.6523  10.6649  10.6791  10.7489  10.8042  10.8420  10.8669  10.8962
    10.9462  10.9789  11.0051  11.0411  11.0465  11.0927  11.1666  11.1724
    11.2261  11.2642  11.3037  11.3065  11.3440  11.3781  11.3800  11.4152
    11.4398  11.5344  11.5681  11.6581  11.6696  11.7218  11.7229  11.8073
    11.8948  11.9048  11.9263  11.9324  11.9907  12.0160  12.0994  12.1059
    12.1362  12.1664  12.3033  12.4255  12.4509  12.4545  12.5169  12.5843
    12.6868  12.7406  12.7998  12.8356  12.8706  12.8914  13.1866  13.4892
    14.2575  14.7207  15.5948  15.9145  16.6018  16.6633  16.7331  16.9327
    16.9359  16.9599  16.9764  16.9894  17.0128  17.0357  17.0528  17.0647
    17.0754  17.1032  17.1302  17.2816  17.5257  17.6089  17.8054  17.8301
    18.7613  18.8456  19.0829  19.2416  19.4231  19.5565  20.4708  20.5148
    20.7839  20.8602

          k = 0.0000 0.2500 0.0000 ( 13848 PWs)   bands (ev):

   -66.8503 -66.7850 -66.7287 -66.6876 -62.2228 -62.1833 -62.1284 -62.1018
   -35.6175 -35.5722 -35.5659 -35.5487 -35.5098 -35.5035 -35.4970 -35.4583
   -35.4526 -35.4463 -35.4109 -35.4046 -31.0499 -31.0420 -31.0419 -31.0098
   -31.0050 -31.0019 -30.9547 -30.9540 -30.9468 -30.9286 -30.9277 -30.9198
     6.7087   6.8208   6.8784   7.1961   7.2588   7.7197   7.7209   8.0990
     8.2986   8.5292   8.5431   8.7282   8.7499   8.7738   8.8265   8.8594
     8.8843   8.8966   8.9645   8.9798   9.0569   9.1321   9.2321   9.2872
     9.5009   9.5097   9.5237   9.5582   9.5915   9.6256   9.6271   9.6357
     9.6775   9.6797   9.6901   9.7921   9.8181   9.8234   9.9002   9.9994
    10.0257  10.0510  10.1474  10.1714  10.1733  10.2672  10.3313  10.4302
    10.4498  10.5799  10.6187  10.6452  10.6538  10.6674  10.7328  10.7562
    10.8451  10.8649  10.8876  10.9150  10.9336  10.9408  11.0230  11.0317
    11.1203  11.1263  11.1774  11.1779  11.1946  11.2855  11.2973  11.3137
    11.3805  11.4218  11.4330  11.4526  11.4798  11.4868  11.5592  11.6063
    11.6507  11.6680  11.7108  11.7193  11.7875  11.7948  11.8313  11.8730
    11.8952  11.9005  11.9177  11.9609  12.0289  12.0572  12.0589  12.0683
    12.0815  12.2079  12.2120  12.3548  12.5162  12.5644  12.5666  12.6626
    12.7068  12.7326  12.7546  12.8694  12.9131  12.9543  12.9823  13.8312
    14.1766  15.1789  15.4510  15.9255  16.0120  16.0521  16.1350  16.2805
    16.4041  16.5270  16.6803  16.8214  16.9050  16.9172  17.0401  17.0580
    17.0855  17.2478  17.2635  17.3003  17.3034  17.3529  17.4116  17.4180
    17.6633  17.7863  17.9025  18.1035  18.5433  18.6320  18.6822  18.8291
    19.5732  20.5213

          k = 0.0000 0.2500-0.0484 ( 13842 PWs)   bands (ev):

   -66.8503 -66.7850 -66.7287 -66.6876 -62.2228 -62.1833 -62.1284 -62.1018
   -35.6175 -35.5722 -35.5659 -35.5487 -35.5098 -35.5035 -35.4970 -35.4583
   -35.4526 -35.4463 -35.4109 -35.4046 -31.0499 -31.0420 -31.0419 -31.0098
   -31.0050 -31.0019 -30.9547 -30.9540 -30.9468 -30.9286 -30.9277 -30.9198
     6.7245   6.7671   6.9711   7.0575   7.4545   7.4828   7.9399   7.9735
     8.3882   8.4167   8.6460   8.6541   8.7632   8.7921   8.8198   8.8579
     8.8821   8.8971   8.9630   8.9965   9.0473   9.1418   9.2150   9.2792
     9.5010   9.5231   9.5603   9.5672   9.5878   9.6151   9.6286   9.6318
     9.6784   9.6832   9.6863   9.7240   9.7925   9.8232   9.9986  10.0276
    10.0431  10.0496  10.0736  10.1498  10.1729  10.2528  10.3771  10.4044
    10.4809  10.5474  10.5976  10.6547  10.6784  10.7123  10.7168  10.7508
    10.8094  10.8576  10.8860  10.9044  10.9293  10.9748  11.0021  11.0737
    11.1057  11.1102  11.1756  11.1799  11.2240  11.2696  11.2972  11.3284
    11.3720  11.4176  11.4272  11.4650  11.4770  11.5184  11.5422  11.5672
    11.6032  11.6782  11.7045  11.7942  11.8069  11.8238  11.8364  11.8628
    11.8778  11.9094  11.9272  11.9517  11.9541  11.9804  12.0792  12.1003
    12.1412  12.1897  12.2579  12.3073  12.5254  12.5736  12.6372  12.6531
    12.6673  12.7067  12.7329  12.7562  12.9132  12.9542  13.2601  13.5255
    14.4979  14.8578  15.7055  15.8891  15.9826  16.0123  16.1259  16.3046
    16.3825  16.5523  16.6715  16.8214  16.9049  16.9172  17.0401  17.0581
    17.0855  17.2478  17.2522  17.3003  17.3188  17.3529  17.4180  17.4240
    17.6046  17.7798  18.0929  18.1366  18.3198  18.3495  18.9370  18.9734
    19.7598  19.8705

          k = 0.0000 0.3750 0.0000 ( 13856 PWs)   bands (ev):

   -66.8508 -66.7855 -66.7293 -66.6882 -62.2219 -62.1823 -62.1274 -62.1008
   -35.6171 -35.5762 -35.5657 -35.5483 -35.5138 -35.5033 -35.4966 -35.4579
   -35.4566 -35.4460 -35.4150 -35.4043 -31.0552 -31.0416 -31.0414 -31.0152
   -31.0044 -31.0015 -30.9601 -30.9534 -30.9464 -30.9331 -30.9280 -30.9194
     7.6665   7.7529   7.7971   7.9894   8.0001   8.1486   8.1672   8.2203
     8.2545   8.3281   8.3475   8.4762   8.5400   8.6921   8.7281   8.9161
     9.0099   9.0597   9.1494   9.1918   9.2025   9.2490   9.2673   9.2756
     9.3098   9.3217   9.3337   9.3538   9.3875   9.5455   9.5466   9.6003
     9.6280   9.6391   9.6847   9.7684   9.7961   9.8626   9.9281   9.9467
    10.0374  10.0620  10.1104  10.1253  10.1505  10.1893  10.2484  10.4114
    10.5236  10.5735  10.5746  10.6683  10.7131  10.7796  10.8148  10.8864
    10.9029  10.9200  11.0451  11.0822  11.2157  11.2447  11.2921  11.3267
    11.3371  11.3602  11.3753  11.4557  11.5156  11.5197  11.5424  11.5541
    11.5721  11.6098  11.6580  11.7176  11.7299  11.7487  11.7541  11.8255
    11.8342  11.8436  11.8526  11.8869  11.9714  12.0291  12.0317  12.0466
    12.0682  12.0795  12.1053  12.1294  12.1584  12.1836  12.2705  12.2930
    12.3287  12.3669  12.4163  12.4613  12.4649  12.6249  12.6925  12.7291
    12.7931  12.8071  12.8400  12.9680  12.9789  12.9931  13.0063  13.9222
    13.9572  13.9995  14.2417  14.2786  14.7476  14.7873  15.0938  15.1132
    15.4541  15.5135  15.8260  15.8350  16.7841  16.8032  16.8374  16.8415
    16.8435  16.8945  16.9686  16.9969  17.0775  17.1476  17.1518  17.3173
    17.4490  17.5020  17.5586  17.5862  17.9116  17.9951  18.0386  18.2009
    19.7306  19.8379

          k = 0.0000 0.3750-0.0484 ( 13872 PWs)   bands (ev):

   -66.8508 -66.7855 -66.7293 -66.6882 -62.2219 -62.1823 -62.1274 -62.1008
   -35.6171 -35.5762 -35.5657 -35.5483 -35.5138 -35.5033 -35.4966 -35.4579
   -35.4566 -35.4460 -35.4150 -35.4043 -31.0552 -31.0416 -31.0414 -31.0152
   -31.0044 -31.0015 -30.9601 -30.9534 -30.9464 -30.9331 -30.9280 -30.9194
     7.6765   7.7169   7.8619   7.9016   8.0826   8.0985   8.1952   8.2044
     8.2682   8.2961   8.4058   8.4188   8.5854   8.6451   8.7568   8.9060
     9.0171   9.0890   9.1007   9.1552   9.2437   9.2673   9.2754   9.2905
     9.3102   9.3209   9.3338   9.3539   9.3868   9.4869   9.5463   9.5684
     9.6279   9.6789   9.6864   9.7908   9.8369   9.8703   9.9301   9.9744
    10.0145  10.0179  10.0832  10.1108  10.1159  10.1529  10.4001  10.4344
    10.4737  10.5640  10.5749  10.6621  10.7062  10.7561  10.8022  10.8751
    10.9064  10.9258  11.1094  11.1148  11.2084  11.2418  11.2648  11.2896
    11.3389  11.3740  11.4193  11.4583  11.4707  11.4856  11.5476  11.5506
    11.5857  11.6320  11.6553  11.6838  11.7066  11.7497  11.7588  11.7920
    11.8106  11.8842  11.8860  11.9279  11.9773  11.9878  12.0101  12.0110
    12.0406  12.0816  12.1147  12.1616  12.2168  12.2296  12.2866  12.3359
    12.3395  12.4228  12.4445  12.4512  12.4883  12.5046  12.6224  12.6963
    12.7272  12.7928  12.8073  12.8400  12.9931  13.0063  13.4659  13.5137
    14.0126  14.0482  14.3642  14.3962  14.5984  14.6664  15.1173  15.1625
    15.5562  15.5632  15.7608  15.7733  16.7757  16.7841  16.8374  16.8379
    16.8435  16.9335  16.9686  16.9950  17.0927  17.1006  17.2053  17.2979
    17.4490  17.5020  17.5586  17.5862  17.9152  17.9725  18.0643  18.1972
    19.7530  19.8630

          k = 0.0000-0.5000 0.0000 ( 13918 PWs)   bands (ev):

   -66.8513 -66.7860 -66.7297 -66.6886 -62.2213 -62.1817 -62.1269 -62.1002
   -35.6169 -35.5779 -35.5655 -35.5481 -35.5155 -35.5032 -35.4965 -35.4583
   -35.4578 -35.4459 -35.4166 -35.4042 -31.0575 -31.0415 -31.0412 -31.0174
   -31.0042 -31.0014 -30.9624 -30.9532 -30.9463 -30.9354 -30.9278 -30.9193
     8.1443   8.1565   8.1866   8.1920   8.2559   8.2650   8.3378   8.3629
     8.4068   8.4350   8.5147   8.5191   8.5444   8.6104   8.7024   8.7088
     9.0210   9.0302   9.1657   9.1700   9.1785   9.2141   9.2487   9.2536
     9.2636   9.2731   9.2809   9.3769   9.4914   9.4997   9.5762   9.6718
     9.6953   9.7162   9.7231   9.7603   9.8000   9.8504   9.8623   9.9349
     9.9979  10.0261  10.0365  10.0385  10.0598  10.1304  10.2073  10.3003
    10.3511  10.5665  10.6065  10.6186  10.6254  10.6901  10.7183  10.8853
    11.0161  11.2143  11.2427  11.2528  11.3551  11.4040  11.4072  11.4856
    11.5039  11.5078  11.5429  11.5487  11.5531  11.5705  11.5857  11.6023
    11.6210  11.6435  11.6621  11.6846  11.7556  11.7814  11.7946  11.8252
    11.8323  11.9021  12.0843  12.0873  12.2314  12.2353  12.3205  12.3580
    12.4012  12.4113  12.4226  12.4454  12.4597  12.5207  12.5547  12.5624
    12.5911  12.6575  12.6895  12.7222  12.7250  12.7827  12.7998  12.8294
    12.8395  12.8801  12.9580  12.9892  13.0247  13.0283  13.1275  13.1940
    13.2320  13.3767  13.6280  13.7691  13.8708  13.9062  14.3247  14.4240
    14.4472  14.5362  14.8275  14.8836  16.5169  16.7024  16.7296  16.8181
    16.8186  16.8248  16.8572  16.8608  16.8878  16.8947  17.0163  17.0353
    17.5228  17.5759  17.6371  17.6553  17.9219  17.9768  18.0306  18.0523
    19.7550  19.8291

          k = 0.0000-0.5000-0.0484 ( 13892 PWs)   bands (ev):

   -66.8513 -66.7860 -66.7297 -66.6886 -62.2213 -62.1817 -62.1269 -62.1002
   -35.6169 -35.5779 -35.5655 -35.5481 -35.5155 -35.5032 -35.4965 -35.4583
   -35.4578 -35.4459 -35.4166 -35.4042 -31.0575 -31.0415 -31.0412 -31.0174
   -31.0042 -31.0014 -30.9624 -30.9532 -30.9463 -30.9354 -30.9278 -30.9193
     8.1435   8.1558   8.1896   8.1944   8.2515   8.2596   8.3461   8.3698
     8.3951   8.4416   8.5001   8.5185   8.5574   8.6086   8.7026   8.7085
     9.0223   9.0363   9.1463   9.1700   9.1785   9.2140   9.2201   9.2487
     9.2731   9.2810   9.3031   9.4582   9.4914   9.4997   9.5158   9.5535
     9.7234   9.7448   9.7624   9.7750   9.7914   9.8498   9.8623   9.9766
     9.9990  10.0261  10.0365  10.0378  10.0598  10.1343  10.1772  10.2632
    10.3410  10.6022  10.6065  10.6186  10.6218  10.6901  10.7183  10.9022
    11.0164  11.2093  11.2401  11.2522  11.3655  11.3847  11.4072  11.4843
    11.5045  11.5047  11.5413  11.5501  11.5545  11.5712  11.5824  11.6063
    11.6101  11.6256  11.6604  11.6738  11.7781  11.7809  11.8031  11.8189
    11.8311  11.9538  12.0843  12.0894  12.1745  12.2439  12.3166  12.3796
    12.4014  12.4112  12.4259  12.4454  12.4575  12.5265  12.5411  12.5481
    12.6015  12.6848  12.6877  12.7162  12.7250  12.7842  12.7998  12.8001
    12.8294  12.8797  13.0084  13.0247  13.0284  13.0339  13.0523  13.1698
    13.2370  13.4504  13.5947  13.6517  14.0103  14.0259  14.1372  14.2370
    14.6425  14.7366  14.7439  14.7864  16.5381  16.6970  16.7038  16.8186
    16.8248  16.8324  16.8572  16.8608  16.8875  16.8947  17.0161  17.0353
    17.5228  17.5759  17.6371  17.6553  17.9224  17.9762  18.0307  18.0523
    19.8145  19.8743

          k = 0.1250 0.1250 0.0000 ( 13839 PWs)   bands (ev):

   -66.8501 -66.7848 -66.7285 -66.6875 -62.2233 -62.1837 -62.1289 -62.1022
   -35.6178 -35.5679 -35.5679 -35.5489 -35.5055 -35.5055 -35.4973 -35.4586
   -35.4483 -35.4483 -35.4066 -35.4066 -31.0445 -31.0443 -31.0423 -31.0054
   -31.0044 -31.0042 -30.9543 -30.9493 -30.9491 -30.9289 -30.9223 -30.9221
     6.2530   6.3735   6.4366   6.7892   6.8770   7.4243   7.4576   7.9412
     8.4132   8.6148   8.6847   8.7001   8.7351   8.7590   8.7651   8.7720
     8.8139   8.9584   9.0443   9.0675   9.1777   9.3257   9.3742   9.3832
     9.4058   9.4151   9.4856   9.4986   9.6070   9.6885   9.7251   9.7542
     9.7964   9.8421   9.8461   9.8886   9.8959   9.9052   9.9206   9.9467
    10.1295  10.1309  10.1337  10.1440  10.1732  10.2352  10.2846  10.3416
    10.3632  10.3731  10.3867  10.4062  10.4195  10.4228  10.5394  10.5483
    10.6795  10.7121  10.7138  10.7367  10.7732  10.7804  10.8130  10.9087
    10.9376  10.9586  11.0469  11.1388  11.1506  11.1776  11.1953  11.2660
    11.2770  11.2963  11.3780  11.3819  11.4008  11.4337  11.4498  11.4779
    11.5320  11.5617  11.6403  11.6640  11.8051  11.8066  11.8402  11.8416
    11.8825  11.9056  11.9887  11.9940  12.0007  12.0810  12.1107  12.1538
    12.1961  12.3248  12.3389  12.4347  12.4852  12.5099  12.5364  12.5781
    12.6345  12.6580  12.7135  12.7611  12.7900  12.9465  13.0685  13.7468
    14.1693  15.0952  15.4704  16.1354  16.7060  16.7436  16.7963  16.8503
    16.8740  16.8799  16.8954  16.9627  16.9712  16.9837  17.0065  17.0105
    17.0201  17.0572  17.1736  17.2136  17.5221  17.6961  17.7858  18.3521
    18.8548  19.2549  19.3067  19.4207  19.5804  19.6210  19.7610  20.0125
    20.1925  20.2755

          k = 0.1250 0.1250-0.0484 ( 13838 PWs)   bands (ev):

   -66.8501 -66.7848 -66.7285 -66.6875 -62.2233 -62.1837 -62.1289 -62.1022
   -35.6178 -35.5679 -35.5679 -35.5489 -35.5055 -35.5055 -35.4973 -35.4586
   -35.4483 -35.4483 -35.4066 -35.4066 -31.0445 -31.0443 -31.0423 -31.0054
   -31.0044 -31.0042 -30.9543 -30.9493 -30.9491 -30.9289 -30.9223 -30.9221
     6.2707   6.3143   6.5368   6.6397   7.0923   7.1516   7.7480   7.7669
     8.5319   8.5907   8.6271   8.6734   8.7001   8.7351   8.7652   8.7898
     8.9155   8.9584   8.9707   9.1001   9.2288   9.2666   9.3346   9.3589
     9.4453   9.4698   9.4876   9.5020   9.5965   9.6445   9.7288   9.7903
     9.7915   9.8446   9.8461   9.8868   9.8956   9.9028   9.9091   9.9627
    10.0987  10.1305  10.1334  10.1448  10.2087  10.2235  10.2846  10.3387
    10.3511  10.3731  10.3866  10.4096  10.4195  10.4433  10.5277  10.5481
    10.6805  10.6938  10.7314  10.7442  10.7702  10.7952  10.8483  10.8544
    10.8753  11.0230  11.0581  11.1348  11.1585  11.1695  11.1838  11.2936
    11.2948  11.2963  11.3587  11.3775  11.3965  11.3989  11.4457  11.4693
    11.5083  11.6048  11.6366  11.7343  11.8023  11.8113  11.8243  11.8336
    11.8710  11.8947  11.9182  11.9646  12.0858  12.0904  12.1389  12.1489
    12.1922  12.3029  12.3248  12.4440  12.4903  12.5128  12.5381  12.5764
    12.6338  12.6569  12.7495  12.7619  12.7951  12.8149  13.2475  13.5542
    14.3883  14.8443  15.7025  16.0205  16.7440  16.7443  16.7944  16.8133
    16.8754  16.8759  16.9360  16.9612  16.9625  16.9706  17.0063  17.0121
    17.0201  17.0572  17.1736  17.2142  17.5315  17.6305  18.0074  18.0441
    19.2500  19.3188  19.3642  19.3969  19.4524  19.5183  19.6568  19.8920
    20.0278  20.1970

          k = 0.1250 0.2500 0.0000 ( 13846 PWs)   bands (ev):

   -66.8499 -66.7846 -66.7283 -66.6872 -62.2230 -62.1835 -62.1286 -62.1020
   -35.6174 -35.5721 -35.5676 -35.5486 -35.5097 -35.5052 -35.4969 -35.4582
   -35.4525 -35.4480 -35.4108 -35.4063 -31.0497 -31.0441 -31.0418 -31.0096
   -31.0048 -31.0040 -30.9545 -30.9538 -30.9489 -30.9284 -30.9275 -30.9219
     6.9011   7.0119   7.0771   7.3957   7.4679   7.9239   7.9288   8.2937
     8.4436   8.6423   8.6568   8.8079   8.8361   8.8580   8.8988   8.9707
     8.9881   9.0432   9.0542   9.0990   9.1679   9.2644   9.2981   9.4005
     9.4539   9.4970   9.5206   9.5270   9.5491   9.5590   9.5769   9.6040
     9.6301   9.7101   9.7869   9.8074   9.8455   9.8972   9.9301   9.9685
     9.9908  10.0027  10.0523  10.1108  10.1340  10.1476  10.1876  10.3279
    10.3755  10.3951  10.4337  10.4643  10.4760  10.4880  10.5804  10.5909
    10.6694  10.6956  10.7370  10.7949  10.8725  10.8857  10.9109  10.9690
    11.0092  11.0232  11.0404  11.0874  11.1310  11.2007  11.2648  11.3225
    11.3548  11.4197  11.4607  11.4932  11.5099  11.5788  11.6016  11.6470
    11.6707  11.6733  11.7447  11.7764  11.8184  11.8999  11.9133  11.9483
    11.9665  12.0051  12.0569  12.1064  12.1270  12.1725  12.1836  12.2330
    12.2486  12.3257  12.4082  12.5054  12.5519  12.5689  12.6025  12.6125
    12.6355  12.6511  12.7178  12.7621  12.8277  13.0912  13.2188  14.0374
    14.4110  15.3079  15.5787  16.0438  16.2423  16.2817  16.3678  16.4102
    16.5823  16.6730  16.7394  16.9279  16.9699  16.9807  17.0376  17.0880
    17.1633  17.1806  17.2133  17.2841  17.3760  17.4406  17.4987  17.6224
    17.8885  18.0067  18.1596  18.3890  18.8912  18.9266  19.0341  19.1029
    19.5496  20.5524

          k = 0.1250 0.2500-0.0484 ( 13868 PWs)   bands (ev):

   -66.8499 -66.7846 -66.7283 -66.6872 -62.2230 -62.1835 -62.1286 -62.1020
   -35.6174 -35.5721 -35.5676 -35.5486 -35.5097 -35.5052 -35.4969 -35.4582
   -35.4525 -35.4480 -35.4108 -35.4063 -31.0497 -31.0441 -31.0418 -31.0096
   -31.0048 -31.0040 -30.9545 -30.9538 -30.9489 -30.9284 -30.9275 -30.9219
     6.9166   6.9605   7.1644   7.2631   7.6587   7.6924   8.1414   8.1702
     8.5241   8.5499   8.7432   8.7539   8.8234   8.8672   8.9234   8.9530
     9.0110   9.0346   9.0549   9.0978   9.1633   9.2661   9.2834   9.3981
     9.4625   9.4991   9.5187   9.5391   9.5515   9.5702   9.5795   9.5952
     9.6666   9.6969   9.7228   9.8014   9.8318   9.8913   9.9602   9.9884
    10.0019  10.0475  10.0547  10.0668  10.1264  10.1423  10.2245  10.2752
    10.3579  10.3900  10.4417  10.4598  10.4786  10.5423  10.5839  10.5961
    10.6301  10.7008  10.7688  10.7950  10.8232  10.8814  10.9344  10.9730
    10.9957  10.9972  11.0620  11.1096  11.1641  11.1943  11.2491  11.2929
    11.3282  11.4476  11.4720  11.5022  11.5086  11.5889  11.6097  11.6454
    11.6649  11.6738  11.7261  11.7644  11.8162  11.8944  11.9104  11.9387
    12.0091  12.0279  12.0568  12.0700  12.1062  12.2001  12.2118  12.2304
    12.2326  12.3029  12.4383  12.4848  12.5371  12.5490  12.6002  12.6143
    12.6516  12.6860  12.7609  12.8067  12.8212  12.8552  13.4993  13.7639
    14.6705  15.0615  15.7442  16.0288  16.2165  16.2317  16.4045  16.4617
    16.5030  16.7236  16.7371  16.9097  16.9675  16.9950  17.0275  17.1165
    17.1217  17.1868  17.2287  17.2826  17.3683  17.4551  17.4890  17.6251
    17.8097  18.0314  18.4058  18.4488  18.5853  18.6279  19.2186  19.2581
    19.8951  19.9343

          k = 0.1250 0.3750 0.0000 ( 13875 PWs)   bands (ev):

   -66.8503 -66.7850 -66.7287 -66.6877 -62.2221 -62.1826 -62.1277 -62.1011
   -35.6170 -35.5761 -35.5674 -35.5482 -35.5137 -35.5050 -35.4965 -35.4578
   -35.4565 -35.4478 -35.4148 -35.4061 -31.0550 -31.0437 -31.0412 -31.0149
   -31.0043 -31.0036 -30.9599 -30.9533 -30.9485 -30.9329 -30.9279 -30.9215
     7.7749   7.8636   7.9283   8.1486   8.1805   8.3431   8.3467   8.3942
     8.4384   8.4856   8.5032   8.6117   8.6770   8.8085   8.8297   8.9563
     9.0457   9.1059   9.1572   9.2063   9.2800   9.2846   9.3171   9.3203
     9.3323   9.3576   9.3823   9.3902   9.4492   9.5200   9.5501   9.5628
     9.6284   9.6826   9.7074   9.7607   9.8276   9.8953   9.9125   9.9349
     9.9729   9.9775  10.0167  10.0282  10.2096  10.2978  10.3429  10.4053
    10.4801  10.5211  10.5449  10.5995  10.6146  10.6599  10.7109  10.7306
    10.8287  10.8668  10.8777  10.9242  11.0714  11.1255  11.1286  11.1556
    11.1759  11.2571  11.2680  11.3156  11.3280  11.4000  11.4659  11.5226
    11.5564  11.5803  11.6026  11.6466  11.6673  11.6904  11.7221  11.7913
    11.8173  11.8333  11.8463  11.8702  11.8847  11.9246  11.9447  11.9557
    12.0417  12.0659  12.0843  12.1045  12.2154  12.2581  12.3222  12.3667
    12.4262  12.4498  12.4914  12.5149  12.5462  12.5693  12.5717  12.6559
    12.7661  12.8337  12.8586  13.0904  13.1352  13.5209  13.5945  14.1761
    14.3234  14.4007  14.6321  14.6873  14.9799  15.0299  15.4157  15.5145
    15.7007  15.7602  16.1369  16.1393  16.8736  16.8998  16.9510  16.9584
    17.0004  17.0505  17.1049  17.1601  17.1654  17.1963  17.2257  17.2976
    17.6323  17.6596  17.7158  17.8570  18.0211  18.0785  18.1518  18.3442
    19.7487  19.8095

          k = 0.1250 0.3750-0.0484 ( 13882 PWs)   bands (ev):

   -66.8503 -66.7850 -66.7287 -66.6877 -62.2221 -62.1826 -62.1277 -62.1011
   -35.6170 -35.5761 -35.5674 -35.5482 -35.5137 -35.5050 -35.4965 -35.4578
   -35.4565 -35.4478 -35.4148 -35.4061 -31.0550 -31.0437 -31.0412 -31.0149
   -31.0043 -31.0036 -30.9599 -30.9533 -30.9485 -30.9329 -30.9279 -30.9215
     7.7855   7.8292   7.9848   8.0666   8.2756   8.2772   8.3678   8.3942
     8.4355   8.4718   8.5507   8.5627   8.7120   8.7706   8.8505   8.9617
     9.0472   9.0708   9.1859   9.2325   9.2633   9.2886   9.3082   9.3204
     9.3342   9.3607   9.3846   9.4114   9.4147   9.4852   9.5513   9.5614
     9.6257   9.7033   9.7643   9.7864   9.8460   9.8597   9.8796   9.9025
     9.9550   9.9761  10.0225  10.0443  10.2237  10.2529  10.3989  10.4523
    10.4898  10.5002  10.5408  10.5646  10.6120  10.6298  10.7004  10.7328
    10.8489  10.8659  10.9186  10.9586  10.9959  11.0923  11.1439  11.1630
    11.1995  11.2195  11.3082  11.3093  11.3484  11.4257  11.4325  11.4915
    11.5668  11.5940  11.6214  11.6255  11.6516  11.6985  11.7515  11.7738
    11.8072  11.8289  11.8429  11.8624  11.9154  11.9254  11.9466  11.9764
    12.0030  12.0647  12.0820  12.1258  12.1870  12.2859  12.3284  12.3758
    12.4072  12.4285  12.4859  12.5171  12.5373  12.5665  12.6398  12.6440
    12.7156  12.8201  12.9609  12.9674  13.2839  13.3180  13.8109  13.9754
    14.4113  14.4444  14.6106  14.6814  14.9736  15.0867  15.3521  15.3827
    15.8307  15.8709  16.0758  16.0966  16.8534  16.8948  16.9665  16.9700
    16.9931  17.0677  17.0953  17.1600  17.1653  17.1976  17.2218  17.2975
    17.6278  17.6692  17.7092  17.8724  17.9824  18.0686  18.1865  18.3485
    19.8211  19.8943

          k = 0.1250-0.5000 0.0000 ( 13890 PWs)   bands (ev):

   -66.8507 -66.7854 -66.7291 -66.6881 -62.2216 -62.1821 -62.1272 -62.1006
   -35.6168 -35.5777 -35.5673 -35.5480 -35.5153 -35.5049 -35.4964 -35.4581
   -35.4577 -35.4476 -35.4165 -35.4059 -31.0573 -31.0436 -31.0410 -31.0172
   -31.0041 -31.0035 -30.9621 -30.9530 -30.9484 -30.9352 -30.9277 -30.9214
     8.3007   8.3261   8.3478   8.3708   8.4249   8.4266   8.4702   8.4926
     8.5153   8.5268   8.6088   8.6245   8.6441   8.6594   8.7401   8.7600
     9.0225   9.0829   9.1424   9.1903   9.1970   9.2348   9.2533   9.2537
[...]
    11.4672  11.4862  11.5137  11.5664  11.6106  11.6206  11.6460  11.7071
    11.7261  11.8333  11.8699  11.9089  11.9292  11.9365  11.9966  11.9990
    12.0574  12.0822  12.1093  12.1644  12.2270  12.2922  12.3183  12.3738
    12.4284  12.4444  12.5193  12.5729  12.5862  12.6196  12.6375  12.8541
    12.8808  13.2137  13.2424  13.5529  13.7727  14.1501  14.1626  14.5535
    15.0835  15.1648  15.3024  15.3536  15.5418  15.6638  15.8984  16.0221
    16.1777  16.3632  16.6829  16.7330  16.9905  17.0865  17.1202  17.1298
    17.2118  17.3050  17.3373  17.4257  17.4942  17.5455  17.5928  17.8200
    18.0010  18.0623  18.0824  18.1363  18.3066  18.6276  18.7289  18.9030
    19.4800  19.5905

          k = 0.2500 0.3750-0.0484 ( 13916 PWs)   bands (ev):

   -66.8492 -66.7845 -66.7284 -66.6872 -62.2227 -62.1825 -62.1280 -62.1013
   -35.6165 -35.5755 -35.5712 -35.5483 -35.5137 -35.5094 -35.4968 -35.4579
   -35.4567 -35.4524 -35.4148 -35.4105 -31.0548 -31.0490 -31.0412 -31.0140
   -31.0083 -31.0036 -30.9593 -30.9536 -30.9529 -30.9323 -30.9275 -30.9265
     7.9649   8.0218   8.1873   8.3628   8.5921   8.6385   8.6561   8.7580
     8.7999   8.8269   8.8535   8.8832   8.9063   8.9193   9.0303   9.0559
     9.0822   9.1282   9.2416   9.3147   9.3416   9.3463   9.3690   9.3936
     9.4003   9.4289   9.4457   9.5439   9.5976   9.6286   9.6396   9.6974
     9.7427   9.7833   9.7964   9.8215   9.8527   9.9015   9.9074   9.9721
    10.0729  10.1322  10.1689  10.2154  10.2299  10.2535  10.2772  10.3026
    10.3706  10.4101  10.4541  10.4897  10.5274  10.5577  10.5858  10.5930
    10.6684  10.7003  10.7266  10.7767  10.7850  10.8816  10.9049  10.9440
    10.9864  11.0685  11.1156  11.1551  11.2008  11.2227  11.2673  11.3167
    11.4702  11.4863  11.5096  11.5565  11.6067  11.6405  11.6639  11.6943
    11.7367  11.7900  11.9049  11.9084  11.9286  11.9376  11.9803  11.9970
    12.0511  12.0841  12.1298  12.1625  12.2378  12.2775  12.3143  12.3658
    12.4209  12.4792  12.5056  12.5504  12.5808  12.6262  12.7122  12.7287
    13.0279  13.0549  13.3817  13.4611  13.8765  13.9664  14.3304  14.4835
    15.1561  15.2075  15.2255  15.2717  15.6002  15.7183  15.8718  15.9585
    16.2207  16.3527  16.6828  16.7383  16.9876  17.0875  17.1169  17.1280
    17.2116  17.3219  17.3483  17.4011  17.5016  17.5525  17.5808  17.7949
    17.9795  18.0274  18.0920  18.2937  18.4098  18.4286  18.6837  18.8910
    19.4791  19.5843

          k = 0.2500-0.5000 0.0000 ( 13940 PWs)   bands (ev):

   -66.8494 -66.7848 -66.7286 -66.6874 -62.2223 -62.1822 -62.1276 -62.1010
   -35.6163 -35.5771 -35.5710 -35.5482 -35.5154 -35.5093 -35.4967 -35.4583
   -35.4578 -35.4522 -35.4164 -35.4103 -31.0570 -31.0489 -31.0410 -31.0162
   -31.0081 -31.0034 -30.9615 -30.9534 -30.9527 -30.9345 -30.9273 -30.9264
     8.3645   8.3980   8.4499   8.4635   8.5096   8.5705   8.7069   8.7394
     8.8040   8.8064   8.8212   8.8427   8.8452   8.9171   8.9797   8.9948
     9.0614   9.0690   9.1541   9.2071   9.2150   9.2278   9.3021   9.3108
     9.3708   9.3814   9.4165   9.4610   9.5518   9.6053   9.6336   9.7097
     9.7225   9.7906   9.8280   9.8446   9.9094   9.9213   9.9705  10.0018
    10.2222  10.2524  10.3220  10.3455  10.3579  10.4359  10.4429  10.4610
    10.5031  10.5331  10.5621  10.6261  10.7160  10.7275  10.7827  10.7954
    10.8393  10.8509  10.8690  10.9216  10.9323  10.9718  10.9817  11.0850
    11.1546  11.1814  11.2157  11.2634  11.2783  11.3021  11.3148  11.3378
    11.4543  11.5627  11.6337  11.6387  11.6575  11.6883  11.6964  11.7198
    11.8419  11.8669  11.8944  11.9083  11.9768  12.0130  12.0218  12.0230
    12.0783  12.1168  12.1961  12.2010  12.2642  12.3175  12.3605  12.4211
    12.4469  12.4678  12.4969  12.5157  12.7995  12.8879  12.9950  13.0957
    13.1396  13.2806  13.4435  13.5203  13.7241  13.9908  14.0557  14.2314
    14.4764  14.4962  14.6040  14.7838  14.9430  15.2679  15.3659  15.6236
    16.0352  16.1973  16.4140  16.4220  16.9440  17.0633  17.0808  17.0916
    17.1215  17.1568  17.1578  17.3777  17.5807  17.6501  17.7665  17.8023
    17.9159  17.9875  18.0764  18.1499  18.1690  18.2241  18.3881  18.4870
    19.5476  19.6146

          k = 0.2500-0.5000-0.0484 ( 13912 PWs)   bands (ev):

   -66.8494 -66.7848 -66.7286 -66.6874 -62.2223 -62.1822 -62.1276 -62.1010
   -35.6163 -35.5771 -35.5710 -35.5482 -35.5154 -35.5093 -35.4967 -35.4583
   -35.4578 -35.4522 -35.4164 -35.4103 -31.0570 -31.0489 -31.0410 -31.0162
   -31.0081 -31.0034 -30.9615 -30.9534 -30.9527 -30.9345 -30.9273 -30.9264
     8.3692   8.3994   8.4357   8.4580   8.5148   8.5940   8.7053   8.7195
     8.8035   8.8056   8.8212   8.8430   8.8470   8.9165   8.9779   8.9912
     9.0719   9.1010   9.1345   9.1636   9.2360   9.2483   9.3020   9.3118
     9.3586   9.3790   9.4158   9.4634   9.5519   9.6206   9.6388   9.6747
     9.7365   9.7743   9.8361   9.8833   9.8897   9.9064   9.9838   9.9937
    10.2163  10.2545  10.3319  10.3482  10.3714  10.4387  10.4405  10.4664
    10.5005  10.5111  10.5604  10.5823  10.7516  10.7600  10.7750  10.8238
    10.8269  10.8596  10.8619  10.8757  10.9227  10.9486  11.0498  11.0824
    11.1212  11.1817  11.2217  11.2741  11.2755  11.3000  11.3116  11.3432
    11.4525  11.5620  11.6333  11.6387  11.6574  11.6885  11.6967  11.7199
    11.8428  11.8641  11.8965  11.9093  11.9808  12.0073  12.0173  12.0334
    12.0708  12.1155  12.1997  12.2013  12.2418  12.3569  12.3685  12.4331
    12.4363  12.4744  12.4796  12.4843  12.8438  12.9195  12.9239  13.0698
    13.1558  13.3703  13.4009  13.4615  13.7954  13.9455  14.0178  14.3703
    14.4022  14.4472  14.6573  14.7040  15.0568  15.2571  15.2798  15.6721
    16.0145  16.2210  16.4073  16.4112  16.9520  17.0637  17.0795  17.0925
    17.1116  17.1577  17.1646  17.3715  17.5925  17.6586  17.7461  17.7804
    17.9278  18.0131  18.0762  18.1419  18.1734  18.2886  18.3607  18.4083
    19.7415  19.8349

          k = 0.3750 0.3750 0.0000 ( 13948 PWs)   bands (ev):

   -66.8489 -66.7843 -66.7282 -66.6869 -62.2225 -62.1824 -62.1278 -62.1012
   -35.6162 -35.5751 -35.5751 -35.5481 -35.5134 -35.5134 -35.4966 -35.4577
   -35.4563 -35.4563 -35.4145 -35.4144 -31.0543 -31.0541 -31.0408 -31.0136
   -31.0134 -31.0033 -30.9589 -30.9587 -30.9526 -30.9319 -30.9317 -30.9271
     8.0654   8.1540   8.2592   8.4111   8.4744   8.5171   8.6305   8.6714
     8.9189   9.0206   9.0285   9.0417   9.0892   9.1184   9.1454   9.2035
     9.2539   9.2781   9.3194   9.3396   9.3568   9.3741   9.3768   9.4653
     9.4832   9.4951   9.5013   9.5500   9.6430   9.6669   9.6880   9.8228
     9.9380   9.9488   9.9698   9.9926  10.0288  10.0347  10.0418  10.0919
    10.1307  10.1387  10.1480  10.1799  10.2149  10.2598  10.2733  10.3120
    10.3130  10.4250  10.4953  10.5540  10.5817  10.6234  10.7011  10.7251
    10.7453  10.8231  10.8633  10.8839  10.9911  11.0259  11.0853  11.1117
    11.1532  11.2082  11.2334  11.2834  11.3007  11.4500  11.4549  11.4961
    11.5087  11.5712  11.5727  11.5996  11.6365  11.6421  11.6435  11.7165
    11.7924  11.9577  11.9807  11.9853  11.9983  12.0067  12.0134  12.0234
    12.0402  12.0551  12.1184  12.1468  12.1842  12.2437  12.2766  12.3483
    12.3652  12.4292  12.4570  12.5344  12.6711  12.7303  12.7863  13.1672
    13.1935  13.5312  13.6639  14.0215  14.3170  14.6713  14.8269  15.0613
    15.1034  15.2023  15.2192  15.3777  15.8920  16.1712  16.2578  16.3904
    16.4406  16.5409  17.0292  17.0762  17.0901  17.1248  17.1449  17.2538
    17.3623  17.5335  17.7045  17.7882  17.8358  17.8577  17.8638  17.9764
    18.0509  18.0794  18.1394  18.1715  18.2172  18.4757  18.6052  18.7257
    18.7762  18.8565

          k = 0.3750 0.3750-0.0484 ( 13950 PWs)   bands (ev):

   -66.8489 -66.7843 -66.7282 -66.6869 -62.2225 -62.1824 -62.1278 -62.1012
   -35.6162 -35.5751 -35.5751 -35.5481 -35.5134 -35.5134 -35.4966 -35.4577
   -35.4563 -35.4563 -35.4145 -35.4144 -31.0543 -31.0541 -31.0408 -31.0136
   -31.0134 -31.0033 -30.9589 -30.9587 -30.9526 -30.9319 -30.9317 -30.9271
     8.0709   8.1369   8.2819   8.4133   8.4648   8.5126   8.5823   8.7412
     8.9064   9.0193   9.0356   9.0383   9.0746   9.0934   9.1715   9.1853
     9.2509   9.2884   9.3204   9.3482   9.3564   9.3934   9.4299   9.4304
     9.4471   9.4527   9.5598   9.5754   9.5896   9.6296   9.7976   9.8202
     9.8696   9.9196   9.9671   9.9719  10.0037  10.0425  10.1184  10.1258
    10.1387  10.1420  10.1661  10.1876  10.1963  10.2306  10.2452  10.3291
    10.3650  10.3733  10.4501  10.5366  10.5795  10.6804  10.7055  10.7346
    10.7929  10.8322  10.8630  10.8840  10.8885  11.0259  11.0948  11.1128
    11.1558  11.1953  11.2395  11.2894  11.3739  11.4259  11.4518  11.4881
    11.5163  11.5698  11.5714  11.5864  11.6015  11.6354  11.6441  11.7165
    11.8711  11.9139  11.9585  11.9786  11.9963  12.0068  12.0117  12.0336
    12.0577  12.0812  12.0961  12.1296  12.2122  12.2480  12.2757  12.3226
    12.3638  12.4293  12.4713  12.5810  12.6154  12.6686  12.9296  13.0006
    13.3507  13.4293  13.7139  13.9978  14.3407  14.6354  14.8609  15.0499
    15.1231  15.1544  15.2498  15.3754  15.8921  16.1790  16.2534  16.3676
    16.4494  16.5618  17.0215  17.0613  17.0932  17.1248  17.1449  17.2295
    17.3975  17.5490  17.6671  17.7902  17.8356  17.8636  17.9221  17.9383
    18.0160  18.0471  18.2019  18.3157  18.3499  18.3517  18.3743  18.5432
    18.7192  18.9805

          k = 0.3750-0.5000 0.0000 ( 13934 PWs)   bands (ev):

   -66.8490 -66.7844 -66.7282 -66.6870 -62.2223 -62.1821 -62.1276 -62.1009
   -35.6161 -35.5767 -35.5749 -35.5480 -35.5150 -35.5132 -35.4965 -35.4579
   -35.4576 -35.4561 -35.4160 -35.4143 -31.0564 -31.0540 -31.0407 -31.0157
   -31.0133 -31.0031 -30.9610 -30.9586 -30.9524 -30.9340 -30.9316 -30.9270
     8.1879   8.2010   8.2743   8.2788   8.3395   8.4120   8.6052   8.6842
     8.8193   8.9889   9.1121   9.1224   9.1354   9.1783   9.1848   9.2145
     9.2197   9.2334   9.2492   9.2784   9.2927   9.3240   9.3947   9.3961
     9.4230   9.4834   9.5610   9.5869   9.6302   9.6593   9.8278   9.8642
     9.9062   9.9385   9.9668   9.9736  10.0014  10.0164  10.0909  10.0954
    10.1207  10.1583  10.1918  10.2532  10.2840  10.3236  10.3692  10.3816
    10.4375  10.4378  10.5908  10.6939  10.7162  10.7433  10.7959  10.8590
    10.8833  11.0376  11.0899  11.1086  11.1362  11.1626  11.1873  11.1964
    11.2496  11.2825  11.3928  11.3977  11.4214  11.4426  11.5024  11.5495
    11.5549  11.5817  11.6850  11.6881  11.7579  11.8134  11.8200  11.8376
    11.9161  11.9586  11.9869  11.9895  12.0560  12.0730  12.0829  12.1250
    12.1278  12.1471  12.1979  12.2355  12.2457  12.2502  12.3223  12.3703
    12.3817  12.4058  12.4803  12.5322  12.9756  13.1214  13.1757  13.2860
    13.5977  13.7776  13.8459  13.9600  14.1844  14.3199  14.5252  14.5533
    14.9378  14.9531  15.3538  15.4338  15.5745  15.8642  15.9928  16.0653
    16.7472  16.8859  17.0179  17.0383  17.0512  17.0726  17.0996  17.1322
    17.3584  17.5307  17.5469  17.7891  17.8340  18.0058  18.0415  18.0451
    18.1129  18.1559  18.2810  18.4166  18.4306  18.5230  18.7222  18.8170
    18.8786  18.8839

          k = 0.3750-0.5000-0.0484 ( 13940 PWs)   bands (ev):

   -66.8490 -66.7844 -66.7282 -66.6870 -62.2223 -62.1821 -62.1276 -62.1009
   -35.6161 -35.5767 -35.5749 -35.5480 -35.5150 -35.5132 -35.4965 -35.4579
   -35.4576 -35.4561 -35.4160 -35.4143 -31.0564 -31.0540 -31.0407 -31.0157
   -31.0133 -31.0031 -30.9610 -30.9586 -30.9524 -30.9340 -30.9316 -30.9270
     8.1923   8.2031   8.2647   8.2664   8.3476   8.4373   8.5999   8.6333
     8.8981   9.0148   9.0274   9.0952   9.1328   9.1779   9.1938   9.1991
     9.2349   9.2449   9.2718   9.2836   9.2965   9.3425   9.3793   9.3863
     9.4486   9.4917   9.5125   9.5565   9.6946   9.7074   9.7714   9.7865
     9.9482   9.9502   9.9577  10.0034  10.0081  10.0369  10.0834  10.0873
    10.1585  10.1699  10.1862  10.2374  10.2430  10.2701  10.3369  10.3443
    10.5297  10.5430  10.6055  10.6774  10.6788  10.7328  10.7332  10.7969
    10.9904  11.0454  11.1061  11.1084  11.1330  11.1421  11.1639  11.2302
    11.2349  11.3062  11.3327  11.4114  11.4527  11.4553  11.4839  11.4988
    11.5734  11.6160  11.6734  11.6830  11.7667  11.8088  11.8200  11.8384
    11.9188  11.9538  11.9877  11.9910  12.0584  12.0721  12.0750  12.1182
    12.1352  12.1458  12.1970  12.2257  12.2429  12.2734  12.3281  12.3750
    12.3949  12.4205  12.4621  12.4988  13.0120  13.1242  13.1308  13.3107
    13.5723  13.8201  13.8414  13.9347  14.1974  14.3041  14.5292  14.5615
    14.9331  14.9503  15.3567  15.4319  15.5794  15.8636  15.9928  16.0608
    16.7537  16.8682  17.0260  17.0359  17.0528  17.0681  17.1291  17.1524
    17.2951  17.5098  17.6003  17.7446  17.9113  17.9785  18.0453  18.0665
    18.1000  18.1528  18.1896  18.3795  18.5043  18.6034  18.7770  18.7946
    18.8803  18.8839

          k =-0.5000-0.5000 0.0000 ( 13964 PWs)   bands (ev):

   -66.8490 -66.7844 -66.7282 -66.6870 -62.2221 -62.1820 -62.1275 -62.1008
   -35.6160 -35.5765 -35.5765 -35.5479 -35.5148 -35.5148 -35.4964 -35.4577
   -35.4577 -35.4575 -35.4159 -35.4159 -31.0562 -31.0562 -31.0406 -31.0155
   -31.0155 -31.0030 -30.9608 -30.9608 -30.9523 -30.9337 -30.9337 -30.9269
     8.1089   8.1153   8.1898   8.2042   8.2609   8.3382   8.5534   8.6327
     8.7662   8.9141   9.1090   9.1580   9.1834   9.2130   9.2538   9.2538
     9.3015   9.3015   9.3166   9.3166   9.4028   9.4387   9.4387   9.4394
     9.4494   9.4494   9.6878   9.6878   9.6943   9.6943   9.8397   9.9306
     9.9306   9.9454   9.9454   9.9666   9.9666   9.9811   9.9854  10.0411
    10.0424  10.0424  10.0627  10.0627  10.1145  10.1145  10.5165  10.5165
    10.5204  10.5964  10.5964  10.6033  10.6499  10.6662  11.0683  11.0683
    11.1504  11.1529  11.1695  11.1900  11.2144  11.3106  11.3106  11.3171
    11.3784  11.4285  11.4414  11.4505  11.4843  11.5195  11.7942  11.7942
    11.9481  11.9586  11.9734  11.9842  11.9847  11.9976  12.0111  12.0238
    12.0373  12.0373  12.0383  12.0490  12.0658  12.0773  12.0776  12.0884
    12.1059  12.1168  12.1708  12.1867  12.2280  12.2377  12.2603  12.3443
    12.3614  12.3855  12.3855  12.3928  13.3914  13.4043  13.4296  13.4343
    13.8630  13.8630  14.0949  14.0949  14.2124  14.2124  14.5981  14.5981
    15.2578  15.2578  15.8704  15.8704  15.9917  15.9917  16.5922  16.6459
    16.6845  16.6845  16.7178  16.7195  16.8400  16.9907  17.0005  17.2018
    17.4510  17.4510  17.7551  17.7822  17.8625  17.8686  18.0284  18.0320
    18.0320  18.0343  18.0701  18.1227  18.1597  18.2335  18.2335  18.2418
    18.2690  18.5307

          k =-0.5000-0.5000-0.0484 ( 13992 PWs)   bands (ev):

   -66.8490 -66.7844 -66.7282 -66.6870 -62.2221 -62.1820 -62.1275 -62.1008
   -35.6160 -35.5765 -35.5765 -35.5479 -35.5148 -35.5148 -35.4964 -35.4577
   -35.4577 -35.4575 -35.4159 -35.4159 -31.0562 -31.0562 -31.0406 -31.0155
   -31.0155 -31.0030 -30.9608 -30.9608 -30.9523 -30.9337 -30.9337 -30.9269
     8.1126   8.1176   8.1819   8.1916   8.2692   8.3608   8.5463   8.5808
     8.8561   8.9526   8.9902   9.0590   9.2558   9.2558   9.2861   9.2861
     9.2960   9.3483   9.3559   9.3559   9.3559   9.3626   9.3713   9.3713
     9.5490   9.5490   9.5560   9.5560   9.8567   9.8567   9.8605   9.8642
     9.8642   9.9307   9.9307   9.9454   9.9454   9.9613   9.9669   9.9669
     9.9827  10.0510  10.0886  10.0886  10.2845  10.2845  10.3141  10.3141
    10.5183  10.6063  10.6499  10.6649  10.7613  10.7613  10.9427  10.9427
    11.1497  11.1526  11.1701  11.1897  11.2160  11.3158  11.3784  11.4146
    11.4146  11.4285  11.4419  11.4505  11.4843  11.5195  11.7009  11.7009
    11.9481  11.9586  11.9734  11.9842  11.9847  11.9976  12.0111  12.0238
    12.0383  12.0490  12.0658  12.0773  12.0776  12.0884  12.1059  12.1074
    12.1074  12.1168  12.1701  12.1877  12.2214  12.2374  12.2725  12.3359
    12.3592  12.3592  12.3614  12.3956  13.3914  13.4043  13.4296  13.4343
    13.9251  13.9251  13.9838  13.9838  14.2718  14.2718  14.5894  14.5894
    15.2579  15.2579  15.8696  15.8696  15.9936  15.9936  16.5922  16.6458
    16.6758  16.6758  16.7178  16.7204  16.8369  16.9972  17.0005  17.1940
    17.5446  17.5446  17.7754  17.7809  17.7809  17.8063  17.8232  17.9060
    17.9613  18.0284  18.0701  18.1227  18.1597  18.2676  18.2922  18.5163
    18.6544  18.6544

     the Fermi energy is    15.2954 ev

!    total energy              =  -14693.99939168 Ry
     Harris-Foulkes estimate   =  -14693.99938840 Ry
     estimated scf accuracy    <       0.00000099 Ry

     total all-electron energy =   -626921.595114 Ry

     The total energy is the sum of the following terms:

     one-electron contribution =    -714.33761119 Ry
     hartree contribution      =     656.42912978 Ry
     xc contribution           =    -737.89303612 Ry
     ewald contribution        =   -2196.78933708 Ry
     Hubbard energy            =       0.44430024 Ry
     one-center paw contrib.   =  -11701.85283731 Ry

     total magnetization       =    -0.00 Bohr mag/cell
     absolute magnetization    =    37.38 Bohr mag/cell

     convergence has been achieved in  29 iterations

     Writing output data file mnau2.save/
 
     init_run     :     13.91s CPU     14.26s WALL (       1 calls)
     electrons    :    914.45s CPU    937.29s WALL (       1 calls)

     Called by init_run:
     wfcinit      :     12.63s CPU     12.92s WALL (       1 calls)
     potinit      :      0.58s CPU      0.60s WALL (       1 calls)
     hinit0       :      0.40s CPU      0.42s WALL (       1 calls)

     Called by electrons:
     c_bands      :    795.16s CPU    814.37s WALL (      29 calls)
     sum_band     :    102.93s CPU    105.83s WALL (      29 calls)
     v_of_rho     :      1.51s CPU      1.52s WALL (      30 calls)
     newd         :      3.90s CPU      3.92s WALL (      30 calls)
     PAW_pot      :     10.91s CPU     11.02s WALL (      30 calls)
     mix_rho      :      0.35s CPU      0.36s WALL (      29 calls)

     Called by c_bands:
     init_us_2    :      4.31s CPU      4.35s WALL (    3600 calls)
     cegterg      :    765.52s CPU    784.51s WALL (    1740 calls)

     Called by sum_band:
     sum_band:bec :      1.24s CPU      1.25s WALL (    1740 calls)
     addusdens    :      6.06s CPU      6.33s WALL (      29 calls)

     Called by *egterg:
     h_psi        :    338.23s CPU    346.83s WALL (    6068 calls)
     s_psi        :     33.53s CPU     33.56s WALL (    6128 calls)
     g_psi        :      1.19s CPU      1.20s WALL (    4268 calls)
     cdiaghg      :    293.29s CPU    303.33s WALL (    6008 calls)

     Called by h_psi:
     h_psi:pot    :    320.14s CPU    328.55s WALL (    6068 calls)
     h_psi:calbec :     45.48s CPU     46.99s WALL (    6068 calls)
     vloc_psi     :    242.16s CPU    248.48s WALL (    6068 calls)
     add_vuspsi   :     32.45s CPU     33.05s WALL (    6068 calls)
     vhpsi        :     17.26s CPU     17.44s WALL (    6068 calls)

     General routines
     calbec       :     81.65s CPU     84.31s WALL (   15676 calls)
     fft          :      1.25s CPU      1.27s WALL (     746 calls)
     ffts         :      0.06s CPU      0.07s WALL (     118 calls)
     fftw         :    288.63s CPU    296.24s WALL ( 1638096 calls)
     interpolate  :      0.13s CPU      0.13s WALL (      60 calls)
     davcio       :      0.00s CPU      0.01s WALL (      60 calls)
 
     Parallel routines
     fft_scatt_xy :     17.41s CPU     17.82s WALL ( 1638960 calls)
     fft_scatt_yz :    197.55s CPU    203.18s WALL ( 1638960 calls)

     Hubbard U routines
     new_ns       :      3.12s CPU      3.24s WALL (      29 calls)
     vhpsi        :     17.26s CPU     17.44s WALL (    6068 calls)
 
     PWSCF        : 15m38.43s CPU    16m26.57s WALL

 
   This run was terminated on:  22:29:59   6Apr2019            

=------------------------------------------------------------------------------=
   JOB DONE.
=------------------------------------------------------------------------------=
