
     Program PWSCF v.6.3MaX starts on  6Apr2019 at 22:30: 1 

     This program is part of the open-source Quantum ESPRESSO suite
     for quantum simulation of materials; please cite
         "P. Giannozzi et al., J. Phys.:Condens. Matter 21 395502 (2009);
         "P. Giannozzi et al., J. Phys.:Condens. Matter 29 465901 (2017);
          URL http://www.quantum-espresso.org", 
     in publications or presentations arising from this work. More details at
     http://www.quantum-espresso.org/quote

     Parallel version (MPI), running on    32 processors

     MPI processes distributed on     4 nodes
     R & G space division:  proc/nbgrp/npool/nimage =      32
     Waiting for input...
     Reading input from standard input

     Current dimensions of program PWSCF are:
     Max number of different atomic species (ntypx) = 10
     Max number of k-points (npk) =  40000
     Max angular momentum in pseudopotentials (lmaxx) =  3
               file Mn.pbe-spn-kjpaw_psl.0.3.1.UPF: wavefunction(s)  3P 3D renormalized
               file Mn.pbe-spn-kjpaw_psl.0.3.1.UPF: wavefunction(s)  3P 3D renormalized
               file Au.pbe-dn-kjpaw_psl.0.1.UPF: wavefunction(s)  6S 6P 5D renormalized

     Subspace diagonalization in iterative solution of the eigenvalue problem:
     one sub-group per band group will be used
     scalapack distributed-memory algorithm (size of sub-group:  4*  4 procs)

 
     Parallelization info
     --------------------
     sticks:   dense  smooth     PW     G-vecs:    dense   smooth      PW
     Min          41      18      5                11487     3460     563
     Max          42      19      6                11527     3505     606
     Sum        1313     593    177               368373   111379   18691
 


     bravais-lattice index     =            0
     lattice parameter (alat)  =       6.4153  a.u.
     unit-cell volume          =    2724.7774 (a.u.)^3
     number of atoms/cell      =           24
     number of atomic types    =            3
     number of electrons       =       296.00
     number of Kohn-Sham states=          178
     kinetic-energy cutoff     =      45.0000  Ry
     charge density cutoff     =     400.0000  Ry
     convergence threshold     =      1.0E-06
     mixing beta               =       0.1000
     number of iterations used =            8  plain     mixing
     Exchange-correlation      = SLA PW PBX PBC ( 1  4  3  4 0 0)

     celldm(1)=   6.415315  celldm(2)=   0.000000  celldm(3)=   0.000000
     celldm(4)=   0.000000  celldm(5)=   0.000000  celldm(6)=   0.000000

     crystal axes: (cart. coord. in units of alat)
               a(1) = (   1.000000   0.000000   0.000000 )  
               a(2) = (   0.000000   1.000000   0.000000 )  
               a(3) = (   0.000000   0.000000  10.319937 )  

     reciprocal axes: (cart. coord. in units 2 pi/alat)
               b(1) = (  1.000000  0.000000  0.000000 )  
               b(2) = (  0.000000  1.000000  0.000000 )  
               b(3) = (  0.000000  0.000000  0.096900 )  


     PseudoPot. # 1 for Mn read from file:
     ./pseudo/Mn.pbe-spn-kjpaw_psl.0.3.1.UPF
     MD5 check sum: 7b43a3fb0e93e198b8dd8488d8cf503e
     Pseudo is Projector augmented-wave + core cor, Zval = 15.0
     Generated using "atomic" code by A. Dal Corso v.5.0.99 svn rev. 10869
     Shape of augmentation charge: PSQ
     Using radial grid of 1187 points,  6 beta functions with: 
                l(1) =   0
                l(2) =   0
                l(3) =   1
                l(4) =   1
                l(5) =   2
                l(6) =   2
     Q(r) pseudized with 0 coefficients 


     PseudoPot. # 2 for Mn read from file:
     ./pseudo/Mn.pbe-spn-kjpaw_psl.0.3.1.UPF
     MD5 check sum: 7b43a3fb0e93e198b8dd8488d8cf503e
     Pseudo is Projector augmented-wave + core cor, Zval = 15.0
     Generated using "atomic" code by A. Dal Corso v.5.0.99 svn rev. 10869
     Shape of augmentation charge: PSQ
     Using radial grid of 1187 points,  6 beta functions with: 
                l(1) =   0
                l(2) =   0
                l(3) =   1
                l(4) =   1
                l(5) =   2
                l(6) =   2
     Q(r) pseudized with 0 coefficients 


     PseudoPot. # 3 for Au read from file:
     ./pseudo/Au.pbe-dn-kjpaw_psl.0.1.UPF
     MD5 check sum: be11e2e8e535ebe2b3ccfb4f88f554cb
     Pseudo is Projector augmented-wave + core cor, Zval = 11.0
     Generated using "atomic" code by A. Dal Corso v.5.0.2 svn rev. 9415
     Shape of augmentation charge: PSQ
     Using radial grid of 1279 points,  6 beta functions with: 
                l(1) =   0
                l(2) =   0
                l(3) =   1
                l(4) =   1
                l(5) =   2
                l(6) =   2
     Q(r) pseudized with 0 coefficients 


     atomic species   valence    mass     pseudopotential
        Mn1           15.00    54.93800     Mn( 1.00)
        Mn2           15.00    54.93800     Mn( 1.00)
        Au            11.00   196.96600     Au( 1.00)

     Starting magnetic structure 
     atomic species   magnetization
        Mn1          0.800
        Mn2         -0.800
        Au           0.000


     Full LDA+U calculation (l_max = 2) with parameters (eV):
     U(  1) =   3.1200   J(  1) =   0.7000   B(  1) =   0.0803
     U(  2) =   3.1200   J(  2) =   0.7000   B(  2) =   0.0803



      8 Sym. Ops. (no inversion) found
          (note:  8 additional sym.ops. were found but ignored
           their fractional translations are incommensurate with FFT grid)


   Cartesian axes

     site n.     atom                  positions (alat units)
         1           Mn1 tau(   1) = (   0.0000000   0.0000000   0.0000000  )
         2           Mn1 tau(   2) = (   0.5000000   0.5000000   1.2899921  )
         3           Mn2 tau(   3) = (   0.0000000   0.0000000   2.5799843  )
         4           Mn1 tau(   4) = (   0.5000000   0.5000000   3.8699764  )
         5           Mn2 tau(   5) = (   0.0000000   0.0000000   5.1599686  )
         6           Mn2 tau(   6) = (   0.5000000   0.5000000   6.4499607  )
         7           Mn1 tau(   7) = (   0.0000000   0.0000000   7.7399528  )
         8           Mn2 tau(   8) = (   0.5000000   0.5000000   9.0299450  )
         9           Au  tau(   9) = (   0.5000000   0.5000000   0.4127975  )
        10           Au  tau(  10) = (   0.0000000   0.0000000   0.8771947  )
        11           Au  tau(  11) = (   0.0000000   0.0000000   1.7027896  )
        12           Au  tau(  12) = (   0.5000000   0.5000000   2.1671868  )
        13           Au  tau(  13) = (   0.5000000   0.5000000   2.9927818  )
        14           Au  tau(  14) = (   0.0000000   0.0000000   3.4571789  )
        15           Au  tau(  15) = (   0.0000000   0.0000000   4.2827739  )
        16           Au  tau(  16) = (   0.5000000   0.5000000   4.7471711  )
        17           Au  tau(  17) = (   0.5000000   0.5000000   5.5727660  )
        18           Au  tau(  18) = (   0.0000000   0.0000000   6.0371632  )
        19           Au  tau(  19) = (   0.0000000   0.0000000   6.8627582  )
        20           Au  tau(  20) = (   0.5000000   0.5000000   7.3271553  )
        21           Au  tau(  21) = (   0.5000000   0.5000000   8.1527503  )
        22           Au  tau(  22) = (   0.0000000   0.0000000   8.6171475  )
        23           Au  tau(  23) = (   0.0000000   0.0000000   9.4427424  )
        24           Au  tau(  24) = (   0.5000000   0.5000000   9.9071396  )

     number of k points=    30 (tetrahedron method)
                       cart. coord. in units 2pi/alat
        k(    1) = (   0.0000000   0.0000000   0.0000000), wk =   0.0078125
        k(    2) = (   0.0000000   0.0000000  -0.0484499), wk =   0.0078125
        k(    3) = (   0.0000000   0.1250000   0.0000000), wk =   0.0312500
        k(    4) = (   0.0000000   0.1250000  -0.0484499), wk =   0.0312500
        k(    5) = (   0.0000000   0.2500000   0.0000000), wk =   0.0312500
        k(    6) = (   0.0000000   0.2500000  -0.0484499), wk =   0.0312500
        k(    7) = (   0.0000000   0.3750000   0.0000000), wk =   0.0312500
        k(    8) = (   0.0000000   0.3750000  -0.0484499), wk =   0.0312500
        k(    9) = (   0.0000000  -0.5000000   0.0000000), wk =   0.0156250
        k(   10) = (   0.0000000  -0.5000000  -0.0484499), wk =   0.0156250
        k(   11) = (   0.1250000   0.1250000   0.0000000), wk =   0.0312500
        k(   12) = (   0.1250000   0.1250000  -0.0484499), wk =   0.0312500
        k(   13) = (   0.1250000   0.2500000   0.0000000), wk =   0.0625000
        k(   14) = (   0.1250000   0.2500000  -0.0484499), wk =   0.0625000
        k(   15) = (   0.1250000   0.3750000   0.0000000), wk =   0.0625000
        k(   16) = (   0.1250000   0.3750000  -0.0484499), wk =   0.0625000
        k(   17) = (   0.1250000  -0.5000000   0.0000000), wk =   0.0312500
        k(   18) = (   0.1250000  -0.5000000  -0.0484499), wk =   0.0312500
        k(   19) = (   0.2500000   0.2500000   0.0000000), wk =   0.0312500
        k(   20) = (   0.2500000   0.2500000  -0.0484499), wk =   0.0312500
        k(   21) = (   0.2500000   0.3750000   0.0000000), wk =   0.0625000
        k(   22) = (   0.2500000   0.3750000  -0.0484499), wk =   0.0625000
        k(   23) = (   0.2500000  -0.5000000   0.0000000), wk =   0.0312500
        k(   24) = (   0.2500000  -0.5000000  -0.0484499), wk =   0.0312500
        k(   25) = (   0.3750000   0.3750000   0.0000000), wk =   0.0312500
        k(   26) = (   0.3750000   0.3750000  -0.0484499), wk =   0.0312500
        k(   27) = (   0.3750000  -0.5000000   0.0000000), wk =   0.0312500
        k(   28) = (   0.3750000  -0.5000000  -0.0484499), wk =   0.0312500
        k(   29) = (  -0.5000000  -0.5000000   0.0000000), wk =   0.0078125
        k(   30) = (  -0.5000000  -0.5000000  -0.0484499), wk =   0.0078125

     Dense  grid:   368373 G-vectors     FFT dimensions: (  45,  45, 432)

     Smooth grid:   111379 G-vectors     FFT dimensions: (  27,  27, 288)

     Estimated max dynamical RAM per process >     143.50 MB

     Estimated total dynamical RAM >       4.48 GB
     Generating pointlists ...
     new r_m :   0.3377 (alat units)  2.1668 (a.u.) for type    1
     new r_m :   0.3377 (alat units)  2.1668 (a.u.) for type    2
     new r_m :   0.3377 (alat units)  2.1668 (a.u.) for type    3

     Check: negative/imaginary core charge=   -0.000006    0.000000

     Initial potential from superposition of free atoms

     starting charge  295.99426, renormalised to  296.00000
     Number of +U iterations with fixed ns =  0
     Starting occupations:
 --- enter write_ns ---
 LDA+U parameters:
U(  1) =   3.1200   J(  1) =   0.7000   B(  1) =   0.0803
U(  2) =   3.1200   J(  2) =   0.7000   B(  2) =   0.0803
atom    1   Tr[ns(na)] (up, down, total) =   5.00000  0.00000  5.00000
   spin  1
    eigenvalues: 
  1.000  1.000  1.000  1.000  1.000
    eigenvectors:
  1.000  0.000  0.000  0.000  0.000
  0.000  1.000  0.000  0.000  0.000
  0.000  0.000  1.000  0.000  0.000
  0.000  0.000  0.000  1.000  0.000
  0.000  0.000  0.000  0.000  1.000
    occupations:
  1.000  0.000  0.000  0.000  0.000
  0.000  1.000  0.000  0.000  0.000
  0.000  0.000  1.000  0.000  0.000
  0.000  0.000  0.000  1.000  0.000
  0.000  0.000  0.000  0.000  1.000
   spin  2
    eigenvalues: 
  0.000  0.000  0.000  0.000  0.000
    eigenvectors:
  1.000  0.000  0.000  0.000  0.000
  0.000  1.000  0.000  0.000  0.000
  0.000  0.000  1.000  0.000  0.000
  0.000  0.000  0.000  1.000  0.000
  0.000  0.000  0.000  0.000  1.000
    occupations:
  0.000  0.000  0.000  0.000  0.000
  0.000  0.000  0.000  0.000  0.000
  0.000  0.000  0.000  0.000  0.000
  0.000  0.000  0.000  0.000  0.000
  0.000  0.000  0.000  0.000  0.000
atomic mag. moment =     5.000000
atom    2   Tr[ns(na)] (up, down, total) =   5.00000  0.00000  5.00000
   spin  1
    eigenvalues: 
  1.000  1.000  1.000  1.000  1.000
    eigenvectors:
  1.000  0.000  0.000  0.000  0.000
  0.000  1.000  0.000  0.000  0.000
  0.000  0.000  1.000  0.000  0.000
  0.000  0.000  0.000  1.000  0.000
  0.000  0.000  0.000  0.000  1.000
    occupations:
  1.000  0.000  0.000  0.000  0.000
  0.000  1.000  0.000  0.000  0.000
  0.000  0.000  1.000  0.000  0.000
  0.000  0.000  0.000  1.000  0.000
  0.000  0.000  0.000  0.000  1.000
   spin  2
    eigenvalues: 
  0.000  0.000  0.000  0.000  0.000
    eigenvectors:
  1.000  0.000  0.000  0.000  0.000
  0.000  1.000  0.000  0.000  0.000
  0.000  0.000  1.000  0.000  0.000
  0.000  0.000  0.000  1.000  0.000
  0.000  0.000  0.000  0.000  1.000
    occupations:
  0.000  0.000  0.000  0.000  0.000
  0.000  0.000  0.000  0.000  0.000
  0.000  0.000  0.000  0.000  0.000
  0.000  0.000  0.000  0.000  0.000
  0.000  0.000  0.000  0.000  0.000
atomic mag. moment =     5.000000
atom    3   Tr[ns(na)] (up, down, total) =   0.00000  5.00000  5.00000
   spin  1
    eigenvalues: 
  0.000  0.000  0.000  0.000  0.000
    eigenvectors:
  1.000  0.000  0.000  0.000  0.000
  0.000  1.000  0.000  0.000  0.000
  0.000  0.000  1.000  0.000  0.000
  0.000  0.000  0.000  1.000  0.000
  0.000  0.000  0.000  0.000  1.000
    occupations:
  0.000  0.000  0.000  0.000  0.000
  0.000  0.000  0.000  0.000  0.000
  0.000  0.000  0.000  0.000  0.000
  0.000  0.000  0.000  0.000  0.000
  0.000  0.000  0.000  0.000  0.000
   spin  2
    eigenvalues: 
  1.000  1.000  1.000  1.000  1.000
    eigenvectors:
  1.000  0.000  0.000  0.000  0.000
  0.000  1.000  0.000  0.000  0.000
  0.000  0.000  1.000  0.000  0.000
  0.000  0.000  0.000  1.000  0.000
  0.000  0.000  0.000  0.000  1.000
    occupations:
  1.000  0.000  0.000  0.000  0.000
  0.000  1.000  0.000  0.000  0.000
  0.000  0.000  1.000  0.000  0.000
  0.000  0.000  0.000  1.000  0.000
  0.000  0.000  0.000  0.000  1.000
atomic mag. moment =    -5.000000
atom    4   Tr[ns(na)] (up, down, total) =   5.00000  0.00000  5.00000
   spin  1
    eigenvalues: 
  1.000  1.000  1.000  1.000  1.000
    eigenvectors:
  1.000  0.000  0.000  0.000  0.000
  0.000  1.000  0.000  0.000  0.000
  0.000  0.000  1.000  0.000  0.000
  0.000  0.000  0.000  1.000  0.000
  0.000  0.000  0.000  0.000  1.000
    occupations:
  1.000  0.000  0.000  0.000  0.000
  0.000  1.000  0.000  0.000  0.000
  0.000  0.000  1.000  0.000  0.000
  0.000  0.000  0.000  1.000  0.000
  0.000  0.000  0.000  0.000  1.000
   spin  2
    eigenvalues: 
  0.000  0.000  0.000  0.000  0.000
    eigenvectors:
  1.000  0.000  0.000  0.000  0.000
  0.000  1.000  0.000  0.000  0.000
  0.000  0.000  1.000  0.000  0.000
  0.000  0.000  0.000  1.000  0.000
  0.000  0.000  0.000  0.000  1.000
    occupations:
  0.000  0.000  0.000  0.000  0.000
  0.000  0.000  0.000  0.000  0.000
  0.000  0.000  0.000  0.000  0.000
  0.000  0.000  0.000  0.000  0.000
  0.000  0.000  0.000  0.000  0.000
atomic mag. moment =     5.000000
atom    5   Tr[ns(na)] (up, down, total) =   0.00000  5.00000  5.00000
   spin  1
    eigenvalues: 
  0.000  0.000  0.000  0.000  0.000
    eigenvectors:
  1.000  0.000  0.000  0.000  0.000
  0.000  1.000  0.000  0.000  0.000
  0.000  0.000  1.000  0.000  0.000
  0.000  0.000  0.000  1.000  0.000
  0.000  0.000  0.000  0.000  1.000
    occupations:
  0.000  0.000  0.000  0.000  0.000
  0.000  0.000  0.000  0.000  0.000
  0.000  0.000  0.000  0.000  0.000
  0.000  0.000  0.000  0.000  0.000
  0.000  0.000  0.000  0.000  0.000
   spin  2
    eigenvalues: 
  1.000  1.000  1.000  1.000  1.000
    eigenvectors:
  1.000  0.000  0.000  0.000  0.000
  0.000  1.000  0.000  0.000  0.000
  0.000  0.000  1.000  0.000  0.000
  0.000  0.000  0.000  1.000  0.000
  0.000  0.000  0.000  0.000  1.000
    occupations:
  1.000  0.000  0.000  0.000  0.000
  0.000  1.000  0.000  0.000  0.000
  0.000  0.000  1.000  0.000  0.000
  0.000  0.000  0.000  1.000  0.000
  0.000  0.000  0.000  0.000  1.000
atomic mag. moment =    -5.000000
atom    6   Tr[ns(na)] (up, down, total) =   0.00000  5.00000  5.00000
   spin  1
    eigenvalues: 
  0.000  0.000  0.000  0.000  0.000
    eigenvectors:
  1.000  0.000  0.000  0.000  0.000
  0.000  1.000  0.000  0.000  0.000
  0.000  0.000  1.000  0.000  0.000
  0.000  0.000  0.000  1.000  0.000
  0.000  0.000  0.000  0.000  1.000
    occupations:
  0.000  0.000  0.000  0.000  0.000
  0.000  0.000  0.000  0.000  0.000
  0.000  0.000  0.000  0.000  0.000
  0.000  0.000  0.000  0.000  0.000
  0.000  0.000  0.000  0.000  0.000
   spin  2
    eigenvalues: 
  1.000  1.000  1.000  1.000  1.000
    eigenvectors:
  1.000  0.000  0.000  0.000  0.000
  0.000  1.000  0.000  0.000  0.000
  0.000  0.000  1.000  0.000  0.000
  0.000  0.000  0.000  1.000  0.000
  0.000  0.000  0.000  0.000  1.000
    occupations:
  1.000  0.000  0.000  0.000  0.000
  0.000  1.000  0.000  0.000  0.000
  0.000  0.000  1.000  0.000  0.000
  0.000  0.000  0.000  1.000  0.000
  0.000  0.000  0.000  0.000  1.000
atomic mag. moment =    -5.000000
atom    7   Tr[ns(na)] (up, down, total) =   5.00000  0.00000  5.00000
   spin  1
    eigenvalues: 
  1.000  1.000  1.000  1.000  1.000
    eigenvectors:
  1.000  0.000  0.000  0.000  0.000
  0.000  1.000  0.000  0.000  0.000
  0.000  0.000  1.000  0.000  0.000
  0.000  0.000  0.000  1.000  0.000
  0.000  0.000  0.000  0.000  1.000
    occupations:
  1.000  0.000  0.000  0.000  0.000
  0.000  1.000  0.000  0.000  0.000
  0.000  0.000  1.000  0.000  0.000
  0.000  0.000  0.000  1.000  0.000
  0.000  0.000  0.000  0.000  1.000
   spin  2
    eigenvalues: 
  0.000  0.000  0.000  0.000  0.000
    eigenvectors:
  1.000  0.000  0.000  0.000  0.000
  0.000  1.000  0.000  0.000  0.000
  0.000  0.000  1.000  0.000  0.000
  0.000  0.000  0.000  1.000  0.000
  0.000  0.000  0.000  0.000  1.000
    occupations:
  0.000  0.000  0.000  0.000  0.000
  0.000  0.000  0.000  0.000  0.000
  0.000  0.000  0.000  0.000  0.000
  0.000  0.000  0.000  0.000  0.000
  0.000  0.000  0.000  0.000  0.000
atomic mag. moment =     5.000000
atom    8   Tr[ns(na)] (up, down, total) =   0.00000  5.00000  5.00000
   spin  1
    eigenvalues: 
  0.000  0.000  0.000  0.000  0.000
    eigenvectors:
  1.000  0.000  0.000  0.000  0.000
  0.000  1.000  0.000  0.000  0.000
  0.000  0.000  1.000  0.000  0.000
  0.000  0.000  0.000  1.000  0.000
  0.000  0.000  0.000  0.000  1.000
    occupations:
  0.000  0.000  0.000  0.000  0.000
  0.000  0.000  0.000  0.000  0.000
  0.000  0.000  0.000  0.000  0.000
  0.000  0.000  0.000  0.000  0.000
  0.000  0.000  0.000  0.000  0.000
   spin  2
    eigenvalues: 
  1.000  1.000  1.000  1.000  1.000
    eigenvectors:
  1.000  0.000  0.000  0.000  0.000
  0.000  1.000  0.000  0.000  0.000
  0.000  0.000  1.000  0.000  0.000
  0.000  0.000  0.000  1.000  0.000
  0.000  0.000  0.000  0.000  1.000
    occupations:
  1.000  0.000  0.000  0.000  0.000
  0.000  1.000  0.000  0.000  0.000
  0.000  0.000  1.000  0.000  0.000
  0.000  0.000  0.000  1.000  0.000
  0.000  0.000  0.000  0.000  1.000
atomic mag. moment =    -5.000000
N of occupied +U levels =   40.000000
 --- exit write_ns ---
 Atomic wfc used for LDA+U Projector are NOT orthogonalized
     Starting wfcs are  224 randomized atomic wfcs
     Checking if some PAW data can be deallocated... 

     total cpu time spent up to now is       17.4 secs

     Self-consistent Calculation

     iteration #  1     ecut=    45.00 Ry     beta= 0.10
     Davidson diagonalization with overlap
     ethr =  1.00E-02,  avg # of iterations =  3.9
 --- enter write_ns ---
 LDA+U parameters:
U(  1) =   3.1200   J(  1) =   0.7000   B(  1) =   0.0803
U(  2) =   3.1200   J(  2) =   0.7000   B(  2) =   0.0803
atom    1   Tr[ns(na)] (up, down, total) =   5.01743  0.40812  5.42555
   spin  1
    eigenvalues: 
  1.003  1.003  1.003  1.004  1.004
    eigenvectors:
  0.000  0.000  0.000  1.000  0.000
  0.000  0.113  0.887  0.000  0.000
  0.000  0.887  0.113  0.000  0.000
  0.000  0.000  0.000  0.000  1.000
  1.000  0.000  0.000  0.000  0.000
    occupations:
  1.004 -0.000 -0.000  0.000  0.000
 -0.000  1.003 -0.000  0.000  0.000
 -0.000 -0.000  1.003  0.000  0.000
  0.000  0.000  0.000  1.004 -0.000
  0.000  0.000  0.000 -0.000  1.003
   spin  2
    eigenvalues: 
  0.053  0.073  0.082  0.082  0.119
    eigenvectors:
  0.000  1.000  0.000  0.000  0.000
  0.000  0.000  0.162  0.838  0.000
  0.000  0.000  0.838  0.162  0.000
  1.000  0.000  0.000  0.000  0.000
  0.000  0.000  0.000  0.000  1.000
    occupations:
  0.073 -0.000 -0.000  0.000  0.000
 -0.000  0.082 -0.000  0.000  0.000
 -0.000 -0.000  0.082  0.000  0.000
  0.000  0.000  0.000  0.053 -0.000
  0.000  0.000  0.000 -0.000  0.119
atomic mag. moment =     4.609309
atom    2   Tr[ns(na)] (up, down, total) =   5.01749  0.40844  5.42593
   spin  1
    eigenvalues: 
  1.003  1.003  1.003  1.004  1.004
    eigenvectors:
  0.000  0.000  0.000  1.000  0.000
  0.000  0.109  0.891  0.000  0.000
  0.000  0.891  0.109  0.000  0.000
  0.000  0.000  0.000  0.000  1.000
  1.000  0.000  0.000  0.000  0.000
    occupations:
  1.004 -0.000 -0.000  0.000  0.000
 -0.000  1.003 -0.000  0.000  0.000
 -0.000 -0.000  1.003  0.000  0.000
  0.000  0.000  0.000  1.004 -0.000
  0.000  0.000  0.000 -0.000  1.003
   spin  2
    eigenvalues: 
  0.053  0.073  0.082  0.082  0.119
    eigenvectors:
  0.000  1.000  0.000  0.000  0.000
  0.000  0.000  0.149  0.851  0.000
  0.000  0.000  0.851  0.149  0.000
  1.000  0.000  0.000  0.000  0.000
  0.000  0.000  0.000  0.000  1.000
    occupations:
  0.073 -0.000 -0.000  0.000  0.000
 -0.000  0.082 -0.000  0.000  0.000
 -0.000 -0.000  0.082  0.000  0.000
  0.000  0.000  0.000  0.053 -0.000
  0.000  0.000  0.000 -0.000  0.119
atomic mag. moment =     4.609054
atom    3   Tr[ns(na)] (up, down, total) =   0.41075  5.01734  5.42809
   spin  1
    eigenvalues: 
  0.053  0.073  0.080  0.080  0.124
    eigenvectors:
  0.000  1.000  0.000  0.000  0.000
  0.000  0.000  0.147  0.853  0.000
  0.000  0.000  0.853  0.147  0.000
  1.000  0.000  0.000  0.000  0.000
  0.000  0.000  0.000  0.000  1.000
    occupations:
  0.073 -0.000 -0.000  0.000  0.000
 -0.000  0.080 -0.000  0.000  0.000
 -0.000 -0.000  0.080  0.000  0.000
  0.000  0.000  0.000  0.053 -0.000
  0.000  0.000  0.000 -0.000  0.124
   spin  2
    eigenvalues: 
  1.003  1.003  1.003  1.004  1.004
    eigenvectors:
  0.000  0.000  0.000  1.000  0.000
  0.000  0.137  0.863  0.000  0.000
  0.000  0.863  0.137  0.000  0.000
  0.000  0.000  0.000  0.000  1.000
  1.000  0.000  0.000  0.000  0.000
    occupations:
  1.004 -0.000 -0.000  0.000  0.000
 -0.000  1.003 -0.000  0.000  0.000
 -0.000 -0.000  1.003  0.000  0.000
  0.000  0.000  0.000  1.004 -0.000
  0.000  0.000  0.000 -0.000  1.003
atomic mag. moment =    -4.606591
atom    4   Tr[ns(na)] (up, down, total) =   5.01723  0.41069  5.42792
   spin  1
    eigenvalues: 
  1.003  1.003  1.003  1.004  1.004
    eigenvectors:
  0.000  0.000  0.000  1.000  0.000
  0.000  0.170  0.830  0.000  0.000
  0.000  0.830  0.170  0.000  0.000
  0.000  0.000  0.000  0.000  1.000
  1.000  0.000  0.000  0.000  0.000
    occupations:
  1.004 -0.000 -0.000  0.000  0.000
 -0.000  1.003 -0.000  0.000  0.000
 -0.000 -0.000  1.003  0.000  0.000
  0.000  0.000  0.000  1.004 -0.000
  0.000  0.000  0.000 -0.000  1.003
   spin  2
    eigenvalues: 
  0.053  0.073  0.080  0.080  0.125
    eigenvectors:
  0.000  1.000  0.000  0.000  0.000
  0.000  0.000  0.094  0.906  0.000
  0.000  0.000  0.906  0.094  0.000
  1.000  0.000  0.000  0.000  0.000
  0.000  0.000  0.000  0.000  1.000
    occupations:
  0.073 -0.000 -0.000  0.000  0.000
 -0.000  0.080 -0.000  0.000  0.000
 -0.000 -0.000  0.080  0.000  0.000
  0.000  0.000  0.000  0.053 -0.000
  0.000  0.000  0.000 -0.000  0.125
atomic mag. moment =     4.606538
atom    5   Tr[ns(na)] (up, down, total) =   0.40952  5.01750  5.42702
   spin  1
    eigenvalues: 
  0.053  0.074  0.082  0.082  0.120
    eigenvectors:
  0.000  1.000  0.000  0.000  0.000
  0.000  0.000  0.165  0.835  0.000
  0.000  0.000  0.835  0.165  0.000
  1.000  0.000  0.000  0.000  0.000
  0.000  0.000  0.000  0.000  1.000
    occupations:
  0.074 -0.000 -0.000  0.000  0.000
 -0.000  0.082 -0.000  0.000  0.000
 -0.000 -0.000  0.082  0.000  0.000
  0.000  0.000  0.000  0.053 -0.000
  0.000  0.000  0.000 -0.000  0.120
   spin  2
    eigenvalues: 
  1.003  1.003  1.003  1.004  1.004
    eigenvectors:
  0.000  0.000  0.000  1.000  0.000
  0.000  0.150  0.850  0.000  0.000
  0.000  0.850  0.150  0.000  0.000
  0.000  0.000  0.000  0.000  1.000
  1.000  0.000  0.000  0.000  0.000
    occupations:
  1.004 -0.000 -0.000  0.000  0.000
 -0.000  1.003 -0.000  0.000  0.000
 -0.000 -0.000  1.003  0.000  0.000
  0.000  0.000  0.000  1.004 -0.000
  0.000  0.000  0.000 -0.000  1.003
atomic mag. moment =    -4.607981
atom    6   Tr[ns(na)] (up, down, total) =   0.40822  5.01759  5.42581
   spin  1
    eigenvalues: 
  0.053  0.073  0.082  0.082  0.119
    eigenvectors:
  0.000  1.000  0.000  0.000  0.000
  0.000  0.000  0.101  0.899  0.000
  0.000  0.000  0.899  0.101  0.000
  1.000  0.000  0.000  0.000  0.000
  0.000  0.000  0.000  0.000  1.000
    occupations:
  0.073 -0.000 -0.000  0.000  0.000
 -0.000  0.082 -0.000  0.000  0.000
 -0.000 -0.000  0.082  0.000  0.000
  0.000  0.000  0.000  0.053 -0.000
  0.000  0.000  0.000 -0.000  0.119
   spin  2
    eigenvalues: 
  1.003  1.003  1.003  1.004  1.004
    eigenvectors:
  0.000  0.000  0.000  1.000  0.000
  0.000  0.123  0.877  0.000  0.000
  0.000  0.877  0.123  0.000  0.000
  0.000  0.000  0.000  0.000  1.000
  1.000  0.000  0.000  0.000  0.000
    occupations:
  1.004 -0.000 -0.000  0.000  0.000
 -0.000  1.003 -0.000  0.000  0.000
 -0.000 -0.000  1.003  0.000  0.000
  0.000  0.000  0.000  1.004 -0.000
  0.000  0.000  0.000 -0.000  1.003
atomic mag. moment =    -4.609371
atom    7   Tr[ns(na)] (up, down, total) =   5.01734  0.41040  5.42774
   spin  1
    eigenvalues: 
  1.003  1.003  1.003  1.004  1.004
    eigenvectors:
  0.000  0.000  0.000  1.000  0.000
  0.000  0.149  0.851  0.000  0.000
  0.000  0.851  0.149  0.000  0.000
  0.000  0.000  0.000  0.000  1.000
  1.000  0.000  0.000  0.000  0.000
    occupations:
  1.004 -0.000 -0.000  0.000  0.000
 -0.000  1.003 -0.000  0.000  0.000
 -0.000 -0.000  1.003  0.000  0.000
  0.000  0.000  0.000  1.004 -0.000
  0.000  0.000  0.000 -0.000  1.003
   spin  2
    eigenvalues: 
  0.053  0.073  0.080  0.080  0.124
    eigenvectors:
  0.000  1.000  0.000  0.000  0.000
  0.000  0.000  0.133  0.867  0.000
  0.000  0.000  0.867  0.133  0.000
  1.000  0.000  0.000  0.000  0.000
  0.000  0.000  0.000  0.000  1.000
    occupations:
  0.073 -0.000 -0.000  0.000  0.000
 -0.000  0.080 -0.000  0.000  0.000
 -0.000 -0.000  0.080  0.000  0.000
  0.000  0.000  0.000  0.053 -0.000
  0.000  0.000  0.000 -0.000  0.124
atomic mag. moment =     4.606939
atom    8   Tr[ns(na)] (up, down, total) =   0.41101  5.01729  5.42830
   spin  1
    eigenvalues: 
  0.053  0.073  0.080  0.080  0.124
    eigenvectors:
  0.000  1.000  0.000  0.000  0.000
  0.000  0.000  0.113  0.887  0.000
  0.000  0.000  0.887  0.113  0.000
  1.000  0.000  0.000  0.000  0.000
  0.000  0.000  0.000  0.000  1.000
    occupations:
  0.073 -0.000 -0.000  0.000  0.000
 -0.000  0.080 -0.000  0.000  0.000
 -0.000 -0.000  0.080  0.000  0.000
  0.000  0.000  0.000  0.053 -0.000
  0.000  0.000  0.000 -0.000  0.124
   spin  2
    eigenvalues: 
  1.003  1.003  1.003  1.004  1.004
    eigenvectors:
  0.000  0.000  0.000  1.000  0.000
  0.000  0.112  0.888  0.000  0.000
  0.000  0.888  0.112  0.000  0.000
  0.000  0.000  0.000  0.000  1.000
  1.000  0.000  0.000  0.000  0.000
    occupations:
  1.004 -0.000 -0.000  0.000  0.000
 -0.000  1.003 -0.000  0.000  0.000
 -0.000 -0.000  1.003  0.000  0.000
  0.000  0.000  0.000  1.004 -0.000
  0.000  0.000  0.000 -0.000  1.003
atomic mag. moment =    -4.606284
N of occupied +U levels =   43.416358
 --- exit write_ns ---

     total cpu time spent up to now is       60.3 secs

     total energy              =  -14687.28233935 Ry
     Harris-Foulkes estimate   =  -14685.82300914 Ry
     estimated scf accuracy    <      11.56777000 Ry

     total magnetization       =     0.00 Bohr mag/cell
     absolute magnetization    =    41.59 Bohr mag/cell

     iteration #  2     ecut=    45.00 Ry     beta= 0.10
     Davidson diagonalization with overlap
     ethr =  3.91E-03,  avg # of iterations =  1.0

     total cpu time spent up to now is       85.0 secs

     total energy              =  -14692.50891019 Ry
     Harris-Foulkes estimate   =  -14687.35540168 Ry
     estimated scf accuracy    <       9.31655981 Ry

     total magnetization       =    -0.01 Bohr mag/cell
     absolute magnetization    =    41.28 Bohr mag/cell

     iteration #  3     ecut=    45.00 Ry     beta= 0.10
     Davidson diagonalization with overlap
     ethr =  3.15E-03,  avg # of iterations =  3.3

     total cpu time spent up to now is      123.0 secs

     total energy              =  -14693.46949931 Ry
     Harris-Foulkes estimate   =  -14694.23634438 Ry
     estimated scf accuracy    <      56.76002685 Ry

     total magnetization       =    -0.04 Bohr mag/cell
     absolute magnetization    =    38.55 Bohr mag/cell

     iteration #  4     ecut=    45.00 Ry     beta= 0.10
     Davidson diagonalization with overlap
     ethr =  3.15E-03,  avg # of iterations =  2.0

     total cpu time spent up to now is      151.0 secs

     total energy              =  -14694.77992781 Ry
     Harris-Foulkes estimate   =  -14693.98866789 Ry
     estimated scf accuracy    <       3.41871161 Ry

     total magnetization       =     0.02 Bohr mag/cell
     absolute magnetization    =    38.76 Bohr mag/cell

     iteration #  5     ecut=    45.00 Ry     beta= 0.10
     Davidson diagonalization with overlap
     ethr =  1.15E-03,  avg # of iterations =  2.6

     total cpu time spent up to now is      181.7 secs

     total energy              =  -14693.94375165 Ry
     Harris-Foulkes estimate   =  -14694.91340139 Ry
     estimated scf accuracy    <       7.06656985 Ry

     total magnetization       =    -0.03 Bohr mag/cell
     absolute magnetization    =    37.94 Bohr mag/cell

     iteration #  6     ecut=    45.00 Ry     beta= 0.10
     Davidson diagonalization with overlap
     ethr =  1.15E-03,  avg # of iterations =  3.5

     total cpu time spent up to now is      215.8 secs

     total energy              =  -14692.91768410 Ry
     Harris-Foulkes estimate   =  -14694.22530868 Ry
     estimated scf accuracy    <      20.64308189 Ry

     total magnetization       =    -0.04 Bohr mag/cell
     absolute magnetization    =    38.51 Bohr mag/cell

     iteration #  7     ecut=    45.00 Ry     beta= 0.10
     Davidson diagonalization with overlap
     ethr =  1.15E-03,  avg # of iterations =  4.1

     total cpu time spent up to now is      269.0 secs

     total energy              =  -14693.82113114 Ry
     Harris-Foulkes estimate   =  -14693.90700892 Ry
     estimated scf accuracy    <       3.77405840 Ry

     total magnetization       =     0.19 Bohr mag/cell
     absolute magnetization    =    37.91 Bohr mag/cell

     iteration #  8     ecut=    45.00 Ry     beta= 0.10
     Davidson diagonalization with overlap
     ethr =  1.15E-03,  avg # of iterations =  1.1

     total cpu time spent up to now is      293.8 secs

     total energy              =  -14693.98569766 Ry
     Harris-Foulkes estimate   =  -14693.96927757 Ry
     estimated scf accuracy    <       0.10209391 Ry

     total magnetization       =    -0.01 Bohr mag/cell
     absolute magnetization    =    37.88 Bohr mag/cell

     iteration #  9     ecut=    45.00 Ry     beta= 0.10
     Davidson diagonalization with overlap
     ethr =  3.45E-05,  avg # of iterations =  5.6

     total cpu time spent up to now is      351.4 secs

     total energy              =  -14694.01544014 Ry
     Harris-Foulkes estimate   =  -14694.00816433 Ry
     estimated scf accuracy    <       0.20356502 Ry

     total magnetization       =     0.01 Bohr mag/cell
     absolute magnetization    =    37.44 Bohr mag/cell

     iteration # 10     ecut=    45.00 Ry     beta= 0.10
     Davidson diagonalization with overlap
     ethr =  3.45E-05,  avg # of iterations =  1.0

     total cpu time spent up to now is      376.1 secs

     total energy              =  -14693.95463428 Ry
     Harris-Foulkes estimate   =  -14694.01871393 Ry
     estimated scf accuracy    <       0.22954814 Ry

     total magnetization       =     0.01 Bohr mag/cell
     absolute magnetization    =    37.29 Bohr mag/cell

     iteration # 11     ecut=    45.00 Ry     beta= 0.10
     Davidson diagonalization with overlap
     ethr =  3.45E-05,  avg # of iterations =  3.5

     total cpu time spent up to now is      424.4 secs

     total energy              =  -14693.99164805 Ry
     Harris-Foulkes estimate   =  -14693.99534903 Ry
     estimated scf accuracy    <       0.03318933 Ry

     total magnetization       =     0.01 Bohr mag/cell
     absolute magnetization    =    37.46 Bohr mag/cell

     iteration # 12     ecut=    45.00 Ry     beta= 0.10
     Davidson diagonalization with overlap
     ethr =  1.12E-05,  avg # of iterations =  2.1

     total cpu time spent up to now is      454.1 secs

     total energy              =  -14693.99622067 Ry
     Harris-Foulkes estimate   =  -14693.99547949 Ry
     estimated scf accuracy    <       0.01188955 Ry

     total magnetization       =    -0.00 Bohr mag/cell
     absolute magnetization    =    37.46 Bohr mag/cell

     iteration # 13     ecut=    45.00 Ry     beta= 0.10
     Davidson diagonalization with overlap
     c_bands:  4 eigenvalues not converged
     ethr =  4.02E-06,  avg # of iterations =  1.6

     total cpu time spent up to now is      481.5 secs

     total energy              =  -14693.99676204 Ry
     Harris-Foulkes estimate   =  -14693.99661293 Ry
     estimated scf accuracy    <       0.01720567 Ry

     total magnetization       =     0.01 Bohr mag/cell
     absolute magnetization    =    37.46 Bohr mag/cell

     iteration # 14     ecut=    45.00 Ry     beta= 0.10
     Davidson diagonalization with overlap
     ethr =  4.02E-06,  avg # of iterations =  1.0

     total cpu time spent up to now is      506.2 secs

     total energy              =  -14693.99791715 Ry
     Harris-Foulkes estimate   =  -14693.99698188 Ry
     estimated scf accuracy    <       0.00974628 Ry

     total magnetization       =    -0.00 Bohr mag/cell
     absolute magnetization    =    37.46 Bohr mag/cell

     iteration # 15     ecut=    45.00 Ry     beta= 0.10
     Davidson diagonalization with overlap
     ethr =  3.29E-06,  avg # of iterations =  1.4

     total cpu time spent up to now is      532.2 secs

     total energy              =  -14693.99878410 Ry
     Harris-Foulkes estimate   =  -14693.99836760 Ry
     estimated scf accuracy    <       0.00216505 Ry

     total magnetization       =    -0.00 Bohr mag/cell
     absolute magnetization    =    37.43 Bohr mag/cell

     iteration # 16     ecut=    45.00 Ry     beta= 0.10
     Davidson diagonalization with overlap
     ethr =  7.31E-07,  avg # of iterations =  2.5

     total cpu time spent up to now is      564.2 secs

     total energy              =  -14693.99898873 Ry
     Harris-Foulkes estimate   =  -14693.99897948 Ry
     estimated scf accuracy    <       0.00063920 Ry

     total magnetization       =    -0.00 Bohr mag/cell
     absolute magnetization    =    37.40 Bohr mag/cell

     iteration # 17     ecut=    45.00 Ry     beta= 0.10
     Davidson diagonalization with overlap
     ethr =  2.16E-07,  avg # of iterations =  3.1

     total cpu time spent up to now is      596.9 secs

     total energy              =  -14693.99906174 Ry
     Harris-Foulkes estimate   =  -14693.99901484 Ry
     estimated scf accuracy    <       0.00033380 Ry

     total magnetization       =     0.00 Bohr mag/cell
     absolute magnetization    =    37.39 Bohr mag/cell

     iteration # 18     ecut=    45.00 Ry     beta= 0.10
     Davidson diagonalization with overlap
     ethr =  1.13E-07,  avg # of iterations =  1.6

     total cpu time spent up to now is      623.7 secs

     total energy              =  -14693.99911487 Ry
     Harris-Foulkes estimate   =  -14693.99907119 Ry
     estimated scf accuracy    <       0.00025690 Ry

     total magnetization       =    -0.00 Bohr mag/cell
     absolute magnetization    =    37.39 Bohr mag/cell

     iteration # 19     ecut=    45.00 Ry     beta= 0.10
     Davidson diagonalization with overlap
     ethr =  8.68E-08,  avg # of iterations =  1.2

     total cpu time spent up to now is      649.1 secs

     total energy              =  -14693.99914188 Ry
     Harris-Foulkes estimate   =  -14693.99911637 Ry
     estimated scf accuracy    <       0.00020339 Ry

     total magnetization       =     0.00 Bohr mag/cell
     absolute magnetization    =    37.39 Bohr mag/cell

     iteration # 20     ecut=    45.00 Ry     beta= 0.10
     Davidson diagonalization with overlap
     ethr =  6.87E-08,  avg # of iterations =  1.1

     total cpu time spent up to now is      674.2 secs

     total energy              =  -14693.99919248 Ry
     Harris-Foulkes estimate   =  -14693.99916779 Ry
     estimated scf accuracy    <       0.00015526 Ry

     total magnetization       =     0.00 Bohr mag/cell
     absolute magnetization    =    37.39 Bohr mag/cell

     iteration # 21     ecut=    45.00 Ry     beta= 0.10
     Davidson diagonalization with overlap
     ethr =  5.25E-08,  avg # of iterations =  1.0

     total cpu time spent up to now is      698.9 secs

     total energy              =  -14693.99919295 Ry
     Harris-Foulkes estimate   =  -14693.99918297 Ry
     estimated scf accuracy    <       0.00006505 Ry

     total magnetization       =     0.00 Bohr mag/cell
     absolute magnetization    =    37.38 Bohr mag/cell

     iteration # 22     ecut=    45.00 Ry     beta= 0.10
     Davidson diagonalization with overlap
     ethr =  2.20E-08,  avg # of iterations =  1.7

     total cpu time spent up to now is      726.2 secs

     total energy              =  -14693.99920399 Ry
     Harris-Foulkes estimate   =  -14693.99919855 Ry
     estimated scf accuracy    <       0.00002070 Ry

     total magnetization       =    -0.00 Bohr mag/cell
     absolute magnetization    =    37.38 Bohr mag/cell

     iteration # 23     ecut=    45.00 Ry     beta= 0.10
     Davidson diagonalization with overlap
     ethr =  6.99E-09,  avg # of iterations =  2.5

     total cpu time spent up to now is      759.5 secs

     total energy              =  -14693.99920436 Ry
     Harris-Foulkes estimate   =  -14693.99920422 Ry
     estimated scf accuracy    <       0.00013082 Ry

     total magnetization       =    -0.00 Bohr mag/cell
     absolute magnetization    =    37.38 Bohr mag/cell

     iteration # 24     ecut=    45.00 Ry     beta= 0.10
     Davidson diagonalization with overlap
     ethr =  6.99E-09,  avg # of iterations =  1.0

     total cpu time spent up to now is      784.3 secs

     total energy              =  -14693.99920876 Ry
     Harris-Foulkes estimate   =  -14693.99920752 Ry
     estimated scf accuracy    <       0.00001960 Ry

     total magnetization       =     0.00 Bohr mag/cell
     absolute magnetization    =    37.38 Bohr mag/cell

     iteration # 25     ecut=    45.00 Ry     beta= 0.10
     Davidson diagonalization with overlap
     ethr =  6.62E-09,  avg # of iterations =  1.0

     total cpu time spent up to now is      808.9 secs

     total energy              =  -14693.99920860 Ry
     Harris-Foulkes estimate   =  -14693.99920770 Ry
     estimated scf accuracy    <       0.00002081 Ry

     total magnetization       =    -0.00 Bohr mag/cell
     absolute magnetization    =    37.38 Bohr mag/cell

     iteration # 26     ecut=    45.00 Ry     beta= 0.10
     Davidson diagonalization with overlap
     ethr =  6.62E-09,  avg # of iterations =  1.0

     total cpu time spent up to now is      833.5 secs

     total energy              =  -14693.99921151 Ry
     Harris-Foulkes estimate   =  -14693.99921013 Ry
     estimated scf accuracy    <       0.00000720 Ry

     total magnetization       =    -0.00 Bohr mag/cell
     absolute magnetization    =    37.38 Bohr mag/cell

     iteration # 27     ecut=    45.00 Ry     beta= 0.10
     Davidson diagonalization with overlap
     ethr =  2.43E-09,  avg # of iterations =  1.1

     total cpu time spent up to now is      858.6 secs

     total energy              =  -14693.99921287 Ry
     Harris-Foulkes estimate   =  -14693.99921173 Ry
     estimated scf accuracy    <       0.00000567 Ry

     total magnetization       =    -0.00 Bohr mag/cell
     absolute magnetization    =    37.38 Bohr mag/cell

     iteration # 28     ecut=    45.00 Ry     beta= 0.10
     Davidson diagonalization with overlap
     ethr =  1.91E-09,  avg # of iterations =  1.2

     total cpu time spent up to now is      884.1 secs

     total energy              =  -14693.99921374 Ry
     Harris-Foulkes estimate   =  -14693.99921304 Ry
     estimated scf accuracy    <       0.00001169 Ry

     total magnetization       =    -0.00 Bohr mag/cell
     absolute magnetization    =    37.38 Bohr mag/cell

     iteration # 29     ecut=    45.00 Ry     beta= 0.10
     Davidson diagonalization with overlap
     ethr =  1.91E-09,  avg # of iterations =  1.0

     total cpu time spent up to now is      908.6 secs

     total energy              =  -14693.99921392 Ry
     Harris-Foulkes estimate   =  -14693.99921335 Ry
     estimated scf accuracy    <       0.00000389 Ry

     total magnetization       =    -0.00 Bohr mag/cell
     absolute magnetization    =    37.38 Bohr mag/cell

     iteration # 30     ecut=    45.00 Ry     beta= 0.10
     Davidson diagonalization with overlap
     ethr =  1.32E-09,  avg # of iterations =  1.0

     total cpu time spent up to now is      933.2 secs

     total energy              =  -14693.99921494 Ry
     Harris-Foulkes estimate   =  -14693.99921450 Ry
     estimated scf accuracy    <       0.00000859 Ry

     total magnetization       =    -0.00 Bohr mag/cell
     absolute magnetization    =    37.38 Bohr mag/cell

     iteration # 31     ecut=    45.00 Ry     beta= 0.10
     Davidson diagonalization with overlap
     ethr =  1.32E-09,  avg # of iterations =  1.2
 
     Magnetic moment per site:
     atom:    1    charge:   13.5454    magn:    4.2489    constr:    0.0000
     atom:    2    charge:   13.5455    magn:    4.2489    constr:    0.0000
     atom:    3    charge:   13.5445    magn:   -4.2577    constr:    0.0000
     atom:    4    charge:   13.5447    magn:    4.2578    constr:    0.0000
     atom:    5    charge:   13.5454    magn:   -4.2489    constr:    0.0000
     atom:    6    charge:   13.5455    magn:   -4.2490    constr:    0.0000
     atom:    7    charge:   13.5445    magn:    4.2578    constr:    0.0000
     atom:    8    charge:   13.5446    magn:   -4.2578    constr:    0.0000
     atom:    9    charge:    9.1241    magn:    0.0384    constr:    0.0000
     atom:   10    charge:    9.1242    magn:    0.0384    constr:    0.0000
     atom:   11    charge:    9.1247    magn:    0.0422    constr:    0.0000
     atom:   12    charge:    9.1231    magn:   -0.0392    constr:    0.0000
     atom:   13    charge:    9.1242    magn:   -0.0396    constr:    0.0000
     atom:   14    charge:    9.1243    magn:    0.0396    constr:    0.0000
     atom:   15    charge:    9.1232    magn:    0.0392    constr:    0.0000
     atom:   16    charge:    9.1246    magn:   -0.0422    constr:    0.0000
     atom:   17    charge:    9.1241    magn:   -0.0384    constr:    0.0000
     atom:   18    charge:    9.1242    magn:   -0.0384    constr:    0.0000
     atom:   19    charge:    9.1247    magn:   -0.0422    constr:    0.0000
     atom:   20    charge:    9.1232    magn:    0.0395    constr:    0.0000
     atom:   21    charge:    9.1242    magn:    0.0399    constr:    0.0000
     atom:   22    charge:    9.1243    magn:   -0.0399    constr:    0.0000
     atom:   23    charge:    9.1233    magn:   -0.0395    constr:    0.0000
     atom:   24    charge:    9.1246    magn:    0.0422    constr:    0.0000

     total cpu time spent up to now is      958.6 secs

     End of self-consistent calculation
 --- enter write_ns ---
 LDA+U parameters:
U(  1) =   3.1200   J(  1) =   0.7000   B(  1) =   0.0803
U(  2) =   3.1200   J(  2) =   0.7000   B(  2) =   0.0803
atom    1   Tr[ns(na)] (up, down, total) =   4.97361  0.72555  5.69917
   spin  1
    eigenvalues: 
  0.985  0.994  0.994  0.997  1.002
    eigenvectors:
  0.000  0.000  0.000  1.000  0.000
  0.000  0.152  0.848  0.000  0.000
  0.000  0.848  0.152  0.000  0.000
  0.000  0.000  0.000  0.000  1.000
  1.000  0.000  0.000  0.000  0.000
    occupations:
  0.997 -0.000 -0.000  0.000  0.000
 -0.000  0.994 -0.000  0.000  0.000
 -0.000 -0.000  0.994  0.000  0.000
  0.000  0.000  0.000  1.002 -0.000
  0.000  0.000  0.000 -0.000  0.985
   spin  2
    eigenvalues: 
  0.066  0.123  0.144  0.144  0.249
    eigenvectors:
  0.000  1.000  0.000  0.000  0.000
  0.000  0.000  0.203  0.797  0.000
  0.000  0.000  0.797  0.203  0.000
  1.000  0.000  0.000  0.000  0.000
  0.000  0.000  0.000  0.000  1.000
    occupations:
  0.123 -0.000 -0.000  0.000  0.000
 -0.000  0.144 -0.000  0.000  0.000
 -0.000 -0.000  0.144  0.000  0.000
  0.000  0.000  0.000  0.066 -0.000
  0.000  0.000  0.000 -0.000  0.249
atomic mag. moment =     4.248058
atom    2   Tr[ns(na)] (up, down, total) =   4.97360  0.72560  5.69920
   spin  1
    eigenvalues: 
  0.985  0.994  0.994  0.997  1.002
    eigenvectors:
  0.000  0.000  0.000  1.000  0.000
  0.000  0.097  0.903  0.000  0.000
  0.000  0.903  0.097  0.000  0.000
  0.000  0.000  0.000  0.000  1.000
  1.000  0.000  0.000  0.000  0.000
    occupations:
  0.997 -0.000 -0.000  0.000  0.000
 -0.000  0.994 -0.000  0.000  0.000
 -0.000 -0.000  0.994  0.000  0.000
  0.000  0.000  0.000  1.002 -0.000
  0.000  0.000  0.000 -0.000  0.985
   spin  2
    eigenvalues: 
  0.066  0.123  0.144  0.144  0.249
    eigenvectors:
  0.000  1.000  0.000  0.000  0.000
  0.000  0.000  0.117  0.883  0.000
  0.000  0.000  0.883  0.117  0.000
  1.000  0.000  0.000  0.000  0.000
  0.000  0.000  0.000  0.000  1.000
    occupations:
  0.123 -0.000 -0.000  0.000  0.000
 -0.000  0.144 -0.000  0.000  0.000
 -0.000 -0.000  0.144  0.000  0.000
  0.000  0.000  0.000  0.066 -0.000
  0.000  0.000  0.000 -0.000  0.249
atomic mag. moment =     4.248006
atom    3   Tr[ns(na)] (up, down, total) =   0.71997  4.97222  5.69219
   spin  1
    eigenvalues: 
  0.066  0.120  0.145  0.145  0.244
    eigenvectors:
  0.000  1.000  0.000  0.000  0.000
  0.000  0.000  0.110  0.890  0.000
  0.000  0.000  0.890  0.110  0.000
  1.000  0.000  0.000  0.000  0.000
  0.000  0.000  0.000  0.000  1.000
    occupations:
  0.120 -0.000 -0.000  0.000  0.000
 -0.000  0.145 -0.000  0.000  0.000
 -0.000 -0.000  0.145  0.000  0.000
  0.000  0.000  0.000  0.066 -0.000
  0.000  0.000  0.000 -0.000  0.244
   spin  2
    eigenvalues: 
  0.985  0.994  0.994  0.997  1.003
    eigenvectors:
  0.000  0.000  0.000  1.000  0.000
  0.000  0.129  0.871  0.000  0.000
  0.000  0.871  0.129  0.000  0.000
  0.000  0.000  0.000  0.000  1.000
  1.000  0.000  0.000  0.000  0.000
    occupations:
  0.997 -0.000 -0.000  0.000  0.000
 -0.000  0.994 -0.000  0.000  0.000
 -0.000 -0.000  0.994  0.000  0.000
  0.000  0.000  0.000  1.003 -0.000
  0.000  0.000  0.000 -0.000  0.985
atomic mag. moment =    -4.252243
atom    4   Tr[ns(na)] (up, down, total) =   4.97222  0.71998  5.69220
   spin  1
    eigenvalues: 
  0.985  0.994  0.994  0.997  1.003
    eigenvectors:
  0.000  0.000  0.000  1.000  0.000
  0.000  0.125  0.875  0.000  0.000
  0.000  0.875  0.125  0.000  0.000
  0.000  0.000  0.000  0.000  1.000
  1.000  0.000  0.000  0.000  0.000
    occupations:
  0.997 -0.000 -0.000  0.000  0.000
 -0.000  0.994 -0.000  0.000  0.000
 -0.000 -0.000  0.994  0.000  0.000
  0.000  0.000  0.000  1.003 -0.000
  0.000  0.000  0.000 -0.000  0.985
   spin  2
    eigenvalues: 
  0.066  0.120  0.145  0.145  0.243
    eigenvectors:
  0.000  1.000  0.000  0.000  0.000
  0.000  0.000  0.137  0.863  0.000
  0.000  0.000  0.863  0.137  0.000
  1.000  0.000  0.000  0.000  0.000
  0.000  0.000  0.000  0.000  1.000
    occupations:
  0.120 -0.000 -0.000  0.000  0.000
 -0.000  0.145 -0.000  0.000  0.000
 -0.000 -0.000  0.145  0.000  0.000
  0.000  0.000  0.000  0.066 -0.000
  0.000  0.000  0.000 -0.000  0.243
atomic mag. moment =     4.252243
atom    5   Tr[ns(na)] (up, down, total) =   0.72561  4.97361  5.69922
   spin  1
    eigenvalues: 
  0.066  0.123  0.144  0.144  0.249
    eigenvectors:
  0.000  1.000  0.000  0.000  0.000
  0.000  0.000  0.137  0.863  0.000
  0.000  0.000  0.863  0.137  0.000
  1.000  0.000  0.000  0.000  0.000
  0.000  0.000  0.000  0.000  1.000
    occupations:
  0.123 -0.000 -0.000  0.000  0.000
 -0.000  0.144 -0.000  0.000  0.000
 -0.000 -0.000  0.144  0.000  0.000
  0.000  0.000  0.000  0.066 -0.000
  0.000  0.000  0.000 -0.000  0.249
   spin  2
    eigenvalues: 
  0.985  0.994  0.994  0.997  1.002
    eigenvectors:
  0.000  0.000  0.000  1.000  0.000
  0.000  0.119  0.881  0.000  0.000
  0.000  0.881  0.119  0.000  0.000
  0.000  0.000  0.000  0.000  1.000
  1.000  0.000  0.000  0.000  0.000
    occupations:
  0.997 -0.000 -0.000  0.000  0.000
 -0.000  0.994 -0.000  0.000  0.000
 -0.000 -0.000  0.994  0.000  0.000
  0.000  0.000  0.000  1.002 -0.000
  0.000  0.000  0.000 -0.000  0.985
atomic mag. moment =    -4.247996
atom    6   Tr[ns(na)] (up, down, total) =   0.72555  4.97361  5.69916
   spin  1
    eigenvalues: 
  0.066  0.123  0.144  0.144  0.249
    eigenvectors:
  0.000  1.000  0.000  0.000  0.000
  0.000  0.000  0.157  0.843  0.000
  0.000  0.000  0.843  0.157  0.000
  1.000  0.000  0.000  0.000  0.000
  0.000  0.000  0.000  0.000  1.000
    occupations:
  0.123 -0.000 -0.000  0.000  0.000
 -0.000  0.144 -0.000  0.000  0.000
 -0.000 -0.000  0.144  0.000  0.000
  0.000  0.000  0.000  0.066 -0.000
  0.000  0.000  0.000 -0.000  0.249
   spin  2
    eigenvalues: 
  0.985  0.994  0.994  0.997  1.002
    eigenvectors:
  0.000  0.000  0.000  1.000  0.000
  0.000  0.099  0.901  0.000  0.000
  0.000  0.901  0.099  0.000  0.000
  0.000  0.000  0.000  0.000  1.000
  1.000  0.000  0.000  0.000  0.000
    occupations:
  0.997 -0.000 -0.000  0.000  0.000
 -0.000  0.994 -0.000  0.000  0.000
 -0.000 -0.000  0.994  0.000  0.000
  0.000  0.000  0.000  1.002 -0.000
  0.000  0.000  0.000 -0.000  0.985
atomic mag. moment =    -4.248056
atom    7   Tr[ns(na)] (up, down, total) =   4.97229  0.71990  5.69219
   spin  1
    eigenvalues: 
  0.985  0.994  0.994  0.997  1.003
    eigenvectors:
  0.000  0.000  0.000  1.000  0.000
  0.000  0.099  0.901  0.000  0.000
  0.000  0.901  0.099  0.000  0.000
  0.000  0.000  0.000  0.000  1.000
  1.000  0.000  0.000  0.000  0.000
    occupations:
  0.997 -0.000 -0.000  0.000  0.000
 -0.000  0.994 -0.000  0.000  0.000
 -0.000 -0.000  0.994  0.000  0.000
  0.000  0.000  0.000  1.003 -0.000
  0.000  0.000  0.000 -0.000  0.985
   spin  2
    eigenvalues: 
  0.066  0.120  0.145  0.145  0.243
    eigenvectors:
  0.000  1.000  0.000  0.000  0.000
  0.000  0.000  0.102  0.898  0.000
  0.000  0.000  0.898  0.102  0.000
  1.000  0.000  0.000  0.000  0.000
  0.000  0.000  0.000  0.000  1.000
    occupations:
  0.120 -0.000 -0.000  0.000  0.000
 -0.000  0.145 -0.000  0.000  0.000
 -0.000 -0.000  0.145  0.000  0.000
  0.000  0.000  0.000  0.066 -0.000
  0.000  0.000  0.000 -0.000  0.243
atomic mag. moment =     4.252389
atom    8   Tr[ns(na)] (up, down, total) =   0.71988  4.97230  5.69217
   spin  1
    eigenvalues: 
  0.066  0.120  0.145  0.145  0.243
    eigenvectors:
  0.000  1.000  0.000  0.000  0.000
  0.000  0.000  0.102  0.898  0.000
  0.000  0.000  0.898  0.102  0.000
  1.000  0.000  0.000  0.000  0.000
  0.000  0.000  0.000  0.000  1.000
    occupations:
  0.120 -0.000 -0.000  0.000  0.000
 -0.000  0.145 -0.000  0.000  0.000
 -0.000 -0.000  0.145  0.000  0.000
  0.000  0.000  0.000  0.066 -0.000
  0.000  0.000  0.000 -0.000  0.243
   spin  2
    eigenvalues: 
  0.985  0.994  0.994  0.997  1.003
    eigenvectors:
  0.000  0.000  0.000  1.000  0.000
  0.000  0.103  0.897  0.000  0.000
  0.000  0.897  0.103  0.000  0.000
  0.000  0.000  0.000  0.000  1.000
  1.000  0.000  0.000  0.000  0.000
    occupations:
  0.997 -0.000 -0.000  0.000  0.000
 -0.000  0.994 -0.000  0.000  0.000
 -0.000 -0.000  0.994  0.000  0.000
  0.000  0.000  0.000  1.003 -0.000
  0.000  0.000  0.000 -0.000  0.985
atomic mag. moment =    -4.252416
N of occupied +U levels =   45.565516
 --- exit write_ns ---

 ------ SPIN UP ------------


          k = 0.0000 0.0000 0.0000 ( 13925 PWs)   bands (ev):

   -66.7943 -66.7924 -66.7427 -66.7422 -62.1863 -62.1846 -62.1389 -62.1385
   -35.5588 -35.5568 -35.5135 -35.5133 -35.5121 -35.5121 -35.5104 -35.5104
   -35.4585 -35.4585 -35.4581 -35.4581 -31.0068 -31.0056 -31.0056 -31.0049
   -31.0041 -31.0041 -30.9642 -30.9637 -30.9574 -30.9574 -30.9570 -30.9570
     5.7782   5.9231   5.9443   6.3704   6.4060   7.0546   7.0626   7.6217
     8.3484   8.4220   8.4356   8.5142   8.5155   8.5584   8.5745   8.7353
     8.8215   8.8488   8.9582   9.0870   9.1446   9.2374   9.2657   9.2794
     9.3063   9.3798   9.4634   9.5389   9.8506   9.9097   9.9247   9.9926
     9.9940  10.1292  10.1364  10.1364  10.1488  10.1503  10.1682  10.1752
    10.1776  10.1776  10.2031  10.2031  10.3062  10.3466  10.3466  10.3574
    10.3574  10.5185  10.5704  10.5836  10.5836  10.5936  10.5988  10.5988
    10.6049  10.6049  10.6099  10.6191  10.6191  10.6257  10.6257  10.6753
    10.7063  10.7063  10.9442  10.9442  10.9531  11.0535  11.0535  11.0844
    11.1370  11.1544  11.2601  11.2864  11.3274  11.3287  11.4218  11.4218
    11.4246  11.4246  11.4465  11.4649  11.6683  11.7319  11.7572  11.8113
    11.8113  11.9170  11.9184  11.9599  11.9599  12.0442  12.1116  12.1616
    12.1798  12.2533  12.3360  12.3360  12.3374  12.3374  12.5872  12.5872
    12.6782  12.8203  12.8217  12.8290  12.9991  12.9998  13.0335  13.6515
    13.9191  15.0333  15.0684  15.9276  16.8078  16.8078  16.9176  16.9176
    16.9195  16.9195  16.9638  16.9649  16.9794  17.0340  17.1100  17.1100
    17.1597  17.1612  17.1620  17.2150  17.5554  17.5890  17.6142  17.6301
    18.6004  19.6820  19.7003  20.1031  20.1031  20.4908  20.4908  20.5113
    20.5113  21.4958

          k = 0.0000 0.0000-0.0484 ( 13878 PWs)   bands (ev):

   -66.7943 -66.7924 -66.7427 -66.7422 -62.1863 -62.1846 -62.1389 -62.1385
   -35.5588 -35.5568 -35.5135 -35.5133 -35.5121 -35.5121 -35.5104 -35.5104
   -35.4585 -35.4585 -35.4581 -35.4581 -31.0068 -31.0056 -31.0056 -31.0049
   -31.0041 -31.0041 -30.9642 -30.9637 -30.9574 -30.9574 -30.9570 -30.9570
     5.7967   5.8449   6.0593   6.1961   6.6388   6.7620   7.4043   7.4268
     8.4220   8.4364   8.4987   8.5128   8.5169   8.5226   8.6010   8.6388
     8.7352   8.8153   9.0543   9.1499   9.1571   9.1594   9.2306   9.3344
     9.3535   9.3980   9.4130   9.5084   9.8544   9.9163   9.9248   9.9918
     9.9948  10.1160  10.1380  10.1471  10.1471  10.1512  10.1512  10.1603
    10.1751  10.1822  10.2539  10.2539  10.2632  10.2632  10.3060  10.4706
    10.4706  10.4747  10.4747  10.5236  10.5668  10.5694  10.5839  10.5839
    10.6051  10.6051  10.6068  10.6068  10.6492  10.6548  10.6940  10.6940
    10.7856  10.7856  10.8107  10.8107  10.9665  11.0859  11.0873  11.1990
    11.1990  11.2203  11.2322  11.2336  11.2336  11.2863  11.3090  11.3467
    11.4485  11.4630  11.5582  11.5582  11.6670  11.7320  11.7514  11.7514
    11.7576  11.9126  11.9226  11.9936  11.9936  12.0532  12.1116  12.1278
    12.2276  12.2307  12.2977  12.2977  12.3690  12.3690  12.5865  12.5865
    12.6784  12.8177  12.8242  12.8625  12.8941  12.9992  13.1436  13.5306
    14.0655  14.7370  15.3934  15.8231  16.8081  16.8081  16.9102  16.9102
    16.9269  16.9269  16.9638  16.9648  16.9794  17.0340  17.1097  17.1097
    17.1597  17.1612  17.1620  17.2150  17.5604  17.5877  17.6122  17.6336
    18.7933  19.0784  20.1699  20.1699  20.2497  20.2497  20.4920  20.7451
    20.8750  20.8750

          k = 0.0000 0.1250 0.0000 ( 13879 PWs)   bands (ev):

   -66.7940 -66.7921 -66.7424 -66.7420 -62.1864 -62.1847 -62.1389 -62.1385
   -35.5587 -35.5566 -35.5139 -35.5133 -35.5131 -35.5121 -35.5120 -35.5103
   -35.4603 -35.4599 -35.4584 -35.4580 -31.0078 -31.0066 -31.0062 -31.0055
   -31.0047 -31.0039 -30.9640 -30.9635 -30.9595 -30.9591 -30.9572 -30.9568
     6.0216   6.1629   6.1842   6.5951   6.6304   7.2437   7.2515   7.7749
     8.3516   8.5238   8.5540   8.6225   8.6290   8.6574   8.6672   8.7779
     8.7878   8.8418   8.9760   9.0413   9.1676   9.2519   9.2642   9.3170
     9.3442   9.4340   9.4529   9.6241   9.6536   9.8000   9.8081   9.8162
     9.8456   9.8485   9.8938   9.9800  10.0310  10.0577  10.0747  10.1105
    10.1665  10.1850  10.1947  10.1976  10.1978  10.2810  10.2879  10.3151
    10.4182  10.4450  10.4502  10.4574  10.5072  10.5200  10.5695  10.6053
    10.6552  10.7163  10.7544  10.7801  10.8085  10.8113  10.8263  10.8363
    10.9452  10.9949  11.0240  11.0273  11.1007  11.1071  11.1252  11.1444
    11.2312  11.2647  11.3288  11.3311  11.3514  11.3737  11.3743  11.4141
    11.4270  11.4698  11.5964  11.6376  11.6898  11.7623  11.7852  11.8134
    11.8144  11.8704  11.9196  11.9493  11.9569  12.0167  12.0983  12.1258
    12.1544  12.2339  12.2464  12.4071  12.4325  12.4528  12.5503  12.5760
    12.7225  12.7320  12.7620  12.8580  12.8776  12.9740  13.0043  13.7293
    13.9601  15.1500  15.1864  16.0573  16.5588  16.6885  16.7492  16.9130
    16.9278  16.9727  16.9795  16.9939  17.0323  17.0406  17.0549  17.0565
    17.0752  17.0782  17.1200  17.2599  17.5290  17.6446  17.6918  17.9796
    18.6994  18.7029  19.0879  19.0990  19.9339  19.9558  20.0226  20.0462
    20.7329  21.0745

          k = 0.0000 0.1250-0.0484 ( 13868 PWs)   bands (ev):

   -66.7940 -66.7921 -66.7424 -66.7420 -62.1864 -62.1847 -62.1389 -62.1385
   -35.5587 -35.5566 -35.5139 -35.5133 -35.5131 -35.5121 -35.5120 -35.5103
   -35.4603 -35.4599 -35.4584 -35.4580 -31.0078 -31.0066 -31.0062 -31.0055
   -31.0047 -31.0039 -30.9640 -30.9635 -30.9595 -30.9591 -30.9572 -30.9568
     6.0395   6.0871   6.2966   6.4262   6.8582   6.9623   7.5791   7.5834
     8.4766   8.5285   8.5564   8.5592   8.6315   8.6326   8.6465   8.6960
     8.8152   8.8821   9.0086   9.0669   9.1304   9.2637   9.2753   9.3066
     9.3422   9.3620   9.5611   9.5728   9.6584   9.8023   9.8117   9.8198
     9.8268   9.8490   9.8925  10.0115  10.0273  10.0327  10.0871  10.1009
    10.1659  10.1849  10.1900  10.2011  10.2077  10.2558  10.3130  10.3283
    10.3905  10.4273  10.4335  10.4878  10.4916  10.5739  10.5992  10.6029
    10.6541  10.6553  10.7274  10.7431  10.8127  10.8252  10.8511  10.8988
    10.9364  11.0046  11.0202  11.0383  11.0442  11.1049  11.1453  11.1496
    11.2377  11.2410  11.3087  11.3298  11.3531  11.3563  11.3867  11.4201
    11.4373  11.5242  11.6063  11.6687  11.6778  11.7000  11.7013  11.7957
    11.8885  11.9012  11.9312  11.9337  11.9911  12.0061  12.0955  12.1356
    12.1406  12.1728  12.2899  12.4097  12.4346  12.4502  12.5601  12.5634
    12.7260  12.7296  12.8066  12.8346  12.8580  12.8776  13.1546  13.5524
    14.1636  14.8190  15.5323  15.9417  16.5717  16.6917  16.7525  16.9130
    16.9240  16.9743  16.9781  16.9942  17.0316  17.0423  17.0523  17.0580
    17.0752  17.0780  17.1200  17.2599  17.5303  17.6176  17.8029  17.8322
    18.7517  18.8685  19.0494  19.2552  19.4166  19.5754  20.4587  20.5245
    20.7711  20.8807

          k = 0.0000 0.2500 0.0000 ( 13848 PWs)   bands (ev):

   -66.7939 -66.7920 -66.7422 -66.7419 -62.1860 -62.1843 -62.1385 -62.1381
   -35.5583 -35.5562 -35.5181 -35.5163 -35.5129 -35.5127 -35.5118 -35.5100
   -35.4645 -35.4641 -35.4582 -35.4578 -31.0130 -31.0115 -31.0060 -31.0051
   -31.0041 -31.0036 -30.9648 -30.9644 -30.9634 -30.9629 -30.9569 -30.9565
     6.7100   6.8378   6.8598   7.2124   7.2441   7.7177   7.7235   8.1004
     8.2972   8.5320   8.5419   8.7262   8.7584   8.7707   8.8329   8.8602
     8.8833   8.9244   8.9396   8.9482   9.1021   9.1071   9.2417   9.2861
     9.4912   9.4922   9.5408   9.5588   9.5904   9.6337   9.6410   9.6425
     9.6671   9.6742   9.6821   9.7944   9.8117   9.8572   9.8737  10.0059
    10.0216  10.0512  10.1379  10.1665  10.1721  10.2971  10.3214  10.4179
    10.4518  10.5890  10.6007  10.6580  10.6614  10.6968  10.7145  10.7211
    10.8647  10.8767  10.8856  10.8962  10.9219  10.9852  11.0097  11.0705
    11.0717  11.1253  11.1755  11.1987  11.2324  11.2432  11.2867  11.2886
    11.3625  11.4326  11.4597  11.4799  11.4844  11.4902  11.5397  11.6207
    11.6453  11.6615  11.7069  11.7201  11.7549  11.7890  11.8351  11.8815
    11.8876  11.8898  11.9434  11.9570  12.0128  12.0478  12.0638  12.0815
    12.1152  12.1965  12.2029  12.3563  12.5079  12.5350  12.5690  12.7138
    12.7289  12.7305  12.7341  12.9039  12.9135  12.9244  12.9407  13.9291
    14.0682  15.2903  15.3663  15.9736  15.9781  16.0064  16.1749  16.2893
    16.3761  16.5376  16.6809  16.8153  16.9164  16.9179  17.0333  17.0430
    17.0591  17.2812  17.2963  17.2976  17.3264  17.3291  17.3893  17.4324
    17.6230  17.7592  17.9532  18.0983  18.5445  18.6049  18.6791  18.8522
    19.5690  20.5612

          k = 0.0000 0.2500-0.0484 ( 13842 PWs)   bands (ev):

   -66.7939 -66.7920 -66.7422 -66.7419 -62.1860 -62.1843 -62.1385 -62.1381
   -35.5583 -35.5562 -35.5181 -35.5163 -35.5129 -35.5127 -35.5118 -35.5100
   -35.4645 -35.4641 -35.4582 -35.4578 -31.0130 -31.0115 -31.0060 -31.0051
   -31.0041 -31.0036 -30.9648 -30.9644 -30.9634 -30.9629 -30.9569 -30.9565
     6.7256   6.7713   6.9606   7.0662   7.4452   7.4902   7.9380   7.9765
     8.3841   8.4207   8.6472   8.6540   8.7637   8.7950   8.8270   8.8625
     8.8825   8.9105   8.9288   8.9815   9.0770   9.1323   9.2286   9.2731
     9.4912   9.5396   9.5417   9.5623   9.5864   9.6276   9.6368   9.6476
     9.6635   9.6771   9.6796   9.7447   9.7946   9.8117  10.0040  10.0261
    10.0417  10.0482  10.0727  10.1401  10.1657  10.2736  10.3835  10.3993
    10.4591  10.5650  10.6052  10.6386  10.6922  10.7003  10.7306  10.7443
    10.8064  10.8768  10.8803  10.8996  10.9039  10.9843  11.0437  11.0808
    11.0924  11.1133  11.1798  11.1848  11.2162  11.2196  11.3218  11.3236
    11.3434  11.4388  11.4602  11.4602  11.4768  11.5210  11.5448  11.5559
    11.6132  11.6601  11.7093  11.7702  11.7886  11.8177  11.8486  11.8601
    11.8917  11.9070  11.9354  11.9450  11.9556  11.9859  12.0679  12.1274
    12.1534  12.1771  12.2528  12.3013  12.5264  12.5347  12.6448  12.6644
    12.6988  12.7289  12.7327  12.7421  12.9040  12.9406  13.2227  13.5811
    14.4230  14.9316  15.6843  15.8606  16.0327  16.0349  16.1091  16.2691
    16.3766  16.5781  16.6645  16.8153  16.9163  16.9179  17.0333  17.0417
    17.0600  17.2721  17.2963  17.2976  17.3264  17.3399  17.3893  17.4478
    17.5670  17.7920  18.0825  18.1401  18.3131  18.3570  18.9314  18.9826
    19.7367  19.8926

          k = 0.0000 0.3750 0.0000 ( 13856 PWs)   bands (ev):

   -66.7945 -66.7925 -66.7428 -66.7424 -62.1850 -62.1833 -62.1376 -62.1371
   -35.5579 -35.5558 -35.5221 -35.5204 -35.5125 -35.5123 -35.5115 -35.5098
   -35.4686 -35.4682 -35.4580 -35.4576 -31.0184 -31.0169 -31.0054 -31.0048
   -31.0036 -31.0033 -30.9702 -30.9698 -30.9628 -30.9623 -30.9566 -30.9561
     7.6689   7.7626   7.7876   7.9928   7.9965   8.1568   8.1585   8.2273
     8.2460   8.3293   8.3568   8.4718   8.5413   8.6863   8.7288   8.9486
     8.9637   9.0580   9.1725   9.1961   9.2159   9.2333   9.2560   9.2646
     9.3141   9.3457   9.3528   9.3544   9.3701   9.5400   9.5432   9.6138
     9.6180   9.6373   9.7171   9.7265   9.8130   9.8328   9.9473   9.9491
    10.0399  10.0489  10.1004  10.1398  10.1602  10.2186  10.2227  10.3965
    10.5145  10.5532  10.5856  10.7017  10.7129  10.7913  10.7928  10.8855
    10.9049  10.9173  11.0496  11.1192  11.2253  11.2296  11.2648  11.3220
    11.3350  11.3485  11.3770  11.4986  11.4998  11.5132  11.5262  11.5499
    11.5597  11.6065  11.6967  11.7164  11.7433  11.7582  11.7745  11.7995
    11.8273  11.8358  11.8416  11.8776  11.9769  12.0179  12.0293  12.0572
    12.0687  12.0766  12.1163  12.1184  12.1642  12.1793  12.2691  12.2952
    12.3275  12.3988  12.4016  12.4553  12.4656  12.6024  12.6609  12.7936
    12.8095  12.8129  12.8164  12.9661  12.9805  12.9832  12.9925  13.9479
    13.9579  13.9738  14.2630  14.2656  14.7290  14.7711  15.1218  15.1388
    15.4386  15.4991  15.8300  15.8376  16.7790  16.8196  16.8434  16.8456
    16.8471  16.8775  16.9632  16.9935  17.0710  17.1237  17.1708  17.3299
    17.4978  17.4992  17.5330  17.5542  17.9212  17.9970  18.0204  18.2029
    19.7145  19.8104

          k = 0.0000 0.3750-0.0484 ( 13872 PWs)   bands (ev):

   -66.7945 -66.7925 -66.7428 -66.7424 -62.1850 -62.1833 -62.1376 -62.1371
   -35.5579 -35.5558 -35.5221 -35.5204 -35.5125 -35.5123 -35.5115 -35.5098
   -35.4686 -35.4682 -35.4580 -35.4576 -31.0184 -31.0169 -31.0054 -31.0048
   -31.0036 -31.0033 -30.9702 -30.9698 -30.9628 -30.9623 -30.9566 -30.9561
     7.6796   7.7190   7.8582   7.9031   8.0750   8.1074   8.1932   8.2048
     8.2656   8.3046   8.4081   8.4131   8.6027   8.6252   8.7559   8.9271
     8.9809   9.0936   9.0983   9.1827   9.2560   9.2591   9.2645   9.2718
     9.3096   9.3463   9.3526   9.3558   9.3681   9.4977   9.5440   9.5570
     9.6137   9.6799   9.7106   9.8028   9.8101   9.8440   9.9543   9.9758
    10.0134  10.0238  10.0723  10.1004  10.1350  10.1615  10.3840  10.4483
    10.4567  10.5533  10.5752  10.6978  10.7079  10.7136  10.8148  10.8771
    10.9145  10.9222  11.1639  11.1686  11.1797  11.2189  11.2385  11.2545
    11.3302  11.3839  11.4327  11.4559  11.4713  11.5107  11.5417  11.5422
    11.5737  11.6128  11.6268  11.7097  11.7129  11.7405  11.7762  11.8105
    11.8153  11.8831  11.8974  11.9090  11.9807  11.9863  11.9937  12.0245
    12.0380  12.0745  12.1025  12.1693  12.2100  12.2388  12.2803  12.3356
    12.3601  12.4198  12.4482  12.4486  12.4835  12.5069  12.6001  12.6629
    12.7922  12.8092  12.8136  12.8169  12.9832  12.9925  13.4573  13.5226
    14.0247  14.0433  14.3722  14.3925  14.5764  14.6623  15.1246  15.1940
    15.5308  15.5553  15.7639  15.7832  16.7790  16.7932  16.8184  16.8456
    16.8471  16.9450  16.9632  16.9830  17.0784  17.1046  17.2025  17.3122
    17.4978  17.4992  17.5330  17.5542  17.9427  17.9487  18.0529  18.2003
    19.7216  19.8637

          k = 0.0000-0.5000 0.0000 ( 13918 PWs)   bands (ev):

   -66.7949 -66.7930 -66.7432 -66.7429 -62.1844 -62.1827 -62.1370 -62.1365
   -35.5577 -35.5556 -35.5238 -35.5220 -35.5123 -35.5122 -35.5114 -35.5097
   -35.4702 -35.4698 -35.4579 -35.4575 -31.0207 -31.0192 -31.0052 -31.0047
   -31.0033 -31.0031 -30.9725 -30.9721 -30.9626 -30.9621 -30.9564 -30.9560
     8.1404   8.1406   8.2242   8.2243   8.2365   8.2365   8.3509   8.3514
     8.4244   8.4253   8.5122   8.5125   8.5820   8.5824   8.7021   8.7025
     9.0095   9.0097   9.1627   9.1628   9.2258   9.2265   9.2557   9.2568
     9.2724   9.2736   9.3173   9.3178   9.4864   9.4865   9.6204   9.6205
     9.7067   9.7068   9.7592   9.7598   9.7810   9.7818   9.9592   9.9592
    10.0173  10.0174  10.0399  10.0409  10.0430  10.0432  10.2892  10.2897
    10.3966  10.3970  10.5906  10.5911  10.7190  10.7203  10.7976  10.7981
    11.1209  11.1217  11.2399  11.2411  11.3601  11.3603  11.4743  11.4748
    11.5002  11.5013  11.5287  11.5289  11.5730  11.5733  11.6032  11.6032
    11.6250  11.6254  11.6787  11.6789  11.7634  11.7635  11.8138  11.8151
    11.9066  11.9073  12.0234  12.0237  12.2505  12.2508  12.3430  12.3437
    12.4121  12.4133  12.4309  12.4313  12.4798  12.4803  12.5772  12.5782
    12.6067  12.6068  12.6894  12.6895  12.7840  12.7842  12.8276  12.8290
    12.8439  12.8451  12.9729  12.9729  13.0151  13.0152  13.1544  13.1550
    13.3073  13.3077  13.7432  13.7436  13.8379  13.8379  14.4141  14.4142
    14.4636  14.4640  14.8566  14.8568  16.5910  16.5916  16.7883  16.7888
    16.8267  16.8282  16.8539  16.8540  16.8961  16.8976  17.0251  17.0254
    17.5717  17.5731  17.6172  17.6175  17.9546  17.9559  18.0322  18.0328
    19.7677  19.7678

          k = 0.0000-0.5000-0.0484 ( 13892 PWs)   bands (ev):

   -66.7949 -66.7930 -66.7432 -66.7429 -62.1844 -62.1827 -62.1370 -62.1365
   -35.5577 -35.5556 -35.5238 -35.5220 -35.5123 -35.5122 -35.5114 -35.5097
   -35.4702 -35.4698 -35.4579 -35.4575 -31.0207 -31.0192 -31.0052 -31.0047
   -31.0033 -31.0031 -30.9725 -30.9721 -30.9626 -30.9621 -30.9564 -30.9560
     8.1408   8.1410   8.2158   8.2160   8.2475   8.2476   8.3436   8.3441
     8.4310   8.4319   8.5090   8.5094   8.5829   8.5834   8.7017   8.7021
     9.0125   9.0127   9.1627   9.1628   9.1981   9.1986   9.2557   9.2568
     9.2724   9.2736   9.3737   9.3740   9.4864   9.4865   9.5427   9.5427
     9.7478   9.7483   9.7592   9.7598   9.7898   9.7904   9.9591   9.9592
    10.0401  10.0408  10.0412  10.0413  10.0426  10.0430  10.2247  10.2247
    10.4380  10.4381  10.5906  10.5911  10.7190  10.7203  10.7915  10.7920
    11.1209  11.1217  11.2448  11.2460  11.3726  11.3727  11.4743  11.4748
    11.5015  11.5024  11.5331  11.5333  11.5732  11.5737  11.5755  11.5758
    11.6253  11.6257  11.6666  11.6670  11.7751  11.7753  11.8079  11.8093
    11.9066  11.9073  12.0455  12.0459  12.2504  12.2508  12.3294  12.3300
    12.4129  12.4141  12.4302  12.4306  12.4866  12.4871  12.5631  12.5640
    12.6225  12.6228  12.6894  12.6895  12.7701  12.7702  12.8274  12.8288
    12.8441  12.8452  13.0093  13.0096  13.0151  13.0152  13.1033  13.1040
    13.3486  13.3488  13.6585  13.6587  13.9660  13.9662  14.2191  14.2191
    14.6863  14.6864  14.7665  14.7669  16.5972  16.5978  16.7836  16.7841
    16.8267  16.8282  16.8539  16.8540  16.8963  16.8978  17.0253  17.0256
    17.5717  17.5731  17.6172  17.6175  17.9547  17.9560  18.0322  18.0328
    19.8057  19.8059

          k = 0.1250 0.1250 0.0000 ( 13839 PWs)   bands (ev):

   -66.7937 -66.7918 -66.7420 -66.7417 -62.1864 -62.1847 -62.1390 -62.1385
   -35.5585 -35.5564 -35.5138 -35.5137 -35.5132 -35.5130 -35.5121 -35.5120
   -35.4602 -35.4602 -35.4598 -35.4598 -31.0077 -31.0075 -31.0064 -31.0062
   -31.0060 -31.0045 -30.9637 -30.9632 -30.9595 -30.9593 -30.9591 -30.9589
     6.2538   6.3933   6.4146   6.8155   6.8513   7.4387   7.4459   7.9418
     8.4092   8.6051   8.6898   8.7273   8.7397   8.7612   8.7625   8.7855
     8.7934   8.9438   9.0454   9.0747   9.1644   9.3249   9.3872   9.3945
     9.3959   9.4134   9.4851   9.4902   9.6190   9.7041   9.7102   9.7364
     9.8231   9.8314   9.8536   9.8900   9.8918   9.8926   9.9182   9.9566
    10.1277  10.1286  10.1410  10.1527  10.1637  10.2469  10.2737  10.3421
    10.3566  10.3851  10.3937  10.4111  10.4133  10.4223  10.5330  10.5379
    10.6806  10.7164  10.7260  10.7302  10.7662  10.7962  10.8057  10.8994
    10.9109  11.0045  11.0439  11.1319  11.1463  11.1606  11.2137  11.2341
    11.2570  11.3382  11.3518  11.4184  11.4305  11.4390  11.4527  11.4749
    11.4928  11.5914  11.6307  11.6353  11.7904  11.8017  11.8436  11.8594
    11.8785  11.9256  11.9791  12.0069  12.0075  12.0653  12.0869  12.1521
    12.1976  12.3230  12.3890  12.3942  12.4659  12.5265  12.5424  12.6246
    12.6288  12.6368  12.7141  12.7529  12.7769  12.9891  13.0086  13.8424
    14.0577  15.2713  15.3194  16.1487  16.6861  16.7184  16.8533  16.8546
    16.8623  16.8842  16.9254  16.9608  16.9654  16.9916  17.0018  17.0140
    17.0163  17.0366  17.1488  17.1924  17.5228  17.7241  17.7692  18.3527
    18.8540  19.2345  19.3008  19.5055  19.5075  19.6820  19.7007  20.0415
    20.1674  20.3163

          k = 0.1250 0.1250-0.0484 ( 13838 PWs)   bands (ev):

   -66.7937 -66.7918 -66.7420 -66.7417 -62.1864 -62.1847 -62.1390 -62.1385
   -35.5585 -35.5564 -35.5138 -35.5137 -35.5132 -35.5130 -35.5121 -35.5120
   -35.4602 -35.4602 -35.4598 -35.4598 -31.0077 -31.0075 -31.0064 -31.0062
   -31.0060 -31.0045 -30.9637 -30.9632 -30.9595 -30.9593 -30.9591 -30.9589
     6.2709   6.3196   6.5243   6.6517   7.0744   7.1663   7.7537   7.7619
     8.5168   8.6064   8.6152   8.6898   8.7049   8.7603   8.7634   8.7718
     8.9152   8.9438   8.9748   9.1025   9.2075   9.2812   9.3314   9.3685
     9.4535   9.4635   9.4776   9.5007   9.6166   9.6427   9.7129   9.7844
     9.8146   9.8387   9.8441   9.8807   9.8922   9.9111   9.9176   9.9542
    10.1002  10.1274  10.1418  10.1523  10.1997  10.2291  10.2737  10.3397
    10.3567  10.3699  10.4001  10.4134  10.4221  10.4387  10.5266  10.5330
    10.6837  10.6927  10.7275  10.7426  10.7762  10.8076  10.8340  10.8523
    10.8776  11.0437  11.0478  11.1256  11.1623  11.1783  11.1817  11.2355
    11.2805  11.3473  11.3485  11.3745  11.4172  11.4480  11.4520  11.4576
    11.4857  11.6115  11.6176  11.7120  11.7846  11.8158  11.8389  11.8444
    11.8701  11.8950  11.9440  11.9533  12.0823  12.0951  12.1107  12.1561
    12.1744  12.3144  12.3489  12.4258  12.4753  12.5314  12.5361  12.6177
    12.6279  12.6425  12.7468  12.7503  12.7933  12.8144  13.2099  13.6191
    14.2975  14.9397  15.6466  16.0435  16.7186  16.7223  16.8430  16.8463
    16.8657  16.8678  16.9334  16.9539  16.9887  16.9927  17.0001  17.0038
    17.0161  17.0367  17.1488  17.1921  17.5312  17.6441  18.0018  18.0490
    19.2391  19.3154  19.3482  19.4467  19.4758  19.4761  19.6492  19.9156
    19.9991  20.2217

          k = 0.1250 0.2500 0.0000 ( 13846 PWs)   bands (ev):

   -66.7935 -66.7916 -66.7418 -66.7415 -62.1861 -62.1844 -62.1387 -62.1383
   -35.5582 -35.5561 -35.5179 -35.5162 -35.5135 -35.5128 -35.5126 -35.5118
   -35.4644 -35.4640 -35.4599 -35.4595 -31.0129 -31.0113 -31.0072 -31.0058
   -31.0057 -31.0039 -30.9646 -30.9642 -30.9632 -30.9627 -30.9590 -30.9586
     6.9012   7.0331   7.0546   7.4144   7.4511   7.9248   7.9287   8.2951
     8.4417   8.6444   8.6570   8.8008   8.8418   8.8589   8.9343   8.9411
     9.0132   9.0246   9.0434   9.0750   9.2209   9.2371   9.3164   9.3856
     9.4637   9.4838   9.5178   9.5356   9.5476   9.5606   9.5643   9.6112
     9.6252   9.7414   9.7454   9.8205   9.8493   9.9060   9.9341   9.9641
     9.9930  10.0023  10.0446  10.1094  10.1291  10.1555  10.1900  10.3359
    10.3719  10.4035  10.4467  10.4636  10.4691  10.4917  10.5022  10.6507
    10.6788  10.6974  10.7100  10.8216  10.8383  10.9043  10.9237  10.9888
    10.9992  11.0086  11.0407  11.1167  11.1200  11.1550  11.2875  11.3294
    11.3362  11.4282  11.4516  11.5049  11.5468  11.5648  11.5910  11.6557
    11.6651  11.6742  11.7354  11.7647  11.7964  11.8970  11.9059  11.9722
    11.9909  11.9914  12.0489  12.0895  12.1332  12.1746  12.1923  12.2313
    12.2465  12.3643  12.3808  12.5009  12.5405  12.5833  12.6030  12.6057
    12.6364  12.6740  12.7084  12.7530  12.8199  13.1346  13.1623  14.1285
    14.3070  15.3992  15.5231  16.0715  16.2081  16.2279  16.4274  16.4420
    16.5672  16.5917  16.8203  16.9078  16.9614  16.9935  17.0286  17.0985
    17.1641  17.1641  17.2281  17.2661  17.3558  17.4056  17.5760  17.6364
    17.8400  17.9743  18.2145  18.3809  18.8801  18.9177  19.0333  19.1162
    19.5507  20.5391

          k = 0.1250 0.2500-0.0484 ( 13868 PWs)   bands (ev):

   -66.7935 -66.7916 -66.7418 -66.7415 -62.1861 -62.1844 -62.1387 -62.1383
   -35.5582 -35.5561 -35.5179 -35.5162 -35.5135 -35.5128 -35.5126 -35.5118
   -35.4644 -35.4640 -35.4599 -35.4595 -31.0129 -31.0113 -31.0072 -31.0058
   -31.0057 -31.0039 -30.9646 -30.9642 -30.9632 -30.9627 -30.9590 -30.9586
     6.9155   6.9677   7.1523   7.2731   7.6475   7.7012   8.1393   8.1734
     8.5201   8.5535   8.7483   8.7502   8.8176   8.8836   8.9329   8.9581
     9.0016   9.0276   9.0429   9.0794   9.1985   9.2718   9.2811   9.3849
     9.4814   9.4933   9.5132   9.5266   9.5565   9.5582   9.5828   9.6178
     9.6325   9.7267   9.7342   9.7709   9.8400   9.9003   9.9643   9.9904
    10.0017  10.0406  10.0524  10.0653  10.1277  10.1434  10.2234  10.2794
    10.3698  10.3899  10.4442  10.4568  10.4853  10.5087  10.5682  10.6234
    10.6460  10.6663  10.7807  10.7871  10.8546  10.8807  10.9393  10.9782
    10.9899  11.0122  11.0333  11.1193  11.1423  11.1884  11.2535  11.3081
    11.3345  11.4364  11.4533  11.5126  11.5412  11.5885  11.5963  11.6498
    11.6687  11.6703  11.7252  11.7549  11.7940  11.8816  11.9107  11.9551
    12.0182  12.0342  12.0525  12.0762  12.0832  12.2073  12.2106  12.2291
    12.2322  12.3275  12.4282  12.4952  12.5077  12.5668  12.5989  12.6076
    12.6728  12.6831  12.7499  12.8062  12.8116  12.8602  13.4607  13.8235
    14.5944  15.1346  15.7377  16.0059  16.2213  16.2796  16.3625  16.4281
    16.5353  16.7126  16.7342  16.9372  16.9675  16.9945  17.0163  17.1160
    17.1328  17.1676  17.2475  17.2622  17.3420  17.4282  17.5525  17.6585
    17.7482  18.0481  18.3991  18.4499  18.5731  18.6406  19.2157  19.2616
    19.8870  19.9422

          k = 0.1250 0.3750 0.0000 ( 13875 PWs)   bands (ev):

   -66.7939 -66.7920 -66.7422 -66.7419 -62.1853 -62.1836 -62.1378 -62.1374
   -35.5578 -35.5557 -35.5220 -35.5203 -35.5133 -35.5124 -35.5122 -35.5115
   -35.4684 -35.4680 -35.4597 -35.4593 -31.0182 -31.0167 -31.0069 -31.0054
   -31.0053 -31.0034 -30.9700 -30.9696 -30.9627 -30.9622 -30.9586 -30.9582
     7.7739   7.8850   7.9085   8.1527   8.1795   8.3399   8.3450   8.4096
     8.4175   8.4933   8.5174   8.6028   8.6794   8.8038   8.8320   8.9486
     9.0684   9.1018   9.1457   9.1883   9.2733   9.2734   9.3348   9.3504
     9.3558   9.3622   9.3735   9.3767   9.4559   9.5407   9.5449   9.5607
     9.5973   9.6476   9.7328   9.7717   9.8168   9.8919   9.9143   9.9462
     9.9641   9.9970  10.0169  10.0204  10.2080  10.3185  10.3280  10.3759
    10.5033  10.5292  10.5325  10.5691  10.6519  10.6644  10.7060  10.7478
    10.8180  10.8734  10.8742  10.9103  11.0668  11.1110  11.1342  11.1803
    11.1838  11.2324  11.2929  11.3087  11.3216  11.4199  11.4478  11.5328
    11.5363  11.5774  11.6152  11.6198  11.6755  11.7003  11.7261  11.7659
    11.8339  11.8358  11.8555  11.8623  11.9102  11.9188  11.9443  11.9486
    12.0454  12.0589  12.0819  12.0972  12.2003  12.2664  12.3341  12.3775
    12.4081  12.4533  12.4745  12.5298  12.5338  12.5757  12.5815  12.6495
    12.7757  12.8238  12.8576  13.0889  13.1364  13.5280  13.5804  14.2121
    14.3308  14.3653  14.6565  14.6672  14.9521  15.0178  15.5202  15.5365
    15.6466  15.7081  16.1379  16.1570  16.8549  16.8829  16.9616  16.9907
    17.0013  17.0430  17.1059  17.1577  17.1583  17.2037  17.2502  17.2694
    17.6361  17.6645  17.7013  17.8606  18.0249  18.0945  18.1156  18.3506
    19.7407  19.7840

          k = 0.1250 0.3750-0.0484 ( 13882 PWs)   bands (ev):

   -66.7939 -66.7920 -66.7422 -66.7419 -62.1853 -62.1836 -62.1378 -62.1374
   -35.5578 -35.5557 -35.5220 -35.5203 -35.5133 -35.5124 -35.5122 -35.5115
   -35.4684 -35.4680 -35.4597 -35.4593 -31.0182 -31.0167 -31.0069 -31.0054
   -31.0053 -31.0034 -30.9700 -30.9696 -30.9627 -30.9622 -30.9586 -30.9582
     7.7829   7.8395   7.9753   8.0712   8.2749   8.2778   8.3640   8.4001
     8.4303   8.4814   8.5522   8.5575   8.7357   8.7453   8.8530   8.9531
     9.0608   9.0726   9.1771   9.2176   9.2596   9.2771   9.3113   9.3499
     9.3534   9.3617   9.3751   9.4166   9.4265   9.4939   9.5353   9.5571
     9.6055   9.7311   9.7397   9.7615   9.8537   9.8832   9.8860   9.9141
     9.9482   9.9574  10.0200  10.0609  10.2199  10.2582  10.3787  10.4528
    10.4775  10.4989  10.5542  10.5577  10.6246  10.6446  10.6899  10.7447
    10.8511  10.8680  10.9212  10.9526  10.9877  11.0959  11.1283  11.1451
    11.2137  11.2441  11.2971  11.3243  11.3716  11.4061  11.4167  11.4860
    11.5693  11.5845  11.6160  11.6244  11.6848  11.6898  11.7373  11.7535
    11.8090  11.8428  11.8475  11.8845  11.9081  11.9255  11.9405  11.9726
[...]
    11.4575  11.5145  11.5186  11.5629  11.6155  11.6351  11.6420  11.6941
    11.7064  11.8267  11.8711  11.9227  11.9272  11.9316  11.9904  12.0008
    12.0632  12.0680  12.1157  12.1535  12.2323  12.2939  12.3185  12.4023
    12.4198  12.4472  12.5014  12.5739  12.5992  12.6145  12.6297  12.8578
    12.8718  13.2020  13.2540  13.5675  13.7616  14.1084  14.2062  14.5609
    15.0723  15.1669  15.3179  15.3725  15.4836  15.6274  15.9905  16.0810
    16.1653  16.2596  16.7247  16.7333  16.9573  17.0781  17.1255  17.1323
    17.2142  17.2842  17.4273  17.4333  17.4776  17.5251  17.5622  17.8198
    18.0099  18.0427  18.0788  18.1635  18.3017  18.5888  18.7421  18.9223
    19.4663  19.5984

          k = 0.2500 0.3750-0.0484 ( 13916 PWs)   bands (ev):

   -66.7929 -66.7913 -66.7416 -66.7410 -62.1858 -62.1839 -62.1380 -62.1378
   -35.5573 -35.5556 -35.5214 -35.5200 -35.5171 -35.5157 -35.5125 -35.5119
   -35.4683 -35.4676 -35.4640 -35.4633 -31.0179 -31.0162 -31.0121 -31.0104
   -31.0052 -31.0030 -30.9693 -30.9691 -30.9636 -30.9634 -30.9622 -30.9619
     7.9541   8.0473   8.1669   8.3770   8.5741   8.6297   8.6792   8.7643
     8.7886   8.8155   8.8855   8.8967   8.9030   8.9101   9.0143   9.0504
     9.0789   9.1464   9.2598   9.3032   9.3414   9.3472   9.3659   9.3802
     9.4014   9.4320   9.4465   9.5272   9.6019   9.6083   9.6919   9.7137
     9.7362   9.7475   9.7930   9.8213   9.8847   9.8863   9.9200   9.9625
    10.0665  10.1496  10.1858  10.2184  10.2271  10.2342  10.2642  10.2761
    10.3857  10.3925  10.4704  10.4802  10.5451  10.5701  10.5946  10.6090
    10.6620  10.6822  10.7144  10.7818  10.8175  10.8591  10.9196  10.9208
    10.9607  11.0538  11.1644  11.1757  11.1786  11.2328  11.2527  11.3078
    11.4533  11.5091  11.5187  11.5573  11.6237  11.6357  11.6560  11.7014
    11.7242  11.7673  11.9061  11.9221  11.9276  11.9292  11.9804  11.9909
    12.0722  12.0729  12.1146  12.1644  12.2320  12.2854  12.3260  12.3681
    12.4240  12.4691  12.5084  12.5555  12.5826  12.6256  12.7068  12.7196
    13.0292  13.0521  13.3773  13.4764  13.8680  13.9625  14.3366  14.4922
    15.1341  15.2149  15.2216  15.3095  15.5268  15.6909  15.9390  16.0582
    16.1860  16.2691  16.7183  16.7457  16.9530  17.0788  17.1244  17.1305
    17.2131  17.2963  17.4114  17.4521  17.4869  17.5111  17.5581  17.7952
    17.9610  18.0566  18.0799  18.2942  18.4125  18.4260  18.6664  18.9069
    19.4654  19.5931

          k = 0.2500-0.5000 0.0000 ( 13940 PWs)   bands (ev):

   -66.7931 -66.7915 -66.7419 -66.7412 -62.1854 -62.1835 -62.1376 -62.1374
   -35.5572 -35.5554 -35.5230 -35.5216 -35.5170 -35.5155 -35.5123 -35.5118
   -35.4699 -35.4692 -35.4639 -35.4631 -31.0201 -31.0184 -31.0120 -31.0103
   -31.0051 -31.0028 -30.9715 -30.9713 -30.9634 -30.9632 -30.9620 -30.9617
     8.3705   8.3706   8.4942   8.4950   8.5115   8.5118   8.7240   8.7244
     8.7952   8.7952   8.8418   8.8428   8.8833   8.8841   8.9837   8.9842
     9.0898   9.0903   9.1500   9.1502   9.2502   9.2503   9.3032   9.3034
     9.3732   9.3735   9.4005   9.4012   9.6110   9.6114   9.6723   9.6723
     9.7328   9.7332   9.8672   9.8675   9.9191   9.9197   9.9688   9.9692
    10.2178  10.2179  10.3820  10.3823  10.3981  10.3987  10.4368  10.4377
    10.4894  10.4900  10.5979  10.5979  10.7233  10.7235  10.8124  10.8124
    10.8329  10.8338  10.8791  10.8794  10.9774  10.9774  11.0411  11.0414
    11.1158  11.1159  11.2726  11.2731  11.2796  11.2798  11.3313  11.3323
    11.5195  11.5203  11.6209  11.6213  11.6861  11.6871  11.6918  11.6926
    11.8631  11.8641  11.8925  11.8931  11.9939  11.9945  12.0255  12.0263
    12.1037  12.1047  12.1935  12.1940  12.2829  12.2837  12.3955  12.3956
    12.4600  12.4603  12.5049  12.5053  12.8301  12.8306  13.0648  13.0653
    13.1929  13.1934  13.4949  13.4951  13.8076  13.8081  14.2317  14.2319
    14.4076  14.4079  14.7237  14.7243  15.0748  15.0749  15.5290  15.5294
    16.1212  16.1220  16.4193  16.4196  16.9924  16.9928  17.0766  17.0784
    17.1156  17.1160  17.3055  17.3061  17.5986  17.5990  17.8533  17.8541
    17.9028  17.9032  18.0941  18.0953  18.2025  18.2030  18.4429  18.4434
    19.5726  19.5728

          k = 0.2500-0.5000-0.0484 ( 13912 PWs)   bands (ev):

   -66.7931 -66.7915 -66.7419 -66.7412 -62.1854 -62.1835 -62.1376 -62.1374
   -35.5572 -35.5554 -35.5230 -35.5216 -35.5170 -35.5155 -35.5123 -35.5118
   -35.4699 -35.4692 -35.4639 -35.4631 -31.0201 -31.0184 -31.0120 -31.0103
   -31.0051 -31.0028 -30.9715 -30.9713 -30.9634 -30.9632 -30.9620 -30.9617
     8.3720   8.3721   8.4770   8.4775   8.5310   8.5311   8.7192   8.7196
     8.7949   8.7949   8.8416   8.8426   8.8834   8.8842   8.9896   8.9901
     9.0709   9.0714   9.1880   9.1886   9.2228   9.2234   9.3019   9.3019
     9.3751   9.3752   9.4083   9.4088   9.5991   9.5994   9.6649   9.6649
     9.7723   9.7725   9.8244   9.8246   9.9323   9.9330   9.9766   9.9769
    10.2164  10.2165  10.3835  10.3840  10.3975  10.3982  10.4349  10.4357
    10.4894  10.4900  10.5865  10.5865  10.7530  10.7530  10.8007  10.8010
    10.8232  10.8239  10.8920  10.8924  10.9577  10.9578  11.0404  11.0407
    11.1337  11.1339  11.2592  11.2594  11.2802  11.2806  11.3362  11.3371
    11.5198  11.5207  11.6209  11.6214  11.6861  11.6871  11.6918  11.6925
    11.8615  11.8626  11.8946  11.8951  11.9977  11.9984  12.0202  12.0209
    12.1047  12.1057  12.1903  12.1906  12.2839  12.2845  12.4208  12.4208
    12.4544  12.4545  12.4802  12.4809  12.8634  12.8640  13.0016  13.0018
    13.2601  13.2605  13.4469  13.4471  13.8489  13.8493  14.1589  14.1590
    14.5336  14.5336  14.6220  14.6227  15.1170  15.1170  15.5048  15.5053
    16.1367  16.1376  16.4112  16.4114  16.9930  16.9934  17.0758  17.0775
    17.1162  17.1166  17.3047  17.3053  17.6047  17.6051  17.8160  17.8166
    17.9386  17.9386  18.0949  18.0961  18.2270  18.2275  18.3975  18.3980
    19.7623  19.7625

          k = 0.3750 0.3750 0.0000 ( 13948 PWs)   bands (ev):

   -66.7926 -66.7910 -66.7414 -66.7407 -62.1856 -62.1837 -62.1378 -62.1376
   -35.5571 -35.5553 -35.5211 -35.5210 -35.5196 -35.5196 -35.5122 -35.5116
   -35.4680 -35.4679 -35.4672 -35.4672 -31.0175 -31.0173 -31.0158 -31.0156
   -31.0049 -31.0027 -30.9689 -30.9687 -30.9687 -30.9685 -30.9619 -30.9616
     8.0545   8.2043   8.2174   8.3996   8.4977   8.5254   8.6336   8.6493
     8.9606   8.9884   9.0191   9.0626   9.0674   9.0929   9.1813   9.2164
     9.2379   9.3131   9.3288   9.3310   9.3439   9.3531   9.3729   9.4655
     9.4749   9.4959   9.5300   9.5461   9.6480   9.6739   9.6827   9.8052
     9.9359   9.9555   9.9628  10.0042  10.0321  10.0383  10.0545  10.0918
    10.1215  10.1390  10.1460  10.1691  10.2143  10.2753  10.2816  10.2881
    10.3106  10.4324  10.5026  10.5491  10.5743  10.6481  10.6674  10.6767
    10.7875  10.8078  10.8866  10.8879  11.0144  11.0395  11.0502  11.0986
    11.1584  11.2336  11.2425  11.2851  11.2889  11.4432  11.4628  11.4923
    11.5084  11.5539  11.5685  11.6163  11.6366  11.6376  11.6414  11.6963
    11.7898  11.9674  11.9820  11.9927  11.9969  12.0097  12.0131  12.0229
    12.0320  12.0522  12.1372  12.1513  12.1524  12.2498  12.2776  12.3604
    12.4073  12.4149  12.4248  12.5387  12.6677  12.7506  12.7611  13.1738
    13.1894  13.5714  13.6100  14.0762  14.2480  14.7368  14.8035  15.0498
    15.1079  15.2032  15.2199  15.3721  15.8680  16.1521  16.3549  16.3615
    16.4472  16.5072  17.0350  17.0988  17.1025  17.1358  17.1377  17.2640
    17.3070  17.4764  17.7083  17.8471  17.8754  17.8764  17.9017  17.9357
    18.0069  18.0273  18.1636  18.1826  18.2116  18.5161  18.5451  18.7482
    18.7499  18.8863

          k = 0.3750 0.3750-0.0484 ( 13950 PWs)   bands (ev):

   -66.7926 -66.7910 -66.7414 -66.7407 -62.1856 -62.1837 -62.1378 -62.1376
   -35.5571 -35.5553 -35.5211 -35.5210 -35.5196 -35.5196 -35.5122 -35.5116
   -35.4680 -35.4679 -35.4672 -35.4672 -31.0175 -31.0173 -31.0158 -31.0156
   -31.0049 -31.0027 -30.9689 -30.9687 -30.9687 -30.9685 -30.9619 -30.9616
     8.0577   8.1689   8.2601   8.4008   8.4985   8.5117   8.5688   8.7481
     8.8993   9.0095   9.0353   9.0420   9.0934   9.0946   9.1641   9.1788
     9.2674   9.2690   9.3329   9.3412   9.3822   9.3922   9.4024   9.4306
     9.4379   9.4845   9.5591   9.5782   9.5790   9.6333   9.7964   9.8234
     9.8645   9.9165   9.9503   9.9985  10.0042  10.0458  10.1210  10.1217
    10.1375  10.1503  10.1546  10.1664  10.2033  10.2413  10.2568  10.3380
    10.3582  10.3667  10.4261  10.5551  10.6208  10.6440  10.6746  10.7033
    10.8136  10.8158  10.8860  10.8884  10.9351  11.0145  11.0705  11.0981
    11.1724  11.2129  11.2684  11.2761  11.3582  11.4206  11.4691  11.4792
    11.5170  11.5588  11.5658  11.5799  11.6196  11.6309  11.6409  11.6963
    11.8677  11.9166  11.9720  11.9747  11.9972  12.0098  12.0107  12.0325
    12.0552  12.0803  12.1025  12.1337  12.1886  12.2583  12.2711  12.3586
    12.3626  12.4253  12.4528  12.5878  12.6163  12.6652  12.9137  13.0104
    13.3474  13.4467  13.6847  14.0472  14.2754  14.6880  14.8560  15.0365
    15.1358  15.1457  15.2523  15.3693  15.8681  16.1580  16.3264  16.3943
    16.4142  16.5395  17.0262  17.0820  17.1070  17.1357  17.1379  17.2265
    17.3538  17.4928  17.6835  17.8312  17.8661  17.8754  17.8764  18.0139
    18.0236  18.0358  18.1608  18.2152  18.3537  18.3658  18.4203  18.5635
    18.6869  19.0144

          k = 0.3750-0.5000 0.0000 ( 13934 PWs)   bands (ev):

   -66.7927 -66.7911 -66.7415 -66.7408 -62.1854 -62.1835 -62.1376 -62.1374
   -35.5570 -35.5552 -35.5227 -35.5212 -35.5209 -35.5195 -35.5121 -35.5115
   -35.4695 -35.4688 -35.4678 -35.4671 -31.0195 -31.0178 -31.0171 -31.0155
   -31.0048 -31.0025 -30.9710 -30.9708 -30.9686 -30.9684 -30.9617 -30.9614
     8.1826   8.1826   8.3141   8.3149   8.3460   8.3466   8.6464   8.6466
     8.8937   8.8939   9.1324   9.1332   9.1570   9.1571   9.2046   9.2054
     9.2354   9.2356   9.2418   9.2422   9.3247   9.3252   9.3887   9.3891
     9.4479   9.4483   9.5953   9.5955   9.6275   9.6277   9.8683   9.8684
     9.8953   9.8955   9.9771   9.9772  10.0204  10.0206  10.0811  10.0811
    10.1331  10.1336  10.2219  10.2226  10.3059  10.3062  10.4015  10.4017
    10.4153  10.4155  10.6176  10.6180  10.7779  10.7785  10.8004  10.8006
    10.9430  10.9434  11.0894  11.0894  11.1603  11.1609  11.2154  11.2164
    11.2790  11.2795  11.3735  11.3738  11.4404  11.4411  11.5278  11.5279
    11.5555  11.5558  11.6830  11.6834  11.7752  11.7760  11.8350  11.8361
    11.9405  11.9414  11.9855  11.9862  12.0632  12.0636  12.1100  12.1109
    12.1446  12.1455  12.2195  12.2204  12.2407  12.2411  12.3398  12.3399
    12.3911  12.3914  12.5138  12.5143  13.0241  13.0245  13.2553  13.2558
    13.6686  13.6693  13.9177  13.9180  14.2489  14.2497  14.5637  14.5638
    14.9002  14.9004  15.4123  15.4134  15.7176  15.7183  16.0332  16.0332
    16.8141  16.8150  17.0446  17.0457  17.0615  17.0623  17.1404  17.1408
    17.3481  17.3482  17.7250  17.7257  17.9275  17.9279  18.0549  18.0560
    18.0934  18.0938  18.3456  18.3460  18.5040  18.5044  18.7493  18.7496
    18.9476  18.9477

          k = 0.3750-0.5000-0.0484 ( 13940 PWs)   bands (ev):

   -66.7927 -66.7911 -66.7415 -66.7408 -62.1854 -62.1835 -62.1376 -62.1374
   -35.5570 -35.5552 -35.5227 -35.5212 -35.5209 -35.5195 -35.5121 -35.5115
   -35.4695 -35.4688 -35.4678 -35.4671 -31.0195 -31.0178 -31.0171 -31.0155
   -31.0048 -31.0025 -30.9710 -30.9708 -30.9686 -30.9684 -30.9617 -30.9614
     8.1843   8.1844   8.2962   8.2967   8.3679   8.3680   8.6311   8.6313
     8.9254   8.9257   9.0897   9.0902   9.1524   9.1529   9.1986   9.1992
     9.2405   9.2409   9.2700   9.2701   9.3377   9.3380   9.3691   9.3695
     9.4735   9.4740   9.5338   9.5340   9.7346   9.7347   9.7428   9.7429
     9.9585   9.9587   9.9864   9.9867  10.0166  10.0174  10.0761  10.0763
    10.1695  10.1701  10.2090  10.2092  10.2528  10.2534  10.3480  10.3481
    10.5317  10.5318  10.6168  10.6172  10.7278  10.7281  10.7788  10.7795
    10.9806  10.9808  11.0917  11.0918  11.1865  11.1868  11.2069  11.2076
    11.2451  11.2457  11.4012  11.4017  11.4290  11.4293  11.4949  11.4954
    11.5902  11.5903  11.6745  11.6748  11.7759  11.7766  11.8351  11.8361
    11.9424  11.9434  11.9842  11.9848  12.0651  12.0654  12.1011  12.1018
    12.1474  12.1483  12.2114  12.2122  12.2506  12.2508  12.3675  12.3676
    12.3807  12.3809  12.4939  12.4946  13.0409  13.0414  13.2385  13.2390
    13.6809  13.6815  13.9068  13.9071  14.2560  14.2567  14.5577  14.5578
    14.9041  14.9042  15.4105  15.4116  15.7180  15.7187  16.0332  16.0332
    16.8210  16.8220  17.0401  17.0408  17.0601  17.0613  17.1176  17.1180
    17.3932  17.3932  17.6759  17.6764  17.9764  17.9769  18.0567  18.0572
    18.0798  18.0806  18.2879  18.2882  18.5895  18.5898  18.7398  18.7400
    18.9078  18.9080

          k =-0.5000-0.5000 0.0000 ( 13964 PWs)   bands (ev):

   -66.7927 -66.7911 -66.7415 -66.7408 -62.1852 -62.1833 -62.1375 -62.1372
   -35.5569 -35.5551 -35.5225 -35.5225 -35.5211 -35.5211 -35.5120 -35.5114
   -35.4694 -35.4694 -35.4687 -35.4687 -31.0193 -31.0193 -31.0176 -31.0176
   -31.0047 -31.0024 -30.9708 -30.9708 -30.9706 -30.9706 -30.9616 -30.9613
     8.0997   8.0998   8.2325   8.2334   8.2723   8.2730   8.5984   8.5986
     8.8267   8.8268   9.1646   9.1647   9.1816   9.1821   9.2628   9.2628
     9.2945   9.2945   9.3189   9.3189   9.4221   9.4223   9.4381   9.4381
     9.4512   9.4512   9.6898   9.6898   9.6938   9.6938   9.8868   9.8876
     9.9277   9.9277   9.9634   9.9634   9.9647   9.9647  10.0329  10.0339
    10.0395  10.0395  10.0632  10.0632  10.0987  10.0987  10.5481  10.5481
    10.5583  10.5583  10.5590  10.5598  10.6621  10.6625  11.1208  11.1208
    11.1366  11.1367  11.1880  11.1891  11.2401  11.2401  11.2844  11.2856
    11.4231  11.4243  11.4251  11.4253  11.4755  11.4762  11.9225  11.9225
    11.9244  11.9244  11.9594  11.9608  11.9850  11.9856  11.9864  11.9868
    12.0116  12.0119  12.0496  12.0509  12.0775  12.0790  12.0800  12.0802
    12.1069  12.1071  12.1815  12.1827  12.2308  12.2311  12.2942  12.2942
    12.3861  12.3870  12.3950  12.3950  13.4014  13.4025  13.4297  13.4297
    13.8626  13.8626  14.1434  14.1434  14.1576  14.1576  14.6097  14.6097
    15.2329  15.2329  15.9372  15.9372  15.9443  15.9443  16.6214  16.6226
    16.6936  16.6936  16.7168  16.7176  16.8848  16.8857  17.1325  17.1335
    17.4103  17.4103  17.7711  17.7713  17.8773  17.8778  18.0670  18.0685
    18.0859  18.0862  18.1156  18.1162  18.1443  18.1443  18.1452  18.1452
    18.4364  18.4372

          k =-0.5000-0.5000-0.0484 ( 13992 PWs)   bands (ev):

   -66.7927 -66.7911 -66.7415 -66.7408 -62.1852 -62.1833 -62.1375 -62.1372
   -35.5569 -35.5551 -35.5225 -35.5225 -35.5211 -35.5211 -35.5120 -35.5114
   -35.4694 -35.4694 -35.4687 -35.4687 -31.0193 -31.0193 -31.0176 -31.0176
   -31.0047 -31.0024 -30.9708 -30.9708 -30.9706 -30.9706 -30.9616 -30.9613
     8.1014   8.1015   8.2167   8.2173   8.2922   8.2925   8.5796   8.5797
     8.8699   8.8701   9.0519   9.0523   9.2701   9.2701   9.2758   9.2758
     9.3173   9.3177   9.3560   9.3560   9.3657   9.3664   9.3719   9.3719
     9.5518   9.5518   9.5547   9.5547   9.8569   9.8569   9.8658   9.8658
     9.8933   9.8941   9.9278   9.9278   9.9636   9.9636   9.9649   9.9649
    10.0295  10.0305  10.0703  10.0703  10.2781  10.2781  10.3223  10.3223
    10.5592  10.5600  10.6620  10.6624  10.7424  10.7424  10.9774  10.9774
    11.1367  11.1368  11.1877  11.1888  11.2847  11.2859  11.3595  11.3595
    11.4231  11.4243  11.4250  11.4252  11.4755  11.4762  11.7711  11.7711
    11.9594  11.9608  11.9850  11.9856  11.9864  11.9868  12.0116  12.0119
    12.0496  12.0509  12.0616  12.0616  12.0775  12.0790  12.0800  12.0802
    12.1069  12.1071  12.1823  12.1835  12.2291  12.2295  12.2952  12.2952
    12.3720  12.3720  12.3859  12.3868  13.4014  13.4025  13.4297  13.4297
    13.9179  13.9179  14.0030  14.0030  14.2523  14.2523  14.6017  14.6017
    15.2330  15.2330  15.9286  15.9286  15.9540  15.9540  16.6214  16.6226
    16.6843  16.6843  16.7168  16.7176  16.8850  16.8858  17.1320  17.1330
    17.4822  17.4822  17.8131  17.8137  17.8216  17.8227  17.8355  17.8355
    18.0670  18.0685  18.1030  18.1031  18.1156  18.1162  18.4328  18.4336
    18.6374  18.6374

     the Fermi energy is    15.3013 ev

!    total energy              =  -14693.99921762 Ry
     Harris-Foulkes estimate   =  -14693.99921503 Ry
     estimated scf accuracy    <       0.00000038 Ry

     total all-electron energy =   -626921.594940 Ry

     The total energy is the sum of the following terms:

     one-electron contribution =    -714.32462805 Ry
     hartree contribution      =     656.42200165 Ry
     xc contribution           =    -737.89612073 Ry
     ewald contribution        =   -2196.78933708 Ry
     Hubbard energy            =       0.44340247 Ry
     one-center paw contrib.   =  -11701.85453587 Ry

     total magnetization       =    -0.00 Bohr mag/cell
     absolute magnetization    =    37.38 Bohr mag/cell

     convergence has been achieved in  31 iterations

     Writing output data file mnau2.save/
 
     init_run     :     14.05s CPU     14.41s WALL (       1 calls)
     electrons    :    920.01s CPU    941.71s WALL (       1 calls)

     Called by init_run:
     wfcinit      :     12.52s CPU     12.80s WALL (       1 calls)
     potinit      :      0.74s CPU      0.76s WALL (       1 calls)
     hinit0       :      0.51s CPU      0.54s WALL (       1 calls)

     Called by electrons:
     c_bands      :    794.77s CPU    812.77s WALL (      31 calls)
     sum_band     :    108.24s CPU    111.39s WALL (      31 calls)
     v_of_rho     :      1.50s CPU      1.51s WALL (      32 calls)
     newd         :      4.05s CPU      4.08s WALL (      32 calls)
     PAW_pot      :     11.41s CPU     11.54s WALL (      32 calls)
     mix_rho      :      0.36s CPU      0.37s WALL (      31 calls)

     Called by c_bands:
     init_us_2    :      4.70s CPU      4.76s WALL (    3840 calls)
     cegterg      :    763.03s CPU    780.77s WALL (    1860 calls)

     Called by sum_band:
     sum_band:bec :      1.33s CPU      1.34s WALL (    1860 calls)
     addusdens    :      6.48s CPU      6.80s WALL (      31 calls)

     Called by *egterg:
     h_psi        :    359.48s CPU    368.66s WALL (    5580 calls)
     s_psi        :     35.58s CPU     35.62s WALL (    5640 calls)
     g_psi        :      1.28s CPU      1.28s WALL (    3660 calls)
     cdiaghg      :    262.89s CPU    271.03s WALL (    5520 calls)

     Called by h_psi:
     h_psi:pot    :    340.20s CPU    349.18s WALL (    5580 calls)
     h_psi:calbec :     48.25s CPU     49.90s WALL (    5580 calls)
     vloc_psi     :    257.34s CPU    263.99s WALL (    5580 calls)
     add_vuspsi   :     34.57s CPU     35.26s WALL (    5580 calls)
     vhpsi        :     18.38s CPU     18.57s WALL (    5580 calls)

     General routines
     calbec       :     86.73s CPU     89.53s WALL (   14940 calls)
     fft          :      1.47s CPU      1.52s WALL (     796 calls)
     ffts         :      0.06s CPU      0.06s WALL (     126 calls)
     fftw         :    305.07s CPU    313.26s WALL ( 1751442 calls)
     interpolate  :      0.12s CPU      0.12s WALL (      64 calls)
     davcio       :      0.00s CPU      0.01s WALL (      60 calls)
 
     Parallel routines
     fft_scatt_xy :     18.90s CPU     19.27s WALL ( 1752364 calls)
     fft_scatt_yz :    206.33s CPU    212.35s WALL ( 1752364 calls)

     Hubbard U routines
     new_ns       :      3.50s CPU      3.57s WALL (      31 calls)
     vhpsi        :     18.38s CPU     18.57s WALL (    5580 calls)
 
     PWSCF        : 15m43.54s CPU    16m27.64s WALL

 
   This run was terminated on:  22:46:28   6Apr2019            

=------------------------------------------------------------------------------=
   JOB DONE.
=------------------------------------------------------------------------------=
