
     Program PWSCF v.6.3MaX starts on  7Apr2019 at 19:16:33 

     This program is part of the open-source Quantum ESPRESSO suite
     for quantum simulation of materials; please cite
         "P. Giannozzi et al., J. Phys.:Condens. Matter 21 395502 (2009);
         "P. Giannozzi et al., J. Phys.:Condens. Matter 29 465901 (2017);
          URL http://www.quantum-espresso.org", 
     in publications or presentations arising from this work. More details at
     http://www.quantum-espresso.org/quote

     Parallel version (MPI), running on    42 processors

     MPI processes distributed on     2 nodes
     R & G space division:  proc/nbgrp/npool/nimage =      42
     Waiting for input...
     Reading input from standard input

     Current dimensions of program PWSCF are:
     Max number of different atomic species (ntypx) = 10
     Max number of k-points (npk) =  40000
     Max angular momentum in pseudopotentials (lmaxx) =  3
               file Mn.pbe-spn-kjpaw_psl.0.3.1.UPF: wavefunction(s)  3P 3D renormalized
               file Mn.pbe-spn-kjpaw_psl.0.3.1.UPF: wavefunction(s)  3P 3D renormalized
               file Au.pbe-dn-kjpaw_psl.0.1.UPF: wavefunction(s)  6S 6P 5D renormalized

     Subspace diagonalization in iterative solution of the eigenvalue problem:
     one sub-group per band group will be used
     scalapack distributed-memory algorithm (size of sub-group:  4*  4 procs)

     Found symmetry operation: I + (  0.0000  0.0000 -0.5000)
     This is a supercell, fractional translations are disabled
 
     Parallelization info
     --------------------
     sticks:   dense  smooth     PW     G-vecs:    dense   smooth      PW
     Min          31      14      4                 8757     2632     428
     Max          32      15      5                 8810     2668     473
     Sum        1313     593    177               368373   111379   18691
 


     bravais-lattice index     =            0
     lattice parameter (alat)  =       6.4153  a.u.
     unit-cell volume          =    2724.7774 (a.u.)^3
     number of atoms/cell      =           24
     number of atomic types    =            3
     number of electrons       =       296.00
     number of Kohn-Sham states=          178
     kinetic-energy cutoff     =      45.0000  Ry
     charge density cutoff     =     400.0000  Ry
     convergence threshold     =      1.0E-06
     mixing beta               =       0.1000
     number of iterations used =            8  plain     mixing
     Exchange-correlation      = SLA PW PBX PBC ( 1  4  3  4 0 0)

     celldm(1)=   6.415315  celldm(2)=   0.000000  celldm(3)=   0.000000
     celldm(4)=   0.000000  celldm(5)=   0.000000  celldm(6)=   0.000000

     crystal axes: (cart. coord. in units of alat)
               a(1) = (   1.000000   0.000000   0.000000 )  
               a(2) = (   0.000000   1.000000   0.000000 )  
               a(3) = (   0.000000   0.000000  10.319937 )  

     reciprocal axes: (cart. coord. in units 2 pi/alat)
               b(1) = (  1.000000  0.000000  0.000000 )  
               b(2) = (  0.000000  1.000000  0.000000 )  
               b(3) = (  0.000000  0.000000  0.096900 )  


     PseudoPot. # 1 for Mn read from file:
     ./pseudo/Mn.pbe-spn-kjpaw_psl.0.3.1.UPF
     MD5 check sum: 7b43a3fb0e93e198b8dd8488d8cf503e
     Pseudo is Projector augmented-wave + core cor, Zval = 15.0
     Generated using "atomic" code by A. Dal Corso v.5.0.99 svn rev. 10869
     Shape of augmentation charge: PSQ
     Using radial grid of 1187 points,  6 beta functions with: 
                l(1) =   0
                l(2) =   0
                l(3) =   1
                l(4) =   1
                l(5) =   2
                l(6) =   2
     Q(r) pseudized with 0 coefficients 


     PseudoPot. # 2 for Mn read from file:
     ./pseudo/Mn.pbe-spn-kjpaw_psl.0.3.1.UPF
     MD5 check sum: 7b43a3fb0e93e198b8dd8488d8cf503e
     Pseudo is Projector augmented-wave + core cor, Zval = 15.0
     Generated using "atomic" code by A. Dal Corso v.5.0.99 svn rev. 10869
     Shape of augmentation charge: PSQ
     Using radial grid of 1187 points,  6 beta functions with: 
                l(1) =   0
                l(2) =   0
                l(3) =   1
                l(4) =   1
                l(5) =   2
                l(6) =   2
     Q(r) pseudized with 0 coefficients 


     PseudoPot. # 3 for Au read from file:
     ./pseudo/Au.pbe-dn-kjpaw_psl.0.1.UPF
     MD5 check sum: be11e2e8e535ebe2b3ccfb4f88f554cb
     Pseudo is Projector augmented-wave + core cor, Zval = 11.0
     Generated using "atomic" code by A. Dal Corso v.5.0.2 svn rev. 9415
     Shape of augmentation charge: PSQ
     Using radial grid of 1279 points,  6 beta functions with: 
                l(1) =   0
                l(2) =   0
                l(3) =   1
                l(4) =   1
                l(5) =   2
                l(6) =   2
     Q(r) pseudized with 0 coefficients 


     atomic species   valence    mass     pseudopotential
        Mn1           15.00    54.93800     Mn( 1.00)
        Mn2           15.00    54.93800     Mn( 1.00)
        Au            11.00   196.96600     Au( 1.00)

     Starting magnetic structure 
     atomic species   magnetization
        Mn1          0.800
        Mn2         -0.800
        Au           0.000


     Full LDA+U calculation (l_max = 2) with parameters (eV):
     U(  1) =   3.1200   J(  1) =   0.7000   B(  1) =   0.0803
     U(  2) =   3.1200   J(  2) =   0.7000   B(  2) =   0.0803



      8 Sym. Ops. (no inversion) found



   Cartesian axes

     site n.     atom                  positions (alat units)
         1           Mn1 tau(   1) = (   0.0000000   0.0000000   0.0000000  )
         2           Mn1 tau(   2) = (   0.5000000   0.5000000   1.2899921  )
         3           Mn2 tau(   3) = (   0.0000000   0.0000000   2.5799843  )
         4           Mn2 tau(   4) = (   0.5000000   0.5000000   3.8699764  )
         5           Mn1 tau(   5) = (   0.0000000   0.0000000   5.1599686  )
         6           Mn1 tau(   6) = (   0.5000000   0.5000000   6.4499607  )
         7           Mn2 tau(   7) = (   0.0000000   0.0000000   7.7399528  )
         8           Mn2 tau(   8) = (   0.5000000   0.5000000   9.0299450  )
         9           Au  tau(   9) = (   0.5000000   0.5000000   0.4127975  )
        10           Au  tau(  10) = (   0.0000000   0.0000000   0.8771947  )
        11           Au  tau(  11) = (   0.0000000   0.0000000   1.7027896  )
        12           Au  tau(  12) = (   0.5000000   0.5000000   2.1671868  )
        13           Au  tau(  13) = (   0.5000000   0.5000000   2.9927818  )
        14           Au  tau(  14) = (   0.0000000   0.0000000   3.4571789  )
        15           Au  tau(  15) = (   0.0000000   0.0000000   4.2827739  )
        16           Au  tau(  16) = (   0.5000000   0.5000000   4.7471711  )
        17           Au  tau(  17) = (   0.5000000   0.5000000   5.5727660  )
        18           Au  tau(  18) = (   0.0000000   0.0000000   6.0371632  )
        19           Au  tau(  19) = (   0.0000000   0.0000000   6.8627582  )
        20           Au  tau(  20) = (   0.5000000   0.5000000   7.3271553  )
        21           Au  tau(  21) = (   0.5000000   0.5000000   8.1527503  )
        22           Au  tau(  22) = (   0.0000000   0.0000000   8.6171475  )
        23           Au  tau(  23) = (   0.0000000   0.0000000   9.4427424  )
        24           Au  tau(  24) = (   0.5000000   0.5000000   9.9071396  )

     number of k points=    30 (tetrahedron method)
                       cart. coord. in units 2pi/alat
        k(    1) = (   0.0000000   0.0000000   0.0000000), wk =   0.0078125
        k(    2) = (   0.0000000   0.0000000  -0.0484499), wk =   0.0078125
        k(    3) = (   0.0000000   0.1250000   0.0000000), wk =   0.0312500
        k(    4) = (   0.0000000   0.1250000  -0.0484499), wk =   0.0312500
        k(    5) = (   0.0000000   0.2500000   0.0000000), wk =   0.0312500
        k(    6) = (   0.0000000   0.2500000  -0.0484499), wk =   0.0312500
        k(    7) = (   0.0000000   0.3750000   0.0000000), wk =   0.0312500
        k(    8) = (   0.0000000   0.3750000  -0.0484499), wk =   0.0312500
        k(    9) = (   0.0000000  -0.5000000   0.0000000), wk =   0.0156250
        k(   10) = (   0.0000000  -0.5000000  -0.0484499), wk =   0.0156250
        k(   11) = (   0.1250000   0.1250000   0.0000000), wk =   0.0312500
        k(   12) = (   0.1250000   0.1250000  -0.0484499), wk =   0.0312500
        k(   13) = (   0.1250000   0.2500000   0.0000000), wk =   0.0625000
        k(   14) = (   0.1250000   0.2500000  -0.0484499), wk =   0.0625000
        k(   15) = (   0.1250000   0.3750000   0.0000000), wk =   0.0625000
        k(   16) = (   0.1250000   0.3750000  -0.0484499), wk =   0.0625000
        k(   17) = (   0.1250000  -0.5000000   0.0000000), wk =   0.0312500
        k(   18) = (   0.1250000  -0.5000000  -0.0484499), wk =   0.0312500
        k(   19) = (   0.2500000   0.2500000   0.0000000), wk =   0.0312500
        k(   20) = (   0.2500000   0.2500000  -0.0484499), wk =   0.0312500
        k(   21) = (   0.2500000   0.3750000   0.0000000), wk =   0.0625000
        k(   22) = (   0.2500000   0.3750000  -0.0484499), wk =   0.0625000
        k(   23) = (   0.2500000  -0.5000000   0.0000000), wk =   0.0312500
        k(   24) = (   0.2500000  -0.5000000  -0.0484499), wk =   0.0312500
        k(   25) = (   0.3750000   0.3750000   0.0000000), wk =   0.0312500
        k(   26) = (   0.3750000   0.3750000  -0.0484499), wk =   0.0312500
        k(   27) = (   0.3750000  -0.5000000   0.0000000), wk =   0.0312500
        k(   28) = (   0.3750000  -0.5000000  -0.0484499), wk =   0.0312500
        k(   29) = (  -0.5000000  -0.5000000   0.0000000), wk =   0.0078125
        k(   30) = (  -0.5000000  -0.5000000  -0.0484499), wk =   0.0078125

     Dense  grid:   368373 G-vectors     FFT dimensions: (  45,  45, 432)

     Smooth grid:   111379 G-vectors     FFT dimensions: (  27,  27, 288)

     Estimated max dynamical RAM per process >     110.44 MB

     Estimated total dynamical RAM >       4.53 GB
     Generating pointlists ...
     new r_m :   0.3377 (alat units)  2.1668 (a.u.) for type    1
     new r_m :   0.3377 (alat units)  2.1668 (a.u.) for type    2
     new r_m :   0.3377 (alat units)  2.1668 (a.u.) for type    3

     Check: negative/imaginary core charge=   -0.000006    0.000000

     Initial potential from superposition of free atoms

     starting charge  295.99426, renormalised to  296.00000
     Number of +U iterations with fixed ns =  0
     Starting occupations:
 --- enter write_ns ---
 LDA+U parameters:
U(  1) =   3.1200   J(  1) =   0.7000   B(  1) =   0.0803
U(  2) =   3.1200   J(  2) =   0.7000   B(  2) =   0.0803
atom    1   Tr[ns(na)] (up, down, total) =   5.00000  0.00000  5.00000
   spin  1
    eigenvalues: 
  1.000  1.000  1.000  1.000  1.000
    eigenvectors:
  1.000  0.000  0.000  0.000  0.000
  0.000  1.000  0.000  0.000  0.000
  0.000  0.000  1.000  0.000  0.000
  0.000  0.000  0.000  1.000  0.000
  0.000  0.000  0.000  0.000  1.000
    occupations:
  1.000  0.000  0.000  0.000  0.000
  0.000  1.000  0.000  0.000  0.000
  0.000  0.000  1.000  0.000  0.000
  0.000  0.000  0.000  1.000  0.000
  0.000  0.000  0.000  0.000  1.000
   spin  2
    eigenvalues: 
  0.000  0.000  0.000  0.000  0.000
    eigenvectors:
  1.000  0.000  0.000  0.000  0.000
  0.000  1.000  0.000  0.000  0.000
  0.000  0.000  1.000  0.000  0.000
  0.000  0.000  0.000  1.000  0.000
  0.000  0.000  0.000  0.000  1.000
    occupations:
  0.000  0.000  0.000  0.000  0.000
  0.000  0.000  0.000  0.000  0.000
  0.000  0.000  0.000  0.000  0.000
  0.000  0.000  0.000  0.000  0.000
  0.000  0.000  0.000  0.000  0.000
atomic mag. moment =     5.000000
atom    2   Tr[ns(na)] (up, down, total) =   5.00000  0.00000  5.00000
   spin  1
    eigenvalues: 
  1.000  1.000  1.000  1.000  1.000
    eigenvectors:
  1.000  0.000  0.000  0.000  0.000
  0.000  1.000  0.000  0.000  0.000
  0.000  0.000  1.000  0.000  0.000
  0.000  0.000  0.000  1.000  0.000
  0.000  0.000  0.000  0.000  1.000
    occupations:
  1.000  0.000  0.000  0.000  0.000
  0.000  1.000  0.000  0.000  0.000
  0.000  0.000  1.000  0.000  0.000
  0.000  0.000  0.000  1.000  0.000
  0.000  0.000  0.000  0.000  1.000
   spin  2
    eigenvalues: 
  0.000  0.000  0.000  0.000  0.000
    eigenvectors:
  1.000  0.000  0.000  0.000  0.000
  0.000  1.000  0.000  0.000  0.000
  0.000  0.000  1.000  0.000  0.000
  0.000  0.000  0.000  1.000  0.000
  0.000  0.000  0.000  0.000  1.000
    occupations:
  0.000  0.000  0.000  0.000  0.000
  0.000  0.000  0.000  0.000  0.000
  0.000  0.000  0.000  0.000  0.000
  0.000  0.000  0.000  0.000  0.000
  0.000  0.000  0.000  0.000  0.000
atomic mag. moment =     5.000000
atom    3   Tr[ns(na)] (up, down, total) =   0.00000  5.00000  5.00000
   spin  1
    eigenvalues: 
  0.000  0.000  0.000  0.000  0.000
    eigenvectors:
  1.000  0.000  0.000  0.000  0.000
  0.000  1.000  0.000  0.000  0.000
  0.000  0.000  1.000  0.000  0.000
  0.000  0.000  0.000  1.000  0.000
  0.000  0.000  0.000  0.000  1.000
    occupations:
  0.000  0.000  0.000  0.000  0.000
  0.000  0.000  0.000  0.000  0.000
  0.000  0.000  0.000  0.000  0.000
  0.000  0.000  0.000  0.000  0.000
  0.000  0.000  0.000  0.000  0.000
   spin  2
    eigenvalues: 
  1.000  1.000  1.000  1.000  1.000
    eigenvectors:
  1.000  0.000  0.000  0.000  0.000
  0.000  1.000  0.000  0.000  0.000
  0.000  0.000  1.000  0.000  0.000
  0.000  0.000  0.000  1.000  0.000
  0.000  0.000  0.000  0.000  1.000
    occupations:
  1.000  0.000  0.000  0.000  0.000
  0.000  1.000  0.000  0.000  0.000
  0.000  0.000  1.000  0.000  0.000
  0.000  0.000  0.000  1.000  0.000
  0.000  0.000  0.000  0.000  1.000
atomic mag. moment =    -5.000000
atom    4   Tr[ns(na)] (up, down, total) =   0.00000  5.00000  5.00000
   spin  1
    eigenvalues: 
  0.000  0.000  0.000  0.000  0.000
    eigenvectors:
  1.000  0.000  0.000  0.000  0.000
  0.000  1.000  0.000  0.000  0.000
  0.000  0.000  1.000  0.000  0.000
  0.000  0.000  0.000  1.000  0.000
  0.000  0.000  0.000  0.000  1.000
    occupations:
  0.000  0.000  0.000  0.000  0.000
  0.000  0.000  0.000  0.000  0.000
  0.000  0.000  0.000  0.000  0.000
  0.000  0.000  0.000  0.000  0.000
  0.000  0.000  0.000  0.000  0.000
   spin  2
    eigenvalues: 
  1.000  1.000  1.000  1.000  1.000
    eigenvectors:
  1.000  0.000  0.000  0.000  0.000
  0.000  1.000  0.000  0.000  0.000
  0.000  0.000  1.000  0.000  0.000
  0.000  0.000  0.000  1.000  0.000
  0.000  0.000  0.000  0.000  1.000
    occupations:
  1.000  0.000  0.000  0.000  0.000
  0.000  1.000  0.000  0.000  0.000
  0.000  0.000  1.000  0.000  0.000
  0.000  0.000  0.000  1.000  0.000
  0.000  0.000  0.000  0.000  1.000
atomic mag. moment =    -5.000000
atom    5   Tr[ns(na)] (up, down, total) =   5.00000  0.00000  5.00000
   spin  1
    eigenvalues: 
  1.000  1.000  1.000  1.000  1.000
    eigenvectors:
  1.000  0.000  0.000  0.000  0.000
  0.000  1.000  0.000  0.000  0.000
  0.000  0.000  1.000  0.000  0.000
  0.000  0.000  0.000  1.000  0.000
  0.000  0.000  0.000  0.000  1.000
    occupations:
  1.000  0.000  0.000  0.000  0.000
  0.000  1.000  0.000  0.000  0.000
  0.000  0.000  1.000  0.000  0.000
  0.000  0.000  0.000  1.000  0.000
  0.000  0.000  0.000  0.000  1.000
   spin  2
    eigenvalues: 
  0.000  0.000  0.000  0.000  0.000
    eigenvectors:
  1.000  0.000  0.000  0.000  0.000
  0.000  1.000  0.000  0.000  0.000
  0.000  0.000  1.000  0.000  0.000
  0.000  0.000  0.000  1.000  0.000
  0.000  0.000  0.000  0.000  1.000
    occupations:
  0.000  0.000  0.000  0.000  0.000
  0.000  0.000  0.000  0.000  0.000
  0.000  0.000  0.000  0.000  0.000
  0.000  0.000  0.000  0.000  0.000
  0.000  0.000  0.000  0.000  0.000
atomic mag. moment =     5.000000
atom    6   Tr[ns(na)] (up, down, total) =   5.00000  0.00000  5.00000
   spin  1
    eigenvalues: 
  1.000  1.000  1.000  1.000  1.000
    eigenvectors:
  1.000  0.000  0.000  0.000  0.000
  0.000  1.000  0.000  0.000  0.000
  0.000  0.000  1.000  0.000  0.000
  0.000  0.000  0.000  1.000  0.000
  0.000  0.000  0.000  0.000  1.000
    occupations:
  1.000  0.000  0.000  0.000  0.000
  0.000  1.000  0.000  0.000  0.000
  0.000  0.000  1.000  0.000  0.000
  0.000  0.000  0.000  1.000  0.000
  0.000  0.000  0.000  0.000  1.000
   spin  2
    eigenvalues: 
  0.000  0.000  0.000  0.000  0.000
    eigenvectors:
  1.000  0.000  0.000  0.000  0.000
  0.000  1.000  0.000  0.000  0.000
  0.000  0.000  1.000  0.000  0.000
  0.000  0.000  0.000  1.000  0.000
  0.000  0.000  0.000  0.000  1.000
    occupations:
  0.000  0.000  0.000  0.000  0.000
  0.000  0.000  0.000  0.000  0.000
  0.000  0.000  0.000  0.000  0.000
  0.000  0.000  0.000  0.000  0.000
  0.000  0.000  0.000  0.000  0.000
atomic mag. moment =     5.000000
atom    7   Tr[ns(na)] (up, down, total) =   0.00000  5.00000  5.00000
   spin  1
    eigenvalues: 
  0.000  0.000  0.000  0.000  0.000
    eigenvectors:
  1.000  0.000  0.000  0.000  0.000
  0.000  1.000  0.000  0.000  0.000
  0.000  0.000  1.000  0.000  0.000
  0.000  0.000  0.000  1.000  0.000
  0.000  0.000  0.000  0.000  1.000
    occupations:
  0.000  0.000  0.000  0.000  0.000
  0.000  0.000  0.000  0.000  0.000
  0.000  0.000  0.000  0.000  0.000
  0.000  0.000  0.000  0.000  0.000
  0.000  0.000  0.000  0.000  0.000
   spin  2
    eigenvalues: 
  1.000  1.000  1.000  1.000  1.000
    eigenvectors:
  1.000  0.000  0.000  0.000  0.000
  0.000  1.000  0.000  0.000  0.000
  0.000  0.000  1.000  0.000  0.000
  0.000  0.000  0.000  1.000  0.000
  0.000  0.000  0.000  0.000  1.000
    occupations:
  1.000  0.000  0.000  0.000  0.000
  0.000  1.000  0.000  0.000  0.000
  0.000  0.000  1.000  0.000  0.000
  0.000  0.000  0.000  1.000  0.000
  0.000  0.000  0.000  0.000  1.000
atomic mag. moment =    -5.000000
atom    8   Tr[ns(na)] (up, down, total) =   0.00000  5.00000  5.00000
   spin  1
    eigenvalues: 
  0.000  0.000  0.000  0.000  0.000
    eigenvectors:
  1.000  0.000  0.000  0.000  0.000
  0.000  1.000  0.000  0.000  0.000
  0.000  0.000  1.000  0.000  0.000
  0.000  0.000  0.000  1.000  0.000
  0.000  0.000  0.000  0.000  1.000
    occupations:
  0.000  0.000  0.000  0.000  0.000
  0.000  0.000  0.000  0.000  0.000
  0.000  0.000  0.000  0.000  0.000
  0.000  0.000  0.000  0.000  0.000
  0.000  0.000  0.000  0.000  0.000
   spin  2
    eigenvalues: 
  1.000  1.000  1.000  1.000  1.000
    eigenvectors:
  1.000  0.000  0.000  0.000  0.000
  0.000  1.000  0.000  0.000  0.000
  0.000  0.000  1.000  0.000  0.000
  0.000  0.000  0.000  1.000  0.000
  0.000  0.000  0.000  0.000  1.000
    occupations:
  1.000  0.000  0.000  0.000  0.000
  0.000  1.000  0.000  0.000  0.000
  0.000  0.000  1.000  0.000  0.000
  0.000  0.000  0.000  1.000  0.000
  0.000  0.000  0.000  0.000  1.000
atomic mag. moment =    -5.000000
N of occupied +U levels =   40.000000
 --- exit write_ns ---
 Atomic wfc used for LDA+U Projector are NOT orthogonalized
     Starting wfcs are  224 randomized atomic wfcs
     Checking if some PAW data can be deallocated... 

     total cpu time spent up to now is       61.7 secs

     Self-consistent Calculation

     iteration #  1     ecut=    45.00 Ry     beta= 0.10
     Davidson diagonalization with overlap
     ethr =  1.00E-02,  avg # of iterations =  4.2
 --- enter write_ns ---
 LDA+U parameters:
U(  1) =   3.1200   J(  1) =   0.7000   B(  1) =   0.0803
U(  2) =   3.1200   J(  2) =   0.7000   B(  2) =   0.0803
atom    1   Tr[ns(na)] (up, down, total) =   5.01745  0.40935  5.42679
   spin  1
    eigenvalues: 
  1.003  1.003  1.003  1.004  1.004
    eigenvectors:
  0.000  0.000  0.000  1.000  0.000
  0.000  0.380  0.620  0.000  0.000
  0.000  0.620  0.380  0.000  0.000
  0.000  0.000  0.000  0.000  1.000
  1.000  0.000  0.000  0.000  0.000
    occupations:
  1.004 -0.000 -0.000  0.000  0.000
 -0.000  1.003 -0.000  0.000  0.000
 -0.000 -0.000  1.003  0.000  0.000
  0.000  0.000  0.000  1.004 -0.000
  0.000  0.000  0.000 -0.000  1.003
   spin  2
    eigenvalues: 
  0.053  0.075  0.081  0.081  0.119
    eigenvectors:
  0.000  1.000  0.000  0.000  0.000
  0.000  0.000  0.328  0.672  0.000
  0.000  0.000  0.672  0.328  0.000
  1.000  0.000  0.000  0.000  0.000
  0.000  0.000  0.000  0.000  1.000
    occupations:
  0.075 -0.000 -0.000  0.000  0.000
 -0.000  0.081 -0.000  0.000  0.000
 -0.000 -0.000  0.081  0.000  0.000
  0.000  0.000  0.000  0.053 -0.000
  0.000  0.000  0.000 -0.000  0.119
atomic mag. moment =     4.608099
atom    2   Tr[ns(na)] (up, down, total) =   5.01752  0.41136  5.42887
   spin  1
    eigenvalues: 
  1.003  1.003  1.003  1.004  1.004
    eigenvectors:
  0.000  0.000  0.000  1.000  0.000
  0.000  0.366  0.634  0.000  0.000
  0.000  0.634  0.366  0.000  0.000
  0.000  0.000  0.000  0.000  1.000
  1.000  0.000  0.000  0.000  0.000
    occupations:
  1.004 -0.000 -0.000  0.000  0.000
 -0.000  1.003 -0.000  0.000  0.000
 -0.000 -0.000  1.003  0.000  0.000
  0.000  0.000  0.000  1.004 -0.000
  0.000  0.000  0.000 -0.000  1.003
   spin  2
    eigenvalues: 
  0.053  0.075  0.081  0.081  0.121
    eigenvectors:
  0.000  1.000  0.000  0.000  0.000
  0.000  0.000  0.323  0.677  0.000
  0.000  0.000  0.677  0.323  0.000
  1.000  0.000  0.000  0.000  0.000
  0.000  0.000  0.000  0.000  1.000
    occupations:
  0.075 -0.000 -0.000  0.000  0.000
 -0.000  0.081 -0.000  0.000  0.000
 -0.000 -0.000  0.081  0.000  0.000
  0.000  0.000  0.000  0.053 -0.000
  0.000  0.000  0.000 -0.000  0.121
atomic mag. moment =     4.606160
atom    3   Tr[ns(na)] (up, down, total) =   0.41282  5.01748  5.43030
   spin  1
    eigenvalues: 
  0.053  0.075  0.082  0.082  0.121
    eigenvectors:
  0.000  1.000  0.000  0.000  0.000
  0.000  0.000  0.406  0.594  0.000
  0.000  0.000  0.594  0.406  0.000
  1.000  0.000  0.000  0.000  0.000
  0.000  0.000  0.000  0.000  1.000
    occupations:
  0.075 -0.000 -0.000  0.000  0.000
 -0.000  0.082 -0.000  0.000  0.000
 -0.000 -0.000  0.082  0.000  0.000
  0.000  0.000  0.000  0.053 -0.000
  0.000  0.000  0.000 -0.000  0.121
   spin  2
    eigenvalues: 
  1.003  1.003  1.003  1.004  1.004
    eigenvectors:
  0.000  0.000  0.000  1.000  0.000
  0.000  0.262  0.738  0.000  0.000
  0.000  0.738  0.262  0.000  0.000
  0.000  0.000  0.000  0.000  1.000
  1.000  0.000  0.000  0.000  0.000
    occupations:
  1.004 -0.000 -0.000  0.000  0.000
 -0.000  1.003 -0.000  0.000  0.000
 -0.000 -0.000  1.003  0.000  0.000
  0.000  0.000  0.000  1.004 -0.000
  0.000  0.000  0.000 -0.000  1.003
atomic mag. moment =    -4.604665
atom    4   Tr[ns(na)] (up, down, total) =   0.41268  5.01735  5.43002
   spin  1
    eigenvalues: 
  0.053  0.075  0.082  0.082  0.121
    eigenvectors:
  0.000  1.000  0.000  0.000  0.000
  0.000  0.000  0.391  0.609  0.000
  0.000  0.000  0.609  0.391  0.000
  1.000  0.000  0.000  0.000  0.000
  0.000  0.000  0.000  0.000  1.000
    occupations:
  0.075 -0.000 -0.000  0.000  0.000
 -0.000  0.082 -0.000  0.000  0.000
 -0.000 -0.000  0.082  0.000  0.000
  0.000  0.000  0.000  0.053 -0.000
  0.000  0.000  0.000 -0.000  0.121
   spin  2
    eigenvalues: 
  1.003  1.003  1.003  1.004  1.004
    eigenvectors:
  0.000  0.000  0.000  1.000  0.000
  0.000  0.353  0.647  0.000  0.000
  0.000  0.647  0.353  0.000  0.000
  0.000  0.000  0.000  0.000  1.000
  1.000  0.000  0.000  0.000  0.000
    occupations:
  1.004 -0.000 -0.000  0.000  0.000
 -0.000  1.003 -0.000  0.000  0.000
 -0.000 -0.000  1.003  0.000  0.000
  0.000  0.000  0.000  1.004 -0.000
  0.000  0.000  0.000 -0.000  1.003
atomic mag. moment =    -4.604670
atom    5   Tr[ns(na)] (up, down, total) =   5.01749  0.41445  5.43195
   spin  1
    eigenvalues: 
  1.003  1.003  1.003  1.004  1.004
    eigenvectors:
  0.000  0.000  0.000  1.000  0.000
  0.000  0.256  0.744  0.000  0.000
  0.000  0.744  0.256  0.000  0.000
  0.000  0.000  0.000  0.000  1.000
  1.000  0.000  0.000  0.000  0.000
    occupations:
  1.004 -0.000 -0.000  0.000  0.000
 -0.000  1.003 -0.000  0.000  0.000
 -0.000 -0.000  1.003  0.000  0.000
  0.000  0.000  0.000  1.004 -0.000
  0.000  0.000  0.000 -0.000  1.003
   spin  2
    eigenvalues: 
  0.053  0.075  0.082  0.082  0.122
    eigenvectors:
  0.000  1.000  0.000  0.000  0.000
  0.000  0.000  0.346  0.654  0.000
  0.000  0.000  0.654  0.346  0.000
  1.000  0.000  0.000  0.000  0.000
  0.000  0.000  0.000  0.000  1.000
    occupations:
  0.075 -0.000 -0.000  0.000  0.000
 -0.000  0.082 -0.000  0.000  0.000
 -0.000 -0.000  0.082  0.000  0.000
  0.000  0.000  0.000  0.053 -0.000
  0.000  0.000  0.000 -0.000  0.122
atomic mag. moment =     4.603043
atom    6   Tr[ns(na)] (up, down, total) =   5.01759  0.41288  5.43047
   spin  1
    eigenvalues: 
  1.003  1.003  1.003  1.004  1.004
    eigenvectors:
  0.000  0.000  0.000  1.000  0.000
  0.000  0.322  0.678  0.000  0.000
  0.000  0.678  0.322  0.000  0.000
  0.000  0.000  0.000  0.000  1.000
  1.000  0.000  0.000  0.000  0.000
    occupations:
  1.004 -0.000 -0.000  0.000  0.000
 -0.000  1.003 -0.000  0.000  0.000
 -0.000 -0.000  1.003  0.000  0.000
  0.000  0.000  0.000  1.004 -0.000
  0.000  0.000  0.000 -0.000  1.003
   spin  2
    eigenvalues: 
  0.053  0.075  0.082  0.082  0.122
    eigenvectors:
  0.000  1.000  0.000  0.000  0.000
  0.000  0.000  0.292  0.708  0.000
  0.000  0.000  0.708  0.292  0.000
  1.000  0.000  0.000  0.000  0.000
  0.000  0.000  0.000  0.000  1.000
    occupations:
  0.075 -0.000 -0.000  0.000  0.000
 -0.000  0.082 -0.000  0.000  0.000
 -0.000 -0.000  0.082  0.000  0.000
  0.000  0.000  0.000  0.053 -0.000
  0.000  0.000  0.000 -0.000  0.122
atomic mag. moment =     4.604707
atom    7   Tr[ns(na)] (up, down, total) =   0.41225  5.01751  5.42976
   spin  1
    eigenvalues: 
  0.053  0.075  0.081  0.081  0.122
    eigenvectors:
  0.000  1.000  0.000  0.000  0.000
  0.000  0.000  0.364  0.636  0.000
  0.000  0.000  0.636  0.364  0.000
  1.000  0.000  0.000  0.000  0.000
  0.000  0.000  0.000  0.000  1.000
    occupations:
  0.075 -0.000 -0.000  0.000  0.000
 -0.000  0.081 -0.000  0.000  0.000
 -0.000 -0.000  0.081  0.000  0.000
  0.000  0.000  0.000  0.053 -0.000
  0.000  0.000  0.000 -0.000  0.122
   spin  2
    eigenvalues: 
  1.003  1.003  1.003  1.004  1.004
    eigenvectors:
  0.000  0.000  0.000  1.000  0.000
  0.000  0.246  0.754  0.000  0.000
  0.000  0.754  0.246  0.000  0.000
  0.000  0.000  0.000  0.000  1.000
  1.000  0.000  0.000  0.000  0.000
    occupations:
  1.004 -0.000 -0.000  0.000  0.000
 -0.000  1.003 -0.000  0.000  0.000
 -0.000 -0.000  1.003  0.000  0.000
  0.000  0.000  0.000  1.004 -0.000
  0.000  0.000  0.000 -0.000  1.003
atomic mag. moment =    -4.605260
atom    8   Tr[ns(na)] (up, down, total) =   0.41132  5.01745  5.42877
   spin  1
    eigenvalues: 
  0.053  0.075  0.082  0.082  0.120
    eigenvectors:
  0.000  1.000  0.000  0.000  0.000
  0.000  0.000  0.332  0.668  0.000
  0.000  0.000  0.668  0.332  0.000
  1.000  0.000  0.000  0.000  0.000
  0.000  0.000  0.000  0.000  1.000
    occupations:
  0.075 -0.000 -0.000  0.000  0.000
 -0.000  0.082 -0.000  0.000  0.000
 -0.000 -0.000  0.082  0.000  0.000
  0.000  0.000  0.000  0.053 -0.000
  0.000  0.000  0.000 -0.000  0.120
   spin  2
    eigenvalues: 
  1.003  1.003  1.003  1.004  1.004
    eigenvectors:
  0.000  0.000  0.000  1.000  0.000
  0.000  0.274  0.726  0.000  0.000
  0.000  0.726  0.274  0.000  0.000
  0.000  0.000  0.000  0.000  1.000
  1.000  0.000  0.000  0.000  0.000
    occupations:
  1.004 -0.000 -0.000  0.000  0.000
 -0.000  1.003 -0.000  0.000  0.000
 -0.000 -0.000  1.003  0.000  0.000
  0.000  0.000  0.000  1.004 -0.000
  0.000  0.000  0.000 -0.000  1.003
atomic mag. moment =    -4.606133
N of occupied +U levels =   43.436937
 --- exit write_ns ---

     total cpu time spent up to now is      211.8 secs

     total energy              =  -14687.27578579 Ry
     Harris-Foulkes estimate   =  -14685.81265035 Ry
     estimated scf accuracy    <      11.56825664 Ry

     total magnetization       =    -0.00 Bohr mag/cell
     absolute magnetization    =    41.48 Bohr mag/cell

     iteration #  2     ecut=    45.00 Ry     beta= 0.10
     Davidson diagonalization with overlap
     ethr =  3.91E-03,  avg # of iterations =  1.0

     total cpu time spent up to now is      303.7 secs

     total energy              =  -14691.15763160 Ry
     Harris-Foulkes estimate   =  -14687.34871157 Ry
     estimated scf accuracy    <       9.42188253 Ry

     total magnetization       =     0.00 Bohr mag/cell
     absolute magnetization    =    41.17 Bohr mag/cell

     iteration #  3     ecut=    45.00 Ry     beta= 0.10
     Davidson diagonalization with overlap
     ethr =  3.18E-03,  avg # of iterations =  5.5

     total cpu time spent up to now is      460.9 secs

     total energy              =  -14690.60468673 Ry
     Harris-Foulkes estimate   =  -14693.54118801 Ry
     estimated scf accuracy    <     320.47038357 Ry

     total magnetization       =    -1.95 Bohr mag/cell
     absolute magnetization    =    38.47 Bohr mag/cell

     iteration #  4     ecut=    45.00 Ry     beta= 0.10
     Davidson diagonalization with overlap
     ethr =  3.18E-03,  avg # of iterations =  5.1

     total cpu time spent up to now is      610.6 secs

     total energy              =  -14694.70052333 Ry
     Harris-Foulkes estimate   =  -14694.15346787 Ry
     estimated scf accuracy    <       3.59661386 Ry

     total magnetization       =    -0.03 Bohr mag/cell
     absolute magnetization    =    38.51 Bohr mag/cell

     iteration #  5     ecut=    45.00 Ry     beta= 0.10
     Davidson diagonalization with overlap
     ethr =  1.22E-03,  avg # of iterations =  5.0

     total cpu time spent up to now is      755.4 secs

     total energy              =  -14694.60923574 Ry
     Harris-Foulkes estimate   =  -14694.77306965 Ry
     estimated scf accuracy    <       6.56222980 Ry

     total magnetization       =    -0.03 Bohr mag/cell
     absolute magnetization    =    37.96 Bohr mag/cell

     iteration #  6     ecut=    45.00 Ry     beta= 0.10
     Davidson diagonalization with overlap
     ethr =  1.22E-03,  avg # of iterations =  1.1

     total cpu time spent up to now is      849.3 secs

     total energy              =  -14692.83441443 Ry
     Harris-Foulkes estimate   =  -14694.63412732 Ry
     estimated scf accuracy    <      10.11876425 Ry

     total magnetization       =     0.03 Bohr mag/cell
     absolute magnetization    =    38.10 Bohr mag/cell

     iteration #  7     ecut=    45.00 Ry     beta= 0.10
     Davidson diagonalization with overlap
     ethr =  1.22E-03,  avg # of iterations =  4.8

     total cpu time spent up to now is     1046.9 secs

     total energy              =  -14693.92789705 Ry
     Harris-Foulkes estimate   =  -14693.78913101 Ry
     estimated scf accuracy    <       2.10467182 Ry

     total magnetization       =    -0.15 Bohr mag/cell
     absolute magnetization    =    38.22 Bohr mag/cell

     iteration #  8     ecut=    45.00 Ry     beta= 0.10
     Davidson diagonalization with overlap
     ethr =  7.11E-04,  avg # of iterations =  2.3

     total cpu time spent up to now is     1154.2 secs

     total energy              =  -14693.94071950 Ry
     Harris-Foulkes estimate   =  -14694.02087293 Ry
     estimated scf accuracy    <       0.57996236 Ry

     total magnetization       =     0.04 Bohr mag/cell
     absolute magnetization    =    37.51 Bohr mag/cell

     iteration #  9     ecut=    45.00 Ry     beta= 0.10
     Davidson diagonalization with overlap
     ethr =  1.96E-04,  avg # of iterations =  2.6

     total cpu time spent up to now is     1269.1 secs

     total energy              =  -14693.99609431 Ry
     Harris-Foulkes estimate   =  -14693.99441226 Ry
     estimated scf accuracy    <       0.06542241 Ry

     total magnetization       =    -0.02 Bohr mag/cell
     absolute magnetization    =    37.58 Bohr mag/cell

     iteration # 10     ecut=    45.00 Ry     beta= 0.10
     Davidson diagonalization with overlap
     ethr =  2.21E-05,  avg # of iterations =  5.0

     total cpu time spent up to now is     1448.0 secs

     total energy              =  -14693.99224202 Ry
     Harris-Foulkes estimate   =  -14694.00998254 Ry
     estimated scf accuracy    <       0.15580402 Ry

     total magnetization       =     0.11 Bohr mag/cell
     absolute magnetization    =    37.30 Bohr mag/cell

     iteration # 11     ecut=    45.00 Ry     beta= 0.10
     Davidson diagonalization with overlap
     ethr =  2.21E-05,  avg # of iterations =  3.1

     total cpu time spent up to now is     1569.0 secs

     total energy              =  -14694.00300687 Ry
     Harris-Foulkes estimate   =  -14694.00095782 Ry
     estimated scf accuracy    <       0.03946147 Ry

     total magnetization       =    -0.01 Bohr mag/cell
     absolute magnetization    =    37.34 Bohr mag/cell

     iteration # 12     ecut=    45.00 Ry     beta= 0.10
     Davidson diagonalization with overlap
     ethr =  1.33E-05,  avg # of iterations =  1.7

     total cpu time spent up to now is     1668.7 secs

     total energy              =  -14694.00555354 Ry
     Harris-Foulkes estimate   =  -14694.00436225 Ry
     estimated scf accuracy    <       0.00807030 Ry

     total magnetization       =     0.00 Bohr mag/cell
     absolute magnetization    =    37.33 Bohr mag/cell

     iteration # 13     ecut=    45.00 Ry     beta= 0.10
     Davidson diagonalization with overlap
     ethr =  2.73E-06,  avg # of iterations =  4.3

     total cpu time spent up to now is     1806.1 secs

     total energy              =  -14694.00734962 Ry
     Harris-Foulkes estimate   =  -14694.00589152 Ry
     estimated scf accuracy    <       0.00948937 Ry

     total magnetization       =    -0.00 Bohr mag/cell
     absolute magnetization    =    37.32 Bohr mag/cell

     iteration # 14     ecut=    45.00 Ry     beta= 0.10
     Davidson diagonalization with overlap
     ethr =  2.73E-06,  avg # of iterations =  1.1

     total cpu time spent up to now is     1899.4 secs

     total energy              =  -14694.00827781 Ry
     Harris-Foulkes estimate   =  -14694.00750198 Ry
     estimated scf accuracy    <       0.00292541 Ry

     total magnetization       =     0.00 Bohr mag/cell
     absolute magnetization    =    37.30 Bohr mag/cell

     iteration # 15     ecut=    45.00 Ry     beta= 0.10
     Davidson diagonalization with overlap
     ethr =  9.88E-07,  avg # of iterations =  2.2

     total cpu time spent up to now is     2006.7 secs

     total energy              =  -14694.00857108 Ry
     Harris-Foulkes estimate   =  -14694.00837826 Ry
     estimated scf accuracy    <       0.00241812 Ry

     total magnetization       =     0.00 Bohr mag/cell
     absolute magnetization    =    37.26 Bohr mag/cell

     iteration # 16     ecut=    45.00 Ry     beta= 0.10
     Davidson diagonalization with overlap
     ethr =  8.17E-07,  avg # of iterations =  1.0

     total cpu time spent up to now is     2099.3 secs

     total energy              =  -14694.00864977 Ry
     Harris-Foulkes estimate   =  -14694.00861302 Ry
     estimated scf accuracy    <       0.00290458 Ry

     total magnetization       =     0.00 Bohr mag/cell
     absolute magnetization    =    37.25 Bohr mag/cell

     iteration # 17     ecut=    45.00 Ry     beta= 0.10
     Davidson diagonalization with overlap
     ethr =  8.17E-07,  avg # of iterations =  1.0

     total cpu time spent up to now is     2191.6 secs

     total energy              =  -14694.00874593 Ry
     Harris-Foulkes estimate   =  -14694.00869863 Ry
     estimated scf accuracy    <       0.00093677 Ry

     total magnetization       =    -0.00 Bohr mag/cell
     absolute magnetization    =    37.26 Bohr mag/cell

     iteration # 18     ecut=    45.00 Ry     beta= 0.10
     Davidson diagonalization with overlap
     ethr =  3.16E-07,  avg # of iterations =  1.1

     total cpu time spent up to now is     2285.7 secs

     total energy              =  -14694.00889520 Ry
     Harris-Foulkes estimate   =  -14694.00875182 Ry
     estimated scf accuracy    <       0.00075876 Ry

     total magnetization       =     0.00 Bohr mag/cell
     absolute magnetization    =    37.25 Bohr mag/cell

     iteration # 19     ecut=    45.00 Ry     beta= 0.10
     Davidson diagonalization with overlap
     ethr =  2.56E-07,  avg # of iterations =  1.3

     total cpu time spent up to now is     2381.2 secs

     total energy              =  -14694.00888387 Ry
     Harris-Foulkes estimate   =  -14694.00889457 Ry
     estimated scf accuracy    <       0.00075842 Ry

     total magnetization       =    -0.00 Bohr mag/cell
     absolute magnetization    =    37.25 Bohr mag/cell

     iteration # 20     ecut=    45.00 Ry     beta= 0.10
     Davidson diagonalization with overlap
     ethr =  2.56E-07,  avg # of iterations =  1.0

     total cpu time spent up to now is     2473.7 secs

     total energy              =  -14694.00893349 Ry
     Harris-Foulkes estimate   =  -14694.00890553 Ry
     estimated scf accuracy    <       0.00073039 Ry

     total magnetization       =     0.00 Bohr mag/cell
     absolute magnetization    =    37.25 Bohr mag/cell

     iteration # 21     ecut=    45.00 Ry     beta= 0.10
     Davidson diagonalization with overlap
     ethr =  2.47E-07,  avg # of iterations =  1.0

     total cpu time spent up to now is     2566.0 secs

     total energy              =  -14694.00893916 Ry
     Harris-Foulkes estimate   =  -14694.00893534 Ry
     estimated scf accuracy    <       0.00022067 Ry

     total magnetization       =    -0.00 Bohr mag/cell
     absolute magnetization    =    37.25 Bohr mag/cell

     iteration # 22     ecut=    45.00 Ry     beta= 0.10
     Davidson diagonalization with overlap
     ethr =  7.46E-08,  avg # of iterations =  1.0

     total cpu time spent up to now is     2658.4 secs

     total energy              =  -14694.00894950 Ry
     Harris-Foulkes estimate   =  -14694.00893894 Ry
     estimated scf accuracy    <       0.00022834 Ry

     total magnetization       =     0.00 Bohr mag/cell
     absolute magnetization    =    37.25 Bohr mag/cell

     iteration # 23     ecut=    45.00 Ry     beta= 0.10
     Davidson diagonalization with overlap
     ethr =  7.46E-08,  avg # of iterations =  1.1

     total cpu time spent up to now is     2752.2 secs

     total energy              =  -14694.00895076 Ry
     Harris-Foulkes estimate   =  -14694.00894854 Ry
     estimated scf accuracy    <       0.00026404 Ry

     total magnetization       =     0.00 Bohr mag/cell
     absolute magnetization    =    37.25 Bohr mag/cell

     iteration # 24     ecut=    45.00 Ry     beta= 0.10
     Davidson diagonalization with overlap
     ethr =  7.46E-08,  avg # of iterations =  1.0

     total cpu time spent up to now is     2844.7 secs

     total energy              =  -14694.00895106 Ry
     Harris-Foulkes estimate   =  -14694.00895001 Ry
     estimated scf accuracy    <       0.00015934 Ry

     total magnetization       =    -0.00 Bohr mag/cell
     absolute magnetization    =    37.25 Bohr mag/cell

     iteration # 25     ecut=    45.00 Ry     beta= 0.10
     Davidson diagonalization with overlap
     ethr =  5.38E-08,  avg # of iterations =  1.0

     total cpu time spent up to now is     2936.9 secs

     total energy              =  -14694.00895555 Ry
     Harris-Foulkes estimate   =  -14694.00895200 Ry
     estimated scf accuracy    <       0.00015922 Ry

     total magnetization       =    -0.00 Bohr mag/cell
     absolute magnetization    =    37.25 Bohr mag/cell

     iteration # 26     ecut=    45.00 Ry     beta= 0.10
     Davidson diagonalization with overlap
     ethr =  5.38E-08,  avg # of iterations =  1.1

     total cpu time spent up to now is     3030.9 secs

     total energy              =  -14694.00895152 Ry
     Harris-Foulkes estimate   =  -14694.00894996 Ry
     estimated scf accuracy    <       0.00014845 Ry

     total magnetization       =    -0.00 Bohr mag/cell
     absolute magnetization    =    37.25 Bohr mag/cell

     iteration # 27     ecut=    45.00 Ry     beta= 0.10
     Davidson diagonalization with overlap
     ethr =  5.02E-08,  avg # of iterations =  1.0

     total cpu time spent up to now is     3123.5 secs

     total energy              =  -14694.00894973 Ry
     Harris-Foulkes estimate   =  -14694.00894816 Ry
     estimated scf accuracy    <       0.00014210 Ry

     total magnetization       =     0.00 Bohr mag/cell
     absolute magnetization    =    37.25 Bohr mag/cell

     iteration # 28     ecut=    45.00 Ry     beta= 0.10
     Davidson diagonalization with overlap
     ethr =  4.80E-08,  avg # of iterations =  1.0

     total cpu time spent up to now is     3216.1 secs

     total energy              =  -14694.00894736 Ry
     Harris-Foulkes estimate   =  -14694.00894660 Ry
     estimated scf accuracy    <       0.00011736 Ry

     total magnetization       =    -0.00 Bohr mag/cell
     absolute magnetization    =    37.25 Bohr mag/cell

     iteration # 29     ecut=    45.00 Ry     beta= 0.10
     Davidson diagonalization with overlap
     ethr =  3.96E-08,  avg # of iterations =  1.0

     total cpu time spent up to now is     3308.4 secs

     total energy              =  -14694.00894626 Ry
     Harris-Foulkes estimate   =  -14694.00894559 Ry
     estimated scf accuracy    <       0.00006893 Ry

     total magnetization       =     0.00 Bohr mag/cell
     absolute magnetization    =    37.25 Bohr mag/cell

     iteration # 30     ecut=    45.00 Ry     beta= 0.10
     Davidson diagonalization with overlap
     ethr =  2.33E-08,  avg # of iterations =  1.0

     total cpu time spent up to now is     3401.3 secs

     total energy              =  -14694.00894685 Ry
     Harris-Foulkes estimate   =  -14694.00894626 Ry
     estimated scf accuracy    <       0.00005646 Ry

     total magnetization       =     0.00 Bohr mag/cell
     absolute magnetization    =    37.25 Bohr mag/cell

     iteration # 31     ecut=    45.00 Ry     beta= 0.10
     Davidson diagonalization with overlap
     ethr =  1.91E-08,  avg # of iterations =  1.0

     total cpu time spent up to now is     3495.0 secs

     total energy              =  -14694.00894687 Ry
     Harris-Foulkes estimate   =  -14694.00894629 Ry
     estimated scf accuracy    <       0.00000888 Ry

     total magnetization       =     0.00 Bohr mag/cell
     absolute magnetization    =    37.25 Bohr mag/cell

     iteration # 32     ecut=    45.00 Ry     beta= 0.10
     Davidson diagonalization with overlap
     ethr =  3.00E-09,  avg # of iterations =  1.2

     total cpu time spent up to now is     3589.4 secs

     total energy              =  -14694.00894792 Ry
     Harris-Foulkes estimate   =  -14694.00894733 Ry
     estimated scf accuracy    <       0.00003899 Ry

     total magnetization       =    -0.00 Bohr mag/cell
     absolute magnetization    =    37.25 Bohr mag/cell

     iteration # 33     ecut=    45.00 Ry     beta= 0.10
     Davidson diagonalization with overlap
     ethr =  3.00E-09,  avg # of iterations =  1.0

     total cpu time spent up to now is     3681.4 secs

     total energy              =  -14694.00894858 Ry
     Harris-Foulkes estimate   =  -14694.00894802 Ry
     estimated scf accuracy    <       0.00009726 Ry

     total magnetization       =    -0.00 Bohr mag/cell
     absolute magnetization    =    37.25 Bohr mag/cell

     iteration # 34     ecut=    45.00 Ry     beta= 0.10
     Davidson diagonalization with overlap
     ethr =  3.00E-09,  avg # of iterations =  1.0

     total cpu time spent up to now is     3773.4 secs

     total energy              =  -14694.00894877 Ry
     Harris-Foulkes estimate   =  -14694.00894860 Ry
     estimated scf accuracy    <       0.00006032 Ry

     total magnetization       =    -0.00 Bohr mag/cell
     absolute magnetization    =    37.25 Bohr mag/cell

     iteration # 35     ecut=    45.00 Ry     beta= 0.10
     Davidson diagonalization with overlap
     ethr =  3.00E-09,  avg # of iterations =  1.0

     total cpu time spent up to now is     3865.6 secs

     total energy              =  -14694.00894980 Ry
     Harris-Foulkes estimate   =  -14694.00894944 Ry
     estimated scf accuracy    <       0.00003929 Ry

     total magnetization       =    -0.00 Bohr mag/cell
     absolute magnetization    =    37.25 Bohr mag/cell

     iteration # 36     ecut=    45.00 Ry     beta= 0.10
     Davidson diagonalization with overlap
     ethr =  3.00E-09,  avg # of iterations =  1.0

     total cpu time spent up to now is     3957.4 secs

     total energy              =  -14694.00894981 Ry
     Harris-Foulkes estimate   =  -14694.00894949 Ry
     estimated scf accuracy    <       0.00002597 Ry

     total magnetization       =    -0.00 Bohr mag/cell
     absolute magnetization    =    37.25 Bohr mag/cell

     iteration # 37     ecut=    45.00 Ry     beta= 0.10
     Davidson diagonalization with overlap
     ethr =  3.00E-09,  avg # of iterations =  1.0

     total cpu time spent up to now is     4049.8 secs

     total energy              =  -14694.00895014 Ry
     Harris-Foulkes estimate   =  -14694.00894983 Ry
     estimated scf accuracy    <       0.00001484 Ry

     total magnetization       =    -0.00 Bohr mag/cell
     absolute magnetization    =    37.25 Bohr mag/cell

     iteration # 38     ecut=    45.00 Ry     beta= 0.10
     Davidson diagonalization with overlap
     ethr =  3.00E-09,  avg # of iterations =  1.0

     total cpu time spent up to now is     4141.8 secs

     total energy              =  -14694.00895026 Ry
     Harris-Foulkes estimate   =  -14694.00895000 Ry
     estimated scf accuracy    <       0.00000741 Ry

     total magnetization       =    -0.00 Bohr mag/cell
     absolute magnetization    =    37.25 Bohr mag/cell

     iteration # 39     ecut=    45.00 Ry     beta= 0.10
     Davidson diagonalization with overlap
     ethr =  2.50E-09,  avg # of iterations =  1.0

     total cpu time spent up to now is     4233.7 secs

     total energy              =  -14694.00895031 Ry
     Harris-Foulkes estimate   =  -14694.00895010 Ry
     estimated scf accuracy    <       0.00001493 Ry

     total magnetization       =    -0.00 Bohr mag/cell
     absolute magnetization    =    37.25 Bohr mag/cell

     iteration # 40     ecut=    45.00 Ry     beta= 0.10
     Davidson diagonalization with overlap
     ethr =  2.50E-09,  avg # of iterations =  1.0

     total cpu time spent up to now is     4326.2 secs

     total energy              =  -14694.00895034 Ry
     Harris-Foulkes estimate   =  -14694.00895021 Ry
     estimated scf accuracy    <       0.00001255 Ry

     total magnetization       =     0.00 Bohr mag/cell
     absolute magnetization    =    37.25 Bohr mag/cell

     iteration # 41     ecut=    45.00 Ry     beta= 0.10
     Davidson diagonalization with overlap
     ethr =  2.50E-09,  avg # of iterations =  1.0

     total cpu time spent up to now is     4418.9 secs

     total energy              =  -14694.00895085 Ry
     Harris-Foulkes estimate   =  -14694.00895070 Ry
     estimated scf accuracy    <       0.00001590 Ry

     total magnetization       =     0.00 Bohr mag/cell
     absolute magnetization    =    37.25 Bohr mag/cell

     iteration # 42     ecut=    45.00 Ry     beta= 0.10
     Davidson diagonalization with overlap
     ethr =  2.50E-09,  avg # of iterations =  1.0

     total cpu time spent up to now is     4510.9 secs

     total energy              =  -14694.00895092 Ry
     Harris-Foulkes estimate   =  -14694.00895084 Ry
     estimated scf accuracy    <       0.00002091 Ry

     total magnetization       =     0.00 Bohr mag/cell
     absolute magnetization    =    37.25 Bohr mag/cell

     iteration # 43     ecut=    45.00 Ry     beta= 0.10
     Davidson diagonalization with overlap
     ethr =  2.50E-09,  avg # of iterations =  1.0

     total cpu time spent up to now is     4602.9 secs

     total energy              =  -14694.00895105 Ry
     Harris-Foulkes estimate   =  -14694.00895100 Ry
     estimated scf accuracy    <       0.00001297 Ry

     total magnetization       =     0.00 Bohr mag/cell
     absolute magnetization    =    37.25 Bohr mag/cell

     iteration # 44     ecut=    45.00 Ry     beta= 0.10
     Davidson diagonalization with overlap
     ethr =  2.50E-09,  avg # of iterations =  1.0

     total cpu time spent up to now is     4694.7 secs

     total energy              =  -14694.00895115 Ry
     Harris-Foulkes estimate   =  -14694.00895107 Ry
     estimated scf accuracy    <       0.00004992 Ry

     total magnetization       =     0.00 Bohr mag/cell
     absolute magnetization    =    37.25 Bohr mag/cell

     iteration # 45     ecut=    45.00 Ry     beta= 0.10
     Davidson diagonalization with overlap
     ethr =  2.50E-09,  avg # of iterations =  1.0

     total cpu time spent up to now is     4786.5 secs

     total energy              =  -14694.00895120 Ry
     Harris-Foulkes estimate   =  -14694.00895118 Ry
     estimated scf accuracy    <       0.00005437 Ry

     total magnetization       =     0.00 Bohr mag/cell
     absolute magnetization    =    37.25 Bohr mag/cell

     iteration # 46     ecut=    45.00 Ry     beta= 0.10
     Davidson diagonalization with overlap
     ethr =  2.50E-09,  avg # of iterations =  1.0

     total cpu time spent up to now is     4878.3 secs

     total energy              =  -14694.00895106 Ry
     Harris-Foulkes estimate   =  -14694.00895111 Ry
     estimated scf accuracy    <       0.00004616 Ry

     total magnetization       =     0.00 Bohr mag/cell
     absolute magnetization    =    37.25 Bohr mag/cell

     iteration # 47     ecut=    45.00 Ry     beta= 0.10
     Davidson diagonalization with overlap
     ethr =  2.50E-09,  avg # of iterations =  1.2

     total cpu time spent up to now is     4971.7 secs

     total energy              =  -14694.00895087 Ry
     Harris-Foulkes estimate   =  -14694.00895082 Ry
     estimated scf accuracy    <       0.00004123 Ry

     total magnetization       =     0.00 Bohr mag/cell
     absolute magnetization    =    37.25 Bohr mag/cell

     iteration # 48     ecut=    45.00 Ry     beta= 0.10
     Davidson diagonalization with overlap
     ethr =  2.50E-09,  avg # of iterations =  1.0

     total cpu time spent up to now is     5063.4 secs

     total energy              =  -14694.00895082 Ry
     Harris-Foulkes estimate   =  -14694.00895077 Ry
     estimated scf accuracy    <       0.00002269 Ry

     total magnetization       =     0.00 Bohr mag/cell
     absolute magnetization    =    37.25 Bohr mag/cell

     iteration # 49     ecut=    45.00 Ry     beta= 0.10
     Davidson diagonalization with overlap
     ethr =  2.50E-09,  avg # of iterations =  1.0

     total cpu time spent up to now is     5154.9 secs

     total energy              =  -14694.00895074 Ry
     Harris-Foulkes estimate   =  -14694.00895073 Ry
     estimated scf accuracy    <       0.00004068 Ry

     total magnetization       =    -0.00 Bohr mag/cell
     absolute magnetization    =    37.25 Bohr mag/cell

     iteration # 50     ecut=    45.00 Ry     beta= 0.10
     Davidson diagonalization with overlap
     ethr =  2.50E-09,  avg # of iterations =  1.0

     total cpu time spent up to now is     5247.0 secs

     total energy              =  -14694.00895079 Ry
     Harris-Foulkes estimate   =  -14694.00895086 Ry
     estimated scf accuracy    <       0.00000731 Ry

     total magnetization       =     0.00 Bohr mag/cell
     absolute magnetization    =    37.25 Bohr mag/cell

     iteration # 51     ecut=    45.00 Ry     beta= 0.10
     Davidson diagonalization with overlap
     ethr =  2.47E-09,  avg # of iterations =  1.0

     total cpu time spent up to now is     5339.3 secs

     total energy              =  -14694.00895100 Ry
     Harris-Foulkes estimate   =  -14694.00895108 Ry
     estimated scf accuracy    <       0.00001928 Ry

     total magnetization       =    -0.00 Bohr mag/cell
     absolute magnetization    =    37.25 Bohr mag/cell

     iteration # 52     ecut=    45.00 Ry     beta= 0.10
     Davidson diagonalization with overlap
     ethr =  2.47E-09,  avg # of iterations =  1.0

     total cpu time spent up to now is     5431.7 secs

     total energy              =  -14694.00895112 Ry
     Harris-Foulkes estimate   =  -14694.00895106 Ry
     estimated scf accuracy    <       0.00004976 Ry

     total magnetization       =     0.00 Bohr mag/cell
     absolute magnetization    =    37.25 Bohr mag/cell

     iteration # 53     ecut=    45.00 Ry     beta= 0.10
     Davidson diagonalization with overlap
     ethr =  2.47E-09,  avg # of iterations =  1.0

     total cpu time spent up to now is     5523.1 secs

     total energy              =  -14694.00895130 Ry
     Harris-Foulkes estimate   =  -14694.00895113 Ry
     estimated scf accuracy    <       0.00003062 Ry

     total magnetization       =    -0.00 Bohr mag/cell
     absolute magnetization    =    37.25 Bohr mag/cell

     iteration # 54     ecut=    45.00 Ry     beta= 0.10
     Davidson diagonalization with overlap
     ethr =  2.47E-09,  avg # of iterations =  1.0

     total cpu time spent up to now is     5614.7 secs

     total energy              =  -14694.00895108 Ry
     Harris-Foulkes estimate   =  -14694.00895140 Ry
     estimated scf accuracy    <       0.00000926 Ry

     total magnetization       =    -0.00 Bohr mag/cell
     absolute magnetization    =    37.25 Bohr mag/cell

     iteration # 55     ecut=    45.00 Ry     beta= 0.10
     Davidson diagonalization with overlap
     ethr =  2.47E-09,  avg # of iterations =  1.0

     total cpu time spent up to now is     5706.0 secs

     total energy              =  -14694.00895136 Ry
     Harris-Foulkes estimate   =  -14694.00895107 Ry
     estimated scf accuracy    <       0.00003824 Ry

     total magnetization       =     0.00 Bohr mag/cell
     absolute magnetization    =    37.25 Bohr mag/cell

     iteration # 56     ecut=    45.00 Ry     beta= 0.10
     Davidson diagonalization with overlap
     ethr =  2.47E-09,  avg # of iterations =  1.0

     total cpu time spent up to now is     5797.6 secs

     total energy              =  -14694.00895145 Ry
     Harris-Foulkes estimate   =  -14694.00895136 Ry
     estimated scf accuracy    <       0.00003979 Ry

     total magnetization       =     0.00 Bohr mag/cell
     absolute magnetization    =    37.25 Bohr mag/cell

     iteration # 57     ecut=    45.00 Ry     beta= 0.10
     Davidson diagonalization with overlap
     ethr =  2.47E-09,  avg # of iterations =  1.0

     total cpu time spent up to now is     5889.5 secs

     total energy              =  -14694.00895233 Ry
     Harris-Foulkes estimate   =  -14694.00895138 Ry
     estimated scf accuracy    <       0.00004013 Ry

     total magnetization       =     0.00 Bohr mag/cell
     absolute magnetization    =    37.25 Bohr mag/cell

     iteration # 58     ecut=    45.00 Ry     beta= 0.10
     Davidson diagonalization with overlap
     ethr =  2.47E-09,  avg # of iterations =  1.0

     total cpu time spent up to now is     5981.7 secs

     total energy              =  -14694.00895197 Ry
     Harris-Foulkes estimate   =  -14694.00895207 Ry
     estimated scf accuracy    <       0.00005254 Ry

     total magnetization       =    -0.00 Bohr mag/cell
     absolute magnetization    =    37.25 Bohr mag/cell

     iteration # 59     ecut=    45.00 Ry     beta= 0.10
     Davidson diagonalization with overlap
     ethr =  2.47E-09,  avg # of iterations =  1.0

     total cpu time spent up to now is     6073.7 secs

     total energy              =  -14694.00895188 Ry
     Harris-Foulkes estimate   =  -14694.00895203 Ry
     estimated scf accuracy    <       0.00003165 Ry

     total magnetization       =    -0.00 Bohr mag/cell
     absolute magnetization    =    37.25 Bohr mag/cell

     iteration # 60     ecut=    45.00 Ry     beta= 0.10
     Davidson diagonalization with overlap
     ethr =  2.47E-09,  avg # of iterations =  1.0

     total cpu time spent up to now is     6165.5 secs

     total energy              =  -14694.00895197 Ry
     Harris-Foulkes estimate   =  -14694.00895186 Ry
     estimated scf accuracy    <       0.00000457 Ry

     total magnetization       =     0.00 Bohr mag/cell
     absolute magnetization    =    37.25 Bohr mag/cell

     iteration # 61     ecut=    45.00 Ry     beta= 0.10
     Davidson diagonalization with overlap
     ethr =  1.54E-09,  avg # of iterations =  1.0

     total cpu time spent up to now is     6258.1 secs

     total energy              =  -14694.00895219 Ry
     Harris-Foulkes estimate   =  -14694.00895218 Ry
     estimated scf accuracy    <       0.00002135 Ry

     total magnetization       =    -0.00 Bohr mag/cell
     absolute magnetization    =    37.25 Bohr mag/cell

     iteration # 62     ecut=    45.00 Ry     beta= 0.10
     Davidson diagonalization with overlap
     ethr =  1.54E-09,  avg # of iterations =  1.0

     total cpu time spent up to now is     6350.1 secs

     total energy              =  -14694.00895215 Ry
     Harris-Foulkes estimate   =  -14694.00895212 Ry
     estimated scf accuracy    <       0.00000702 Ry

     total magnetization       =    -0.00 Bohr mag/cell
     absolute magnetization    =    37.25 Bohr mag/cell

     iteration # 63     ecut=    45.00 Ry     beta= 0.10
     Davidson diagonalization with overlap
     ethr =  1.54E-09,  avg # of iterations =  1.2

     total cpu time spent up to now is     6444.8 secs

     total energy              =  -14694.00895217 Ry
     Harris-Foulkes estimate   =  -14694.00895219 Ry
     estimated scf accuracy    <       0.00002465 Ry

     total magnetization       =     0.00 Bohr mag/cell
     absolute magnetization    =    37.25 Bohr mag/cell

     iteration # 64     ecut=    45.00 Ry     beta= 0.10
     Davidson diagonalization with overlap
     ethr =  1.54E-09,  avg # of iterations =  1.0
 
     Magnetic moment per site:
     atom:    1    charge:   13.5492    magn:    4.2277    constr:    0.0000
     atom:    2    charge:   13.5496    magn:    4.2273    constr:    0.0000
     atom:    3    charge:   13.5493    magn:   -4.2279    constr:    0.0000
     atom:    4    charge:   13.5496    magn:   -4.2272    constr:    0.0000
     atom:    5    charge:   13.5495    magn:    4.2274    constr:    0.0000
     atom:    6    charge:   13.5494    magn:    4.2278    constr:    0.0000
     atom:    7    charge:   13.5494    magn:   -4.2272    constr:    0.0000
     atom:    8    charge:   13.5494    magn:   -4.2279    constr:    0.0000
     atom:    9    charge:    9.1227    magn:    0.0377    constr:    0.0000
     atom:   10    charge:    9.1228    magn:    0.0376    constr:    0.0000
     atom:   11    charge:    9.1224    magn:    0.0434    constr:    0.0000
     atom:   12    charge:    9.1224    magn:   -0.0437    constr:    0.0000
     atom:   13    charge:    9.1227    magn:   -0.0377    constr:    0.0000
     atom:   14    charge:    9.1228    magn:   -0.0378    constr:    0.0000
     atom:   15    charge:    9.1225    magn:   -0.0436    constr:    0.0000
     atom:   16    charge:    9.1224    magn:    0.0437    constr:    0.0000
     atom:   17    charge:    9.1227    magn:    0.0378    constr:    0.0000
     atom:   18    charge:    9.1228    magn:    0.0377    constr:    0.0000
     atom:   19    charge:    9.1225    magn:    0.0436    constr:    0.0000
     atom:   20    charge:    9.1224    magn:   -0.0434    constr:    0.0000
     atom:   21    charge:    9.1227    magn:   -0.0376    constr:    0.0000
     atom:   22    charge:    9.1228    magn:   -0.0376    constr:    0.0000
     atom:   23    charge:    9.1225    magn:   -0.0438    constr:    0.0000
     atom:   24    charge:    9.1224    magn:    0.0437    constr:    0.0000

     total cpu time spent up to now is     6536.8 secs

     End of self-consistent calculation
 --- enter write_ns ---
 LDA+U parameters:
U(  1) =   3.1200   J(  1) =   0.7000   B(  1) =   0.0803
U(  2) =   3.1200   J(  2) =   0.7000   B(  2) =   0.0803
atom    1   Tr[ns(na)] (up, down, total) =   4.97112  0.74494  5.71606
   spin  1
    eigenvalues: 
  0.985  0.994  0.994  0.996  1.002
    eigenvectors:
  0.000  0.000  0.000  1.000  0.000
  0.000  0.340  0.660  0.000  0.000
  0.000  0.660  0.340  0.000  0.000
  0.000  0.000  0.000  0.000  1.000
  1.000  0.000  0.000  0.000  0.000
    occupations:
  0.996 -0.000 -0.000  0.000  0.000
 -0.000  0.994 -0.000  0.000  0.000
 -0.000 -0.000  0.994  0.000  0.000
  0.000  0.000  0.000  1.002 -0.000
  0.000  0.000  0.000 -0.000  0.985
   spin  2
    eigenvalues: 
  0.064  0.134  0.145  0.145  0.257
    eigenvectors:
  0.000  1.000  0.000  0.000  0.000
  0.000  0.000  0.364  0.636  0.000
  0.000  0.000  0.636  0.364  0.000
  1.000  0.000  0.000  0.000  0.000
  0.000  0.000  0.000  0.000  1.000
    occupations:
  0.134 -0.000 -0.000  0.000  0.000
 -0.000  0.145 -0.000  0.000  0.000
 -0.000 -0.000  0.145  0.000  0.000
  0.000  0.000  0.000  0.064 -0.000
  0.000  0.000  0.000 -0.000  0.257
atomic mag. moment =     4.226177
atom    2   Tr[ns(na)] (up, down, total) =   4.97103  0.74551  5.71654
   spin  1
    eigenvalues: 
  0.985  0.994  0.994  0.996  1.002
    eigenvectors:
  0.000  0.000  0.000  1.000  0.000
  0.000  0.322  0.678  0.000  0.000
  0.000  0.678  0.322  0.000  0.000
  0.000  0.000  0.000  0.000  1.000
  1.000  0.000  0.000  0.000  0.000
    occupations:
  0.996 -0.000 -0.000  0.000  0.000
 -0.000  0.994 -0.000  0.000  0.000
 -0.000 -0.000  0.994  0.000  0.000
  0.000  0.000  0.000  1.002 -0.000
  0.000  0.000  0.000 -0.000  0.985
   spin  2
    eigenvalues: 
  0.064  0.134  0.145  0.145  0.257
    eigenvectors:
  0.000  1.000  0.000  0.000  0.000
  0.000  0.000  0.326  0.674  0.000
  0.000  0.000  0.674  0.326  0.000
  1.000  0.000  0.000  0.000  0.000
  0.000  0.000  0.000  0.000  1.000
    occupations:
  0.134 -0.000 -0.000  0.000  0.000
 -0.000  0.145 -0.000  0.000  0.000
 -0.000 -0.000  0.145  0.000  0.000
  0.000  0.000  0.000  0.064 -0.000
  0.000  0.000  0.000 -0.000  0.257
atomic mag. moment =     4.225521
atom    3   Tr[ns(na)] (up, down, total) =   0.74491  4.97111  5.71602
   spin  1
    eigenvalues: 
  0.064  0.134  0.145  0.145  0.257
    eigenvectors:
  0.000  1.000  0.000  0.000  0.000
  0.000  0.000  0.361  0.639  0.000
  0.000  0.000  0.639  0.361  0.000
  1.000  0.000  0.000  0.000  0.000
  0.000  0.000  0.000  0.000  1.000
    occupations:
  0.134 -0.000 -0.000  0.000  0.000
 -0.000  0.145 -0.000  0.000  0.000
 -0.000 -0.000  0.145  0.000  0.000
  0.000  0.000  0.000  0.064 -0.000
  0.000  0.000  0.000 -0.000  0.257
   spin  2
    eigenvalues: 
  0.985  0.994  0.994  0.996  1.002
    eigenvectors:
  0.000  0.000  0.000  1.000  0.000
  0.000  0.304  0.696  0.000  0.000
  0.000  0.696  0.304  0.000  0.000
  0.000  0.000  0.000  0.000  1.000
  1.000  0.000  0.000  0.000  0.000
    occupations:
  0.996 -0.000 -0.000  0.000  0.000
 -0.000  0.994 -0.000  0.000  0.000
 -0.000 -0.000  0.994  0.000  0.000
  0.000  0.000  0.000  1.002 -0.000
  0.000  0.000  0.000 -0.000  0.985
atomic mag. moment =    -4.226200
atom    4   Tr[ns(na)] (up, down, total) =   0.74553  4.97113  5.71666
   spin  1
    eigenvalues: 
  0.064  0.134  0.145  0.145  0.257
    eigenvectors:
  0.000  1.000  0.000  0.000  0.000
  0.000  0.000  0.320  0.680  0.000
  0.000  0.000  0.680  0.320  0.000
  1.000  0.000  0.000  0.000  0.000
  0.000  0.000  0.000  0.000  1.000
    occupations:
  0.134 -0.000 -0.000  0.000  0.000
 -0.000  0.145 -0.000  0.000  0.000
 -0.000 -0.000  0.145  0.000  0.000
  0.000  0.000  0.000  0.064 -0.000
  0.000  0.000  0.000 -0.000  0.257
   spin  2
    eigenvalues: 
  0.984  0.994  0.994  0.996  1.002
    eigenvectors:
  0.000  0.000  0.000  1.000  0.000
  0.000  0.336  0.664  0.000  0.000
  0.000  0.664  0.336  0.000  0.000
  0.000  0.000  0.000  0.000  1.000
  1.000  0.000  0.000  0.000  0.000
    occupations:
  0.996 -0.000 -0.000  0.000  0.000
 -0.000  0.994 -0.000  0.000  0.000
 -0.000 -0.000  0.994  0.000  0.000
  0.000  0.000  0.000  1.002 -0.000
  0.000  0.000  0.000 -0.000  0.984
atomic mag. moment =    -4.225593
atom    5   Tr[ns(na)] (up, down, total) =   4.97113  0.74547  5.71660
   spin  1
    eigenvalues: 
  0.984  0.994  0.994  0.996  1.002
    eigenvectors:
  0.000  0.000  0.000  1.000  0.000
  0.000  0.315  0.685  0.000  0.000
  0.000  0.685  0.315  0.000  0.000
  0.000  0.000  0.000  0.000  1.000
  1.000  0.000  0.000  0.000  0.000
    occupations:
  0.996 -0.000 -0.000  0.000  0.000
 -0.000  0.994 -0.000  0.000  0.000
 -0.000 -0.000  0.994  0.000  0.000
  0.000  0.000  0.000  1.002 -0.000
  0.000  0.000  0.000 -0.000  0.984
   spin  2
    eigenvalues: 
  0.064  0.134  0.145  0.145  0.257
    eigenvectors:
  0.000  1.000  0.000  0.000  0.000
  0.000  0.000  0.242  0.758  0.000
  0.000  0.000  0.758  0.242  0.000
  1.000  0.000  0.000  0.000  0.000
  0.000  0.000  0.000  0.000  1.000
    occupations:
  0.134 -0.000 -0.000  0.000  0.000
 -0.000  0.145 -0.000  0.000  0.000
 -0.000 -0.000  0.145  0.000  0.000
  0.000  0.000  0.000  0.064 -0.000
  0.000  0.000  0.000 -0.000  0.257
atomic mag. moment =     4.225665
atom    6   Tr[ns(na)] (up, down, total) =   4.97109  0.74496  5.71605
   spin  1
    eigenvalues: 
  0.985  0.994  0.994  0.996  1.002
    eigenvectors:
  0.000  0.000  0.000  1.000  0.000
  0.000  0.319  0.681  0.000  0.000
  0.000  0.681  0.319  0.000  0.000
  0.000  0.000  0.000  0.000  1.000
  1.000  0.000  0.000  0.000  0.000
    occupations:
  0.996 -0.000 -0.000  0.000  0.000
 -0.000  0.994 -0.000  0.000  0.000
 -0.000 -0.000  0.994  0.000  0.000
  0.000  0.000  0.000  1.002 -0.000
  0.000  0.000  0.000 -0.000  0.985
   spin  2
    eigenvalues: 
  0.064  0.134  0.145  0.145  0.257
    eigenvectors:
  0.000  1.000  0.000  0.000  0.000
  0.000  0.000  0.267  0.733  0.000
  0.000  0.000  0.733  0.267  0.000
  1.000  0.000  0.000  0.000  0.000
  0.000  0.000  0.000  0.000  1.000
    occupations:
  0.134 -0.000 -0.000  0.000  0.000
 -0.000  0.145 -0.000  0.000  0.000
 -0.000 -0.000  0.145  0.000  0.000
  0.000  0.000  0.000  0.064 -0.000
  0.000  0.000  0.000 -0.000  0.257
atomic mag. moment =     4.226125
atom    7   Tr[ns(na)] (up, down, total) =   0.74556  4.97101  5.71657
   spin  1
    eigenvalues: 
  0.064  0.134  0.145  0.145  0.257
    eigenvectors:
  0.000  1.000  0.000  0.000  0.000
  0.000  0.000  0.285  0.715  0.000
  0.000  0.000  0.715  0.285  0.000
  1.000  0.000  0.000  0.000  0.000
  0.000  0.000  0.000  0.000  1.000
    occupations:
  0.134 -0.000 -0.000  0.000  0.000
 -0.000  0.145 -0.000  0.000  0.000
 -0.000 -0.000  0.145  0.000  0.000
  0.000  0.000  0.000  0.064 -0.000
  0.000  0.000  0.000 -0.000  0.257
   spin  2
    eigenvalues: 
  0.985  0.994  0.994  0.996  1.002
    eigenvectors:
  0.000  0.000  0.000  1.000  0.000
  0.000  0.277  0.723  0.000  0.000
  0.000  0.723  0.277  0.000  0.000
  0.000  0.000  0.000  0.000  1.000
  1.000  0.000  0.000  0.000  0.000
    occupations:
  0.996 -0.000 -0.000  0.000  0.000
 -0.000  0.994 -0.000  0.000  0.000
 -0.000 -0.000  0.994  0.000  0.000
  0.000  0.000  0.000  1.002 -0.000
  0.000  0.000  0.000 -0.000  0.985
atomic mag. moment =    -4.225456
atom    8   Tr[ns(na)] (up, down, total) =   0.74491  4.97112  5.71603
   spin  1
    eigenvalues: 
  0.064  0.134  0.145  0.145  0.257
    eigenvectors:
  0.000  1.000  0.000  0.000  0.000
  0.000  0.000  0.269  0.731  0.000
  0.000  0.000  0.731  0.269  0.000
  1.000  0.000  0.000  0.000  0.000
  0.000  0.000  0.000  0.000  1.000
    occupations:
  0.134 -0.000 -0.000  0.000  0.000
 -0.000  0.145 -0.000  0.000  0.000
 -0.000 -0.000  0.145  0.000  0.000
  0.000  0.000  0.000  0.064 -0.000
  0.000  0.000  0.000 -0.000  0.257
   spin  2
    eigenvalues: 
  0.985  0.994  0.994  0.996  1.002
    eigenvectors:
  0.000  0.000  0.000  1.000  0.000
  0.000  0.287  0.713  0.000  0.000
  0.000  0.713  0.287  0.000  0.000
  0.000  0.000  0.000  0.000  1.000
  1.000  0.000  0.000  0.000  0.000
    occupations:
  0.996 -0.000 -0.000  0.000  0.000
 -0.000  0.994 -0.000  0.000  0.000
 -0.000 -0.000  0.994  0.000  0.000
  0.000  0.000  0.000  1.002 -0.000
  0.000  0.000  0.000 -0.000  0.985
atomic mag. moment =    -4.226209
N of occupied +U levels =   45.730527
 --- exit write_ns ---

 ------ SPIN UP ------------


          k = 0.0000 0.0000 0.0000 ( 13925 PWs)   bands (ev):

   -66.7119 -66.7118 -66.7115 -66.7114 -62.1311 -62.1310 -62.1306 -62.1298
   -35.4834 -35.4833 -35.4830 -35.4828 -35.4289 -35.4289 -35.4287 -35.4287
   -35.4286 -35.4286 -35.4286 -35.4286 -30.9588 -30.9584 -30.9582 -30.9570
   -30.9494 -30.9494 -30.9493 -30.9493 -30.9489 -30.9489 -30.9483 -30.9483
     5.7776   5.8714   6.0082   6.3681   6.4028   6.9927   7.1063   7.6146
     8.3549   8.4101   8.4112   8.4314   8.4502   8.6997   8.7212   8.7288
     8.8061   8.8494   9.0058   9.0940   9.1254   9.1805   9.2875   9.2961
     9.3533   9.3679   9.4550   9.4901   9.8477   9.8928   9.9044   9.9192
     9.9199   9.9467  10.1291  10.1291  10.1688  10.1741  10.1762  10.1762
    10.1881  10.1881  10.2600  10.2980  10.3351  10.3351  10.3518  10.3518
    10.4996  10.5018  10.5443  10.5652  10.5890  10.5890  10.5919  10.5919
    10.6062  10.6062  10.6083  10.6083  10.6093  10.6630  10.6978  10.6978
    10.7291  10.7291  10.9374  10.9534  10.9534  11.0463  11.0463  11.0505
    11.0858  11.1116  11.1678  11.2482  11.2794  11.2955  11.3592  11.3592
    11.5273  11.5273  11.6324  11.6675  11.7260  11.7466  11.7544  11.7657
    11.7962  11.7962  11.9584  11.9584  12.0269  12.0957  12.0957  12.1008
    12.1030  12.1048  12.1799  12.2410  12.5561  12.5561  12.5753  12.5753
    12.6810  12.6883  12.8198  12.9296  12.9945  12.9959  13.1969  13.6471
    13.9042  14.5312  15.4742  15.9536  16.8156  16.8156  16.8215  16.8215
    16.9883  16.9886  17.0423  17.0426  17.1070  17.1070  17.1178  17.1178
    17.1334  17.1336  17.1865  17.1867  17.5194  17.5438  17.6044  17.6251
    18.6233  19.4610  19.9033  20.1048  20.1048  20.4139  20.4139  20.5933
    20.5933  21.4982

          k = 0.0000 0.0000-0.0484 ( 13878 PWs)   bands (ev):

   -66.7119 -66.7117 -66.7115 -66.7114 -62.1311 -62.1310 -62.1306 -62.1298
   -35.4834 -35.4833 -35.4830 -35.4828 -35.4289 -35.4289 -35.4287 -35.4287
   -35.4286 -35.4286 -35.4286 -35.4286 -30.9588 -30.9584 -30.9582 -30.9570
   -30.9494 -30.9494 -30.9493 -30.9493 -30.9489 -30.9489 -30.9483 -30.9483
     5.8109   5.8109   6.1399   6.1400   6.6924   6.6925   7.4121   7.4121
     8.4106   8.4107   8.4401   8.4402   8.5414   8.5414   8.7250   8.7250
     8.7918   8.7919   9.0873   9.0873   9.1484   9.1484   9.3361   9.3362
     9.3479   9.3480   9.4429   9.4429   9.8703   9.8704   9.9195   9.9196
     9.9274   9.9274  10.1421  10.1421  10.1422  10.1422  10.1714  10.1714
    10.2491  10.2491  10.2491  10.2491  10.2799  10.2799  10.4644  10.4644
    10.4645  10.4645  10.5173  10.5174  10.5321  10.5321  10.5919  10.5919
    10.5920  10.5920  10.6405  10.6406  10.6915  10.6915  10.6916  10.6916
    10.8079  10.8079  10.8080  10.8080  10.9872  10.9872  11.0987  11.0988
    11.2100  11.2100  11.2101  11.2101  11.2164  11.2165  11.2873  11.2873
    11.6495  11.6495  11.6690  11.6690  11.6691  11.6691  11.7364  11.7365
    11.7602  11.7602  12.0429  12.0429  12.0430  12.0430  12.0594  12.0595
    12.1019  12.1020  12.2174  12.2174  12.5661  12.5661  12.5661  12.5661
    12.6847  12.6848  12.8609  12.8609  12.9952  12.9953  13.3773  13.3774
    14.2498  14.2499  15.7329  15.7330  16.8183  16.8183  16.8187  16.8187
    16.9883  16.9886  17.0423  17.0426  17.1122  17.1122  17.1126  17.1126
    17.1334  17.1336  17.1865  17.1867  17.5356  17.5360  17.6153  17.6154
    18.9181  18.9183  20.2028  20.2028  20.2028  20.2028  20.6361  20.6362
    20.9579  20.9579

          k = 0.0000 0.1250 0.0000 ( 13879 PWs)   bands (ev):

   -66.7117 -66.7115 -66.7112 -66.7112 -62.1311 -62.1310 -62.1306 -62.1298
   -35.4832 -35.4831 -35.4829 -35.4826 -35.4307 -35.4304 -35.4304 -35.4304
   -35.4288 -35.4286 -35.4285 -35.4285 -30.9586 -30.9582 -30.9579 -30.9568
   -30.9516 -30.9514 -30.9511 -30.9505 -30.9493 -30.9491 -30.9488 -30.9482
     6.0211   6.1125   6.2454   6.5930   6.6274   7.1991   7.2815   7.7685
     8.3563   8.5191   8.5353   8.5437   8.5468   8.7249   8.7392   8.8167
     8.8324   8.9492   9.0144   9.0149   9.2111   9.2372   9.2435   9.2713
     9.3291   9.3671   9.4674   9.6042   9.6517   9.6920   9.8125   9.8199
     9.8771   9.8840   9.8976  10.0003  10.0128  10.0321  10.0352  10.0867
    10.1410  10.1413  10.2095  10.2260  10.2709  10.2745  10.2989  10.3908
    10.3963  10.4064  10.4398  10.5236  10.5295  10.5427  10.6011  10.6469
    10.6517  10.6581  10.6873  10.7706  10.8255  10.8270  10.8394  10.8491
    10.8907  10.9638  11.0289  11.0574  11.0889  11.1315  11.1465  11.1503
    11.2194  11.2518  11.2629  11.2779  11.3110  11.3433  11.3994  11.4411
    11.4896  11.4950  11.6778  11.7012  11.7498  11.7871  11.7913  11.7945
    11.8003  11.8634  11.9019  11.9184  12.0591  12.0679  12.0852  12.0869
    12.0913  12.1062  12.4020  12.4046  12.4265  12.4385  12.4470  12.4629
    12.7539  12.8525  12.8540  12.8645  12.8721  12.8997  13.1685  13.7227
    13.9473  14.6742  15.5678  16.0881  16.5238  16.6408  16.9052  16.9055
    16.9162  16.9512  16.9977  17.0025  17.0381  17.0419  17.0846  17.0893
    17.0970  17.1013  17.2555  17.2567  17.4848  17.5407  17.7073  17.9720
    18.7066  18.7293  18.9631  19.2152  19.8477  19.9428  20.0013  20.1662
    20.7343  20.9395

          k = 0.0000 0.1250-0.0484 ( 13868 PWs)   bands (ev):

   -66.7117 -66.7115 -66.7112 -66.7112 -62.1311 -62.1310 -62.1306 -62.1298
   -35.4832 -35.4831 -35.4829 -35.4826 -35.4307 -35.4305 -35.4304 -35.4304
   -35.4288 -35.4286 -35.4285 -35.4285 -30.9586 -30.9582 -30.9579 -30.9568
   -30.9516 -30.9514 -30.9511 -30.9505 -30.9493 -30.9491 -30.9488 -30.9482
     6.0535   6.0535   6.3732   6.3733   6.9046   6.9047   7.5773   7.5774
     8.5128   8.5128   8.5282   8.5282   8.5503   8.5504   8.8057   8.8058
     8.8692   8.8692   9.0703   9.0703   9.1944   9.1945   9.2767   9.2767
     9.3141   9.3141   9.5582   9.5583   9.6660   9.6660   9.8159   9.8159
     9.8808   9.8808   9.9420   9.9420  10.0217  10.0218  10.0710  10.0711
    10.1411  10.1413  10.2143  10.2144  10.2851  10.2852  10.3248  10.3248
    10.3974  10.3975  10.4743  10.4743  10.5856  10.5857  10.6321  10.6322
    10.6421  10.6421  10.6774  10.6774  10.8262  10.8262  10.8592  10.8592
    10.9751  10.9752  11.0164  11.0164  11.0980  11.0980  11.1680  11.1681
    11.2008  11.2009  11.2692  11.2692  11.3454  11.3455  11.3954  11.3954
    11.5996  11.5997  11.6142  11.6142  11.7047  11.7048  11.7905  11.7906
    11.8785  11.8786  11.9790  11.9790  12.0095  12.0096  12.0898  12.0899
    12.0905  12.0905  12.4271  12.4271  12.4289  12.4290  12.4401  12.4401
    12.8068  12.8068  12.8531  12.8531  12.8685  12.8685  13.3893  13.3894
    14.3553  14.3554  15.8443  15.8445  16.5953  16.5956  16.9052  16.9055
    16.9337  16.9340  17.0005  17.0007  17.0398  17.0401  17.0867  17.0869
    17.0991  17.0993  17.2559  17.2563  17.5071  17.5075  17.8163  17.8165
    18.7965  18.7966  19.1551  19.1552  19.5051  19.5052  20.4942  20.4943
    20.8066  20.8066

          k = 0.0000 0.2500 0.0000 ( 13848 PWs)   bands (ev):

   -66.7115 -66.7113 -66.7111 -66.7110 -62.1307 -62.1306 -62.1302 -62.1294
   -35.4828 -35.4827 -35.4825 -35.4822 -35.4349 -35.4346 -35.4346 -35.4346
   -35.4286 -35.4283 -35.4283 -35.4283 -30.9580 -30.9576 -30.9574 -30.9569
   -30.9568 -30.9564 -30.9562 -30.9558 -30.9489 -30.9488 -30.9484 -30.9479
     6.7097   6.7918   6.9121   7.2106   7.2421   7.7163   7.7220   8.0946
     8.2976   8.5257   8.5439   8.7137   8.7877   8.7976   8.7978   8.8638
     8.8673   8.8713   8.9543   8.9840   9.1197   9.2184   9.2326   9.2849
     9.4840   9.4858   9.4867   9.5642   9.5710   9.6264   9.6532   9.6560
     9.6617   9.7504   9.7532   9.7664   9.7935   9.8026   9.9155   9.9968
     9.9985  10.1182  10.1353  10.1476  10.1538  10.1618  10.3220  10.4036
    10.4063  10.5538  10.6113  10.6123  10.6349  10.6581  10.6935  10.8299
    10.8603  10.8847  10.8945  10.8951  10.9367  10.9577  11.0491  11.0506
    11.0932  11.1526  11.1625  11.1758  11.2746  11.3141  11.3239  11.3945
    11.3989  11.4201  11.4268  11.4427  11.4502  11.5376  11.5426  11.6005
    11.6388  11.7052  11.7131  11.7553  11.7654  11.7817  11.8277  11.8410
    11.8606  11.9059  11.9617  11.9787  12.0488  12.0491  12.0570  12.0665
    12.0703  12.2076  12.2420  12.3183  12.5234  12.5243  12.5585  12.5635
    12.5903  12.8234  12.8857  12.8927  12.9318  12.9378  13.0777  13.9157
    14.0546  14.9654  15.5248  15.9563  16.0378  16.0923  16.2366  16.3043
    16.3944  16.4172  16.7869  16.7871  17.0062  17.0065  17.0449  17.0572
    17.0706  17.0779  17.3052  17.3220  17.3317  17.3321  17.3945  17.3949
    17.7890  17.8059  17.8089  18.0917  18.5442  18.6819  18.6857  18.8178
    19.5846  20.4878

          k = 0.0000 0.2500-0.0484 ( 13842 PWs)   bands (ev):

   -66.7115 -66.7113 -66.7111 -66.7110 -62.1307 -62.1306 -62.1302 -62.1294
   -35.4828 -35.4827 -35.4825 -35.4822 -35.4349 -35.4346 -35.4346 -35.4346
   -35.4286 -35.4283 -35.4283 -35.4283 -30.9580 -30.9576 -30.9574 -30.9569
   -30.9568 -30.9564 -30.9562 -30.9558 -30.9489 -30.9488 -30.9484 -30.9479
     6.7390   6.7391   7.0238   7.0239   7.4667   7.4668   7.9544   7.9545
     8.3999   8.3999   8.6513   8.6513   8.7799   8.7799   8.8477   8.8477
     8.8709   8.8709   8.9667   8.9668   9.1679   9.1680   9.2505   9.2506
     9.4849   9.4849   9.5676   9.5676   9.5836   9.5837   9.6552   9.6552
     9.6688   9.6688   9.7575   9.7576   9.7990   9.7990   9.9972   9.9973
    10.0495  10.0496  10.1299  10.1299  10.1461  10.1462  10.3618  10.3619
    10.4817  10.4817  10.6187  10.6187  10.6494  10.6494  10.7647  10.7648
    10.8355  10.8355  10.9078  10.9078  11.0054  11.0055  11.0212  11.0213
    11.0789  11.0790  11.2317  11.2318  11.2727  11.2727  11.3572  11.3572
    11.4034  11.4034  11.4346  11.4346  11.4952  11.4953  11.5485  11.5486
    11.6682  11.6682  11.7722  11.7723  11.8202  11.8202  11.8302  11.8302
    11.8482  11.8482  11.9328  11.9329  12.0452  12.0452  12.0564  12.0565
    12.1681  12.1681  12.2809  12.2809  12.5220  12.5220  12.5772  12.5773
    12.6480  12.6481  12.8888  12.8888  12.9351  12.9351  13.4232  13.4233
    14.5839  14.5840  15.7746  15.7747  16.0549  16.0550  16.3156  16.3158
    16.3818  16.3819  16.7869  16.7871  17.0062  17.0064  17.0522  17.0523
    17.0736  17.0738  17.3188  17.3189  17.3317  17.3321  17.3945  17.3949
    17.7132  17.7134  18.1245  18.1248  18.3393  18.3394  18.9622  18.9623
    19.8220  19.8221

          k = 0.0000 0.3750 0.0000 ( 13856 PWs)   bands (ev):

   -66.7121 -66.7118 -66.7117 -66.7116 -62.1297 -62.1296 -62.1293 -62.1284
   -35.4824 -35.4823 -35.4821 -35.4818 -35.4390 -35.4387 -35.4387 -35.4386
   -35.4284 -35.4281 -35.4280 -35.4280 -30.9623 -30.9622 -30.9618 -30.9612
   -30.9574 -30.9570 -30.9568 -30.9557 -30.9486 -30.9485 -30.9481 -30.9475
     7.6698   7.7309   7.8161   7.9966   7.9990   8.1286   8.1550   8.2026
     8.2387   8.3441   8.3825   8.4818   8.6065   8.6750   8.8096   8.9509
     8.9516   9.0192   9.0585   9.1785   9.1792   9.2467   9.2467   9.2633
     9.2655   9.2974   9.3730   9.5065   9.5177   9.5212   9.5467   9.6055
     9.6064   9.6582   9.6732   9.8209   9.8364   9.8771   9.9418   9.9438
     9.9918  10.0371  10.0847  10.0856  10.1019  10.1633  10.2678  10.3769
    10.4478  10.5607  10.5781  10.6300  10.6476  10.6569  10.8121  10.8794
    10.9001  11.0680  11.2000  11.2019  11.2309  11.2391  11.3197  11.3362
[...]
    11.4583  11.4625  11.5702  11.6023  11.6151  11.6672  11.6948  11.7155
    11.7891  11.8658  11.9003  11.9107  11.9140  11.9660  11.9722  11.9897
    12.0608  12.0741  12.0786  12.1139  12.2033  12.2647  12.3810  12.4229
    12.4437  12.5403  12.5442  12.5655  12.5777  12.6176  12.6345  12.8161
    12.8361  13.1417  13.1891  13.5031  13.7889  14.1536  14.2100  14.5948
    15.0463  15.1667  15.2956  15.4074  15.4694  15.6829  15.7133  15.8835
    16.5427  16.6804  16.6815  16.7098  16.9268  17.0337  17.0623  17.0959
    17.1869  17.1880  17.2905  17.3821  17.5528  17.5655  17.7307  17.8164
    17.9740  17.9985  18.1082  18.2387  18.3042  18.6708  18.8035  18.8796
    19.4568  19.4684

          k = 0.2500 0.3750-0.0484 ( 13916 PWs)   bands (ev):

   -66.7111 -66.7109 -66.7103 -66.7095 -62.1301 -62.1299 -62.1298 -62.1297
   -35.4826 -35.4825 -35.4815 -35.4808 -35.4388 -35.4386 -35.4383 -35.4374
   -35.4345 -35.4343 -35.4340 -35.4331 -30.9612 -30.9612 -30.9610 -30.9610
   -30.9566 -30.9565 -30.9559 -30.9559 -30.9554 -30.9554 -30.9553 -30.9552
     7.9672   7.9672   8.3174   8.3174   8.5810   8.5810   8.7183   8.7185
     8.7818   8.7819   8.8258   8.8259   9.0206   9.0207   9.0269   9.0270
     9.2002   9.2003   9.3053   9.3053   9.3475   9.3476   9.3608   9.3609
     9.3673   9.3673   9.5531   9.5532   9.5622   9.5622   9.6534   9.6535
     9.7142   9.7142   9.8043   9.8043   9.8674   9.8675   9.9529   9.9529
    10.0907  10.0908  10.2172  10.2174  10.2590  10.2590  10.2980  10.2980
    10.3480  10.3480  10.4289  10.4290  10.5321  10.5322  10.5840  10.5841
    10.6924  10.6924  10.7540  10.7540  10.8878  10.8879  10.9244  10.9245
    10.9808  10.9808  11.1188  11.1189  11.2485  11.2485  11.3056  11.3057
    11.4612  11.4612  11.5772  11.5773  11.6487  11.6488  11.7049  11.7052
    11.8190  11.8191  11.9109  11.9110  11.9530  11.9530  11.9696  11.9697
    12.0500  12.0500  12.1230  12.1231  12.2231  12.2231  12.3946  12.3946
    12.5006  12.5006  12.5472  12.5473  12.5987  12.5987  12.7055  12.7056
    12.9781  12.9782  13.3701  13.3701  13.9344  13.9344  14.4406  14.4407
    15.1928  15.1928  15.2260  15.2260  15.6333  15.6334  15.7907  15.7907
    16.6106  16.6106  16.6954  16.6954  16.9808  16.9809  17.0781  17.0782
    17.1872  17.1872  17.3387  17.3388  17.5599  17.5600  17.7601  17.7602
    17.9696  17.9696  18.2610  18.2611  18.3985  18.3985  18.8436  18.8436
    19.4613  19.4614

          k = 0.2500-0.5000 0.0000 ( 13940 PWs)   bands (ev):

   -66.7113 -66.7111 -66.7106 -66.7097 -62.1297 -62.1295 -62.1294 -62.1293
   -35.4824 -35.4824 -35.4813 -35.4807 -35.4404 -35.4403 -35.4399 -35.4391
   -35.4343 -35.4342 -35.4338 -35.4330 -30.9634 -30.9634 -30.9632 -30.9632
   -30.9565 -30.9564 -30.9557 -30.9557 -30.9553 -30.9553 -30.9551 -30.9551
     8.3735   8.3737   8.3952   8.3954   8.6473   8.6477   8.6991   8.6995
     8.7847   8.7848   8.7888   8.7889   8.9594   8.9595   8.9632   8.9634
     9.1320   9.1321   9.1887   9.1887   9.2711   9.2712   9.2911   9.2912
     9.3888   9.3889   9.4030   9.4030   9.5494   9.5495   9.6206   9.6207
     9.7317   9.7317   9.8534   9.8535   9.9432   9.9435   9.9805   9.9806
    10.2232  10.2234  10.2509  10.2510  10.4322  10.4324  10.5200  10.5201
    10.5303  10.5303  10.5473  10.5474  10.7100  10.7101  10.7778  10.7779
    10.8137  10.8138  10.9172  10.9172  11.0079  11.0079  11.0927  11.0928
    11.1616  11.1618  11.1840  11.1842  11.2822  11.2825  11.3094  11.3096
    11.6135  11.6135  11.6208  11.6209  11.6896  11.6898  11.6921  11.6924
    11.8682  11.8683  11.8831  11.8831  11.9815  11.9816  12.0117  12.0118
    12.1657  12.1657  12.1889  12.1890  12.3143  12.3143  12.3942  12.3942
    12.4539  12.4540  12.4995  12.4995  12.8309  12.8310  12.9762  12.9763
    13.2872  13.2873  13.4681  13.4683  13.8601  13.8601  14.1256  14.1257
    14.4151  14.4153  14.7125  14.7128  15.1557  15.1559  15.3558  15.3561
    16.3307  16.3308  16.4176  16.4178  17.0649  17.0649  17.0854  17.0855
    17.1247  17.1248  17.1413  17.1413  17.6268  17.6271  17.6646  17.6649
    18.1100  18.1101  18.1164  18.1165  18.2559  18.2560  18.4286  18.4290
    19.5809  19.5809

          k = 0.2500-0.5000-0.0484 ( 13912 PWs)   bands (ev):

   -66.7113 -66.7111 -66.7106 -66.7097 -62.1297 -62.1295 -62.1294 -62.1293
   -35.4824 -35.4824 -35.4813 -35.4807 -35.4404 -35.4403 -35.4399 -35.4391
   -35.4343 -35.4342 -35.4338 -35.4330 -30.9634 -30.9634 -30.9632 -30.9632
   -30.9565 -30.9564 -30.9557 -30.9557 -30.9553 -30.9553 -30.9551 -30.9551
     8.3835   8.3837   8.3838   8.3839   8.6733   8.6734   8.6737   8.6739
     8.7863   8.7865   8.7865   8.7865   8.9605   8.9607   8.9607   8.9608
     9.1619   9.1620   9.1620   9.1621   9.2799   9.2800   9.2801   9.2801
     9.3966   9.3968   9.3968   9.3968   9.5771   9.5771   9.5772   9.5773
     9.7954   9.7954   9.7954   9.7954   9.9661   9.9661   9.9662   9.9663
    10.2376  10.2377  10.2378  10.2378  10.4752  10.4754  10.4756  10.4758
    10.5332  10.5332  10.5332  10.5333  10.7470  10.7470  10.7471  10.7471
    10.8609  10.8609  10.8610  10.8610  11.0570  11.0571  11.0571  11.0572
    11.1724  11.1726  11.1727  11.1728  11.2974  11.2975  11.2976  11.2977
    11.6168  11.6169  11.6171  11.6173  11.6909  11.6909  11.6910  11.6915
    11.8764  11.8764  11.8765  11.8765  11.9951  11.9952  11.9953  11.9953
    12.1725  12.1726  12.1726  12.1726  12.3652  12.3652  12.3653  12.3653
    12.4668  12.4668  12.4669  12.4669  12.9009  12.9009  12.9010  12.9010
    13.3759  13.3759  13.3760  13.3760  13.9808  13.9808  13.9809  13.9809
    14.5724  14.5725  14.5727  14.5727  15.2660  15.2661  15.2663  15.2664
    16.3758  16.3759  16.3760  16.3760  17.0741  17.0741  17.0742  17.0742
    17.1340  17.1341  17.1342  17.1342  17.6446  17.6447  17.6449  17.6450
    18.1143  18.1143  18.1144  18.1144  18.3339  18.3340  18.3342  18.3343
    19.8410  19.8411

          k = 0.3750 0.3750 0.0000 ( 13948 PWs)   bands (ev):

   -66.7108 -66.7106 -66.7101 -66.7092 -62.1299 -62.1297 -62.1296 -62.1295
   -35.4823 -35.4823 -35.4812 -35.4806 -35.4385 -35.4384 -35.4383 -35.4382
   -35.4380 -35.4379 -35.4371 -35.4370 -30.9608 -30.9608 -30.9606 -30.9606
   -30.9606 -30.9606 -30.9604 -30.9604 -30.9563 -30.9562 -30.9555 -30.9555
     8.0524   8.0837   8.3877   8.3931   8.4189   8.5731   8.6277   8.7038
     8.9855   8.9965   9.0125   9.0360   9.0369   9.1161   9.1525   9.2263
     9.2767   9.3059   9.3150   9.3208   9.3386   9.3780   9.4227   9.4558
     9.4598   9.4923   9.5028   9.5061   9.6400   9.6580   9.6992   9.8006
     9.9360   9.9541   9.9594   9.9961  10.0354  10.0646  10.1065  10.1201
    10.1204  10.1276  10.1536  10.1537  10.1573  10.2310  10.2574  10.3657
    10.4081  10.4495  10.5080  10.5720  10.5783  10.6219  10.6607  10.7197
    10.7201  10.7208  10.7334  10.9542  10.9985  11.0017  11.0932  11.0988
    11.1119  11.1432  11.2451  11.3868  11.4638  11.4775  11.5009  11.5355
    11.5356  11.5507  11.5680  11.6271  11.6326  11.6585  11.6968  11.6980
    11.7783  11.9210  11.9576  11.9727  11.9819  11.9830  12.0225  12.0286
    12.0289  12.0461  12.1056  12.1247  12.1392  12.2511  12.3281  12.3493
    12.3879  12.4124  12.5368  12.6174  12.6592  12.7043  12.8111  13.1311
    13.1466  13.4249  13.8081  14.0460  14.2508  14.4665  14.9711  15.0833
    15.1082  15.1866  15.3002  15.3712  15.8711  15.8896  16.1225  16.2316
    16.9389  16.9446  17.0113  17.0516  17.0737  17.1133  17.1636  17.2843
    17.3610  17.4800  17.4833  17.6296  17.7799  17.8899  18.0220  18.0398
    18.0409  18.0616  18.0620  18.2412  18.2979  18.3927  18.7165  18.7622
    18.8133  18.8885

          k = 0.3750 0.3750-0.0484 ( 13950 PWs)   bands (ev):

   -66.7108 -66.7106 -66.7101 -66.7092 -62.1299 -62.1297 -62.1296 -62.1295
   -35.4823 -35.4823 -35.4812 -35.4806 -35.4385 -35.4384 -35.4383 -35.4382
   -35.4380 -35.4379 -35.4371 -35.4370 -30.9608 -30.9608 -30.9606 -30.9606
   -30.9606 -30.9606 -30.9604 -30.9604 -30.9563 -30.9562 -30.9555 -30.9555
     8.0667   8.0667   8.3994   8.3995   8.4616   8.4616   8.6997   8.6998
     8.9971   8.9972   9.0045   9.0046   9.0688   9.0688   9.1799   9.1800
     9.3164   9.3164   9.3274   9.3274   9.3912   9.3913   9.4076   9.4077
     9.4291   9.4291   9.5647   9.5648   9.5973   9.5973   9.8143   9.8143
     9.8830   9.8831   9.9541   9.9542  10.0919  10.0919  10.1188  10.1189
    10.1304  10.1305  10.1518  10.1518  10.2075  10.2075  10.2927  10.2927
    10.4286  10.4287  10.4935  10.4936  10.6349  10.6349  10.6990  10.6991
    10.7213  10.7214  10.8384  10.8384  11.0001  11.0002  11.0947  11.0949
    11.1133  11.1135  11.3484  11.3485  11.4700  11.4701  11.5190  11.5193
    11.5436  11.5436  11.5852  11.5853  11.6299  11.6301  11.6973  11.6975
    11.8640  11.8641  11.9635  11.9636  11.9828  11.9829  12.0230  12.0230
    12.0641  12.0641  12.0787  12.0787  12.2105  12.2106  12.3367  12.3367
    12.4011  12.4012  12.5992  12.5992  12.6394  12.6395  12.9499  12.9500
    13.3217  13.3217  13.9154  13.9155  14.3742  14.3743  15.0305  15.0305
    15.1404  15.1404  15.3425  15.3427  15.8802  15.8803  16.1755  16.1755
    16.9801  16.9802  17.0127  17.0128  17.0638  17.0639  17.2079  17.2079
    17.4340  17.4340  17.5723  17.5724  17.8309  17.8309  17.9963  17.9965
    18.0478  18.0479  18.2364  18.2365  18.3834  18.3834  18.4885  18.4885
    18.9115  18.9115

          k = 0.3750-0.5000 0.0000 ( 13934 PWs)   bands (ev):

   -66.7109 -66.7107 -66.7102 -66.7093 -62.1297 -62.1295 -62.1294 -62.1293
   -35.4822 -35.4822 -35.4811 -35.4805 -35.4400 -35.4399 -35.4395 -35.4387
   -35.4383 -35.4381 -35.4378 -35.4369 -30.9629 -30.9629 -30.9627 -30.9627
   -30.9605 -30.9605 -30.9603 -30.9603 -30.9562 -30.9561 -30.9554 -30.9554
     8.1795   8.1798   8.2023   8.2026   8.5217   8.5221   8.6197   8.6201
     8.9180   8.9183   9.0892   9.0894   9.1635   9.1635   9.2011   9.2013
     9.2199   9.2200   9.2698   9.2699   9.2896   9.2897   9.4004   9.4005
     9.4496   9.4498   9.5675   9.5675   9.6232   9.6233   9.8689   9.8690
     9.8987   9.8988   9.9820   9.9821  10.0622  10.0622  10.0801  10.0803
    10.1073  10.1073  10.2674  10.2675  10.2738  10.2741  10.3592  10.3593
    10.5000  10.5001  10.6896  10.6898  10.7003  10.7006  10.7883  10.7883
    10.9609  10.9610  11.0538  11.0538  11.1121  11.1121  11.2076  11.2076
    11.3440  11.3442  11.3974  11.3976  11.4604  11.4607  11.5335  11.5336
    11.6202  11.6202  11.6789  11.6789  11.7854  11.7856  11.7925  11.7927
    11.9485  11.9486  11.9693  11.9694  12.0429  12.0430  12.0545  12.0546
    12.1996  12.1996  12.2125  12.2125  12.3178  12.3178  12.3262  12.3262
    12.3842  12.3842  12.5020  12.5020  13.0449  13.0451  13.1534  13.1537
    13.7802  13.7802  13.8617  13.8618  14.4306  14.4307  14.5439  14.5440
    14.9034  14.9035  14.9900  14.9903  15.9742  15.9744  15.9839  15.9841
    16.9526  16.9527  17.0052  17.0054  17.0708  17.0710  17.1446  17.1446
    17.4387  17.4388  17.6056  17.6057  17.9384  17.9386  18.0795  18.0797
    18.1503  18.1504  18.2411  18.2412  18.5923  18.5925  18.8502  18.8502
    18.8586  18.8586

          k = 0.3750-0.5000-0.0484 ( 13940 PWs)   bands (ev):

   -66.7109 -66.7107 -66.7102 -66.7093 -62.1297 -62.1295 -62.1294 -62.1293
   -35.4822 -35.4822 -35.4811 -35.4805 -35.4400 -35.4399 -35.4395 -35.4387
   -35.4383 -35.4381 -35.4378 -35.4369 -30.9629 -30.9629 -30.9627 -30.9627
   -30.9605 -30.9605 -30.9603 -30.9603 -30.9562 -30.9561 -30.9554 -30.9554
     8.1900   8.1902   8.1904   8.1905   8.5655   8.5657   8.5660   8.5661
     9.0011   9.0012   9.0014   9.0014   9.1711   9.1712   9.1712   9.1713
     9.2496   9.2496   9.2496   9.2496   9.3614   9.3616   9.3616   9.3617
     9.4873   9.4873   9.4873   9.4874   9.7353   9.7354   9.7355   9.7355
     9.9759   9.9759   9.9760   9.9761  10.0650  10.0651  10.0653  10.0653
    10.1742  10.1743  10.1744  10.1745  10.3096  10.3098  10.3100  10.3100
    10.6396  10.6397  10.6398  10.6399  10.6998  10.6999  10.7001  10.7002
    11.0349  11.0349  11.0350  11.0351  11.1481  11.1482  11.1483  11.1484
    11.3717  11.3718  11.3719  11.3721  11.4940  11.4941  11.4943  11.4946
    11.6546  11.6546  11.6547  11.6547  11.7893  11.7895  11.7895  11.7897
    11.9589  11.9589  11.9590  11.9590  12.0476  12.0477  12.0478  12.0478
    12.2024  12.2024  12.2024  12.2024  12.3266  12.3266  12.3267  12.3268
    12.4402  12.4402  12.4402  12.4403  13.1009  13.1009  13.1011  13.1012
    13.8208  13.8208  13.8209  13.8209  14.4844  14.4845  14.4846  14.4846
    14.9509  14.9509  14.9511  14.9511  15.9789  15.9789  15.9790  15.9791
    16.9843  16.9843  16.9844  16.9844  17.0946  17.0947  17.0948  17.0948
    17.5228  17.5228  17.5229  17.5229  18.0229  18.0230  18.0230  18.0230
    18.1727  18.1727  18.1727  18.1728  18.7585  18.7585  18.7586  18.7587
    18.8599  18.8599

          k =-0.5000-0.5000 0.0000 ( 13964 PWs)   bands (ev):

   -66.7109 -66.7107 -66.7102 -66.7093 -62.1295 -62.1294 -62.1292 -62.1291
   -35.4821 -35.4821 -35.4810 -35.4804 -35.4399 -35.4399 -35.4397 -35.4397
   -35.4394 -35.4394 -35.4385 -35.4385 -30.9627 -30.9627 -30.9626 -30.9626
   -30.9625 -30.9625 -30.9625 -30.9625 -30.9561 -30.9560 -30.9553 -30.9553
     8.0954   8.0957   8.1171   8.1175   8.4630   8.4635   8.5737   8.5741
     8.8399   8.8402   9.0855   9.0857   9.2088   9.2092   9.2561   9.2561
     9.2899   9.2899   9.3088   9.3088   9.4098   9.4101   9.4279   9.4279
     9.4468   9.4468   9.6810   9.6810   9.6931   9.6931   9.9286   9.9291
     9.9323   9.9323   9.9324   9.9324   9.9798   9.9803  10.0173  10.0173
    10.0590  10.0590  10.0725  10.0725  10.1261  10.1261  10.4803  10.4803
    10.6121  10.6123  10.6183  10.6186  10.6734  10.6734  11.1092  11.1092
    11.1346  11.1346  11.1399  11.1399  11.2424  11.2424  11.4251  11.4253
    11.4329  11.4331  11.4933  11.4934  11.4935  11.4943  11.5983  11.5983
    11.9610  11.9611  11.9611  11.9611  11.9865  11.9866  11.9866  11.9867
    12.0528  12.0528  12.0529  12.0529  12.0800  12.0800  12.0800  12.0801
    12.1997  12.1997  12.2158  12.2158  12.2244  12.2244  12.3235  12.3236
    12.3370  12.3370  12.3855  12.3855  13.3961  13.3963  13.3965  13.3968
    13.8625  13.8625  14.0387  14.0387  14.4457  14.4457  14.6045  14.6045
    15.2310  15.2310  15.2599  15.2599  16.5863  16.5863  16.6835  16.6836
    16.6849  16.6851  16.7020  16.7020  16.9616  16.9619  16.9761  16.9763
    17.4184  17.4184  17.7656  17.7658  17.8592  17.8594  17.8981  17.8981
    18.1317  18.1318  18.1318  18.1321  18.1967  18.1969  18.2836  18.2837
    18.3091  18.3091

          k =-0.5000-0.5000-0.0484 ( 13992 PWs)   bands (ev):

   -66.7109 -66.7107 -66.7102 -66.7093 -62.1295 -62.1294 -62.1292 -62.1291
   -35.4821 -35.4821 -35.4810 -35.4804 -35.4399 -35.4399 -35.4397 -35.4397
   -35.4394 -35.4394 -35.4385 -35.4385 -30.9627 -30.9627 -30.9626 -30.9626
   -30.9625 -30.9625 -30.9625 -30.9625 -30.9561 -30.9560 -30.9553 -30.9553
     8.1055   8.1057   8.1059   8.1060   8.5105   8.5107   8.5110   8.5111
     8.9453   8.9454   8.9456   8.9456   9.2662   9.2662   9.2662   9.2662
     9.3336   9.3336   9.3339   9.3339   9.3558   9.3558   9.3558   9.3558
     9.5475   9.5475   9.5476   9.5476   9.8560   9.8560   9.8560   9.8560
     9.9323   9.9323   9.9324   9.9324   9.9557   9.9558   9.9562   9.9563
    10.0720  10.0720  10.0721  10.0721  10.2999  10.2999  10.3000  10.3000
    10.6152  10.6153  10.6155  10.6156  10.8769  10.8769  10.8770  10.8770
    11.1370  11.1372  11.1373  11.1374  11.4288  11.4288  11.4292  11.4296
    11.4594  11.4594  11.4594  11.4594  11.4933  11.4934  11.4935  11.4943
    11.9610  11.9611  11.9611  11.9611  11.9865  11.9866  11.9866  11.9867
    12.0528  12.0528  12.0529  12.0529  12.0800  12.0800  12.0800  12.0801
    12.2073  12.2073  12.2073  12.2073  12.3112  12.3112  12.3113  12.3113
    12.3306  12.3307  12.3308  12.3308  13.3962  13.3963  13.3966  13.3967
    13.9415  13.9415  13.9415  13.9415  14.5344  14.5344  14.5345  14.5345
    15.2461  15.2461  15.2462  15.2462  16.6371  16.6371  16.6371  16.6371
    16.6841  16.6842  16.6843  16.6845  16.9687  16.9687  16.9689  16.9690
    17.6094  17.6094  17.6095  17.6095  17.8079  17.8080  17.8081  17.8082
    18.1317  18.1318  18.1320  18.2448  18.2449  18.2449  18.2450  18.7030
    18.7041  18.7041

     the Fermi energy is    15.2346 ev

!    total energy              =  -14694.00895171 Ry
     Harris-Foulkes estimate   =  -14694.00895212 Ry
     estimated scf accuracy    <       0.00000079 Ry

     total all-electron energy =   -626921.604674 Ry

     The total energy is the sum of the following terms:

     one-electron contribution =    -714.58832038 Ry
     hartree contribution      =     656.62337509 Ry
     xc contribution           =    -737.87482441 Ry
     ewald contribution        =   -2196.78933708 Ry
     Hubbard energy            =       0.45400322 Ry
     one-center paw contrib.   =  -11701.83384814 Ry

     total magnetization       =     0.00 Bohr mag/cell
     absolute magnetization    =    37.25 Bohr mag/cell

     convergence has been achieved in  64 iterations

     Writing output data file mnau2.save/
 
     init_run     :     52.14s CPU     53.47s WALL (       1 calls)
     electrons    :   6369.69s CPU   6475.59s WALL (       1 calls)

     Called by init_run:
     wfcinit      :     49.44s CPU     50.60s WALL (       1 calls)
     potinit      :      1.07s CPU      1.13s WALL (       1 calls)
     hinit0       :      1.05s CPU      1.12s WALL (       1 calls)

     Called by electrons:
     c_bands      :   5465.53s CPU   5553.28s WALL (      64 calls)
     sum_band     :    838.02s CPU    854.80s WALL (      64 calls)
     v_of_rho     :      6.52s CPU      6.73s WALL (      65 calls)
     newd         :     19.46s CPU     19.61s WALL (      65 calls)
     PAW_pot      :     38.39s CPU     38.70s WALL (      65 calls)
     mix_rho      :      1.66s CPU      1.89s WALL (      64 calls)

     Called by c_bands:
     init_us_2    :     20.21s CPU     20.37s WALL (    7800 calls)
     cegterg      :   5324.86s CPU   5410.02s WALL (    3840 calls)

     Called by sum_band:
     sum_band:bec :      9.01s CPU      9.08s WALL (    3840 calls)
     addusdens    :     36.36s CPU     36.76s WALL (      64 calls)

     Called by *egterg:
     h_psi        :   2953.54s CPU   3005.68s WALL (    9861 calls)
     s_psi        :    318.62s CPU    318.97s WALL (    9921 calls)
     g_psi        :      3.11s CPU      3.14s WALL (    5961 calls)
     cdiaghg      :   1247.99s CPU   1274.02s WALL (    9801 calls)

     Called by h_psi:
     h_psi:pot    :   2798.22s CPU   2848.17s WALL (    9861 calls)
     h_psi:calbec :    408.20s CPU    416.31s WALL (    9861 calls)
     vloc_psi     :   2072.98s CPU   2114.48s WALL (    9861 calls)
     add_vuspsi   :    316.81s CPU    317.21s WALL (    9861 calls)
     vhpsi        :    151.76s CPU    153.86s WALL (    9861 calls)

     General routines
     calbec       :    724.98s CPU    739.65s WALL (   27462 calls)
     fft          :      5.37s CPU      5.75s WALL (    1621 calls)
     ffts         :      0.33s CPU      0.36s WALL (     258 calls)
     fftw         :   2525.83s CPU   2576.07s WALL ( 3500594 calls)
     interpolate  :      0.63s CPU      0.64s WALL (     130 calls)
     davcio       :      0.01s CPU      0.02s WALL (      60 calls)
 
     Parallel routines
     fft_scatt_xy :     65.40s CPU     66.39s WALL ( 3502473 calls)
     fft_scatt_yz :   2166.35s CPU   2210.68s WALL ( 3502473 calls)

     Hubbard U routines
     new_ns       :     26.67s CPU     28.76s WALL (      64 calls)
     vhpsi        :    151.76s CPU    153.86s WALL (    9861 calls)
 
     PWSCF        :     1h47m CPU       47h 1m WALL

      49h
 
   This run was terminated on:  21: 6:13   7Apr2019            

=------------------------------------------------------------------------------=
   JOB DONE.
=------------------------------------------------------------------------------=
