
     Program PWSCF v.6.3MaX starts on  7Apr2019 at 21:26:40 

     This program is part of the open-source Quantum ESPRESSO suite
     for quantum simulation of materials; please cite
         "P. Giannozzi et al., J. Phys.:Condens. Matter 21 395502 (2009);
         "P. Giannozzi et al., J. Phys.:Condens. Matter 29 465901 (2017);
          URL http://www.quantum-espresso.org", 
     in publications or presentations arising from this work. More details at
     http://www.quantum-espresso.org/quote

     Parallel version (MPI), running on    42 processors

     MPI processes distributed on     2 nodes
     R & G space division:  proc/nbgrp/npool/nimage =      42
     Waiting for input...
     Reading input from standard input

     Current dimensions of program PWSCF are:
     Max number of different atomic species (ntypx) = 10
     Max number of k-points (npk) =  40000
     Max angular momentum in pseudopotentials (lmaxx) =  3

     Atomic positions and unit cell read from directory:
     ./temp.z19/mnau2.save/
 
               file Mn.pbe-spn-kjpaw_psl.0.3.1.UPF: wavefunction(s)  3P 3D renormalized
               file Mn.pbe-spn-kjpaw_psl.0.3.1.UPF: wavefunction(s)  3P 3D renormalized
               file Au.pbe-dn-kjpaw_psl.0.1.UPF: wavefunction(s)  6S 6P 5D renormalized

     Subspace diagonalization in iterative solution of the eigenvalue problem:
     one sub-group per band group will be used
     scalapack distributed-memory algorithm (size of sub-group:  4*  4 procs)

     Found symmetry operation: I + (  0.0000  0.0000  0.2500)
     This is a supercell, fractional translations are disabled
 
     Parallelization info
     --------------------
     sticks:   dense  smooth     PW     G-vecs:    dense   smooth      PW
     Min          31      14      4                 8757     2632     428
     Max          32      15      5                 8810     2668     473
     Sum        1313     593    177               368373   111379   18691
 


     bravais-lattice index     =            0
     lattice parameter (alat)  =       6.4153  a.u.
     unit-cell volume          =    2724.7774 (a.u.)^3
     number of atoms/cell      =           24
     number of atomic types    =            3
     number of electrons       =       296.00
     number of Kohn-Sham states=          178
     kinetic-energy cutoff     =      45.0000  Ry
     charge density cutoff     =     400.0000  Ry
     convergence threshold     =      1.0E-06
     mixing beta               =       0.1000
     number of iterations used =            8  plain     mixing
     Exchange-correlation      = SLA PW PBX PBC ( 1  4  3  4 0 0)

     celldm(1)=   6.415315  celldm(2)=   0.000000  celldm(3)=  10.319937
     celldm(4)=   0.000000  celldm(5)=   0.000000  celldm(6)=   0.000000

     crystal axes: (cart. coord. in units of alat)
               a(1) = (   1.000000   0.000000   0.000000 )  
               a(2) = (   0.000000   1.000000   0.000000 )  
               a(3) = (   0.000000   0.000000  10.319937 )  

     reciprocal axes: (cart. coord. in units 2 pi/alat)
               b(1) = (  1.000000  0.000000  0.000000 )  
               b(2) = (  0.000000  1.000000  0.000000 )  
               b(3) = (  0.000000  0.000000  0.096900 )  


     PseudoPot. # 1 for Mn read from file:
     ./pseudo/Mn.pbe-spn-kjpaw_psl.0.3.1.UPF
     MD5 check sum: 7b43a3fb0e93e198b8dd8488d8cf503e
     Pseudo is Projector augmented-wave + core cor, Zval = 15.0
     Generated using "atomic" code by A. Dal Corso v.5.0.99 svn rev. 10869
     Shape of augmentation charge: PSQ
     Using radial grid of 1187 points,  6 beta functions with: 
                l(1) =   0
                l(2) =   0
                l(3) =   1
                l(4) =   1
                l(5) =   2
                l(6) =   2
     Q(r) pseudized with 0 coefficients 


     PseudoPot. # 2 for Mn read from file:
     ./pseudo/Mn.pbe-spn-kjpaw_psl.0.3.1.UPF
     MD5 check sum: 7b43a3fb0e93e198b8dd8488d8cf503e
     Pseudo is Projector augmented-wave + core cor, Zval = 15.0
     Generated using "atomic" code by A. Dal Corso v.5.0.99 svn rev. 10869
     Shape of augmentation charge: PSQ
     Using radial grid of 1187 points,  6 beta functions with: 
                l(1) =   0
                l(2) =   0
                l(3) =   1
                l(4) =   1
                l(5) =   2
                l(6) =   2
     Q(r) pseudized with 0 coefficients 


     PseudoPot. # 3 for Au read from file:
     ./pseudo/Au.pbe-dn-kjpaw_psl.0.1.UPF
     MD5 check sum: be11e2e8e535ebe2b3ccfb4f88f554cb
     Pseudo is Projector augmented-wave + core cor, Zval = 11.0
     Generated using "atomic" code by A. Dal Corso v.5.0.2 svn rev. 9415
     Shape of augmentation charge: PSQ
     Using radial grid of 1279 points,  6 beta functions with: 
                l(1) =   0
                l(2) =   0
                l(3) =   1
                l(4) =   1
                l(5) =   2
                l(6) =   2
     Q(r) pseudized with 0 coefficients 


     atomic species   valence    mass     pseudopotential
        Mn1           15.00    54.93800     Mn( 1.00)
        Mn2           15.00    54.93800     Mn( 1.00)
        Au            11.00   196.96600     Au( 1.00)

     Starting magnetic structure 
     atomic species   magnetization
        Mn1          0.800
        Mn2         -0.800
        Au           0.000


     Full LDA+U calculation (l_max = 2) with parameters (eV):
     U(  1) =   3.1200   J(  1) =   0.7000   B(  1) =   0.0803
     U(  2) =   3.1200   J(  2) =   0.7000   B(  2) =   0.0803



     16 Sym. Ops., with inversion, found



   Cartesian axes

     site n.     atom                  positions (alat units)
         1           Mn1 tau(   1) = (   0.0000000   0.0000000   0.0000000  )
         2           Mn2 tau(   2) = (   0.5000000   0.5000000   1.2899921  )
         3           Mn1 tau(   3) = (   0.0000000   0.0000000   2.5799843  )
         4           Mn2 tau(   4) = (   0.5000000   0.5000000   3.8699764  )
         5           Mn1 tau(   5) = (   0.0000000   0.0000000   5.1599686  )
         6           Mn2 tau(   6) = (   0.5000000   0.5000000   6.4499607  )
         7           Mn1 tau(   7) = (   0.0000000   0.0000000   7.7399528  )
         8           Mn2 tau(   8) = (   0.5000000   0.5000000   9.0299450  )
         9           Au  tau(   9) = (   0.5000000   0.5000000   0.4127975  )
        10           Au  tau(  10) = (   0.0000000   0.0000000   0.8771947  )
        11           Au  tau(  11) = (   0.0000000   0.0000000   1.7027896  )
        12           Au  tau(  12) = (   0.5000000   0.5000000   2.1671868  )
        13           Au  tau(  13) = (   0.5000000   0.5000000   2.9927818  )
        14           Au  tau(  14) = (   0.0000000   0.0000000   3.4571789  )
        15           Au  tau(  15) = (   0.0000000   0.0000000   4.2827739  )
        16           Au  tau(  16) = (   0.5000000   0.5000000   4.7471711  )
        17           Au  tau(  17) = (   0.5000000   0.5000000   5.5727660  )
        18           Au  tau(  18) = (   0.0000000   0.0000000   6.0371632  )
        19           Au  tau(  19) = (   0.0000000   0.0000000   6.8627582  )
        20           Au  tau(  20) = (   0.5000000   0.5000000   7.3271553  )
        21           Au  tau(  21) = (   0.5000000   0.5000000   8.1527503  )
        22           Au  tau(  22) = (   0.0000000   0.0000000   8.6171475  )
        23           Au  tau(  23) = (   0.0000000   0.0000000   9.4427424  )
        24           Au  tau(  24) = (   0.5000000   0.5000000   9.9071396  )

     number of k points=    30 (tetrahedron method)
                       cart. coord. in units 2pi/alat
        k(    1) = (   0.0000000   0.0000000   0.0000000), wk =   0.0078125
        k(    2) = (   0.0000000   0.0000000  -0.0484499), wk =   0.0078125
        k(    3) = (   0.0000000   0.1250000   0.0000000), wk =   0.0312500
        k(    4) = (   0.0000000   0.1250000  -0.0484499), wk =   0.0312500
        k(    5) = (   0.0000000   0.2500000   0.0000000), wk =   0.0312500
        k(    6) = (   0.0000000   0.2500000  -0.0484499), wk =   0.0312500
        k(    7) = (   0.0000000   0.3750000   0.0000000), wk =   0.0312500
        k(    8) = (   0.0000000   0.3750000  -0.0484499), wk =   0.0312500
        k(    9) = (   0.0000000  -0.5000000   0.0000000), wk =   0.0156250
        k(   10) = (   0.0000000  -0.5000000  -0.0484499), wk =   0.0156250
        k(   11) = (   0.1250000   0.1250000   0.0000000), wk =   0.0312500
        k(   12) = (   0.1250000   0.1250000  -0.0484499), wk =   0.0312500
        k(   13) = (   0.1250000   0.2500000   0.0000000), wk =   0.0625000
        k(   14) = (   0.1250000   0.2500000  -0.0484499), wk =   0.0625000
        k(   15) = (   0.1250000   0.3750000   0.0000000), wk =   0.0625000
        k(   16) = (   0.1250000   0.3750000  -0.0484499), wk =   0.0625000
        k(   17) = (   0.1250000  -0.5000000   0.0000000), wk =   0.0312500
        k(   18) = (   0.1250000  -0.5000000  -0.0484499), wk =   0.0312500
        k(   19) = (   0.2500000   0.2500000   0.0000000), wk =   0.0312500
        k(   20) = (   0.2500000   0.2500000  -0.0484499), wk =   0.0312500
        k(   21) = (   0.2500000   0.3750000   0.0000000), wk =   0.0625000
        k(   22) = (   0.2500000   0.3750000  -0.0484499), wk =   0.0625000
        k(   23) = (   0.2500000  -0.5000000   0.0000000), wk =   0.0312500
        k(   24) = (   0.2500000  -0.5000000  -0.0484499), wk =   0.0312500
        k(   25) = (   0.3750000   0.3750000   0.0000000), wk =   0.0312500
        k(   26) = (   0.3750000   0.3750000  -0.0484499), wk =   0.0312500
        k(   27) = (   0.3750000  -0.5000000   0.0000000), wk =   0.0312500
        k(   28) = (   0.3750000  -0.5000000  -0.0484499), wk =   0.0312500
        k(   29) = (  -0.5000000  -0.5000000   0.0000000), wk =   0.0078125
        k(   30) = (  -0.5000000  -0.5000000  -0.0484499), wk =   0.0078125

     Dense  grid:   368373 G-vectors     FFT dimensions: (  45,  45, 432)

     Smooth grid:   111379 G-vectors     FFT dimensions: (  27,  27, 288)

     Estimated max dynamical RAM per process >     110.44 MB

     Estimated total dynamical RAM >       4.53 GB
     Generating pointlists ...
     new r_m :   0.3377 (alat units)  2.1668 (a.u.) for type    1
     new r_m :   0.3377 (alat units)  2.1668 (a.u.) for type    2
     new r_m :   0.3377 (alat units)  2.1668 (a.u.) for type    3

     Check: negative/imaginary core charge=   -0.000006    0.000000

     The initial density is read from file :
     ./temp.z19/mnau2.save/charge-density.dat

     Number of +U iterations with fixed ns =  0
     Starting occupations:
 --- enter write_ns ---
 LDA+U parameters:
U(  1) =   3.1200   J(  1) =   0.7000   B(  1) =   0.0803
U(  2) =   3.1200   J(  2) =   0.7000   B(  2) =   0.0803
atom    1   Tr[ns(na)] (up, down, total) =   4.97344  0.71229  5.68574
   spin  1
    eigenvalues: 
  0.985  0.994  0.994  0.997  1.003
    eigenvectors:
  0.000  0.000  0.000  1.000  0.000
  0.000  0.867  0.133  0.000  0.000
  0.000  0.133  0.867  0.000  0.000
  0.000  0.000  0.000  0.000  1.000
  1.000  0.000  0.000  0.000  0.000
    occupations:
  0.997 -0.000 -0.000  0.000  0.000
 -0.000  0.994 -0.000  0.000  0.000
 -0.000 -0.000  0.994  0.000  0.000
  0.000  0.000  0.000  1.003 -0.000
  0.000  0.000  0.000 -0.000  0.985
   spin  2
    eigenvalues: 
  0.067  0.120  0.143  0.143  0.240
    eigenvectors:
  0.000  1.000  0.000  0.000  0.000
  0.000  0.000  0.535  0.465  0.000
  0.000  0.000  0.465  0.535  0.000
  1.000  0.000  0.000  0.000  0.000
  0.000  0.000  0.000  0.000  1.000
    occupations:
  0.120 -0.000 -0.000  0.000  0.000
 -0.000  0.143 -0.000  0.000  0.000
 -0.000 -0.000  0.143  0.000  0.000
  0.000  0.000  0.000  0.067 -0.000
  0.000  0.000  0.000 -0.000  0.240
atomic mag. moment =     4.261148
atom    2   Tr[ns(na)] (up, down, total) =   0.70671  4.97433  5.68104
   spin  1
    eigenvalues: 
  0.067  0.114  0.144  0.144  0.238
    eigenvectors:
  0.000  1.000  0.000  0.000  0.000
  0.000  0.000  0.073  0.927  0.000
  0.000  0.000  0.927  0.073  0.000
  1.000  0.000  0.000  0.000  0.000
  0.000  0.000  0.000  0.000  1.000
    occupations:
  0.114 -0.000 -0.000  0.000  0.000
 -0.000  0.144 -0.000  0.000  0.000
 -0.000 -0.000  0.144  0.000  0.000
  0.000  0.000  0.000  0.067 -0.000
  0.000  0.000  0.000 -0.000  0.238
   spin  2
    eigenvalues: 
  0.985  0.994  0.994  0.998  1.003
    eigenvectors:
  0.000  0.000  0.000  1.000  0.000
  0.000  0.712  0.288  0.000  0.000
  0.000  0.288  0.712  0.000  0.000
  0.000  0.000  0.000  0.000  1.000
  1.000  0.000  0.000  0.000  0.000
    occupations:
  0.998 -0.000 -0.000  0.000  0.000
 -0.000  0.994 -0.000  0.000  0.000
 -0.000 -0.000  0.994  0.000  0.000
  0.000  0.000  0.000  1.003 -0.000
  0.000  0.000  0.000 -0.000  0.985
atomic mag. moment =    -4.267628
atom    3   Tr[ns(na)] (up, down, total) =   4.97503  0.70275  5.67779
   spin  1
    eigenvalues: 
  0.986  0.994  0.994  0.998  1.003
    eigenvectors:
  0.000  0.000  0.000  1.000  0.000
  0.000  0.423  0.577  0.000  0.000
  0.000  0.577  0.423  0.000  0.000
  0.000  0.000  0.000  0.000  1.000
  1.000  0.000  0.000  0.000  0.000
    occupations:
  0.998 -0.000 -0.000  0.000  0.000
 -0.000  0.994 -0.000  0.000  0.000
 -0.000 -0.000  0.994  0.000  0.000
  0.000  0.000  0.000  1.003 -0.000
  0.000  0.000  0.000 -0.000  0.986
   spin  2
    eigenvalues: 
  0.067  0.110  0.145  0.145  0.236
    eigenvectors:
  0.000  1.000  0.000  0.000  0.000
  0.000  0.000  0.477  0.523  0.000
  0.000  0.000  0.523  0.477  0.000
  1.000  0.000  0.000  0.000  0.000
  0.000  0.000  0.000  0.000  1.000
    occupations:
  0.110 -0.000 -0.000  0.000  0.000
 -0.000  0.145 -0.000  0.000  0.000
 -0.000 -0.000  0.145  0.000  0.000
  0.000  0.000  0.000  0.067 -0.000
  0.000  0.000  0.000 -0.000  0.236
atomic mag. moment =     4.272279
atom    4   Tr[ns(na)] (up, down, total) =   0.70824  4.97416  5.68240
   spin  1
    eigenvalues: 
  0.067  0.115  0.144  0.144  0.238
    eigenvectors:
  0.000  1.000  0.000  0.000  0.000
  0.000  0.000  0.542  0.458  0.000
  0.000  0.000  0.458  0.542  0.000
  1.000  0.000  0.000  0.000  0.000
  0.000  0.000  0.000  0.000  1.000
    occupations:
  0.115 -0.000 -0.000  0.000  0.000
 -0.000  0.144 -0.000  0.000  0.000
 -0.000 -0.000  0.144  0.000  0.000
  0.000  0.000  0.000  0.067 -0.000
  0.000  0.000  0.000 -0.000  0.238
   spin  2
    eigenvalues: 
  0.985  0.994  0.994  0.998  1.003
    eigenvectors:
  0.000  0.000  0.000  1.000  0.000
  0.000  0.678  0.322  0.000  0.000
  0.000  0.322  0.678  0.000  0.000
  0.000  0.000  0.000  0.000  1.000
  1.000  0.000  0.000  0.000  0.000
    occupations:
  0.998 -0.000 -0.000  0.000  0.000
 -0.000  0.994 -0.000  0.000  0.000
 -0.000 -0.000  0.994  0.000  0.000
  0.000  0.000  0.000  1.003 -0.000
  0.000  0.000  0.000 -0.000  0.985
atomic mag. moment =    -4.265925
atom    5   Tr[ns(na)] (up, down, total) =   4.97370  0.71053  5.68423
   spin  1
    eigenvalues: 
  0.985  0.994  0.994  0.997  1.003
    eigenvectors:
  0.000  0.000  0.000  1.000  0.000
  0.000  0.897  0.103  0.000  0.000
  0.000  0.103  0.897  0.000  0.000
  0.000  0.000  0.000  0.000  1.000
  1.000  0.000  0.000  0.000  0.000
    occupations:
  0.997 -0.000 -0.000  0.000  0.000
 -0.000  0.994 -0.000  0.000  0.000
 -0.000 -0.000  0.994  0.000  0.000
  0.000  0.000  0.000  1.003 -0.000
  0.000  0.000  0.000 -0.000  0.985
   spin  2
    eigenvalues: 
  0.067  0.119  0.142  0.142  0.240
    eigenvectors:
  0.000  1.000  0.000  0.000  0.000
  0.000  0.000  0.061  0.939  0.000
  0.000  0.000  0.939  0.061  0.000
  1.000  0.000  0.000  0.000  0.000
  0.000  0.000  0.000  0.000  1.000
    occupations:
  0.119 -0.000 -0.000  0.000  0.000
 -0.000  0.142 -0.000  0.000  0.000
 -0.000 -0.000  0.142  0.000  0.000
  0.000  0.000  0.000  0.067 -0.000
  0.000  0.000  0.000 -0.000  0.240
atomic mag. moment =     4.263172
atom    6   Tr[ns(na)] (up, down, total) =   0.70824  4.97416  5.68240
   spin  1
    eigenvalues: 
  0.067  0.115  0.144  0.144  0.238
    eigenvectors:
  0.000  1.000  0.000  0.000  0.000
  0.000  0.000  0.023  0.977  0.000
  0.000  0.000  0.977  0.023  0.000
  1.000  0.000  0.000  0.000  0.000
  0.000  0.000  0.000  0.000  1.000
    occupations:
  0.115 -0.000 -0.000  0.000  0.000
 -0.000  0.144 -0.000  0.000  0.000
 -0.000 -0.000  0.144  0.000  0.000
  0.000  0.000  0.000  0.067 -0.000
  0.000  0.000  0.000 -0.000  0.238
   spin  2
    eigenvalues: 
  0.985  0.994  0.994  0.998  1.003
    eigenvectors:
  0.000  0.000  0.000  1.000  0.000
  0.000  0.054  0.946  0.000  0.000
  0.000  0.946  0.054  0.000  0.000
  0.000  0.000  0.000  0.000  1.000
  1.000  0.000  0.000  0.000  0.000
    occupations:
  0.998 -0.000 -0.000  0.000  0.000
 -0.000  0.994 -0.000  0.000  0.000
 -0.000 -0.000  0.994  0.000  0.000
  0.000  0.000  0.000  1.003 -0.000
  0.000  0.000  0.000 -0.000  0.985
atomic mag. moment =    -4.265925
atom    7   Tr[ns(na)] (up, down, total) =   4.97503  0.70275  5.67779
   spin  1
    eigenvalues: 
  0.986  0.994  0.994  0.998  1.003
    eigenvectors:
  0.000  0.000  0.000  1.000  0.000
  0.000  0.432  0.568  0.000  0.000
  0.000  0.568  0.432  0.000  0.000
  0.000  0.000  0.000  0.000  1.000
  1.000  0.000  0.000  0.000  0.000
    occupations:
  0.998 -0.000 -0.000  0.000  0.000
 -0.000  0.994 -0.000  0.000  0.000
 -0.000 -0.000  0.994  0.000  0.000
  0.000  0.000  0.000  1.003 -0.000
  0.000  0.000  0.000 -0.000  0.986
   spin  2
    eigenvalues: 
  0.067  0.110  0.145  0.145  0.236
    eigenvectors:
  0.000  1.000  0.000  0.000  0.000
  0.000  0.000  0.084  0.916  0.000
  0.000  0.000  0.916  0.084  0.000
  1.000  0.000  0.000  0.000  0.000
  0.000  0.000  0.000  0.000  1.000
    occupations:
  0.110 -0.000 -0.000  0.000  0.000
 -0.000  0.145 -0.000  0.000  0.000
 -0.000 -0.000  0.145  0.000  0.000
  0.000  0.000  0.000  0.067 -0.000
  0.000  0.000  0.000 -0.000  0.236
atomic mag. moment =     4.272279
atom    8   Tr[ns(na)] (up, down, total) =   0.70671  4.97433  5.68104
   spin  1
    eigenvalues: 
  0.067  0.114  0.144  0.144  0.238
    eigenvectors:
  0.000  1.000  0.000  0.000  0.000
  0.000  0.000  0.989  0.011  0.000
  0.000  0.000  0.011  0.989  0.000
  1.000  0.000  0.000  0.000  0.000
  0.000  0.000  0.000  0.000  1.000
    occupations:
  0.114 -0.000 -0.000  0.000  0.000
 -0.000  0.144 -0.000  0.000  0.000
 -0.000 -0.000  0.144  0.000  0.000
  0.000  0.000  0.000  0.067 -0.000
  0.000  0.000  0.000 -0.000  0.238
   spin  2
    eigenvalues: 
  0.985  0.994  0.994  0.998  1.003
    eigenvectors:
  0.000  0.000  0.000  1.000  0.000
  0.000  0.770  0.230  0.000  0.000
  0.000  0.230  0.770  0.000  0.000
  0.000  0.000  0.000  0.000  1.000
  1.000  0.000  0.000  0.000  0.000
    occupations:
  0.998 -0.000 -0.000  0.000  0.000
 -0.000  0.994 -0.000  0.000  0.000
 -0.000 -0.000  0.994  0.000  0.000
  0.000  0.000  0.000  1.003 -0.000
  0.000  0.000  0.000 -0.000  0.985
atomic mag. moment =    -4.267628
N of occupied +U levels =   45.452424
 --- exit write_ns ---
 Atomic wfc used for LDA+U Projector are NOT orthogonalized
     Starting wfcs from file
     Checking if some PAW data can be deallocated... 

     total cpu time spent up to now is       20.4 secs

     Self-consistent Calculation

     iteration #  1     ecut=    45.00 Ry     beta= 0.10
     Davidson diagonalization with overlap
     ethr =  1.00E-05,  avg # of iterations =  1.5
 --- enter write_ns ---
 LDA+U parameters:
U(  1) =   3.1200   J(  1) =   0.7000   B(  1) =   0.0803
U(  2) =   3.1200   J(  2) =   0.7000   B(  2) =   0.0803
atom    1   Tr[ns(na)] (up, down, total) =   4.97348  0.71102  5.68450
   spin  1
    eigenvalues: 
  0.985  0.994  0.994  0.997  1.003
    eigenvectors:
  0.000  0.000  0.000  1.000  0.000
  0.000  0.309  0.691  0.000  0.000
  0.000  0.691  0.309  0.000  0.000
  0.000  0.000  0.000  0.000  1.000
  1.000  0.000  0.000  0.000  0.000
    occupations:
  0.997 -0.000 -0.000  0.000  0.000
 -0.000  0.994 -0.000  0.000  0.000
 -0.000 -0.000  0.994  0.000  0.000
  0.000  0.000  0.000  1.003 -0.000
  0.000  0.000  0.000 -0.000  0.985
   spin  2
    eigenvalues: 
  0.067  0.119  0.143  0.143  0.240
    eigenvectors:
  0.000  1.000  0.000  0.000  0.000
  0.000  0.000  0.318  0.682  0.000
  0.000  0.000  0.682  0.318  0.000
  1.000  0.000  0.000  0.000  0.000
  0.000  0.000  0.000  0.000  1.000
    occupations:
  0.119 -0.000 -0.000  0.000  0.000
 -0.000  0.143 -0.000  0.000  0.000
 -0.000 -0.000  0.143  0.000  0.000
  0.000  0.000  0.000  0.067 -0.000
  0.000  0.000  0.000 -0.000  0.240
atomic mag. moment =     4.262457
atom    2   Tr[ns(na)] (up, down, total) =   0.70707  4.97433  5.68141
   spin  1
    eigenvalues: 
  0.067  0.114  0.144  0.144  0.238
    eigenvectors:
  0.000  1.000  0.000  0.000  0.000
  0.000  0.000  0.362  0.638  0.000
  0.000  0.000  0.638  0.362  0.000
  1.000  0.000  0.000  0.000  0.000
  0.000  0.000  0.000  0.000  1.000
    occupations:
  0.114 -0.000 -0.000  0.000  0.000
 -0.000  0.144 -0.000  0.000  0.000
 -0.000 -0.000  0.144  0.000  0.000
  0.000  0.000  0.000  0.067 -0.000
  0.000  0.000  0.000 -0.000  0.238
   spin  2
    eigenvalues: 
  0.985  0.994  0.994  0.998  1.003
    eigenvectors:
  0.000  0.000  0.000  1.000  0.000
  0.000  0.270  0.730  0.000  0.000
  0.000  0.730  0.270  0.000  0.000
  0.000  0.000  0.000  0.000  1.000
  1.000  0.000  0.000  0.000  0.000
    occupations:
  0.998 -0.000 -0.000  0.000  0.000
 -0.000  0.994 -0.000  0.000  0.000
 -0.000 -0.000  0.994  0.000  0.000
  0.000  0.000  0.000  1.003 -0.000
  0.000  0.000  0.000 -0.000  0.985
atomic mag. moment =    -4.267257
atom    3   Tr[ns(na)] (up, down, total) =   4.97503  0.70283  5.67786
   spin  1
    eigenvalues: 
  0.986  0.994  0.994  0.998  1.003
    eigenvectors:
  0.000  0.000  0.000  1.000  0.000
  0.000  0.268  0.732  0.000  0.000
  0.000  0.732  0.268  0.000  0.000
  0.000  0.000  0.000  0.000  1.000
  1.000  0.000  0.000  0.000  0.000
    occupations:
  0.998 -0.000 -0.000  0.000  0.000
 -0.000  0.994 -0.000  0.000  0.000
 -0.000 -0.000  0.994  0.000  0.000
  0.000  0.000  0.000  1.003 -0.000
  0.000  0.000  0.000 -0.000  0.986
   spin  2
    eigenvalues: 
  0.067  0.110  0.145  0.145  0.236
    eigenvectors:
  0.000  1.000  0.000  0.000  0.000
  0.000  0.000  0.319  0.681  0.000
  0.000  0.000  0.681  0.319  0.000
  1.000  0.000  0.000  0.000  0.000
  0.000  0.000  0.000  0.000  1.000
    occupations:
  0.110 -0.000 -0.000  0.000  0.000
 -0.000  0.145 -0.000  0.000  0.000
 -0.000 -0.000  0.145  0.000  0.000
  0.000  0.000  0.000  0.067 -0.000
  0.000  0.000  0.000 -0.000  0.236
atomic mag. moment =     4.272203
atom    4   Tr[ns(na)] (up, down, total) =   0.70790  4.97417  5.68207
   spin  1
    eigenvalues: 
  0.067  0.115  0.144  0.144  0.238
    eigenvectors:
  0.000  1.000  0.000  0.000  0.000
  0.000  0.000  0.326  0.674  0.000
  0.000  0.000  0.674  0.326  0.000
  1.000  0.000  0.000  0.000  0.000
  0.000  0.000  0.000  0.000  1.000
    occupations:
  0.115 -0.000 -0.000  0.000  0.000
 -0.000  0.144 -0.000  0.000  0.000
 -0.000 -0.000  0.144  0.000  0.000
  0.000  0.000  0.000  0.067 -0.000
  0.000  0.000  0.000 -0.000  0.238
   spin  2
    eigenvalues: 
  0.985  0.994  0.994  0.998  1.003
    eigenvectors:
  0.000  0.000  0.000  1.000  0.000
  0.000  0.353  0.647  0.000  0.000
  0.000  0.647  0.353  0.000  0.000
  0.000  0.000  0.000  0.000  1.000
  1.000  0.000  0.000  0.000  0.000
    occupations:
  0.998 -0.000 -0.000  0.000  0.000
 -0.000  0.994 -0.000  0.000  0.000
 -0.000 -0.000  0.994  0.000  0.000
  0.000  0.000  0.000  1.003 -0.000
  0.000  0.000  0.000 -0.000  0.985
atomic mag. moment =    -4.266268
atom    5   Tr[ns(na)] (up, down, total) =   4.97367  0.71184  5.68551
   spin  1
    eigenvalues: 
  0.985  0.994  0.994  0.997  1.003
    eigenvectors:
  0.000  0.000  0.000  1.000  0.000
  0.000  0.262  0.738  0.000  0.000
  0.000  0.738  0.262  0.000  0.000
  0.000  0.000  0.000  0.000  1.000
  1.000  0.000  0.000  0.000  0.000
    occupations:
  0.997 -0.000 -0.000  0.000  0.000
 -0.000  0.994 -0.000  0.000  0.000
 -0.000 -0.000  0.994  0.000  0.000
  0.000  0.000  0.000  1.003 -0.000
  0.000  0.000  0.000 -0.000  0.985
   spin  2
    eigenvalues: 
  0.067  0.120  0.142  0.142  0.241
    eigenvectors:
  0.000  1.000  0.000  0.000  0.000
  0.000  0.000  0.285  0.715  0.000
  0.000  0.000  0.715  0.285  0.000
  1.000  0.000  0.000  0.000  0.000
  0.000  0.000  0.000  0.000  1.000
    occupations:
  0.120 -0.000 -0.000  0.000  0.000
 -0.000  0.142 -0.000  0.000  0.000
 -0.000 -0.000  0.142  0.000  0.000
  0.000  0.000  0.000  0.067 -0.000
  0.000  0.000  0.000 -0.000  0.241
atomic mag. moment =     4.261833
atom    6   Tr[ns(na)] (up, down, total) =   0.70790  4.97417  5.68207
   spin  1
    eigenvalues: 
  0.067  0.115  0.144  0.144  0.238
    eigenvectors:
  0.000  1.000  0.000  0.000  0.000
  0.000  0.000  0.296  0.704  0.000
  0.000  0.000  0.704  0.296  0.000
  1.000  0.000  0.000  0.000  0.000
  0.000  0.000  0.000  0.000  1.000
    occupations:
  0.115 -0.000 -0.000  0.000  0.000
 -0.000  0.144 -0.000  0.000  0.000
 -0.000 -0.000  0.144  0.000  0.000
  0.000  0.000  0.000  0.067 -0.000
  0.000  0.000  0.000 -0.000  0.238
   spin  2
    eigenvalues: 
  0.985  0.994  0.994  0.998  1.003
    eigenvectors:
  0.000  0.000  0.000  1.000  0.000
  0.000  0.319  0.681  0.000  0.000
  0.000  0.681  0.319  0.000  0.000
  0.000  0.000  0.000  0.000  1.000
  1.000  0.000  0.000  0.000  0.000
    occupations:
  0.998 -0.000 -0.000  0.000  0.000
 -0.000  0.994 -0.000  0.000  0.000
 -0.000 -0.000  0.994  0.000  0.000
  0.000  0.000  0.000  1.003 -0.000
  0.000  0.000  0.000 -0.000  0.985
atomic mag. moment =    -4.266268
atom    7   Tr[ns(na)] (up, down, total) =   4.97503  0.70283  5.67786
   spin  1
    eigenvalues: 
  0.986  0.994  0.994  0.998  1.003
    eigenvectors:
  0.000  0.000  0.000  1.000  0.000
  0.000  0.344  0.656  0.000  0.000
  0.000  0.656  0.344  0.000  0.000
  0.000  0.000  0.000  0.000  1.000
  1.000  0.000  0.000  0.000  0.000
    occupations:
  0.998 -0.000 -0.000  0.000  0.000
 -0.000  0.994 -0.000  0.000  0.000
 -0.000 -0.000  0.994  0.000  0.000
  0.000  0.000  0.000  1.003 -0.000
  0.000  0.000  0.000 -0.000  0.986
   spin  2
    eigenvalues: 
  0.067  0.110  0.145  0.145  0.236
    eigenvectors:
  0.000  1.000  0.000  0.000  0.000
  0.000  0.000  0.282  0.718  0.000
  0.000  0.000  0.718  0.282  0.000
  1.000  0.000  0.000  0.000  0.000
  0.000  0.000  0.000  0.000  1.000
    occupations:
  0.110 -0.000 -0.000  0.000  0.000
 -0.000  0.145 -0.000  0.000  0.000
 -0.000 -0.000  0.145  0.000  0.000
  0.000  0.000  0.000  0.067 -0.000
  0.000  0.000  0.000 -0.000  0.236
atomic mag. moment =     4.272203
atom    8   Tr[ns(na)] (up, down, total) =   0.70707  4.97433  5.68141
   spin  1
    eigenvalues: 
  0.067  0.114  0.144  0.144  0.238
    eigenvectors:
  0.000  1.000  0.000  0.000  0.000
  0.000  0.000  0.313  0.687  0.000
  0.000  0.000  0.687  0.313  0.000
  1.000  0.000  0.000  0.000  0.000
  0.000  0.000  0.000  0.000  1.000
    occupations:
  0.114 -0.000 -0.000  0.000  0.000
 -0.000  0.144 -0.000  0.000  0.000
 -0.000 -0.000  0.144  0.000  0.000
  0.000  0.000  0.000  0.067 -0.000
  0.000  0.000  0.000 -0.000  0.238
   spin  2
    eigenvalues: 
  0.985  0.994  0.994  0.998  1.003
    eigenvectors:
  0.000  0.000  0.000  1.000  0.000
  0.000  0.377  0.623  0.000  0.000
  0.000  0.623  0.377  0.000  0.000
  0.000  0.000  0.000  0.000  1.000
  1.000  0.000  0.000  0.000  0.000
    occupations:
  0.998 -0.000 -0.000  0.000  0.000
 -0.000  0.994 -0.000  0.000  0.000
 -0.000 -0.000  0.994  0.000  0.000
  0.000  0.000  0.000  1.003 -0.000
  0.000  0.000  0.000 -0.000  0.985
atomic mag. moment =    -4.267257
N of occupied +U levels =   45.452677
 --- exit write_ns ---

     Threshold (ethr) on eigenvalues was too large:
     Diagonalizing with lowered threshold

     Davidson diagonalization with overlap
     ethr =  5.97E-09,  avg # of iterations =  1.0

     total cpu time spent up to now is      206.7 secs

     total energy              =  -14693.98922471 Ry
     Harris-Foulkes estimate   =  -14693.98922791 Ry
     estimated scf accuracy    <       0.00001769 Ry

     total magnetization       =    -0.00 Bohr mag/cell
     absolute magnetization    =    37.47 Bohr mag/cell

     iteration #  2     ecut=    45.00 Ry     beta= 0.10
     Davidson diagonalization with overlap
     ethr =  5.98E-09,  avg # of iterations =  2.1

     total cpu time spent up to now is      313.9 secs

     total energy              =  -14693.98919737 Ry
     Harris-Foulkes estimate   =  -14693.98925207 Ry
     estimated scf accuracy    <       0.00534943 Ry

     total magnetization       =    -0.00 Bohr mag/cell
     absolute magnetization    =    37.47 Bohr mag/cell

     iteration #  3     ecut=    45.00 Ry     beta= 0.10
     Davidson diagonalization with overlap
     ethr =  5.98E-09,  avg # of iterations =  1.8

     total cpu time spent up to now is      416.8 secs

     total energy              =  -14693.98922749 Ry
     Harris-Foulkes estimate   =  -14693.98922815 Ry
     estimated scf accuracy    <       0.00006672 Ry

     total magnetization       =    -0.00 Bohr mag/cell
     absolute magnetization    =    37.47 Bohr mag/cell

     iteration #  4     ecut=    45.00 Ry     beta= 0.10
     Davidson diagonalization with overlap
     ethr =  5.98E-09,  avg # of iterations =  1.0

     total cpu time spent up to now is      511.6 secs

     total energy              =  -14693.98922725 Ry
     Harris-Foulkes estimate   =  -14693.98922761 Ry
     estimated scf accuracy    <       0.00003611 Ry

     total magnetization       =    -0.00 Bohr mag/cell
     absolute magnetization    =    37.47 Bohr mag/cell

     iteration #  5     ecut=    45.00 Ry     beta= 0.10
     Davidson diagonalization with overlap
     ethr =  5.98E-09,  avg # of iterations =  1.0

     total cpu time spent up to now is      604.3 secs

     total energy              =  -14693.98922794 Ry
     Harris-Foulkes estimate   =  -14693.98922796 Ry
     estimated scf accuracy    <       0.00003949 Ry

     total magnetization       =    -0.00 Bohr mag/cell
     absolute magnetization    =    37.47 Bohr mag/cell

     iteration #  6     ecut=    45.00 Ry     beta= 0.10
     Davidson diagonalization with overlap
     ethr =  5.98E-09,  avg # of iterations =  1.0

     total cpu time spent up to now is      697.0 secs

     total energy              =  -14693.98922758 Ry
     Harris-Foulkes estimate   =  -14693.98922793 Ry
     estimated scf accuracy    <       0.00004824 Ry

     total magnetization       =    -0.00 Bohr mag/cell
     absolute magnetization    =    37.47 Bohr mag/cell

     iteration #  7     ecut=    45.00 Ry     beta= 0.10
     Davidson diagonalization with overlap
     ethr =  5.98E-09,  avg # of iterations =  1.0

     total cpu time spent up to now is      789.8 secs

     total energy              =  -14693.98922757 Ry
     Harris-Foulkes estimate   =  -14693.98922770 Ry
     estimated scf accuracy    <       0.00007852 Ry

     total magnetization       =    -0.00 Bohr mag/cell
     absolute magnetization    =    37.47 Bohr mag/cell

     iteration #  8     ecut=    45.00 Ry     beta= 0.10
     Davidson diagonalization with overlap
     ethr =  5.98E-09,  avg # of iterations =  1.0

     total cpu time spent up to now is      882.6 secs

     total energy              =  -14693.98922785 Ry
     Harris-Foulkes estimate   =  -14693.98922780 Ry
     estimated scf accuracy    <       0.00000138 Ry

     total magnetization       =    -0.00 Bohr mag/cell
     absolute magnetization    =    37.47 Bohr mag/cell

     iteration #  9     ecut=    45.00 Ry     beta= 0.10
     Davidson diagonalization with overlap
     ethr =  4.67E-10,  avg # of iterations =  1.0

     total cpu time spent up to now is      974.6 secs

     total energy              =  -14693.98922778 Ry
     Harris-Foulkes estimate   =  -14693.98922796 Ry
     estimated scf accuracy    <       0.00045673 Ry

     total magnetization       =    -0.00 Bohr mag/cell
     absolute magnetization    =    37.47 Bohr mag/cell

     iteration # 10     ecut=    45.00 Ry     beta= 0.10
     Davidson diagonalization with overlap
     ethr =  4.67E-10,  avg # of iterations =  1.0

     total cpu time spent up to now is     1066.9 secs

     total energy              =  -14693.98922692 Ry
     Harris-Foulkes estimate   =  -14693.98922788 Ry
     estimated scf accuracy    <       0.00042474 Ry

     total magnetization       =    -0.00 Bohr mag/cell
     absolute magnetization    =    37.47 Bohr mag/cell

     iteration # 11     ecut=    45.00 Ry     beta= 0.10
     Davidson diagonalization with overlap
     ethr =  4.67E-10,  avg # of iterations =  1.0

     total cpu time spent up to now is     1158.8 secs

     total energy              =  -14693.98922790 Ry
     Harris-Foulkes estimate   =  -14693.98922795 Ry
     estimated scf accuracy    <       0.00003474 Ry

     total magnetization       =    -0.00 Bohr mag/cell
     absolute magnetization    =    37.47 Bohr mag/cell

     iteration # 12     ecut=    45.00 Ry     beta= 0.10
     Davidson diagonalization with overlap
     ethr =  4.67E-10,  avg # of iterations =  1.0

     total cpu time spent up to now is     1250.9 secs

     total energy              =  -14693.98922808 Ry
     Harris-Foulkes estimate   =  -14693.98922811 Ry
     estimated scf accuracy    <       0.00002698 Ry

     total magnetization       =    -0.00 Bohr mag/cell
     absolute magnetization    =    37.47 Bohr mag/cell

     iteration # 13     ecut=    45.00 Ry     beta= 0.10
     Davidson diagonalization with overlap
     ethr =  4.67E-10,  avg # of iterations =  1.0

     total cpu time spent up to now is     1342.2 secs

     total energy              =  -14693.98922797 Ry
     Harris-Foulkes estimate   =  -14693.98922807 Ry
     estimated scf accuracy    <       0.00002891 Ry

     total magnetization       =    -0.00 Bohr mag/cell
     absolute magnetization    =    37.47 Bohr mag/cell

     iteration # 14     ecut=    45.00 Ry     beta= 0.10
     Davidson diagonalization with overlap
     ethr =  4.67E-10,  avg # of iterations =  1.0

     total cpu time spent up to now is     1433.6 secs

     total energy              =  -14693.98922786 Ry
     Harris-Foulkes estimate   =  -14693.98922800 Ry
     estimated scf accuracy    <       0.00011113 Ry

     total magnetization       =    -0.00 Bohr mag/cell
     absolute magnetization    =    37.47 Bohr mag/cell

     iteration # 15     ecut=    45.00 Ry     beta= 0.10
     Davidson diagonalization with overlap
     ethr =  4.67E-10,  avg # of iterations =  1.0

     total cpu time spent up to now is     1525.2 secs

     total energy              =  -14693.98922802 Ry
     Harris-Foulkes estimate   =  -14693.98922801 Ry
     estimated scf accuracy    <       0.00000160 Ry

     total magnetization       =    -0.00 Bohr mag/cell
     absolute magnetization    =    37.47 Bohr mag/cell

     iteration # 16     ecut=    45.00 Ry     beta= 0.10
     Davidson diagonalization with overlap
     ethr =  4.67E-10,  avg # of iterations =  1.0

     total cpu time spent up to now is     1623.0 secs

     total energy              =  -14693.98922799 Ry
     Harris-Foulkes estimate   =  -14693.98922802 Ry
     estimated scf accuracy    <       0.00000163 Ry

     total magnetization       =    -0.00 Bohr mag/cell
     absolute magnetization    =    37.47 Bohr mag/cell

     iteration # 17     ecut=    45.00 Ry     beta= 0.10
     Davidson diagonalization with overlap
     ethr =  4.67E-10,  avg # of iterations =  1.0

     total cpu time spent up to now is     1722.9 secs

     total energy              =  -14693.98922806 Ry
     Harris-Foulkes estimate   =  -14693.98922807 Ry
     estimated scf accuracy    <       0.00003941 Ry

     total magnetization       =    -0.00 Bohr mag/cell
     absolute magnetization    =    37.47 Bohr mag/cell

     iteration # 18     ecut=    45.00 Ry     beta= 0.10
     Davidson diagonalization with overlap
     ethr =  4.67E-10,  avg # of iterations =  1.0

     total cpu time spent up to now is     1823.6 secs

     total energy              =  -14693.98922803 Ry
     Harris-Foulkes estimate   =  -14693.98922804 Ry
     estimated scf accuracy    <       0.00000115 Ry

     total magnetization       =    -0.00 Bohr mag/cell
     absolute magnetization    =    37.47 Bohr mag/cell

     iteration # 19     ecut=    45.00 Ry     beta= 0.10
     Davidson diagonalization with overlap
     ethr =  3.88E-10,  avg # of iterations =  1.0

     total cpu time spent up to now is     1926.1 secs

     total energy              =  -14693.98922805 Ry
     Harris-Foulkes estimate   =  -14693.98922808 Ry
     estimated scf accuracy    <       0.00003511 Ry

     total magnetization       =    -0.00 Bohr mag/cell
     absolute magnetization    =    37.47 Bohr mag/cell

     iteration # 20     ecut=    45.00 Ry     beta= 0.10
     Davidson diagonalization with overlap
     ethr =  3.88E-10,  avg # of iterations =  1.0

     total cpu time spent up to now is     2026.8 secs

     total energy              =  -14693.98922804 Ry
     Harris-Foulkes estimate   =  -14693.98922805 Ry
     estimated scf accuracy    <       0.00000149 Ry

     total magnetization       =    -0.00 Bohr mag/cell
     absolute magnetization    =    37.47 Bohr mag/cell

     iteration # 21     ecut=    45.00 Ry     beta= 0.10
     Davidson diagonalization with overlap
     ethr =  3.88E-10,  avg # of iterations =  1.0

     total cpu time spent up to now is     2127.2 secs

     total energy              =  -14693.98922794 Ry
     Harris-Foulkes estimate   =  -14693.98922802 Ry
     estimated scf accuracy    <       0.00004083 Ry

     total magnetization       =    -0.00 Bohr mag/cell
     absolute magnetization    =    37.47 Bohr mag/cell

     iteration # 22     ecut=    45.00 Ry     beta= 0.10
     Davidson diagonalization with overlap
     ethr =  3.88E-10,  avg # of iterations =  1.1

     total cpu time spent up to now is     2227.3 secs

     total energy              =  -14693.98922807 Ry
     Harris-Foulkes estimate   =  -14693.98922805 Ry
     estimated scf accuracy    <       0.00000319 Ry

     total magnetization       =    -0.00 Bohr mag/cell
     absolute magnetization    =    37.47 Bohr mag/cell

     iteration # 23     ecut=    45.00 Ry     beta= 0.10
     Davidson diagonalization with overlap
     ethr =  3.88E-10,  avg # of iterations =  1.0

     total cpu time spent up to now is     2329.6 secs

     total energy              =  -14693.98922810 Ry
     Harris-Foulkes estimate   =  -14693.98922808 Ry
     estimated scf accuracy    <       0.00000160 Ry

     total magnetization       =    -0.00 Bohr mag/cell
     absolute magnetization    =    37.47 Bohr mag/cell

     iteration # 24     ecut=    45.00 Ry     beta= 0.10
     Davidson diagonalization with overlap
     ethr =  3.88E-10,  avg # of iterations =  1.0

     total cpu time spent up to now is     2433.1 secs

     total energy              =  -14693.98922808 Ry
     Harris-Foulkes estimate   =  -14693.98922814 Ry
     estimated scf accuracy    <       0.00003079 Ry

     total magnetization       =    -0.00 Bohr mag/cell
     absolute magnetization    =    37.47 Bohr mag/cell

     iteration # 25     ecut=    45.00 Ry     beta= 0.10
     Davidson diagonalization with overlap
     ethr =  3.88E-10,  avg # of iterations =  1.0

     total cpu time spent up to now is     2532.9 secs

     total energy              =  -14693.98922807 Ry
     Harris-Foulkes estimate   =  -14693.98922804 Ry
     estimated scf accuracy    <       0.00002070 Ry

     total magnetization       =    -0.00 Bohr mag/cell
     absolute magnetization    =    37.47 Bohr mag/cell

     iteration # 26     ecut=    45.00 Ry     beta= 0.10
     Davidson diagonalization with overlap
     ethr =  3.88E-10,  avg # of iterations =  1.0

     total cpu time spent up to now is     2633.3 secs

     total energy              =  -14693.98922817 Ry
     Harris-Foulkes estimate   =  -14693.98922807 Ry
     estimated scf accuracy    <       0.00004893 Ry

     total magnetization       =    -0.00 Bohr mag/cell
     absolute magnetization    =    37.47 Bohr mag/cell

     iteration # 27     ecut=    45.00 Ry     beta= 0.10
     Davidson diagonalization with overlap
     ethr =  3.88E-10,  avg # of iterations =  1.0

     total cpu time spent up to now is     2732.5 secs

     total energy              =  -14693.98922810 Ry
     Harris-Foulkes estimate   =  -14693.98922810 Ry
     estimated scf accuracy    <       0.00000850 Ry

     total magnetization       =    -0.00 Bohr mag/cell
     absolute magnetization    =    37.47 Bohr mag/cell

     iteration # 28     ecut=    45.00 Ry     beta= 0.10
     Davidson diagonalization with overlap
     ethr =  3.88E-10,  avg # of iterations =  1.0

     total cpu time spent up to now is     2833.3 secs

     total energy              =  -14693.98922806 Ry
     Harris-Foulkes estimate   =  -14693.98922806 Ry
     estimated scf accuracy    <       0.00000179 Ry

     total magnetization       =    -0.00 Bohr mag/cell
     absolute magnetization    =    37.47 Bohr mag/cell

     iteration # 29     ecut=    45.00 Ry     beta= 0.10
     Davidson diagonalization with overlap
     ethr =  3.88E-10,  avg # of iterations =  1.0

     total cpu time spent up to now is     2934.2 secs

     total energy              =  -14693.98922808 Ry
     Harris-Foulkes estimate   =  -14693.98922807 Ry
     estimated scf accuracy    <       0.00000530 Ry

     total magnetization       =    -0.00 Bohr mag/cell
     absolute magnetization    =    37.47 Bohr mag/cell

     iteration # 30     ecut=    45.00 Ry     beta= 0.10
     Davidson diagonalization with overlap
     ethr =  3.88E-10,  avg # of iterations =  1.0

     total cpu time spent up to now is     3035.0 secs

     total energy              =  -14693.98922805 Ry
     Harris-Foulkes estimate   =  -14693.98922809 Ry
     estimated scf accuracy    <       0.00005602 Ry

     total magnetization       =    -0.00 Bohr mag/cell
     absolute magnetization    =    37.47 Bohr mag/cell

     iteration # 31     ecut=    45.00 Ry     beta= 0.10
     Davidson diagonalization with overlap
     ethr =  3.88E-10,  avg # of iterations =  1.0

     total cpu time spent up to now is     3135.4 secs

     total energy              =  -14693.98922810 Ry
     Harris-Foulkes estimate   =  -14693.98922808 Ry
     estimated scf accuracy    <       0.00001186 Ry

     total magnetization       =    -0.00 Bohr mag/cell
     absolute magnetization    =    37.47 Bohr mag/cell

     iteration # 32     ecut=    45.00 Ry     beta= 0.10
     Davidson diagonalization with overlap
     ethr =  3.88E-10,  avg # of iterations =  1.0

     total cpu time spent up to now is     3241.5 secs

     total energy              =  -14693.98922807 Ry
     Harris-Foulkes estimate   =  -14693.98922808 Ry
     estimated scf accuracy    <       0.00002150 Ry

     total magnetization       =    -0.00 Bohr mag/cell
     absolute magnetization    =    37.47 Bohr mag/cell

     iteration # 33     ecut=    45.00 Ry     beta= 0.10
     Davidson diagonalization with overlap
     ethr =  3.88E-10,  avg # of iterations =  1.0

     total cpu time spent up to now is     3341.4 secs

     total energy              =  -14693.98922808 Ry
     Harris-Foulkes estimate   =  -14693.98922808 Ry
     estimated scf accuracy    <       0.00002254 Ry

     total magnetization       =    -0.00 Bohr mag/cell
     absolute magnetization    =    37.47 Bohr mag/cell

     iteration # 34     ecut=    45.00 Ry     beta= 0.10
     Davidson diagonalization with overlap
     ethr =  3.88E-10,  avg # of iterations =  1.0

     total cpu time spent up to now is     3445.3 secs

     total energy              =  -14693.98922807 Ry
     Harris-Foulkes estimate   =  -14693.98922807 Ry
     estimated scf accuracy    <       0.00002592 Ry

     total magnetization       =    -0.00 Bohr mag/cell
     absolute magnetization    =    37.47 Bohr mag/cell

     iteration # 35     ecut=    45.00 Ry     beta= 0.10
     Davidson diagonalization with overlap
     ethr =  3.88E-10,  avg # of iterations =  1.0

     total cpu time spent up to now is     3545.0 secs

     total energy              =  -14693.98922814 Ry
     Harris-Foulkes estimate   =  -14693.98922807 Ry
     estimated scf accuracy    <       0.00002494 Ry

     total magnetization       =    -0.00 Bohr mag/cell
     absolute magnetization    =    37.47 Bohr mag/cell

     iteration # 36     ecut=    45.00 Ry     beta= 0.10
     Davidson diagonalization with overlap
     ethr =  3.88E-10,  avg # of iterations =  1.0

     total cpu time spent up to now is     3644.7 secs

     total energy              =  -14693.98922815 Ry
     Harris-Foulkes estimate   =  -14693.98922814 Ry
     estimated scf accuracy    <       0.00002265 Ry

     total magnetization       =    -0.00 Bohr mag/cell
     absolute magnetization    =    37.47 Bohr mag/cell

     iteration # 37     ecut=    45.00 Ry     beta= 0.10
     Davidson diagonalization with overlap
     ethr =  3.88E-10,  avg # of iterations =  1.0

     total cpu time spent up to now is     3744.7 secs

     total energy              =  -14693.98922812 Ry
     Harris-Foulkes estimate   =  -14693.98922813 Ry
     estimated scf accuracy    <       0.00000505 Ry

     total magnetization       =    -0.00 Bohr mag/cell
     absolute magnetization    =    37.47 Bohr mag/cell

     iteration # 38     ecut=    45.00 Ry     beta= 0.10
     Davidson diagonalization with overlap
     ethr =  3.88E-10,  avg # of iterations =  1.0

     total cpu time spent up to now is     3846.1 secs

     total energy              =  -14693.98922813 Ry
     Harris-Foulkes estimate   =  -14693.98922815 Ry
     estimated scf accuracy    <       0.00000797 Ry

     total magnetization       =    -0.00 Bohr mag/cell
     absolute magnetization    =    37.47 Bohr mag/cell

     iteration # 39     ecut=    45.00 Ry     beta= 0.10
     Davidson diagonalization with overlap
     ethr =  3.88E-10,  avg # of iterations =  1.0

     total cpu time spent up to now is     3952.4 secs

     total energy              =  -14693.98922814 Ry
     Harris-Foulkes estimate   =  -14693.98922814 Ry
     estimated scf accuracy    <       0.00001233 Ry

     total magnetization       =    -0.00 Bohr mag/cell
     absolute magnetization    =    37.47 Bohr mag/cell

     iteration # 40     ecut=    45.00 Ry     beta= 0.10
     Davidson diagonalization with overlap
     ethr =  3.88E-10,  avg # of iterations =  1.0

     total cpu time spent up to now is     4058.1 secs

     total energy              =  -14693.98922811 Ry
     Harris-Foulkes estimate   =  -14693.98922814 Ry
     estimated scf accuracy    <       0.00000227 Ry

     total magnetization       =    -0.00 Bohr mag/cell
     absolute magnetization    =    37.47 Bohr mag/cell

     iteration # 41     ecut=    45.00 Ry     beta= 0.10
     Davidson diagonalization with overlap
     ethr =  3.88E-10,  avg # of iterations =  1.0

     total cpu time spent up to now is     4163.0 secs

     total energy              =  -14693.98922812 Ry
     Harris-Foulkes estimate   =  -14693.98922808 Ry
     estimated scf accuracy    <       0.00000759 Ry

     total magnetization       =    -0.00 Bohr mag/cell
     absolute magnetization    =    37.47 Bohr mag/cell

     iteration # 42     ecut=    45.00 Ry     beta= 0.10
     Davidson diagonalization with overlap
     ethr =  3.88E-10,  avg # of iterations =  1.0

     total cpu time spent up to now is     4265.8 secs

     total energy              =  -14693.98922807 Ry
     Harris-Foulkes estimate   =  -14693.98922805 Ry
     estimated scf accuracy    <       0.00000857 Ry

     total magnetization       =    -0.00 Bohr mag/cell
     absolute magnetization    =    37.47 Bohr mag/cell

     iteration # 43     ecut=    45.00 Ry     beta= 0.10
     Davidson diagonalization with overlap
     ethr =  3.88E-10,  avg # of iterations =  1.0

     total cpu time spent up to now is     4368.4 secs

     total energy              =  -14693.98922813 Ry
     Harris-Foulkes estimate   =  -14693.98922813 Ry
     estimated scf accuracy    <       0.00000549 Ry

     total magnetization       =    -0.00 Bohr mag/cell
     absolute magnetization    =    37.47 Bohr mag/cell

     iteration # 44     ecut=    45.00 Ry     beta= 0.10
     Davidson diagonalization with overlap
     ethr =  3.88E-10,  avg # of iterations =  1.0
 
     Magnetic moment per site:
     atom:    1    charge:   13.5429    magn:    4.2655    constr:    0.0000
     atom:    2    charge:   13.5421    magn:   -4.2721    constr:    0.0000
     atom:    3    charge:   13.5411    magn:    4.2776    constr:    0.0000
     atom:    4    charge:   13.5420    magn:   -4.2714    constr:    0.0000
     atom:    5    charge:   13.5422    magn:    4.2674    constr:    0.0000
     atom:    6    charge:   13.5420    magn:   -4.2714    constr:    0.0000
     atom:    7    charge:   13.5411    magn:    4.2776    constr:    0.0000
     atom:    8    charge:   13.5421    magn:   -4.2721    constr:    0.0000
     atom:    9    charge:    9.1250    magn:    0.0392    constr:    0.0000
     atom:   10    charge:    9.1252    magn:   -0.0405    constr:    0.0000
     atom:   11    charge:    9.1257    magn:   -0.0377    constr:    0.0000
     atom:   12    charge:    9.1256    magn:    0.0375    constr:    0.0000
     atom:   13    charge:    9.1256    magn:    0.0379    constr:    0.0000
     atom:   14    charge:    9.1259    magn:   -0.0374    constr:    0.0000
     atom:   15    charge:    9.1251    magn:   -0.0395    constr:    0.0000
     atom:   16    charge:    9.1254    magn:    0.0404    constr:    0.0000
     atom:   17    charge:    9.1254    magn:    0.0404    constr:    0.0000
     atom:   18    charge:    9.1251    magn:   -0.0395    constr:    0.0000
     atom:   19    charge:    9.1259    magn:   -0.0374    constr:    0.0000
     atom:   20    charge:    9.1256    magn:    0.0379    constr:    0.0000
     atom:   21    charge:    9.1256    magn:    0.0375    constr:    0.0000
     atom:   22    charge:    9.1257    magn:   -0.0377    constr:    0.0000
     atom:   23    charge:    9.1252    magn:   -0.0405    constr:    0.0000
     atom:   24    charge:    9.1250    magn:    0.0392    constr:    0.0000

     total cpu time spent up to now is     4468.6 secs

     End of self-consistent calculation
 --- enter write_ns ---
 LDA+U parameters:
U(  1) =   3.1200   J(  1) =   0.7000   B(  1) =   0.0803
U(  2) =   3.1200   J(  2) =   0.7000   B(  2) =   0.0803
atom    1   Tr[ns(na)] (up, down, total) =   4.97352  0.71240  5.68591
   spin  1
    eigenvalues: 
  0.985  0.994  0.994  0.997  1.003
    eigenvectors:
  0.000  0.000  0.000  1.000  0.000
  0.000  0.352  0.648  0.000  0.000
  0.000  0.648  0.352  0.000  0.000
  0.000  0.000  0.000  0.000  1.000
  1.000  0.000  0.000  0.000  0.000
    occupations:
  0.997 -0.000 -0.000  0.000  0.000
 -0.000  0.994 -0.000  0.000  0.000
 -0.000 -0.000  0.994  0.000  0.000
  0.000  0.000  0.000  1.003 -0.000
  0.000  0.000  0.000 -0.000  0.985
   spin  2
    eigenvalues: 
  0.067  0.120  0.143  0.143  0.240
    eigenvectors:
  0.000  1.000  0.000  0.000  0.000
  0.000  0.000  0.317  0.683  0.000
  0.000  0.000  0.683  0.317  0.000
  1.000  0.000  0.000  0.000  0.000
  0.000  0.000  0.000  0.000  1.000
    occupations:
  0.120 -0.000 -0.000  0.000  0.000
 -0.000  0.143 -0.000  0.000  0.000
 -0.000 -0.000  0.143  0.000  0.000
  0.000  0.000  0.000  0.067 -0.000
  0.000  0.000  0.000 -0.000  0.240
atomic mag. moment =     4.261116
atom    2   Tr[ns(na)] (up, down, total) =   0.70719  4.97430  5.68149
   spin  1
    eigenvalues: 
  0.067  0.115  0.144  0.144  0.238
    eigenvectors:
  0.000  1.000  0.000  0.000  0.000
  0.000  0.000  0.287  0.713  0.000
  0.000  0.000  0.713  0.287  0.000
  1.000  0.000  0.000  0.000  0.000
  0.000  0.000  0.000  0.000  1.000
    occupations:
  0.115 -0.000 -0.000  0.000  0.000
 -0.000  0.144 -0.000  0.000  0.000
 -0.000 -0.000  0.144  0.000  0.000
  0.000  0.000  0.000  0.067 -0.000
  0.000  0.000  0.000 -0.000  0.238
   spin  2
    eigenvalues: 
  0.985  0.994  0.994  0.998  1.003
    eigenvectors:
  0.000  0.000  0.000  1.000  0.000
  0.000  0.290  0.710  0.000  0.000
  0.000  0.710  0.290  0.000  0.000
  0.000  0.000  0.000  0.000  1.000
  1.000  0.000  0.000  0.000  0.000
    occupations:
  0.998 -0.000 -0.000  0.000  0.000
 -0.000  0.994 -0.000  0.000  0.000
 -0.000 -0.000  0.994  0.000  0.000
  0.000  0.000  0.000  1.003 -0.000
  0.000  0.000  0.000 -0.000  0.985
atomic mag. moment =    -4.267107
atom    3   Tr[ns(na)] (up, down, total) =   4.97502  0.70281  5.67783
   spin  1
    eigenvalues: 
  0.986  0.994  0.994  0.998  1.003
    eigenvectors:
  0.000  0.000  0.000  1.000  0.000
  0.000  0.294  0.706  0.000  0.000
  0.000  0.706  0.294  0.000  0.000
  0.000  0.000  0.000  0.000  1.000
  1.000  0.000  0.000  0.000  0.000
    occupations:
  0.998 -0.000 -0.000  0.000  0.000
 -0.000  0.994 -0.000  0.000  0.000
 -0.000 -0.000  0.994  0.000  0.000
  0.000  0.000  0.000  1.003 -0.000
  0.000  0.000  0.000 -0.000  0.986
   spin  2
    eigenvalues: 
  0.067  0.110  0.145  0.145  0.236
    eigenvectors:
  0.000  1.000  0.000  0.000  0.000
  0.000  0.000  0.352  0.648  0.000
  0.000  0.000  0.648  0.352  0.000
  1.000  0.000  0.000  0.000  0.000
  0.000  0.000  0.000  0.000  1.000
    occupations:
  0.110 -0.000 -0.000  0.000  0.000
 -0.000  0.145 -0.000  0.000  0.000
 -0.000 -0.000  0.145  0.000  0.000
  0.000  0.000  0.000  0.067 -0.000
  0.000  0.000  0.000 -0.000  0.236
atomic mag. moment =     4.272208
atom    4   Tr[ns(na)] (up, down, total) =   0.70774  4.97420  5.68194
   spin  1
    eigenvalues: 
  0.067  0.114  0.144  0.144  0.238
    eigenvectors:
  0.000  1.000  0.000  0.000  0.000
  0.000  0.000  0.337  0.663  0.000
  0.000  0.000  0.663  0.337  0.000
  1.000  0.000  0.000  0.000  0.000
  0.000  0.000  0.000  0.000  1.000
    occupations:
  0.114 -0.000 -0.000  0.000  0.000
 -0.000  0.144 -0.000  0.000  0.000
 -0.000 -0.000  0.144  0.000  0.000
  0.000  0.000  0.000  0.067 -0.000
  0.000  0.000  0.000 -0.000  0.238
   spin  2
    eigenvalues: 
  0.985  0.994  0.994  0.998  1.003
    eigenvectors:
  0.000  0.000  0.000  1.000  0.000
  0.000  0.340  0.660  0.000  0.000
  0.000  0.660  0.340  0.000  0.000
  0.000  0.000  0.000  0.000  1.000
  1.000  0.000  0.000  0.000  0.000
    occupations:
  0.998 -0.000 -0.000  0.000  0.000
 -0.000  0.994 -0.000  0.000  0.000
 -0.000 -0.000  0.994  0.000  0.000
  0.000  0.000  0.000  1.003 -0.000
  0.000  0.000  0.000 -0.000  0.985
atomic mag. moment =    -4.266466
atom    5   Tr[ns(na)] (up, down, total) =   4.97365  0.71040  5.68405
   spin  1
    eigenvalues: 
  0.985  0.994  0.994  0.997  1.003
    eigenvectors:
  0.000  0.000  0.000  1.000  0.000
  0.000  0.282  0.718  0.000  0.000
  0.000  0.718  0.282  0.000  0.000
  0.000  0.000  0.000  0.000  1.000
  1.000  0.000  0.000  0.000  0.000
    occupations:
  0.997 -0.000 -0.000  0.000  0.000
 -0.000  0.994 -0.000  0.000  0.000
 -0.000 -0.000  0.994  0.000  0.000
  0.000  0.000  0.000  1.003 -0.000
  0.000  0.000  0.000 -0.000  0.985
   spin  2
    eigenvalues: 
  0.067  0.119  0.142  0.142  0.241
    eigenvectors:
  0.000  1.000  0.000  0.000  0.000
  0.000  0.000  0.236  0.764  0.000
  0.000  0.000  0.764  0.236  0.000
  1.000  0.000  0.000  0.000  0.000
  0.000  0.000  0.000  0.000  1.000
    occupations:
  0.119 -0.000 -0.000  0.000  0.000
 -0.000  0.142 -0.000  0.000  0.000
 -0.000 -0.000  0.142  0.000  0.000
  0.000  0.000  0.000  0.067 -0.000
  0.000  0.000  0.000 -0.000  0.241
atomic mag. moment =     4.263252
atom    6   Tr[ns(na)] (up, down, total) =   0.70774  4.97420  5.68194
   spin  1
    eigenvalues: 
  0.067  0.114  0.144  0.144  0.238
    eigenvectors:
  0.000  1.000  0.000  0.000  0.000
  0.000  0.000  0.364  0.636  0.000
  0.000  0.000  0.636  0.364  0.000
  1.000  0.000  0.000  0.000  0.000
  0.000  0.000  0.000  0.000  1.000
    occupations:
  0.114 -0.000 -0.000  0.000  0.000
 -0.000  0.144 -0.000  0.000  0.000
 -0.000 -0.000  0.144  0.000  0.000
  0.000  0.000  0.000  0.067 -0.000
  0.000  0.000  0.000 -0.000  0.238
   spin  2
    eigenvalues: 
  0.985  0.994  0.994  0.998  1.003
    eigenvectors:
  0.000  0.000  0.000  1.000  0.000
  0.000  0.381  0.619  0.000  0.000
  0.000  0.619  0.381  0.000  0.000
  0.000  0.000  0.000  0.000  1.000
  1.000  0.000  0.000  0.000  0.000
    occupations:
  0.998 -0.000 -0.000  0.000  0.000
 -0.000  0.994 -0.000  0.000  0.000
 -0.000 -0.000  0.994  0.000  0.000
  0.000  0.000  0.000  1.003 -0.000
  0.000  0.000  0.000 -0.000  0.985
atomic mag. moment =    -4.266466
atom    7   Tr[ns(na)] (up, down, total) =   4.97502  0.70281  5.67783
   spin  1
    eigenvalues: 
  0.986  0.994  0.994  0.998  1.003
    eigenvectors:
  0.000  0.000  0.000  1.000  0.000
  0.000  0.274  0.726  0.000  0.000
  0.000  0.726  0.274  0.000  0.000
  0.000  0.000  0.000  0.000  1.000
  1.000  0.000  0.000  0.000  0.000
    occupations:
  0.998 -0.000 -0.000  0.000  0.000
 -0.000  0.994 -0.000  0.000  0.000
 -0.000 -0.000  0.994  0.000  0.000
  0.000  0.000  0.000  1.003 -0.000
  0.000  0.000  0.000 -0.000  0.986
   spin  2
    eigenvalues: 
  0.067  0.110  0.145  0.145  0.236
    eigenvectors:
  0.000  1.000  0.000  0.000  0.000
  0.000  0.000  0.275  0.725  0.000
  0.000  0.000  0.725  0.275  0.000
  1.000  0.000  0.000  0.000  0.000
  0.000  0.000  0.000  0.000  1.000
    occupations:
  0.110 -0.000 -0.000  0.000  0.000
 -0.000  0.145 -0.000  0.000  0.000
 -0.000 -0.000  0.145  0.000  0.000
  0.000  0.000  0.000  0.067 -0.000
  0.000  0.000  0.000 -0.000  0.236
atomic mag. moment =     4.272208
atom    8   Tr[ns(na)] (up, down, total) =   0.70719  4.97430  5.68149
   spin  1
    eigenvalues: 
  0.067  0.115  0.144  0.144  0.238
    eigenvectors:
  0.000  1.000  0.000  0.000  0.000
  0.000  0.000  0.347  0.653  0.000
  0.000  0.000  0.653  0.347  0.000
  1.000  0.000  0.000  0.000  0.000
  0.000  0.000  0.000  0.000  1.000
    occupations:
  0.115 -0.000 -0.000  0.000  0.000
 -0.000  0.144 -0.000  0.000  0.000
 -0.000 -0.000  0.144  0.000  0.000
  0.000  0.000  0.000  0.067 -0.000
  0.000  0.000  0.000 -0.000  0.238
   spin  2
    eigenvalues: 
  0.985  0.994  0.994  0.998  1.003
    eigenvectors:
  0.000  0.000  0.000  1.000  0.000
  0.000  0.306  0.694  0.000  0.000
  0.000  0.694  0.306  0.000  0.000
  0.000  0.000  0.000  0.000  1.000
  1.000  0.000  0.000  0.000  0.000
    occupations:
  0.998 -0.000 -0.000  0.000  0.000
 -0.000  0.994 -0.000  0.000  0.000
 -0.000 -0.000  0.994  0.000  0.000
  0.000  0.000  0.000  1.003 -0.000
  0.000  0.000  0.000 -0.000  0.985
atomic mag. moment =    -4.267107
N of occupied +U levels =   45.452474
 --- exit write_ns ---

 ------ SPIN UP ------------


          k = 0.0000 0.0000 0.0000 ( 13925 PWs)   bands (ev):

   -66.8107 -66.8107 -66.7976 -66.7971 -62.1812 -62.1812 -62.1798 -62.1798
   -35.5753 -35.5753 -35.5638 -35.5615 -35.5278 -35.5278 -35.5278 -35.5278
   -35.5146 -35.5146 -35.5142 -35.5142 -31.0012 -31.0012 -31.0005 -31.0005
   -31.0005 -31.0005 -31.0004 -31.0004 -30.9989 -30.9989 -30.9989 -30.9989
     5.7876   5.9353   5.9359   6.2791   6.4892   7.0598   7.0615   7.6260
     8.3592   8.4941   8.5054   8.5271   8.5281   8.5530   8.5717   8.5731
     8.7093   8.8993   8.9046   9.0267   9.1948   9.2805   9.2839   9.3206
     9.3233   9.3876   9.4122   9.4682   9.9860  10.0002  10.0039  10.0072
    10.0202  10.1322  10.1457  10.1457  10.1581  10.1582  10.1660  10.1820
    10.1829  10.1968  10.1968  10.2000  10.2000  10.3096  10.3549  10.3549
    10.3621  10.3621  10.5503  10.6060  10.6060  10.6065  10.6065  10.6073
    10.6073  10.6098  10.6101  10.6101  10.6135  10.6286  10.6286  10.6291
    10.6291  10.6829  10.9390  10.9390  11.0279  11.0603  11.0603  11.1528
    11.1568  11.2321  11.2681  11.3333  11.3353  11.4258  11.4258  11.4297
    11.4297  11.4363  11.4370  11.4567  11.4654  11.4906  11.7118  11.7118
    11.8835  11.9279  11.9298  11.9660  12.0929  12.1639  12.1639  12.1782
    12.1822  12.2610  12.3481  12.3481  12.3511  12.3511  12.4669  12.4669
    12.7950  12.8271  12.8311  12.8381  12.8578  13.0290  13.0340  13.3795
    14.2988  15.0441  15.0487  15.7997  16.8732  16.8732  16.9228  16.9228
    16.9229  16.9229  16.9670  16.9672  16.9696  16.9698  16.9772  16.9772
    17.1871  17.1873  17.1874  17.1875  17.6005  17.6129  17.6142  17.6233
    18.6303  19.6884  19.6887  20.1120  20.1120  20.5000  20.5000  20.5011
    20.5011  21.4149

          k = 0.0000 0.0000-0.0484 ( 13878 PWs)   bands (ev):

   -66.8107 -66.8107 -66.7976 -66.7971 -62.1812 -62.1812 -62.1798 -62.1798
   -35.5753 -35.5753 -35.5638 -35.5615 -35.5278 -35.5278 -35.5278 -35.5278
   -35.5146 -35.5146 -35.5142 -35.5142 -31.0012 -31.0012 -31.0005 -31.0005
   -31.0005 -31.0005 -31.0004 -31.0004 -30.9989 -30.9989 -30.9989 -30.9989
     5.8248   5.8252   6.1121   6.1126   6.7146   6.7147   7.4189   7.4191
     8.5041   8.5044   8.5115   8.5118   8.5449   8.5454   8.5761   8.5763
     8.6578   8.6581   9.0588   9.0589   9.2192   9.2194   9.3261   9.3266
     9.3536   9.3537   9.4218   9.4221   9.9902   9.9907  10.0143  10.0151
    10.0532  10.0534  10.1567  10.1574  10.1587  10.1587  10.1589  10.1589
    10.1759  10.1767  10.2632  10.2634  10.2644  10.2644  10.2652  10.2652
    10.4790  10.4790  10.4793  10.4793  10.5676  10.5676  10.6073  10.6073
    10.6074  10.6074  10.6096  10.6096  10.6105  10.6105  10.6604  10.6605
    10.7958  10.7958  10.7960  10.7960  11.0677  11.0678  11.2184  11.2184
    11.2186  11.2186  11.2353  11.2353  11.2629  11.2629  11.4056  11.4057
    11.4431  11.4432  11.4816  11.4818  11.6179  11.6179  11.6183  11.6183
    11.8977  11.8982  11.9556  11.9560  12.1196  12.1199  12.2331  12.2331
    12.2333  12.2333  12.2375  12.2375  12.4358  12.4358  12.4361  12.4361
    12.8053  12.8060  12.8495  12.8502  12.8877  12.8878  13.2416  13.2419
    14.5440  14.5445  15.5570  15.5571  16.8862  16.8862  16.8884  16.8884
    16.9596  16.9596  16.9618  16.9618  16.9670  16.9672  16.9696  16.9698
    17.1871  17.1872  17.1874  17.1875  17.6051  17.6054  17.6204  17.6207
    18.9464  18.9465  20.2128  20.2128  20.2131  20.2131  20.6118  20.6119
    20.9398  20.9398

          k = 0.0000 0.1250 0.0000 ( 13879 PWs)   bands (ev):

   -66.8104 -66.8104 -66.7974 -66.7969 -62.1812 -62.1812 -62.1798 -62.1798
   -35.5751 -35.5751 -35.5636 -35.5614 -35.5296 -35.5296 -35.5278 -35.5278
   -35.5164 -35.5160 -35.5145 -35.5141 -31.0027 -31.0027 -31.0010 -31.0010
   -31.0010 -31.0010 -31.0004 -31.0004 -31.0001 -31.0001 -30.9987 -30.9987
     6.0310   6.1752   6.1758   6.5123   6.7036   7.2487   7.2504   7.7782
     8.3629   8.5756   8.6308   8.6350   8.6361   8.6652   8.6712   8.6723
     8.7998   8.8041   8.8097   9.0070   9.2280   9.2712   9.2740   9.3049
     9.3445   9.4537   9.4568   9.6371   9.7509   9.7956   9.8277   9.8299
     9.8612   9.8615   9.8805   9.8937  10.0510  10.1159  10.1170  10.1497
    10.1596  10.1907  10.1987  10.1993  10.2179  10.2209  10.2750  10.2799
    10.3609  10.4056  10.4758  10.4770  10.4946  10.4980  10.5273  10.6320
    10.6760  10.6766  10.7661  10.7750  10.7938  10.8178  10.8677  10.8680
    10.9764  10.9887  11.0300  11.0300  11.0504  11.0831  11.1530  11.1537
    11.3006  11.3169  11.3184  11.3613  11.3872  11.3886  11.3984  11.4106
    11.4317  11.4411  11.4834  11.5959  11.6624  11.6974  11.6994  11.8341
    11.8529  11.9059  11.9397  11.9413  11.9964  12.0151  12.0627  12.0670
    12.2046  12.2502  12.2532  12.3788  12.4793  12.5635  12.5662  12.6462
    12.6809  12.7380  12.7419  12.7696  12.7789  12.9986  13.0034  13.4475
    14.3355  15.1665  15.1709  15.9332  16.6913  16.7222  16.7260  16.7266
    16.9720  16.9816  16.9822  16.9865  17.0245  17.0414  17.0415  17.0690
    17.0787  17.0946  17.0947  17.1004  17.6059  17.6803  17.6815  17.9909
    18.6293  18.8160  19.0797  19.0809  19.8620  20.0112  20.0115  20.0575
    20.7535  21.0655

          k = 0.0000 0.1250-0.0484 ( 13868 PWs)   bands (ev):

   -66.8104 -66.8104 -66.7974 -66.7969 -62.1812 -62.1812 -62.1798 -62.1798
   -35.5751 -35.5751 -35.5636 -35.5614 -35.5296 -35.5296 -35.5278 -35.5278
   -35.5164 -35.5160 -35.5145 -35.5141 -31.0027 -31.0027 -31.0010 -31.0010
   -31.0010 -31.0010 -31.0004 -31.0004 -31.0001 -31.0001 -30.9987 -30.9987
     6.0674   6.0677   6.3475   6.3480   6.9220   6.9221   7.5839   7.5841
     8.5308   8.5311   8.6004   8.6005   8.6379   8.6382   8.6574   8.6579
     8.7545   8.7547   8.9776   8.9778   9.2269   9.2273   9.3232   9.3234
     9.3454   9.3456   9.5781   9.5782   9.7900   9.7910   9.8041   9.8045
     9.8613   9.8621   9.8965   9.8970  10.0741  10.0744  10.1482  10.1484
    10.1582  10.1585  10.1981  10.1982  10.2510  10.2515  10.2542  10.2543
    10.4036  10.4038  10.4266  10.4271  10.5163  10.5168  10.6246  10.6248
    10.6460  10.6464  10.7212  10.7213  10.8467  10.8467  10.9079  10.9083
    10.9647  10.9648  10.9998  11.0004  11.0665  11.0670  11.1729  11.1730
    11.3025  11.3026  11.3196  11.3199  11.3888  11.3888  11.3904  11.3904
    11.4714  11.4717  11.5614  11.5617  11.6262  11.6263  11.7765  11.7766
    11.9163  11.9168  11.9414  11.9417  11.9651  11.9655  12.1189  12.1192
    12.1650  12.1651  12.3454  12.3457  12.5060  12.5062  12.6197  12.6198
    12.7031  12.7038  12.7682  12.7688  12.8279  12.8280  13.2637  13.2640
    14.6233  14.6237  15.6923  15.6923  16.7014  16.7035  16.7334  16.7354
    16.9751  16.9768  16.9845  16.9862  17.0281  17.0302  17.0566  17.0580
    17.0864  17.0874  17.0989  17.0991  17.6210  17.6213  17.8259  17.8263
    18.7996  18.7999  19.1826  19.1827  19.4720  19.4723  20.4943  20.4944
    20.8333  20.8336

          k = 0.0000 0.2500 0.0000 ( 13848 PWs)   bands (ev):

   -66.8103 -66.8103 -66.7972 -66.7967 -62.1808 -62.1808 -62.1794 -62.1794
   -35.5747 -35.5747 -35.5632 -35.5610 -35.5338 -35.5338 -35.5275 -35.5275
   -35.5206 -35.5202 -35.5143 -35.5139 -31.0079 -31.0079 -31.0063 -31.0063
   -31.0004 -31.0004 -31.0000 -31.0000 -30.9996 -30.9996 -30.9984 -30.9984
     6.7196   6.8502   6.8508   7.1569   7.2868   7.7214   7.7229   8.0981
     8.3077   8.5394   8.5408   8.7329   8.7544   8.7952   8.8214   8.8246
     8.8788   8.9466   8.9480   9.0132   9.1066   9.1095   9.1100   9.2082
     9.5390   9.5585   9.5604   9.5606   9.6129   9.6151   9.6557   9.6589
     9.6593   9.6849   9.6861   9.6940   9.7287   9.8738   9.8768  10.0154
    10.0564  10.0598  10.0988  10.1807  10.2390  10.3251  10.3294  10.4774
    10.4887  10.6147  10.6320  10.6324  10.6787  10.7242  10.7256  10.7949
    10.8613  10.8831  10.8853  10.9100  10.9117  10.9146  10.9155  11.0500
    11.0918  11.1341  11.1344  11.1581  11.2649  11.2864  11.3040  11.3050
    11.3459  11.3809  11.3824  11.4113  11.4838  11.4900  11.5028  11.6204
    11.6794  11.6804  11.6817  11.7224  11.7384  11.8443  11.8845  11.8905
    11.8939  11.9414  11.9476  11.9499  11.9772  11.9980  12.0684  12.0713
    12.1288  12.1340  12.1975  12.3909  12.5531  12.5740  12.7143  12.7170
    12.7222  12.7555  12.7580  12.7672  12.8121  12.9212  12.9252  13.6811
    14.3861  15.3584  15.3625  15.8787  16.0177  16.0184  16.0968  16.2810
    16.3136  16.6634  16.6647  16.7261  16.9336  16.9440  16.9440  16.9545
    17.2280  17.2988  17.3021  17.3034  17.3065  17.3216  17.3219  17.3953
    17.7788  17.7797  17.7949  18.1272  18.5452  18.6782  18.6788  18.7585
    19.5713  20.5602

          k = 0.0000 0.2500-0.0484 ( 13842 PWs)   bands (ev):

   -66.8103 -66.8103 -66.7972 -66.7967 -62.1808 -62.1808 -62.1794 -62.1794
   -35.5747 -35.5747 -35.5632 -35.5610 -35.5338 -35.5338 -35.5275 -35.5275
   -35.5206 -35.5202 -35.5143 -35.5139 -31.0079 -31.0079 -31.0063 -31.0063
   -31.0004 -31.0004 -31.0000 -31.0000 -30.9996 -30.9996 -30.9984 -30.9984
     6.7527   6.7531   7.0045   7.0050   7.4727   7.4727   7.9577   7.9578
     8.4090   8.4091   8.6514   8.6518   8.8031   8.8036   8.8100   8.8101
     8.8905   8.8907   9.0348   9.0348   9.0526   9.0526   9.1784   9.1789
     9.5440   9.5444   9.5830   9.5837   9.6246   9.6255   9.6491   9.6494
     9.6581   9.6590   9.7160   9.7161   9.7206   9.7211  10.0284  10.0286
    10.0705  10.0706  10.0866  10.0866  10.2624  10.2628  10.4201  10.4203
    10.5563  10.5564  10.6198  10.6203  10.7597  10.7600  10.7676  10.7677
    10.7799  10.7802  10.8838  10.8842  10.9515  10.9516  11.0315  11.0316
    11.0418  11.0424  11.2309  11.2310  11.2583  11.2585  11.2862  11.2862
    11.3323  11.3328  11.4162  11.4167  11.4985  11.4986  11.5547  11.5550
    11.6372  11.6373  11.7136  11.7138  11.8594  11.8594  11.8739  11.8741
    11.9079  11.9081  11.9459  11.9462  12.0027  12.0028  12.0042  12.0043
    12.1634  12.1637  12.2899  12.2900  12.6288  12.6296  12.6567  12.6568
    12.7267  12.7268  12.7625  12.7625  12.7926  12.7928  13.3479  13.3480
    14.7754  14.7757  15.8136  15.8138  16.0211  16.0217  16.0718  16.0728
    16.5297  16.5305  16.7160  16.7168  16.9366  16.9367  16.9513  16.9514
    17.2502  17.2514  17.2992  17.3011  17.3043  17.3063  17.3903  17.3905
    17.7045  17.7048  18.1148  18.1150  18.3343  18.3344  18.9436  18.9437
    19.8106  19.8111

          k = 0.0000 0.3750 0.0000 ( 13856 PWs)   bands (ev):

   -66.8109 -66.8109 -66.7978 -66.7973 -62.1798 -62.1798 -62.1785 -62.1785
   -35.5743 -35.5743 -35.5628 -35.5606 -35.5379 -35.5379 -35.5273 -35.5273
   -35.5246 -35.5242 -35.5140 -35.5136 -31.0133 -31.0133 -31.0117 -31.0117
   -30.9998 -30.9998 -30.9997 -30.9997 -30.9990 -30.9990 -30.9981 -30.9981
     7.6784   7.7756   7.7760   7.9917   7.9923   8.1695   8.1708   8.2382
     8.2899   8.3277   8.3289   8.4577   8.4819   8.6950   8.6966   8.8220
     9.0761   9.1418   9.1939   9.1967   9.2319   9.2332   9.2950   9.3150
     9.3409   9.3423   9.3532   9.3762   9.3935   9.3949   9.4451   9.4718
     9.6389   9.7108   9.7117   9.7121   9.7942   9.8607   9.9060   9.9091
    10.0265  10.1137  10.1534  10.1574  10.1790  10.2193  10.2201  10.4942
    10.5396  10.6323  10.6396  10.7036  10.7640  10.7662  10.8899  10.8966
    10.9226  10.9828  10.9855  10.9856  11.0183  11.2041  11.2669  11.2683
    11.3443  11.3467  11.3746  11.3758  11.3867  11.5476  11.5570  11.5843
    11.5907  11.5953  11.6942  11.6998  11.7008  11.7555  11.7926  11.8338
    11.8377  11.8967  11.9002  11.9773  11.9800  11.9894  12.0483  12.0501
    12.0545  12.0760  12.0959  12.1227  12.1546  12.2041  12.2554  12.2924
    12.2955  12.4017  12.4054  12.4144  12.4911  12.7228  12.7557  12.7582
    12.7631  12.8599  12.8617  12.8642  12.8693  12.9702  12.9708  13.9423
    13.9559  14.0155  14.2588  14.2591  14.8138  14.8170  15.0821  15.1352
    15.4366  15.5064  15.7898  15.7910  16.7871  16.8726  16.8735  16.8736
    16.8745  16.8782  16.8782  16.9797  17.0960  17.1375  17.1379  17.3083
    17.5024  17.5027  17.5056  17.5059  17.8978  18.0108  18.0109  18.1378
    19.8438  19.8455

          k = 0.0000 0.3750-0.0484 ( 13872 PWs)   bands (ev):

   -66.8109 -66.8109 -66.7978 -66.7973 -62.1798 -62.1798 -62.1785 -62.1785
   -35.5743 -35.5743 -35.5628 -35.5606 -35.5379 -35.5379 -35.5273 -35.5273
   -35.5246 -35.5242 -35.5140 -35.5136 -31.0133 -31.0133 -31.0117 -31.0117
   -30.9998 -30.9998 -30.9997 -30.9997 -30.9990 -30.9990 -30.9981 -30.9981
     7.7038   7.7041   7.8791   7.8797   8.0923   8.0923   8.2207   8.2208
     8.2984   8.2985   8.3834   8.3839   8.5808   8.5811   8.7862   8.7863
     9.1082   9.1085   9.1673   9.1678   9.2689   9.2691   9.3237   9.3240
     9.3509   9.3513   9.3580   9.3584   9.3789   9.3795   9.4258   9.4259
     9.6913   9.6922   9.7122   9.7129   9.8294   9.8294   9.9711   9.9717
     9.9868   9.9869  10.1311  10.1314  10.1726  10.1727  10.4513  10.4514
    10.5331  10.5336  10.7192  10.7192  10.7771  10.7771  10.8401  10.8402
    10.9155  10.9157  11.0448  11.0448  11.1008  11.1014  11.2605  11.2609
    11.3688  11.3689  11.3989  11.3989  11.4463  11.4466  11.4778  11.4783
    11.6483  11.6485  11.7311  11.7312  11.7745  11.7746  11.7798  11.7800
    11.8232  11.8236  11.9304  11.9306  11.9967  11.9968  12.0335  12.0337
    12.0653  12.0656  12.1132  12.1134  12.2030  12.2034  12.3262  12.3264
    12.3495  12.3497  12.4648  12.4649  12.4955  12.4955  12.7361  12.7368
    12.7636  12.7636  12.8620  12.8621  12.8656  12.8659  13.4937  13.4939
    14.0351  14.0354  14.3839  14.3839  14.6704  14.6708  15.1575  15.1577
    15.5593  15.5596  15.7156  15.7161  16.7972  16.7986  16.8729  16.8730
    16.8741  16.8742  16.9615  16.9620  17.1016  17.1021  17.2428  17.2439
    17.5024  17.5027  17.5056  17.5059  17.9284  17.9291  18.1009  18.1017
    19.8811  19.8815

          k = 0.0000-0.5000 0.0000 ( 13918 PWs)   bands (ev):

   -66.8113 -66.8113 -66.7982 -66.7977 -62.1793 -62.1793 -62.1779 -62.1779
   -35.5741 -35.5741 -35.5626 -35.5604 -35.5395 -35.5395 -35.5272 -35.5272
   -35.5263 -35.5259 -35.5139 -35.5135 -31.0156 -31.0156 -31.0140 -31.0140
   -30.9996 -30.9996 -30.9996 -30.9996 -30.9988 -30.9988 -30.9979 -30.9979
     8.1715   8.1963   8.2394   8.2408   8.2410   8.2420   8.3220   8.3406
     8.3840   8.4499   8.4508   8.4846   8.5352   8.6150   8.6171   8.6531
     9.1345   9.1843   9.2088   9.2092   9.2127   9.2636   9.2645   9.2835
     9.2842   9.2857   9.2869   9.3461   9.3475   9.3500   9.4301   9.6983
     9.7085   9.7330   9.7560   9.7890   9.8108   9.8126   9.8717   9.8751
    10.0384  10.0560  10.0567  10.0609  10.0614  10.1822  10.1844  10.1875
    10.4003  10.5430  10.5554  10.7231  10.7238  10.7268  10.7275  10.9356
    11.1346  11.1767  11.1778  11.2123  11.2523  11.2677  11.2695  11.5057
    11.5102  11.5441  11.5690  11.5790  11.5818  11.5850  11.5910  11.5912
    11.6276  11.6477  11.6527  11.6879  11.6982  11.7099  11.7964  11.8254
    11.8276  11.8602  12.1191  12.1232  12.1883  12.1940  12.4296  12.4312
    12.4333  12.4387  12.4424  12.4442  12.4444  12.5512  12.5860  12.5867
    12.6220  12.6236  12.6595  12.6718  12.8333  12.8358  12.8389  12.8414
    12.8514  12.8519  12.9446  12.9492  12.9837  13.0111  13.1607  13.1651
    13.3292  13.3449  13.3459  13.6624  13.9731  14.0290  14.3529  14.3539
    14.5221  14.5237  14.7873  14.9129  16.4585  16.7388  16.7396  16.8529
    16.8548  16.8548  16.8568  16.9110  16.9147  16.9169  16.9171  16.9198
    17.5764  17.5764  17.5795  17.5796  17.9173  17.9800  17.9800  18.0197
    19.7817  19.9606

          k = 0.0000-0.5000-0.0484 ( 13892 PWs)   bands (ev):

   -66.8113 -66.8113 -66.7982 -66.7977 -62.1793 -62.1793 -62.1779 -62.1779
   -35.5741 -35.5741 -35.5626 -35.5604 -35.5395 -35.5395 -35.5272 -35.5272
   -35.5263 -35.5259 -35.5139 -35.5135 -31.0156 -31.0156 -31.0140 -31.0140
   -30.9996 -30.9996 -30.9996 -30.9996 -30.9988 -30.9988 -30.9979 -30.9979
     8.1899   8.1901   8.2080   8.2084   8.2883   8.2884   8.3040   8.3044
     8.4130   8.4133   8.4756   8.4757   8.5665   8.5671   8.6452   8.6455
     9.1496   9.1501   9.2232   9.2235   9.2271   9.2274   9.2837   9.2839
     9.2859   9.2869   9.3178   9.3178   9.3302   9.3305   9.5273   9.5281
     9.7601   9.7602   9.7734   9.7741   9.7989   9.7995   9.9726   9.9733
     9.9871   9.9873  10.0561  10.0565  10.0612  10.0612  10.2765  10.2772
    10.3400  10.3400  10.7234  10.7234  10.7271  10.7272  10.9080  10.9082
    11.0051  11.0059  11.2342  11.2342  11.2648  11.2654  11.3951  11.3952
    11.5070  11.5073  11.5259  11.5264  11.5792  11.5795  11.6090  11.6092
    11.6498  11.6500  11.6825  11.6827  11.8056  11.8059  11.8483  11.8485
    11.8947  11.8954  11.8955  11.8958  12.3217  12.3219  12.3831  12.3839
    12.4309  12.4313  12.4409  12.4410  12.4967  12.4969  12.5601  12.5605
    12.6282  12.6284  12.7483  12.7485  12.7847  12.7851  12.8342  12.8345
    12.8399  12.8408  12.9206  12.9208  13.0594  13.0597  13.1555  13.1556
    13.2729  13.2731  13.5361  13.5362  14.0864  14.0869  14.2095  14.2099
    14.6465  14.6471  14.7992  14.7995  16.5561  16.5579  16.8534  16.8535
    16.8562  16.8563  16.8726  16.8745  16.9137  16.9143  16.9157  16.9162
    17.5764  17.5764  17.5795  17.5796  17.9385  17.9395  18.0091  18.0102
    19.9302  19.9305

          k = 0.1250 0.1250 0.0000 ( 13839 PWs)   bands (ev):

   -66.8101 -66.8101 -66.7971 -66.7965 -62.1813 -62.1812 -62.1799 -62.1799
   -35.5750 -35.5750 -35.5635 -35.5612 -35.5295 -35.5295 -35.5295 -35.5295
   -35.5163 -35.5162 -35.5159 -35.5158 -31.0026 -31.0026 -31.0024 -31.0024
   -31.0010 -31.0010 -31.0008 -31.0008 -31.0007 -31.0007 -30.9999 -30.9999
     6.2638   6.4055   6.4062   6.7370   6.9185   7.4432   7.4449   7.9442
     8.4225   8.6540   8.7411   8.7423   8.7573   8.7736   8.7750   8.7925
     8.7934   8.7960   8.8876   9.0506   9.1755   9.3478   9.4057   9.4078
     9.4087   9.4118   9.4860   9.5443   9.5834   9.7162   9.7174   9.7833
     9.8429   9.8434   9.8456   9.8935   9.9104   9.9136   9.9434   9.9544
    10.0979  10.1636  10.1652  10.1671  10.1674  10.2448  10.2468  10.2643
    10.3717  10.4068  10.4074  10.4198  10.4237  10.4254  10.4257  10.5229
    10.7169  10.7258  10.7276  10.7569  10.7618  10.7894  10.8313  10.8320
    10.9401  10.9554  10.9563  11.1146  11.2473  11.2624  11.2957  11.2967
    11.3060  11.3653  11.3735  11.3901  11.4076  11.4255  11.4263  11.4363
    11.4956  11.4962  11.5129  11.6681  11.7299  11.8190  11.8728  11.8739
    11.9144  11.9317  11.9548  11.9555  12.0040  12.0089  12.0362  12.2193
    12.2422  12.4029  12.4061  12.5174  12.5181  12.5216  12.5541  12.5566
    12.5593  12.6414  12.6456  12.7100  12.7368  13.0049  13.0093  13.5651
    14.4358  15.2977  15.3017  16.0051  16.7772  16.8000  16.8575  16.8576
    16.8582  16.8584  16.9329  16.9616  16.9719  16.9864  16.9991  17.0131
    17.0136  17.0186  17.0188  17.0190  17.5995  17.7630  17.7641  18.3600
    18.8360  19.3241  19.3451  19.4970  19.4981  19.6899  19.6911  19.8929
    20.2593  20.3056

          k = 0.1250 0.1250-0.0484 ( 13838 PWs)   bands (ev):

   -66.8101 -66.8101 -66.7971 -66.7965 -62.1813 -62.1812 -62.1799 -62.1799
   -35.5750 -35.5750 -35.5635 -35.5612 -35.5295 -35.5295 -35.5295 -35.5295
   -35.5163 -35.5162 -35.5159 -35.5158 -31.0026 -31.0026 -31.0024 -31.0024
   -31.0010 -31.0010 -31.0008 -31.0008 -31.0007 -31.0007 -30.9999 -30.9999
     6.2995   6.2999   6.5747   6.5753   7.1308   7.1308   7.7600   7.7601
     8.5728   8.5729   8.6769   8.6772   8.7620   8.7623   8.7873   8.7878
     8.8322   8.8325   8.9668   8.9671   9.2642   9.2644   9.3652   9.3654
     9.4614   9.4615   9.5301   9.5305   9.5979   9.5987   9.8034   9.8036
     9.8237   9.8241   9.8796   9.8798   9.9100   9.9105   9.9339   9.9344
    10.1627  10.1628  10.1646  10.1653  10.1663  10.1672  10.2652  10.2654
    10.3770  10.3774  10.4222  10.4224  10.4247  10.4251  10.4827  10.4828
    10.7026  10.7029  10.7537  10.7539  10.7975  10.7979  10.8334  10.8335
    10.8951  10.8957  11.0644  11.0649  11.2966  11.2970  11.3030  11.3031
    11.3192  11.3193  11.3490  11.3492  11.4053  11.4053  11.4186  11.4188
    11.4978  11.4979  11.6119  11.6120  11.8245  11.8248  11.8360  11.8361
    11.9191  11.9193  11.9255  11.9260  11.9986  11.9990  12.1641  12.1642
    12.2912  12.2914  12.4878  12.4882  12.5326  12.5328  12.5650  12.5651
    12.5686  12.5692  12.6929  12.6933  12.7968  12.7970  13.3344  13.3347
    14.7484  14.7488  15.7928  15.7928  16.8042  16.8058  16.8151  16.8172
    16.9067  16.9087  16.9155  16.9168  16.9923  16.9926  17.0050  17.0066
    17.0136  17.0144  17.0165  17.0182  17.6355  17.6358  18.0345  18.0350
[...]
    11.5104  11.5123  11.5139  11.5207  11.5357  11.6384  11.6388  11.6435
    11.6914  11.8081  11.8082  11.9362  11.9463  11.9469  11.9561  11.9593
    12.0667  12.1219  12.1229  12.2092  12.2482  12.3389  12.3469  12.3480
    12.3529  12.4560  12.4569  12.4983  12.5965  12.6058  12.6083  12.8950
    12.9465  13.2893  13.2920  13.5677  13.7992  14.1408  14.1450  14.4659
    15.1401  15.1675  15.3002  15.3040  15.7151  15.7209  15.9344  16.0715
    16.0776  16.4161  16.4252  16.4383  17.1266  17.1357  17.1524  17.1640
    17.3110  17.3422  17.4104  17.4228  17.5053  17.5114  17.5286  17.7420
    18.0617  18.0649  18.1048  18.1541  18.1602  18.6628  18.7539  18.7593
    19.5976  19.6325

          k = 0.2500 0.3750-0.0484 ( 13916 PWs)   bands (ev):

   -66.8025 -66.8025 -66.8018 -66.8018 -62.1811 -62.1811 -62.1793 -62.1787
   -35.5672 -35.5672 -35.5666 -35.5666 -35.5307 -35.5307 -35.5295 -35.5295
   -35.5264 -35.5264 -35.5251 -35.5251 -31.0136 -31.0136 -31.0109 -31.0098
   -31.0079 -31.0079 -31.0052 -31.0041 -30.9996 -30.9994 -30.9991 -30.9991
     8.0138   8.0139   8.2355   8.2362   8.6602   8.6606   8.6878   8.6878
     8.8506   8.8510   8.9177   8.9182   8.9214   8.9219   8.9576   8.9576
     9.1095   9.1098   9.1453   9.1455   9.3584   9.3590   9.3779   9.3780
     9.4680   9.4683   9.4789   9.4793   9.5930   9.5934   9.7196   9.7197
     9.8020   9.8021   9.8236   9.8238   9.8735   9.8738   9.9351   9.9354
    10.0992  10.0995  10.2038  10.2042  10.2572  10.2576  10.2598  10.2598
    10.4597  10.4603  10.4716  10.4716  10.5588  10.5593  10.5711  10.5712
    10.7091  10.7094  10.7483  10.7486  10.7897  10.7898  10.9048  10.9051
    11.0958  11.0961  11.1526  11.1534  11.2134  11.2138  11.2373  11.2379
    11.4887  11.4894  11.5209  11.5214  11.6080  11.6089  11.6736  11.6744
    11.6880  11.6883  11.9084  11.9084  11.9407  11.9411  11.9533  11.9537
    12.0800  12.0802  12.1816  12.1817  12.2870  12.2872  12.3532  12.3533
    12.3860  12.3864  12.4978  12.4980  12.5746  12.5747  12.7431  12.7434
    13.1086  13.1087  13.4613  13.4614  13.9249  13.9251  14.3592  14.3593
    15.2202  15.2204  15.2218  15.2220  15.8239  15.8241  15.8527  15.8532
    16.2811  16.2818  16.4584  16.4585  17.1306  17.1309  17.1574  17.1574
    17.3460  17.3472  17.3783  17.3790  17.5160  17.5165  17.6372  17.6374
    18.0368  18.0371  18.1201  18.1205  18.4484  18.4488  18.7304  18.7307
    19.6055  19.6056

          k = 0.2500-0.5000 0.0000 ( 13940 PWs)   bands (ev):

   -66.8027 -66.8027 -66.8021 -66.8021 -62.1807 -62.1807 -62.1789 -62.1783
   -35.5671 -35.5671 -35.5664 -35.5664 -35.5324 -35.5324 -35.5311 -35.5311
   -35.5263 -35.5263 -35.5250 -35.5250 -31.0158 -31.0158 -31.0131 -31.0120
   -31.0077 -31.0077 -31.0050 -31.0039 -30.9994 -30.9993 -30.9989 -30.9989
     8.3782   8.4609   8.5076   8.5086   8.5086   8.5133   8.5630   8.7667
     8.8414   8.8487   8.8585   8.8588   8.8597   8.8980   8.9005   8.9966
     9.0217   9.0323   9.1478   9.1493   9.1954   9.1982   9.2743   9.2950
     9.3062   9.4718   9.4733   9.5065   9.5082   9.6384   9.6403   9.7703
     9.7830   9.7970   9.7991   9.8587   9.9019   9.9267   9.9655   9.9673
    10.2470  10.3066  10.3077  10.3970  10.3984  10.4313  10.4408  10.4532
    10.4852  10.4856  10.5252  10.7067  10.7474  10.7532  10.7639  10.8281
    10.8287  10.8669  10.8983  10.9052  10.9058  10.9148  10.9553  10.9557
    11.1893  11.1914  11.2436  11.2658  11.3160  11.3182  11.3502  11.3740
    11.3821  11.5445  11.5451  11.6124  11.6878  11.6959  11.7004  11.7005
    11.8657  11.8766  11.8804  11.9002  11.9943  12.0283  12.0293  12.0597
    12.0613  12.1327  12.1327  12.1524  12.2440  12.3305  12.3309  12.4435
    12.4460  12.4526  12.4748  12.5342  12.7975  12.9837  13.0130  13.0158
    13.2744  13.2750  13.2804  13.5582  13.6864  14.0207  14.0240  14.3491
    14.4744  14.5974  14.5999  14.7684  14.8305  15.3676  15.3738  15.8618
    15.9375  16.1560  16.1606  16.3291  16.9043  17.0818  17.0835  17.1107
    17.1125  17.1856  17.1960  17.5556  17.5616  17.6924  17.8537  17.8636
    17.9072  17.9154  17.9868  18.1227  18.1840  18.1879  18.1904  18.5196
    19.5354  19.6684

          k = 0.2500-0.5000-0.0484 ( 13912 PWs)   bands (ev):

   -66.8027 -66.8027 -66.8021 -66.8021 -62.1807 -62.1807 -62.1789 -62.1783
   -35.5671 -35.5671 -35.5664 -35.5664 -35.5324 -35.5324 -35.5311 -35.5311
   -35.5263 -35.5263 -35.5250 -35.5250 -31.0158 -31.0158 -31.0131 -31.0120
   -31.0077 -31.0077 -31.0050 -31.0039 -30.9994 -30.9993 -30.9989 -30.9989
     8.4123   8.4126   8.4739   8.4744   8.5455   8.5462   8.6557   8.6563
     8.8514   8.8519   8.8568   8.8572   8.8645   8.8650   8.9593   8.9595
     9.0858   9.0860   9.0909   9.0910   9.2094   9.2102   9.2687   9.2687
     9.3872   9.3873   9.5077   9.5082   9.5471   9.5474   9.7280   9.7282
     9.7676   9.7680   9.8761   9.8763   9.9161   9.9165   9.9287   9.9290
    10.2999  10.3002  10.3403  10.3407  10.4343  10.4344  10.4852  10.4852
    10.4927  10.4932  10.4948  10.4949  10.7797  10.7799  10.8263  10.8267
    10.8727  10.8728  10.8796  10.8798  10.9196  10.9197  10.9517  10.9519
    11.1588  11.1595  11.2795  11.2804  11.3042  11.3043  11.3567  11.3574
    11.4573  11.4578  11.5976  11.5978  11.6931  11.6935  11.6981  11.6983
    11.8688  11.8688  11.8922  11.8925  12.0053  12.0056  12.0506  12.0508
    12.0865  12.0868  12.1517  12.1522  12.2663  12.2669  12.4203  12.4206
    12.4446  12.4453  12.4905  12.4907  12.8680  12.8685  13.0782  13.0785
    13.1811  13.1814  13.4684  13.4685  13.8008  13.8011  14.2779  14.2782
    14.4298  14.4298  14.7596  14.7600  15.0070  15.0073  15.7062  15.7063
    16.0091  16.0094  16.2828  16.2833  17.0013  17.0023  17.0826  17.0826
    17.1116  17.1116  17.3808  17.3816  17.7313  17.7316  17.7376  17.7387
    17.9602  17.9606  18.0905  18.0906  18.1334  18.1342  18.3615  18.3621
    19.7587  19.7591

          k = 0.3750 0.3750 0.0000 ( 13948 PWs)   bands (ev):

   -66.8023 -66.8022 -66.8016 -66.8016 -62.1809 -62.1809 -62.1791 -62.1785
   -35.5670 -35.5670 -35.5663 -35.5663 -35.5304 -35.5304 -35.5303 -35.5303
   -35.5291 -35.5291 -35.5291 -35.5291 -31.0132 -31.0132 -31.0130 -31.0130
   -31.0105 -31.0103 -31.0094 -31.0092 -30.9992 -30.9991 -30.9987 -30.9987
     8.1036   8.2168   8.2194   8.3918   8.4584   8.5400   8.5428   8.7224
     8.8107   9.0536   9.0611   9.0625   9.1300   9.1316   9.1457   9.1634
     9.2615   9.2846   9.3167   9.3168   9.3393   9.3712   9.3740   9.4594
     9.5025   9.5029   9.5054   9.5566   9.6390   9.6775   9.6779   9.8787
     9.9405   9.9406  10.0092  10.0094  10.0109  10.0372  10.0380  10.0557
    10.0652  10.1472  10.1629  10.1636  10.2837  10.2861  10.2876  10.3076
    10.3081  10.3410  10.4603  10.4963  10.5507  10.6764  10.7507  10.7549
    10.8711  10.8919  10.8966  10.8995  10.9126  11.0369  11.0373  11.1484
    11.1924  11.2717  11.2718  11.2778  11.3224  11.3227  11.3295  11.4628
    11.5063  11.5074  11.5539  11.5942  11.6202  11.6420  11.6427  11.6553
    11.8142  11.9792  12.0015  12.0054  12.0178  12.0342  12.0394  12.0424
    12.0450  12.0454  12.0923  12.1773  12.2527  12.2589  12.3017  12.3023
    12.3142  12.4214  12.4219  12.5367  12.5556  12.7591  12.7606  13.1892
    13.2561  13.6352  13.6414  13.8470  14.5447  14.7557  14.7607  14.9493
    15.1089  15.2117  15.2159  15.3003  16.2134  16.3213  16.3551  16.3629
    16.4668  16.4746  16.5885  16.6770  17.1444  17.1454  17.1748  17.1762
    17.5183  17.8109  17.8234  17.8400  17.8477  17.8594  17.8604  17.8678
    18.0056  18.0059  18.1129  18.1646  18.1941  18.5654  18.5709  18.7341
    18.7390  18.7411

          k = 0.3750 0.3750-0.0484 ( 13950 PWs)   bands (ev):

   -66.8023 -66.8022 -66.8016 -66.8016 -62.1809 -62.1809 -62.1791 -62.1785
   -35.5670 -35.5670 -35.5663 -35.5663 -35.5304 -35.5304 -35.5303 -35.5303
   -35.5291 -35.5291 -35.5291 -35.5291 -31.0132 -31.0132 -31.0130 -31.0130
   -31.0105 -31.0103 -31.0094 -31.0092 -30.9992 -30.9991 -30.9987 -30.9987
     8.1337   8.1338   8.3295   8.3302   8.4799   8.4801   8.6319   8.6326
     8.9436   8.9437   9.0576   9.0579   9.1167   9.1173   9.2062   9.2067
     9.2231   9.2232   9.3475   9.3476   9.3588   9.3591   9.4145   9.4152
     9.4667   9.4671   9.5713   9.5717   9.6205   9.6209   9.8052   9.8052
     9.9183   9.9185  10.0030  10.0032  10.0106  10.0106  10.0713  10.0715
    10.1394  10.1396  10.1914  10.1915  10.2345  10.2347  10.2646  10.2648
    10.4010  10.4011  10.4097  10.4098  10.6288  10.6292  10.8294  10.8296
    10.8580  10.8584  10.8807  10.8816  10.9090  10.9091  11.1314  11.1322
    11.2191  11.2192  11.2818  11.2824  11.3122  11.3122  11.4669  11.4673
    11.4758  11.4762  11.5382  11.5391  11.6283  11.6291  11.6518  11.6522
    11.9173  11.9176  11.9858  11.9861  12.0156  12.0157  12.0348  12.0350
    12.0667  12.0668  12.1366  12.1372  12.2731  12.2737  12.3146  12.3146
    12.3156  12.3160  12.5170  12.5173  12.5943  12.5946  12.9834  12.9837
    13.4469  13.4469  13.7854  13.7854  14.6119  14.6123  14.8940  14.8941
    15.1414  15.1416  15.2765  15.2772  16.2497  16.2509  16.3621  16.3626
    16.5078  16.5080  16.6049  16.6053  17.1446  17.1452  17.1755  17.1755
    17.6385  17.6394  17.8265  17.8269  17.8426  17.8427  17.8657  17.8668
    18.0049  18.0055  18.3308  18.3308  18.3434  18.3439  18.3645  18.3647
    18.7879  18.7879

          k = 0.3750-0.5000 0.0000 ( 13934 PWs)   bands (ev):

   -66.8023 -66.8023 -66.8017 -66.8017 -62.1806 -62.1806 -62.1789 -62.1783
   -35.5669 -35.5668 -35.5662 -35.5662 -35.5320 -35.5320 -35.5307 -35.5307
   -35.5302 -35.5302 -35.5289 -35.5289 -31.0153 -31.0153 -31.0129 -31.0129
   -31.0126 -31.0115 -31.0102 -31.0091 -30.9991 -30.9990 -30.9986 -30.9986
     8.2219   8.2585   8.3243   8.3256   8.3531   8.3570   8.4116   8.6648
     8.7677   9.0777   9.1368   9.1393   9.1550   9.1568   9.1598   9.2031
     9.2343   9.2359   9.2880   9.3071   9.3162   9.3167   9.3332   9.3693
     9.4553   9.5292   9.5398   9.5413   9.6904   9.6914   9.8065   9.8326
     9.9336   9.9735   9.9891   9.9897  10.0133  10.0141  10.0233  10.0241
    10.1433  10.1987  10.2314  10.2319  10.2344  10.3215  10.4046  10.4054
    10.4158  10.4163  10.5346  10.6431  10.7197  10.7240  10.7984  10.8454
    10.9542  11.1426  11.1587  11.1593  11.1628  11.1809  11.1821  11.2306
    11.2582  11.2597  11.2726  11.2730  11.3760  11.4655  11.5249  11.5254
    11.5579  11.5607  11.6153  11.6755  11.7710  11.8354  11.8356  11.8764
    11.9285  11.9685  11.9725  12.0017  12.0727  12.1121  12.1145  12.1163
    12.1714  12.1780  12.1783  12.1874  12.2157  12.2518  12.2519  12.3612
    12.4101  12.4125  12.4226  12.5431  12.9578  13.1954  13.2014  13.3953
    13.4949  13.7742  13.7761  14.0256  14.1604  14.2875  14.2926  14.4173
    15.3224  15.4132  15.4183  15.4602  15.4895  15.7526  15.7585  16.1058
    16.7343  16.8337  16.8402  16.9894  17.0678  17.0835  17.0962  17.1152
    17.2906  17.6071  17.6150  17.7525  17.8625  18.0156  18.0161  18.0579
    18.0768  18.3220  18.3313  18.3362  18.4863  18.4877  18.5488  18.6952
    18.9121  18.9131

          k = 0.3750-0.5000-0.0484 ( 13940 PWs)   bands (ev):

   -66.8023 -66.8023 -66.8017 -66.8017 -62.1806 -62.1806 -62.1789 -62.1783
   -35.5668 -35.5668 -35.5662 -35.5662 -35.5320 -35.5320 -35.5307 -35.5307
   -35.5302 -35.5302 -35.5289 -35.5289 -31.0153 -31.0153 -31.0129 -31.0129
   -31.0126 -31.0115 -31.0102 -31.0091 -30.9991 -30.9990 -30.9986 -30.9986
     8.2558   8.2559   8.2763   8.2768   8.3827   8.3835   8.5095   8.5101
     8.9403   8.9406   9.1141   9.1148   9.1584   9.1584   9.2111   9.2114
     9.2679   9.2685   9.2808   9.2809   9.2844   9.2850   9.4080   9.4084
     9.4291   9.4294   9.5774   9.5779   9.6775   9.6777   9.8257   9.8261
     9.9321   9.9322   9.9851   9.9853  10.0093  10.0094  10.0702  10.0703
    10.1670  10.1672  10.2480  10.2484  10.2607  10.2611  10.2970  10.2971
    10.5641  10.5642  10.6041  10.6045  10.6309  10.6310  10.8172  10.8175
    11.0775  11.0782  11.1461  11.1469  11.1861  11.1869  11.1930  11.1931
    11.2200  11.2203  11.3481  11.3483  11.4043  11.4047  11.4803  11.4808
    11.5830  11.5838  11.6497  11.6500  11.7960  11.7960  11.8647  11.8652
    11.9401  11.9401  11.9947  11.9949  12.0809  12.0813  12.1351  12.1355
    12.1678  12.1680  12.1813  12.1821  12.2237  12.2244  12.3129  12.3132
    12.4121  12.4127  12.4803  12.4805  13.0417  13.0421  13.3369  13.3372
    13.5835  13.5836  13.9526  13.9529  14.2003  14.2009  14.3783  14.3784
    15.3524  15.3525  15.4691  15.4698  15.5450  15.5457  15.9910  15.9911
    16.7603  16.7608  16.9403  16.9408  17.0720  17.0724  17.1025  17.1025
    17.3973  17.3981  17.7914  17.7924  17.8837  17.8840  18.0470  18.0479
    18.1069  18.1078  18.3684  18.3684  18.5623  18.5624  18.6270  18.6274
    18.9447  18.9449

          k =-0.5000-0.5000 0.0000 ( 13964 PWs)   bands (ev):

   -66.8023 -66.8023 -66.8017 -66.8017 -62.1805 -62.1805 -62.1787 -62.1781
   -35.5668 -35.5668 -35.5661 -35.5661 -35.5318 -35.5318 -35.5318 -35.5318
   -35.5305 -35.5305 -35.5305 -35.5305 -31.0151 -31.0151 -31.0151 -31.0151
   -31.0124 -31.0124 -31.0113 -31.0113 -30.9990 -30.9989 -30.9985 -30.9985
     8.1538   8.1709   8.2415   8.2429   8.2821   8.2856   8.3383   8.5554
     8.7699   9.0084   9.1367   9.1390   9.2128   9.2131   9.2720   9.2720
     9.3128   9.3128   9.3161   9.3161   9.3837   9.4439   9.4439   9.4554
     9.4554   9.4674   9.6944   9.6944   9.6959   9.6959   9.8134   9.9691
     9.9691   9.9697   9.9697   9.9697   9.9697   9.9704   9.9704   9.9926
     9.9936  10.0637  10.0637  10.0673  10.0673  10.0978  10.5079  10.5540
    10.5540  10.5540  10.5540  10.6042  10.6097  10.6954  10.9710  10.9710
    11.1936  11.2057  11.2059  11.2073  11.2187  11.2824  11.2826  11.3610
    11.4203  11.4204  11.4221  11.4222  11.4805  11.4805  11.9331  11.9331
    11.9333  11.9333  11.9825  11.9825  11.9834  11.9835  12.0068  12.0088
    12.0106  12.0109  12.0727  12.0727  12.0737  12.0737  12.0992  12.1013
    12.1030  12.1032  12.1945  12.2111  12.2111  12.2273  12.2447  12.2890
    12.2890  12.3475  12.3508  12.4406  13.4181  13.4257  13.4360  13.4441
    13.8676  13.8676  14.1531  14.1531  14.1563  14.1563  14.3948  14.3948
    15.8597  15.8597  15.9406  15.9406  15.9479  15.9479  16.0916  16.0916
    16.6045  16.6362  16.6455  16.7519  16.7817  17.0230  17.0397  17.3490
    17.5557  17.5557  17.7636  17.7975  17.8491  17.8532  17.9469  18.0653
    18.0654  18.0681  18.0706  18.1379  18.1379  18.1435  18.1435  18.2889
    18.2979  18.6858

          k =-0.5000-0.5000-0.0484 ( 13992 PWs)   bands (ev):

   -66.8023 -66.8023 -66.8017 -66.8017 -62.1805 -62.1805 -62.1787 -62.1781
   -35.5668 -35.5668 -35.5661 -35.5661 -35.5318 -35.5318 -35.5318 -35.5318
   -35.5305 -35.5305 -35.5305 -35.5305 -31.0151 -31.0151 -31.0151 -31.0151
   -31.0124 -31.0124 -31.0113 -31.0113 -30.9990 -30.9989 -30.9985 -30.9985
     8.1870   8.1870   8.1899   8.1904   8.3057   8.3066   8.4317   8.4322
     8.9200   8.9202   9.0686   9.0692   9.2824   9.2824   9.2825   9.2825
     9.3137   9.3139   9.3690   9.3690   9.3697   9.3697   9.3768   9.3771
     9.5574   9.5574   9.5577   9.5577   9.8643   9.8643   9.8643   9.8643
     9.8833   9.8840   9.9692   9.9692   9.9693   9.9693   9.9701   9.9701
     9.9702   9.9702  10.0705  10.0707  10.2972  10.2972  10.2974  10.2974
    10.5387  10.5392  10.6697  10.6700  10.8154  10.8154  10.8157  10.8157
    11.1966  11.1976  11.2144  11.2153  11.2295  11.2296  11.3371  11.3371
    11.4203  11.4204  11.4221  11.4222  11.6477  11.6477  11.6477  11.6477
    11.9825  11.9825  11.9834  11.9835  12.0068  12.0088  12.0107  12.0108
    12.0727  12.0727  12.0737  12.0737  12.0992  12.1013  12.1031  12.1031
    12.1829  12.1829  12.1832  12.1832  12.1991  12.1998  12.2222  12.2229
    12.2766  12.2774  12.4146  12.4153  13.4208  13.4214  13.4408  13.4409
    13.9590  13.9590  13.9591  13.9591  14.3274  14.3274  14.3281  14.3281
    15.8800  15.8800  15.8811  15.8811  16.0379  16.0379  16.0379  16.0379
    16.6130  16.6135  16.6892  16.6899  16.8789  16.8791  17.2194  17.2200
    17.7232  17.7232  17.7238  17.7238  17.7882  17.7887  17.9177  17.9182
    17.9776  17.9777  18.0654  18.0654  18.0682  18.0706  18.5714  18.5718
    18.6870  18.6870

     the Fermi energy is    15.3190 ev

!    total energy              =  -14693.98922767 Ry
     Harris-Foulkes estimate   =  -14693.98922817 Ry
     estimated scf accuracy    <       0.00000068 Ry

     total all-electron energy =   -626921.584950 Ry

     The total energy is the sum of the following terms:

     one-electron contribution =    -714.16237213 Ry
     hartree contribution      =     656.31329495 Ry
     xc contribution           =    -737.91842740 Ry
     ewald contribution        =   -2196.78933708 Ry
     Hubbard energy            =       0.43587039 Ry
     one-center paw contrib.   =  -11701.86825640 Ry

     total magnetization       =    -0.00 Bohr mag/cell
     absolute magnetization    =    37.47 Bohr mag/cell

     convergence has been achieved in  44 iterations

     Writing output data file mnau2.save/
 
     init_run     :     10.07s CPU     11.09s WALL (       1 calls)
     electrons    :   4354.60s CPU   4448.48s WALL (       1 calls)

     Called by init_run:
     wfcinit      :      7.93s CPU      8.07s WALL (       1 calls)
     potinit      :      0.55s CPU      1.12s WALL (       1 calls)
     hinit0       :      0.91s CPU      1.16s WALL (       1 calls)

     Called by electrons:
     c_bands      :   3683.81s CPU   3761.64s WALL (      45 calls)
     sum_band     :    624.57s CPU    639.67s WALL (      45 calls)
     v_of_rho     :      4.72s CPU      4.96s WALL (      45 calls)
     newd         :     13.61s CPU     13.81s WALL (      45 calls)
     PAW_pot      :     26.50s CPU     26.98s WALL (      45 calls)
     mix_rho      :      1.21s CPU      1.35s WALL (      45 calls)

     Called by c_bands:
     init_us_2    :     12.87s CPU     12.98s WALL (    5460 calls)
     cegterg      :   3552.10s CPU   3616.34s WALL (    2700 calls)

     Called by sum_band:
     sum_band:bec :      6.26s CPU      6.30s WALL (    2700 calls)
     addusdens    :     24.65s CPU     25.15s WALL (      45 calls)

     Called by *egterg:
     h_psi        :   2154.05s CPU   2198.49s WALL (    5550 calls)
     s_psi        :    209.87s CPU    210.08s WALL (    5610 calls)
     g_psi        :      1.91s CPU      1.93s WALL (    2850 calls)
     cdiaghg      :    599.92s CPU    612.59s WALL (    5430 calls)

     Called by h_psi:
     h_psi:pot    :   2051.05s CPU   2093.96s WALL (    5550 calls)
     h_psi:calbec :    277.00s CPU    286.14s WALL (    5550 calls)
     vloc_psi     :   1566.64s CPU   1600.15s WALL (    5550 calls)
     add_vuspsi   :    207.30s CPU    207.58s WALL (    5550 calls)
     vhpsi        :    100.73s CPU    102.21s WALL (    5550 calls)

     General routines
     calbec       :    502.77s CPU    518.46s WALL (   16560 calls)
     fft          :      3.99s CPU      4.39s WALL (    1123 calls)
     ffts         :      0.26s CPU      0.28s WALL (     180 calls)
     fftw         :   1920.24s CPU   1961.30s WALL ( 2403752 calls)
     interpolate  :      0.47s CPU      0.48s WALL (      90 calls)
     davcio       :      0.01s CPU      1.90s WALL (     120 calls)
 
     Parallel routines
     fft_scatt_xy :     44.68s CPU     45.38s WALL ( 2405055 calls)
     fft_scatt_yz :   1676.38s CPU   1713.59s WALL ( 2405055 calls)

     Hubbard U routines
     new_ns       :     19.65s CPU     21.09s WALL (      45 calls)
     vhpsi        :    100.73s CPU    102.21s WALL (    5550 calls)
 
     PWSCF        :     1h13m CPU       13h 1m WALL

      16h
 
   This run was terminated on:  22:43:24   7Apr2019            

=------------------------------------------------------------------------------=
   JOB DONE.
=------------------------------------------------------------------------------=
