
     Program PWSCF v.6.3MaX starts on  7Apr2019 at 15:14:59 

     This program is part of the open-source Quantum ESPRESSO suite
     for quantum simulation of materials; please cite
         "P. Giannozzi et al., J. Phys.:Condens. Matter 21 395502 (2009);
         "P. Giannozzi et al., J. Phys.:Condens. Matter 29 465901 (2017);
          URL http://www.quantum-espresso.org", 
     in publications or presentations arising from this work. More details at
     http://www.quantum-espresso.org/quote

     Parallel version (MPI), running on    32 processors

     MPI processes distributed on     2 nodes
     R & G space division:  proc/nbgrp/npool/nimage =      32
     Waiting for input...
     Reading input from standard input

     Current dimensions of program PWSCF are:
     Max number of different atomic species (ntypx) = 10
     Max number of k-points (npk) =  40000
     Max angular momentum in pseudopotentials (lmaxx) =  3
               file Mn.pbe-spn-kjpaw_psl.0.3.1.UPF: wavefunction(s)  3P 3D renormalized
               file Au.pbe-dn-kjpaw_psl.0.1.UPF: wavefunction(s)  6S 6P 5D renormalized

     Subspace diagonalization in iterative solution of the eigenvalue problem:
     one sub-group per band group will be used
     scalapack distributed-memory algorithm (size of sub-group:  4*  4 procs)

     Found symmetry operation: I + ( -0.5000 -0.5000  0.1250)
     This is a supercell, fractional translations are disabled
 
     Parallelization info
     --------------------
     sticks:   dense  smooth     PW     G-vecs:    dense   smooth      PW
     Min          41      18      5                11487     3460     563
     Max          42      19      6                11527     3505     606
     Sum        1313     593    177               368373   111379   18691
 


     bravais-lattice index     =            0
     lattice parameter (alat)  =       6.4153  a.u.
     unit-cell volume          =    2724.7774 (a.u.)^3
     number of atoms/cell      =           24
     number of atomic types    =            2
     number of electrons       =       296.00
     number of Kohn-Sham states=          178
     kinetic-energy cutoff     =      45.0000  Ry
     charge density cutoff     =     400.0000  Ry
     convergence threshold     =      1.0E-06
     mixing beta               =       0.1000
     number of iterations used =            8  plain     mixing
     Exchange-correlation      = SLA PW PBX PBC ( 1  4  3  4 0 0)

     celldm(1)=   6.415315  celldm(2)=   0.000000  celldm(3)=   0.000000
     celldm(4)=   0.000000  celldm(5)=   0.000000  celldm(6)=   0.000000

     crystal axes: (cart. coord. in units of alat)
               a(1) = (   1.000000   0.000000   0.000000 )  
               a(2) = (   0.000000   1.000000   0.000000 )  
               a(3) = (   0.000000   0.000000  10.319937 )  

     reciprocal axes: (cart. coord. in units 2 pi/alat)
               b(1) = (  1.000000  0.000000  0.000000 )  
               b(2) = (  0.000000  1.000000  0.000000 )  
               b(3) = (  0.000000  0.000000  0.096900 )  


     PseudoPot. # 1 for Mn read from file:
     ./pseudo/Mn.pbe-spn-kjpaw_psl.0.3.1.UPF
     MD5 check sum: 7b43a3fb0e93e198b8dd8488d8cf503e
     Pseudo is Projector augmented-wave + core cor, Zval = 15.0
     Generated using "atomic" code by A. Dal Corso v.5.0.99 svn rev. 10869
     Shape of augmentation charge: PSQ
     Using radial grid of 1187 points,  6 beta functions with: 
                l(1) =   0
                l(2) =   0
                l(3) =   1
                l(4) =   1
                l(5) =   2
                l(6) =   2
     Q(r) pseudized with 0 coefficients 


     PseudoPot. # 2 for Au read from file:
     ./pseudo/Au.pbe-dn-kjpaw_psl.0.1.UPF
     MD5 check sum: be11e2e8e535ebe2b3ccfb4f88f554cb
     Pseudo is Projector augmented-wave + core cor, Zval = 11.0
     Generated using "atomic" code by A. Dal Corso v.5.0.2 svn rev. 9415
     Shape of augmentation charge: PSQ
     Using radial grid of 1279 points,  6 beta functions with: 
                l(1) =   0
                l(2) =   0
                l(3) =   1
                l(4) =   1
                l(5) =   2
                l(6) =   2
     Q(r) pseudized with 0 coefficients 


     atomic species   valence    mass     pseudopotential
        Mn            15.00    54.93800     Mn( 1.00)
        Au            11.00   196.96600     Au( 1.00)

     Starting magnetic structure 
     atomic species   magnetization
        Mn           0.800
        Au           0.000


     Full LDA+U calculation (l_max = 2) with parameters (eV):
     U(  1) =   3.1200   J(  1) =   0.7000   B(  1) =   0.0803



     16 Sym. Ops., with inversion, found



   Cartesian axes

     site n.     atom                  positions (alat units)
         1           Mn  tau(   1) = (   0.0000000   0.0000000   0.0000000  )
         2           Mn  tau(   2) = (   0.5000000   0.5000000   1.2899921  )
         3           Mn  tau(   3) = (   0.0000000   0.0000000   2.5799843  )
         4           Mn  tau(   4) = (   0.5000000   0.5000000   3.8699764  )
         5           Mn  tau(   5) = (   0.0000000   0.0000000   5.1599686  )
         6           Mn  tau(   6) = (   0.5000000   0.5000000   6.4499607  )
         7           Mn  tau(   7) = (   0.0000000   0.0000000   7.7399528  )
         8           Mn  tau(   8) = (   0.5000000   0.5000000   9.0299450  )
         9           Au  tau(   9) = (   0.5000000   0.5000000   0.4127975  )
        10           Au  tau(  10) = (   0.0000000   0.0000000   0.8771947  )
        11           Au  tau(  11) = (   0.0000000   0.0000000   1.7027896  )
        12           Au  tau(  12) = (   0.5000000   0.5000000   2.1671868  )
        13           Au  tau(  13) = (   0.5000000   0.5000000   2.9927818  )
        14           Au  tau(  14) = (   0.0000000   0.0000000   3.4571789  )
        15           Au  tau(  15) = (   0.0000000   0.0000000   4.2827739  )
        16           Au  tau(  16) = (   0.5000000   0.5000000   4.7471711  )
        17           Au  tau(  17) = (   0.5000000   0.5000000   5.5727660  )
        18           Au  tau(  18) = (   0.0000000   0.0000000   6.0371632  )
        19           Au  tau(  19) = (   0.0000000   0.0000000   6.8627582  )
        20           Au  tau(  20) = (   0.5000000   0.5000000   7.3271553  )
        21           Au  tau(  21) = (   0.5000000   0.5000000   8.1527503  )
        22           Au  tau(  22) = (   0.0000000   0.0000000   8.6171475  )
        23           Au  tau(  23) = (   0.0000000   0.0000000   9.4427424  )
        24           Au  tau(  24) = (   0.5000000   0.5000000   9.9071396  )

     number of k points=    30 (tetrahedron method)
                       cart. coord. in units 2pi/alat
        k(    1) = (   0.0000000   0.0000000   0.0000000), wk =   0.0078125
        k(    2) = (   0.0000000   0.0000000  -0.0484499), wk =   0.0078125
        k(    3) = (   0.0000000   0.1250000   0.0000000), wk =   0.0312500
        k(    4) = (   0.0000000   0.1250000  -0.0484499), wk =   0.0312500
        k(    5) = (   0.0000000   0.2500000   0.0000000), wk =   0.0312500
        k(    6) = (   0.0000000   0.2500000  -0.0484499), wk =   0.0312500
        k(    7) = (   0.0000000   0.3750000   0.0000000), wk =   0.0312500
        k(    8) = (   0.0000000   0.3750000  -0.0484499), wk =   0.0312500
        k(    9) = (   0.0000000  -0.5000000   0.0000000), wk =   0.0156250
        k(   10) = (   0.0000000  -0.5000000  -0.0484499), wk =   0.0156250
        k(   11) = (   0.1250000   0.1250000   0.0000000), wk =   0.0312500
        k(   12) = (   0.1250000   0.1250000  -0.0484499), wk =   0.0312500
        k(   13) = (   0.1250000   0.2500000   0.0000000), wk =   0.0625000
        k(   14) = (   0.1250000   0.2500000  -0.0484499), wk =   0.0625000
        k(   15) = (   0.1250000   0.3750000   0.0000000), wk =   0.0625000
        k(   16) = (   0.1250000   0.3750000  -0.0484499), wk =   0.0625000
        k(   17) = (   0.1250000  -0.5000000   0.0000000), wk =   0.0312500
        k(   18) = (   0.1250000  -0.5000000  -0.0484499), wk =   0.0312500
        k(   19) = (   0.2500000   0.2500000   0.0000000), wk =   0.0312500
        k(   20) = (   0.2500000   0.2500000  -0.0484499), wk =   0.0312500
        k(   21) = (   0.2500000   0.3750000   0.0000000), wk =   0.0625000
        k(   22) = (   0.2500000   0.3750000  -0.0484499), wk =   0.0625000
        k(   23) = (   0.2500000  -0.5000000   0.0000000), wk =   0.0312500
        k(   24) = (   0.2500000  -0.5000000  -0.0484499), wk =   0.0312500
        k(   25) = (   0.3750000   0.3750000   0.0000000), wk =   0.0312500
        k(   26) = (   0.3750000   0.3750000  -0.0484499), wk =   0.0312500
        k(   27) = (   0.3750000  -0.5000000   0.0000000), wk =   0.0312500
        k(   28) = (   0.3750000  -0.5000000  -0.0484499), wk =   0.0312500
        k(   29) = (  -0.5000000  -0.5000000   0.0000000), wk =   0.0078125
        k(   30) = (  -0.5000000  -0.5000000  -0.0484499), wk =   0.0078125

     Dense  grid:   368373 G-vectors     FFT dimensions: (  45,  45, 432)

     Smooth grid:   111379 G-vectors     FFT dimensions: (  27,  27, 288)

     Estimated max dynamical RAM per process >     141.51 MB

     Estimated total dynamical RAM >       4.42 GB
     Generating pointlists ...
     new r_m :   0.3377 (alat units)  2.1668 (a.u.) for type    1
     new r_m :   0.3377 (alat units)  2.1668 (a.u.) for type    2

     Check: negative/imaginary core charge=   -0.000006    0.000000

     Initial potential from superposition of free atoms

     starting charge  295.99426, renormalised to  296.00000
     Number of +U iterations with fixed ns =  0
     Starting occupations:
 --- enter write_ns ---
 LDA+U parameters:
U(  1) =   3.1200   J(  1) =   0.7000   B(  1) =   0.0803
atom    1   Tr[ns(na)] (up, down, total) =   5.00000  0.00000  5.00000
   spin  1
    eigenvalues: 
  1.000  1.000  1.000  1.000  1.000
    eigenvectors:
  1.000  0.000  0.000  0.000  0.000
  0.000  1.000  0.000  0.000  0.000
  0.000  0.000  1.000  0.000  0.000
  0.000  0.000  0.000  1.000  0.000
  0.000  0.000  0.000  0.000  1.000
    occupations:
  1.000  0.000  0.000  0.000  0.000
  0.000  1.000  0.000  0.000  0.000
  0.000  0.000  1.000  0.000  0.000
  0.000  0.000  0.000  1.000  0.000
  0.000  0.000  0.000  0.000  1.000
   spin  2
    eigenvalues: 
  0.000  0.000  0.000  0.000  0.000
    eigenvectors:
  1.000  0.000  0.000  0.000  0.000
  0.000  1.000  0.000  0.000  0.000
  0.000  0.000  1.000  0.000  0.000
  0.000  0.000  0.000  1.000  0.000
  0.000  0.000  0.000  0.000  1.000
    occupations:
  0.000  0.000  0.000  0.000  0.000
  0.000  0.000  0.000  0.000  0.000
  0.000  0.000  0.000  0.000  0.000
  0.000  0.000  0.000  0.000  0.000
  0.000  0.000  0.000  0.000  0.000
atomic mag. moment =     5.000000
atom    2   Tr[ns(na)] (up, down, total) =   5.00000  0.00000  5.00000
   spin  1
    eigenvalues: 
  1.000  1.000  1.000  1.000  1.000
    eigenvectors:
  1.000  0.000  0.000  0.000  0.000
  0.000  1.000  0.000  0.000  0.000
  0.000  0.000  1.000  0.000  0.000
  0.000  0.000  0.000  1.000  0.000
  0.000  0.000  0.000  0.000  1.000
    occupations:
  1.000  0.000  0.000  0.000  0.000
  0.000  1.000  0.000  0.000  0.000
  0.000  0.000  1.000  0.000  0.000
  0.000  0.000  0.000  1.000  0.000
  0.000  0.000  0.000  0.000  1.000
   spin  2
    eigenvalues: 
  0.000  0.000  0.000  0.000  0.000
    eigenvectors:
  1.000  0.000  0.000  0.000  0.000
  0.000  1.000  0.000  0.000  0.000
  0.000  0.000  1.000  0.000  0.000
  0.000  0.000  0.000  1.000  0.000
  0.000  0.000  0.000  0.000  1.000
    occupations:
  0.000  0.000  0.000  0.000  0.000
  0.000  0.000  0.000  0.000  0.000
  0.000  0.000  0.000  0.000  0.000
  0.000  0.000  0.000  0.000  0.000
  0.000  0.000  0.000  0.000  0.000
atomic mag. moment =     5.000000
atom    3   Tr[ns(na)] (up, down, total) =   5.00000  0.00000  5.00000
   spin  1
    eigenvalues: 
  1.000  1.000  1.000  1.000  1.000
    eigenvectors:
  1.000  0.000  0.000  0.000  0.000
  0.000  1.000  0.000  0.000  0.000
  0.000  0.000  1.000  0.000  0.000
  0.000  0.000  0.000  1.000  0.000
  0.000  0.000  0.000  0.000  1.000
    occupations:
  1.000  0.000  0.000  0.000  0.000
  0.000  1.000  0.000  0.000  0.000
  0.000  0.000  1.000  0.000  0.000
  0.000  0.000  0.000  1.000  0.000
  0.000  0.000  0.000  0.000  1.000
   spin  2
    eigenvalues: 
  0.000  0.000  0.000  0.000  0.000
    eigenvectors:
  1.000  0.000  0.000  0.000  0.000
  0.000  1.000  0.000  0.000  0.000
  0.000  0.000  1.000  0.000  0.000
  0.000  0.000  0.000  1.000  0.000
  0.000  0.000  0.000  0.000  1.000
    occupations:
  0.000  0.000  0.000  0.000  0.000
  0.000  0.000  0.000  0.000  0.000
  0.000  0.000  0.000  0.000  0.000
  0.000  0.000  0.000  0.000  0.000
  0.000  0.000  0.000  0.000  0.000
atomic mag. moment =     5.000000
atom    4   Tr[ns(na)] (up, down, total) =   5.00000  0.00000  5.00000
   spin  1
    eigenvalues: 
  1.000  1.000  1.000  1.000  1.000
    eigenvectors:
  1.000  0.000  0.000  0.000  0.000
  0.000  1.000  0.000  0.000  0.000
  0.000  0.000  1.000  0.000  0.000
  0.000  0.000  0.000  1.000  0.000
  0.000  0.000  0.000  0.000  1.000
    occupations:
  1.000  0.000  0.000  0.000  0.000
  0.000  1.000  0.000  0.000  0.000
  0.000  0.000  1.000  0.000  0.000
  0.000  0.000  0.000  1.000  0.000
  0.000  0.000  0.000  0.000  1.000
   spin  2
    eigenvalues: 
  0.000  0.000  0.000  0.000  0.000
    eigenvectors:
  1.000  0.000  0.000  0.000  0.000
  0.000  1.000  0.000  0.000  0.000
  0.000  0.000  1.000  0.000  0.000
  0.000  0.000  0.000  1.000  0.000
  0.000  0.000  0.000  0.000  1.000
    occupations:
  0.000  0.000  0.000  0.000  0.000
  0.000  0.000  0.000  0.000  0.000
  0.000  0.000  0.000  0.000  0.000
  0.000  0.000  0.000  0.000  0.000
  0.000  0.000  0.000  0.000  0.000
atomic mag. moment =     5.000000
atom    5   Tr[ns(na)] (up, down, total) =   5.00000  0.00000  5.00000
   spin  1
    eigenvalues: 
  1.000  1.000  1.000  1.000  1.000
    eigenvectors:
  1.000  0.000  0.000  0.000  0.000
  0.000  1.000  0.000  0.000  0.000
  0.000  0.000  1.000  0.000  0.000
  0.000  0.000  0.000  1.000  0.000
  0.000  0.000  0.000  0.000  1.000
    occupations:
  1.000  0.000  0.000  0.000  0.000
  0.000  1.000  0.000  0.000  0.000
  0.000  0.000  1.000  0.000  0.000
  0.000  0.000  0.000  1.000  0.000
  0.000  0.000  0.000  0.000  1.000
   spin  2
    eigenvalues: 
  0.000  0.000  0.000  0.000  0.000
    eigenvectors:
  1.000  0.000  0.000  0.000  0.000
  0.000  1.000  0.000  0.000  0.000
  0.000  0.000  1.000  0.000  0.000
  0.000  0.000  0.000  1.000  0.000
  0.000  0.000  0.000  0.000  1.000
    occupations:
  0.000  0.000  0.000  0.000  0.000
  0.000  0.000  0.000  0.000  0.000
  0.000  0.000  0.000  0.000  0.000
  0.000  0.000  0.000  0.000  0.000
  0.000  0.000  0.000  0.000  0.000
atomic mag. moment =     5.000000
atom    6   Tr[ns(na)] (up, down, total) =   5.00000  0.00000  5.00000
   spin  1
    eigenvalues: 
  1.000  1.000  1.000  1.000  1.000
    eigenvectors:
  1.000  0.000  0.000  0.000  0.000
  0.000  1.000  0.000  0.000  0.000
  0.000  0.000  1.000  0.000  0.000
  0.000  0.000  0.000  1.000  0.000
  0.000  0.000  0.000  0.000  1.000
    occupations:
  1.000  0.000  0.000  0.000  0.000
  0.000  1.000  0.000  0.000  0.000
  0.000  0.000  1.000  0.000  0.000
  0.000  0.000  0.000  1.000  0.000
  0.000  0.000  0.000  0.000  1.000
   spin  2
    eigenvalues: 
  0.000  0.000  0.000  0.000  0.000
    eigenvectors:
  1.000  0.000  0.000  0.000  0.000
  0.000  1.000  0.000  0.000  0.000
  0.000  0.000  1.000  0.000  0.000
  0.000  0.000  0.000  1.000  0.000
  0.000  0.000  0.000  0.000  1.000
    occupations:
  0.000  0.000  0.000  0.000  0.000
  0.000  0.000  0.000  0.000  0.000
  0.000  0.000  0.000  0.000  0.000
  0.000  0.000  0.000  0.000  0.000
  0.000  0.000  0.000  0.000  0.000
atomic mag. moment =     5.000000
atom    7   Tr[ns(na)] (up, down, total) =   5.00000  0.00000  5.00000
   spin  1
    eigenvalues: 
  1.000  1.000  1.000  1.000  1.000
    eigenvectors:
  1.000  0.000  0.000  0.000  0.000
  0.000  1.000  0.000  0.000  0.000
  0.000  0.000  1.000  0.000  0.000
  0.000  0.000  0.000  1.000  0.000
  0.000  0.000  0.000  0.000  1.000
    occupations:
  1.000  0.000  0.000  0.000  0.000
  0.000  1.000  0.000  0.000  0.000
  0.000  0.000  1.000  0.000  0.000
  0.000  0.000  0.000  1.000  0.000
  0.000  0.000  0.000  0.000  1.000
   spin  2
    eigenvalues: 
  0.000  0.000  0.000  0.000  0.000
    eigenvectors:
  1.000  0.000  0.000  0.000  0.000
  0.000  1.000  0.000  0.000  0.000
  0.000  0.000  1.000  0.000  0.000
  0.000  0.000  0.000  1.000  0.000
  0.000  0.000  0.000  0.000  1.000
    occupations:
  0.000  0.000  0.000  0.000  0.000
  0.000  0.000  0.000  0.000  0.000
  0.000  0.000  0.000  0.000  0.000
  0.000  0.000  0.000  0.000  0.000
  0.000  0.000  0.000  0.000  0.000
atomic mag. moment =     5.000000
atom    8   Tr[ns(na)] (up, down, total) =   5.00000  0.00000  5.00000
   spin  1
    eigenvalues: 
  1.000  1.000  1.000  1.000  1.000
    eigenvectors:
  1.000  0.000  0.000  0.000  0.000
  0.000  1.000  0.000  0.000  0.000
  0.000  0.000  1.000  0.000  0.000
  0.000  0.000  0.000  1.000  0.000
  0.000  0.000  0.000  0.000  1.000
    occupations:
  1.000  0.000  0.000  0.000  0.000
  0.000  1.000  0.000  0.000  0.000
  0.000  0.000  1.000  0.000  0.000
  0.000  0.000  0.000  1.000  0.000
  0.000  0.000  0.000  0.000  1.000
   spin  2
    eigenvalues: 
  0.000  0.000  0.000  0.000  0.000
    eigenvectors:
  1.000  0.000  0.000  0.000  0.000
  0.000  1.000  0.000  0.000  0.000
  0.000  0.000  1.000  0.000  0.000
  0.000  0.000  0.000  1.000  0.000
  0.000  0.000  0.000  0.000  1.000
    occupations:
  0.000  0.000  0.000  0.000  0.000
  0.000  0.000  0.000  0.000  0.000
  0.000  0.000  0.000  0.000  0.000
  0.000  0.000  0.000  0.000  0.000
  0.000  0.000  0.000  0.000  0.000
atomic mag. moment =     5.000000
N of occupied +U levels =   40.000000
 --- exit write_ns ---
 Atomic wfc used for LDA+U Projector are NOT orthogonalized
     Starting wfcs are  224 randomized atomic wfcs
     Checking if some PAW data can be deallocated... 

     total cpu time spent up to now is       60.0 secs

     Self-consistent Calculation

     iteration #  1     ecut=    45.00 Ry     beta= 0.10
     Davidson diagonalization with overlap
     ethr =  1.00E-02,  avg # of iterations =  3.0
 --- enter write_ns ---
 LDA+U parameters:
U(  1) =   3.1200   J(  1) =   0.7000   B(  1) =   0.0803
atom    1   Tr[ns(na)] (up, down, total) =   5.01748  0.40060  5.41808
   spin  1
    eigenvalues: 
  1.003  1.003  1.003  1.004  1.004
    eigenvectors:
  0.000  0.000  0.000  1.000  0.000
  0.000  0.241  0.759  0.000  0.000
  0.000  0.759  0.241  0.000  0.000
  0.000  0.000  0.000  0.000  1.000
  1.000  0.000  0.000  0.000  0.000
    occupations:
  1.004 -0.000 -0.000  0.000  0.000
 -0.000  1.003 -0.000  0.000  0.000
 -0.000 -0.000  1.003  0.000  0.000
  0.000  0.000  0.000  1.004 -0.000
  0.000  0.000  0.000 -0.000  1.003
   spin  2
    eigenvalues: 
  0.053  0.072  0.081  0.081  0.114
    eigenvectors:
  0.000  1.000  0.000  0.000  0.000
  0.000  0.000  0.432  0.568  0.000
  0.000  0.000  0.568  0.432  0.000
  1.000  0.000  0.000  0.000  0.000
  0.000  0.000  0.000  0.000  1.000
    occupations:
  0.072 -0.000 -0.000  0.000  0.000
 -0.000  0.081 -0.000  0.000  0.000
 -0.000 -0.000  0.081  0.000  0.000
  0.000  0.000  0.000  0.053 -0.000
  0.000  0.000  0.000 -0.000  0.114
atomic mag. moment =     4.616874
atom    2   Tr[ns(na)] (up, down, total) =   5.01751  0.40266  5.42017
   spin  1
    eigenvalues: 
  1.003  1.003  1.003  1.004  1.004
    eigenvectors:
  0.000  0.000  0.000  1.000  0.000
  0.000  0.326  0.674  0.000  0.000
  0.000  0.674  0.326  0.000  0.000
  0.000  0.000  0.000  0.000  1.000
  1.000  0.000  0.000  0.000  0.000
    occupations:
  1.004 -0.000 -0.000  0.000  0.000
 -0.000  1.003 -0.000  0.000  0.000
 -0.000 -0.000  1.003  0.000  0.000
  0.000  0.000  0.000  1.004 -0.000
  0.000  0.000  0.000 -0.000  1.003
   spin  2
    eigenvalues: 
  0.053  0.073  0.081  0.081  0.115
    eigenvectors:
  0.000  1.000  0.000  0.000  0.000
  0.000  0.000  0.283  0.717  0.000
  0.000  0.000  0.717  0.283  0.000
  1.000  0.000  0.000  0.000  0.000
  0.000  0.000  0.000  0.000  1.000
    occupations:
  0.073 -0.000 -0.000  0.000  0.000
 -0.000  0.081 -0.000  0.000  0.000
 -0.000 -0.000  0.081  0.000  0.000
  0.000  0.000  0.000  0.053 -0.000
  0.000  0.000  0.000 -0.000  0.115
atomic mag. moment =     4.614848
atom    3   Tr[ns(na)] (up, down, total) =   5.01751  0.40370  5.42121
   spin  1
    eigenvalues: 
  1.003  1.003  1.003  1.004  1.004
    eigenvectors:
  0.000  0.000  0.000  1.000  0.000
  0.000  0.359  0.641  0.000  0.000
  0.000  0.641  0.359  0.000  0.000
  0.000  0.000  0.000  0.000  1.000
  1.000  0.000  0.000  0.000  0.000
    occupations:
  1.004 -0.000 -0.000  0.000  0.000
 -0.000  1.003 -0.000  0.000  0.000
 -0.000 -0.000  1.003  0.000  0.000
  0.000  0.000  0.000  1.004 -0.000
  0.000  0.000  0.000 -0.000  1.003
   spin  2
    eigenvalues: 
  0.053  0.074  0.081  0.081  0.116
    eigenvectors:
  0.000  1.000  0.000  0.000  0.000
  0.000  0.000  0.334  0.666  0.000
  0.000  0.000  0.666  0.334  0.000
  1.000  0.000  0.000  0.000  0.000
  0.000  0.000  0.000  0.000  1.000
    occupations:
  0.074 -0.000 -0.000  0.000  0.000
 -0.000  0.081 -0.000  0.000  0.000
 -0.000 -0.000  0.081  0.000  0.000
  0.000  0.000  0.000  0.053 -0.000
  0.000  0.000  0.000 -0.000  0.116
atomic mag. moment =     4.613811
atom    4   Tr[ns(na)] (up, down, total) =   5.01752  0.40199  5.41951
   spin  1
    eigenvalues: 
  1.003  1.003  1.003  1.004  1.004
    eigenvectors:
  0.000  0.000  0.000  1.000  0.000
  0.000  0.259  0.741  0.000  0.000
  0.000  0.741  0.259  0.000  0.000
  0.000  0.000  0.000  0.000  1.000
  1.000  0.000  0.000  0.000  0.000
    occupations:
  1.004 -0.000 -0.000  0.000  0.000
 -0.000  1.003 -0.000  0.000  0.000
 -0.000 -0.000  1.003  0.000  0.000
  0.000  0.000  0.000  1.004 -0.000
  0.000  0.000  0.000 -0.000  1.003
   spin  2
    eigenvalues: 
  0.053  0.073  0.080  0.080  0.116
    eigenvectors:
  0.000  1.000  0.000  0.000  0.000
  0.000  0.000  0.249  0.751  0.000
  0.000  0.000  0.751  0.249  0.000
  1.000  0.000  0.000  0.000  0.000
  0.000  0.000  0.000  0.000  1.000
    occupations:
  0.073 -0.000 -0.000  0.000  0.000
 -0.000  0.080 -0.000  0.000  0.000
 -0.000 -0.000  0.080  0.000  0.000
  0.000  0.000  0.000  0.053 -0.000
  0.000  0.000  0.000 -0.000  0.116
atomic mag. moment =     4.615528
atom    5   Tr[ns(na)] (up, down, total) =   5.01754  0.40158  5.41912
   spin  1
    eigenvalues: 
  1.003  1.003  1.003  1.004  1.004
    eigenvectors:
  0.000  0.000  0.000  1.000  0.000
  0.000  0.238  0.762  0.000  0.000
  0.000  0.762  0.238  0.000  0.000
  0.000  0.000  0.000  0.000  1.000
  1.000  0.000  0.000  0.000  0.000
    occupations:
  1.004 -0.000 -0.000  0.000  0.000
 -0.000  1.003 -0.000  0.000  0.000
 -0.000 -0.000  1.003  0.000  0.000
  0.000  0.000  0.000  1.004 -0.000
  0.000  0.000  0.000 -0.000  1.003
   spin  2
    eigenvalues: 
  0.053  0.072  0.081  0.081  0.115
    eigenvectors:
  0.000  1.000  0.000  0.000  0.000
  0.000  0.000  0.304  0.696  0.000
  0.000  0.000  0.696  0.304  0.000
  1.000  0.000  0.000  0.000  0.000
  0.000  0.000  0.000  0.000  1.000
    occupations:
  0.072 -0.000 -0.000  0.000  0.000
 -0.000  0.081 -0.000  0.000  0.000
 -0.000 -0.000  0.081  0.000  0.000
  0.000  0.000  0.000  0.053 -0.000
  0.000  0.000  0.000 -0.000  0.115
atomic mag. moment =     4.615961
atom    6   Tr[ns(na)] (up, down, total) =   5.01752  0.40199  5.41951
   spin  1
    eigenvalues: 
  1.003  1.003  1.003  1.004  1.004
    eigenvectors:
  0.000  0.000  0.000  1.000  0.000
  0.000  0.299  0.701  0.000  0.000
  0.000  0.701  0.299  0.000  0.000
  0.000  0.000  0.000  0.000  1.000
  1.000  0.000  0.000  0.000  0.000
    occupations:
  1.004 -0.000 -0.000  0.000  0.000
 -0.000  1.003 -0.000  0.000  0.000
 -0.000 -0.000  1.003  0.000  0.000
  0.000  0.000  0.000  1.004 -0.000
  0.000  0.000  0.000 -0.000  1.003
   spin  2
    eigenvalues: 
  0.053  0.073  0.080  0.080  0.116
    eigenvectors:
  0.000  1.000  0.000  0.000  0.000
  0.000  0.000  0.336  0.664  0.000
  0.000  0.000  0.664  0.336  0.000
  1.000  0.000  0.000  0.000  0.000
  0.000  0.000  0.000  0.000  1.000
    occupations:
  0.073 -0.000 -0.000  0.000  0.000
 -0.000  0.080 -0.000  0.000  0.000
 -0.000 -0.000  0.080  0.000  0.000
  0.000  0.000  0.000  0.053 -0.000
  0.000  0.000  0.000 -0.000  0.116
atomic mag. moment =     4.615528
atom    7   Tr[ns(na)] (up, down, total) =   5.01751  0.40370  5.42121
   spin  1
    eigenvalues: 
  1.003  1.003  1.003  1.004  1.004
    eigenvectors:
  0.000  0.000  0.000  1.000  0.000
  0.000  0.271  0.729  0.000  0.000
  0.000  0.729  0.271  0.000  0.000
  0.000  0.000  0.000  0.000  1.000
  1.000  0.000  0.000  0.000  0.000
    occupations:
  1.004 -0.000 -0.000  0.000  0.000
 -0.000  1.003 -0.000  0.000  0.000
 -0.000 -0.000  1.003  0.000  0.000
  0.000  0.000  0.000  1.004 -0.000
  0.000  0.000  0.000 -0.000  1.003
   spin  2
    eigenvalues: 
  0.053  0.074  0.081  0.081  0.116
    eigenvectors:
  0.000  1.000  0.000  0.000  0.000
  0.000  0.000  0.361  0.639  0.000
  0.000  0.000  0.639  0.361  0.000
  1.000  0.000  0.000  0.000  0.000
  0.000  0.000  0.000  0.000  1.000
    occupations:
  0.074 -0.000 -0.000  0.000  0.000
 -0.000  0.081 -0.000  0.000  0.000
 -0.000 -0.000  0.081  0.000  0.000
  0.000  0.000  0.000  0.053 -0.000
  0.000  0.000  0.000 -0.000  0.116
atomic mag. moment =     4.613811
atom    8   Tr[ns(na)] (up, down, total) =   5.01751  0.40266  5.42017
   spin  1
    eigenvalues: 
  1.003  1.003  1.003  1.004  1.004
    eigenvectors:
  0.000  0.000  0.000  1.000  0.000
  0.000  0.213  0.787  0.000  0.000
  0.000  0.787  0.213  0.000  0.000
  0.000  0.000  0.000  0.000  1.000
  1.000  0.000  0.000  0.000  0.000
    occupations:
  1.004 -0.000 -0.000  0.000  0.000
 -0.000  1.003 -0.000  0.000  0.000
 -0.000 -0.000  1.003  0.000  0.000
  0.000  0.000  0.000  1.004 -0.000
  0.000  0.000  0.000 -0.000  1.003
   spin  2
    eigenvalues: 
  0.053  0.073  0.081  0.081  0.115
    eigenvectors:
  0.000  1.000  0.000  0.000  0.000
  0.000  0.000  0.402  0.598  0.000
  0.000  0.000  0.598  0.402  0.000
  1.000  0.000  0.000  0.000  0.000
  0.000  0.000  0.000  0.000  1.000
    occupations:
  0.073 -0.000 -0.000  0.000  0.000
 -0.000  0.081 -0.000  0.000  0.000
 -0.000 -0.000  0.081  0.000  0.000
  0.000  0.000  0.000  0.053 -0.000
  0.000  0.000  0.000 -0.000  0.115
atomic mag. moment =     4.614848
N of occupied +U levels =   43.358994
 --- exit write_ns ---

     total cpu time spent up to now is      190.7 secs

     total energy              =  -14687.26404086 Ry
     Harris-Foulkes estimate   =  -14685.79828905 Ry
     estimated scf accuracy    <      11.51100737 Ry

     total magnetization       =    40.42 Bohr mag/cell
     absolute magnetization    =    41.46 Bohr mag/cell

     iteration #  2     ecut=    45.00 Ry     beta= 0.10
     Davidson diagonalization with overlap
     ethr =  3.89E-03,  avg # of iterations =  1.0

     total cpu time spent up to now is      281.5 secs

     total energy              =  -14692.34575015 Ry
     Harris-Foulkes estimate   =  -14687.33525320 Ry
     estimated scf accuracy    <       9.30487044 Ry

     total magnetization       =    39.99 Bohr mag/cell
     absolute magnetization    =    41.20 Bohr mag/cell

     iteration #  3     ecut=    45.00 Ry     beta= 0.10
     Davidson diagonalization with overlap
     ethr =  3.14E-03,  avg # of iterations =  3.8

     total cpu time spent up to now is      425.6 secs

     total energy              =  -14693.15826611 Ry
     Harris-Foulkes estimate   =  -14694.40817687 Ry
     estimated scf accuracy    <     100.04641144 Ry

     total magnetization       =    37.36 Bohr mag/cell
     absolute magnetization    =    38.44 Bohr mag/cell

     iteration #  4     ecut=    45.00 Ry     beta= 0.10
     Davidson diagonalization with overlap
     ethr =  3.14E-03,  avg # of iterations =  2.6

     total cpu time spent up to now is      538.2 secs

     total energy              =  -14694.50188498 Ry
     Harris-Foulkes estimate   =  -14694.08767130 Ry
     estimated scf accuracy    <       3.89156859 Ry

     total magnetization       =    37.09 Bohr mag/cell
     absolute magnetization    =    38.43 Bohr mag/cell

     iteration #  5     ecut=    45.00 Ry     beta= 0.10
     Davidson diagonalization with overlap
     ethr =  1.31E-03,  avg # of iterations =  1.7

     total cpu time spent up to now is      637.1 secs

     total energy              =  -14693.14205346 Ry
     Harris-Foulkes estimate   =  -14694.54768327 Ry
     estimated scf accuracy    <       5.74690309 Ry

     total magnetization       =    36.76 Bohr mag/cell
     absolute magnetization    =    38.03 Bohr mag/cell

     iteration #  6     ecut=    45.00 Ry     beta= 0.10
     Davidson diagonalization with overlap
     ethr =  1.31E-03,  avg # of iterations =  2.7

     total cpu time spent up to now is      754.4 secs

     total energy              =  -14693.83453015 Ry
     Harris-Foulkes estimate   =  -14693.55367983 Ry
     estimated scf accuracy    <       2.37570085 Ry

     total magnetization       =    37.17 Bohr mag/cell
     absolute magnetization    =    38.64 Bohr mag/cell

     iteration #  7     ecut=    45.00 Ry     beta= 0.10
     Davidson diagonalization with overlap
     ethr =  8.03E-04,  avg # of iterations =  2.8

     total cpu time spent up to now is      875.1 secs

     total energy              =  -14693.99306078 Ry
     Harris-Foulkes estimate   =  -14693.97379078 Ry
     estimated scf accuracy    <       0.15552326 Ry

     total magnetization       =    35.28 Bohr mag/cell
     absolute magnetization    =    37.33 Bohr mag/cell

     iteration #  8     ecut=    45.00 Ry     beta= 0.10
     Davidson diagonalization with overlap
     ethr =  5.25E-05,  avg # of iterations =  4.7

     total cpu time spent up to now is     1022.0 secs

     total energy              =  -14694.00545052 Ry
     Harris-Foulkes estimate   =  -14694.01402546 Ry
     estimated scf accuracy    <       0.21651083 Ry

     total magnetization       =    34.63 Bohr mag/cell
     absolute magnetization    =    36.91 Bohr mag/cell

     iteration #  9     ecut=    45.00 Ry     beta= 0.10
     Davidson diagonalization with overlap
     ethr =  5.25E-05,  avg # of iterations =  1.1

     total cpu time spent up to now is     1114.2 secs

     total energy              =  -14694.01134702 Ry
     Harris-Foulkes estimate   =  -14694.00741877 Ry
     estimated scf accuracy    <       0.14822258 Ry

     total magnetization       =    34.63 Bohr mag/cell
     absolute magnetization    =    36.93 Bohr mag/cell

     iteration # 10     ecut=    45.00 Ry     beta= 0.10
     Davidson diagonalization with overlap
     ethr =  5.01E-05,  avg # of iterations =  1.0

     total cpu time spent up to now is     1205.2 secs

     total energy              =  -14693.99975741 Ry
     Harris-Foulkes estimate   =  -14694.01497603 Ry
     estimated scf accuracy    <       0.09792050 Ry

     total magnetization       =    34.45 Bohr mag/cell
     absolute magnetization    =    36.88 Bohr mag/cell

     iteration # 11     ecut=    45.00 Ry     beta= 0.10
     Davidson diagonalization with overlap
     ethr =  3.31E-05,  avg # of iterations =  2.1

     total cpu time spent up to now is     1312.4 secs

     total energy              =  -14694.00857684 Ry
     Harris-Foulkes estimate   =  -14694.00756581 Ry
     estimated scf accuracy    <       0.01501030 Ry

     total magnetization       =    34.47 Bohr mag/cell
     absolute magnetization    =    36.93 Bohr mag/cell

     iteration # 12     ecut=    45.00 Ry     beta= 0.10
     Davidson diagonalization with overlap
     ethr =  5.07E-06,  avg # of iterations =  4.6

     total cpu time spent up to now is     1463.3 secs

     total energy              =  -14694.01012307 Ry
     Harris-Foulkes estimate   =  -14694.01009144 Ry
     estimated scf accuracy    <       0.02604006 Ry

     total magnetization       =    34.42 Bohr mag/cell
     absolute magnetization    =    36.92 Bohr mag/cell

     iteration # 13     ecut=    45.00 Ry     beta= 0.10
     Davidson diagonalization with overlap
     ethr =  5.07E-06,  avg # of iterations =  1.0

     total cpu time spent up to now is     1553.8 secs

     total energy              =  -14694.01128906 Ry
     Harris-Foulkes estimate   =  -14694.01042703 Ry
     estimated scf accuracy    <       0.00615055 Ry

     total magnetization       =    34.37 Bohr mag/cell
     absolute magnetization    =    36.90 Bohr mag/cell

     iteration # 14     ecut=    45.00 Ry     beta= 0.10
     Davidson diagonalization with overlap
     ethr =  2.08E-06,  avg # of iterations =  2.5

     total cpu time spent up to now is     1662.8 secs

     total energy              =  -14694.01154934 Ry
     Harris-Foulkes estimate   =  -14694.01123649 Ry
     estimated scf accuracy    <       0.00094343 Ry

     total magnetization       =    34.29 Bohr mag/cell
     absolute magnetization    =    36.87 Bohr mag/cell

     iteration # 15     ecut=    45.00 Ry     beta= 0.10
     Davidson diagonalization with overlap
     ethr =  3.19E-07,  avg # of iterations =  3.1

     total cpu time spent up to now is     1787.6 secs

     total energy              =  -14694.01161854 Ry
     Harris-Foulkes estimate   =  -14694.01154727 Ry
     estimated scf accuracy    <       0.00060879 Ry

     total magnetization       =    34.26 Bohr mag/cell
     absolute magnetization    =    36.86 Bohr mag/cell

     iteration # 16     ecut=    45.00 Ry     beta= 0.10
     Davidson diagonalization with overlap
     ethr =  2.06E-07,  avg # of iterations =  1.1

     total cpu time spent up to now is     1879.3 secs

     total energy              =  -14694.01169473 Ry
     Harris-Foulkes estimate   =  -14694.01160545 Ry
     estimated scf accuracy    <       0.00161631 Ry

     total magnetization       =    34.25 Bohr mag/cell
     absolute magnetization    =    36.86 Bohr mag/cell

     iteration # 17     ecut=    45.00 Ry     beta= 0.10
     Davidson diagonalization with overlap
     ethr =  2.06E-07,  avg # of iterations =  1.2

     total cpu time spent up to now is     1972.2 secs

     total energy              =  -14694.01162315 Ry
     Harris-Foulkes estimate   =  -14694.01162369 Ry
     estimated scf accuracy    <       0.00194664 Ry

     total magnetization       =    34.21 Bohr mag/cell
     absolute magnetization    =    36.84 Bohr mag/cell

     iteration # 18     ecut=    45.00 Ry     beta= 0.10
     Davidson diagonalization with overlap
     ethr =  2.06E-07,  avg # of iterations =  1.0

     total cpu time spent up to now is     2062.1 secs

     total energy              =  -14694.01166065 Ry
     Harris-Foulkes estimate   =  -14694.01162166 Ry
     estimated scf accuracy    <       0.00127715 Ry

     total magnetization       =    34.21 Bohr mag/cell
     absolute magnetization    =    36.85 Bohr mag/cell

     iteration # 19     ecut=    45.00 Ry     beta= 0.10
     Davidson diagonalization with overlap
     ethr =  2.06E-07,  avg # of iterations =  1.2

     total cpu time spent up to now is     2155.1 secs

     total energy              =  -14694.01159926 Ry
     Harris-Foulkes estimate   =  -14694.01160796 Ry
     estimated scf accuracy    <       0.00134687 Ry

     total magnetization       =    34.18 Bohr mag/cell
     absolute magnetization    =    36.84 Bohr mag/cell

     iteration # 20     ecut=    45.00 Ry     beta= 0.10
     Davidson diagonalization with overlap
     ethr =  2.06E-07,  avg # of iterations =  1.0

     total cpu time spent up to now is     2245.1 secs

     total energy              =  -14694.01161491 Ry
     Harris-Foulkes estimate   =  -14694.01160991 Ry
     estimated scf accuracy    <       0.00039937 Ry

     total magnetization       =    34.18 Bohr mag/cell
     absolute magnetization    =    36.84 Bohr mag/cell

     iteration # 21     ecut=    45.00 Ry     beta= 0.10
     Davidson diagonalization with overlap
     ethr =  1.35E-07,  avg # of iterations =  1.0

     total cpu time spent up to now is     2335.4 secs

     total energy              =  -14694.01158766 Ry
     Harris-Foulkes estimate   =  -14694.01159060 Ry
     estimated scf accuracy    <       0.00066856 Ry

     total magnetization       =    34.17 Bohr mag/cell
     absolute magnetization    =    36.84 Bohr mag/cell

     iteration # 22     ecut=    45.00 Ry     beta= 0.10
     Davidson diagonalization with overlap
     ethr =  1.35E-07,  avg # of iterations =  1.0

     total cpu time spent up to now is     2425.1 secs

     total energy              =  -14694.01159870 Ry
     Harris-Foulkes estimate   =  -14694.01159725 Ry
     estimated scf accuracy    <       0.00091713 Ry

     total magnetization       =    34.18 Bohr mag/cell
     absolute magnetization    =    36.84 Bohr mag/cell

     iteration # 23     ecut=    45.00 Ry     beta= 0.10
     Davidson diagonalization with overlap
     ethr =  1.35E-07,  avg # of iterations =  1.0

     total cpu time spent up to now is     2515.3 secs

     total energy              =  -14694.01159230 Ry
     Harris-Foulkes estimate   =  -14694.01159264 Ry
     estimated scf accuracy    <       0.00086021 Ry

     total magnetization       =    34.18 Bohr mag/cell
     absolute magnetization    =    36.84 Bohr mag/cell

     iteration # 24     ecut=    45.00 Ry     beta= 0.10
     Davidson diagonalization with overlap
     ethr =  1.35E-07,  avg # of iterations =  1.0

     total cpu time spent up to now is     2604.9 secs

     total energy              =  -14694.01158977 Ry
     Harris-Foulkes estimate   =  -14694.01158967 Ry
     estimated scf accuracy    <       0.00019184 Ry

     total magnetization       =    34.17 Bohr mag/cell
     absolute magnetization    =    36.84 Bohr mag/cell

     iteration # 25     ecut=    45.00 Ry     beta= 0.10
     Davidson diagonalization with overlap
     ethr =  6.48E-08,  avg # of iterations =  1.0

     total cpu time spent up to now is     2694.4 secs

     total energy              =  -14694.01158891 Ry
     Harris-Foulkes estimate   =  -14694.01158841 Ry
     estimated scf accuracy    <       0.00007531 Ry

     total magnetization       =    34.17 Bohr mag/cell
     absolute magnetization    =    36.84 Bohr mag/cell

     iteration # 26     ecut=    45.00 Ry     beta= 0.10
     Davidson diagonalization with overlap
     ethr =  2.54E-08,  avg # of iterations =  1.0

     total cpu time spent up to now is     2784.6 secs

     total energy              =  -14694.01159159 Ry
     Harris-Foulkes estimate   =  -14694.01159248 Ry
     estimated scf accuracy    <       0.00066675 Ry

     total magnetization       =    34.17 Bohr mag/cell
     absolute magnetization    =    36.85 Bohr mag/cell

     iteration # 27     ecut=    45.00 Ry     beta= 0.10
     Davidson diagonalization with overlap
     ethr =  2.54E-08,  avg # of iterations =  1.0

     total cpu time spent up to now is     2874.3 secs

     total energy              =  -14694.01159313 Ry
     Harris-Foulkes estimate   =  -14694.01159279 Ry
     estimated scf accuracy    <       0.00011320 Ry

     total magnetization       =    34.17 Bohr mag/cell
     absolute magnetization    =    36.85 Bohr mag/cell

     iteration # 28     ecut=    45.00 Ry     beta= 0.10
     Davidson diagonalization with overlap
     ethr =  2.54E-08,  avg # of iterations =  1.0

     total cpu time spent up to now is     2964.2 secs

     total energy              =  -14694.01159308 Ry
     Harris-Foulkes estimate   =  -14694.01159243 Ry
     estimated scf accuracy    <       0.00006432 Ry

     total magnetization       =    34.17 Bohr mag/cell
     absolute magnetization    =    36.85 Bohr mag/cell

     iteration # 29     ecut=    45.00 Ry     beta= 0.10
     Davidson diagonalization with overlap
     ethr =  2.17E-08,  avg # of iterations =  1.0

     total cpu time spent up to now is     3053.8 secs

     total energy              =  -14694.01159104 Ry
     Harris-Foulkes estimate   =  -14694.01159064 Ry
     estimated scf accuracy    <       0.00005423 Ry

     total magnetization       =    34.17 Bohr mag/cell
     absolute magnetization    =    36.85 Bohr mag/cell

     iteration # 30     ecut=    45.00 Ry     beta= 0.10
     Davidson diagonalization with overlap
     ethr =  1.83E-08,  avg # of iterations =  1.0

     total cpu time spent up to now is     3143.6 secs

     total energy              =  -14694.01159348 Ry
     Harris-Foulkes estimate   =  -14694.01159335 Ry
     estimated scf accuracy    <       0.00005890 Ry

     total magnetization       =    34.17 Bohr mag/cell
     absolute magnetization    =    36.85 Bohr mag/cell

     iteration # 31     ecut=    45.00 Ry     beta= 0.10
     Davidson diagonalization with overlap
     ethr =  1.83E-08,  avg # of iterations =  1.0

     total cpu time spent up to now is     3233.4 secs

     total energy              =  -14694.01159188 Ry
     Harris-Foulkes estimate   =  -14694.01159161 Ry
     estimated scf accuracy    <       0.00001614 Ry

     total magnetization       =    34.17 Bohr mag/cell
     absolute magnetization    =    36.85 Bohr mag/cell

     iteration # 32     ecut=    45.00 Ry     beta= 0.10
     Davidson diagonalization with overlap
     ethr =  5.45E-09,  avg # of iterations =  1.2

     total cpu time spent up to now is     3325.8 secs

     total energy              =  -14694.01159209 Ry
     Harris-Foulkes estimate   =  -14694.01159229 Ry
     estimated scf accuracy    <       0.00006348 Ry

     total magnetization       =    34.17 Bohr mag/cell
     absolute magnetization    =    36.85 Bohr mag/cell

     iteration # 33     ecut=    45.00 Ry     beta= 0.10
     Davidson diagonalization with overlap
     ethr =  5.45E-09,  avg # of iterations =  1.0

     total cpu time spent up to now is     3415.2 secs

     total energy              =  -14694.01159619 Ry
     Harris-Foulkes estimate   =  -14694.01159616 Ry
     estimated scf accuracy    <       0.00016398 Ry

     total magnetization       =    34.18 Bohr mag/cell
     absolute magnetization    =    36.85 Bohr mag/cell

     iteration # 34     ecut=    45.00 Ry     beta= 0.10
     Davidson diagonalization with overlap
     ethr =  5.45E-09,  avg # of iterations =  1.0

     total cpu time spent up to now is     3504.7 secs

     total energy              =  -14694.01159575 Ry
     Harris-Foulkes estimate   =  -14694.01159547 Ry
     estimated scf accuracy    <       0.00001731 Ry

     total magnetization       =    34.18 Bohr mag/cell
     absolute magnetization    =    36.85 Bohr mag/cell

     iteration # 35     ecut=    45.00 Ry     beta= 0.10
     Davidson diagonalization with overlap
     ethr =  5.45E-09,  avg # of iterations =  1.0

     total cpu time spent up to now is     3594.3 secs

     total energy              =  -14694.01159710 Ry
     Harris-Foulkes estimate   =  -14694.01159702 Ry
     estimated scf accuracy    <       0.00023286 Ry

     total magnetization       =    34.18 Bohr mag/cell
     absolute magnetization    =    36.85 Bohr mag/cell

     iteration # 36     ecut=    45.00 Ry     beta= 0.10
     Davidson diagonalization with overlap
     ethr =  5.45E-09,  avg # of iterations =  1.0

     total cpu time spent up to now is     3683.0 secs

     total energy              =  -14694.01159724 Ry
     Harris-Foulkes estimate   =  -14694.01159702 Ry
     estimated scf accuracy    <       0.00002746 Ry

     total magnetization       =    34.18 Bohr mag/cell
     absolute magnetization    =    36.85 Bohr mag/cell

     iteration # 37     ecut=    45.00 Ry     beta= 0.10
     Davidson diagonalization with overlap
     ethr =  5.45E-09,  avg # of iterations =  1.0

     total cpu time spent up to now is     3771.9 secs

     total energy              =  -14694.01159839 Ry
     Harris-Foulkes estimate   =  -14694.01159800 Ry
     estimated scf accuracy    <       0.00003323 Ry

     total magnetization       =    34.18 Bohr mag/cell
     absolute magnetization    =    36.85 Bohr mag/cell

     iteration # 38     ecut=    45.00 Ry     beta= 0.10
     Davidson diagonalization with overlap
     ethr =  5.45E-09,  avg # of iterations =  1.0

     total cpu time spent up to now is     3860.2 secs

     total energy              =  -14694.01159517 Ry
     Harris-Foulkes estimate   =  -14694.01159488 Ry
     estimated scf accuracy    <       0.00005221 Ry

     total magnetization       =    34.18 Bohr mag/cell
     absolute magnetization    =    36.85 Bohr mag/cell

     iteration # 39     ecut=    45.00 Ry     beta= 0.10
     Davidson diagonalization with overlap
     ethr =  5.45E-09,  avg # of iterations =  1.0

     total cpu time spent up to now is     3949.0 secs

     total energy              =  -14694.01159425 Ry
     Harris-Foulkes estimate   =  -14694.01159401 Ry
     estimated scf accuracy    <       0.00004828 Ry

     total magnetization       =    34.17 Bohr mag/cell
     absolute magnetization    =    36.85 Bohr mag/cell

     iteration # 40     ecut=    45.00 Ry     beta= 0.10
     Davidson diagonalization with overlap
     ethr =  5.45E-09,  avg # of iterations =  1.0

     total cpu time spent up to now is     4037.3 secs

     total energy              =  -14694.01159316 Ry
     Harris-Foulkes estimate   =  -14694.01159319 Ry
     estimated scf accuracy    <       0.00040476 Ry

     total magnetization       =    34.17 Bohr mag/cell
     absolute magnetization    =    36.85 Bohr mag/cell

     iteration # 41     ecut=    45.00 Ry     beta= 0.10
     Davidson diagonalization with overlap
     ethr =  5.45E-09,  avg # of iterations =  1.0

     total cpu time spent up to now is     4125.7 secs

     total energy              =  -14694.01159314 Ry
     Harris-Foulkes estimate   =  -14694.01159323 Ry
     estimated scf accuracy    <       0.00024831 Ry

     total magnetization       =    34.17 Bohr mag/cell
     absolute magnetization    =    36.85 Bohr mag/cell

     iteration # 42     ecut=    45.00 Ry     beta= 0.10
     Davidson diagonalization with overlap
     ethr =  5.45E-09,  avg # of iterations =  1.0

     total cpu time spent up to now is     4214.2 secs

     total energy              =  -14694.01159500 Ry
     Harris-Foulkes estimate   =  -14694.01159506 Ry
     estimated scf accuracy    <       0.00010657 Ry

     total magnetization       =    34.18 Bohr mag/cell
     absolute magnetization    =    36.85 Bohr mag/cell

     iteration # 43     ecut=    45.00 Ry     beta= 0.10
     Davidson diagonalization with overlap
     ethr =  5.45E-09,  avg # of iterations =  1.0

     total cpu time spent up to now is     4303.1 secs

     total energy              =  -14694.01159531 Ry
     Harris-Foulkes estimate   =  -14694.01159546 Ry
     estimated scf accuracy    <       0.00001946 Ry

     total magnetization       =    34.18 Bohr mag/cell
     absolute magnetization    =    36.85 Bohr mag/cell

     iteration # 44     ecut=    45.00 Ry     beta= 0.10
     Davidson diagonalization with overlap
     ethr =  5.45E-09,  avg # of iterations =  1.0

     total cpu time spent up to now is     4391.3 secs

     total energy              =  -14694.01159548 Ry
     Harris-Foulkes estimate   =  -14694.01159534 Ry
     estimated scf accuracy    <       0.00002581 Ry

     total magnetization       =    34.18 Bohr mag/cell
     absolute magnetization    =    36.85 Bohr mag/cell

     iteration # 45     ecut=    45.00 Ry     beta= 0.10
     Davidson diagonalization with overlap
     ethr =  5.45E-09,  avg # of iterations =  1.0

     total cpu time spent up to now is     4479.8 secs

     total energy              =  -14694.01159542 Ry
     Harris-Foulkes estimate   =  -14694.01159530 Ry
     estimated scf accuracy    <       0.00001512 Ry

     total magnetization       =    34.18 Bohr mag/cell
     absolute magnetization    =    36.85 Bohr mag/cell

     iteration # 46     ecut=    45.00 Ry     beta= 0.10
     Davidson diagonalization with overlap
     ethr =  5.11E-09,  avg # of iterations =  1.0

     total cpu time spent up to now is     4568.5 secs

     total energy              =  -14694.01159501 Ry
     Harris-Foulkes estimate   =  -14694.01159485 Ry
     estimated scf accuracy    <       0.00001196 Ry

     total magnetization       =    34.18 Bohr mag/cell
     absolute magnetization    =    36.85 Bohr mag/cell

     iteration # 47     ecut=    45.00 Ry     beta= 0.10
     Davidson diagonalization with overlap
     ethr =  4.04E-09,  avg # of iterations =  1.0

     total cpu time spent up to now is     4657.0 secs

     total energy              =  -14694.01159408 Ry
     Harris-Foulkes estimate   =  -14694.01159411 Ry
     estimated scf accuracy    <       0.00001475 Ry

     total magnetization       =    34.17 Bohr mag/cell
     absolute magnetization    =    36.85 Bohr mag/cell

     iteration # 48     ecut=    45.00 Ry     beta= 0.10
     Davidson diagonalization with overlap
     ethr =  4.04E-09,  avg # of iterations =  1.0

     total cpu time spent up to now is     4745.8 secs

     total energy              =  -14694.01159438 Ry
     Harris-Foulkes estimate   =  -14694.01159430 Ry
     estimated scf accuracy    <       0.00001287 Ry

     total magnetization       =    34.17 Bohr mag/cell
     absolute magnetization    =    36.85 Bohr mag/cell

     iteration # 49     ecut=    45.00 Ry     beta= 0.10
     Davidson diagonalization with overlap
     ethr =  4.04E-09,  avg # of iterations =  1.0

     total cpu time spent up to now is     4834.4 secs

     total energy              =  -14694.01159333 Ry
     Harris-Foulkes estimate   =  -14694.01159413 Ry
     estimated scf accuracy    <       0.00001013 Ry

     total magnetization       =    34.17 Bohr mag/cell
     absolute magnetization    =    36.85 Bohr mag/cell

     iteration # 50     ecut=    45.00 Ry     beta= 0.10
     Davidson diagonalization with overlap
     ethr =  3.42E-09,  avg # of iterations =  1.0

     total cpu time spent up to now is     4923.6 secs

     total energy              =  -14694.01159774 Ry
     Harris-Foulkes estimate   =  -14694.01159712 Ry
     estimated scf accuracy    <       0.00002081 Ry

     total magnetization       =    34.18 Bohr mag/cell
     absolute magnetization    =    36.85 Bohr mag/cell

     iteration # 51     ecut=    45.00 Ry     beta= 0.10
     Davidson diagonalization with overlap
     ethr =  3.42E-09,  avg # of iterations =  1.0

     total cpu time spent up to now is     5011.9 secs

     total energy              =  -14694.01159375 Ry
     Harris-Foulkes estimate   =  -14694.01159355 Ry
     estimated scf accuracy    <       0.00001310 Ry

     total magnetization       =    34.17 Bohr mag/cell
     absolute magnetization    =    36.85 Bohr mag/cell

     iteration # 52     ecut=    45.00 Ry     beta= 0.10
     Davidson diagonalization with overlap
     ethr =  3.42E-09,  avg # of iterations =  1.0

     total cpu time spent up to now is     5100.8 secs

     total energy              =  -14694.01159315 Ry
     Harris-Foulkes estimate   =  -14694.01159301 Ry
     estimated scf accuracy    <       0.00000866 Ry

     total magnetization       =    34.17 Bohr mag/cell
     absolute magnetization    =    36.85 Bohr mag/cell

     iteration # 53     ecut=    45.00 Ry     beta= 0.10
     Davidson diagonalization with overlap
     ethr =  2.92E-09,  avg # of iterations =  1.0

     total cpu time spent up to now is     5189.6 secs

     total energy              =  -14694.01159085 Ry
     Harris-Foulkes estimate   =  -14694.01159088 Ry
     estimated scf accuracy    <       0.00001727 Ry

     total magnetization       =    34.17 Bohr mag/cell
     absolute magnetization    =    36.85 Bohr mag/cell

     iteration # 54     ecut=    45.00 Ry     beta= 0.10
     Davidson diagonalization with overlap
     ethr =  2.92E-09,  avg # of iterations =  1.0

     total cpu time spent up to now is     5278.4 secs

     total energy              =  -14694.01159128 Ry
     Harris-Foulkes estimate   =  -14694.01159129 Ry
     estimated scf accuracy    <       0.00001561 Ry

     total magnetization       =    34.17 Bohr mag/cell
     absolute magnetization    =    36.85 Bohr mag/cell

     iteration # 55     ecut=    45.00 Ry     beta= 0.10
     Davidson diagonalization with overlap
     ethr =  2.92E-09,  avg # of iterations =  1.0

     total cpu time spent up to now is     5367.4 secs

     total energy              =  -14694.01159159 Ry
     Harris-Foulkes estimate   =  -14694.01159164 Ry
     estimated scf accuracy    <       0.00002009 Ry

     total magnetization       =    34.17 Bohr mag/cell
     absolute magnetization    =    36.85 Bohr mag/cell

     iteration # 56     ecut=    45.00 Ry     beta= 0.10
     Davidson diagonalization with overlap
     ethr =  2.92E-09,  avg # of iterations =  1.0

     total cpu time spent up to now is     5456.3 secs

     total energy              =  -14694.01159232 Ry
     Harris-Foulkes estimate   =  -14694.01159238 Ry
     estimated scf accuracy    <       0.00000961 Ry

     total magnetization       =    34.17 Bohr mag/cell
     absolute magnetization    =    36.85 Bohr mag/cell

     iteration # 57     ecut=    45.00 Ry     beta= 0.10
     Davidson diagonalization with overlap
     ethr =  2.92E-09,  avg # of iterations =  1.0

     total cpu time spent up to now is     5545.3 secs

     total energy              =  -14694.01159323 Ry
     Harris-Foulkes estimate   =  -14694.01159318 Ry
     estimated scf accuracy    <       0.00001058 Ry

     total magnetization       =    34.17 Bohr mag/cell
     absolute magnetization    =    36.85 Bohr mag/cell

     iteration # 58     ecut=    45.00 Ry     beta= 0.10
     Davidson diagonalization with overlap
     ethr =  2.92E-09,  avg # of iterations =  1.0

     total cpu time spent up to now is     5633.8 secs

     total energy              =  -14694.01159378 Ry
     Harris-Foulkes estimate   =  -14694.01159373 Ry
     estimated scf accuracy    <       0.00000970 Ry

     total magnetization       =    34.17 Bohr mag/cell
     absolute magnetization    =    36.85 Bohr mag/cell

     iteration # 59     ecut=    45.00 Ry     beta= 0.10
     Davidson diagonalization with overlap
     ethr =  2.92E-09,  avg # of iterations =  1.0

     total cpu time spent up to now is     5722.6 secs

     total energy              =  -14694.01159274 Ry
     Harris-Foulkes estimate   =  -14694.01159277 Ry
     estimated scf accuracy    <       0.00001084 Ry

     total magnetization       =    34.17 Bohr mag/cell
     absolute magnetization    =    36.85 Bohr mag/cell

     iteration # 60     ecut=    45.00 Ry     beta= 0.10
     Davidson diagonalization with overlap
     ethr =  2.92E-09,  avg # of iterations =  1.0

     total cpu time spent up to now is     5811.3 secs

     total energy              =  -14694.01159335 Ry
     Harris-Foulkes estimate   =  -14694.01159338 Ry
     estimated scf accuracy    <       0.00000453 Ry

     total magnetization       =    34.17 Bohr mag/cell
     absolute magnetization    =    36.85 Bohr mag/cell

     iteration # 61     ecut=    45.00 Ry     beta= 0.10
     Davidson diagonalization with overlap
     ethr =  1.53E-09,  avg # of iterations =  1.0

     total cpu time spent up to now is     5900.2 secs

     total energy              =  -14694.01159386 Ry
     Harris-Foulkes estimate   =  -14694.01159384 Ry
     estimated scf accuracy    <       0.00000654 Ry

     total magnetization       =    34.17 Bohr mag/cell
     absolute magnetization    =    36.85 Bohr mag/cell

     iteration # 62     ecut=    45.00 Ry     beta= 0.10
     Davidson diagonalization with overlap
     ethr =  1.53E-09,  avg # of iterations =  1.0

     total cpu time spent up to now is     5988.5 secs

     total energy              =  -14694.01159273 Ry
     Harris-Foulkes estimate   =  -14694.01159279 Ry
     estimated scf accuracy    <       0.00000404 Ry

     total magnetization       =    34.17 Bohr mag/cell
     absolute magnetization    =    36.85 Bohr mag/cell

     iteration # 63     ecut=    45.00 Ry     beta= 0.10
     Davidson diagonalization with overlap
     ethr =  1.36E-09,  avg # of iterations =  1.0

     total cpu time spent up to now is     6076.6 secs

     total energy              =  -14694.01159269 Ry
     Harris-Foulkes estimate   =  -14694.01159271 Ry
     estimated scf accuracy    <       0.00000174 Ry

     total magnetization       =    34.17 Bohr mag/cell
     absolute magnetization    =    36.85 Bohr mag/cell

     iteration # 64     ecut=    45.00 Ry     beta= 0.10
     Davidson diagonalization with overlap
     ethr =  5.88E-10,  avg # of iterations =  1.0

     total cpu time spent up to now is     6165.0 secs

     total energy              =  -14694.01159190 Ry
     Harris-Foulkes estimate   =  -14694.01159193 Ry
     estimated scf accuracy    <       0.00000487 Ry

     total magnetization       =    34.17 Bohr mag/cell
     absolute magnetization    =    36.85 Bohr mag/cell

     iteration # 65     ecut=    45.00 Ry     beta= 0.10
     Davidson diagonalization with overlap
     ethr =  5.88E-10,  avg # of iterations =  1.0

     total cpu time spent up to now is     6253.0 secs

     total energy              =  -14694.01159143 Ry
     Harris-Foulkes estimate   =  -14694.01159142 Ry
     estimated scf accuracy    <       0.00000132 Ry

     total magnetization       =    34.17 Bohr mag/cell
     absolute magnetization    =    36.85 Bohr mag/cell

     iteration # 66     ecut=    45.00 Ry     beta= 0.10
     Davidson diagonalization with overlap
     ethr =  4.46E-10,  avg # of iterations =  1.0

     total cpu time spent up to now is     6341.3 secs

     total energy              =  -14694.01159184 Ry
     Harris-Foulkes estimate   =  -14694.01159183 Ry
     estimated scf accuracy    <       0.00000548 Ry

     total magnetization       =    34.17 Bohr mag/cell
     absolute magnetization    =    36.85 Bohr mag/cell

     iteration # 67     ecut=    45.00 Ry     beta= 0.10
     Davidson diagonalization with overlap
     ethr =  4.46E-10,  avg # of iterations =  1.0

     total cpu time spent up to now is     6429.4 secs

     total energy              =  -14694.01159192 Ry
     Harris-Foulkes estimate   =  -14694.01159194 Ry
     estimated scf accuracy    <       0.00000620 Ry

     total magnetization       =    34.17 Bohr mag/cell
     absolute magnetization    =    36.85 Bohr mag/cell

     iteration # 68     ecut=    45.00 Ry     beta= 0.10
     Davidson diagonalization with overlap
     ethr =  4.46E-10,  avg # of iterations =  1.0

     total cpu time spent up to now is     6517.8 secs

     total energy              =  -14694.01159161 Ry
     Harris-Foulkes estimate   =  -14694.01159162 Ry
     estimated scf accuracy    <       0.00000369 Ry

     total magnetization       =    34.17 Bohr mag/cell
     absolute magnetization    =    36.85 Bohr mag/cell

     iteration # 69     ecut=    45.00 Ry     beta= 0.10
     Davidson diagonalization with overlap
     ethr =  4.46E-10,  avg # of iterations =  1.0

     total cpu time spent up to now is     6605.9 secs

     total energy              =  -14694.01159167 Ry
     Harris-Foulkes estimate   =  -14694.01159169 Ry
     estimated scf accuracy    <       0.00000547 Ry

     total magnetization       =    34.17 Bohr mag/cell
     absolute magnetization    =    36.85 Bohr mag/cell

     iteration # 70     ecut=    45.00 Ry     beta= 0.10
     Davidson diagonalization with overlap
     ethr =  4.46E-10,  avg # of iterations =  1.0
 
     Magnetic moment per site:
     atom:    1    charge:   13.5548    magn:    4.1858    constr:    0.0000
     atom:    2    charge:   13.5551    magn:    4.1877    constr:    0.0000
     atom:    3    charge:   13.5547    magn:    4.1892    constr:    0.0000
     atom:    4    charge:   13.5546    magn:    4.1896    constr:    0.0000
     atom:    5    charge:   13.5543    magn:    4.1905    constr:    0.0000
     atom:    6    charge:   13.5546    magn:    4.1896    constr:    0.0000
     atom:    7    charge:   13.5547    magn:    4.1892    constr:    0.0000
     atom:    8    charge:   13.5551    magn:    4.1877    constr:    0.0000
     atom:    9    charge:    9.1206    magn:    0.0242    constr:    0.0000
     atom:   10    charge:    9.1207    magn:    0.0232    constr:    0.0000
     atom:   11    charge:    9.1207    magn:    0.0244    constr:    0.0000
     atom:   12    charge:    9.1207    magn:    0.0249    constr:    0.0000
     atom:   13    charge:    9.1206    magn:    0.0248    constr:    0.0000
     atom:   14    charge:    9.1208    magn:    0.0253    constr:    0.0000
     atom:   15    charge:    9.1209    magn:    0.0247    constr:    0.0000
     atom:   16    charge:    9.1207    magn:    0.0242    constr:    0.0000
     atom:   17    charge:    9.1207    magn:    0.0242    constr:    0.0000
     atom:   18    charge:    9.1209    magn:    0.0247    constr:    0.0000
     atom:   19    charge:    9.1208    magn:    0.0253    constr:    0.0000
     atom:   20    charge:    9.1206    magn:    0.0248    constr:    0.0000
     atom:   21    charge:    9.1207    magn:    0.0249    constr:    0.0000
     atom:   22    charge:    9.1207    magn:    0.0244    constr:    0.0000
     atom:   23    charge:    9.1207    magn:    0.0232    constr:    0.0000
     atom:   24    charge:    9.1206    magn:    0.0242    constr:    0.0000

     total cpu time spent up to now is     6694.2 secs

     End of self-consistent calculation
 --- enter write_ns ---
 LDA+U parameters:
U(  1) =   3.1200   J(  1) =   0.7000   B(  1) =   0.0803
atom    1   Tr[ns(na)] (up, down, total) =   4.96783  0.77489  5.74271
   spin  1
    eigenvalues: 
  0.984  0.993  0.993  0.996  1.002
    eigenvectors:
  0.000  0.000  0.000  1.000  0.000
  0.000  0.237  0.763  0.000  0.000
  0.000  0.763  0.237  0.000  0.000
  0.000  0.000  0.000  0.000  1.000
  1.000  0.000  0.000  0.000  0.000
    occupations:
  0.996 -0.000 -0.000  0.000  0.000
 -0.000  0.993 -0.000  0.000  0.000
 -0.000 -0.000  0.993  0.000  0.000
  0.000  0.000  0.000  1.002 -0.000
  0.000  0.000  0.000 -0.000  0.984
   spin  2
    eigenvalues: 
  0.065  0.145  0.145  0.152  0.269
    eigenvectors:
  0.000  0.000  0.000  1.000  0.000
  0.000  0.310  0.690  0.000  0.000
  0.000  0.690  0.310  0.000  0.000
  1.000  0.000  0.000  0.000  0.000
  0.000  0.000  0.000  0.000  1.000
    occupations:
  0.152 -0.000 -0.000  0.000  0.000
 -0.000  0.145 -0.000  0.000  0.000
 -0.000 -0.000  0.145  0.000  0.000
  0.000  0.000  0.000  0.065 -0.000
  0.000  0.000  0.000 -0.000  0.269
atomic mag. moment =     4.192943
atom    2   Tr[ns(na)] (up, down, total) =   4.96831  0.77395  5.74226
   spin  1
    eigenvalues: 
  0.984  0.993  0.993  0.996  1.002
    eigenvectors:
  0.000  0.000  0.000  1.000  0.000
  0.000  0.379  0.621  0.000  0.000
  0.000  0.621  0.379  0.000  0.000
  0.000  0.000  0.000  0.000  1.000
  1.000  0.000  0.000  0.000  0.000
    occupations:
  0.996 -0.000 -0.000  0.000  0.000
 -0.000  0.993 -0.000  0.000  0.000
 -0.000 -0.000  0.993  0.000  0.000
  0.000  0.000  0.000  1.002 -0.000
  0.000  0.000  0.000 -0.000  0.984
   spin  2
    eigenvalues: 
  0.065  0.145  0.145  0.151  0.269
    eigenvectors:
  0.000  0.000  0.000  1.000  0.000
  0.000  0.400  0.600  0.000  0.000
  0.000  0.600  0.400  0.000  0.000
  1.000  0.000  0.000  0.000  0.000
  0.000  0.000  0.000  0.000  1.000
    occupations:
  0.151 -0.000 -0.000  0.000  0.000
 -0.000  0.145 -0.000  0.000  0.000
 -0.000 -0.000  0.145  0.000  0.000
  0.000  0.000  0.000  0.065 -0.000
  0.000  0.000  0.000 -0.000  0.269
atomic mag. moment =     4.194360
atom    3   Tr[ns(na)] (up, down, total) =   4.96820  0.77262  5.74082
   spin  1
    eigenvalues: 
  0.984  0.993  0.993  0.996  1.002
    eigenvectors:
  0.000  0.000  0.000  1.000  0.000
  0.000  0.234  0.766  0.000  0.000
  0.000  0.766  0.234  0.000  0.000
  0.000  0.000  0.000  0.000  1.000
  1.000  0.000  0.000  0.000  0.000
    occupations:
  0.996 -0.000 -0.000  0.000  0.000
 -0.000  0.993 -0.000  0.000  0.000
 -0.000 -0.000  0.993  0.000  0.000
  0.000  0.000  0.000  1.002 -0.000
  0.000  0.000  0.000 -0.000  0.984
   spin  2
    eigenvalues: 
  0.065  0.144  0.144  0.150  0.268
    eigenvectors:
  0.000  0.000  0.000  1.000  0.000
  0.000  0.298  0.702  0.000  0.000
  0.000  0.702  0.298  0.000  0.000
  1.000  0.000  0.000  0.000  0.000
  0.000  0.000  0.000  0.000  1.000
    occupations:
  0.150 -0.000 -0.000  0.000  0.000
 -0.000  0.144 -0.000  0.000  0.000
 -0.000 -0.000  0.144  0.000  0.000
  0.000  0.000  0.000  0.065 -0.000
  0.000  0.000  0.000 -0.000  0.268
atomic mag. moment =     4.195576
atom    4   Tr[ns(na)] (up, down, total) =   4.96828  0.77237  5.74065
   spin  1
    eigenvalues: 
  0.984  0.993  0.993  0.996  1.002
    eigenvectors:
  0.000  0.000  0.000  1.000  0.000
  0.000  0.318  0.682  0.000  0.000
  0.000  0.682  0.318  0.000  0.000
  0.000  0.000  0.000  0.000  1.000
  1.000  0.000  0.000  0.000  0.000
    occupations:
  0.996 -0.000 -0.000  0.000  0.000
 -0.000  0.993 -0.000  0.000  0.000
 -0.000 -0.000  0.993  0.000  0.000
  0.000  0.000  0.000  1.002 -0.000
  0.000  0.000  0.000 -0.000  0.984
   spin  2
    eigenvalues: 
  0.065  0.145  0.145  0.149  0.268
    eigenvectors:
  0.000  0.000  0.000  1.000  0.000
  0.000  0.335  0.665  0.000  0.000
  0.000  0.665  0.335  0.000  0.000
  1.000  0.000  0.000  0.000  0.000
  0.000  0.000  0.000  0.000  1.000
    occupations:
  0.149 -0.000 -0.000  0.000  0.000
 -0.000  0.145 -0.000  0.000  0.000
 -0.000 -0.000  0.145  0.000  0.000
  0.000  0.000  0.000  0.065 -0.000
  0.000  0.000  0.000 -0.000  0.268
atomic mag. moment =     4.195908
atom    5   Tr[ns(na)] (up, down, total) =   4.96830  0.77126  5.73956
   spin  1
    eigenvalues: 
  0.984  0.993  0.993  0.996  1.002
    eigenvectors:
  0.000  0.000  0.000  1.000  0.000
  0.000  0.347  0.653  0.000  0.000
  0.000  0.653  0.347  0.000  0.000
  0.000  0.000  0.000  0.000  1.000
  1.000  0.000  0.000  0.000  0.000
    occupations:
  0.996 -0.000 -0.000  0.000  0.000
 -0.000  0.993 -0.000  0.000  0.000
 -0.000 -0.000  0.993  0.000  0.000
  0.000  0.000  0.000  1.002 -0.000
  0.000  0.000  0.000 -0.000  0.984
   spin  2
    eigenvalues: 
  0.065  0.144  0.144  0.149  0.268
    eigenvectors:
  0.000  0.000  0.000  1.000  0.000
  0.000  0.317  0.683  0.000  0.000
  0.000  0.683  0.317  0.000  0.000
  1.000  0.000  0.000  0.000  0.000
  0.000  0.000  0.000  0.000  1.000
    occupations:
  0.149 -0.000 -0.000  0.000  0.000
 -0.000  0.144 -0.000  0.000  0.000
 -0.000 -0.000  0.144  0.000  0.000
  0.000  0.000  0.000  0.065 -0.000
  0.000  0.000  0.000 -0.000  0.268
atomic mag. moment =     4.197033
atom    6   Tr[ns(na)] (up, down, total) =   4.96828  0.77237  5.74065
   spin  1
    eigenvalues: 
  0.984  0.993  0.993  0.996  1.002
    eigenvectors:
  0.000  0.000  0.000  1.000  0.000
  0.000  0.274  0.726  0.000  0.000
  0.000  0.726  0.274  0.000  0.000
  0.000  0.000  0.000  0.000  1.000
  1.000  0.000  0.000  0.000  0.000
    occupations:
  0.996 -0.000 -0.000  0.000  0.000
 -0.000  0.993 -0.000  0.000  0.000
 -0.000 -0.000  0.993  0.000  0.000
  0.000  0.000  0.000  1.002 -0.000
  0.000  0.000  0.000 -0.000  0.984
   spin  2
    eigenvalues: 
  0.065  0.145  0.145  0.149  0.268
    eigenvectors:
  0.000  0.000  0.000  1.000  0.000
  0.000  0.343  0.657  0.000  0.000
  0.000  0.657  0.343  0.000  0.000
  1.000  0.000  0.000  0.000  0.000
  0.000  0.000  0.000  0.000  1.000
    occupations:
  0.149 -0.000 -0.000  0.000  0.000
 -0.000  0.145 -0.000  0.000  0.000
 -0.000 -0.000  0.145  0.000  0.000
  0.000  0.000  0.000  0.065 -0.000
  0.000  0.000  0.000 -0.000  0.268
atomic mag. moment =     4.195908
atom    7   Tr[ns(na)] (up, down, total) =   4.96820  0.77262  5.74082
   spin  1
    eigenvalues: 
  0.984  0.993  0.993  0.996  1.002
    eigenvectors:
  0.000  0.000  0.000  1.000  0.000
  0.000  0.323  0.677  0.000  0.000
  0.000  0.677  0.323  0.000  0.000
  0.000  0.000  0.000  0.000  1.000
  1.000  0.000  0.000  0.000  0.000
    occupations:
  0.996 -0.000 -0.000  0.000  0.000
 -0.000  0.993 -0.000  0.000  0.000
 -0.000 -0.000  0.993  0.000  0.000
  0.000  0.000  0.000  1.002 -0.000
  0.000  0.000  0.000 -0.000  0.984
   spin  2
    eigenvalues: 
  0.065  0.144  0.144  0.150  0.268
    eigenvectors:
  0.000  0.000  0.000  1.000  0.000
  0.000  0.317  0.683  0.000  0.000
  0.000  0.683  0.317  0.000  0.000
  1.000  0.000  0.000  0.000  0.000
  0.000  0.000  0.000  0.000  1.000
    occupations:
  0.150 -0.000 -0.000  0.000  0.000
 -0.000  0.144 -0.000  0.000  0.000
 -0.000 -0.000  0.144  0.000  0.000
  0.000  0.000  0.000  0.065 -0.000
  0.000  0.000  0.000 -0.000  0.268
atomic mag. moment =     4.195576
atom    8   Tr[ns(na)] (up, down, total) =   4.96831  0.77395  5.74226
   spin  1
    eigenvalues: 
  0.984  0.993  0.993  0.996  1.002
    eigenvectors:
  0.000  0.000  0.000  1.000  0.000
  0.000  0.344  0.656  0.000  0.000
  0.000  0.656  0.344  0.000  0.000
  0.000  0.000  0.000  0.000  1.000
  1.000  0.000  0.000  0.000  0.000
    occupations:
  0.996 -0.000 -0.000  0.000  0.000
 -0.000  0.993 -0.000  0.000  0.000
 -0.000 -0.000  0.993  0.000  0.000
  0.000  0.000  0.000  1.002 -0.000
  0.000  0.000  0.000 -0.000  0.984
   spin  2
    eigenvalues: 
  0.065  0.145  0.145  0.151  0.269
    eigenvectors:
  0.000  0.000  0.000  1.000  0.000
  0.000  0.370  0.630  0.000  0.000
  0.000  0.630  0.370  0.000  0.000
  1.000  0.000  0.000  0.000  0.000
  0.000  0.000  0.000  0.000  1.000
    occupations:
  0.151 -0.000 -0.000  0.000  0.000
 -0.000  0.145 -0.000  0.000  0.000
 -0.000 -0.000  0.145  0.000  0.000
  0.000  0.000  0.000  0.065 -0.000
  0.000  0.000  0.000 -0.000  0.269
atomic mag. moment =     4.194360
N of occupied +U levels =   45.929754
 --- exit write_ns ---

 ------ SPIN UP ------------


          k = 0.0000 0.0000 0.0000 ( 13925 PWs)   bands (ev):

   -66.6528 -66.6501 -66.6501 -66.6469 -66.6469 -66.6450 -66.6419 -66.6419
   -35.4252 -35.4220 -35.4220 -35.4187 -35.4187 -35.4166 -35.4133 -35.4133
   -35.3711 -35.3711 -35.3688 -35.3688 -35.3688 -35.3688 -35.3659 -35.3659
   -35.3659 -35.3659 -35.3641 -35.3641 -35.3613 -35.3613 -35.3613 -35.3613
     5.7062   5.8582   5.8584   6.2982   6.2985   6.9710   6.9714   7.6038
     8.1006   8.3088   8.3113   8.3766   8.3767   8.4140   8.4142   8.5758
     8.5761   8.7219   8.7222   8.7572   8.7574   8.8931   8.8934   9.1314
     9.1318   9.2636   9.3613   9.4066   9.4068   9.4194   9.6403   9.6854
     9.6855   9.8005   9.8005   9.8408   9.8944   9.8944  10.0521  10.0521
    10.1139  10.1139  10.1638  10.1638  10.1638  10.1638  10.3044  10.3047
    10.3176  10.3182  10.3218  10.3218  10.3219  10.3219  10.5674  10.5674
    10.5854  10.5854  10.5856  10.5856  10.6026  10.6026  10.6032  10.6032
    10.6316  10.6416  10.6871  10.6871  10.6886  10.6886  10.7341  10.7341
    10.7898  10.7898  10.7906  10.7906  10.8286  10.8288  11.0245  11.0245
    11.0270  11.0271  11.1315  11.1495  11.1495  11.2244  11.2248  11.2318
    11.3769  11.4496  11.4501  11.4907  11.4913  11.6068  11.6068  11.6071
    11.6071  11.7028  11.7031  11.8746  11.8747  11.8913  11.8919  11.9920
    11.9925  12.1702  12.1704  12.1710  12.1710  12.1715  12.1715  12.2163
    12.2302  12.2403  12.3462  12.6323  12.6326  12.6457  12.6457  12.6459
    12.6459  12.8023  12.8396  12.8396  12.8952  12.8954  13.0613  13.0615
    13.1181  13.3196  13.3197  14.2858  14.2859  15.6196  15.6198  17.1266
    17.5274  19.2970  19.2973  19.9758  19.9758  20.3265  20.3265  20.3266
    20.3266  21.2703

          k = 0.0000 0.0000-0.0484 ( 13878 PWs)   bands (ev):

   -66.6528 -66.6501 -66.6501 -66.6469 -66.6469 -66.6450 -66.6419 -66.6419
   -35.4252 -35.4220 -35.4220 -35.4187 -35.4187 -35.4166 -35.4133 -35.4133
   -35.3711 -35.3711 -35.3688 -35.3688 -35.3688 -35.3688 -35.3659 -35.3659
   -35.3659 -35.3659 -35.3641 -35.3641 -35.3613 -35.3613 -35.3613 -35.3613
     5.7440   5.7449   6.0447   6.0447   6.6111   6.6115   7.3514   7.3520
     8.3120   8.3139   8.3255   8.3262   8.3843   8.3845   8.4604   8.4606
     8.5482   8.5483   8.7210   8.7212   8.9224   8.9228   9.0876   9.0891
     9.1176   9.1177   9.3206   9.3211   9.5535   9.5541   9.5989   9.5990
     9.6768   9.6789   9.8538   9.8547   9.9606   9.9607  10.0570  10.0576
    10.1261  10.1261  10.1263  10.1263  10.1673  10.1674  10.2283  10.2283
    10.2286  10.2286  10.4434  10.4434  10.4441  10.4441  10.4610  10.4626
    10.5754  10.5754  10.5767  10.5772  10.5781  10.5781  10.6416  10.6416
    10.6419  10.6419  10.7008  10.7008  10.7010  10.7010  10.7364  10.7364
    10.7367  10.7367  10.8256  10.8266  10.8854  10.8854  10.8873  10.8873
    11.0651  11.0660  11.1538  11.1561  11.2359  11.2366  11.3381  11.3381
    11.3391  11.3391  11.3406  11.3406  11.5228  11.5247  11.6638  11.6645
    11.6778  11.6780  11.8607  11.8607  11.8898  11.8898  11.8899  11.8899
    12.0745  12.0755  12.0957  12.0959  12.1106  12.1140  12.2146  12.2158
    12.4312  12.4312  12.4313  12.4313  12.4724  12.4745  12.7747  12.7748
    12.7886  12.7886  12.7895  12.7895  12.9710  12.9717  12.9914  12.9916
    13.1032  13.1045  13.7590  13.7595  14.9056  14.9057  16.4167  16.4181
    18.3027  18.3028  20.0651  20.0651  20.0661  20.0661  20.3319  20.3321
    20.7369  20.7369

          k = 0.0000 0.1250 0.0000 ( 13879 PWs)   bands (ev):

   -66.6525 -66.6498 -66.6498 -66.6467 -66.6467 -66.6447 -66.6416 -66.6416
   -35.4251 -35.4218 -35.4218 -35.4185 -35.4185 -35.4165 -35.4131 -35.4131
   -35.3729 -35.3710 -35.3706 -35.3706 -35.3687 -35.3687 -35.3677 -35.3677
   -35.3659 -35.3658 -35.3658 -35.3640 -35.3631 -35.3631 -35.3612 -35.3612
     5.9501   6.0972   6.0974   6.5188   6.5190   7.1473   7.1476   7.7115
     8.1278   8.4040   8.4497   8.5047   8.5049   8.5101   8.5101   8.6396
     8.6397   8.6851   8.6854   8.8227   8.8230   8.9528   8.9532   9.1040
     9.1041   9.2173   9.2185   9.2187   9.2620   9.3722   9.3724   9.5915
     9.6941   9.7742   9.8184   9.8185   9.8780   9.8950   9.8950   9.9070
     9.9070   9.9529   9.9530  10.0105  10.0109  10.0128  10.0498  10.0502
    10.2536  10.2750  10.2754  10.3008  10.3009  10.3121  10.3122  10.5427
    10.5432  10.5631  10.5636  10.5762  10.6607  10.6608  10.6799  10.7349
    10.7602  10.8135  10.8143  10.8198  10.8312  10.8320  10.9307  10.9309
    10.9566  11.0564  11.0567  11.0581  11.0588  11.0754  11.1657  11.1657
    11.1661  11.1666  11.1783  11.2190  11.2261  11.2262  11.2725  11.4328
    11.4572  11.4577  11.4870  11.5095  11.5096  11.5225  11.5228  11.7638
    11.7641  11.7919  11.7920  11.8503  11.8509  11.8815  11.8816  11.9791
    11.9791  12.0391  12.0393  12.1451  12.1452  12.1873  12.1930  12.2440
    12.2440  12.3547  12.3548  12.4800  12.4802  12.5481  12.6296  12.6398
    12.7564  12.7808  12.8005  12.8612  12.8614  12.9998  12.9998  13.0129
    13.0130  13.2802  13.2803  14.3222  14.3223  15.7696  15.7698  17.3804
    17.7742  18.4955  18.8084  18.8085  19.6159  19.6161  19.6249  19.6251
    20.5612  20.7108

          k = 0.0000 0.1250-0.0484 ( 13868 PWs)   bands (ev):

   -66.6525 -66.6498 -66.6498 -66.6467 -66.6467 -66.6447 -66.6416 -66.6416
   -35.4251 -35.4218 -35.4218 -35.4185 -35.4185 -35.4165 -35.4131 -35.4131
   -35.3729 -35.3710 -35.3706 -35.3706 -35.3687 -35.3687 -35.3677 -35.3677
   -35.3659 -35.3658 -35.3658 -35.3640 -35.3631 -35.3631 -35.3612 -35.3612
     5.9868   5.9876   6.2766   6.2767   6.8140   6.8143   7.4904   7.4908
     8.3250   8.3263   8.4370   8.4377   8.4664   8.4671   8.5834   8.5835
     8.6464   8.6465   8.8103   8.8104   8.8943   8.8944   9.0229   9.0232
     9.1015   9.1029   9.2640   9.2641   9.3114   9.3114   9.4799   9.4813
     9.7851   9.7857   9.7977   9.7990   9.8678   9.8679   9.8823   9.8831
     9.9086   9.9086  10.0115  10.0125  10.0139  10.0142  10.1229  10.1233
    10.1509  10.1513  10.2704  10.2705  10.3422  10.3422  10.4870  10.4870
    10.5331  10.5332  10.5742  10.5761  10.5976  10.5978  10.7232  10.7238
    10.8147  10.8160  10.8172  10.8175  10.8680  10.8681  10.9574  10.9578
    11.0052  11.0054  11.0152  11.0158  11.0580  11.0582  11.0828  11.0829
    11.1331  11.1344  11.2951  11.2952  11.2999  11.3003  11.3300  11.3311
    11.3554  11.3560  11.5102  11.5105  11.6188  11.6203  11.6436  11.6438
    11.6836  11.6839  11.7591  11.7592  11.8907  11.8907  12.0598  12.0602
    12.0613  12.0647  12.0860  12.0861  12.0899  12.0900  12.1804  12.1816
    12.2700  12.2700  12.4187  12.4192  12.5875  12.5875  12.6166  12.6174
    12.7400  12.7414  12.9173  12.9178  12.9246  12.9252  12.9544  12.9545
    13.0301  13.0302  13.7491  13.7496  14.9980  14.9981  16.6210  16.6223
    18.5759  18.5768  18.5938  18.5940  19.1655  19.1655  20.1217  20.1219
    20.6372  20.6382

          k = 0.0000 0.2500 0.0000 ( 13848 PWs)   bands (ev):

   -66.6523 -66.6496 -66.6496 -66.6465 -66.6465 -66.6446 -66.6414 -66.6414
   -35.4247 -35.4214 -35.4214 -35.4181 -35.4181 -35.4161 -35.4127 -35.4127
   -35.3771 -35.3748 -35.3748 -35.3719 -35.3719 -35.3708 -35.3701 -35.3685
   -35.3685 -35.3673 -35.3673 -35.3656 -35.3656 -35.3637 -35.3609 -35.3609
     6.6401   6.7707   6.7709   7.1273   7.1275   7.5946   7.5949   7.9349
     8.1391   8.3575   8.3576   8.5811   8.5812   8.6416   8.7649   8.7651
     8.7846   8.7846   8.8186   8.8500   8.8500   8.9194   8.9196   8.9199
     8.9624   8.9809   8.9811   9.1262   9.1266   9.4164   9.4310   9.4310
     9.5288   9.5290   9.5743   9.6212   9.6215   9.6472   9.6473   9.7471
     9.7473   9.7986   9.7988   9.9488   9.9489   9.9590  10.0801  10.1258
    10.1279  10.1523  10.4836  10.4841  10.4903  10.4904  10.5747  10.5749
    10.5772  10.5774  10.5844  10.5845  10.7322  10.8118  10.8123  10.8486
    10.8557  10.9147  11.0203  11.0245  11.0246  11.0807  11.0816  11.0969
    11.0969  11.1032  11.1035  11.3047  11.3439  11.3440  11.3607  11.3608
    11.4037  11.4238  11.4243  11.4633  11.4636  11.5789  11.5792  11.6492
    11.6494  11.6705  11.6730  11.6730  11.7088  11.7567  11.7767  11.7776
    11.7786  11.7788  11.8177  11.8181  11.8697  11.8698  11.9186  12.0101
    12.0104  12.0438  12.0916  12.0917  12.0945  12.0946  12.1198  12.1261
    12.1687  12.1689  12.2623  12.4871  12.4872  12.5341  12.6039  12.7684
    12.7685  12.7787  12.7788  12.9519  12.9989  13.0028  13.0030  13.0659
    13.0659  13.1492  13.1493  14.4058  14.4059  16.0506  16.0507  16.0706
    16.3746  16.3748  17.1210  17.1211  17.5218  18.0511  18.0514  18.3876
    18.9094  20.1283

          k = 0.0000 0.2500-0.0484 ( 13842 PWs)   bands (ev):

   -66.6523 -66.6496 -66.6496 -66.6465 -66.6465 -66.6446 -66.6414 -66.6414
   -35.4247 -35.4214 -35.4214 -35.4181 -35.4181 -35.4161 -35.4127 -35.4127
   -35.3771 -35.3748 -35.3748 -35.3719 -35.3719 -35.3708 -35.3701 -35.3685
   -35.3685 -35.3673 -35.3673 -35.3656 -35.3656 -35.3637 -35.3609 -35.3609
     6.6729   6.6737   6.9260   6.9260   7.3576   7.3579   7.8106   7.8107
     8.2305   8.2310   8.4731   8.4733   8.6720   8.6732   8.6853   8.6855
     8.8261   8.8269   8.8705   8.8710   8.8761   8.8761   8.9261   8.9262
     8.9571   8.9573   8.9803   8.9807   9.3653   9.3657   9.4179   9.4185
     9.4657   9.4659   9.5942   9.5949   9.6228   9.6231   9.7187   9.7188
     9.8718   9.8732   9.8781   9.8781   9.8884   9.8892  10.0114  10.0126
    10.3082  10.3091  10.3468  10.3469  10.5019  10.5019  10.5119  10.5122
[...]
    12.0242  12.0244  12.0711  12.0711  12.1537  12.1621  12.1623  12.2298
    12.5174  12.5428  12.5429  12.6235  12.6236  12.7312  12.7312  12.8042
    13.0880  13.4033  13.4035  13.9926  13.9933  14.6072  14.6077  15.0230
    15.1320  15.2784  15.2791  15.4214  15.5478  15.5485  15.6055  15.6058
    16.8046  16.8047  16.8181  16.8535  16.8545  16.8722  16.8874  16.8878
    16.9909  17.0973  17.0980  17.1300  17.1607  17.1617  17.1880  17.1901
    17.2064  17.2711  17.2712  17.4133  17.4143  17.4824  17.4834  17.4988
    17.9327  18.0101  18.0104  18.1226  18.1786  18.1796  18.2814  18.2820
    18.4718  18.4720  18.4907  18.4917  18.5065  19.1781  19.1787  19.2445
    20.0590  20.0592

          k = 0.2500 0.3750-0.0484 ( 13916 PWs)   bands (ev):

   -62.1013 -62.1000 -62.1000 -62.0980 -62.0977 -62.0977 -62.0934 -62.0934
   -30.9331 -30.9315 -30.9315 -30.9301 -30.9299 -30.9296 -30.9296 -30.9295
   -30.9295 -30.9273 -30.9272 -30.9267 -30.9267 -30.9257 -30.9257 -30.9256
   -30.9256 -30.9241 -30.9238 -30.9238 -30.9225 -30.9225 -30.9198 -30.9198
     8.2304   8.2312   8.4455   8.4458   8.7723   8.7725   8.9433   8.9441
     9.1412   9.1418   9.1922   9.1930   9.2108   9.2112   9.2174   9.2177
     9.4255   9.4258   9.4876   9.4884   9.6056   9.6057   9.6210   9.6214
     9.6519   9.6521   9.6653   9.6656   9.7829   9.7833   9.7837   9.7843
     9.8456   9.8463   9.9117   9.9121  10.0558  10.0566  10.0736  10.0740
    10.5269  10.5269  10.5390  10.5391  10.5457  10.5464  10.6358  10.6358
    10.6999  10.7005  10.8081  10.8082  10.8178  10.8179  10.8549  10.8552
    11.0386  11.0391  11.1530  11.1537  11.2306  11.2313  11.3048  11.3053
    11.3342  11.3347  11.5683  11.5689  11.8891  11.8899  12.0121  12.0129
    12.0431  12.0432  12.1111  12.1114  12.1169  12.1173  12.2095  12.2101
    12.5233  12.5238  12.5767  12.5769  12.6772  12.6776  12.7787  12.7790
    13.1817  13.1819  13.6859  13.6861  14.3042  14.3047  14.8789  14.8794
    15.1713  15.1721  15.4194  15.4199  15.5077  15.5085  15.6198  15.6199
    16.8080  16.8098  16.8221  16.8223  16.8779  16.8782  16.8813  16.8814
    17.0253  17.0262  17.1421  17.1438  17.1609  17.1619  17.1796  17.1809
    17.2182  17.2191  17.3479  17.3480  17.4576  17.4578  17.4946  17.4958
    17.9485  17.9511  18.1333  18.1341  18.1350  18.1365  18.2719  18.2725
    18.3963  18.3964  18.5016  18.5022  18.8592  18.8596  19.2473  19.2478
    20.0168  20.0169

          k = 0.2500-0.5000 0.0000 ( 13940 PWs)   bands (ev):

   -62.1009 -62.0996 -62.0996 -62.0977 -62.0973 -62.0973 -62.0930 -62.0930
   -30.9353 -30.9337 -30.9337 -30.9321 -30.9318 -30.9318 -30.9299 -30.9293
   -30.9293 -30.9278 -30.9278 -30.9271 -30.9270 -30.9266 -30.9265 -30.9256
   -30.9256 -30.9239 -30.9236 -30.9236 -30.9223 -30.9223 -30.9196 -30.9196
     8.6665   8.6671   8.7390   8.7399   8.7400   8.7401   8.8410   8.8415
     9.0886   9.0888   9.1032   9.1038   9.1038   9.1040   9.1116   9.1117
     9.4161   9.4164   9.5478   9.5484   9.5484   9.5485   9.5825   9.5826
     9.6587   9.6588   9.6590   9.6591   9.6645   9.6648   9.7765   9.7766
     9.9013   9.9015   9.9959   9.9961   9.9962   9.9964  10.0497  10.0498
    10.7553  10.7557  10.8149  10.8154  10.8155  10.8156  10.8996  10.8996
    10.9043  10.9048  10.9251  10.9255  10.9339  10.9342  10.9343  10.9343
    11.1707  11.1708  11.1709  11.1714  11.1763  11.1765  11.1774  11.1775
    11.8448  11.8453  11.8453  11.8454  11.8476  11.8477  11.8486  11.8487
    12.1830  12.1833  12.3016  12.3017  12.3017  12.3020  12.4593  12.4594
    12.7146  12.7148  12.8661  12.8663  12.8664  12.8667  12.9908  12.9908
    13.5392  13.5393  13.7231  13.7233  13.7234  13.7236  14.0128  14.0129
    14.4068  14.4078  14.7891  14.7903  14.7907  14.7909  15.0558  15.0572
    16.8985  16.8992  16.9346  16.9349  16.9349  16.9355  16.9706  16.9706
    17.0167  17.0188  17.0773  17.0790  17.0799  17.0800  17.1299  17.1317
    17.4139  17.4150  17.4454  17.4464  17.4467  17.4469  17.4773  17.4780
    18.1517  18.1529  18.1640  18.1654  18.1658  18.1659  18.1850  18.1850
    18.2922  18.2932  18.4567  18.4570  18.4570  18.4570  18.7451  18.7457
    19.9976  19.9978

          k = 0.2500-0.5000-0.0484 ( 13912 PWs)   bands (ev):

   -62.1009 -62.0996 -62.0996 -62.0977 -62.0973 -62.0973 -62.0930 -62.0930
   -30.9353 -30.9337 -30.9337 -30.9321 -30.9318 -30.9318 -30.9299 -30.9293
   -30.9293 -30.9278 -30.9278 -30.9271 -30.9270 -30.9265 -30.9265 -30.9256
   -30.9256 -30.9239 -30.9236 -30.9236 -30.9223 -30.9223 -30.9196 -30.9196
     8.6859   8.6861   8.6863   8.6872   8.8062   8.8064   8.8064   8.8073
     9.0928   9.0930   9.0933   9.0938   9.1110   9.1112   9.1114   9.1119
     9.4563   9.4569   9.4574   9.4575   9.6031   9.6032   9.6037   9.6040
     9.6310   9.6317   9.6322   9.6322   9.7306   9.7307   9.7312   9.7312
     9.9396   9.9398   9.9402   9.9406  10.0351  10.0356  10.0358  10.0363
    10.7727  10.7728  10.7730  10.7737  10.8625  10.8628  10.8629  10.8630
    10.9265  10.9267  10.9268  10.9270  10.9288  10.9292  10.9296  10.9296
    11.1724  11.1732  11.1734  11.1737  11.1744  11.1745  11.1748  11.1752
    11.8455  11.8464  11.8465  11.8466  11.8468  11.8468  11.8472  11.8472
    12.2160  12.2168  12.2173  12.2175  12.4024  12.4028  12.4030  12.4032
    12.7682  12.7688  12.7689  12.7692  12.9528  12.9532  12.9533  12.9537
    13.5910  13.5913  13.5915  13.5917  13.8962  13.8963  13.8964  13.8965
    14.5508  14.5516  14.5520  14.5524  14.9819  14.9819  14.9831  14.9832
    16.9094  16.9103  16.9105  16.9109  16.9572  16.9576  16.9593  16.9594
    17.0362  17.0385  17.0392  17.0393  17.1146  17.1157  17.1166  17.1174
    17.4226  17.4238  17.4240  17.4249  17.4681  17.4683  17.4687  17.4693
    18.1547  18.1552  18.1556  18.1577  18.1767  18.1775  18.1779  18.1781
    18.3351  18.3351  18.3352  18.3359  18.6346  18.6355  18.6356  18.6356
    20.2273  20.2276

          k = 0.3750 0.3750 0.0000 ( 13948 PWs)   bands (ev):

   -62.1011 -62.0998 -62.0998 -62.0979 -62.0975 -62.0975 -62.0932 -62.0932
   -30.9327 -30.9324 -30.9311 -30.9311 -30.9309 -30.9309 -30.9297 -30.9295
   -30.9293 -30.9292 -30.9292 -30.9291 -30.9291 -30.9289 -30.9289 -30.9268
   -30.9264 -30.9264 -30.9252 -30.9252 -30.9249 -30.9249 -30.9222 -30.9222
     8.3745   8.4816   8.4821   8.7520   8.7526   8.7526   8.8211   8.8215
     9.1933   9.1936   9.2812   9.2814   9.2828   9.3142   9.3145   9.3567
     9.4017   9.4020   9.4575   9.4577   9.4895   9.4898   9.5265   9.5363
     9.5364   9.6234   9.6236   9.6331   9.7089   9.7548   9.7550   9.9422
    10.0067  10.0959  10.1255  10.1257  10.3943  10.3944  10.4147  10.4149
    10.5392  10.5818  10.5821  10.5839  10.6556  10.6560  10.7299  10.7300
    10.8217  10.8222  10.9708  10.9708  10.9941  10.9943  11.0806  11.1057
    11.4157  11.4534  11.4535  11.5080  11.5083  11.5453  11.5455  11.5588
    11.7041  11.7654  11.7657  11.8861  11.8865  11.9483  11.9787  11.9788
    12.0288  12.0291  12.0661  12.0662  12.1035  12.1824  12.1826  12.2429
    12.4995  12.5896  12.5896  12.7945  12.7946  12.9892  12.9894  13.0754
    13.5925  13.7899  13.7900  14.2063  14.2073  14.6121  14.6129  14.7949
    15.0819  15.1544  15.1551  15.3030  15.3035  15.4257  15.4262  15.4717
    16.8215  16.9164  16.9165  16.9646  17.0273  17.0283  17.0447  17.0821
    17.0829  17.0843  17.0862  17.1086  17.1937  17.1944  17.2549  17.2552
    17.4884  17.4890  17.5578  17.5585  17.6422  17.7287  17.7298  17.7679
    18.1079  18.1819  18.2005  18.2568  18.2578  18.3763  18.3765  18.4591
    18.4593  18.5408  18.5415  18.8619  18.8629  19.1466  19.1474  19.2233
    19.2647  19.2649

          k = 0.3750 0.3750-0.0484 ( 13950 PWs)   bands (ev):

   -62.1011 -62.0998 -62.0998 -62.0979 -62.0975 -62.0975 -62.0932 -62.0932
   -30.9327 -30.9324 -30.9311 -30.9311 -30.9309 -30.9309 -30.9297 -30.9295
   -30.9293 -30.9292 -30.9292 -30.9291 -30.9291 -30.9289 -30.9289 -30.9268
   -30.9264 -30.9264 -30.9252 -30.9252 -30.9249 -30.9249 -30.9222 -30.9222
     8.4016   8.4024   8.6057   8.6061   8.7715   8.7723   8.8484   8.8488
     9.1590   9.1593   9.2912   9.2920   9.3004   9.3007   9.3677   9.3683
     9.4122   9.4126   9.4409   9.4416   9.4580   9.4583   9.5358   9.5365
     9.5917   9.5925   9.6354   9.6361   9.6927   9.6928   9.8904   9.8909
     9.9974   9.9979  10.2239  10.2241  10.2731  10.2731  10.5262  10.5265
    10.5663  10.5664  10.5744  10.5750  10.5883  10.5888  10.7443  10.7443
    10.8756  10.8757  10.8920  10.8925  11.0470  11.0474  11.0752  11.0758
    11.4272  11.4274  11.4819  11.4825  11.5292  11.5297  11.5550  11.5557
    11.7219  11.7226  11.8207  11.8215  11.9555  11.9563  11.9580  11.9590
    12.0160  12.0161  12.0827  12.0831  12.1246  12.1246  12.2260  12.2267
    12.5230  12.5234  12.6857  12.6858  12.8998  12.9001  13.0516  13.0521
    13.6466  13.6467  13.9870  13.9871  14.4233  14.4236  14.7457  14.7462
    15.1012  15.1020  15.2267  15.2273  15.3721  15.3722  15.4594  15.4606
    16.8444  16.8462  16.9832  16.9844  17.0246  17.0252  17.0564  17.0576
    17.0685  17.0693  17.1079  17.1080  17.1459  17.1482  17.3446  17.3447
    17.4069  17.4074  17.5984  17.5986  17.6670  17.6673  17.7583  17.7599
    18.1805  18.1809  18.2122  18.2142  18.2516  18.2534  18.3538  18.3545
    18.6300  18.6303  18.8028  18.8032  18.8478  18.8478  19.0430  19.0435
    19.2048  19.2049

          k = 0.3750-0.5000 0.0000 ( 13934 PWs)   bands (ev):

   -62.1009 -62.0996 -62.0996 -62.0977 -62.0973 -62.0973 -62.0930 -62.0930
   -30.9348 -30.9332 -30.9332 -30.9323 -30.9316 -30.9312 -30.9312 -30.9308
   -30.9308 -30.9296 -30.9292 -30.9290 -30.9290 -30.9288 -30.9288 -30.9273
   -30.9273 -30.9267 -30.9263 -30.9263 -30.9248 -30.9248 -30.9221 -30.9221
     8.5358   8.5364   8.6313   8.6321   8.6321   8.6324   8.8126   8.8132
     9.0438   9.0443   9.2693   9.2695   9.2696   9.2698   9.2781   9.2781
     9.3673   9.3675   9.3676   9.3677   9.4278   9.4279   9.5013   9.5019
     9.5404   9.5405   9.7121   9.7122   9.7123   9.7123   9.9961   9.9961
    10.0013  10.0014  10.3375  10.3375  10.3377  10.3377  10.5303  10.5303
    10.5675  10.5680  10.6636  10.6642  10.6643  10.6643  10.8544  10.8547
    10.9569  10.9569  11.2243  11.2244  11.2244  11.2246  11.3891  11.3893
    11.6109  11.6113  11.6828  11.6832  11.6835  11.6835  11.7442  11.7447
    11.9073  11.9077  11.9552  11.9555  11.9556  11.9557  11.9855  11.9859
    12.1633  12.1636  12.2294  12.2294  12.2295  12.2298  12.3259  12.3260
    12.8975  12.8976  13.0220  13.0227  13.0227  13.0229  13.1301  13.1305
    14.1394  14.1398  14.2464  14.2465  14.2469  14.2469  14.4375  14.4383
    14.5377  14.5377  14.7374  14.7383  14.7384  14.7389  14.8476  14.8486
    16.9711  16.9731  17.0005  17.0023  17.0032  17.0033  17.0034  17.0035
    17.0404  17.0426  17.1299  17.1300  17.1303  17.1304  17.3918  17.3921
    17.6215  17.6220  17.8818  17.8824  17.8828  17.8828  17.9863  17.9872
    18.0974  18.0975  18.2161  18.2173  18.2311  18.2322  18.2325  18.2326
    18.7103  18.7108  18.7535  18.7536  18.7538  18.7539  19.1611  19.1618
    19.4495  19.4501

          k = 0.3750-0.5000-0.0484 ( 13940 PWs)   bands (ev):

   -62.1009 -62.0996 -62.0996 -62.0977 -62.0973 -62.0973 -62.0930 -62.0930
   -30.9348 -30.9332 -30.9332 -30.9323 -30.9316 -30.9312 -30.9312 -30.9308
   -30.9308 -30.9296 -30.9292 -30.9290 -30.9290 -30.9288 -30.9288 -30.9273
   -30.9273 -30.9267 -30.9263 -30.9263 -30.9248 -30.9248 -30.9221 -30.9221
     8.5602   8.5606   8.5608   8.5616   8.7365   8.7367   8.7368   8.7377
     9.1368   9.1376   9.1377   9.1379   9.2846   9.2848   9.2853   9.2855
     9.3912   9.3915   9.3916   9.3920   9.4514   9.4522   9.4525   9.4527
     9.5999   9.6001   9.6005   9.6009   9.8459   9.8460   9.8462   9.8463
    10.1670  10.1671  10.1673  10.1673  10.4761  10.4761  10.4765  10.4766
    10.5952  10.5953  10.5953  10.5962  10.7585  10.7589  10.7589  10.7592
    11.0759  11.0760  11.0765  11.0766  11.3395  11.3401  11.3402  11.3404
    11.6357  11.6366  11.6369  11.6369  11.7244  11.7255  11.7256  11.7257
    11.9240  11.9246  11.9249  11.9249  11.9771  11.9781  11.9782  11.9785
    12.1795  12.1803  12.1809  12.1812  12.2926  12.2932  12.2936  12.2938
    12.9370  12.9372  12.9375  12.9380  13.0993  13.0993  13.0995  13.1001
    14.1687  14.1689  14.1689  14.1691  14.3518  14.3523  14.3525  14.3526
    14.6260  14.6265  14.6266  14.6272  14.8181  14.8184  14.8192  14.8193
    16.9784  16.9805  16.9812  16.9816  17.0231  17.0253  17.0255  17.0259
    17.0380  17.0391  17.0404  17.0406  17.2747  17.2753  17.2754  17.2759
    17.7420  17.7425  17.7426  17.7427  17.9578  17.9579  17.9583  17.9596
    18.1565  18.1569  18.1570  18.1571  18.2271  18.2275  18.2281  18.2300
    18.6982  18.6985  18.6988  18.6991  18.9775  18.9778  18.9778  18.9781
    19.5346  19.5349

          k =-0.5000-0.5000 0.0000 ( 13964 PWs)   bands (ev):

   -62.1007 -62.0994 -62.0994 -62.0975 -62.0972 -62.0972 -62.0929 -62.0929
   -30.9345 -30.9345 -30.9330 -30.9330 -30.9330 -30.9330 -30.9313 -30.9313
   -30.9310 -30.9310 -30.9310 -30.9310 -30.9295 -30.9289 -30.9289 -30.9270
   -30.9270 -30.9270 -30.9270 -30.9266 -30.9262 -30.9262 -30.9219 -30.9219
     8.4836   8.4842   8.5827   8.5834   8.5835   8.5838   8.7862   8.7869
     8.9644   8.9649   9.2396   9.2401   9.2403   9.2405   9.2639   9.2639
     9.3132   9.3132   9.3135   9.3135   9.4252   9.4258   9.4622   9.4622
     9.4624   9.4624   9.7109   9.7109   9.7111   9.7111  10.0228  10.0228
    10.0989  10.0989  10.4987  10.4987  10.4987  10.4987  10.5315  10.5320
    10.6181  10.6188  10.6189  10.6189  10.6921  10.6925  10.9900  10.9900
    10.9901  10.9901  11.4492  11.4492  11.4495  11.4495  11.6631  11.6631
    11.9640  11.9641  11.9654  11.9655  11.9658  11.9658  11.9662  11.9662
    12.0562  12.0563  12.0575  12.0577  12.0580  12.0580  12.0584  12.0584
    12.1809  12.1812  12.1980  12.1981  12.1981  12.1985  12.2149  12.2151
    13.3565  13.3573  13.3718  13.3731  13.3732  13.3733  13.3883  13.3891
    13.9668  13.9668  14.1519  14.1519  14.1528  14.1528  14.4987  14.4987
    14.4992  14.4992  14.7584  14.7584  14.7591  14.7591  14.8493  14.8493
    16.7103  16.7119  16.8258  16.8274  16.8281  16.8283  17.0103  17.0124
    17.0308  17.0308  17.2046  17.2046  17.2050  17.2050  17.7343  17.7343
    17.7343  17.7343  17.7432  17.7432  18.1371  18.1373  18.1374  18.1377
    18.1561  18.1575  18.1575  18.1584  18.1596  18.1596  18.1622  18.1622
    18.5868  18.5868  18.5870  18.5870  18.6381  18.6394  18.7553  18.7566
    18.9720  18.9733

          k =-0.5000-0.5000-0.0484 ( 13992 PWs)   bands (ev):

   -62.1007 -62.0994 -62.0994 -62.0975 -62.0972 -62.0972 -62.0929 -62.0929
   -30.9345 -30.9345 -30.9330 -30.9330 -30.9330 -30.9330 -30.9313 -30.9313
   -30.9310 -30.9310 -30.9310 -30.9310 -30.9295 -30.9289 -30.9289 -30.9270
   -30.9270 -30.9270 -30.9270 -30.9266 -30.9262 -30.9262 -30.9219 -30.9219
     8.5088   8.5092   8.5094   8.5102   8.6954   8.6955   8.6957   8.6964
     9.0748   9.0757   9.0757   9.0760   9.2759   9.2759   9.2766   9.2766
     9.3722   9.3730   9.3733   9.3736   9.3752   9.3752   9.3755   9.3755
     9.5739   9.5739   9.5746   9.5746   9.8711   9.8711   9.8715   9.8715
    10.2727  10.2727  10.2729  10.2729  10.5587  10.5588  10.5588  10.5598
    10.6714  10.6716  10.6717  10.6725  10.7405  10.7405  10.7409  10.7409
    11.2331  11.2331  11.2338  11.2338  11.6049  11.6049  11.6052  11.6052
    11.9640  11.9641  11.9654  11.9655  11.9658  11.9658  11.9662  11.9662
    12.0562  12.0563  12.0575  12.0577  12.0580  12.0580  12.0584  12.0584
    12.1851  12.1859  12.1866  12.1869  12.2091  12.2098  12.2105  12.2108
    13.3610  13.3614  13.3616  13.3624  13.3835  13.3839  13.3841  13.3849
    14.0179  14.0179  14.0188  14.0188  14.3251  14.3251  14.3259  14.3259
    14.6477  14.6477  14.6478  14.6478  14.8261  14.8261  14.8270  14.8270
    16.7396  16.7418  16.7422  16.7423  16.9422  16.9443  16.9449  16.9453
    17.0729  17.0729  17.0752  17.0752  17.4247  17.4247  17.4254  17.4254
    17.8659  17.8663  17.8668  17.8668  18.1263  18.1263  18.1270  18.1270
    18.1561  18.1575  18.1575  18.1584  18.1596  18.1596  18.1622  18.1622
    18.4340  18.4347  18.4348  18.4352  18.8778  18.8781  18.8781  18.8794
    19.0185  19.0193

     the Fermi energy is    15.1893 ev

!    total energy              =  -14694.01159123 Ry
     Harris-Foulkes estimate   =  -14694.01159175 Ry
     estimated scf accuracy    <       0.00000088 Ry

     total all-electron energy =   -626921.607313 Ry

     The total energy is the sum of the following terms:

     one-electron contribution =    -714.88426348 Ry
     hartree contribution      =     656.84372273 Ry
     xc contribution           =    -737.83834838 Ry
     ewald contribution        =   -2196.78933708 Ry
     Hubbard energy            =       0.46796181 Ry
     one-center paw contrib.   =  -11701.81132683 Ry

     total magnetization       =    34.17 Bohr mag/cell
     absolute magnetization    =    36.85 Bohr mag/cell

     convergence has been achieved in  70 iterations

     Writing output data file mnau2.save/
 
     init_run     :     53.15s CPU     54.41s WALL (       1 calls)
     electrons    :   6518.52s CPU   6634.43s WALL (       1 calls)

     Called by init_run:
     wfcinit      :     50.04s CPU     51.06s WALL (       1 calls)
     potinit      :      1.52s CPU      1.57s WALL (       1 calls)
     hinit0       :      0.85s CPU      0.97s WALL (       1 calls)

     Called by electrons:
     c_bands      :   5597.34s CPU   5689.50s WALL (      70 calls)
     sum_band     :    818.61s CPU    841.02s WALL (      70 calls)
     v_of_rho     :      7.91s CPU      7.97s WALL (      71 calls)
     newd         :     20.49s CPU     20.99s WALL (      71 calls)
     PAW_pot      :     72.19s CPU     72.66s WALL (      71 calls)
     mix_rho      :      2.11s CPU      2.19s WALL (      70 calls)

     Called by c_bands:
     init_us_2    :     35.81s CPU     35.97s WALL (    8520 calls)
     cegterg      :   5382.33s CPU   5473.03s WALL (    4200 calls)

     Called by sum_band:
     sum_band:bec :     10.11s CPU     10.20s WALL (    4200 calls)
     addusdens    :     44.38s CPU     44.69s WALL (      70 calls)

     Called by *egterg:
     h_psi        :   2745.54s CPU   2808.83s WALL (    9869 calls)
     s_psi        :    437.23s CPU    437.64s WALL (    9929 calls)
     g_psi        :      4.97s CPU      5.03s WALL (    5609 calls)
     cdiaghg      :   1190.62s CPU   1214.35s WALL (    9809 calls)

     Called by h_psi:
     h_psi:pot    :   2573.68s CPU   2636.11s WALL (    9869 calls)
     h_psi:calbec :    512.14s CPU    536.70s WALL (    9869 calls)
     vloc_psi     :   1620.50s CPU   1657.85s WALL (    9869 calls)
     add_vuspsi   :    440.78s CPU    441.36s WALL (    9869 calls)
     vhpsi        :    161.05s CPU    161.84s WALL (    9869 calls)

     General routines
     calbec       :    880.51s CPU    918.02s WALL (   28198 calls)
     fft          :      4.75s CPU      4.93s WALL (    1771 calls)
     ffts         :      0.30s CPU      0.33s WALL (     282 calls)
     fftw         :   1946.33s CPU   1991.34s WALL ( 3803936 calls)
     interpolate  :      0.56s CPU      0.60s WALL (     142 calls)
     davcio       :      0.00s CPU      0.02s WALL (      60 calls)
 
     Parallel routines
     fft_scatt_xy :     87.58s CPU     89.27s WALL ( 3805989 calls)
     fft_scatt_yz :   1440.31s CPU   1475.42s WALL ( 3805989 calls)

     Hubbard U routines
     new_ns       :     41.31s CPU     41.94s WALL (      70 calls)
     vhpsi        :    161.05s CPU    161.84s WALL (    9869 calls)
 
     PWSCF        :     1h49m CPU       49h 1m WALL

      52h
 
   This run was terminated on:  17: 7:14   7Apr2019            

=------------------------------------------------------------------------------=
   JOB DONE.
=------------------------------------------------------------------------------=
