
     Program PWSCF v.6.3MaX starts on  6Apr2019 at 21: 2:29 

     This program is part of the open-source Quantum ESPRESSO suite
     for quantum simulation of materials; please cite
         "P. Giannozzi et al., J. Phys.:Condens. Matter 21 395502 (2009);
         "P. Giannozzi et al., J. Phys.:Condens. Matter 29 465901 (2017);
          URL http://www.quantum-espresso.org", 
     in publications or presentations arising from this work. More details at
     http://www.quantum-espresso.org/quote

     Parallel version (MPI), running on    16 processors

     MPI processes distributed on     7 nodes
     R & G space division:  proc/nbgrp/npool/nimage =      16
     Waiting for input...
     Reading input from standard input

     Current dimensions of program PWSCF are:
     Max number of different atomic species (ntypx) = 10
     Max number of k-points (npk) =  40000
     Max angular momentum in pseudopotentials (lmaxx) =  3
               file Mn.pbe-spn-kjpaw_psl.0.3.1.UPF: wavefunction(s)  3P 3D renormalized
               file Mn.pbe-spn-kjpaw_psl.0.3.1.UPF: wavefunction(s)  3P 3D renormalized
               file Au.pbe-dn-kjpaw_psl.0.1.UPF: wavefunction(s)  6S 6P 5D renormalized

     Subspace diagonalization in iterative solution of the eigenvalue problem:
     one sub-group per band group will be used
     scalapack distributed-memory algorithm (size of sub-group:  2*  2 procs)

 
     Parallelization info
     --------------------
     sticks:   dense  smooth     PW     G-vecs:    dense   smooth      PW
     Min          82      37     11                23002     6955    1163
     Max          83      38     12                23036     6988    1204
     Sum        1313     593    177               368373   111379   18691
 


     bravais-lattice index     =            0
     lattice parameter (alat)  =       6.4153  a.u.
     unit-cell volume          =    2724.7774 (a.u.)^3
     number of atoms/cell      =           24
     number of atomic types    =            3
     number of electrons       =       296.00
     number of Kohn-Sham states=          178
     kinetic-energy cutoff     =      45.0000  Ry
     charge density cutoff     =     400.0000  Ry
     convergence threshold     =      1.0E-06
     mixing beta               =       0.1000
     number of iterations used =            8  plain     mixing
     Exchange-correlation      = SLA PW PBX PBC ( 1  4  3  4 0 0)

     celldm(1)=   6.415315  celldm(2)=   0.000000  celldm(3)=   0.000000
     celldm(4)=   0.000000  celldm(5)=   0.000000  celldm(6)=   0.000000

     crystal axes: (cart. coord. in units of alat)
               a(1) = (   1.000000   0.000000   0.000000 )  
               a(2) = (   0.000000   1.000000   0.000000 )  
               a(3) = (   0.000000   0.000000  10.319937 )  

     reciprocal axes: (cart. coord. in units 2 pi/alat)
               b(1) = (  1.000000  0.000000  0.000000 )  
               b(2) = (  0.000000  1.000000  0.000000 )  
               b(3) = (  0.000000  0.000000  0.096900 )  


     PseudoPot. # 1 for Mn read from file:
     ./pseudo/Mn.pbe-spn-kjpaw_psl.0.3.1.UPF
     MD5 check sum: 7b43a3fb0e93e198b8dd8488d8cf503e
     Pseudo is Projector augmented-wave + core cor, Zval = 15.0
     Generated using "atomic" code by A. Dal Corso v.5.0.99 svn rev. 10869
     Shape of augmentation charge: PSQ
     Using radial grid of 1187 points,  6 beta functions with: 
                l(1) =   0
                l(2) =   0
                l(3) =   1
                l(4) =   1
                l(5) =   2
                l(6) =   2
     Q(r) pseudized with 0 coefficients 


     PseudoPot. # 2 for Mn read from file:
     ./pseudo/Mn.pbe-spn-kjpaw_psl.0.3.1.UPF
     MD5 check sum: 7b43a3fb0e93e198b8dd8488d8cf503e
     Pseudo is Projector augmented-wave + core cor, Zval = 15.0
     Generated using "atomic" code by A. Dal Corso v.5.0.99 svn rev. 10869
     Shape of augmentation charge: PSQ
     Using radial grid of 1187 points,  6 beta functions with: 
                l(1) =   0
                l(2) =   0
                l(3) =   1
                l(4) =   1
                l(5) =   2
                l(6) =   2
     Q(r) pseudized with 0 coefficients 


     PseudoPot. # 3 for Au read from file:
     ./pseudo/Au.pbe-dn-kjpaw_psl.0.1.UPF
     MD5 check sum: be11e2e8e535ebe2b3ccfb4f88f554cb
     Pseudo is Projector augmented-wave + core cor, Zval = 11.0
     Generated using "atomic" code by A. Dal Corso v.5.0.2 svn rev. 9415
     Shape of augmentation charge: PSQ
     Using radial grid of 1279 points,  6 beta functions with: 
                l(1) =   0
                l(2) =   0
                l(3) =   1
                l(4) =   1
                l(5) =   2
                l(6) =   2
     Q(r) pseudized with 0 coefficients 


     atomic species   valence    mass     pseudopotential
        Mn1           15.00    54.93800     Mn( 1.00)
        Mn2           15.00    54.93800     Mn( 1.00)
        Au            11.00   196.96600     Au( 1.00)

     Starting magnetic structure 
     atomic species   magnetization
        Mn1          0.800
        Mn2         -0.800
        Au           0.000


     Full LDA+U calculation (l_max = 2) with parameters (eV):
     U(  1) =   3.1200   J(  1) =   0.7000   B(  1) =   0.0803
     U(  2) =   3.1200   J(  2) =   0.7000   B(  2) =   0.0803



     16 Sym. Ops., with inversion, found ( 8 have fractional translation)



   Cartesian axes

     site n.     atom                  positions (alat units)
         1           Mn1 tau(   1) = (   0.0000000   0.0000000   0.0000000  )
         2           Mn1 tau(   2) = (   0.5000000   0.5000000   1.2899921  )
         3           Mn1 tau(   3) = (   0.0000000   0.0000000   2.5799843  )
         4           Mn1 tau(   4) = (   0.5000000   0.5000000   3.8699764  )
         5           Mn1 tau(   5) = (   0.0000000   0.0000000   5.1599686  )
         6           Mn1 tau(   6) = (   0.5000000   0.5000000   6.4499607  )
         7           Mn1 tau(   7) = (   0.0000000   0.0000000   7.7399528  )
         8           Mn2 tau(   8) = (   0.5000000   0.5000000   9.0299450  )
         9           Au  tau(   9) = (   0.5000000   0.5000000   0.4127975  )
        10           Au  tau(  10) = (   0.0000000   0.0000000   0.8771947  )
        11           Au  tau(  11) = (   0.0000000   0.0000000   1.7027896  )
        12           Au  tau(  12) = (   0.5000000   0.5000000   2.1671868  )
        13           Au  tau(  13) = (   0.5000000   0.5000000   2.9927818  )
        14           Au  tau(  14) = (   0.0000000   0.0000000   3.4571789  )
        15           Au  tau(  15) = (   0.0000000   0.0000000   4.2827739  )
        16           Au  tau(  16) = (   0.5000000   0.5000000   4.7471711  )
        17           Au  tau(  17) = (   0.5000000   0.5000000   5.5727660  )
        18           Au  tau(  18) = (   0.0000000   0.0000000   6.0371632  )
        19           Au  tau(  19) = (   0.0000000   0.0000000   6.8627582  )
        20           Au  tau(  20) = (   0.5000000   0.5000000   7.3271553  )
        21           Au  tau(  21) = (   0.5000000   0.5000000   8.1527503  )
        22           Au  tau(  22) = (   0.0000000   0.0000000   8.6171475  )
        23           Au  tau(  23) = (   0.0000000   0.0000000   9.4427424  )
        24           Au  tau(  24) = (   0.5000000   0.5000000   9.9071396  )

     number of k points=    30 (tetrahedron method)
                       cart. coord. in units 2pi/alat
        k(    1) = (   0.0000000   0.0000000   0.0000000), wk =   0.0078125
        k(    2) = (   0.0000000   0.0000000  -0.0484499), wk =   0.0078125
        k(    3) = (   0.0000000   0.1250000   0.0000000), wk =   0.0312500
        k(    4) = (   0.0000000   0.1250000  -0.0484499), wk =   0.0312500
        k(    5) = (   0.0000000   0.2500000   0.0000000), wk =   0.0312500
        k(    6) = (   0.0000000   0.2500000  -0.0484499), wk =   0.0312500
        k(    7) = (   0.0000000   0.3750000   0.0000000), wk =   0.0312500
        k(    8) = (   0.0000000   0.3750000  -0.0484499), wk =   0.0312500
        k(    9) = (   0.0000000  -0.5000000   0.0000000), wk =   0.0156250
        k(   10) = (   0.0000000  -0.5000000  -0.0484499), wk =   0.0156250
        k(   11) = (   0.1250000   0.1250000   0.0000000), wk =   0.0312500
        k(   12) = (   0.1250000   0.1250000  -0.0484499), wk =   0.0312500
        k(   13) = (   0.1250000   0.2500000   0.0000000), wk =   0.0625000
        k(   14) = (   0.1250000   0.2500000  -0.0484499), wk =   0.0625000
        k(   15) = (   0.1250000   0.3750000   0.0000000), wk =   0.0625000
        k(   16) = (   0.1250000   0.3750000  -0.0484499), wk =   0.0625000
        k(   17) = (   0.1250000  -0.5000000   0.0000000), wk =   0.0312500
        k(   18) = (   0.1250000  -0.5000000  -0.0484499), wk =   0.0312500
        k(   19) = (   0.2500000   0.2500000   0.0000000), wk =   0.0312500
        k(   20) = (   0.2500000   0.2500000  -0.0484499), wk =   0.0312500
        k(   21) = (   0.2500000   0.3750000   0.0000000), wk =   0.0625000
        k(   22) = (   0.2500000   0.3750000  -0.0484499), wk =   0.0625000
        k(   23) = (   0.2500000  -0.5000000   0.0000000), wk =   0.0312500
        k(   24) = (   0.2500000  -0.5000000  -0.0484499), wk =   0.0312500
        k(   25) = (   0.3750000   0.3750000   0.0000000), wk =   0.0312500
        k(   26) = (   0.3750000   0.3750000  -0.0484499), wk =   0.0312500
        k(   27) = (   0.3750000  -0.5000000   0.0000000), wk =   0.0312500
        k(   28) = (   0.3750000  -0.5000000  -0.0484499), wk =   0.0312500
        k(   29) = (  -0.5000000  -0.5000000   0.0000000), wk =   0.0078125
        k(   30) = (  -0.5000000  -0.5000000  -0.0484499), wk =   0.0078125

     Dense  grid:   368373 G-vectors     FFT dimensions: (  45,  45, 432)

     Smooth grid:   111379 G-vectors     FFT dimensions: (  27,  27, 288)

     Estimated max dynamical RAM per process >     281.85 MB

     Estimated total dynamical RAM >       4.40 GB
     Generating pointlists ...
     new r_m :   0.3377 (alat units)  2.1668 (a.u.) for type    1
     new r_m :   0.3377 (alat units)  2.1668 (a.u.) for type    2
     new r_m :   0.3377 (alat units)  2.1668 (a.u.) for type    3

     Check: negative/imaginary core charge=   -0.000006    0.000000

     Initial potential from superposition of free atoms

     starting charge  295.99426, renormalised to  296.00000
     Number of +U iterations with fixed ns =  0
     Starting occupations:
 --- enter write_ns ---
 LDA+U parameters:
U(  1) =   3.1200   J(  1) =   0.7000   B(  1) =   0.0803
U(  2) =   3.1200   J(  2) =   0.7000   B(  2) =   0.0803
atom    1   Tr[ns(na)] (up, down, total) =   5.00000  0.00000  5.00000
   spin  1
    eigenvalues: 
  1.000  1.000  1.000  1.000  1.000
    eigenvectors:
  1.000  0.000  0.000  0.000  0.000
  0.000  1.000  0.000  0.000  0.000
  0.000  0.000  1.000  0.000  0.000
  0.000  0.000  0.000  1.000  0.000
  0.000  0.000  0.000  0.000  1.000
    occupations:
  1.000  0.000  0.000  0.000  0.000
  0.000  1.000  0.000  0.000  0.000
  0.000  0.000  1.000  0.000  0.000
  0.000  0.000  0.000  1.000  0.000
  0.000  0.000  0.000  0.000  1.000
   spin  2
    eigenvalues: 
  0.000  0.000  0.000  0.000  0.000
    eigenvectors:
  1.000  0.000  0.000  0.000  0.000
  0.000  1.000  0.000  0.000  0.000
  0.000  0.000  1.000  0.000  0.000
  0.000  0.000  0.000  1.000  0.000
  0.000  0.000  0.000  0.000  1.000
    occupations:
  0.000  0.000  0.000  0.000  0.000
  0.000  0.000  0.000  0.000  0.000
  0.000  0.000  0.000  0.000  0.000
  0.000  0.000  0.000  0.000  0.000
  0.000  0.000  0.000  0.000  0.000
atomic mag. moment =     5.000000
atom    2   Tr[ns(na)] (up, down, total) =   5.00000  0.00000  5.00000
   spin  1
    eigenvalues: 
  1.000  1.000  1.000  1.000  1.000
    eigenvectors:
  1.000  0.000  0.000  0.000  0.000
  0.000  1.000  0.000  0.000  0.000
  0.000  0.000  1.000  0.000  0.000
  0.000  0.000  0.000  1.000  0.000
  0.000  0.000  0.000  0.000  1.000
    occupations:
  1.000  0.000  0.000  0.000  0.000
  0.000  1.000  0.000  0.000  0.000
  0.000  0.000  1.000  0.000  0.000
  0.000  0.000  0.000  1.000  0.000
  0.000  0.000  0.000  0.000  1.000
   spin  2
    eigenvalues: 
  0.000  0.000  0.000  0.000  0.000
    eigenvectors:
  1.000  0.000  0.000  0.000  0.000
  0.000  1.000  0.000  0.000  0.000
  0.000  0.000  1.000  0.000  0.000
  0.000  0.000  0.000  1.000  0.000
  0.000  0.000  0.000  0.000  1.000
    occupations:
  0.000  0.000  0.000  0.000  0.000
  0.000  0.000  0.000  0.000  0.000
  0.000  0.000  0.000  0.000  0.000
  0.000  0.000  0.000  0.000  0.000
  0.000  0.000  0.000  0.000  0.000
atomic mag. moment =     5.000000
atom    3   Tr[ns(na)] (up, down, total) =   5.00000  0.00000  5.00000
   spin  1
    eigenvalues: 
  1.000  1.000  1.000  1.000  1.000
    eigenvectors:
  1.000  0.000  0.000  0.000  0.000
  0.000  1.000  0.000  0.000  0.000
  0.000  0.000  1.000  0.000  0.000
  0.000  0.000  0.000  1.000  0.000
  0.000  0.000  0.000  0.000  1.000
    occupations:
  1.000  0.000  0.000  0.000  0.000
  0.000  1.000  0.000  0.000  0.000
  0.000  0.000  1.000  0.000  0.000
  0.000  0.000  0.000  1.000  0.000
  0.000  0.000  0.000  0.000  1.000
   spin  2
    eigenvalues: 
  0.000  0.000  0.000  0.000  0.000
    eigenvectors:
  1.000  0.000  0.000  0.000  0.000
  0.000  1.000  0.000  0.000  0.000
  0.000  0.000  1.000  0.000  0.000
  0.000  0.000  0.000  1.000  0.000
  0.000  0.000  0.000  0.000  1.000
    occupations:
  0.000  0.000  0.000  0.000  0.000
  0.000  0.000  0.000  0.000  0.000
  0.000  0.000  0.000  0.000  0.000
  0.000  0.000  0.000  0.000  0.000
  0.000  0.000  0.000  0.000  0.000
atomic mag. moment =     5.000000
atom    4   Tr[ns(na)] (up, down, total) =   5.00000  0.00000  5.00000
   spin  1
    eigenvalues: 
  1.000  1.000  1.000  1.000  1.000
    eigenvectors:
  1.000  0.000  0.000  0.000  0.000
  0.000  1.000  0.000  0.000  0.000
  0.000  0.000  1.000  0.000  0.000
  0.000  0.000  0.000  1.000  0.000
  0.000  0.000  0.000  0.000  1.000
    occupations:
  1.000  0.000  0.000  0.000  0.000
  0.000  1.000  0.000  0.000  0.000
  0.000  0.000  1.000  0.000  0.000
  0.000  0.000  0.000  1.000  0.000
  0.000  0.000  0.000  0.000  1.000
   spin  2
    eigenvalues: 
  0.000  0.000  0.000  0.000  0.000
    eigenvectors:
  1.000  0.000  0.000  0.000  0.000
  0.000  1.000  0.000  0.000  0.000
  0.000  0.000  1.000  0.000  0.000
  0.000  0.000  0.000  1.000  0.000
  0.000  0.000  0.000  0.000  1.000
    occupations:
  0.000  0.000  0.000  0.000  0.000
  0.000  0.000  0.000  0.000  0.000
  0.000  0.000  0.000  0.000  0.000
  0.000  0.000  0.000  0.000  0.000
  0.000  0.000  0.000  0.000  0.000
atomic mag. moment =     5.000000
atom    5   Tr[ns(na)] (up, down, total) =   5.00000  0.00000  5.00000
   spin  1
    eigenvalues: 
  1.000  1.000  1.000  1.000  1.000
    eigenvectors:
  1.000  0.000  0.000  0.000  0.000
  0.000  1.000  0.000  0.000  0.000
  0.000  0.000  1.000  0.000  0.000
  0.000  0.000  0.000  1.000  0.000
  0.000  0.000  0.000  0.000  1.000
    occupations:
  1.000  0.000  0.000  0.000  0.000
  0.000  1.000  0.000  0.000  0.000
  0.000  0.000  1.000  0.000  0.000
  0.000  0.000  0.000  1.000  0.000
  0.000  0.000  0.000  0.000  1.000
   spin  2
    eigenvalues: 
  0.000  0.000  0.000  0.000  0.000
    eigenvectors:
  1.000  0.000  0.000  0.000  0.000
  0.000  1.000  0.000  0.000  0.000
  0.000  0.000  1.000  0.000  0.000
  0.000  0.000  0.000  1.000  0.000
  0.000  0.000  0.000  0.000  1.000
    occupations:
  0.000  0.000  0.000  0.000  0.000
  0.000  0.000  0.000  0.000  0.000
  0.000  0.000  0.000  0.000  0.000
  0.000  0.000  0.000  0.000  0.000
  0.000  0.000  0.000  0.000  0.000
atomic mag. moment =     5.000000
atom    6   Tr[ns(na)] (up, down, total) =   5.00000  0.00000  5.00000
   spin  1
    eigenvalues: 
  1.000  1.000  1.000  1.000  1.000
    eigenvectors:
  1.000  0.000  0.000  0.000  0.000
  0.000  1.000  0.000  0.000  0.000
  0.000  0.000  1.000  0.000  0.000
  0.000  0.000  0.000  1.000  0.000
  0.000  0.000  0.000  0.000  1.000
    occupations:
  1.000  0.000  0.000  0.000  0.000
  0.000  1.000  0.000  0.000  0.000
  0.000  0.000  1.000  0.000  0.000
  0.000  0.000  0.000  1.000  0.000
  0.000  0.000  0.000  0.000  1.000
   spin  2
    eigenvalues: 
  0.000  0.000  0.000  0.000  0.000
    eigenvectors:
  1.000  0.000  0.000  0.000  0.000
  0.000  1.000  0.000  0.000  0.000
  0.000  0.000  1.000  0.000  0.000
  0.000  0.000  0.000  1.000  0.000
  0.000  0.000  0.000  0.000  1.000
    occupations:
  0.000  0.000  0.000  0.000  0.000
  0.000  0.000  0.000  0.000  0.000
  0.000  0.000  0.000  0.000  0.000
  0.000  0.000  0.000  0.000  0.000
  0.000  0.000  0.000  0.000  0.000
atomic mag. moment =     5.000000
atom    7   Tr[ns(na)] (up, down, total) =   5.00000  0.00000  5.00000
   spin  1
    eigenvalues: 
  1.000  1.000  1.000  1.000  1.000
    eigenvectors:
  1.000  0.000  0.000  0.000  0.000
  0.000  1.000  0.000  0.000  0.000
  0.000  0.000  1.000  0.000  0.000
  0.000  0.000  0.000  1.000  0.000
  0.000  0.000  0.000  0.000  1.000
    occupations:
  1.000  0.000  0.000  0.000  0.000
  0.000  1.000  0.000  0.000  0.000
  0.000  0.000  1.000  0.000  0.000
  0.000  0.000  0.000  1.000  0.000
  0.000  0.000  0.000  0.000  1.000
   spin  2
    eigenvalues: 
  0.000  0.000  0.000  0.000  0.000
    eigenvectors:
  1.000  0.000  0.000  0.000  0.000
  0.000  1.000  0.000  0.000  0.000
  0.000  0.000  1.000  0.000  0.000
  0.000  0.000  0.000  1.000  0.000
  0.000  0.000  0.000  0.000  1.000
    occupations:
  0.000  0.000  0.000  0.000  0.000
  0.000  0.000  0.000  0.000  0.000
  0.000  0.000  0.000  0.000  0.000
  0.000  0.000  0.000  0.000  0.000
  0.000  0.000  0.000  0.000  0.000
atomic mag. moment =     5.000000
atom    8   Tr[ns(na)] (up, down, total) =   0.00000  5.00000  5.00000
   spin  1
    eigenvalues: 
  0.000  0.000  0.000  0.000  0.000
    eigenvectors:
  1.000  0.000  0.000  0.000  0.000
  0.000  1.000  0.000  0.000  0.000
  0.000  0.000  1.000  0.000  0.000
  0.000  0.000  0.000  1.000  0.000
  0.000  0.000  0.000  0.000  1.000
    occupations:
  0.000  0.000  0.000  0.000  0.000
  0.000  0.000  0.000  0.000  0.000
  0.000  0.000  0.000  0.000  0.000
  0.000  0.000  0.000  0.000  0.000
  0.000  0.000  0.000  0.000  0.000
   spin  2
    eigenvalues: 
  1.000  1.000  1.000  1.000  1.000
    eigenvectors:
  1.000  0.000  0.000  0.000  0.000
  0.000  1.000  0.000  0.000  0.000
  0.000  0.000  1.000  0.000  0.000
  0.000  0.000  0.000  1.000  0.000
  0.000  0.000  0.000  0.000  1.000
    occupations:
  1.000  0.000  0.000  0.000  0.000
  0.000  1.000  0.000  0.000  0.000
  0.000  0.000  1.000  0.000  0.000
  0.000  0.000  0.000  1.000  0.000
  0.000  0.000  0.000  0.000  1.000
atomic mag. moment =    -5.000000
N of occupied +U levels =   40.000000
 --- exit write_ns ---
 Atomic wfc used for LDA+U Projector are NOT orthogonalized
     Starting wfcs are  224 randomized atomic wfcs
     Checking if some PAW data can be deallocated... 

     total cpu time spent up to now is       70.9 secs

     Self-consistent Calculation

     iteration #  1     ecut=    45.00 Ry     beta= 0.10
     Davidson diagonalization with overlap
     ethr =  1.00E-02,  avg # of iterations =  3.6
 --- enter write_ns ---
 LDA+U parameters:
U(  1) =   3.1200   J(  1) =   0.7000   B(  1) =   0.0803
U(  2) =   3.1200   J(  2) =   0.7000   B(  2) =   0.0803
atom    1   Tr[ns(na)] (up, down, total) =   5.01736  0.40941  5.42677
   spin  1
    eigenvalues: 
  1.003  1.003  1.003  1.004  1.004
    eigenvectors:
  0.000  0.000  0.000  1.000  0.000
  0.000  0.224  0.776  0.000  0.000
  0.000  0.776  0.224  0.000  0.000
  0.000  0.000  0.000  0.000  1.000
  1.000  0.000  0.000  0.000  0.000
    occupations:
  1.004 -0.000 -0.000  0.000  0.000
 -0.000  1.003 -0.000  0.000  0.000
 -0.000 -0.000  1.003  0.000  0.000
  0.000  0.000  0.000  1.004 -0.000
  0.000  0.000  0.000 -0.000  1.003
   spin  2
    eigenvalues: 
  0.053  0.073  0.081  0.081  0.122
    eigenvectors:
  0.000  1.000  0.000  0.000  0.000
  0.000  0.000  0.328  0.672  0.000
  0.000  0.000  0.672  0.328  0.000
  1.000  0.000  0.000  0.000  0.000
  0.000  0.000  0.000  0.000  1.000
    occupations:
  0.073 -0.000 -0.000  0.000  0.000
 -0.000  0.081 -0.000  0.000  0.000
 -0.000 -0.000  0.081  0.000  0.000
  0.000  0.000  0.000  0.053 -0.000
  0.000  0.000  0.000 -0.000  0.122
atomic mag. moment =     4.607943
atom    2   Tr[ns(na)] (up, down, total) =   5.01758  0.40299  5.42057
   spin  1
    eigenvalues: 
  1.003  1.003  1.003  1.004  1.004
    eigenvectors:
  0.000  0.000  0.000  1.000  0.000
  0.000  0.275  0.725  0.000  0.000
  0.000  0.725  0.275  0.000  0.000
  0.000  0.000  0.000  0.000  1.000
  1.000  0.000  0.000  0.000  0.000
    occupations:
  1.004 -0.000 -0.000  0.000  0.000
 -0.000  1.003 -0.000  0.000  0.000
 -0.000 -0.000  1.003  0.000  0.000
  0.000  0.000  0.000  1.004 -0.000
  0.000  0.000  0.000 -0.000  1.003
   spin  2
    eigenvalues: 
  0.053  0.074  0.081  0.081  0.114
    eigenvectors:
  0.000  1.000  0.000  0.000  0.000
  0.000  0.000  0.347  0.653  0.000
  0.000  0.000  0.653  0.347  0.000
  1.000  0.000  0.000  0.000  0.000
  0.000  0.000  0.000  0.000  1.000
    occupations:
  0.074 -0.000 -0.000  0.000  0.000
 -0.000  0.081 -0.000  0.000  0.000
 -0.000 -0.000  0.081  0.000  0.000
  0.000  0.000  0.000  0.053 -0.000
  0.000  0.000  0.000 -0.000  0.114
atomic mag. moment =     4.614586
atom    3   Tr[ns(na)] (up, down, total) =   5.01752  0.40099  5.41850
   spin  1
    eigenvalues: 
  1.003  1.003  1.003  1.004  1.004
    eigenvectors:
  0.000  0.000  0.000  1.000  0.000
  0.000  0.277  0.723  0.000  0.000
  0.000  0.723  0.277  0.000  0.000
  0.000  0.000  0.000  0.000  1.000
  1.000  0.000  0.000  0.000  0.000
    occupations:
  1.004 -0.000 -0.000  0.000  0.000
 -0.000  1.003 -0.000  0.000  0.000
 -0.000 -0.000  1.003  0.000  0.000
  0.000  0.000  0.000  1.004 -0.000
  0.000  0.000  0.000 -0.000  1.003
   spin  2
    eigenvalues: 
  0.052  0.072  0.080  0.080  0.115
    eigenvectors:
  0.000  1.000  0.000  0.000  0.000
  0.000  0.000  0.358  0.642  0.000
  0.000  0.000  0.642  0.358  0.000
  1.000  0.000  0.000  0.000  0.000
  0.000  0.000  0.000  0.000  1.000
    occupations:
  0.072 -0.000 -0.000  0.000  0.000
 -0.000  0.080 -0.000  0.000  0.000
 -0.000 -0.000  0.080  0.000  0.000
  0.000  0.000  0.000  0.052 -0.000
  0.000  0.000  0.000 -0.000  0.115
atomic mag. moment =     4.616533
atom    4   Tr[ns(na)] (up, down, total) =   5.01738  0.40131  5.41869
   spin  1
    eigenvalues: 
  1.003  1.003  1.003  1.004  1.004
    eigenvectors:
  0.000  0.000  0.000  1.000  0.000
  0.000  0.286  0.714  0.000  0.000
  0.000  0.714  0.286  0.000  0.000
  0.000  0.000  0.000  0.000  1.000
  1.000  0.000  0.000  0.000  0.000
    occupations:
  1.004 -0.000 -0.000  0.000  0.000
 -0.000  1.003 -0.000  0.000  0.000
 -0.000 -0.000  1.003  0.000  0.000
  0.000  0.000  0.000  1.004 -0.000
  0.000  0.000  0.000 -0.000  1.003
   spin  2
    eigenvalues: 
  0.053  0.072  0.081  0.081  0.116
    eigenvectors:
  0.000  1.000  0.000  0.000  0.000
  0.000  0.000  0.346  0.654  0.000
  0.000  0.000  0.654  0.346  0.000
  1.000  0.000  0.000  0.000  0.000
  0.000  0.000  0.000  0.000  1.000
    occupations:
  0.072 -0.000 -0.000  0.000  0.000
 -0.000  0.081 -0.000  0.000  0.000
 -0.000 -0.000  0.081  0.000  0.000
  0.000  0.000  0.000  0.053 -0.000
  0.000  0.000  0.000 -0.000  0.116
atomic mag. moment =     4.616071
atom    5   Tr[ns(na)] (up, down, total) =   5.01752  0.40099  5.41850
   spin  1
    eigenvalues: 
  1.003  1.003  1.003  1.004  1.004
    eigenvectors:
  0.000  0.000  0.000  1.000  0.000
  0.000  0.234  0.766  0.000  0.000
  0.000  0.766  0.234  0.000  0.000
  0.000  0.000  0.000  0.000  1.000
  1.000  0.000  0.000  0.000  0.000
    occupations:
  1.004 -0.000 -0.000  0.000  0.000
 -0.000  1.003 -0.000  0.000  0.000
 -0.000 -0.000  1.003  0.000  0.000
  0.000  0.000  0.000  1.004 -0.000
  0.000  0.000  0.000 -0.000  1.003
   spin  2
    eigenvalues: 
  0.052  0.072  0.080  0.080  0.115
    eigenvectors:
  0.000  1.000  0.000  0.000  0.000
  0.000  0.000  0.418  0.582  0.000
  0.000  0.000  0.582  0.418  0.000
  1.000  0.000  0.000  0.000  0.000
  0.000  0.000  0.000  0.000  1.000
    occupations:
  0.072 -0.000 -0.000  0.000  0.000
 -0.000  0.080 -0.000  0.000  0.000
 -0.000 -0.000  0.080  0.000  0.000
  0.000  0.000  0.000  0.052 -0.000
  0.000  0.000  0.000 -0.000  0.115
atomic mag. moment =     4.616533
atom    6   Tr[ns(na)] (up, down, total) =   5.01758  0.40299  5.42057
   spin  1
    eigenvalues: 
  1.003  1.003  1.003  1.004  1.004
    eigenvectors:
  0.000  0.000  0.000  1.000  0.000
  0.000  0.300  0.700  0.000  0.000
  0.000  0.700  0.300  0.000  0.000
  0.000  0.000  0.000  0.000  1.000
  1.000  0.000  0.000  0.000  0.000
    occupations:
  1.004 -0.000 -0.000  0.000  0.000
 -0.000  1.003 -0.000  0.000  0.000
 -0.000 -0.000  1.003  0.000  0.000
  0.000  0.000  0.000  1.004 -0.000
  0.000  0.000  0.000 -0.000  1.003
   spin  2
    eigenvalues: 
  0.053  0.074  0.081  0.081  0.114
    eigenvectors:
  0.000  1.000  0.000  0.000  0.000
  0.000  0.000  0.404  0.596  0.000
  0.000  0.000  0.596  0.404  0.000
  1.000  0.000  0.000  0.000  0.000
  0.000  0.000  0.000  0.000  1.000
    occupations:
  0.074 -0.000 -0.000  0.000  0.000
 -0.000  0.081 -0.000  0.000  0.000
 -0.000 -0.000  0.081  0.000  0.000
  0.000  0.000  0.000  0.053 -0.000
  0.000  0.000  0.000 -0.000  0.114
atomic mag. moment =     4.614586
atom    7   Tr[ns(na)] (up, down, total) =   5.01736  0.40941  5.42677
   spin  1
    eigenvalues: 
  1.003  1.003  1.003  1.004  1.004
    eigenvectors:
  0.000  0.000  0.000  1.000  0.000
  0.000  0.298  0.702  0.000  0.000
  0.000  0.702  0.298  0.000  0.000
  0.000  0.000  0.000  0.000  1.000
  1.000  0.000  0.000  0.000  0.000
    occupations:
  1.004 -0.000 -0.000  0.000  0.000
 -0.000  1.003 -0.000  0.000  0.000
 -0.000 -0.000  1.003  0.000  0.000
  0.000  0.000  0.000  1.004 -0.000
  0.000  0.000  0.000 -0.000  1.003
   spin  2
    eigenvalues: 
  0.053  0.073  0.081  0.081  0.122
    eigenvectors:
  0.000  1.000  0.000  0.000  0.000
  0.000  0.000  0.354  0.646  0.000
  0.000  0.000  0.646  0.354  0.000
  1.000  0.000  0.000  0.000  0.000
  0.000  0.000  0.000  0.000  1.000
    occupations:
  0.073 -0.000 -0.000  0.000  0.000
 -0.000  0.081 -0.000  0.000  0.000
 -0.000 -0.000  0.081  0.000  0.000
  0.000  0.000  0.000  0.053 -0.000
  0.000  0.000  0.000 -0.000  0.122
atomic mag. moment =     4.607943
atom    8   Tr[ns(na)] (up, down, total) =   0.41608  5.01743  5.43351
   spin  1
    eigenvalues: 
  0.054  0.076  0.080  0.080  0.126
    eigenvectors:
  0.000  1.000  0.000  0.000  0.000
  0.000  0.000  0.336  0.664  0.000
  0.000  0.000  0.664  0.336  0.000
  1.000  0.000  0.000  0.000  0.000
  0.000  0.000  0.000  0.000  1.000
    occupations:
  0.076 -0.000 -0.000  0.000  0.000
 -0.000  0.080 -0.000  0.000  0.000
 -0.000 -0.000  0.080  0.000  0.000
  0.000  0.000  0.000  0.054 -0.000
  0.000  0.000  0.000 -0.000  0.126
   spin  2
    eigenvalues: 
  1.003  1.003  1.003  1.004  1.004
    eigenvectors:
  0.000  0.000  0.000  1.000  0.000
  0.000  0.369  0.631  0.000  0.000
  0.000  0.631  0.369  0.000  0.000
  0.000  0.000  0.000  0.000  1.000
  1.000  0.000  0.000  0.000  0.000
    occupations:
  1.004 -0.000 -0.000  0.000  0.000
 -0.000  1.003 -0.000  0.000  0.000
 -0.000 -0.000  1.003  0.000  0.000
  0.000  0.000  0.000  1.004 -0.000
  0.000  0.000  0.000 -0.000  1.003
atomic mag. moment =    -4.601342
N of occupied +U levels =   43.383882
 --- exit write_ns ---

     total cpu time spent up to now is      233.7 secs

     total energy              =  -14687.26969402 Ry
     Harris-Foulkes estimate   =  -14685.80776032 Ry
     estimated scf accuracy    <      11.54251259 Ry

     total magnetization       =    30.31 Bohr mag/cell
     absolute magnetization    =    41.54 Bohr mag/cell

     iteration #  2     ecut=    45.00 Ry     beta= 0.10
     Davidson diagonalization with overlap
     ethr =  3.90E-03,  avg # of iterations =  1.0

     total cpu time spent up to now is      334.2 secs

     total energy              =  -14688.71737072 Ry
     Harris-Foulkes estimate   =  -14687.34734389 Ry
     estimated scf accuracy    <       9.95148702 Ry

     total magnetization       =    29.92 Bohr mag/cell
     absolute magnetization    =    41.19 Bohr mag/cell

     iteration #  3     ecut=    45.00 Ry     beta= 0.10
     Davidson diagonalization with overlap
     ethr =  3.36E-03,  avg # of iterations =  3.8

     total cpu time spent up to now is      473.3 secs

     total energy              =  -14692.08118564 Ry
     Harris-Foulkes estimate   =  -14689.92428221 Ry
     estimated scf accuracy    <     106.19319175 Ry

     total magnetization       =    29.93 Bohr mag/cell
     absolute magnetization    =    40.74 Bohr mag/cell

     iteration #  4     ecut=    45.00 Ry     beta= 0.10
     Davidson diagonalization with overlap
     ethr =  3.36E-03,  avg # of iterations =  2.8

     total cpu time spent up to now is      608.1 secs

     total energy              =  -14693.97545663 Ry
     Harris-Foulkes estimate   =  -14694.11029949 Ry
     estimated scf accuracy    <       4.68158699 Ry

     total magnetization       =    27.97 Bohr mag/cell
     absolute magnetization    =    38.49 Bohr mag/cell

     iteration #  5     ecut=    45.00 Ry     beta= 0.10
     Davidson diagonalization with overlap
     ethr =  1.58E-03,  avg # of iterations =  2.5

     total cpu time spent up to now is      726.7 secs

     total energy              =  -14694.23664531 Ry
     Harris-Foulkes estimate   =  -14694.00222749 Ry
     estimated scf accuracy    <       3.63747010 Ry

     total magnetization       =    28.00 Bohr mag/cell
     absolute magnetization    =    38.56 Bohr mag/cell

     iteration #  6     ecut=    45.00 Ry     beta= 0.10
     Davidson diagonalization with overlap
     ethr =  1.23E-03,  avg # of iterations =  1.4

     total cpu time spent up to now is      832.8 secs

     total energy              =  -14693.46004307 Ry
     Harris-Foulkes estimate   =  -14694.25350164 Ry
     estimated scf accuracy    <       4.65350579 Ry

     total magnetization       =    27.87 Bohr mag/cell
     absolute magnetization    =    38.37 Bohr mag/cell

     iteration #  7     ecut=    45.00 Ry     beta= 0.10
     Davidson diagonalization with overlap
     ethr =  1.23E-03,  avg # of iterations =  3.9

     total cpu time spent up to now is      999.8 secs

     total energy              =  -14693.97796450 Ry
     Harris-Foulkes estimate   =  -14693.96203527 Ry
     estimated scf accuracy    <       0.25078162 Ry

     total magnetization       =    26.51 Bohr mag/cell
     absolute magnetization    =    37.55 Bohr mag/cell

     iteration #  8     ecut=    45.00 Ry     beta= 0.10
     Davidson diagonalization with overlap
     ethr =  8.47E-05,  avg # of iterations =  4.5

     total cpu time spent up to now is     1170.4 secs

     total energy              =  -14694.00095274 Ry
     Harris-Foulkes estimate   =  -14694.00159718 Ry
     estimated scf accuracy    <       0.17391837 Ry

     total magnetization       =    26.23 Bohr mag/cell
     absolute magnetization    =    37.27 Bohr mag/cell

     iteration #  9     ecut=    45.00 Ry     beta= 0.10
     Davidson diagonalization with overlap
     ethr =  5.88E-05,  avg # of iterations =  1.0

     total cpu time spent up to now is     1271.0 secs

     total energy              =  -14693.98708292 Ry
     Harris-Foulkes estimate   =  -14694.00178859 Ry
     estimated scf accuracy    <       0.17166596 Ry

     total magnetization       =    26.24 Bohr mag/cell
     absolute magnetization    =    37.28 Bohr mag/cell

     iteration # 10     ecut=    45.00 Ry     beta= 0.10
     Davidson diagonalization with overlap
     ethr =  5.80E-05,  avg # of iterations =  2.9

     total cpu time spent up to now is     1407.6 secs

     total energy              =  -14694.00252470 Ry
     Harris-Foulkes estimate   =  -14694.01140094 Ry
     estimated scf accuracy    <       0.44335169 Ry

     total magnetization       =    26.05 Bohr mag/cell
     absolute magnetization    =    36.98 Bohr mag/cell

     iteration # 11     ecut=    45.00 Ry     beta= 0.10
     Davidson diagonalization with overlap
     ethr =  5.80E-05,  avg # of iterations =  1.0

     total cpu time spent up to now is     1509.8 secs

     total energy              =  -14694.00346223 Ry
     Harris-Foulkes estimate   =  -14694.00560932 Ry
     estimated scf accuracy    <       0.03923332 Ry

     total magnetization       =    26.01 Bohr mag/cell
     absolute magnetization    =    37.07 Bohr mag/cell

     iteration # 12     ecut=    45.00 Ry     beta= 0.10
     Davidson diagonalization with overlap
     ethr =  1.33E-05,  avg # of iterations =  3.0

     total cpu time spent up to now is     1642.4 secs

     total energy              =  -14694.00454886 Ry
     Harris-Foulkes estimate   =  -14694.00675538 Ry
     estimated scf accuracy    <       0.05133788 Ry

     total magnetization       =    25.95 Bohr mag/cell
     absolute magnetization    =    37.03 Bohr mag/cell

     iteration # 13     ecut=    45.00 Ry     beta= 0.10
     Davidson diagonalization with overlap
     ethr =  1.33E-05,  avg # of iterations =  1.5

     total cpu time spent up to now is     1750.3 secs

     total energy              =  -14694.00697002 Ry
     Harris-Foulkes estimate   =  -14694.00648881 Ry
     estimated scf accuracy    <       0.00849440 Ry

     total magnetization       =    25.93 Bohr mag/cell
     absolute magnetization    =    37.08 Bohr mag/cell

     iteration # 14     ecut=    45.00 Ry     beta= 0.10
     Davidson diagonalization with overlap
     c_bands:  1 eigenvalues not converged
     ethr =  2.87E-06,  avg # of iterations =  4.2

     total cpu time spent up to now is     1899.0 secs

     total energy              =  -14694.00752581 Ry
     Harris-Foulkes estimate   =  -14694.00740679 Ry
     estimated scf accuracy    <       0.00266087 Ry

     total magnetization       =    25.88 Bohr mag/cell
     absolute magnetization    =    37.07 Bohr mag/cell

     iteration # 15     ecut=    45.00 Ry     beta= 0.10
     Davidson diagonalization with overlap
     ethr =  8.99E-07,  avg # of iterations =  2.8

     total cpu time spent up to now is     2036.9 secs

     total energy              =  -14694.00789125 Ry
     Harris-Foulkes estimate   =  -14694.00784564 Ry
     estimated scf accuracy    <       0.00099450 Ry

     total magnetization       =    25.86 Bohr mag/cell
     absolute magnetization    =    37.06 Bohr mag/cell

     iteration # 16     ecut=    45.00 Ry     beta= 0.10
     Davidson diagonalization with overlap
     ethr =  3.36E-07,  avg # of iterations =  1.7

     total cpu time spent up to now is     2146.8 secs

     total energy              =  -14694.00805896 Ry
     Harris-Foulkes estimate   =  -14694.00789509 Ry
     estimated scf accuracy    <       0.00027922 Ry

     total magnetization       =    25.84 Bohr mag/cell
     absolute magnetization    =    37.05 Bohr mag/cell

     iteration # 17     ecut=    45.00 Ry     beta= 0.10
     Davidson diagonalization with overlap
     ethr =  9.43E-08,  avg # of iterations =  2.4

     total cpu time spent up to now is     2275.5 secs

     total energy              =  -14694.00805881 Ry
     Harris-Foulkes estimate   =  -14694.00804209 Ry
     estimated scf accuracy    <       0.00011535 Ry

     total magnetization       =    25.82 Bohr mag/cell
     absolute magnetization    =    37.04 Bohr mag/cell

     iteration # 18     ecut=    45.00 Ry     beta= 0.10
     Davidson diagonalization with overlap
     ethr =  3.90E-08,  avg # of iterations =  1.5

     total cpu time spent up to now is     2382.4 secs

     total energy              =  -14694.00806480 Ry
     Harris-Foulkes estimate   =  -14694.00804629 Ry
     estimated scf accuracy    <       0.00003951 Ry

     total magnetization       =    25.82 Bohr mag/cell
     absolute magnetization    =    37.04 Bohr mag/cell

     iteration # 19     ecut=    45.00 Ry     beta= 0.10
     Davidson diagonalization with overlap
     ethr =  1.33E-08,  avg # of iterations =  3.0

     total cpu time spent up to now is     2526.1 secs

     total energy              =  -14694.00805617 Ry
     Harris-Foulkes estimate   =  -14694.00804982 Ry
     estimated scf accuracy    <       0.00002150 Ry

     total magnetization       =    25.81 Bohr mag/cell
     absolute magnetization    =    37.04 Bohr mag/cell

     iteration # 20     ecut=    45.00 Ry     beta= 0.10
     Davidson diagonalization with overlap
     ethr =  7.26E-09,  avg # of iterations =  2.5

     total cpu time spent up to now is     2655.0 secs

     total energy              =  -14694.00805561 Ry
     Harris-Foulkes estimate   =  -14694.00805083 Ry
     estimated scf accuracy    <       0.00000933 Ry

     total magnetization       =    25.80 Bohr mag/cell
     absolute magnetization    =    37.04 Bohr mag/cell

     iteration # 21     ecut=    45.00 Ry     beta= 0.10
     Davidson diagonalization with overlap
     ethr =  3.15E-09,  avg # of iterations =  2.4

     total cpu time spent up to now is     2776.0 secs

     total energy              =  -14694.00805397 Ry
     Harris-Foulkes estimate   =  -14694.00805148 Ry
     estimated scf accuracy    <       0.00000629 Ry

     total magnetization       =    25.80 Bohr mag/cell
     absolute magnetization    =    37.04 Bohr mag/cell

     iteration # 22     ecut=    45.00 Ry     beta= 0.10
     Davidson diagonalization with overlap
     ethr =  2.12E-09,  avg # of iterations =  1.4

     total cpu time spent up to now is     2880.1 secs

     total energy              =  -14694.00805565 Ry
     Harris-Foulkes estimate   =  -14694.00805412 Ry
     estimated scf accuracy    <       0.00000152 Ry

     total magnetization       =    25.80 Bohr mag/cell
     absolute magnetization    =    37.04 Bohr mag/cell

     iteration # 23     ecut=    45.00 Ry     beta= 0.10
     Davidson diagonalization with overlap
     ethr =  5.13E-10,  avg # of iterations =  2.9

     total cpu time spent up to now is     3009.4 secs

     total energy              =  -14694.00805687 Ry
     Harris-Foulkes estimate   =  -14694.00805556 Ry
     estimated scf accuracy    <       0.00000254 Ry

     total magnetization       =    25.80 Bohr mag/cell
     absolute magnetization    =    37.04 Bohr mag/cell

     iteration # 24     ecut=    45.00 Ry     beta= 0.10
     Davidson diagonalization with overlap
     ethr =  5.13E-10,  avg # of iterations =  1.9
 
     Magnetic moment per site:
     atom:    1    charge:   13.5461    magn:    4.2447    constr:    0.0000
     atom:    2    charge:   13.5536    magn:    4.1948    constr:    0.0000
     atom:    3    charge:   13.5547    magn:    4.1897    constr:    0.0000
     atom:    4    charge:   13.5553    magn:    4.1843    constr:    0.0000
     atom:    5    charge:   13.5547    magn:    4.1897    constr:    0.0000
     atom:    6    charge:   13.5536    magn:    4.1948    constr:    0.0000
     atom:    7    charge:   13.5461    magn:    4.2447    constr:    0.0000
     atom:    8    charge:   13.5469    magn:   -4.2382    constr:    0.0000
     atom:    9    charge:    9.1229    magn:    0.0315    constr:    0.0000
     atom:   10    charge:    9.1219    magn:    0.0297    constr:    0.0000
     atom:   11    charge:    9.1208    magn:    0.0284    constr:    0.0000
     atom:   12    charge:    9.1196    magn:    0.0232    constr:    0.0000
     atom:   13    charge:    9.1200    magn:    0.0225    constr:    0.0000
     atom:   14    charge:    9.1210    magn:    0.0250    constr:    0.0000
     atom:   15    charge:    9.1210    magn:    0.0250    constr:    0.0000
     atom:   16    charge:    9.1200    magn:    0.0225    constr:    0.0000
     atom:   17    charge:    9.1196    magn:    0.0232    constr:    0.0000
     atom:   18    charge:    9.1208    magn:    0.0284    constr:    0.0000
     atom:   19    charge:    9.1219    magn:    0.0297    constr:    0.0000
     atom:   20    charge:    9.1229    magn:    0.0315    constr:    0.0000
     atom:   21    charge:    9.1237    magn:    0.0442    constr:    0.0000
     atom:   22    charge:    9.1240    magn:   -0.0398    constr:    0.0000
     atom:   23    charge:    9.1240    magn:   -0.0398    constr:    0.0000
     atom:   24    charge:    9.1237    magn:    0.0442    constr:    0.0000

     total cpu time spent up to now is     3122.3 secs

     End of self-consistent calculation
 --- enter write_ns ---
 LDA+U parameters:
U(  1) =   3.1200   J(  1) =   0.7000   B(  1) =   0.0803
U(  2) =   3.1200   J(  2) =   0.7000   B(  2) =   0.0803
atom    1   Tr[ns(na)] (up, down, total) =   4.97290  0.72859  5.70150
   spin  1
    eigenvalues: 
  0.985  0.994  0.994  0.997  1.002
    eigenvectors:
  0.000  0.000  0.000  1.000  0.000
  0.000  0.253  0.747  0.000  0.000
  0.000  0.747  0.253  0.000  0.000
  0.000  0.000  0.000  0.000  1.000
  1.000  0.000  0.000  0.000  0.000
    occupations:
  0.997 -0.000 -0.000  0.000  0.000
 -0.000  0.994 -0.000  0.000  0.000
 -0.000 -0.000  0.994  0.000  0.000
  0.000  0.000  0.000  1.002 -0.000
  0.000  0.000  0.000 -0.000  0.985
   spin  2
    eigenvalues: 
  0.066  0.119  0.148  0.148  0.248
    eigenvectors:
  0.000  1.000  0.000  0.000  0.000
  0.000  0.000  0.298  0.702  0.000
  0.000  0.000  0.702  0.298  0.000
  1.000  0.000  0.000  0.000  0.000
  0.000  0.000  0.000  0.000  1.000
    occupations:
  0.119 -0.000 -0.000  0.000  0.000
 -0.000  0.148 -0.000  0.000  0.000
 -0.000 -0.000  0.148  0.000  0.000
  0.000  0.000  0.000  0.066 -0.000
  0.000  0.000  0.000 -0.000  0.248
atomic mag. moment =     4.244315
atom    2   Tr[ns(na)] (up, down, total) =   4.96883  0.76863  5.73746
   spin  1
    eigenvalues: 
  0.984  0.993  0.993  0.996  1.002
    eigenvectors:
  0.000  0.000  0.000  1.000  0.000
  0.000  0.288  0.712  0.000  0.000
  0.000  0.712  0.288  0.000  0.000
  0.000  0.000  0.000  0.000  1.000
  1.000  0.000  0.000  0.000  0.000
    occupations:
  0.996 -0.000 -0.000  0.000  0.000
 -0.000  0.993 -0.000  0.000  0.000
 -0.000 -0.000  0.993  0.000  0.000
  0.000  0.000  0.000  1.002 -0.000
  0.000  0.000  0.000 -0.000  0.984
   spin  2
    eigenvalues: 
  0.065  0.143  0.146  0.146  0.269
    eigenvectors:
  0.000  1.000  0.000  0.000  0.000
  0.000  0.000  0.279  0.721  0.000
  0.000  0.000  0.721  0.279  0.000
  1.000  0.000  0.000  0.000  0.000
  0.000  0.000  0.000  0.000  1.000
    occupations:
  0.143 -0.000 -0.000  0.000  0.000
 -0.000  0.146 -0.000  0.000  0.000
 -0.000 -0.000  0.146  0.000  0.000
  0.000  0.000  0.000  0.065 -0.000
  0.000  0.000  0.000 -0.000  0.269
atomic mag. moment =     4.200206
atom    3   Tr[ns(na)] (up, down, total) =   4.96827  0.77209  5.74036
   spin  1
    eigenvalues: 
  0.984  0.993  0.993  0.997  1.002
    eigenvectors:
  0.000  0.000  0.000  1.000  0.000
  0.000  0.332  0.668  0.000  0.000
  0.000  0.668  0.332  0.000  0.000
  0.000  0.000  0.000  0.000  1.000
  1.000  0.000  0.000  0.000  0.000
    occupations:
  0.997 -0.000 -0.000  0.000  0.000
 -0.000  0.993 -0.000  0.000  0.000
 -0.000 -0.000  0.993  0.000  0.000
  0.000  0.000  0.000  1.002 -0.000
  0.000  0.000  0.000 -0.000  0.984
   spin  2
    eigenvalues: 
  0.065  0.144  0.144  0.150  0.269
    eigenvectors:
  0.000  0.000  0.000  1.000  0.000
  0.000  0.391  0.609  0.000  0.000
  0.000  0.609  0.391  0.000  0.000
  1.000  0.000  0.000  0.000  0.000
  0.000  0.000  0.000  0.000  1.000
    occupations:
  0.150 -0.000 -0.000  0.000  0.000
 -0.000  0.144 -0.000  0.000  0.000
 -0.000 -0.000  0.144  0.000  0.000
  0.000  0.000  0.000  0.065 -0.000
  0.000  0.000  0.000 -0.000  0.269
atomic mag. moment =     4.196188
atom    4   Tr[ns(na)] (up, down, total) =   4.96766  0.77589  5.74355
   spin  1
    eigenvalues: 
  0.984  0.993  0.993  0.996  1.002
    eigenvectors:
  0.000  0.000  0.000  1.000  0.000
  0.000  0.333  0.667  0.000  0.000
  0.000  0.667  0.333  0.000  0.000
  0.000  0.000  0.000  0.000  1.000
  1.000  0.000  0.000  0.000  0.000
    occupations:
  0.996 -0.000 -0.000  0.000  0.000
 -0.000  0.993 -0.000  0.000  0.000
 -0.000 -0.000  0.993  0.000  0.000
  0.000  0.000  0.000  1.002 -0.000
  0.000  0.000  0.000 -0.000  0.984
   spin  2
    eigenvalues: 
  0.065  0.143  0.143  0.154  0.271
    eigenvectors:
  0.000  0.000  0.000  1.000  0.000
  0.000  0.362  0.638  0.000  0.000
  0.000  0.638  0.362  0.000  0.000
  1.000  0.000  0.000  0.000  0.000
  0.000  0.000  0.000  0.000  1.000
    occupations:
  0.154 -0.000 -0.000  0.000  0.000
 -0.000  0.143 -0.000  0.000  0.000
 -0.000 -0.000  0.143  0.000  0.000
  0.000  0.000  0.000  0.065 -0.000
  0.000  0.000  0.000 -0.000  0.271
atomic mag. moment =     4.191765
atom    5   Tr[ns(na)] (up, down, total) =   4.96827  0.77209  5.74036
   spin  1
    eigenvalues: 
  0.984  0.993  0.993  0.997  1.002
    eigenvectors:
  0.000  0.000  0.000  1.000  0.000
  0.000  0.292  0.708  0.000  0.000
  0.000  0.708  0.292  0.000  0.000
  0.000  0.000  0.000  0.000  1.000
  1.000  0.000  0.000  0.000  0.000
    occupations:
  0.997 -0.000 -0.000  0.000  0.000
 -0.000  0.993 -0.000  0.000  0.000
 -0.000 -0.000  0.993  0.000  0.000
  0.000  0.000  0.000  1.002 -0.000
  0.000  0.000  0.000 -0.000  0.984
   spin  2
    eigenvalues: 
  0.065  0.144  0.144  0.150  0.269
    eigenvectors:
  0.000  0.000  0.000  1.000  0.000
  0.000  0.311  0.689  0.000  0.000
  0.000  0.689  0.311  0.000  0.000
  1.000  0.000  0.000  0.000  0.000
  0.000  0.000  0.000  0.000  1.000
    occupations:
  0.150 -0.000 -0.000  0.000  0.000
 -0.000  0.144 -0.000  0.000  0.000
 -0.000 -0.000  0.144  0.000  0.000
  0.000  0.000  0.000  0.065 -0.000
  0.000  0.000  0.000 -0.000  0.269
atomic mag. moment =     4.196188
atom    6   Tr[ns(na)] (up, down, total) =   4.96883  0.76863  5.73746
   spin  1
    eigenvalues: 
  0.984  0.993  0.993  0.996  1.002
    eigenvectors:
  0.000  0.000  0.000  1.000  0.000
  0.000  0.300  0.700  0.000  0.000
  0.000  0.700  0.300  0.000  0.000
  0.000  0.000  0.000  0.000  1.000
  1.000  0.000  0.000  0.000  0.000
    occupations:
  0.996 -0.000 -0.000  0.000  0.000
 -0.000  0.993 -0.000  0.000  0.000
 -0.000 -0.000  0.993  0.000  0.000
  0.000  0.000  0.000  1.002 -0.000
  0.000  0.000  0.000 -0.000  0.984
   spin  2
    eigenvalues: 
  0.065  0.143  0.146  0.146  0.269
    eigenvectors:
  0.000  1.000  0.000  0.000  0.000
  0.000  0.000  0.327  0.673  0.000
  0.000  0.000  0.673  0.327  0.000
  1.000  0.000  0.000  0.000  0.000
  0.000  0.000  0.000  0.000  1.000
    occupations:
  0.143 -0.000 -0.000  0.000  0.000
 -0.000  0.146 -0.000  0.000  0.000
 -0.000 -0.000  0.146  0.000  0.000
  0.000  0.000  0.000  0.065 -0.000
  0.000  0.000  0.000 -0.000  0.269
atomic mag. moment =     4.200206
atom    7   Tr[ns(na)] (up, down, total) =   4.97290  0.72859  5.70150
   spin  1
    eigenvalues: 
  0.985  0.994  0.994  0.997  1.002
    eigenvectors:
  0.000  0.000  0.000  1.000  0.000
  0.000  0.263  0.737  0.000  0.000
  0.000  0.737  0.263  0.000  0.000
  0.000  0.000  0.000  0.000  1.000
  1.000  0.000  0.000  0.000  0.000
    occupations:
  0.997 -0.000 -0.000  0.000  0.000
 -0.000  0.994 -0.000  0.000  0.000
 -0.000 -0.000  0.994  0.000  0.000
  0.000  0.000  0.000  1.002 -0.000
  0.000  0.000  0.000 -0.000  0.985
   spin  2
    eigenvalues: 
  0.066  0.119  0.148  0.148  0.248
    eigenvectors:
  0.000  1.000  0.000  0.000  0.000
  0.000  0.000  0.285  0.715  0.000
  0.000  0.000  0.715  0.285  0.000
  1.000  0.000  0.000  0.000  0.000
  0.000  0.000  0.000  0.000  1.000
    occupations:
  0.119 -0.000 -0.000  0.000  0.000
 -0.000  0.148 -0.000  0.000  0.000
 -0.000 -0.000  0.148  0.000  0.000
  0.000  0.000  0.000  0.066 -0.000
  0.000  0.000  0.000 -0.000  0.248
atomic mag. moment =     4.244315
atom    8   Tr[ns(na)] (up, down, total) =   0.73607  4.96976  5.70583
   spin  1
    eigenvalues: 
  0.063  0.126  0.146  0.146  0.254
    eigenvectors:
  0.000  1.000  0.000  0.000  0.000
  0.000  0.000  0.317  0.683  0.000
  0.000  0.000  0.683  0.317  0.000
  1.000  0.000  0.000  0.000  0.000
  0.000  0.000  0.000  0.000  1.000
    occupations:
  0.126 -0.000 -0.000  0.000  0.000
 -0.000  0.146 -0.000  0.000  0.000
 -0.000 -0.000  0.146  0.000  0.000
  0.000  0.000  0.000  0.063 -0.000
  0.000  0.000  0.000 -0.000  0.254
   spin  2
    eigenvalues: 
  0.985  0.994  0.994  0.995  1.003
    eigenvectors:
  0.000  0.000  0.000  1.000  0.000
  0.000  0.333  0.667  0.000  0.000
  0.000  0.667  0.333  0.000  0.000
  0.000  0.000  0.000  0.000  1.000
  1.000  0.000  0.000  0.000  0.000
    occupations:
  0.995 -0.000 -0.000  0.000  0.000
 -0.000  0.994 -0.000  0.000  0.000
 -0.000 -0.000  0.994  0.000  0.000
  0.000  0.000  0.000  1.003 -0.000
  0.000  0.000  0.000 -0.000  0.985
atomic mag. moment =    -4.233688
N of occupied +U levels =   45.808016
 --- exit write_ns ---

 ------ SPIN UP ------------


          k = 0.0000 0.0000 0.0000 ( 13925 PWs)   bands (ev):

   -66.8049 -66.8049 -66.6249 -66.6249 -66.6018 -66.5973 -66.5973 -62.2635
   -35.5739 -35.5739 -35.5219 -35.5219 -35.5219 -35.5219 -35.4019 -35.4019
   -35.3743 -35.3696 -35.3696 -35.3409 -35.3409 -35.3409 -35.3409 -35.3206
   -35.3206 -35.3161 -35.3161 -35.3161 -35.3161 -31.0903 -31.0797 -31.0797
     5.7200   5.8665   5.8839   6.2889   6.3446   6.9625   7.0182   7.6087
     8.1579   8.3451   8.3488   8.3797   8.4154   8.4414   8.4765   8.5691
     8.6961   8.7098   8.7627   8.7739   8.8645   8.8947   9.0661   9.1268
     9.2006   9.3668   9.3967   9.4329   9.4719   9.4953   9.6929   9.6978
     9.7985   9.8707   9.8900   9.9434   9.9785  10.0450  10.0675  10.0879
    10.0879  10.1491  10.1780  10.1780  10.1817  10.1817  10.3073  10.3145
    10.3269  10.3269  10.3353  10.3353  10.4443  10.5002  10.5523  10.5523
    10.5570  10.5570  10.5930  10.5930  10.6009  10.6009  10.6369  10.6369
    10.6515  10.6840  10.6840  10.7327  10.7327  10.7819  10.7863  10.7863
    10.8039  10.8039  10.8285  10.9954  11.0246  11.0326  11.0326  11.0721
    11.0721  11.1780  11.1829  11.2143  11.2414  11.3307  11.4438  11.4695
    11.5018  11.5018  11.5018  11.6047  11.6047  11.6103  11.6760  11.6942
    11.8234  11.8752  11.8843  11.9805  12.0116  12.0116  12.0275  12.0903
    12.1457  12.1639  12.1639  12.1905  12.2277  12.2520  12.4578  12.4803
    12.4803  12.6189  12.6607  12.6607  12.7379  12.8062  12.8281  12.8281
    12.8795  12.9859  13.0810  13.1402  13.1411  13.3147  14.0393  14.2845
    15.3000  15.6290  16.7062  16.8391  16.8391  16.9053  17.0496  17.5429
    17.9045  19.3140  19.4767  20.0061  20.0061  20.3535  20.3535  20.3788
    20.3788  21.3013

          k = 0.0000 0.0000-0.0484 ( 13878 PWs)   bands (ev):

   -66.8049 -66.8049 -66.6249 -66.6249 -66.6018 -66.5973 -66.5973 -62.2635
   -35.5739 -35.5739 -35.5219 -35.5219 -35.5219 -35.5219 -35.4019 -35.4019
   -35.3743 -35.3696 -35.3696 -35.3409 -35.3409 -35.3409 -35.3409 -35.3206
   -35.3206 -35.3161 -35.3161 -35.3161 -35.3161 -31.0903 -31.0797 -31.0797
     5.7448   5.7758   6.0370   6.0861   6.6029   6.6583   7.3399   7.3958
     8.3334   8.3534   8.3681   8.3702   8.4091   8.4329   8.4526   8.5383
     8.5541   8.6323   8.7167   8.8676   8.9156   8.9919   9.1010   9.1138
     9.2052   9.3045   9.3149   9.3877   9.5511   9.5902   9.6613   9.7075
     9.7248   9.8763   9.8812   9.9510  10.0346  10.0537  10.0668  10.0885
    10.0885  10.1576  10.1576  10.1639  10.2344  10.2344  10.2391  10.2450
    10.2450  10.2868  10.4485  10.4485  10.4549  10.4549  10.4732  10.5561
    10.5561  10.5566  10.5566  10.5746  10.6112  10.6351  10.6351  10.6755
    10.6755  10.7293  10.7293  10.7326  10.7326  10.7408  10.7408  10.7559
    10.8307  10.8531  10.8531  10.8949  10.8949  10.9730  11.0655  11.1770
    11.1936  11.2269  11.2296  11.2296  11.2299  11.3170  11.3498  11.3498
    11.3927  11.4842  11.5349  11.6596  11.6605  11.6607  11.7586  11.7586
    11.8253  11.8455  11.8828  11.8828  11.9019  11.9687  12.0775  12.0954
    12.1319  12.1889  12.1924  12.2523  12.2545  12.2545  12.4292  12.4292
    12.4835  12.5928  12.6818  12.6818  12.7544  12.8232  12.8232  12.8711
    12.8959  12.9564  12.9894  13.0800  13.1413  13.5396  13.7555  14.6308
    14.9078  16.0159  16.4373  16.8391  16.8391  16.9053  17.0496  17.5199
    18.3132  18.6033  20.0942  20.0942  20.1030  20.1030  20.3536  20.4525
    20.7600  20.7600

          k = 0.0000 0.1250 0.0000 ( 13879 PWs)   bands (ev):

   -66.8047 -66.8046 -66.6246 -66.6246 -66.6015 -66.5970 -66.5970 -62.2635
   -35.5738 -35.5738 -35.5237 -35.5237 -35.5218 -35.5218 -35.4017 -35.4017
   -35.3741 -35.3694 -35.3694 -35.3427 -35.3427 -35.3408 -35.3408 -35.3224
   -35.3205 -35.3179 -35.3179 -35.3160 -35.3160 -31.0901 -31.0819 -31.0796
     5.9636   6.1065   6.1225   6.5132   6.5637   7.1475   7.1921   7.7270
     8.1797   8.4360   8.4870   8.5037   8.5126   8.5575   8.5775   8.6574
     8.6857   8.6904   8.7902   8.8156   8.9070   8.9580   9.0829   9.1245
     9.1727   9.2286   9.2804   9.2839   9.3905   9.4088   9.6010   9.6816
     9.7521   9.8005   9.8338   9.8394   9.8907   9.9133   9.9354   9.9395
     9.9509  10.0013  10.0319  10.0551  10.0596  10.0770  10.1273  10.1553
    10.2596  10.2657  10.3317  10.3400  10.3418  10.3551  10.4377  10.5380
    10.5693  10.6080  10.6116  10.6164  10.6836  10.6972  10.7404  10.7415
    10.8128  10.8144  10.8152  10.8602  10.8709  10.9211  10.9794  11.0053
    11.0689  11.0783  11.0949  11.1315  11.1471  11.1544  11.1597  11.1800
    11.1973  11.2440  11.2485  11.3059  11.3092  11.3937  11.4402  11.4523
    11.4765  11.5184  11.5936  11.6053  11.6478  11.7164  11.7407  11.8029
    11.8299  11.8380  11.8588  11.8995  12.0030  12.0082  12.0204  12.0876
    12.0977  12.1550  12.1667  12.2184  12.2928  12.2975  12.3378  12.4346
    12.4939  12.5037  12.6412  12.6666  12.6820  12.7706  12.8163  12.8272
    12.9533  12.9579  13.0419  13.0439  13.1140  13.2751  14.0807  14.3207
    15.4313  15.7609  16.6585  16.8618  16.9159  16.9477  16.9662  17.8241
    18.0106  18.5476  18.8486  18.8979  19.6411  19.6964  19.7266  19.7784
    20.6040  20.8141

          k = 0.0000 0.1250-0.0484 ( 13868 PWs)   bands (ev):

   -66.8047 -66.8046 -66.6246 -66.6246 -66.6015 -66.5970 -66.5970 -62.2635
   -35.5738 -35.5738 -35.5237 -35.5237 -35.5218 -35.5218 -35.4017 -35.4017
   -35.3741 -35.3694 -35.3694 -35.3427 -35.3427 -35.3408 -35.3408 -35.3224
   -35.3205 -35.3179 -35.3179 -35.3160 -35.3160 -31.0901 -31.0819 -31.0796
     5.9871   6.0188   6.2711   6.3172   6.8116   6.8591   7.4920   7.5329
     8.3495   8.3910   8.4639   8.4692   8.4926   8.5066   8.5768   8.6358
     8.6637   8.7258   8.8072   8.9147   8.9169   8.9635   9.0251   9.1044
     9.1213   9.2500   9.2862   9.3310   9.3520   9.4866   9.5104   9.7419
     9.7527   9.7960   9.8083   9.8504   9.8832   9.9141   9.9310   9.9345
     9.9363   9.9996  10.0343  10.0539  10.0776  10.0988  10.1192  10.2104
    10.2114  10.2313  10.3004  10.3132  10.3516  10.4271  10.5140  10.5215
    10.5482  10.5794  10.6001  10.6092  10.6177  10.6771  10.7584  10.7953
    10.8075  10.8157  10.8589  10.8717  10.9060  10.9309  10.9716  11.0085
    11.0193  11.0338  11.0941  11.0961  11.1318  11.1342  11.1733  11.2026
    11.2199  11.2272  11.2891  11.3028  11.3389  11.3982  11.4200  11.4623
    11.4634  11.5550  11.5910  11.6270  11.6428  11.6859  11.7165  11.7632
    11.7894  11.8625  11.8746  11.9207  11.9795  12.0797  12.0808  12.0845
    12.0871  12.1349  12.1658  12.2186  12.2187  12.2686  12.3419  12.4799
    12.4997  12.5236  12.6264  12.6437  12.6973  12.8078  12.8425  12.8631
    12.9023  12.9518  12.9567  13.0430  13.0431  13.5398  13.7465  14.7198
    14.9959  16.1710  16.5012  16.8016  16.9153  16.9477  16.9662  17.6046
    18.6091  18.6396  18.6412  18.8420  19.2106  19.2728  20.1927  20.2302
    20.6892  20.7607

          k = 0.0000 0.2500 0.0000 ( 13848 PWs)   bands (ev):

   -66.8045 -66.8045 -66.6245 -66.6245 -66.6014 -66.5969 -66.5969 -62.2631
   -35.5734 -35.5734 -35.5279 -35.5279 -35.5216 -35.5216 -35.4013 -35.4013
   -35.3738 -35.3690 -35.3690 -35.3469 -35.3469 -35.3406 -35.3406 -35.3266
   -35.3221 -35.3221 -35.3202 -35.3157 -35.3157 -31.0895 -31.0871 -31.0792
     6.6524   6.7826   6.7947   7.1319   7.1659   7.6168   7.6302   7.9722
     8.1762   8.3984   8.3992   8.6117   8.6246   8.6802   8.7651   8.7695
     8.8063   8.8388   8.8551   8.8717   8.8865   8.9425   8.9443   9.0017
     9.0094   9.0517   9.1140   9.2361   9.4389   9.4507   9.4677   9.5370
     9.5476   9.5553   9.6157   9.6194   9.6769   9.6879   9.7397   9.7548
     9.7842   9.8618   9.9143   9.9676   9.9809  10.0601  10.1380  10.1744
    10.2326  10.3387  10.4865  10.5005  10.5440  10.5715  10.5749  10.5963
    10.6333  10.6686  10.6716  10.7025  10.7632  10.8068  10.8620  10.8706
    10.9409  10.9928  11.0380  11.0402  11.0667  11.0916  11.1094  11.1190
    11.1561  11.2264  11.2790  11.3260  11.3712  11.3847  11.3878  11.4138
    11.4316  11.4630  11.4947  11.5263  11.5967  11.6128  11.6451  11.6591
    11.6901  11.7157  11.7299  11.7350  11.7696  11.7741  11.7858  11.8111
    11.8234  11.8608  11.9098  11.9410  11.9822  11.9962  12.0472  12.0573
    12.0633  12.1123  12.1175  12.1515  12.1599  12.2685  12.3109  12.3434
    12.5075  12.5658  12.5936  12.6499  12.7597  12.7663  12.8763  12.9005
    12.9939  13.0187  13.0215  13.0838  13.0850  13.1464  14.1895  14.3950
    15.6546  15.8408  16.0551  16.2198  16.3346  16.5696  16.8070  16.9295
    17.0045  17.2174  17.2920  17.4041  18.0108  18.1880  18.3454  18.4296
    19.0885  20.2136

          k = 0.0000 0.2500-0.0484 ( 13842 PWs)   bands (ev):

   -66.8045 -66.8045 -66.6245 -66.6245 -66.6014 -66.5969 -66.5969 -62.2631
   -35.5734 -35.5734 -35.5279 -35.5279 -35.5216 -35.5216 -35.4013 -35.4013
   -35.3738 -35.3690 -35.3690 -35.3469 -35.3469 -35.3406 -35.3406 -35.3266
   -35.3221 -35.3221 -35.3202 -35.3157 -35.3157 -31.0895 -31.0871 -31.0792
     6.6719   6.7055   6.9264   6.9629   7.3710   7.3941   7.8417   7.8465
     8.2692   8.2717   8.5123   8.5160   8.6852   8.7025   8.7256   8.7354
     8.8092   8.8426   8.8808   8.8926   8.9128   8.9319   8.9555   8.9924
     9.0096   9.0199   9.0545   9.3564   9.4381   9.4481   9.4762   9.4854
     9.4973   9.5627   9.5950   9.6081   9.6536   9.6818   9.7656   9.7931
     9.8829   9.8832   9.8863   9.9538   9.9812   9.9940  10.0754  10.1863
    10.3120  10.3890  10.4457  10.4905  10.5192  10.5322  10.5496  10.5984
    10.6545  10.6809  10.6840  10.7276  10.7801  10.8066  10.8656  10.8973
    10.9339  10.9684  10.9780  11.0211  11.0662  11.0824  11.1120  11.1544
    11.2429  11.2523  11.2581  11.2936  11.3053  11.3511  11.3799  11.4691
    11.4806  11.5059  11.5158  11.5321  11.5411  11.5694  11.6036  11.6681
    11.6973  11.7148  11.7286  11.7413  11.7765  11.7791  11.7878  11.8245
    11.8489  11.8506  11.8963  11.9521  11.9785  12.0109  12.0204  12.0229
    12.0648  12.1172  12.1515  12.1736  12.1942  12.2100  12.2524  12.4222
    12.4651  12.6072  12.6339  12.7166  12.7305  12.7324  12.7784  12.8914
    12.8961  12.9880  13.0203  13.0835  13.0858  13.5394  13.7101  14.9160
    15.1578  16.0101  16.0580  16.2628  16.4033  16.6503  16.8070  16.8347
    17.0486  17.1437  17.2174  17.6235  17.7447  18.0043  18.5451  18.5914
    19.3424  19.4514

          k = 0.0000 0.3750 0.0000 ( 13856 PWs)   bands (ev):

   -66.8051 -66.8051 -66.6251 -66.6251 -66.6020 -66.5975 -66.5975 -62.2621
   -35.5730 -35.5730 -35.5320 -35.5320 -35.5214 -35.5214 -35.4009 -35.4009
   -35.3733 -35.3686 -35.3686 -35.3510 -35.3510 -35.3403 -35.3403 -35.3306
   -35.3261 -35.3261 -35.3200 -35.3155 -35.3155 -31.0925 -31.0889 -31.0789
     7.6116   7.7176   7.7214   7.9353   7.9407   8.1032   8.1057   8.1475
     8.1622   8.1890   8.1901   8.2782   8.2842   8.4392   8.4647   8.6510
     8.7262   8.8877   8.9379   8.9706   9.0386   9.0704   9.1722   9.1912
     9.1926   9.1993   9.2057   9.2145   9.2708   9.2860   9.3211   9.3240
     9.3702   9.4330   9.4730   9.5345   9.5621   9.5723   9.6397   9.6489
     9.7474   9.8914   9.9019  10.0012  10.0624  10.0681  10.1221  10.2888
    10.2889  10.3159  10.3314  10.3360  10.3520  10.4082  10.5001  10.6383
    10.6987  10.6993  10.7420  10.8374  10.9558  11.0684  11.1140  11.1510
    11.1531  11.2230  11.2901  11.3129  11.3901  11.4012  11.4056  11.4233
    11.4314  11.4595  11.4985  11.5194  11.5306  11.5690  11.5703  11.6024
    11.6078  11.6134  11.6419  11.6541  11.6758  11.7286  11.7808  11.7953
    11.8412  11.8456  11.8847  11.8942  11.9260  11.9480  12.0254  12.0367
    12.0402  12.1194  12.1276  12.1342  12.1455  12.1594  12.2062  12.2470
    12.2502  12.2935  12.3256  12.3811  12.4672  12.4958  12.4964  12.5430
    12.5898  12.6213  12.7275  12.7419  12.8315  12.8747  12.9615  12.9766
    12.9847  13.0024  13.0541  13.0756  13.1259  13.1340  13.9334  14.1490
    14.1617  14.2768  14.2965  14.9969  15.0805  15.1436  15.1908  15.8263
    15.8468  16.0534  16.1414  16.7364  16.9508  16.9514  17.4190  17.9130
    19.3180  19.3478

          k = 0.0000 0.3750-0.0484 ( 13872 PWs)   bands (ev):

   -66.8051 -66.8051 -66.6251 -66.6251 -66.6020 -66.5975 -66.5975 -62.2621
   -35.5730 -35.5730 -35.5320 -35.5320 -35.5214 -35.5214 -35.4009 -35.4009
   -35.3733 -35.3686 -35.3686 -35.3510 -35.3510 -35.3403 -35.3403 -35.3306
   -35.3261 -35.3261 -35.3200 -35.3155 -35.3155 -31.0925 -31.0889 -31.0789
     7.6232   7.6622   7.8171   7.8300   8.0270   8.0472   8.1344   8.1447
     8.1599   8.1765   8.2249   8.2254   8.3488   8.3656   8.5465   8.5765
     8.7922   8.8529   8.9360   8.9383   9.0617   9.0862   9.1768   9.1878
     9.1928   9.2121   9.2313   9.2376   9.2766   9.2772   9.2800   9.3235
     9.3344   9.4222   9.4326   9.5104   9.5635   9.6072   9.7210   9.7333
     9.7585   9.8343   9.8500   9.9274  10.0243  10.0430  10.2838  10.2889
    10.2954  10.3015  10.3022  10.3516  10.4415  10.4526  10.4760  10.5044
    10.5281  10.7394  10.8508  10.9204  10.9905  11.0201  11.1145  11.1873
    11.1903  11.2245  11.2694  11.2772  11.3303  11.3685  11.4258  11.4282
    11.4463  11.4547  11.4683  11.4754  11.4827  11.5209  11.5290  11.5891
    11.6365  11.6622  11.7186  11.7190  11.7354  11.7479  11.7485  11.7502
    11.7705  11.8109  11.8422  11.8960  11.9908  12.0255  12.0320  12.0709
    12.0954  12.1164  12.1299  12.1348  12.1432  12.1614  12.1713  12.2239
    12.3420  12.3508  12.3960  12.4119  12.4223  12.4226  12.4540  12.5539
    12.5658  12.5940  12.6011  12.7076  12.7456  12.8562  12.8691  12.9492
    12.9862  13.0584  13.0752  13.1250  13.1341  13.5801  13.6257  14.0037
    14.0525  14.5332  14.6200  14.6944  14.7389  15.4672  15.4978  15.6328
    15.6734  16.0627  16.2065  16.7364  16.9491  16.9601  17.4190  17.9157
    19.3888  19.4167

          k = 0.0000-0.5000 0.0000 ( 13918 PWs)   bands (ev):

   -66.8055 -66.8055 -66.6255 -66.6255 -66.6024 -66.5979 -66.5979 -62.2615
   -35.5728 -35.5728 -35.5336 -35.5336 -35.5213 -35.5213 -35.4007 -35.4007
   -35.3732 -35.3684 -35.3684 -35.3526 -35.3526 -35.3402 -35.3402 -35.3323
   -35.3278 -35.3278 -35.3199 -35.3154 -35.3154 -31.0948 -31.0887 -31.0788
     8.0827   8.0839   8.1019   8.1109   8.1494   8.1700   8.1768   8.2267
     8.3071   8.3998   8.4032   8.4186   8.4358   8.4998   8.5064   8.6023
     8.6508   8.7422   8.8356   8.8498   8.9487   8.9613   9.0845   9.0927
     9.1197   9.1300   9.1786   9.1935   9.2254   9.3005   9.3288   9.3565
     9.4026   9.4921   9.6434   9.6609   9.6658   9.6845   9.7382   9.7616
     9.7640   9.7901   9.8134   9.8238   9.8594  10.0123  10.0187  10.0510
    10.1187  10.2684  10.3099  10.3189  10.4870  10.5181  10.5509  10.5671
    10.5768  10.6315  10.6684  10.7328  10.9135  11.1735  11.1970  11.2425
    11.3096  11.4084  11.4085  11.4273  11.4404  11.4970  11.4973  11.5340
    11.5342  11.5547  11.5641  11.5793  11.5822  11.6248  11.6337  11.6796
    11.6911  11.7068  11.7344  11.7720  11.7783  11.7860  11.8136  11.8450
    11.8616  11.9330  11.9416  11.9501  12.0204  12.1237  12.2320  12.3173
    12.3312  12.3366  12.3906  12.3940  12.4705  12.4981  12.5222  12.5401
    12.5674  12.5940  12.6378  12.6507  12.6536  12.6752  12.6776  12.7518
    12.7593  12.8612  12.8931  12.9307  12.9404  12.9490  12.9819  13.0176
    13.0504  13.0916  13.0959  13.1490  13.1505  13.3233  13.3916  13.4391
    13.4553  13.8421  13.8659  13.9224  13.9657  14.4062  14.4396  14.4478
    14.4869  14.7562  14.7831  16.6254  16.7176  16.8071  17.4929  17.8863
    19.3105  19.3311

          k = 0.0000-0.5000-0.0484 ( 13892 PWs)   bands (ev):

   -66.8055 -66.8055 -66.6255 -66.6255 -66.6024 -66.5979 -66.5979 -62.2615
   -35.5728 -35.5728 -35.5336 -35.5336 -35.5213 -35.5213 -35.4007 -35.4007
   -35.3732 -35.3684 -35.3684 -35.3526 -35.3526 -35.3402 -35.3402 -35.3323
   -35.3278 -35.3278 -35.3199 -35.3154 -35.3154 -31.0948 -31.0887 -31.0788
     8.0777   8.0930   8.0953   8.1249   8.1313   8.1617   8.2010   8.2180
     8.3122   8.3758   8.3916   8.4441   8.4607   8.4857   8.4973   8.5976
     8.6687   8.7533   8.8058   8.8254   8.9781   8.9788   9.0930   9.0981
     9.1024   9.1192   9.1941   9.2107   9.2115   9.2985   9.2999   9.3227
     9.4775   9.4928   9.5832   9.6409   9.6649   9.6823   9.7528   9.7575
     9.7717   9.8184   9.8302   9.8537   9.8604   9.9440  10.0182  10.0746
    10.2234  10.2769  10.2827  10.3187  10.3220  10.4637  10.4880  10.5659
    10.6301  10.6942  10.7335  10.8950  10.9527  10.9695  11.1668  11.2719
    11.3228  11.3755  11.3829  11.4447  11.4676  11.4808  11.4899  11.5343
    11.5361  11.5519  11.5679  11.5770  11.5917  11.5936  11.5938  11.7110
    11.7244  11.7403  11.7618  11.7687  11.7790  11.7862  11.8131  11.8419
    11.8501  11.9429  11.9605  12.0271  12.0322  12.1222  12.1273  12.2211
    12.2716  12.3943  12.4352  12.4837  12.4930  12.4978  12.5292  12.5471
    12.5517  12.5551  12.5831  12.5922  12.6416  12.7058  12.7568  12.7954
    12.8092  12.8127  12.8310  12.8621  12.9075  13.0023  13.0174  13.0233
    13.0917  13.0918  13.1490  13.1513  13.1634  13.2298  13.2458  13.5728
    13.6228  13.6864  13.6867  14.1007  14.1615  14.2031  14.2197  14.6429
    14.6735  14.6834  14.6971  16.6263  16.7176  16.8072  17.4929  17.8868
    19.4037  19.4116

          k = 0.1250 0.1250 0.0000 ( 13839 PWs)   bands (ev):

   -66.8043 -66.8043 -66.6243 -66.6243 -66.6012 -66.5967 -66.5967 -62.2635
   -35.5736 -35.5736 -35.5236 -35.5236 -35.5236 -35.5236 -35.4016 -35.4016
   -35.3740 -35.3692 -35.3692 -35.3426 -35.3426 -35.3426 -35.3426 -35.3223
   -35.3222 -35.3178 -35.3178 -35.3177 -35.3177 -31.0898 -31.0818 -31.0816
     6.1946   6.3346   6.3506   6.7316   6.7794   7.3388   7.3757   7.8686
     8.2461   8.5196   8.5675   8.6295   8.6472   8.6518   8.6622   8.6639
     8.7047   8.8087   8.8986   8.9129   8.9577   9.0241   9.0663   9.0840
     9.2012   9.2940   9.3033   9.3632   9.4427   9.4725   9.4883   9.4907
     9.6621   9.6820   9.7280   9.8206   9.8228   9.8463   9.8489   9.8711
     9.8866   9.8931   9.9009   9.9060   9.9254   9.9500   9.9873  10.0695
    10.1484  10.1956  10.2863  10.3151  10.3197  10.3840  10.4471  10.4645
    10.4973  10.5156  10.5559  10.5639  10.5815  10.5915  10.6426  10.6478
    10.7560  10.7609  10.8107  11.0174  11.0188  11.0361  11.0519  11.0630
    11.0706  11.1186  11.1373  11.1446  11.2036  11.2040  11.2421  11.2718
    11.2847  11.3329  11.3428  11.3726  11.4416  11.4740  11.5075  11.5803
    11.6019  11.6196  11.6380  11.6761  11.7038  11.7876  11.8047  11.8666
    11.8849  11.9556  11.9562  11.9737  12.0384  12.0648  12.0923  12.0961
    12.1424  12.1832  12.1893  12.2175  12.3027  12.3210  12.4313  12.4513
    12.5222  12.5848  12.6036  12.6973  12.7090  12.7189  12.7250  12.8323
    12.8371  12.8647  12.9193  12.9202  13.1257  13.2858  14.1839  14.4289
    15.5963  15.9438  16.7789  16.8006  16.8628  16.9447  17.0596  18.1078
    18.1780  19.0368  19.1463  19.2003  19.3012  19.4597  19.5171  19.7605
    19.8712  19.9857

          k = 0.1250 0.1250-0.0484 ( 13838 PWs)   bands (ev):

   -66.8043 -66.8043 -66.6243 -66.6243 -66.6012 -66.5967 -66.5967 -62.2635
   -35.5736 -35.5736 -35.5236 -35.5236 -35.5236 -35.5236 -35.4016 -35.4016
   -35.3740 -35.3692 -35.3692 -35.3426 -35.3426 -35.3426 -35.3426 -35.3223
   -35.3222 -35.3178 -35.3178 -35.3177 -35.3177 -31.0898 -31.0818 -31.0816
     6.2178   6.2485   6.4957   6.5407   7.0196   7.0621   7.6588   7.6891
     8.3900   8.4200   8.5475   8.5530   8.6344   8.6432   8.7129   8.7137
     8.7956   8.7980   8.8471   8.8749   8.9269   9.0491   9.1088   9.1251
     9.1942   9.2206   9.2943   9.3956   9.4308   9.4387   9.5268   9.5305
     9.6230   9.6731   9.7604   9.7991   9.8238   9.8440   9.8579   9.8751
     9.8846   9.8875   9.8957   9.9063   9.9248   9.9499  10.0371  10.0645
    10.0695  10.2259  10.3114  10.3246  10.3403  10.3814  10.3926  10.4493
    10.5163  10.5255  10.5617  10.5670  10.5858  10.6173  10.6432  10.6535
    10.6558  10.7547  10.9025  10.9676  11.0392  11.0555  11.0608  11.0892
    11.1035  11.1077  11.1312  11.1377  11.1383  11.1586  11.2333  11.2770
    11.2884  11.3137  11.3978  11.4136  11.4521  11.4583  11.5216  11.5305
    11.5720  11.6227  11.6604  11.7104  11.7186  11.7683  11.8128  11.8395
    11.9143  11.9298  11.9408  11.9892  12.0039  12.0678  12.0770  12.1416
    12.1598  12.1666  12.1832  12.2296  12.3070  12.3161  12.4211  12.4700
    12.5118  12.5661  12.5998  12.7000  12.7194  12.7237  12.8236  12.8383
    12.8449  12.8596  12.8858  12.9191  12.9200  13.5950  13.8031  14.8628
    15.1506  16.3230  16.6469  16.7789  16.8544  16.9447  17.1108  17.6995
    18.9550  19.0622  19.0728  19.1471  19.2205  19.2488  19.4402  19.5603
    19.8405  19.9194

          k = 0.1250 0.2500 0.0000 ( 13846 PWs)   bands (ev):

   -66.8041 -66.8041 -66.6241 -66.6241 -66.6010 -66.5965 -66.5965 -62.2633
   -35.5732 -35.5732 -35.5278 -35.5278 -35.5233 -35.5233 -35.4012 -35.4012
   -35.3736 -35.3689 -35.3689 -35.3468 -35.3468 -35.3423 -35.3423 -35.3264
   -35.3220 -35.3219 -35.3219 -35.3175 -35.3175 -31.0893 -31.0870 -31.0813
     6.8380   6.9674   6.9839   7.3268   7.3659   7.8207   7.8360   8.1670
     8.3225   8.5055   8.5069   8.6852   8.6988   8.7259   8.8119   8.8481
     8.9065   8.9096   8.9880   9.0169   9.0414   9.0853   9.0930   9.1562
     9.1568   9.1717   9.2068   9.2683   9.4212   9.4626   9.4854   9.5066
     9.5323   9.5753   9.5781   9.6223   9.6471   9.6567   9.6637   9.7244
     9.7395   9.7756   9.8216   9.9021   9.9178   9.9615  10.0233  10.1245
    10.2611  10.2913  10.3212  10.3217  10.3386  10.3512  10.3802  10.4268
    10.4635  10.4636  10.5187  10.5978  10.6192  10.6538  10.6554  10.7193
    10.7438  10.7576  10.7926  10.8210  10.8908  10.9368  11.0205  11.1355
    11.2385  11.2478  11.2529  11.3749  11.4235  11.4343  11.4695  11.4856
    11.4923  11.5235  11.5426  11.5641  11.5986  11.6217  11.6329  11.6639
    11.6707  11.7373  11.7629  11.7705  11.7974  11.8541  11.8672  11.9282
    11.9416  11.9448  11.9990  12.0049  12.0347  12.0817  12.0933  12.1152
    12.1755  12.1815  12.2465  12.2563  12.4677  12.4930  12.5773  12.5777
    12.6052  12.6506  12.6979  12.7034  12.7175  12.7647  12.7747  12.8043
    12.8346  12.8356  12.8864  12.9181  13.2739  13.4127  14.4833  14.7297
    15.8513  16.1311  16.4306  16.5100  16.7090  16.8816  16.9475  17.1560
    17.1835  17.2864  17.6307  17.7535  18.3371  18.4753  18.6229  18.7995
    19.1580  20.3260

          k = 0.1250 0.2500-0.0484 ( 13868 PWs)   bands (ev):

   -66.8041 -66.8041 -66.6241 -66.6241 -66.6010 -66.5965 -66.5965 -62.2633
   -35.5732 -35.5732 -35.5278 -35.5278 -35.5233 -35.5233 -35.4012 -35.4012
   -35.3736 -35.3689 -35.3689 -35.3468 -35.3468 -35.3423 -35.3423 -35.3264
   -35.3220 -35.3219 -35.3219 -35.3175 -35.3175 -31.0893 -31.0870 -31.0813
     6.8603   6.8877   7.1155   7.1571   7.5719   7.5989   8.0414   8.0464
     8.4019   8.4051   8.5982   8.6013   8.7427   8.7465   8.7980   8.8042
     8.9435   8.9448   8.9924   9.0232   9.0322   9.0651   9.0672   9.1112
     9.1486   9.1711   9.2118   9.3872   9.4151   9.4632   9.4819   9.5029
     9.5106   9.5376   9.5610   9.6259   9.6359   9.6372   9.6740   9.7241
     9.7280   9.8154   9.8470   9.9042   9.9332   9.9474  10.0418  10.1109
    10.2215  10.2284  10.3189  10.3229  10.3602  10.3653  10.4350  10.4711
    10.4828  10.5084  10.5234  10.5421  10.5568  10.6063  10.6285  10.6997
    10.7663  10.7666  10.8104  10.8624  10.9525  10.9821  11.0262  11.0278
    11.1037  11.2804  11.3846  11.4130  11.4251  11.4292  11.4366  11.4868
    11.4938  11.5238  11.5302  11.5610  11.5817  11.5876  11.6407  11.6788
    11.6886  11.7075  11.7462  11.7983  11.8172  11.8285  11.8743  11.9169
    11.9290  11.9802  11.9928  12.0062  12.0466  12.0894  12.0963  12.1152
    12.1436  12.1888  12.2151  12.3268  12.3553  12.5068  12.5532  12.6061
    12.6221  12.7031  12.7076  12.7237  12.7669  12.7696  12.7950  12.8259
    12.8367  12.8585  12.8873  12.9105  12.9185  13.8334  14.0252  15.1802
    15.4928  16.2911  16.2927  16.6729  16.6945  16.8961  16.9833  17.0009
    17.2630  17.4127  17.5324  17.8945  18.0488  18.2601  18.8805  18.8902
    19.5207  19.5509

          k = 0.1250 0.3750 0.0000 ( 13875 PWs)   bands (ev):

   -66.8045 -66.8045 -66.6245 -66.6245 -66.6014 -66.5969 -66.5969 -62.2624
   -35.5729 -35.5729 -35.5318 -35.5318 -35.5231 -35.5231 -35.4008 -35.4008
   -35.3732 -35.3685 -35.3685 -35.3508 -35.3508 -35.3421 -35.3421 -35.3305
   -35.3260 -35.3260 -35.3217 -35.3172 -35.3172 -31.0923 -31.0888 -31.0810
     7.7050   7.8125   7.8289   8.0807   8.0971   8.2897   8.3004   8.3205
     8.3516   8.3540   8.3758   8.4177   8.4352   8.5635   8.5967   8.7466
     8.8582   8.8796   8.9829   9.0176   9.0874   9.1424   9.2096   9.2116
     9.2259   9.2274   9.2784   9.3149   9.3358   9.3386   9.3678   9.4126
     9.4281   9.4589   9.4902   9.5027   9.5187   9.5467   9.6057   9.6944
     9.7190   9.7949   9.8670   9.8797   9.8986  10.0790  10.1598  10.1997
    10.2178  10.2978  10.3519  10.3579  10.4254  10.4400  10.4733  10.4977
    10.5492  10.5961  10.6145  10.7325  10.8338  10.8408  10.8800  10.9067
    11.0116  11.0714  11.0767  11.1622  11.2096  11.2291  11.3204  11.3238
    11.4034  11.4181  11.4539  11.4868  11.5289  11.5498  11.5730  11.5765
    11.6085  11.6642  11.6758  11.6767  11.6892  11.7148  11.7418  11.7830
    11.8012  11.8075  11.8185  11.8487  11.8771  11.8901  11.9015  11.9268
    11.9597  11.9602  12.0072  12.0148  12.0457  12.1016  12.1989  12.2114
    12.3396  12.4124  12.4271  12.4766  12.5005  12.5105  12.5295  12.5451
    12.5675  12.6291  12.6831  12.7366  12.7904  12.8595  12.8829  12.8898
    12.9062  12.9259  13.2580  13.3320  13.8262  13.9299  14.3519  14.6332
    14.6606  14.7376  14.7999  15.4517  15.5061  15.6545  15.6666  16.2575
    16.2840  16.6167  16.6386  16.8850  17.1001  17.1096  17.5896  18.0006
    19.3304  19.3530

          k = 0.1250 0.3750-0.0484 ( 13882 PWs)   bands (ev):

   -66.8045 -66.8045 -66.6245 -66.6245 -66.6014 -66.5969 -66.5969 -62.2624
   -35.5729 -35.5729 -35.5318 -35.5318 -35.5231 -35.5231 -35.4008 -35.4008
   -35.3732 -35.3685 -35.3685 -35.3508 -35.3508 -35.3421 -35.3421 -35.3305
   -35.3260 -35.3260 -35.3217 -35.3172 -35.3172 -31.0923 -31.0888 -31.0810
     7.7245   7.7470   7.9304   7.9620   8.2137   8.2149   8.3136   8.3282
     8.3469   8.3674   8.3811   8.3844   8.4795   8.5076   8.6662   8.6910
     8.8874   8.8913   8.9435   9.0072   9.1302   9.1604   9.2204   9.2254
     9.2278   9.2398   9.2641   9.2811   9.2895   9.2911   9.3988   9.4157
     9.4202   9.4411   9.4937   9.4953   9.5343   9.6471   9.6510   9.6800
     9.7211   9.7455   9.8157   9.8359   9.9461  10.0182  10.2019  10.2281
    10.2708  10.3086  10.3657  10.3664  10.3905  10.3933  10.4600  10.4618
    10.6049  10.6160  10.6534  10.6621  10.7914  10.8365  10.9224  10.9516
    11.0169  11.0377  11.0768  11.1103  11.1815  11.2367  11.3308  11.3818
    11.4166  11.4424  11.4600  11.4999  11.5269  11.5555  11.5586  11.5775
    11.5824  11.6327  11.6495  11.6694  11.7139  11.7365  11.7365  11.7593
    11.7881  11.8054  11.8385  11.8636  11.8669  11.8990  11.9082  11.9280
    11.9579  11.9637  12.0062  12.0110  12.0414  12.1022  12.1630  12.2850
    12.3238  12.4045  12.4063  12.4629  12.4662  12.5221  12.5305  12.5841
    12.6019  12.6445  12.6652  12.7438  12.7483  12.8140  12.8522  12.9009
    12.9252  13.0723  13.0846  13.5274  13.5770  14.2065  14.3309  14.4440
    14.4751  14.9947  15.1083  15.1414  15.2091  15.8775  15.9018  16.1785
    16.1976  16.5854  16.6490  16.8901  17.1026  17.1183  17.5893  18.0064
    19.4530  19.4765

          k = 0.1250-0.5000 0.0000 ( 13890 PWs)   bands (ev):

   -66.8049 -66.8049 -66.6249 -66.6249 -66.6018 -66.5973 -66.5973 -62.2619
   -35.5727 -35.5727 -35.5335 -35.5335 -35.5230 -35.5230 -35.4006 -35.4006
   -35.3731 -35.3683 -35.3683 -35.3525 -35.3525 -35.3419 -35.3419 -35.3322
   -35.3277 -35.3277 -35.3216 -35.3171 -35.3171 -31.0946 -31.0886 -31.0808
     8.2417   8.2584   8.2747   8.2784   8.3020   8.3050   8.3199   8.3493
     8.4476   8.5085   8.5306   8.5464   8.5500   8.5806   8.5908   8.6381
     8.6956   8.7209   8.8666   8.8784   8.9843   9.0161   9.1055   9.1083
     9.1374   9.1496   9.2058   9.2119   9.2374   9.2674   9.3272   9.3669
     9.4208   9.4792   9.6163   9.6169   9.6394   9.6486   9.7467   9.7613
     9.7848   9.7941   9.7964   9.8338   9.8931   9.9148   9.9346  10.2648
    10.3282  10.3571  10.3654  10.4171  10.4715  10.4836  10.5331  10.5777
    10.6449  10.6989  10.6991  10.7988  10.8155  10.9236  10.9650  11.0124
    11.1447  11.2420  11.2422  11.3122  11.3458  11.3478  11.4423  11.4524
    11.5071  11.5202  11.5401  11.5475  11.5817  11.6021  11.6079  11.6889
    11.7126  11.7468  11.7653  11.7829  11.7835  11.8446  11.8628  11.8850
    11.9492  11.9769  12.0154  12.0181  12.0429  12.0754  12.0880  12.1076
    12.1080  12.1146  12.1402  12.1504  12.1566  12.1931  12.2145  12.2833
    12.2881  12.3060  12.3464  12.4600  12.4926  12.5244  12.6309  12.6312
    12.6436  12.6543  12.6707  12.6855  12.6864  12.9105  12.9158  12.9436
    12.9438  13.3355  13.3572  13.3817  13.5406  13.9075  13.9460  13.9761
    14.0362  14.5052  14.5273  14.5485  14.7138  15.1428  15.2200  15.2844
    15.3401  15.6831  15.7010  16.8071  16.8651  16.9692  17.5959  17.9142
    19.2932  19.3083

          k = 0.1250-0.5000-0.0484 ( 13872 PWs)   bands (ev):

   -66.8049 -66.8049 -66.6249 -66.6249 -66.6018 -66.5973 -66.5973 -62.2619
   -35.5727 -35.5727 -35.5335 -35.5335 -35.5230 -35.5230 -35.4006 -35.4006
   -35.3731 -35.3683 -35.3683 -35.3525 -35.3525 -35.3419 -35.3419 -35.3322
   -35.3277 -35.3277 -35.3216 -35.3171 -35.3171 -31.0946 -31.0886 -31.0808
     8.2409   8.2644   8.2670   8.2889   8.2945   8.3028   8.3191   8.3511
     8.4480   8.5094   8.5366   8.5397   8.5596   8.5751   8.5783   8.6406
     8.6980   8.7486   8.8310   8.8598   9.0247   9.0265   9.0998   9.1175
     9.1337   9.1405   9.2023   9.2056   9.2497   9.2687   9.3146   9.3197
     9.4770   9.4806   9.5656   9.6193   9.6800   9.6962   9.7034   9.7251
     9.7980   9.8103   9.8244   9.8264   9.8679   9.9225   9.9441  10.2426
    10.2905  10.3329  10.3756  10.4171  10.4557  10.5303  10.5404  10.5657
    10.6873  10.7247  10.7681  10.8156  10.8207  10.8770  10.8914  10.9856
    11.1741  11.1787  11.1981  11.2798  11.3752  11.4503  11.4512  11.4662
    11.4904  11.5165  11.5585  11.5735  11.5972  11.6040  11.6080  11.6856
[...]
    11.8483  11.8631  11.9917  12.0495  12.0542  12.0741  12.1083  12.1250
    12.1428  12.2030  12.2108  12.2460  12.3793  12.4838  12.5731  12.5746
    12.6620  12.6771  12.7939  12.8367  13.0515  13.2316  13.5914  13.6416
    14.1441  14.2265  14.7065  14.8629  15.1340  15.2709  15.3248  15.3959
    15.4982  15.6026  15.6088  15.9754  16.1436  16.8352  16.8511  16.8754
    16.8865  16.9174  16.9298  17.0433  17.0630  17.1416  17.1793  17.1850
    17.2048  17.2099  17.2259  17.2606  17.3642  17.4124  17.4625  17.4712
    17.5064  17.5347  17.9768  17.9775  18.0206  18.1675  18.2163  18.2479
    18.3352  18.3451  18.4399  18.4829  18.5313  18.9360  19.1549  19.2475
    19.5859  19.9667

          k = 0.2500 0.3750-0.0484 ( 13916 PWs)   bands (ev):

   -66.8502 -62.2039 -62.2039 -62.0698 -62.0698 -62.0562 -62.0469 -62.0469
   -35.6202 -35.5766 -35.5723 -31.0361 -31.0361 -31.0304 -31.0304 -31.0265
   -31.0265 -30.9023 -30.9023 -30.8995 -30.8995 -30.8938 -30.8938 -30.8879
   -30.8858 -30.8821 -30.8787 -30.8787 -30.8759 -30.8759 -30.8730 -30.8730
     8.0085   8.2651   8.4106   8.4455   8.6368   8.7670   8.8131   8.8249
     8.8434   8.9756   9.0758   9.1811   9.2262   9.2334   9.2458   9.2494
     9.3006   9.3248   9.3530   9.3860   9.4881   9.5188   9.5891   9.6041
     9.6393   9.6479   9.6691   9.6733   9.7374   9.7435   9.7765   9.7964
     9.8038   9.8348   9.8838   9.9095   9.9396  10.0315  10.0880  10.1074
    10.1744  10.1823  10.4234  10.5058  10.5214  10.5363  10.5812  10.5831
    10.5908  10.6211  10.7080  10.7097  10.7599  10.8207  10.8237  10.8566
    10.8735  10.8867  10.9821  11.0998  11.1209  11.1301  11.2121  11.2354
    11.3030  11.3382  11.3579  11.4118  11.4753  11.5676  11.6844  11.6944
    11.8497  11.9397  12.0061  12.0082  12.0532  12.0773  12.0809  12.1408
    12.1598  12.1804  12.2232  12.2498  12.3775  12.4838  12.5607  12.6097
    12.6142  12.7260  12.7510  12.8724  13.0090  13.3211  13.4226  13.8798
    13.9015  14.4232  14.5558  14.9509  15.1516  15.2155  15.3025  15.4631
    15.4639  15.6063  15.6092  15.9743  16.1437  16.8433  16.8465  16.8612
    16.9099  16.9122  16.9219  17.0339  17.0867  17.1221  17.1666  17.1877
    17.2075  17.2179  17.2246  17.2852  17.3332  17.4400  17.4512  17.4665
    17.5076  17.5348  17.9590  17.9849  18.0985  18.1155  18.1885  18.1927
    18.2976  18.3630  18.4634  18.5267  18.7057  18.7884  19.0726  19.2750
    19.5841  19.9760

          k = 0.2500-0.5000 0.0000 ( 13940 PWs)   bands (ev):

   -66.8504 -62.2035 -62.2035 -62.0694 -62.0694 -62.0558 -62.0465 -62.0465
   -35.6201 -35.5782 -35.5721 -31.0383 -31.0383 -31.0302 -31.0302 -31.0263
   -31.0263 -30.9021 -30.9021 -30.9018 -30.9018 -30.8936 -30.8936 -30.8901
   -30.8856 -30.8819 -30.8810 -30.8810 -30.8757 -30.8757 -30.8728 -30.8728
     8.4192   8.4354   8.6988   8.7286   8.7444   8.7650   8.7706   8.8237
     8.8438   8.8441   9.0007   9.1263   9.1367   9.1386   9.1431   9.1509
     9.1948   9.3024   9.3059   9.3301   9.4848   9.5465   9.5614   9.5724
     9.6172   9.6499   9.6519   9.6677   9.6738   9.6785   9.7712   9.7794
     9.7882   9.8670   9.9383   9.9781  10.0080  10.0140  10.0656  10.0750
    10.3252  10.3816  10.4376  10.7026  10.7133  10.7955  10.8180  10.8319
    10.8404  10.8636  10.8943  10.8971  10.9277  10.9579  10.9648  10.9664
    10.9718  11.0110  11.0716  11.1862  11.1953  11.2107  11.2138  11.2164
    11.2196  11.2803  11.4785  11.6167  11.8039  11.8332  11.8715  11.8868
    11.8887  11.8890  11.8921  11.9428  12.0214  12.1850  12.2462  12.2967
    12.3060  12.3306  12.3651  12.4756  12.4806  12.7308  12.7682  12.8872
    12.9043  12.9230  12.9612  13.0604  13.2061  13.5753  13.6217  13.7658
    13.8072  13.8164  13.9205  14.1768  14.4270  14.4591  14.5487  14.8028
    14.8815  14.9552  15.0036  15.4264  16.0813  16.8662  16.9264  16.9400
    16.9623  16.9921  16.9970  17.0522  17.0580  17.0705  17.1129  17.1155
    17.1332  17.1528  17.1573  17.4450  17.4536  17.4595  17.4743  17.4995
    17.5116  17.7922  17.8222  18.1053  18.1333  18.1963  18.2121  18.2134
    18.2371  18.2722  18.3621  18.4018  18.4295  18.4386  18.6972  18.7228
    19.8407  19.9068

          k = 0.2500-0.5000-0.0484 ( 13912 PWs)   bands (ev):

   -66.8504 -62.2035 -62.2035 -62.0694 -62.0694 -62.0558 -62.0465 -62.0465
   -35.6201 -35.5782 -35.5721 -31.0383 -31.0383 -31.0302 -31.0302 -31.0263
   -31.0263 -30.9021 -30.9021 -30.9018 -30.9018 -30.8936 -30.8936 -30.8901
   -30.8856 -30.8819 -30.8810 -30.8810 -30.8757 -30.8757 -30.8728 -30.8728
     8.4192   8.4355   8.6888   8.7242   8.7645   8.7672   8.7790   8.8235
     8.8294   8.8404   8.9983   9.1303   9.1321   9.1387   9.1466   9.1511
     9.1980   9.2994   9.3121   9.3305   9.4874   9.5222   9.5484   9.5854
     9.6318   9.6332   9.6610   9.6642   9.7032   9.7077   9.7238   9.7459
     9.8140   9.8947   9.9280   9.9607  10.0021  10.0319  10.0686  10.0693
    10.3251  10.3816  10.4366  10.7042  10.7149  10.8058  10.8093  10.8320
    10.8330  10.8626  10.8768  10.9333  10.9341  10.9365  10.9632  10.9661
    10.9716  11.0145  11.0703  11.1887  11.1964  11.2076  11.2148  11.2164
    11.2178  11.2809  11.4784  11.6167  11.8040  11.8331  11.8705  11.8868
    11.8887  11.8889  11.8938  11.9429  12.0214  12.1965  12.2414  12.2523
    12.2979  12.3953  12.4030  12.4378  12.4481  12.7707  12.8056  12.8145
    12.8468  12.9895  12.9930  13.0318  13.1979  13.6268  13.6493  13.6525
    13.7415  13.9399  13.9753  14.0739  14.3731  14.5520  14.6713  14.6861
    14.7810  15.0154  15.0356  15.4186  16.0810  16.8679  16.9273  16.9388
    16.9591  16.9926  16.9991  17.0470  17.0652  17.0692  17.1092  17.1181
    17.1310  17.1531  17.1588  17.4428  17.4521  17.4564  17.4884  17.4989
    17.5049  17.7922  17.8222  18.1049  18.1347  18.1964  18.2115  18.2116
    18.2449  18.2875  18.3151  18.3361  18.5126  18.5549  18.6415  18.6430
    19.9808  20.0768

          k = 0.3750 0.3750 0.0000 ( 13948 PWs)   bands (ev):

   -66.8500 -62.2037 -62.2037 -62.0696 -62.0696 -62.0560 -62.0467 -62.0467
   -35.6200 -35.5762 -35.5762 -31.0357 -31.0357 -31.0355 -31.0355 -31.0262
   -31.0262 -30.9020 -30.9020 -30.8991 -30.8991 -30.8989 -30.8989 -30.8875
   -30.8872 -30.8854 -30.8783 -30.8783 -30.8781 -30.8781 -30.8756 -30.8756
     8.1261   8.4421   8.4758   8.4968   8.7309   8.7335   8.8241   8.8395
     9.0001   9.1280   9.1351   9.2092   9.2800   9.2829   9.2932   9.3340
     9.3477   9.4041   9.4159   9.4173   9.4807   9.4998   9.5284   9.5290
     9.5341   9.5951   9.6069   9.6391   9.7146   9.7383   9.7412   9.9173
     9.9281  10.0167  10.0388  10.0822  10.1204  10.1332  10.2056  10.3307
    10.4194  10.4213  10.4789  10.5318  10.6204  10.6340  10.6460  10.6592
    10.6966  10.7660  10.7933  10.8233  10.9084  10.9584  11.0310  11.0343
    11.1103  11.1450  11.2134  11.2441  11.4237  11.4477  11.4922  11.5160
    11.5539  11.5615  11.5819  11.5950  11.7305  11.8153  11.8289  11.9110
    11.9237  11.9687  11.9740  12.0021  12.0130  12.0810  12.0974  12.1091
    12.1148  12.1882  12.2106  12.2500  12.3597  12.5078  12.6258  12.6276
    12.8494  12.8812  13.0698  13.0983  13.3984  13.6991  13.9229  14.0639
    14.3890  14.5078  14.7741  14.8123  15.0705  15.1629  15.1965  15.2969
    15.3609  15.4439  15.4974  16.2825  16.3905  16.8828  16.9879  16.9924
    17.0221  17.0680  17.0845  17.0985  17.1251  17.1263  17.1566  17.1994
    17.2598  17.3298  17.4625  17.4879  17.6011  17.6235  17.7405  17.7950
    17.8243  17.8741  17.8894  18.1034  18.1994  18.2607  18.3543  18.3837
    18.4237  18.4530  18.4638  18.4875  18.8658  18.9829  19.1478  19.1568
    19.1687  19.2035

          k = 0.3750 0.3750-0.0484 ( 13950 PWs)   bands (ev):

   -66.8500 -62.2037 -62.2037 -62.0696 -62.0696 -62.0560 -62.0467 -62.0467
   -35.6200 -35.5762 -35.5762 -31.0357 -31.0357 -31.0355 -31.0355 -31.0262
   -31.0262 -30.9020 -30.9020 -30.8991 -30.8991 -30.8989 -30.8989 -30.8875
   -30.8872 -30.8854 -30.8783 -30.8783 -30.8781 -30.8781 -30.8756 -30.8756
     8.1263   8.4358   8.4528   8.5836   8.6023   8.7958   8.8442   8.8455
     9.0028   9.0929   9.1567   9.1629   9.2801   9.3009   9.3044   9.3398
     9.3813   9.3930   9.4263   9.4518   9.4556   9.4620   9.5060   9.5139
     9.5568   9.6212   9.6214   9.6258   9.6716   9.7073   9.8721   9.8725
     9.9380   9.9508  10.0139  10.0841  10.1452  10.1982  10.2468  10.2800
    10.3068  10.4943  10.5162  10.5736  10.5968  10.5978  10.6118  10.6759
    10.7143  10.7485  10.7849  10.8703  10.9112  10.9114  11.0213  11.0618
    11.1150  11.1482  11.2148  11.2335  11.4198  11.4562  11.4829  11.5242
    11.5456  11.5677  11.5801  11.5953  11.7477  11.7716  11.8921  11.8964
    11.9110  11.9237  11.9947  12.0359  12.0410  12.0485  12.0505  12.1331
    12.1419  12.1828  12.1864  12.2636  12.3580  12.5217  12.5624  12.7300
    12.7484  12.9696  13.0021  13.1283  13.3909  13.7307  13.8557  14.1532
    14.2878  14.6108  14.6893  14.8464  15.0742  15.1429  15.2282  15.2738
    15.3710  15.4408  15.4980  16.2825  16.3901  16.9043  16.9312  17.0215
    17.0282  17.0616  17.0962  17.0983  17.1190  17.1257  17.1715  17.1752
    17.3010  17.3210  17.4229  17.4915  17.6070  17.6363  17.7316  17.7962
    17.8243  17.8691  17.9014  18.1479  18.1970  18.2425  18.2778  18.2992
    18.3187  18.6293  18.7063  18.7326  18.7348  18.7487  18.7664  19.0488
    19.1538  19.2421

          k = 0.3750-0.5000 0.0000 ( 13934 PWs)   bands (ev):

   -66.8500 -62.2035 -62.2035 -62.0694 -62.0694 -62.0558 -62.0465 -62.0465
   -35.6199 -35.5778 -35.5760 -31.0378 -31.0378 -31.0354 -31.0354 -31.0261
   -31.0261 -30.9018 -30.9018 -30.9012 -30.9012 -30.8988 -30.8988 -30.8896
   -30.8871 -30.8853 -30.8804 -30.8804 -30.8780 -30.8780 -30.8754 -30.8754
     8.2363   8.2678   8.6090   8.6200   8.6284   8.6585   8.7907   8.8046
     8.9906   9.0479   9.1215   9.1384   9.2270   9.2645   9.2736   9.2881
     9.3067   9.3456   9.3460   9.3756   9.4338   9.4395   9.4889   9.4938
     9.5109   9.5368   9.6712   9.6845   9.7068   9.7147   9.9138   9.9538
     9.9666   9.9801  10.0374  10.0436  10.1769  10.3320  10.3478  10.3561
    10.4065  10.5336  10.5504  10.6275  10.6424  10.6695  10.6972  10.6991
    10.8346  10.8681  10.8964  11.0182  11.0892  11.1580  11.1832  11.2715
    11.2895  11.3311  11.3945  11.4518  11.5620  11.6171  11.6496  11.7039
    11.7149  11.7284  11.7611  11.7812  11.9069  11.9237  11.9471  11.9846
    11.9860  12.0104  12.0104  12.0494  12.0657  12.1377  12.2202  12.2354
    12.2614  12.2642  12.3013  12.3518  12.3695  12.9063  12.9609  13.0428
    13.0644  13.0928  13.1264  13.2100  13.6522  14.1244  14.2141  14.2485
    14.2854  14.3270  14.4403  14.4455  14.5804  14.6086  14.7317  14.7536
    14.8461  14.8515  15.3442  15.6977  16.7450  16.9902  17.0145  17.0244
    17.0379  17.0400  17.0633  17.0786  17.0812  17.0932  17.1038  17.1981
    17.3202  17.3733  17.4353  17.7287  17.8097  17.8319  17.8984  17.9526
    17.9851  18.0389  18.0528  18.1081  18.1487  18.2357  18.2565  18.2620
    18.3731  18.5038  18.7372  18.7570  18.7594  18.7692  18.8905  19.0488
    19.1720  19.4402

          k = 0.3750-0.5000-0.0484 ( 13940 PWs)   bands (ev):

   -66.8500 -62.2035 -62.2035 -62.0694 -62.0694 -62.0558 -62.0465 -62.0465
   -35.6199 -35.5778 -35.5760 -31.0378 -31.0378 -31.0354 -31.0354 -31.0261
   -31.0261 -30.9018 -30.9018 -30.9012 -30.9012 -30.8988 -30.8988 -30.8896
   -30.8871 -30.8853 -30.8804 -30.8804 -30.8780 -30.8780 -30.8754 -30.8754
     8.2363   8.2680   8.5877   8.5979   8.6882   8.7067   8.7345   8.7619
     9.0703   9.0861   9.1247   9.1250   9.1410   9.1975   9.2640   9.3192
     9.3325   9.3493   9.3726   9.4016   9.4265   9.4401   9.4799   9.4826
     9.5270   9.5829   9.5956   9.6123   9.7930   9.8191   9.8333   9.8518
     9.9730   9.9744  10.1105  10.1520  10.1791  10.2125  10.2268  10.4786
    10.4965  10.5090  10.5413  10.5899  10.6329  10.6575  10.7232  10.7491
    10.7603  10.7993  10.9942  11.0309  11.1250  11.1631  11.1636  11.1643
    11.3108  11.3797  11.4180  11.4245  11.5423  11.6295  11.6721  11.6772
    11.7026  11.7591  11.7592  11.7676  11.9155  11.9188  11.9550  11.9729
    11.9772  12.0146  12.0173  12.0482  12.0656  12.1384  12.2160  12.2195
    12.2598  12.2985  12.3319  12.3323  12.3430  12.9296  12.9780  12.9913
    13.0353  13.1369  13.1399  13.1955  13.6516  14.1331  14.2099  14.2237
    14.3029  14.3477  14.3952  14.4884  14.5426  14.6384  14.7292  14.7459
    14.8469  14.8536  15.3442  15.6976  16.7448  16.9932  17.0148  17.0166
    17.0348  17.0493  17.0618  17.0635  17.0706  17.0933  17.1702  17.2125
    17.2267  17.3468  17.5481  17.6849  17.7514  17.8741  17.9197  17.9568
    17.9962  18.0003  18.0914  18.0931  18.1956  18.2010  18.2265  18.2609
    18.3403  18.5088  18.7284  18.7291  18.8266  18.8811  18.9685  18.9867
    19.0022  19.4232

          k =-0.5000-0.5000 0.0000 ( 13964 PWs)   bands (ev):

   -66.8500 -62.2034 -62.2034 -62.0692 -62.0692 -62.0556 -62.0463 -62.0463
   -35.6198 -35.5776 -35.5776 -31.0376 -31.0376 -31.0376 -31.0376 -31.0259
   -31.0259 -30.9017 -30.9017 -30.9010 -30.9010 -30.9010 -30.9010 -30.8893
   -30.8893 -30.8852 -30.8802 -30.8802 -30.8802 -30.8802 -30.8753 -30.8753
     8.1540   8.1947   8.5592   8.5677   8.5907   8.6090   8.7596   8.7843
     8.9122   8.9734   9.2103   9.2180   9.2180   9.2330   9.2366   9.2380
     9.3231   9.3231   9.3285   9.3285   9.4324   9.4410   9.4612   9.4612
     9.4671   9.4671   9.7106   9.7106   9.7126   9.7126   9.8918   9.8918
     9.9027  10.0399  10.0399  10.0906  10.0906  10.4899  10.4899  10.5039
    10.5453  10.5453  10.5963  10.5971  10.6346  10.6515  10.7102  10.7121
    10.9866  10.9866  11.0820  11.0820  11.1143  11.2342  11.3596  11.4668
    11.4668  11.5892  11.5892  11.8777  11.9318  11.9329  11.9401  11.9401
    11.9676  12.0038  12.0038  12.0053  12.0078  12.0079  12.0398  12.0402
    12.0971  12.0971  12.0975  12.1003  12.1004  12.1010  12.1727  12.2271
    12.2287  12.2362  12.2479  12.2513  12.2818  13.3523  13.3649  13.3988
    13.4102  13.4122  13.4213  13.4280  13.9048  13.9048  14.1225  14.1225
    14.2201  14.2201  14.4774  14.4774  14.5999  14.5999  14.7703  14.7703
    14.8593  14.8593  15.8685  15.8685  16.5751  16.7372  16.7796  16.8561
    16.8677  16.9145  16.9806  17.1278  17.1302  17.1302  17.1815  17.1815
    17.5782  17.5782  17.6813  17.6813  17.7450  17.7572  17.9260  18.0467
    18.0467  18.1392  18.1474  18.1947  18.1947  18.2002  18.2104  18.2104
    18.2181  18.4596  18.4596  18.4696  18.5136  18.5136  18.6584  18.7553
    18.8509  18.8752

          k =-0.5000-0.5000-0.0484 ( 13992 PWs)   bands (ev):

   -66.8500 -62.2034 -62.2034 -62.0692 -62.0692 -62.0556 -62.0463 -62.0463
   -35.6198 -35.5776 -35.5776 -31.0376 -31.0376 -31.0376 -31.0376 -31.0259
   -31.0259 -30.9017 -30.9017 -30.9010 -30.9010 -30.9010 -30.9010 -30.8893
   -30.8893 -30.8852 -30.8802 -30.8802 -30.8802 -30.8802 -30.8753 -30.8753
     8.1540   8.1948   8.5401   8.5464   8.6459   8.6793   8.6847   8.7180
     9.0143   9.0689   9.0735   9.0762   9.2183   9.2183   9.3059   9.3059
     9.3398   9.3635   9.3749   9.3749   9.3863   9.3863   9.3946   9.4010
     9.5740   9.5740   9.5751   9.5751   9.8732   9.8732   9.8743   9.8743
     9.8935   9.8935   9.9039  10.2562  10.2562  10.3063  10.3063  10.5129
    10.5721  10.5956  10.6534  10.6562  10.7059  10.7095  10.7356  10.7356
    10.8058  10.8058  11.1143  11.2342  11.2376  11.2376  11.3532  11.3532
    11.3596  11.6392  11.6392  11.8777  11.9318  11.9329  11.9337  11.9337
    11.9676  12.0038  12.0038  12.0053  12.0078  12.0079  12.0398  12.0402
    12.0971  12.0971  12.0975  12.1003  12.1004  12.1010  12.1724  12.2265
    12.2312  12.2371  12.2452  12.2510  12.2823  13.3526  13.3646  13.3988
    13.4102  13.4125  13.4213  13.4278  13.9184  13.9184  14.0685  14.0685
    14.3012  14.3012  14.4111  14.4111  14.6366  14.6366  14.7563  14.7563
    14.8623  14.8623  15.8685  15.8685  16.5747  16.7563  16.7783  16.8011
    16.8719  16.9766  16.9847  17.0844  17.0943  17.0943  17.2932  17.2932
    17.3810  17.3810  17.7942  17.8455  17.8635  17.9269  17.9746  17.9746
    18.0467  18.0467  18.0646  18.0646  18.1896  18.1947  18.1947  18.2002
    18.2104  18.2104  18.4464  18.4470  18.5202  18.7638  18.8701  18.9033
    18.9801  18.9843

     the Fermi energy is    15.2359 ev

!    total energy              =  -14694.00806455 Ry
     Harris-Foulkes estimate   =  -14694.00805878 Ry
     estimated scf accuracy    <       0.00000075 Ry

     total all-electron energy =   -626921.603786 Ry

     The total energy is the sum of the following terms:

     one-electron contribution =    -714.68112028 Ry
     hartree contribution      =     656.68135858 Ry
     xc contribution           =    -737.85324038 Ry
     ewald contribution        =   -2196.78933708 Ry
     Hubbard energy            =       0.45965075 Ry
     one-center paw contrib.   =  -11701.82537614 Ry

     total magnetization       =    25.80 Bohr mag/cell
     absolute magnetization    =    37.04 Bohr mag/cell

     convergence has been achieved in  24 iterations

     Writing output data file mnau2.save/
 
     init_run     :     58.76s CPU     60.84s WALL (       1 calls)
     electrons    :   2954.80s CPU   3052.08s WALL (       1 calls)

     Called by init_run:
     wfcinit      :     53.96s CPU     55.54s WALL (       1 calls)
     potinit      :      2.40s CPU      2.49s WALL (       1 calls)
     hinit0       :      1.73s CPU      2.04s WALL (       1 calls)

     Called by electrons:
     c_bands      :   2652.43s CPU   2738.32s WALL (      24 calls)
     sum_band     :    250.27s CPU    259.04s WALL (      24 calls)
     v_of_rho     :      4.86s CPU      4.95s WALL (      25 calls)
     newd         :     12.11s CPU     13.39s WALL (      25 calls)
     PAW_pot      :     35.42s CPU     35.98s WALL (      25 calls)
     mix_rho      :      1.12s CPU      1.17s WALL (      24 calls)

     Called by c_bands:
     init_us_2    :      4.99s CPU      5.03s WALL (    3000 calls)
     cegterg      :   2563.92s CPU   2647.75s WALL (    1440 calls)

     Called by sum_band:
     sum_band:bec :      1.30s CPU      1.32s WALL (    1440 calls)
     addusdens    :     10.19s CPU     11.26s WALL (      24 calls)

     Called by *egterg:
     h_psi        :    964.23s CPU    993.38s WALL (    5089 calls)
     s_psi        :     88.45s CPU     88.83s WALL (    5149 calls)
     g_psi        :      2.68s CPU      2.71s WALL (    3589 calls)
     cdiaghg      :    677.84s CPU    709.00s WALL (    5029 calls)

     Called by h_psi:
     h_psi:pot    :    847.09s CPU    871.50s WALL (    5089 calls)
     h_psi:calbec :    174.18s CPU    182.48s WALL (    5089 calls)
     vloc_psi     :    586.35s CPU    602.30s WALL (    5089 calls)
     add_vuspsi   :     86.50s CPU     86.67s WALL (    5089 calls)
     vhpsi        :    115.68s CPU    118.45s WALL (    5089 calls)

     General routines
     calbec       :    366.31s CPU    381.19s WALL (   13118 calls)
     fft          :      6.40s CPU      6.85s WALL (     621 calls)
     ffts         :      0.11s CPU      0.11s WALL (      98 calls)
     fftw         :    691.35s CPU    710.06s WALL ( 1362630 calls)
     interpolate  :      0.25s CPU      0.26s WALL (      50 calls)
     davcio       :      0.01s CPU      0.66s WALL (      60 calls)
 
     Parallel routines
     fft_scatt_xy :     31.34s CPU     32.07s WALL ( 1363349 calls)
     fft_scatt_yz :    522.92s CPU    537.68s WALL ( 1363349 calls)

     Hubbard U routines
     new_ns       :     10.50s CPU     11.06s WALL (      24 calls)
     vhpsi        :    115.68s CPU    118.45s WALL (    5089 calls)
 
     PWSCF        : 51m 4.28s CPU    54m53.87s WALL

 
   This run was terminated on:  21:57:22   6Apr2019            

=------------------------------------------------------------------------------=
   JOB DONE.
=------------------------------------------------------------------------------=
