
     Program PWSCF v.6.3MaX starts on  6Apr2019 at 21:57:23 

     This program is part of the open-source Quantum ESPRESSO suite
     for quantum simulation of materials; please cite
         "P. Giannozzi et al., J. Phys.:Condens. Matter 21 395502 (2009);
         "P. Giannozzi et al., J. Phys.:Condens. Matter 29 465901 (2017);
          URL http://www.quantum-espresso.org", 
     in publications or presentations arising from this work. More details at
     http://www.quantum-espresso.org/quote

     Parallel version (MPI), running on    16 processors

     MPI processes distributed on     7 nodes
     R & G space division:  proc/nbgrp/npool/nimage =      16
     Waiting for input...
     Reading input from standard input

     Current dimensions of program PWSCF are:
     Max number of different atomic species (ntypx) = 10
     Max number of k-points (npk) =  40000
     Max angular momentum in pseudopotentials (lmaxx) =  3
               file Mn.pbe-spn-kjpaw_psl.0.3.1.UPF: wavefunction(s)  3P 3D renormalized
               file Mn.pbe-spn-kjpaw_psl.0.3.1.UPF: wavefunction(s)  3P 3D renormalized
               file Au.pbe-dn-kjpaw_psl.0.1.UPF: wavefunction(s)  6S 6P 5D renormalized

     Subspace diagonalization in iterative solution of the eigenvalue problem:
     one sub-group per band group will be used
     scalapack distributed-memory algorithm (size of sub-group:  2*  2 procs)

 
     Parallelization info
     --------------------
     sticks:   dense  smooth     PW     G-vecs:    dense   smooth      PW
     Min          82      37     11                23002     6955    1163
     Max          83      38     12                23036     6988    1204
     Sum        1313     593    177               368373   111379   18691
 


     bravais-lattice index     =            0
     lattice parameter (alat)  =       6.4153  a.u.
     unit-cell volume          =    2724.7774 (a.u.)^3
     number of atoms/cell      =           24
     number of atomic types    =            3
     number of electrons       =       296.00
     number of Kohn-Sham states=          178
     kinetic-energy cutoff     =      45.0000  Ry
     charge density cutoff     =     400.0000  Ry
     convergence threshold     =      1.0E-06
     mixing beta               =       0.1000
     number of iterations used =            8  plain     mixing
     Exchange-correlation      = SLA PW PBX PBC ( 1  4  3  4 0 0)

     celldm(1)=   6.415315  celldm(2)=   0.000000  celldm(3)=   0.000000
     celldm(4)=   0.000000  celldm(5)=   0.000000  celldm(6)=   0.000000

     crystal axes: (cart. coord. in units of alat)
               a(1) = (   1.000000   0.000000   0.000000 )  
               a(2) = (   0.000000   1.000000   0.000000 )  
               a(3) = (   0.000000   0.000000  10.319937 )  

     reciprocal axes: (cart. coord. in units 2 pi/alat)
               b(1) = (  1.000000  0.000000  0.000000 )  
               b(2) = (  0.000000  1.000000  0.000000 )  
               b(3) = (  0.000000  0.000000  0.096900 )  


     PseudoPot. # 1 for Mn read from file:
     ./pseudo/Mn.pbe-spn-kjpaw_psl.0.3.1.UPF
     MD5 check sum: 7b43a3fb0e93e198b8dd8488d8cf503e
     Pseudo is Projector augmented-wave + core cor, Zval = 15.0
     Generated using "atomic" code by A. Dal Corso v.5.0.99 svn rev. 10869
     Shape of augmentation charge: PSQ
     Using radial grid of 1187 points,  6 beta functions with: 
                l(1) =   0
                l(2) =   0
                l(3) =   1
                l(4) =   1
                l(5) =   2
                l(6) =   2
     Q(r) pseudized with 0 coefficients 


     PseudoPot. # 2 for Mn read from file:
     ./pseudo/Mn.pbe-spn-kjpaw_psl.0.3.1.UPF
     MD5 check sum: 7b43a3fb0e93e198b8dd8488d8cf503e
     Pseudo is Projector augmented-wave + core cor, Zval = 15.0
     Generated using "atomic" code by A. Dal Corso v.5.0.99 svn rev. 10869
     Shape of augmentation charge: PSQ
     Using radial grid of 1187 points,  6 beta functions with: 
                l(1) =   0
                l(2) =   0
                l(3) =   1
                l(4) =   1
                l(5) =   2
                l(6) =   2
     Q(r) pseudized with 0 coefficients 


     PseudoPot. # 3 for Au read from file:
     ./pseudo/Au.pbe-dn-kjpaw_psl.0.1.UPF
     MD5 check sum: be11e2e8e535ebe2b3ccfb4f88f554cb
     Pseudo is Projector augmented-wave + core cor, Zval = 11.0
     Generated using "atomic" code by A. Dal Corso v.5.0.2 svn rev. 9415
     Shape of augmentation charge: PSQ
     Using radial grid of 1279 points,  6 beta functions with: 
                l(1) =   0
                l(2) =   0
                l(3) =   1
                l(4) =   1
                l(5) =   2
                l(6) =   2
     Q(r) pseudized with 0 coefficients 


     atomic species   valence    mass     pseudopotential
        Mn1           15.00    54.93800     Mn( 1.00)
        Mn2           15.00    54.93800     Mn( 1.00)
        Au            11.00   196.96600     Au( 1.00)

     Starting magnetic structure 
     atomic species   magnetization
        Mn1          0.800
        Mn2         -0.800
        Au           0.000


     Full LDA+U calculation (l_max = 2) with parameters (eV):
     U(  1) =   3.1200   J(  1) =   0.7000   B(  1) =   0.0803
     U(  2) =   3.1200   J(  2) =   0.7000   B(  2) =   0.0803



      8 Sym. Ops. (no inversion) found



   Cartesian axes

     site n.     atom                  positions (alat units)
         1           Mn1 tau(   1) = (   0.0000000   0.0000000   0.0000000  )
         2           Mn1 tau(   2) = (   0.5000000   0.5000000   1.2899921  )
         3           Mn1 tau(   3) = (   0.0000000   0.0000000   2.5799843  )
         4           Mn1 tau(   4) = (   0.5000000   0.5000000   3.8699764  )
         5           Mn1 tau(   5) = (   0.0000000   0.0000000   5.1599686  )
         6           Mn1 tau(   6) = (   0.5000000   0.5000000   6.4499607  )
         7           Mn2 tau(   7) = (   0.0000000   0.0000000   7.7399528  )
         8           Mn2 tau(   8) = (   0.5000000   0.5000000   9.0299450  )
         9           Au  tau(   9) = (   0.5000000   0.5000000   0.4127975  )
        10           Au  tau(  10) = (   0.0000000   0.0000000   0.8771947  )
        11           Au  tau(  11) = (   0.0000000   0.0000000   1.7027896  )
        12           Au  tau(  12) = (   0.5000000   0.5000000   2.1671868  )
        13           Au  tau(  13) = (   0.5000000   0.5000000   2.9927818  )
        14           Au  tau(  14) = (   0.0000000   0.0000000   3.4571789  )
        15           Au  tau(  15) = (   0.0000000   0.0000000   4.2827739  )
        16           Au  tau(  16) = (   0.5000000   0.5000000   4.7471711  )
        17           Au  tau(  17) = (   0.5000000   0.5000000   5.5727660  )
        18           Au  tau(  18) = (   0.0000000   0.0000000   6.0371632  )
        19           Au  tau(  19) = (   0.0000000   0.0000000   6.8627582  )
        20           Au  tau(  20) = (   0.5000000   0.5000000   7.3271553  )
        21           Au  tau(  21) = (   0.5000000   0.5000000   8.1527503  )
        22           Au  tau(  22) = (   0.0000000   0.0000000   8.6171475  )
        23           Au  tau(  23) = (   0.0000000   0.0000000   9.4427424  )
        24           Au  tau(  24) = (   0.5000000   0.5000000   9.9071396  )

     number of k points=    30 (tetrahedron method)
                       cart. coord. in units 2pi/alat
        k(    1) = (   0.0000000   0.0000000   0.0000000), wk =   0.0078125
        k(    2) = (   0.0000000   0.0000000  -0.0484499), wk =   0.0078125
        k(    3) = (   0.0000000   0.1250000   0.0000000), wk =   0.0312500
        k(    4) = (   0.0000000   0.1250000  -0.0484499), wk =   0.0312500
        k(    5) = (   0.0000000   0.2500000   0.0000000), wk =   0.0312500
        k(    6) = (   0.0000000   0.2500000  -0.0484499), wk =   0.0312500
        k(    7) = (   0.0000000   0.3750000   0.0000000), wk =   0.0312500
        k(    8) = (   0.0000000   0.3750000  -0.0484499), wk =   0.0312500
        k(    9) = (   0.0000000  -0.5000000   0.0000000), wk =   0.0156250
        k(   10) = (   0.0000000  -0.5000000  -0.0484499), wk =   0.0156250
        k(   11) = (   0.1250000   0.1250000   0.0000000), wk =   0.0312500
        k(   12) = (   0.1250000   0.1250000  -0.0484499), wk =   0.0312500
        k(   13) = (   0.1250000   0.2500000   0.0000000), wk =   0.0625000
        k(   14) = (   0.1250000   0.2500000  -0.0484499), wk =   0.0625000
        k(   15) = (   0.1250000   0.3750000   0.0000000), wk =   0.0625000
        k(   16) = (   0.1250000   0.3750000  -0.0484499), wk =   0.0625000
        k(   17) = (   0.1250000  -0.5000000   0.0000000), wk =   0.0312500
        k(   18) = (   0.1250000  -0.5000000  -0.0484499), wk =   0.0312500
        k(   19) = (   0.2500000   0.2500000   0.0000000), wk =   0.0312500
        k(   20) = (   0.2500000   0.2500000  -0.0484499), wk =   0.0312500
        k(   21) = (   0.2500000   0.3750000   0.0000000), wk =   0.0625000
        k(   22) = (   0.2500000   0.3750000  -0.0484499), wk =   0.0625000
        k(   23) = (   0.2500000  -0.5000000   0.0000000), wk =   0.0312500
        k(   24) = (   0.2500000  -0.5000000  -0.0484499), wk =   0.0312500
        k(   25) = (   0.3750000   0.3750000   0.0000000), wk =   0.0312500
        k(   26) = (   0.3750000   0.3750000  -0.0484499), wk =   0.0312500
        k(   27) = (   0.3750000  -0.5000000   0.0000000), wk =   0.0312500
        k(   28) = (   0.3750000  -0.5000000  -0.0484499), wk =   0.0312500
        k(   29) = (  -0.5000000  -0.5000000   0.0000000), wk =   0.0078125
        k(   30) = (  -0.5000000  -0.5000000  -0.0484499), wk =   0.0078125

     Dense  grid:   368373 G-vectors     FFT dimensions: (  45,  45, 432)

     Smooth grid:   111379 G-vectors     FFT dimensions: (  27,  27, 288)

     Estimated max dynamical RAM per process >     281.85 MB

     Estimated total dynamical RAM >       4.40 GB
     Generating pointlists ...
     new r_m :   0.3377 (alat units)  2.1668 (a.u.) for type    1
     new r_m :   0.3377 (alat units)  2.1668 (a.u.) for type    2
     new r_m :   0.3377 (alat units)  2.1668 (a.u.) for type    3

     Check: negative/imaginary core charge=   -0.000006    0.000000

     Initial potential from superposition of free atoms

     starting charge  295.99426, renormalised to  296.00000
     Number of +U iterations with fixed ns =  0
     Starting occupations:
 --- enter write_ns ---
 LDA+U parameters:
U(  1) =   3.1200   J(  1) =   0.7000   B(  1) =   0.0803
U(  2) =   3.1200   J(  2) =   0.7000   B(  2) =   0.0803
atom    1   Tr[ns(na)] (up, down, total) =   5.00000  0.00000  5.00000
   spin  1
    eigenvalues: 
  1.000  1.000  1.000  1.000  1.000
    eigenvectors:
  1.000  0.000  0.000  0.000  0.000
  0.000  1.000  0.000  0.000  0.000
  0.000  0.000  1.000  0.000  0.000
  0.000  0.000  0.000  1.000  0.000
  0.000  0.000  0.000  0.000  1.000
    occupations:
  1.000  0.000  0.000  0.000  0.000
  0.000  1.000  0.000  0.000  0.000
  0.000  0.000  1.000  0.000  0.000
  0.000  0.000  0.000  1.000  0.000
  0.000  0.000  0.000  0.000  1.000
   spin  2
    eigenvalues: 
  0.000  0.000  0.000  0.000  0.000
    eigenvectors:
  1.000  0.000  0.000  0.000  0.000
  0.000  1.000  0.000  0.000  0.000
  0.000  0.000  1.000  0.000  0.000
  0.000  0.000  0.000  1.000  0.000
  0.000  0.000  0.000  0.000  1.000
    occupations:
  0.000  0.000  0.000  0.000  0.000
  0.000  0.000  0.000  0.000  0.000
  0.000  0.000  0.000  0.000  0.000
  0.000  0.000  0.000  0.000  0.000
  0.000  0.000  0.000  0.000  0.000
atomic mag. moment =     5.000000
atom    2   Tr[ns(na)] (up, down, total) =   5.00000  0.00000  5.00000
   spin  1
    eigenvalues: 
  1.000  1.000  1.000  1.000  1.000
    eigenvectors:
  1.000  0.000  0.000  0.000  0.000
  0.000  1.000  0.000  0.000  0.000
  0.000  0.000  1.000  0.000  0.000
  0.000  0.000  0.000  1.000  0.000
  0.000  0.000  0.000  0.000  1.000
    occupations:
  1.000  0.000  0.000  0.000  0.000
  0.000  1.000  0.000  0.000  0.000
  0.000  0.000  1.000  0.000  0.000
  0.000  0.000  0.000  1.000  0.000
  0.000  0.000  0.000  0.000  1.000
   spin  2
    eigenvalues: 
  0.000  0.000  0.000  0.000  0.000
    eigenvectors:
  1.000  0.000  0.000  0.000  0.000
  0.000  1.000  0.000  0.000  0.000
  0.000  0.000  1.000  0.000  0.000
  0.000  0.000  0.000  1.000  0.000
  0.000  0.000  0.000  0.000  1.000
    occupations:
  0.000  0.000  0.000  0.000  0.000
  0.000  0.000  0.000  0.000  0.000
  0.000  0.000  0.000  0.000  0.000
  0.000  0.000  0.000  0.000  0.000
  0.000  0.000  0.000  0.000  0.000
atomic mag. moment =     5.000000
atom    3   Tr[ns(na)] (up, down, total) =   5.00000  0.00000  5.00000
   spin  1
    eigenvalues: 
  1.000  1.000  1.000  1.000  1.000
    eigenvectors:
  1.000  0.000  0.000  0.000  0.000
  0.000  1.000  0.000  0.000  0.000
  0.000  0.000  1.000  0.000  0.000
  0.000  0.000  0.000  1.000  0.000
  0.000  0.000  0.000  0.000  1.000
    occupations:
  1.000  0.000  0.000  0.000  0.000
  0.000  1.000  0.000  0.000  0.000
  0.000  0.000  1.000  0.000  0.000
  0.000  0.000  0.000  1.000  0.000
  0.000  0.000  0.000  0.000  1.000
   spin  2
    eigenvalues: 
  0.000  0.000  0.000  0.000  0.000
    eigenvectors:
  1.000  0.000  0.000  0.000  0.000
  0.000  1.000  0.000  0.000  0.000
  0.000  0.000  1.000  0.000  0.000
  0.000  0.000  0.000  1.000  0.000
  0.000  0.000  0.000  0.000  1.000
    occupations:
  0.000  0.000  0.000  0.000  0.000
  0.000  0.000  0.000  0.000  0.000
  0.000  0.000  0.000  0.000  0.000
  0.000  0.000  0.000  0.000  0.000
  0.000  0.000  0.000  0.000  0.000
atomic mag. moment =     5.000000
atom    4   Tr[ns(na)] (up, down, total) =   5.00000  0.00000  5.00000
   spin  1
    eigenvalues: 
  1.000  1.000  1.000  1.000  1.000
    eigenvectors:
  1.000  0.000  0.000  0.000  0.000
  0.000  1.000  0.000  0.000  0.000
  0.000  0.000  1.000  0.000  0.000
  0.000  0.000  0.000  1.000  0.000
  0.000  0.000  0.000  0.000  1.000
    occupations:
  1.000  0.000  0.000  0.000  0.000
  0.000  1.000  0.000  0.000  0.000
  0.000  0.000  1.000  0.000  0.000
  0.000  0.000  0.000  1.000  0.000
  0.000  0.000  0.000  0.000  1.000
   spin  2
    eigenvalues: 
  0.000  0.000  0.000  0.000  0.000
    eigenvectors:
  1.000  0.000  0.000  0.000  0.000
  0.000  1.000  0.000  0.000  0.000
  0.000  0.000  1.000  0.000  0.000
  0.000  0.000  0.000  1.000  0.000
  0.000  0.000  0.000  0.000  1.000
    occupations:
  0.000  0.000  0.000  0.000  0.000
  0.000  0.000  0.000  0.000  0.000
  0.000  0.000  0.000  0.000  0.000
  0.000  0.000  0.000  0.000  0.000
  0.000  0.000  0.000  0.000  0.000
atomic mag. moment =     5.000000
atom    5   Tr[ns(na)] (up, down, total) =   5.00000  0.00000  5.00000
   spin  1
    eigenvalues: 
  1.000  1.000  1.000  1.000  1.000
    eigenvectors:
  1.000  0.000  0.000  0.000  0.000
  0.000  1.000  0.000  0.000  0.000
  0.000  0.000  1.000  0.000  0.000
  0.000  0.000  0.000  1.000  0.000
  0.000  0.000  0.000  0.000  1.000
    occupations:
  1.000  0.000  0.000  0.000  0.000
  0.000  1.000  0.000  0.000  0.000
  0.000  0.000  1.000  0.000  0.000
  0.000  0.000  0.000  1.000  0.000
  0.000  0.000  0.000  0.000  1.000
   spin  2
    eigenvalues: 
  0.000  0.000  0.000  0.000  0.000
    eigenvectors:
  1.000  0.000  0.000  0.000  0.000
  0.000  1.000  0.000  0.000  0.000
  0.000  0.000  1.000  0.000  0.000
  0.000  0.000  0.000  1.000  0.000
  0.000  0.000  0.000  0.000  1.000
    occupations:
  0.000  0.000  0.000  0.000  0.000
  0.000  0.000  0.000  0.000  0.000
  0.000  0.000  0.000  0.000  0.000
  0.000  0.000  0.000  0.000  0.000
  0.000  0.000  0.000  0.000  0.000
atomic mag. moment =     5.000000
atom    6   Tr[ns(na)] (up, down, total) =   5.00000  0.00000  5.00000
   spin  1
    eigenvalues: 
  1.000  1.000  1.000  1.000  1.000
    eigenvectors:
  1.000  0.000  0.000  0.000  0.000
  0.000  1.000  0.000  0.000  0.000
  0.000  0.000  1.000  0.000  0.000
  0.000  0.000  0.000  1.000  0.000
  0.000  0.000  0.000  0.000  1.000
    occupations:
  1.000  0.000  0.000  0.000  0.000
  0.000  1.000  0.000  0.000  0.000
  0.000  0.000  1.000  0.000  0.000
  0.000  0.000  0.000  1.000  0.000
  0.000  0.000  0.000  0.000  1.000
   spin  2
    eigenvalues: 
  0.000  0.000  0.000  0.000  0.000
    eigenvectors:
  1.000  0.000  0.000  0.000  0.000
  0.000  1.000  0.000  0.000  0.000
  0.000  0.000  1.000  0.000  0.000
  0.000  0.000  0.000  1.000  0.000
  0.000  0.000  0.000  0.000  1.000
    occupations:
  0.000  0.000  0.000  0.000  0.000
  0.000  0.000  0.000  0.000  0.000
  0.000  0.000  0.000  0.000  0.000
  0.000  0.000  0.000  0.000  0.000
  0.000  0.000  0.000  0.000  0.000
atomic mag. moment =     5.000000
atom    7   Tr[ns(na)] (up, down, total) =   0.00000  5.00000  5.00000
   spin  1
    eigenvalues: 
  0.000  0.000  0.000  0.000  0.000
    eigenvectors:
  1.000  0.000  0.000  0.000  0.000
  0.000  1.000  0.000  0.000  0.000
  0.000  0.000  1.000  0.000  0.000
  0.000  0.000  0.000  1.000  0.000
  0.000  0.000  0.000  0.000  1.000
    occupations:
  0.000  0.000  0.000  0.000  0.000
  0.000  0.000  0.000  0.000  0.000
  0.000  0.000  0.000  0.000  0.000
  0.000  0.000  0.000  0.000  0.000
  0.000  0.000  0.000  0.000  0.000
   spin  2
    eigenvalues: 
  1.000  1.000  1.000  1.000  1.000
    eigenvectors:
  1.000  0.000  0.000  0.000  0.000
  0.000  1.000  0.000  0.000  0.000
  0.000  0.000  1.000  0.000  0.000
  0.000  0.000  0.000  1.000  0.000
  0.000  0.000  0.000  0.000  1.000
    occupations:
  1.000  0.000  0.000  0.000  0.000
  0.000  1.000  0.000  0.000  0.000
  0.000  0.000  1.000  0.000  0.000
  0.000  0.000  0.000  1.000  0.000
  0.000  0.000  0.000  0.000  1.000
atomic mag. moment =    -5.000000
atom    8   Tr[ns(na)] (up, down, total) =   0.00000  5.00000  5.00000
   spin  1
    eigenvalues: 
  0.000  0.000  0.000  0.000  0.000
    eigenvectors:
  1.000  0.000  0.000  0.000  0.000
  0.000  1.000  0.000  0.000  0.000
  0.000  0.000  1.000  0.000  0.000
  0.000  0.000  0.000  1.000  0.000
  0.000  0.000  0.000  0.000  1.000
    occupations:
  0.000  0.000  0.000  0.000  0.000
  0.000  0.000  0.000  0.000  0.000
  0.000  0.000  0.000  0.000  0.000
  0.000  0.000  0.000  0.000  0.000
  0.000  0.000  0.000  0.000  0.000
   spin  2
    eigenvalues: 
  1.000  1.000  1.000  1.000  1.000
    eigenvectors:
  1.000  0.000  0.000  0.000  0.000
  0.000  1.000  0.000  0.000  0.000
  0.000  0.000  1.000  0.000  0.000
  0.000  0.000  0.000  1.000  0.000
  0.000  0.000  0.000  0.000  1.000
    occupations:
  1.000  0.000  0.000  0.000  0.000
  0.000  1.000  0.000  0.000  0.000
  0.000  0.000  1.000  0.000  0.000
  0.000  0.000  0.000  1.000  0.000
  0.000  0.000  0.000  0.000  1.000
atomic mag. moment =    -5.000000
N of occupied +U levels =   40.000000
 --- exit write_ns ---
 Atomic wfc used for LDA+U Projector are NOT orthogonalized
     Starting wfcs are  224 randomized atomic wfcs
     Checking if some PAW data can be deallocated... 

     total cpu time spent up to now is       71.6 secs

     Self-consistent Calculation

     iteration #  1     ecut=    45.00 Ry     beta= 0.10
     Davidson diagonalization with overlap
     ethr =  1.00E-02,  avg # of iterations =  3.8
 --- enter write_ns ---
 LDA+U parameters:
U(  1) =   3.1200   J(  1) =   0.7000   B(  1) =   0.0803
U(  2) =   3.1200   J(  2) =   0.7000   B(  2) =   0.0803
atom    1   Tr[ns(na)] (up, down, total) =   5.01736  0.41038  5.42773
   spin  1
    eigenvalues: 
  1.003  1.003  1.003  1.004  1.004
    eigenvectors:
  0.000  0.000  0.000  1.000  0.000
  0.000  0.264  0.736  0.000  0.000
  0.000  0.736  0.264  0.000  0.000
  0.000  0.000  0.000  0.000  1.000
  1.000  0.000  0.000  0.000  0.000
    occupations:
  1.004 -0.000 -0.000  0.000  0.000
 -0.000  1.003 -0.000  0.000  0.000
 -0.000 -0.000  1.003  0.000  0.000
  0.000  0.000  0.000  1.004 -0.000
  0.000  0.000  0.000 -0.000  1.003
   spin  2
    eigenvalues: 
  0.052  0.074  0.081  0.081  0.121
    eigenvectors:
  0.000  1.000  0.000  0.000  0.000
  0.000  0.000  0.357  0.643  0.000
  0.000  0.000  0.643  0.357  0.000
  1.000  0.000  0.000  0.000  0.000
  0.000  0.000  0.000  0.000  1.000
    occupations:
  0.074 -0.000 -0.000  0.000  0.000
 -0.000  0.081 -0.000  0.000  0.000
 -0.000 -0.000  0.081  0.000  0.000
  0.000  0.000  0.000  0.052 -0.000
  0.000  0.000  0.000 -0.000  0.121
atomic mag. moment =     4.606981
atom    2   Tr[ns(na)] (up, down, total) =   5.01756  0.40199  5.41955
   spin  1
    eigenvalues: 
  1.003  1.003  1.003  1.004  1.004
    eigenvectors:
  0.000  0.000  0.000  1.000  0.000
  0.000  0.279  0.721  0.000  0.000
  0.000  0.721  0.279  0.000  0.000
  0.000  0.000  0.000  0.000  1.000
  1.000  0.000  0.000  0.000  0.000
    occupations:
  1.004 -0.000 -0.000  0.000  0.000
 -0.000  1.003 -0.000  0.000  0.000
 -0.000 -0.000  1.003  0.000  0.000
  0.000  0.000  0.000  1.004 -0.000
  0.000  0.000  0.000 -0.000  1.003
   spin  2
    eigenvalues: 
  0.053  0.074  0.081  0.081  0.113
    eigenvectors:
  0.000  1.000  0.000  0.000  0.000
  0.000  0.000  0.331  0.669  0.000
  0.000  0.000  0.669  0.331  0.000
  1.000  0.000  0.000  0.000  0.000
  0.000  0.000  0.000  0.000  1.000
    occupations:
  0.074 -0.000 -0.000  0.000  0.000
 -0.000  0.081 -0.000  0.000  0.000
 -0.000 -0.000  0.081  0.000  0.000
  0.000  0.000  0.000  0.053 -0.000
  0.000  0.000  0.000 -0.000  0.113
atomic mag. moment =     4.615578
atom    3   Tr[ns(na)] (up, down, total) =   5.01751  0.40067  5.41818
   spin  1
    eigenvalues: 
  1.003  1.003  1.003  1.004  1.004
    eigenvectors:
  0.000  0.000  0.000  1.000  0.000
  0.000  0.348  0.652  0.000  0.000
  0.000  0.652  0.348  0.000  0.000
  0.000  0.000  0.000  0.000  1.000
  1.000  0.000  0.000  0.000  0.000
    occupations:
  1.004 -0.000 -0.000  0.000  0.000
 -0.000  1.003 -0.000  0.000  0.000
 -0.000 -0.000  1.003  0.000  0.000
  0.000  0.000  0.000  1.004 -0.000
  0.000  0.000  0.000 -0.000  1.003
   spin  2
    eigenvalues: 
  0.053  0.071  0.081  0.081  0.115
    eigenvectors:
  0.000  1.000  0.000  0.000  0.000
  0.000  0.000  0.390  0.610  0.000
  0.000  0.000  0.610  0.390  0.000
  1.000  0.000  0.000  0.000  0.000
  0.000  0.000  0.000  0.000  1.000
    occupations:
  0.071 -0.000 -0.000  0.000  0.000
 -0.000  0.081 -0.000  0.000  0.000
 -0.000 -0.000  0.081  0.000  0.000
  0.000  0.000  0.000  0.053 -0.000
  0.000  0.000  0.000 -0.000  0.115
atomic mag. moment =     4.616838
atom    4   Tr[ns(na)] (up, down, total) =   5.01739  0.40014  5.41753
   spin  1
    eigenvalues: 
  1.003  1.003  1.003  1.004  1.004
    eigenvectors:
  0.000  0.000  0.000  1.000  0.000
  0.000  0.255  0.745  0.000  0.000
  0.000  0.745  0.255  0.000  0.000
  0.000  0.000  0.000  0.000  1.000
  1.000  0.000  0.000  0.000  0.000
    occupations:
  1.004 -0.000 -0.000  0.000  0.000
 -0.000  1.003 -0.000  0.000  0.000
 -0.000 -0.000  1.003  0.000  0.000
  0.000  0.000  0.000  1.004 -0.000
  0.000  0.000  0.000 -0.000  1.003
   spin  2
    eigenvalues: 
  0.053  0.071  0.081  0.081  0.115
    eigenvectors:
  0.000  1.000  0.000  0.000  0.000
  0.000  0.000  0.465  0.535  0.000
  0.000  0.000  0.535  0.465  0.000
  1.000  0.000  0.000  0.000  0.000
  0.000  0.000  0.000  0.000  1.000
    occupations:
  0.071 -0.000 -0.000  0.000  0.000
 -0.000  0.081 -0.000  0.000  0.000
 -0.000 -0.000  0.081  0.000  0.000
  0.000  0.000  0.000  0.053 -0.000
  0.000  0.000  0.000 -0.000  0.115
atomic mag. moment =     4.617251
atom    5   Tr[ns(na)] (up, down, total) =   5.01755  0.40222  5.41977
   spin  1
    eigenvalues: 
  1.003  1.003  1.003  1.004  1.004
    eigenvectors:
  0.000  0.000  0.000  1.000  0.000
  0.000  0.293  0.707  0.000  0.000
  0.000  0.707  0.293  0.000  0.000
  0.000  0.000  0.000  0.000  1.000
  1.000  0.000  0.000  0.000  0.000
    occupations:
  1.004 -0.000 -0.000  0.000  0.000
 -0.000  1.003 -0.000  0.000  0.000
 -0.000 -0.000  1.003  0.000  0.000
  0.000  0.000  0.000  1.004 -0.000
  0.000  0.000  0.000 -0.000  1.003
   spin  2
    eigenvalues: 
  0.053  0.075  0.081  0.081  0.113
    eigenvectors:
  0.000  1.000  0.000  0.000  0.000
  0.000  0.000  0.341  0.659  0.000
  0.000  0.000  0.659  0.341  0.000
  1.000  0.000  0.000  0.000  0.000
  0.000  0.000  0.000  0.000  1.000
    occupations:
  0.075 -0.000 -0.000  0.000  0.000
 -0.000  0.081 -0.000  0.000  0.000
 -0.000 -0.000  0.081  0.000  0.000
  0.000  0.000  0.000  0.053 -0.000
  0.000  0.000  0.000 -0.000  0.113
atomic mag. moment =     4.615334
atom    6   Tr[ns(na)] (up, down, total) =   5.01751  0.41018  5.42770
   spin  1
    eigenvalues: 
  1.003  1.003  1.003  1.004  1.004
    eigenvectors:
  0.000  0.000  0.000  1.000  0.000
  0.000  0.331  0.669  0.000  0.000
  0.000  0.669  0.331  0.000  0.000
  0.000  0.000  0.000  0.000  1.000
  1.000  0.000  0.000  0.000  0.000
    occupations:
  1.004 -0.000 -0.000  0.000  0.000
 -0.000  1.003 -0.000  0.000  0.000
 -0.000 -0.000  1.003  0.000  0.000
  0.000  0.000  0.000  1.004 -0.000
  0.000  0.000  0.000 -0.000  1.003
   spin  2
    eigenvalues: 
  0.052  0.074  0.081  0.081  0.122
    eigenvectors:
  0.000  1.000  0.000  0.000  0.000
  0.000  0.000  0.415  0.585  0.000
  0.000  0.000  0.585  0.415  0.000
  1.000  0.000  0.000  0.000  0.000
  0.000  0.000  0.000  0.000  1.000
    occupations:
  0.074 -0.000 -0.000  0.000  0.000
 -0.000  0.081 -0.000  0.000  0.000
 -0.000 -0.000  0.081  0.000  0.000
  0.000  0.000  0.000  0.052 -0.000
  0.000  0.000  0.000 -0.000  0.122
atomic mag. moment =     4.607330
atom    7   Tr[ns(na)] (up, down, total) =   0.41577  5.01759  5.43336
   spin  1
    eigenvalues: 
  0.054  0.075  0.083  0.083  0.122
    eigenvectors:
  0.000  1.000  0.000  0.000  0.000
  0.000  0.000  0.369  0.631  0.000
  0.000  0.000  0.631  0.369  0.000
  1.000  0.000  0.000  0.000  0.000
  0.000  0.000  0.000  0.000  1.000
    occupations:
  0.075 -0.000 -0.000  0.000  0.000
 -0.000  0.083 -0.000  0.000  0.000
 -0.000 -0.000  0.083  0.000  0.000
  0.000  0.000  0.000  0.054 -0.000
  0.000  0.000  0.000 -0.000  0.122
   spin  2
    eigenvalues: 
  1.003  1.003  1.003  1.004  1.004
    eigenvectors:
  0.000  0.000  0.000  1.000  0.000
  0.000  0.258  0.742  0.000  0.000
  0.000  0.742  0.258  0.000  0.000
  0.000  0.000  0.000  0.000  1.000
  1.000  0.000  0.000  0.000  0.000
    occupations:
  1.004 -0.000 -0.000  0.000  0.000
 -0.000  1.003 -0.000  0.000  0.000
 -0.000 -0.000  1.003  0.000  0.000
  0.000  0.000  0.000  1.004 -0.000
  0.000  0.000  0.000 -0.000  1.003
atomic mag. moment =    -4.601828
atom    8   Tr[ns(na)] (up, down, total) =   0.41649  5.01752  5.43401
   spin  1
    eigenvalues: 
  0.054  0.076  0.083  0.083  0.122
    eigenvectors:
  0.000  1.000  0.000  0.000  0.000
  0.000  0.000  0.428  0.572  0.000
  0.000  0.000  0.572  0.428  0.000
  1.000  0.000  0.000  0.000  0.000
  0.000  0.000  0.000  0.000  1.000
    occupations:
  0.076 -0.000 -0.000  0.000  0.000
 -0.000  0.083 -0.000  0.000  0.000
 -0.000 -0.000  0.083  0.000  0.000
  0.000  0.000  0.000  0.054 -0.000
  0.000  0.000  0.000 -0.000  0.122
   spin  2
    eigenvalues: 
  1.003  1.003  1.003  1.004  1.004
    eigenvectors:
  0.000  0.000  0.000  1.000  0.000
  0.000  0.346  0.654  0.000  0.000
  0.000  0.654  0.346  0.000  0.000
  0.000  0.000  0.000  0.000  1.000
  1.000  0.000  0.000  0.000  0.000
    occupations:
  1.004 -0.000 -0.000  0.000  0.000
 -0.000  1.003 -0.000  0.000  0.000
 -0.000 -0.000  1.003  0.000  0.000
  0.000  0.000  0.000  1.004 -0.000
  0.000  0.000  0.000 -0.000  1.003
atomic mag. moment =    -4.601035
N of occupied +U levels =   43.397839
 --- exit write_ns ---

     total cpu time spent up to now is      242.7 secs

     total energy              =  -14687.26977518 Ry
     Harris-Foulkes estimate   =  -14685.80961339 Ry
     estimated scf accuracy    <      11.55625386 Ry

     total magnetization       =    20.26 Bohr mag/cell
     absolute magnetization    =    41.52 Bohr mag/cell

     iteration #  2     ecut=    45.00 Ry     beta= 0.10
     Davidson diagonalization with overlap
     ethr =  3.90E-03,  avg # of iterations =  1.0

     total cpu time spent up to now is      374.9 secs

     total energy              =  -14688.10477834 Ry
     Harris-Foulkes estimate   =  -14687.35379464 Ry
     estimated scf accuracy    <      10.57337079 Ry

     total magnetization       =    19.84 Bohr mag/cell
     absolute magnetization    =    41.18 Bohr mag/cell

     iteration #  3     ecut=    45.00 Ry     beta= 0.10
     Davidson diagonalization with overlap
     ethr =  3.57E-03,  avg # of iterations =  3.0

     total cpu time spent up to now is      499.2 secs

     total energy              =  -14692.39403113 Ry
     Harris-Foulkes estimate   =  -14688.93320664 Ry
     estimated scf accuracy    <      68.87814973 Ry

     total magnetization       =    19.70 Bohr mag/cell
     absolute magnetization    =    40.96 Bohr mag/cell

     iteration #  4     ecut=    45.00 Ry     beta= 0.10
     Davidson diagonalization with overlap
     ethr =  3.57E-03,  avg # of iterations =  2.2

     total cpu time spent up to now is      616.7 secs

     total energy              =  -14693.98291729 Ry
     Harris-Foulkes estimate   =  -14694.11616813 Ry
     estimated scf accuracy    <       5.83758772 Ry

     total magnetization       =    18.69 Bohr mag/cell
     absolute magnetization    =    38.50 Bohr mag/cell

     iteration #  5     ecut=    45.00 Ry     beta= 0.10
     Davidson diagonalization with overlap
     ethr =  1.97E-03,  avg # of iterations =  1.4

     total cpu time spent up to now is      717.6 secs

     total energy              =  -14694.00584972 Ry
     Harris-Foulkes estimate   =  -14694.02138144 Ry
     estimated scf accuracy    <       4.40232779 Ry

     total magnetization       =    18.74 Bohr mag/cell
     absolute magnetization    =    38.56 Bohr mag/cell

     iteration #  6     ecut=    45.00 Ry     beta= 0.10
     Davidson diagonalization with overlap
     ethr =  1.49E-03,  avg # of iterations =  1.1

     total cpu time spent up to now is      813.5 secs

     total energy              =  -14695.29930992 Ry
     Harris-Foulkes estimate   =  -14694.01044723 Ry
     estimated scf accuracy    <       4.25769751 Ry

     total magnetization       =    18.75 Bohr mag/cell
     absolute magnetization    =    38.55 Bohr mag/cell

     iteration #  7     ecut=    45.00 Ry     beta= 0.10
     Davidson diagonalization with overlap
     ethr =  1.44E-03,  avg # of iterations =  2.1

     total cpu time spent up to now is      926.5 secs

     total energy              =  -14692.68401867 Ry
     Harris-Foulkes estimate   =  -14695.64997888 Ry
     estimated scf accuracy    <      15.17929193 Ry

     total magnetization       =    17.73 Bohr mag/cell
     absolute magnetization    =    36.98 Bohr mag/cell

     iteration #  8     ecut=    45.00 Ry     beta= 0.10
     Davidson diagonalization with overlap
     ethr =  1.44E-03,  avg # of iterations =  4.3

     total cpu time spent up to now is     1147.5 secs

     total energy              =  -14693.94688640 Ry
     Harris-Foulkes estimate   =  -14693.94513015 Ry
     estimated scf accuracy    <       0.36614700 Ry

     total magnetization       =    17.99 Bohr mag/cell
     absolute magnetization    =    37.82 Bohr mag/cell

     iteration #  9     ecut=    45.00 Ry     beta= 0.10
     Davidson diagonalization with overlap
     ethr =  1.24E-04,  avg # of iterations =  4.3

     total cpu time spent up to now is     1313.9 secs

     total energy              =  -14694.01922401 Ry
     Harris-Foulkes estimate   =  -14694.02107085 Ry
     estimated scf accuracy    <       0.60106227 Ry

     total magnetization       =    17.36 Bohr mag/cell
     absolute magnetization    =    37.12 Bohr mag/cell

     iteration # 10     ecut=    45.00 Ry     beta= 0.10
     Davidson diagonalization with overlap
     ethr =  1.24E-04,  avg # of iterations =  1.0

     total cpu time spent up to now is     1410.4 secs

     total energy              =  -14693.95469294 Ry
     Harris-Foulkes estimate   =  -14694.02359820 Ry
     estimated scf accuracy    <       0.47318701 Ry

     total magnetization       =    17.29 Bohr mag/cell
     absolute magnetization    =    37.06 Bohr mag/cell

     iteration # 11     ecut=    45.00 Ry     beta= 0.10
     Davidson diagonalization with overlap
     ethr =  1.24E-04,  avg # of iterations =  2.3

     total cpu time spent up to now is     1526.5 secs

     total energy              =  -14693.98708893 Ry
     Harris-Foulkes estimate   =  -14693.99951343 Ry
     estimated scf accuracy    <       0.05576731 Ry

     total magnetization       =    17.44 Bohr mag/cell
     absolute magnetization    =    37.23 Bohr mag/cell

     iteration # 12     ecut=    45.00 Ry     beta= 0.10
     Davidson diagonalization with overlap
     ethr =  1.88E-05,  avg # of iterations =  3.0

     total cpu time spent up to now is     1697.2 secs

     total energy              =  -14693.99993158 Ry
     Harris-Foulkes estimate   =  -14693.99735830 Ry
     estimated scf accuracy    <       0.11535969 Ry

     total magnetization       =    17.34 Bohr mag/cell
     absolute magnetization    =    37.25 Bohr mag/cell

     iteration # 13     ecut=    45.00 Ry     beta= 0.10
     Davidson diagonalization with overlap
     ethr =  1.88E-05,  avg # of iterations =  1.3

     total cpu time spent up to now is     1795.2 secs

     total energy              =  -14694.00476952 Ry
     Harris-Foulkes estimate   =  -14694.00210223 Ry
     estimated scf accuracy    <       0.02578681 Ry

     total magnetization       =    17.28 Bohr mag/cell
     absolute magnetization    =    37.19 Bohr mag/cell

     iteration # 14     ecut=    45.00 Ry     beta= 0.10
     Davidson diagonalization with overlap
     c_bands:  1 eigenvalues not converged
     ethr =  8.71E-06,  avg # of iterations =  1.5

     total cpu time spent up to now is     1895.3 secs

     total energy              =  -14694.00576129 Ry
     Harris-Foulkes estimate   =  -14694.00515740 Ry
     estimated scf accuracy    <       0.03071850 Ry

     total magnetization       =    17.21 Bohr mag/cell
     absolute magnetization    =    37.16 Bohr mag/cell

     iteration # 15     ecut=    45.00 Ry     beta= 0.10
     Davidson diagonalization with overlap
     ethr =  8.71E-06,  avg # of iterations =  1.1

     total cpu time spent up to now is     1990.2 secs

     total energy              =  -14694.00744296 Ry
     Harris-Foulkes estimate   =  -14694.00603509 Ry
     estimated scf accuracy    <       0.03684287 Ry

     total magnetization       =    17.21 Bohr mag/cell
     absolute magnetization    =    37.16 Bohr mag/cell

     iteration # 16     ecut=    45.00 Ry     beta= 0.10
     Davidson diagonalization with overlap
     ethr =  8.71E-06,  avg # of iterations =  1.8

     total cpu time spent up to now is     2095.2 secs

     total energy              =  -14694.00906012 Ry
     Harris-Foulkes estimate   =  -14694.00844368 Ry
     estimated scf accuracy    <       0.00180899 Ry

     total magnetization       =    17.13 Bohr mag/cell
     absolute magnetization    =    37.08 Bohr mag/cell

     iteration # 17     ecut=    45.00 Ry     beta= 0.10
     Davidson diagonalization with overlap
     ethr =  6.11E-07,  avg # of iterations =  5.2

     total cpu time spent up to now is     2262.4 secs

     total energy              =  -14694.00917150 Ry
     Harris-Foulkes estimate   =  -14694.00914769 Ry
     estimated scf accuracy    <       0.00127998 Ry

     total magnetization       =    17.10 Bohr mag/cell
     absolute magnetization    =    37.05 Bohr mag/cell

     iteration # 18     ecut=    45.00 Ry     beta= 0.10
     Davidson diagonalization with overlap
     ethr =  4.32E-07,  avg # of iterations =  1.1

     total cpu time spent up to now is     2359.7 secs

     total energy              =  -14694.00946597 Ry
     Harris-Foulkes estimate   =  -14694.00916890 Ry
     estimated scf accuracy    <       0.00197535 Ry

     total magnetization       =    17.08 Bohr mag/cell
     absolute magnetization    =    37.05 Bohr mag/cell

     iteration # 19     ecut=    45.00 Ry     beta= 0.10
     Davidson diagonalization with overlap
     ethr =  4.32E-07,  avg # of iterations =  1.2

     total cpu time spent up to now is     2455.7 secs

     total energy              =  -14694.00953509 Ry
     Harris-Foulkes estimate   =  -14694.00946664 Ry
     estimated scf accuracy    <       0.00019664 Ry

     total magnetization       =    17.07 Bohr mag/cell
     absolute magnetization    =    37.06 Bohr mag/cell

     iteration # 20     ecut=    45.00 Ry     beta= 0.10
     Davidson diagonalization with overlap
     ethr =  6.64E-08,  avg # of iterations =  2.4

     total cpu time spent up to now is     2569.1 secs

     total energy              =  -14694.00954240 Ry
     Harris-Foulkes estimate   =  -14694.00952689 Ry
     estimated scf accuracy    <       0.00021565 Ry

     total magnetization       =    17.06 Bohr mag/cell
     absolute magnetization    =    37.05 Bohr mag/cell

     iteration # 21     ecut=    45.00 Ry     beta= 0.10
     Davidson diagonalization with overlap
     ethr =  6.64E-08,  avg # of iterations =  1.0

     total cpu time spent up to now is     2664.0 secs

     total energy              =  -14694.00954978 Ry
     Harris-Foulkes estimate   =  -14694.00954295 Ry
     estimated scf accuracy    <       0.00009472 Ry

     total magnetization       =    17.06 Bohr mag/cell
     absolute magnetization    =    37.06 Bohr mag/cell

     iteration # 22     ecut=    45.00 Ry     beta= 0.10
     Davidson diagonalization with overlap
     ethr =  3.20E-08,  avg # of iterations =  1.2

     total cpu time spent up to now is     2762.0 secs

     total energy              =  -14694.00956776 Ry
     Harris-Foulkes estimate   =  -14694.00954930 Ry
     estimated scf accuracy    <       0.00009696 Ry

     total magnetization       =    17.05 Bohr mag/cell
     absolute magnetization    =    37.06 Bohr mag/cell

     iteration # 23     ecut=    45.00 Ry     beta= 0.10
     Davidson diagonalization with overlap
     ethr =  3.20E-08,  avg # of iterations =  1.1

     total cpu time spent up to now is     2857.8 secs

     total energy              =  -14694.00958253 Ry
     Harris-Foulkes estimate   =  -14694.00956016 Ry
     estimated scf accuracy    <       0.00005275 Ry

     total magnetization       =    17.05 Bohr mag/cell
     absolute magnetization    =    37.06 Bohr mag/cell

     iteration # 24     ecut=    45.00 Ry     beta= 0.10
     Davidson diagonalization with overlap
     ethr =  1.78E-08,  avg # of iterations =  1.5

     total cpu time spent up to now is     2961.2 secs

     total energy              =  -14694.00955767 Ry
     Harris-Foulkes estimate   =  -14694.00955789 Ry
     estimated scf accuracy    <       0.00017136 Ry

     total magnetization       =    17.04 Bohr mag/cell
     absolute magnetization    =    37.05 Bohr mag/cell

     iteration # 25     ecut=    45.00 Ry     beta= 0.10
     Davidson diagonalization with overlap
     ethr =  1.78E-08,  avg # of iterations =  1.0

     total cpu time spent up to now is     3057.7 secs

     total energy              =  -14694.00956559 Ry
     Harris-Foulkes estimate   =  -14694.00956052 Ry
     estimated scf accuracy    <       0.00017490 Ry

     total magnetization       =    17.04 Bohr mag/cell
     absolute magnetization    =    37.05 Bohr mag/cell

     iteration # 26     ecut=    45.00 Ry     beta= 0.10
     Davidson diagonalization with overlap
     ethr =  1.78E-08,  avg # of iterations =  1.9

     total cpu time spent up to now is     3165.8 secs

     total energy              =  -14694.00953483 Ry
     Harris-Foulkes estimate   =  -14694.00953325 Ry
     estimated scf accuracy    <       0.00000387 Ry

     total magnetization       =    17.03 Bohr mag/cell
     absolute magnetization    =    37.05 Bohr mag/cell

     iteration # 27     ecut=    45.00 Ry     beta= 0.10
     Davidson diagonalization with overlap
     ethr =  1.31E-09,  avg # of iterations =  2.8

     total cpu time spent up to now is     3289.9 secs

     total energy              =  -14694.00953416 Ry
     Harris-Foulkes estimate   =  -14694.00953244 Ry
     estimated scf accuracy    <       0.00000285 Ry

     total magnetization       =    17.03 Bohr mag/cell
     absolute magnetization    =    37.05 Bohr mag/cell

     iteration # 28     ecut=    45.00 Ry     beta= 0.10
     Davidson diagonalization with overlap
     ethr =  9.62E-10,  avg # of iterations =  2.1

     total cpu time spent up to now is     3404.7 secs

     total energy              =  -14694.00953040 Ry
     Harris-Foulkes estimate   =  -14694.00952961 Ry
     estimated scf accuracy    <       0.00000249 Ry

     total magnetization       =    17.03 Bohr mag/cell
     absolute magnetization    =    37.05 Bohr mag/cell

     iteration # 29     ecut=    45.00 Ry     beta= 0.10
     Davidson diagonalization with overlap
     ethr =  8.41E-10,  avg # of iterations =  1.1

     total cpu time spent up to now is     3502.0 secs

     total energy              =  -14694.00953265 Ry
     Harris-Foulkes estimate   =  -14694.00953193 Ry
     estimated scf accuracy    <       0.00000223 Ry

     total magnetization       =    17.03 Bohr mag/cell
     absolute magnetization    =    37.05 Bohr mag/cell

     iteration # 30     ecut=    45.00 Ry     beta= 0.10
     Davidson diagonalization with overlap
     ethr =  7.54E-10,  avg # of iterations =  1.1
 
     Magnetic moment per site:
     atom:    1    charge:   13.5494    magn:    4.2237    constr:    0.0000
     atom:    2    charge:   13.5541    magn:    4.1924    constr:    0.0000
     atom:    3    charge:   13.5545    magn:    4.1915    constr:    0.0000
     atom:    4    charge:   13.5548    magn:    4.1912    constr:    0.0000
     atom:    5    charge:   13.5539    magn:    4.1925    constr:    0.0000
     atom:    6    charge:   13.5496    magn:    4.2236    constr:    0.0000
     atom:    7    charge:   13.5482    magn:   -4.2348    constr:    0.0000
     atom:    8    charge:   13.5483    magn:   -4.2351    constr:    0.0000
     atom:    9    charge:    9.1219    magn:    0.0293    constr:    0.0000
     atom:   10    charge:    9.1215    magn:    0.0277    constr:    0.0000
     atom:   11    charge:    9.1209    magn:    0.0285    constr:    0.0000
     atom:   12    charge:    9.1200    magn:    0.0247    constr:    0.0000
     atom:   13    charge:    9.1203    magn:    0.0246    constr:    0.0000
     atom:   14    charge:    9.1205    magn:    0.0246    constr:    0.0000
     atom:   15    charge:    9.1202    magn:    0.0247    constr:    0.0000
     atom:   16    charge:    9.1208    magn:    0.0285    constr:    0.0000
     atom:   17    charge:    9.1214    magn:    0.0276    constr:    0.0000
     atom:   18    charge:    9.1220    magn:    0.0292    constr:    0.0000
     atom:   19    charge:    9.1229    magn:    0.0353    constr:    0.0000
     atom:   20    charge:    9.1235    magn:   -0.0465    constr:    0.0000
     atom:   21    charge:    9.1227    magn:   -0.0374    constr:    0.0000
     atom:   22    charge:    9.1229    magn:   -0.0375    constr:    0.0000
     atom:   23    charge:    9.1237    magn:   -0.0465    constr:    0.0000
     atom:   24    charge:    9.1229    magn:    0.0355    constr:    0.0000

     total cpu time spent up to now is     3598.9 secs

     End of self-consistent calculation
 --- enter write_ns ---
 LDA+U parameters:
U(  1) =   3.1200   J(  1) =   0.7000   B(  1) =   0.0803
U(  2) =   3.1200   J(  2) =   0.7000   B(  2) =   0.0803
atom    1   Tr[ns(na)] (up, down, total) =   4.97055  0.74604  5.71658
   spin  1
    eigenvalues: 
  0.984  0.994  0.994  0.997  1.002
    eigenvectors:
  0.000  0.000  0.000  1.000  0.000
  0.000  0.315  0.685  0.000  0.000
  0.000  0.685  0.315  0.000  0.000
  0.000  0.000  0.000  0.000  1.000
  1.000  0.000  0.000  0.000  0.000
    occupations:
  0.997 -0.000 -0.000  0.000  0.000
 -0.000  0.994 -0.000  0.000  0.000
 -0.000 -0.000  0.994  0.000  0.000
  0.000  0.000  0.000  1.002 -0.000
  0.000  0.000  0.000 -0.000  0.984
   spin  2
    eigenvalues: 
  0.065  0.135  0.146  0.146  0.253
    eigenvectors:
  0.000  1.000  0.000  0.000  0.000
  0.000  0.000  0.256  0.744  0.000
  0.000  0.000  0.744  0.256  0.000
  1.000  0.000  0.000  0.000  0.000
  0.000  0.000  0.000  0.000  1.000
    occupations:
  0.135 -0.000 -0.000  0.000  0.000
 -0.000  0.146 -0.000  0.000  0.000
 -0.000 -0.000  0.146  0.000  0.000
  0.000  0.000  0.000  0.065 -0.000
  0.000  0.000  0.000 -0.000  0.253
atomic mag. moment =     4.224508
atom    2   Tr[ns(na)] (up, down, total) =   4.96864  0.77056  5.73920
   spin  1
    eigenvalues: 
  0.984  0.993  0.993  0.996  1.002
    eigenvectors:
  0.000  0.000  0.000  1.000  0.000
  0.000  0.370  0.630  0.000  0.000
  0.000  0.630  0.370  0.000  0.000
  0.000  0.000  0.000  0.000  1.000
  1.000  0.000  0.000  0.000  0.000
    occupations:
  0.996 -0.000 -0.000  0.000  0.000
 -0.000  0.993 -0.000  0.000  0.000
 -0.000 -0.000  0.993  0.000  0.000
  0.000  0.000  0.000  1.002 -0.000
  0.000  0.000  0.000 -0.000  0.984
   spin  2
    eigenvalues: 
  0.065  0.144  0.144  0.150  0.268
    eigenvectors:
  0.000  0.000  0.000  1.000  0.000
  0.000  0.322  0.678  0.000  0.000
  0.000  0.678  0.322  0.000  0.000
  1.000  0.000  0.000  0.000  0.000
  0.000  0.000  0.000  0.000  1.000
    occupations:
  0.150 -0.000 -0.000  0.000  0.000
 -0.000  0.144 -0.000  0.000  0.000
 -0.000 -0.000  0.144  0.000  0.000
  0.000  0.000  0.000  0.065 -0.000
  0.000  0.000  0.000 -0.000  0.268
atomic mag. moment =     4.198076
atom    3   Tr[ns(na)] (up, down, total) =   4.96827  0.77138  5.73965
   spin  1
    eigenvalues: 
  0.984  0.993  0.993  0.997  1.002
    eigenvectors:
  0.000  0.000  0.000  1.000  0.000
  0.000  0.380  0.620  0.000  0.000
  0.000  0.620  0.380  0.000  0.000
  0.000  0.000  0.000  0.000  1.000
  1.000  0.000  0.000  0.000  0.000
    occupations:
  0.997 -0.000 -0.000  0.000  0.000
 -0.000  0.993 -0.000  0.000  0.000
 -0.000 -0.000  0.993  0.000  0.000
  0.000  0.000  0.000  1.002 -0.000
  0.000  0.000  0.000 -0.000  0.984
   spin  2
    eigenvalues: 
  0.065  0.143  0.143  0.153  0.268
    eigenvectors:
  0.000  0.000  0.000  1.000  0.000
  0.000  0.242  0.758  0.000  0.000
  0.000  0.758  0.242  0.000  0.000
  1.000  0.000  0.000  0.000  0.000
  0.000  0.000  0.000  0.000  1.000
    occupations:
  0.153 -0.000 -0.000  0.000  0.000
 -0.000  0.143 -0.000  0.000  0.000
 -0.000 -0.000  0.143  0.000  0.000
  0.000  0.000  0.000  0.065 -0.000
  0.000  0.000  0.000 -0.000  0.268
atomic mag. moment =     4.196897
atom    4   Tr[ns(na)] (up, down, total) =   4.96824  0.77165  5.73988
   spin  1
    eigenvalues: 
  0.984  0.993  0.993  0.997  1.002
    eigenvectors:
  0.000  0.000  0.000  1.000  0.000
  0.000  0.272  0.728  0.000  0.000
  0.000  0.728  0.272  0.000  0.000
  0.000  0.000  0.000  0.000  1.000
  1.000  0.000  0.000  0.000  0.000
    occupations:
  0.997 -0.000 -0.000  0.000  0.000
 -0.000  0.993 -0.000  0.000  0.000
 -0.000 -0.000  0.993  0.000  0.000
  0.000  0.000  0.000  1.002 -0.000
  0.000  0.000  0.000 -0.000  0.984
   spin  2
    eigenvalues: 
  0.065  0.143  0.143  0.153  0.268
    eigenvectors:
  0.000  0.000  0.000  1.000  0.000
  0.000  0.249  0.751  0.000  0.000
  0.000  0.751  0.249  0.000  0.000
  1.000  0.000  0.000  0.000  0.000
  0.000  0.000  0.000  0.000  1.000
    occupations:
  0.153 -0.000 -0.000  0.000  0.000
 -0.000  0.143 -0.000  0.000  0.000
 -0.000 -0.000  0.143  0.000  0.000
  0.000  0.000  0.000  0.065 -0.000
  0.000  0.000  0.000 -0.000  0.268
atomic mag. moment =     4.196590
atom    5   Tr[ns(na)] (up, down, total) =   4.96868  0.77042  5.73910
   spin  1
    eigenvalues: 
  0.984  0.993  0.993  0.996  1.002
    eigenvectors:
  0.000  0.000  0.000  1.000  0.000
  0.000  0.348  0.652  0.000  0.000
  0.000  0.652  0.348  0.000  0.000
  0.000  0.000  0.000  0.000  1.000
  1.000  0.000  0.000  0.000  0.000
    occupations:
  0.996 -0.000 -0.000  0.000  0.000
 -0.000  0.993 -0.000  0.000  0.000
 -0.000 -0.000  0.993  0.000  0.000
  0.000  0.000  0.000  1.002 -0.000
  0.000  0.000  0.000 -0.000  0.984
   spin  2
    eigenvalues: 
  0.065  0.144  0.144  0.150  0.268
    eigenvectors:
  0.000  0.000  0.000  1.000  0.000
  0.000  0.276  0.724  0.000  0.000
  0.000  0.724  0.276  0.000  0.000
  1.000  0.000  0.000  0.000  0.000
  0.000  0.000  0.000  0.000  1.000
    occupations:
  0.150 -0.000 -0.000  0.000  0.000
 -0.000  0.144 -0.000  0.000  0.000
 -0.000 -0.000  0.144  0.000  0.000
  0.000  0.000  0.000  0.065 -0.000
  0.000  0.000  0.000 -0.000  0.268
atomic mag. moment =     4.198267
atom    6   Tr[ns(na)] (up, down, total) =   4.97048  0.74614  5.71662
   spin  1
    eigenvalues: 
  0.984  0.994  0.994  0.997  1.002
    eigenvectors:
  0.000  0.000  0.000  1.000  0.000
  0.000  0.292  0.708  0.000  0.000
  0.000  0.708  0.292  0.000  0.000
  0.000  0.000  0.000  0.000  1.000
  1.000  0.000  0.000  0.000  0.000
    occupations:
  0.997 -0.000 -0.000  0.000  0.000
 -0.000  0.994 -0.000  0.000  0.000
 -0.000 -0.000  0.994  0.000  0.000
  0.000  0.000  0.000  1.002 -0.000
  0.000  0.000  0.000 -0.000  0.984
   spin  2
    eigenvalues: 
  0.065  0.135  0.146  0.146  0.254
    eigenvectors:
  0.000  1.000  0.000  0.000  0.000
  0.000  0.000  0.403  0.597  0.000
  0.000  0.000  0.597  0.403  0.000
  1.000  0.000  0.000  0.000  0.000
  0.000  0.000  0.000  0.000  1.000
    occupations:
  0.135 -0.000 -0.000  0.000  0.000
 -0.000  0.146 -0.000  0.000  0.000
 -0.000 -0.000  0.146  0.000  0.000
  0.000  0.000  0.000  0.065 -0.000
  0.000  0.000  0.000 -0.000  0.254
atomic mag. moment =     4.224342
atom    7   Tr[ns(na)] (up, down, total) =   0.73989  4.97147  5.71136
   spin  1
    eigenvalues: 
  0.064  0.134  0.143  0.143  0.256
    eigenvectors:
  0.000  1.000  0.000  0.000  0.000
  0.000  0.000  0.329  0.671  0.000
  0.000  0.000  0.671  0.329  0.000
  1.000  0.000  0.000  0.000  0.000
  0.000  0.000  0.000  0.000  1.000
    occupations:
  0.134 -0.000 -0.000  0.000  0.000
 -0.000  0.143 -0.000  0.000  0.000
 -0.000 -0.000  0.143  0.000  0.000
  0.000  0.000  0.000  0.064 -0.000
  0.000  0.000  0.000 -0.000  0.256
   spin  2
    eigenvalues: 
  0.984  0.994  0.994  0.997  1.002
    eigenvectors:
  0.000  0.000  0.000  1.000  0.000
  0.000  0.352  0.648  0.000  0.000
  0.000  0.648  0.352  0.000  0.000
  0.000  0.000  0.000  0.000  1.000
  1.000  0.000  0.000  0.000  0.000
    occupations:
  0.997 -0.000 -0.000  0.000  0.000
 -0.000  0.994 -0.000  0.000  0.000
 -0.000 -0.000  0.994  0.000  0.000
  0.000  0.000  0.000  1.002 -0.000
  0.000  0.000  0.000 -0.000  0.984
atomic mag. moment =    -4.231581
atom    8   Tr[ns(na)] (up, down, total) =   0.73963  4.97153  5.71117
   spin  1
    eigenvalues: 
  0.064  0.134  0.143  0.143  0.255
    eigenvectors:
  0.000  1.000  0.000  0.000  0.000
  0.000  0.000  0.322  0.678  0.000
  0.000  0.000  0.678  0.322  0.000
  1.000  0.000  0.000  0.000  0.000
  0.000  0.000  0.000  0.000  1.000
    occupations:
  0.134 -0.000 -0.000  0.000  0.000
 -0.000  0.143 -0.000  0.000  0.000
 -0.000 -0.000  0.143  0.000  0.000
  0.000  0.000  0.000  0.064 -0.000
  0.000  0.000  0.000 -0.000  0.255
   spin  2
    eigenvalues: 
  0.985  0.994  0.994  0.997  1.002
    eigenvectors:
  0.000  0.000  0.000  1.000  0.000
  0.000  0.269  0.731  0.000  0.000
  0.000  0.731  0.269  0.000  0.000
  0.000  0.000  0.000  0.000  1.000
  1.000  0.000  0.000  0.000  0.000
    occupations:
  0.997 -0.000 -0.000  0.000  0.000
 -0.000  0.994 -0.000  0.000  0.000
 -0.000 -0.000  0.994  0.000  0.000
  0.000  0.000  0.000  1.002 -0.000
  0.000  0.000  0.000 -0.000  0.985
atomic mag. moment =    -4.231904
N of occupied +U levels =   45.813561
 --- exit write_ns ---

 ------ SPIN UP ------------


          k = 0.0000 0.0000 0.0000 ( 13925 PWs)   bands (ev):

   -66.7419 -66.7417 -66.6254 -66.6249 -66.6139 -66.6132 -62.1786 -62.1781
   -35.5074 -35.5072 -35.4618 -35.4618 -35.4614 -35.4614 -35.3977 -35.3977
   -35.3844 -35.3842 -35.3438 -35.3438 -35.3431 -35.3431 -35.3334 -35.3334
   -35.3324 -35.3324 -31.0049 -31.0046 -30.9969 -30.9969 -30.9963 -30.9963
     5.7425   5.8666   5.9325   6.3331   6.3555   6.9829   7.0394   7.6111
     8.2161   8.3509   8.3595   8.3958   8.4345   8.4922   8.5563   8.6414
     8.7780   8.7878   8.8156   8.8218   9.0160   9.0498   9.1372   9.2030
     9.2082   9.3657   9.4386   9.4614   9.5417   9.6039   9.6882   9.8438
     9.8761   9.9004   9.9065   9.9831  10.1035  10.1128  10.1162  10.1162
    10.1685  10.1685  10.1836  10.1836  10.2497  10.2507  10.3309  10.3309
    10.3391  10.3391  10.4284  10.4321  10.5051  10.5817  10.5817  10.5864
    10.5864  10.5999  10.5999  10.6031  10.6031  10.6494  10.6494  10.6531
    10.6796  10.7060  10.7060  10.7750  10.7750  10.7835  10.7835  10.8311
    10.9945  10.9976  11.0370  11.0370  11.0397  11.0397  11.0653  11.1866
    11.2412  11.2536  11.2894  11.3999  11.4908  11.4908  11.5395  11.5451
    11.5508  11.5508  11.5879  11.7324  11.7690  11.8378  11.8988  11.9045
    11.9045  12.0233  12.0441  12.0581  12.0715  12.0715  12.1031  12.1587
    12.2294  12.2357  12.3767  12.3767  12.4902  12.6147  12.6147  12.6567
    12.8034  12.8034  12.8070  12.8129  12.9410  13.0501  13.1100  13.1242
    13.2340  13.8895  14.1196  15.0504  15.5552  16.5621  16.7804  16.7804
    16.9429  16.9972  17.0734  17.0734  17.0933  17.1467  17.4893  17.5675
    18.1431  19.3790  19.6438  20.0348  20.0348  20.3708  20.3708  20.4602
    20.4602  21.3800

          k = 0.0000 0.0000-0.0484 ( 13878 PWs)   bands (ev):

   -66.7419 -66.7417 -66.6254 -66.6249 -66.6139 -66.6132 -62.1786 -62.1781
   -35.5074 -35.5072 -35.4618 -35.4618 -35.4614 -35.4614 -35.3977 -35.3977
   -35.3844 -35.3842 -35.3438 -35.3438 -35.3431 -35.3431 -35.3334 -35.3334
   -35.3324 -35.3324 -31.0049 -31.0046 -30.9969 -30.9969 -30.9963 -30.9963
     5.7664   5.7967   6.0581   6.1235   6.6428   6.6656   7.3512   7.4155
     8.3366   8.3511   8.3952   8.4079   8.4238   8.4934   8.5213   8.5825
     8.6390   8.7424   8.8275   8.9996   9.0175   9.0270   9.1574   9.1720
     9.3295   9.3341   9.3769   9.3808   9.5674   9.6453   9.6929   9.8239
     9.8763   9.8972   9.9060   9.9839  10.1020  10.1201  10.1201  10.1333
    10.1467  10.1467  10.2322  10.2322  10.2504  10.2506  10.2506  10.2537
    10.4033  10.4156  10.4542  10.4542  10.4574  10.4574  10.5333  10.5831
    10.5831  10.5924  10.5924  10.6305  10.6441  10.6441  10.7055  10.7055
    10.7196  10.7234  10.7234  10.7312  10.7312  10.8276  10.8276  10.8451
    10.8925  10.8925  10.8956  11.0538  11.0959  11.1839  11.2002  11.2002
    11.2118  11.2607  11.3009  11.3397  11.3397  11.3908  11.5316  11.5474
    11.5969  11.7271  11.7302  11.7302  11.7767  11.7767  11.7896  11.8309
    11.9015  11.9695  12.0430  12.1058  12.1184  12.1240  12.1240  12.1591
    12.2069  12.2356  12.3580  12.3580  12.4955  12.6204  12.6204  12.6532
    12.8024  12.8024  12.8087  12.8594  12.9403  12.9631  13.0504  13.1241
    13.5156  13.5578  14.4071  14.7873  15.7853  16.4054  16.7804  16.7804
    16.9429  16.9972  17.0734  17.0734  17.0933  17.1467  17.5019  17.5757
    18.3592  18.8549  20.0988  20.0988  20.1697  20.1697  20.4325  20.5407
    20.8094  20.8094

          k = 0.0000 0.1250 0.0000 ( 13879 PWs)   bands (ev):

   -66.7416 -66.7414 -66.6251 -66.6246 -66.6136 -66.6130 -62.1786 -62.1781
   -35.5072 -35.5071 -35.4636 -35.4632 -35.4617 -35.4613 -35.3976 -35.3976
   -35.3843 -35.3841 -35.3456 -35.3449 -35.3437 -35.3430 -35.3352 -35.3342
   -35.3333 -35.3323 -31.0046 -31.0043 -30.9990 -30.9985 -30.9967 -30.9962
     5.9862   6.1068   6.1705   6.5557   6.5781   7.1749   7.2152   7.7416
     8.2319   8.4510   8.4898   8.5223   8.5305   8.6064   8.6475   8.6891
     8.7435   8.7591   8.8824   8.8979   8.9951   9.0772   9.1693   9.1791
     9.2691   9.2926   9.3090   9.3183   9.4296   9.5988   9.6459   9.7681
     9.7925   9.8080   9.8535   9.8979   9.9215   9.9241   9.9873   9.9929
    10.0188  10.0294  10.0480  10.0950  10.1667  10.1711  10.1848  10.2662
    10.3242  10.3262  10.3573  10.3616  10.4233  10.4546  10.5255  10.5802
    10.5895  10.6310  10.6391  10.6636  10.7348  10.7516  10.7711  10.8280
    10.8285  10.8477  10.8513  10.8958  10.9606  10.9826  11.0528  11.0783
    11.0875  11.1317  11.1419  11.1505  11.1769  11.1993  11.2064  11.2536
    11.2971  11.3175  11.3402  11.4227  11.4463  11.4957  11.5240  11.5504
    11.6278  11.6453  11.7522  11.7846  11.7990  11.7990  11.8818  11.8872
    11.8977  11.9670  12.0256  12.0480  12.0538  12.1387  12.1513  12.1699
    12.2028  12.2520  12.3438  12.3608  12.4532  12.5340  12.6060  12.6246
    12.7531  12.7669  12.7764  12.9162  12.9188  13.0235  13.0252  13.0785
    13.2076  13.9522  14.1552  15.1747  15.6722  16.5505  16.7150  16.8667
    16.9101  16.9550  17.0005  17.0456  17.0599  17.2166  17.4667  17.8779
    18.2822  18.5782  18.8832  19.0157  19.7254  19.7712  19.8312  19.9270
    20.6328  20.9015

          k = 0.0000 0.1250-0.0484 ( 13868 PWs)   bands (ev):

   -66.7416 -66.7414 -66.6251 -66.6246 -66.6136 -66.6130 -62.1786 -62.1781
   -35.5072 -35.5071 -35.4636 -35.4632 -35.4617 -35.4613 -35.3976 -35.3976
   -35.3843 -35.3841 -35.3456 -35.3449 -35.3437 -35.3430 -35.3352 -35.3342
   -35.3333 -35.3323 -31.0046 -31.0043 -30.9990 -30.9985 -30.9967 -30.9962
     6.0095   6.0389   6.2920   6.3549   6.8530   6.8697   7.5179   7.5527
     8.3609   8.4660   8.4773   8.4913   8.5127   8.5335   8.6126   8.6809
     8.7369   8.8124   8.9012   8.9559   8.9933   9.0908   9.0935   9.1776
     9.2482   9.2539   9.3403   9.3564   9.4866   9.5427   9.6221   9.7968
     9.8014   9.8330   9.8577   9.8973   9.9078   9.9217   9.9232  10.0187
    10.0256  10.0343  10.0460  10.0970  10.1674  10.1722  10.2252  10.2702
    10.2813  10.3054  10.3236  10.3718  10.4596  10.5169  10.5282  10.5914
    10.5926  10.5983  10.6213  10.6423  10.6595  10.7449  10.8252  10.8293
    10.8323  10.8511  10.8871  10.9414  10.9796  10.9816  11.0417  11.0484
    11.0700  11.1041  11.1107  11.1287  11.1691  11.1987  11.2555  11.2649
    11.2718  11.3489  11.3540  11.4151  11.4180  11.5412  11.5514  11.5629
    11.6274  11.6707  11.6904  11.7088  11.7810  11.7955  11.8497  11.9091
    11.9597  12.0385  12.0424  12.0507  12.0753  12.1123  12.1260  12.1391
    12.2027  12.2100  12.3485  12.3867  12.4676  12.5362  12.5958  12.6230
    12.7523  12.7780  12.8255  12.9055  12.9157  12.9200  13.0235  13.0249
    13.5367  13.5516  14.5020  14.8705  15.9329  16.3913  16.7573  16.8667
    16.8932  16.9560  17.0005  17.0427  17.0599  17.2166  17.4982  17.7216
    18.6198  18.6902  18.7467  19.0626  19.2816  19.3822  20.3077  20.3134
    20.6690  20.7748

          k = 0.0000 0.2500 0.0000 ( 13848 PWs)   bands (ev):

   -66.7415 -66.7413 -66.6249 -66.6244 -66.6135 -66.6128 -62.1782 -62.1778
   -35.5068 -35.5067 -35.4677 -35.4674 -35.4614 -35.4611 -35.3972 -35.3972
   -35.3839 -35.3837 -35.3498 -35.3491 -35.3435 -35.3427 -35.3394 -35.3384
   -35.3330 -35.3321 -31.0044 -31.0041 -31.0038 -31.0038 -30.9964 -30.9958
     6.6757   6.7835   6.8406   7.1684   7.1891   7.6569   7.6572   8.0178
     8.2120   8.4371   8.4527   8.6585   8.6809   8.6976   8.7832   8.8133
     8.8531   8.8604   8.8878   8.9210   8.9339   8.9392   8.9951   8.9952
     9.1793   9.2004   9.3551   9.4463   9.4593   9.4976   9.5565   9.6009
     9.6175   9.6265   9.6304   9.7031   9.7169   9.7344   9.7582   9.8278
     9.8759   9.9170   9.9788  10.0535  10.1100  10.1170  10.1465  10.2382
    10.2643  10.4382  10.5227  10.5324  10.5385  10.5896  10.5946  10.6700
    10.7280  10.7394  10.7465  10.8033  10.8237  10.8560  10.9166  10.9837
    10.9953  11.0473  11.0478  11.1186  11.1353  11.1426  11.1715  11.2072
    11.2338  11.3098  11.3482  11.3880  11.3894  11.4256  11.4544  11.4724
    11.5198  11.5273  11.5704  11.6426  11.6564  11.6942  11.6987  11.7054
    11.7365  11.7366  11.7657  11.8161  11.8255  11.8575  11.8909  11.9266
    11.9385  11.9623  12.0340  12.0406  12.0506  12.0863  12.0887  12.0957
    12.1374  12.2492  12.2570  12.3961  12.4477  12.5354  12.5871  12.6651
    12.7013  12.8291  12.8462  12.9561  12.9826  12.9845  13.0645  13.0693
    13.1085  14.1050  14.2362  15.4091  15.6822  16.0356  16.1518  16.2534
    16.3607  16.7134  16.7481  16.8980  16.9671  17.0388  17.0798  17.2811
    17.2928  17.3552  17.5021  17.8455  18.1319  18.3761  18.4700  18.6469
    19.2619  20.2997

          k = 0.0000 0.2500-0.0484 ( 13842 PWs)   bands (ev):

   -66.7415 -66.7413 -66.6249 -66.6244 -66.6135 -66.6128 -62.1782 -62.1778
   -35.5068 -35.5067 -35.4677 -35.4674 -35.4614 -35.4611 -35.3972 -35.3972
   -35.3839 -35.3837 -35.3498 -35.3491 -35.3435 -35.3427 -35.3394 -35.3384
   -35.3330 -35.3321 -31.0044 -31.0041 -31.0038 -31.0038 -30.9964 -30.9958
     6.6966   6.7231   6.9462   7.0009   7.4126   7.4140   7.8642   7.9025
     8.2947   8.3290   8.5625   8.5639   8.6988   8.7379   8.7864   8.7872
     8.8452   8.8540   8.8875   8.9182   8.9524   8.9788   8.9804   8.9952
     9.1215   9.2024   9.4464   9.4584   9.4729   9.5001   9.5127   9.5516
     9.6220   9.6221   9.6273   9.6299   9.7215   9.7308   9.8191   9.8770
     9.9005   9.9251   9.9773  10.0322  10.0493  10.1166  10.1280  10.2296
    10.3306  10.4544  10.4944  10.5283  10.5397  10.6065  10.6145  10.6371
    10.7051  10.7062  10.7321  10.8301  10.8576  10.8896  10.9283  10.9742
    11.0023  11.0061  11.0543  11.0899  11.1119  11.1734  11.1775  11.2170
    11.2721  11.3107  11.3407  11.3562  11.3568  11.4462  11.4524  11.4851
    11.4984  11.5515  11.5957  11.6042  11.6755  11.6929  11.7001  11.7013
    11.7326  11.7668  11.7835  11.8017  11.8313  11.8460  11.8481  11.9214
    11.9544  11.9756  11.9877  12.0358  12.0414  12.0954  12.0998  12.1374
    12.1610  12.2366  12.2571  12.3398  12.5076  12.5144  12.6712  12.6810
    12.6926  12.7317  12.8254  12.8494  12.9579  12.9835  13.0646  13.0691
    13.5365  13.5680  14.7207  15.0108  15.9580  16.0729  16.0855  16.1561
    16.3941  16.6992  16.7481  16.9436  16.9671  17.0235  17.0923  17.2772
    17.2928  17.3552  17.5499  17.7782  18.0983  18.1476  18.6864  18.7452
    19.4404  19.6726

          k = 0.0000 0.3750 0.0000 ( 13856 PWs)   bands (ev):

   -66.7421 -66.7419 -66.6255 -66.6250 -66.6140 -66.6134 -62.1772 -62.1768
   -35.5064 -35.5063 -35.4718 -35.4714 -35.4612 -35.4608 -35.3968 -35.3967
   -35.3834 -35.3833 -35.3539 -35.3531 -35.3434 -35.3432 -35.3425 -35.3425
   -35.3328 -35.3319 -31.0098 -31.0092 -31.0035 -31.0032 -30.9961 -30.9955
     7.6380   7.7192   7.7596   7.9603   7.9633   8.1103   8.1343   8.1606
     8.1641   8.2177   8.2329   8.3510   8.3810   8.5312   8.5982   8.7852
     8.8303   8.9166   9.0051   9.0449   9.0534   9.1275   9.1930   9.1965
     9.2319   9.2439   9.2478   9.2760   9.3100   9.3178   9.3606   9.4872
     9.4874   9.4933   9.5727   9.6002   9.6443   9.6546   9.8224   9.8414
     9.8689   9.9491   9.9496  10.0442  10.0753  10.1199  10.1619  10.2861
    10.3241  10.3300  10.3429  10.3621  10.4933  10.5202  10.5770  10.7378
    10.7823  10.8419  10.9188  10.9954  11.0479  11.1449  11.1865  11.2027
    11.2957  11.3299  11.3333  11.3760  11.4022  11.4378  11.4482  11.4616
    11.4938  11.5248  11.5582  11.5678  11.5962  11.6069  11.6104  11.6221
    11.6555  11.7031  11.7047  11.7930  11.7997  11.8085  11.8320  11.8433
    11.8913  11.9202  11.9486  12.0391  12.0584  12.0596  12.0984  12.1141
    12.1304  12.1465  12.1608  12.1888  12.1984  12.2662  12.3152  12.3200
    12.4219  12.4385  12.5153  12.5297  12.5755  12.5925  12.6575  12.7755
    12.8105  12.9009  12.9426  12.9781  12.9985  13.0239  13.0475  13.1085
    13.1175  13.9456  14.0508  14.0731  14.2777  14.3016  14.8928  15.0173
    15.0772  15.1390  15.7135  15.7290  16.0201  16.1214  16.7105  16.7842
    16.8952  16.9752  17.0520  17.1875  17.5008  17.5218  17.9200  18.1139
    19.3956  19.4018

          k = 0.0000 0.3750-0.0484 ( 13872 PWs)   bands (ev):

   -66.7421 -66.7419 -66.6255 -66.6250 -66.6140 -66.6134 -62.1772 -62.1768
   -35.5064 -35.5063 -35.4718 -35.4714 -35.4612 -35.4608 -35.3968 -35.3967
   -35.3834 -35.3833 -35.3539 -35.3531 -35.3434 -35.3432 -35.3425 -35.3425
   -35.3328 -35.3319 -31.0098 -31.0092 -31.0035 -31.0032 -30.9961 -30.9955
     7.6542   7.6742   7.8324   7.8620   8.0543   8.0622   8.1492   8.1541
     8.1776   8.1886   8.2790   8.2955   8.4326   8.4873   8.6355   8.7352
     8.9068   8.9237   8.9396   9.0021   9.1010   9.1408   9.1929   9.1966
     9.2323   9.2433   9.2785   9.2792   9.3155   9.3195   9.3585   9.4114
     9.4856   9.4901   9.5128   9.6396   9.6606   9.7763   9.8154   9.8407
     9.8654   9.9310   9.9369   9.9991  10.0416  10.0477  10.2896  10.2908
    10.3074  10.3420  10.3508  10.3979  10.4927  10.5233  10.5353  10.7056
    10.7116  10.8604  10.9571  11.0279  11.1317  11.1514  11.1856  11.1982
    11.2396  11.3148  11.3884  11.3944  11.4218  11.4283  11.4420  11.4447
    11.4621  11.4747  11.4802  11.5208  11.6008  11.6017  11.6350  11.6527
    11.6738  11.7042  11.7517  11.7517  11.7686  11.7894  11.7998  11.8507
    11.8919  11.9703  12.0170  12.0301  12.0832  12.0856  12.0998  12.1178
    12.1319  12.1356  12.1445  12.1491  12.3048  12.3062  12.3484  12.4050
    12.4275  12.4375  12.4439  12.4950  12.5300  12.5801  12.6277  12.6541
    12.7632  12.8105  12.9062  12.9427  13.0223  13.0475  13.1088  13.1174
    13.5442  13.5647  14.0349  14.0417  14.4853  14.5245  14.6445  14.6840
    15.3171  15.3835  15.6157  15.6482  15.9932  16.1449  16.7105  16.7878
    16.8952  16.9798  17.0493  17.1943  17.5008  17.5218  17.9182  18.1187
    19.4024  19.4593

          k = 0.0000-0.5000 0.0000 ( 13918 PWs)   bands (ev):

   -66.7425 -66.7423 -66.6260 -66.6255 -66.6145 -66.6139 -62.1766 -62.1762
   -35.5062 -35.5061 -35.4735 -35.4731 -35.4611 -35.4607 -35.3966 -35.3966
   -35.3832 -35.3831 -35.3555 -35.3548 -35.3451 -35.3442 -35.3431 -35.3424
   -35.3327 -35.3318 -31.0120 -31.0115 -31.0032 -31.0030 -30.9959 -30.9954
     8.0935   8.0938   8.1213   8.1215   8.1743   8.1744   8.2835   8.2835
     8.4062   8.4065   8.4403   8.4404   8.4975   8.4976   8.6525   8.6526
     8.7741   8.7742   8.9413   8.9415   9.0083   9.0084   9.0930   9.0934
     9.1411   9.1414   9.2423   9.2426   9.3921   9.3924   9.4816   9.4817
     9.5780   9.5783   9.6925   9.6926   9.7611   9.7611   9.7631   9.7633
     9.8126   9.8126   9.8937   9.8938  10.0191  10.0192  10.0822  10.0824
    10.3366  10.3373  10.3502  10.3504  10.5479  10.5484  10.5766  10.5767
    10.7075  10.7080  10.9355  10.9356  11.3196  11.3197  11.3406  11.3407
    11.4057  11.4058  11.4643  11.4645  11.5215  11.5217  11.5515  11.5517
    11.5646  11.5648  11.5821  11.5823  11.6410  11.6411  11.7218  11.7218
    11.7692  11.7693  11.8271  11.8271  11.8364  11.8366  11.9280  11.9280
    11.9962  11.9963  12.1535  12.1538  12.2946  12.2947  12.3995  12.3995
    12.4792  12.4792  12.5174  12.5176  12.5266  12.5266  12.5690  12.5691
    12.6734  12.6735  12.6797  12.6800  12.8228  12.8232  12.8805  12.8806
    12.9481  12.9482  12.9620  12.9624  13.0642  13.0646  13.1335  13.1341
    13.3087  13.3088  13.4368  13.4368  13.8471  13.8472  13.8846  13.8847
    14.3901  14.3904  14.4909  14.4912  14.8020  14.8023  16.6408  16.6412
    16.7849  16.7862  16.9566  16.9568  17.5846  17.5856  17.9751  17.9758
    19.3862  19.3862

          k = 0.0000-0.5000-0.0484 ( 13892 PWs)   bands (ev):

   -66.7425 -66.7423 -66.6260 -66.6255 -66.6145 -66.6139 -62.1766 -62.1762
   -35.5062 -35.5061 -35.4735 -35.4731 -35.4611 -35.4607 -35.3966 -35.3966
   -35.3832 -35.3831 -35.3555 -35.3548 -35.3451 -35.3442 -35.3431 -35.3424
   -35.3327 -35.3318 -31.0120 -31.0115 -31.0032 -31.0030 -30.9959 -30.9954
     8.0925   8.0929   8.1239   8.1241   8.1713   8.1714   8.2872   8.2873
     8.3935   8.3938   8.4600   8.4600   8.4879   8.4879   8.6488   8.6488
     8.7914   8.7914   8.9039   8.9040   9.0370   9.0371   9.0930   9.0935
     9.1410   9.1413   9.2424   9.2428   9.3919   9.3922   9.4720   9.4721
     9.5785   9.5788   9.6918   9.6919   9.7596   9.7597   9.7621   9.7623
     9.8139   9.8139   9.8948   9.8949  10.0187  10.0188  10.1314  10.1315
    10.2783  10.2786  10.3365  10.3372  10.5482  10.5487  10.5975  10.5976
    10.7072  10.7078  10.9670  10.9671  11.2868  11.2869  11.3407  11.3408
    11.4141  11.4142  11.4646  11.4649  11.5223  11.5224  11.5522  11.5524
    11.5702  11.5702  11.5804  11.5807  11.6032  11.6033  11.7318  11.7318
    11.7695  11.7695  11.8160  11.8160  11.8356  11.8357  11.9917  11.9917
    11.9985  11.9987  12.1508  12.1511  12.2547  12.2548  12.4029  12.4029
    12.4849  12.4849  12.5139  12.5142  12.5328  12.5328  12.5570  12.5570
    12.6815  12.6818  12.6966  12.6966  12.8220  12.8224  12.8327  12.8328
    12.9623  12.9627  13.0044  13.0044  13.0642  13.0645  13.1335  13.1341
    13.2362  13.2362  13.5705  13.5706  13.6512  13.6512  14.0977  14.0978
    14.1931  14.1933  14.6572  14.6578  14.7321  14.7322  16.6416  16.6420
    16.7849  16.7862  16.9566  16.9568  17.5846  17.5856  17.9752  17.9760
    19.4222  19.4223

          k = 0.1250 0.1250 0.0000 ( 13839 PWs)   bands (ev):

   -66.7413 -66.7411 -66.6248 -66.6243 -66.6133 -66.6127 -62.1787 -62.1782
   -35.5071 -35.5069 -35.4635 -35.4634 -35.4631 -35.4630 -35.3974 -35.3974
   -35.3841 -35.3839 -35.3455 -35.3454 -35.3448 -35.3447 -35.3351 -35.3350
   -35.3341 -35.3341 -31.0044 -31.0041 -30.9990 -30.9988 -30.9984 -30.9982
     6.2173   6.3353   6.3996   6.7737   6.7967   7.3707   7.4006   7.8922
     8.2943   8.5350   8.5955   8.6329   8.6669   8.6863   8.7078   8.7461
     8.7510   8.8676   8.9635   9.0089   9.0125   9.0801   9.1852   9.2185
     9.3081   9.3169   9.3518   9.4539   9.4853   9.4864   9.5271   9.6139
     9.6869   9.7793   9.7965   9.8393   9.8494   9.8726   9.8728   9.8802
     9.8892   9.8951   9.9063   9.9360  10.0575  10.0743  10.1228  10.2252
    10.2675  10.3224  10.3424  10.3478  10.3516  10.4121  10.4851  10.4949
    10.5493  10.5592  10.5678  10.5825  10.6341  10.6757  10.6979  10.8025
    10.8474  10.8585  10.9847  11.0191  11.0626  11.0664  11.0664  11.0829
    11.0872  11.1910  11.1953  11.2007  11.2016  11.2541  11.3065  11.3586
    11.3591  11.4398  11.4606  11.5169  11.5527  11.5660  11.5895  11.6690
    11.6908  11.6951  11.7820  11.7994  11.9012  11.9289  11.9537  11.9641
    11.9753  12.0084  12.0663  12.1013  12.1092  12.1366  12.1398  12.1684
    12.2295  12.3296  12.3826  12.4242  12.5037  12.5350  12.6523  12.6642
    12.6682  12.7211  12.7970  12.8035  12.8400  12.9008  12.9014  13.0857
    13.2251  14.0582  14.2531  15.3283  15.8280  16.6898  16.7352  16.8248
    16.8711  16.9386  16.9581  16.9952  17.1128  17.2029  17.4820  18.1938
    18.4601  19.0535  19.1784  19.2332  19.4370  19.4887  19.6371  19.8727
    19.9707  20.0991

          k = 0.1250 0.1250-0.0484 ( 13838 PWs)   bands (ev):

   -66.7413 -66.7411 -66.6248 -66.6243 -66.6133 -66.6127 -62.1787 -62.1782
   -35.5071 -35.5069 -35.4635 -35.4634 -35.4631 -35.4630 -35.3974 -35.3974
   -35.3841 -35.3839 -35.3455 -35.3454 -35.3448 -35.3447 -35.3351 -35.3350
   -35.3341 -35.3341 -31.0044 -31.0041 -30.9990 -30.9988 -30.9984 -30.9982
     6.2395   6.2700   6.5170   6.5799   7.0625   7.0754   7.6950   7.7091
     8.4052   8.5029   8.5505   8.5976   8.6331   8.6664   8.7469   8.7613
     8.8538   8.8662   8.8878   8.9878   9.0156   9.1533   9.1773   9.1794
     9.2825   9.3368   9.3997   9.4233   9.4355   9.5098   9.5506   9.6197
     9.6758   9.7847   9.7949   9.8381   9.8525   9.8576   9.8726   9.8727
     9.8952   9.9052   9.9232   9.9361  10.0193  10.0743  10.1629  10.2252
    10.2341  10.3219  10.3391  10.3487  10.3871  10.4108  10.4676  10.4878
    10.5484  10.5581  10.5626  10.6304  10.6382  10.6784  10.6852  10.7480
    10.8021  10.9674  10.9757  10.9813  11.0650  11.0729  11.0737  11.0902
    11.1379  11.1561  11.1871  11.1908  11.2042  11.2410  11.3130  11.3589
    11.3646  11.3806  11.4963  11.5097  11.5233  11.5522  11.6721  11.6779
    11.7112  11.7170  11.7841  11.7977  11.8464  11.8709  11.9318  11.9464
    12.0012  12.0402  12.0520  12.0840  12.1174  12.1683  12.1746  12.1972
    12.2274  12.2915  12.3749  12.4021  12.5112  12.5541  12.6579  12.6589
    12.6619  12.7812  12.7967  12.8149  12.8388  12.8896  12.9009  12.9014
    13.6012  13.6015  14.6364  15.0092  16.0969  16.5129  16.6898  16.8062
    16.9378  16.9581  16.9952  17.0418  17.1128  17.1491  17.5636  17.8703
    19.0387  19.0599  19.2073  19.2202  19.3010  19.3453  19.5143  19.7131
    19.9085  20.0289

          k = 0.1250 0.2500 0.0000 ( 13846 PWs)   bands (ev):

   -66.7411 -66.7409 -66.6245 -66.6240 -66.6131 -66.6124 -62.1784 -62.1779
   -35.5067 -35.5066 -35.4676 -35.4673 -35.4632 -35.4628 -35.3971 -35.3970
   -35.3837 -35.3836 -35.3497 -35.3489 -35.3452 -35.3445 -35.3392 -35.3383
   -35.3348 -35.3339 -31.0042 -31.0039 -31.0036 -31.0036 -30.9985 -30.9980
     6.8607   6.9697   7.0359   7.3671   7.3911   7.8607   7.8641   8.2099
     8.3562   8.5421   8.5586   8.7309   8.7547   8.7609   8.8256   8.9171
     8.9830   8.9848   9.0178   9.0217   9.0735   9.0887   9.1474   9.1557
     9.2381   9.3156   9.3839   9.4812   9.4851   9.4968   9.4991   9.5375
     9.5629   9.5999   9.6318   9.6444   9.6795   9.7392   9.7455   9.7778
     9.8171   9.9024   9.9173   9.9748  10.0127  10.0148  10.0763  10.1993
    10.2934  10.3208  10.3328  10.3933  10.3967  10.4029  10.4113  10.4675
    10.4983  10.5385  10.5902  10.6384  10.6556  10.7207  10.7425  10.8125
    10.8345  10.8818  10.9082  10.9315  11.0216  11.0643  11.0849  11.2176
    11.2953  11.3853  11.3928  11.4395  11.4468  11.4646  11.4855  11.5157
    11.5436  11.5574  11.5801  11.6148  11.6453  11.6973  11.7322  11.7484
    11.7835  11.8432  11.8562  11.8811  11.9157  11.9280  11.9591  11.9879
    12.0173  12.0518  12.0768  12.1020  12.1364  12.1756  12.1930  12.2500
    12.3313  12.4820  12.5232  12.5799  12.6092  12.6107  12.6691  12.7013
    12.7371  12.7430  12.7844  12.8039  12.8140  12.8670  12.9032  13.2081
    13.3471  14.3525  14.5199  15.6194  15.9300  16.2699  16.4536  16.4682
    16.6979  16.8828  16.9195  17.0340  17.0946  17.1134  17.1762  17.3236
    17.4161  17.5004  17.8098  18.1131  18.4570  18.6488  18.8869  18.8959
    19.3221  20.3870

          k = 0.1250 0.2500-0.0484 ( 13868 PWs)   bands (ev):

   -66.7411 -66.7409 -66.6245 -66.6240 -66.6131 -66.6124 -62.1784 -62.1779
   -35.5067 -35.5066 -35.4676 -35.4673 -35.4632 -35.4628 -35.3971 -35.3970
   -35.3837 -35.3836 -35.3497 -35.3489 -35.3452 -35.3445 -35.3392 -35.3383
   -35.3348 -35.3339 -31.0042 -31.0039 -31.0036 -31.0036 -30.9985 -30.9980
     6.8793   6.9138   7.1379   7.2005   7.6162   7.6192   8.0658   8.0985
     8.4274   8.4565   8.6497   8.6535   8.7425   8.7979   8.8621   8.8747
     8.9780   8.9996   9.0105   9.0522   9.0669   9.1059   9.1327   9.1564
     9.1700   9.3452   9.4755   9.4766   9.4830   9.4896   9.4994   9.5183
     9.5359   9.6140   9.6225   9.6332   9.6576   9.6825   9.7631   9.7988
     9.8494   9.8904   9.9578   9.9741   9.9836  10.0464  10.0753  10.1809
    10.2555  10.3177  10.3368  10.3481  10.3946  10.4000  10.4817  10.4992
    10.5147  10.5428  10.6042  10.6127  10.6505  10.6993  10.7506  10.7573
    10.8265  10.8481  10.9626  10.9821  10.9989  11.1027  11.1393  11.1709
    11.1978  11.3813  11.4176  11.4282  11.4313  11.4825  11.5070  11.5253
    11.5596  11.5685  11.6119  11.6345  11.6442  11.6795  11.7145  11.7319
    11.7769  11.7960  11.8530  11.8922  11.8943  11.9409  11.9577  12.0159
    12.0217  12.0729  12.0880  12.1021  12.1262  12.1762  12.1917  12.2208
    12.3409  12.4603  12.5057  12.5746  12.6103  12.6630  12.7056  12.7301
    12.7423  12.7682  12.7924  12.8050  12.8239  12.8696  12.9026  12.9050
    13.8079  13.8300  14.9436  15.2873  16.1873  16.2829  16.3443  16.4456
    16.7556  16.8027  16.9332  16.9751  17.0992  17.1271  17.2119  17.3140
    17.4145  17.6296  17.8381  18.0480  18.3857  18.4154  18.9744  19.0584
    19.6529  19.7280

          k = 0.1250 0.3750 0.0000 ( 13875 PWs)   bands (ev):

   -66.7415 -66.7413 -66.6250 -66.6245 -66.6135 -66.6129 -62.1775 -62.1771
   -35.5063 -35.5062 -35.4717 -35.4713 -35.4629 -35.4626 -35.3967 -35.3966
   -35.3833 -35.3832 -35.3537 -35.3530 -35.3449 -35.3442 -35.3433 -35.3424
   -35.3345 -35.3336 -31.0095 -31.0090 -31.0033 -31.0031 -30.9982 -30.9976
     7.7275   7.8170   7.8839   8.1120   8.1300   8.3140   8.3149   8.3339
     8.3584   8.3759   8.3858   8.4927   8.5238   8.6675   8.7185   8.8728
     8.9357   8.9430   9.0305   9.0938   9.1276   9.2072   9.2158   9.2271
     9.2494   9.2516   9.3209   9.3587   9.3954   9.4049   9.4537   9.4684
     9.4800   9.4862   9.5505   9.5632   9.6374   9.6455   9.7429   9.7881
     9.8619   9.9015   9.9062   9.9308   9.9975  10.1645  10.2028  10.2590
    10.2671  10.3460  10.3715  10.4064  10.4793  10.4879  10.5553  10.5856
    10.6435  10.7017  10.7603  10.7995  10.9116  10.9215  10.9768  11.0759
    11.0931  11.1489  11.1507  11.2179  11.2538  11.3193  11.3767  11.4270
    11.4674  11.4950  11.4959  11.5220  11.5684  11.5775  11.6241  11.6388
    11.6696  11.6722  11.7312  11.7567  11.7679  11.7789  11.8082  11.8510
    11.8614  11.8839  11.8935  11.9200  11.9418  11.9675  11.9878  11.9977
    12.0412  12.0850  12.1386  12.1901  12.3039  12.3051  12.4138  12.4263
    12.5072  12.5096  12.5265  12.5360  12.5725  12.6266  12.6666  12.7345
    12.8245  12.8272  12.8461  12.8793  12.9132  13.1650  13.2605  13.7354
    13.7995  14.3629  14.4775  14.5639  14.6809  14.7508  15.2662  15.3349
    15.5793  15.5916  16.0989  16.1288  16.5680  16.5754  16.8414  16.8496
    17.0856  17.0946  17.1263  17.2187  17.6002  17.8139  18.0017  18.2493
    19.4199  19.4220

          k = 0.1250 0.3750-0.0484 ( 13882 PWs)   bands (ev):

   -66.7415 -66.7413 -66.6250 -66.6245 -66.6135 -66.6129 -62.1775 -62.1771
   -35.5063 -35.5062 -35.4717 -35.4713 -35.4629 -35.4626 -35.3967 -35.3966
   -35.3833 -35.3832 -35.3537 -35.3530 -35.3449 -35.3442 -35.3433 -35.3424
   -35.3345 -35.3336 -31.0095 -31.0090 -31.0033 -31.0031 -30.9982 -30.9976
     7.7397   7.7795   7.9523   8.0087   8.2390   8.2467   8.3264   8.3423
     8.3508   8.3646   8.4292   8.4416   8.5692   8.6275   8.7469   8.8639
     8.9227   8.9523   9.0260   9.0841   9.1576   9.1894   9.2352   9.2455
     9.2485   9.2826   9.3031   9.3232   9.3582   9.4085   9.4378   9.4511
     9.4805   9.4845   9.5741   9.5864   9.6360   9.7318   9.7486   9.7925
     9.8065   9.8626   9.9029   9.9069  10.0181  10.1290  10.2284  10.2487
    10.3381  10.3667  10.3772  10.4324  10.4418  10.4861  10.4931  10.5726
    10.6586  10.6889  10.7595  10.8694  10.8790  10.9553  10.9903  10.9931
    11.1093  11.1133  11.1758  11.2201  11.2666  11.3248  11.3763  11.4125
    11.4621  11.4797  11.5414  11.5542  11.5691  11.5767  11.6056  11.6399
    11.6415  11.6794  11.7175  11.7584  11.7641  11.7817  11.8333  11.8508
    11.8587  11.8778  11.8846  11.9176  11.9465  11.9734  11.9866  11.9962
    12.0365  12.0853  12.1221  12.2123  12.2780  12.3486  12.3868  12.4546
    12.4832  12.4977  12.5176  12.5473  12.6132  12.6204  12.6424  12.7289
    12.7711  12.8281  12.8754  12.9120  12.9901  13.0155  13.4337  13.4930
    14.1174  14.1379  14.4551  14.4619  14.9206  14.9295  15.0431  15.1364
    15.6651  15.7233  16.0974  16.1314  16.5099  16.5557  16.8533  16.8673
    17.0851  17.0937  17.1301  17.2125  17.5992  17.8135  18.0018  18.2582
    19.4641  19.5156

          k = 0.1250-0.5000 0.0000 ( 13890 PWs)   bands (ev):

[...]
    11.6277  11.6898  11.7510  11.8697  11.8887  11.9371  11.9702  12.0313
    12.0479  12.0535  12.0988  12.1020  12.1653  12.2129  12.2292  12.3704
    12.4586  12.5153  12.5546  12.5707  12.5907  12.6847  12.7034  12.8327
    12.9218  13.2344  13.3176  13.7509  13.8647  14.3200  14.4457  14.8947
    15.1458  15.1664  15.3203  15.3533  15.5810  15.5813  15.6400  15.7747
    16.5791  16.6609  16.8465  16.8514  16.9024  16.9129  16.9471  17.0412
    17.0778  17.1506  17.1902  17.1917  17.2041  17.2171  17.3217  17.3864
    17.4809  17.5163  17.5272  17.7343  17.9323  17.9821  18.1667  18.2051
    18.2347  18.2361  18.3430  18.4503  18.5140  18.7595  19.0596  19.2206
    19.4300  19.7159

          k = 0.2500 0.3750-0.0484 ( 13916 PWs)   bands (ev):

   -66.7649 -66.7641 -62.1622 -62.1621 -62.0728 -62.0726 -62.0627 -62.0625
   -35.5350 -35.5349 -35.4926 -35.4915 -35.4883 -35.4872 -30.9947 -30.9947
   -30.9890 -30.9889 -30.9854 -30.9853 -30.9036 -30.9035 -30.9034 -30.9033
   -30.8978 -30.8976 -30.8946 -30.8944 -30.8914 -30.8911 -30.8888 -30.8886
     7.9318   8.2228   8.3684   8.4055   8.5650   8.7226   8.7485   8.7580
     8.8000   8.9528   8.9854   8.9935   9.1622   9.2164   9.2189   9.2325
     9.2456   9.2851   9.3078   9.3252   9.3649   9.4047   9.5050   9.5330
     9.5645   9.5702   9.6296   9.6560   9.6917   9.7185   9.7429   9.7483
     9.7663   9.8137   9.8636   9.8671   9.9113   9.9555  10.0570  10.0666
    10.1041  10.1818  10.2270  10.2664  10.3396  10.3797  10.4965  10.5334
    10.5657  10.5720  10.5780  10.6227  10.7020  10.7159  10.7589  10.8053
    10.8435  10.8639  10.8889  10.9031  10.9394  11.0421  11.1194  11.1828
    11.2047  11.2530  11.2877  11.3273  11.3627  11.4363  11.5358  11.5532
    11.6577  11.6583  11.8144  11.8259  11.8699  11.9356  11.9993  12.0169
    12.0415  12.0591  12.0970  12.1386  12.1570  12.1695  12.2498  12.3701
    12.4601  12.5160  12.5505  12.5668  12.6266  12.6279  12.7599  12.7833
    12.9708  13.1376  13.4525  13.5986  14.0882  14.0921  14.6018  14.7877
    15.1750  15.2169  15.2511  15.4569  15.4932  15.5533  15.6753  15.7823
    16.5784  16.6608  16.8450  16.8643  16.8869  16.9120  16.9515  17.0310
    17.0989  17.1431  17.1890  17.1903  17.2037  17.2345  17.2874  17.4120
    17.4704  17.5198  17.5259  17.7341  17.9307  18.0329  18.0492  18.1616
    18.2268  18.3101  18.4212  18.4863  18.5745  18.6603  18.9589  19.2354
    19.4302  19.7221

          k = 0.2500-0.5000 0.0000 ( 13940 PWs)   bands (ev):

   -66.7651 -66.7643 -62.1618 -62.1618 -62.0724 -62.0722 -62.0624 -62.0621
   -35.5348 -35.5348 -35.4943 -35.4932 -35.4882 -35.4871 -30.9970 -30.9969
   -30.9888 -30.9888 -30.9852 -30.9851 -30.9058 -30.9056 -30.9035 -30.9031
   -30.8976 -30.8974 -30.8968 -30.8966 -30.8913 -30.8909 -30.8886 -30.8884
     8.3476   8.3482   8.6317   8.6321   8.7333   8.7334   8.7494   8.7496
     8.8246   8.8246   8.9258   8.9259   9.1224   9.1226   9.1345   9.1345
     9.1482   9.1483   9.2443   9.2446   9.3496   9.3500   9.5057   9.5058
     9.5556   9.5556   9.6345   9.6347   9.6422   9.6422   9.7542   9.7543
     9.7729   9.7729   9.9319   9.9321   9.9877   9.9877  10.0515  10.0516
    10.2041  10.2043  10.4417  10.4419  10.4978  10.4978  10.7039  10.7042
    10.7993  10.7993  10.8549  10.8549  10.8842  10.8842  10.9402  10.9402
    10.9589  10.9589  11.0477  11.0480  11.1236  11.1238  11.2005  11.2006
    11.2079  11.2080  11.2637  11.2642  11.5763  11.5765  11.6475  11.6480
    11.8397  11.8399  11.8780  11.8783  11.8797  11.8798  11.9656  11.9656
    12.1337  12.1338  12.2700  12.2701  12.3060  12.3060  12.4009  12.4010
    12.4828  12.4828  12.7675  12.7677  12.9217  12.9218  12.9588  12.9591
    13.3396  13.3399  13.6330  13.6331  13.8843  13.8843  13.9848  13.9851
    14.5162  14.5166  14.6216  14.6222  14.9862  14.9871  15.2466  15.2471
    16.3406  16.3410  16.9358  16.9361  16.9800  16.9801  17.0412  17.0414
    17.0848  17.0850  17.1085  17.1086  17.1420  17.1424  17.4499  17.4508
    17.4883  17.4894  17.6265  17.6269  18.0802  18.0806  18.1658  18.1660
    18.1950  18.1954  18.3165  18.3171  18.3888  18.3892  18.6623  18.6629
    19.7337  19.7338

          k = 0.2500-0.5000-0.0484 ( 13912 PWs)   bands (ev):

   -66.7651 -66.7643 -62.1618 -62.1618 -62.0724 -62.0722 -62.0624 -62.0621
   -35.5348 -35.5348 -35.4943 -35.4932 -35.4882 -35.4871 -30.9970 -30.9969
   -30.9888 -30.9888 -30.9852 -30.9851 -30.9058 -30.9056 -30.9035 -30.9031
   -30.8976 -30.8974 -30.8968 -30.8966 -30.8913 -30.8909 -30.8886 -30.8884
     8.3476   8.3483   8.6290   8.6295   8.7399   8.7400   8.7528   8.7530
     8.8162   8.8162   8.9245   8.9246   9.1247   9.1249   9.1371   9.1371
     9.1478   9.1479   9.2442   9.2445   9.3482   9.3486   9.5065   9.5066
     9.5450   9.5450   9.6439   9.6439   9.6682   9.6683   9.6958   9.6959
     9.8140   9.8140   9.9213   9.9214   9.9866   9.9866  10.0549  10.0549
    10.2038  10.2040  10.4408  10.4410  10.4976  10.4976  10.7068  10.7071
    10.8152  10.8153  10.8204  10.8206  10.9125  10.9125  10.9278  10.9278
    10.9582  10.9583  11.0501  11.0503  11.1224  11.1226  11.2004  11.2006
    11.2078  11.2078  11.2640  11.2644  11.5763  11.5765  11.6475  11.6481
    11.8396  11.8398  11.8780  11.8783  11.8798  11.8800  11.9665  11.9665
    12.1363  12.1363  12.2375  12.2375  12.3538  12.3538  12.4048  12.4048
    12.4528  12.4528  12.8153  12.8155  12.8461  12.8462  12.9987  12.9990
    13.3277  13.3279  13.6799  13.6800  13.7862  13.7863  14.0754  14.0756
    14.4073  14.4078  14.7531  14.7537  14.9145  14.9154  15.2643  15.2648
    16.3397  16.3401  16.9373  16.9375  16.9782  16.9783  17.0455  17.0457
    17.0743  17.0744  17.1202  17.1203  17.1370  17.1375  17.4511  17.4520
    17.4868  17.4880  17.6267  17.6271  18.0802  18.0805  18.1649  18.1651
    18.1969  18.1972  18.2899  18.2905  18.4539  18.4543  18.6071  18.6077
    19.8638  19.8638

          k = 0.3750 0.3750 0.0000 ( 13948 PWs)   bands (ev):

   -66.7646 -66.7639 -62.1620 -62.1620 -62.0727 -62.0725 -62.0626 -62.0623
   -35.5347 -35.5347 -35.4923 -35.4922 -35.4912 -35.4912 -30.9943 -30.9943
   -30.9941 -30.9941 -30.9850 -30.9850 -30.9033 -30.9031 -30.9030 -30.9030
   -30.9029 -30.9028 -30.8941 -30.8940 -30.8939 -30.8937 -30.8911 -30.8908
     8.0306   8.3630   8.4066   8.4505   8.6543   8.6812   8.7865   8.8159
     8.9640   9.0078   9.0860   9.1277   9.2272   9.2324   9.2954   9.3131
     9.3151   9.3475   9.3665   9.3926   9.4062   9.4703   9.5039   9.5125
     9.5185   9.5541   9.5739   9.6003   9.6970   9.7074   9.7291   9.8658
     9.9076  10.0040  10.0060  10.0530  10.0774  10.1112  10.1119  10.1257
    10.1702  10.3274  10.3592  10.3965  10.4514  10.4883  10.5961  10.6132
    10.6141  10.6447  10.6673  10.7004  10.7679  10.7934  10.8640  10.9727
    10.9994  11.0240  11.0575  11.0935  11.0990  11.3202  11.4389  11.4615
    11.4917  11.5088  11.5095  11.5329  11.5603  11.5849  11.5865  11.6539
    11.7387  11.8276  11.8729  11.9334  11.9392  11.9910  11.9928  12.0012
    12.0041  12.0392  12.0951  12.1026  12.1184  12.2166  12.2446  12.3059
    12.3676  12.5229  12.6026  12.6443  12.6676  12.9009  12.9497  13.1090
    13.2644  13.7390  13.7908  14.1100  14.2331  14.5631  14.7224  15.0095
    15.0883  15.1729  15.2153  15.3361  15.4125  15.4865  15.8388  16.1387
    16.9017  16.9255  16.9718  16.9999  17.0478  17.0650  17.0764  17.1000
    17.1075  17.1982  17.2339  17.2856  17.4203  17.4917  17.5410  17.5850
    17.7098  17.7774  17.8220  17.9695  18.0082  18.0765  18.2221  18.3427
    18.3475  18.3629  18.3814  18.3883  18.5440  18.9335  19.0132  19.0534
    19.0573  19.1096

          k = 0.3750 0.3750-0.0484 ( 13950 PWs)   bands (ev):

   -66.7646 -66.7639 -62.1620 -62.1620 -62.0727 -62.0725 -62.0626 -62.0623
   -35.5347 -35.5347 -35.4923 -35.4922 -35.4912 -35.4912 -30.9943 -30.9943
   -30.9941 -30.9941 -30.9850 -30.9850 -30.9033 -30.9031 -30.9030 -30.9030
   -30.9029 -30.9028 -30.8941 -30.8940 -30.8939 -30.8937 -30.8911 -30.8908
     8.0307   8.3619   8.3860   8.5240   8.5528   8.7089   8.8213   8.8234
     8.9652   9.0007   9.0861   9.0892   9.2282   9.2307   9.2956   9.3044
     9.3295   9.3620   9.4109   9.4248   9.4311   9.4356   9.4469   9.4840
     9.4893   9.5940   9.6017   9.6096   9.6453   9.6797   9.8399   9.8691
     9.8975   9.9094   9.9927  10.0596  10.0774  10.1183  10.1193  10.1732
    10.2407  10.2749  10.2938  10.3802  10.5099  10.5168  10.5641  10.5899
    10.6324  10.6545  10.6769  10.7044  10.7167  10.8643  10.8745  10.8902
    10.9983  11.0482  11.0573  11.0990  11.1089  11.3155  11.4463  11.4504
    11.4985  11.5037  11.5099  11.5278  11.5646  11.5799  11.5894  11.6539
    11.7644  11.7877  11.9079  11.9339  11.9390  11.9574  11.9863  11.9953
    12.0391  12.0430  12.0663  12.1074  12.1611  12.1729  12.2592  12.3056
    12.3679  12.5567  12.5624  12.6025  12.7637  12.8092  13.0332  13.0606
    13.2780  13.6787  13.9311  13.9673  14.3310  14.4976  14.7537  15.0036
    15.0982  15.1425  15.2513  15.3136  15.4215  15.4845  15.8388  16.1393
    16.8766  16.9659  16.9814  16.9881  17.0239  17.0695  17.0769  17.1063
    17.1090  17.1842  17.2427  17.3439  17.3772  17.4173  17.5899  17.6141
    17.6971  17.7787  17.8136  17.9697  18.0082  18.1255  18.2364  18.2448
    18.2633  18.2740  18.6113  18.6363  18.6460  18.6558  18.6815  18.8359
    19.1231  19.2068

          k = 0.3750-0.5000 0.0000 ( 13934 PWs)   bands (ev):

   -66.7647 -66.7639 -62.1618 -62.1618 -62.0724 -62.0722 -62.0624 -62.0621
   -35.5346 -35.5346 -35.4939 -35.4928 -35.4921 -35.4910 -30.9964 -30.9964
   -30.9940 -30.9940 -30.9849 -30.9848 -30.9052 -30.9051 -30.9032 -30.9029
   -30.9028 -30.9027 -30.8962 -30.8961 -30.8938 -30.8936 -30.8910 -30.8907
     8.1538   8.1545   8.5181   8.5187   8.6106   8.6106   8.7601   8.7602
     8.9674   8.9677   9.1200   9.1201   9.2074   9.2075   9.2296   9.2299
     9.2778   9.2778   9.3392   9.3394   9.4178   9.4179   9.4597   9.4597
     9.4809   9.4809   9.6593   9.6594   9.6633   9.6633   9.9057   9.9057
     9.9427   9.9427  10.0312  10.0313  10.0583  10.0584  10.2542  10.2547
    10.3334  10.3334  10.4051  10.4051  10.6177  10.6178  10.6406  10.6406
    10.6754  10.6756  10.8355  10.8355  10.9528  10.9529  11.0543  11.0546
    11.2030  11.2032  11.2821  11.2822  11.3755  11.3755  11.4728  11.4730
    11.6140  11.6142  11.6707  11.6708  11.7347  11.7347  11.7685  11.7685
    11.9241  11.9243  11.9664  11.9666  12.0024  12.0025  12.0212  12.0212
    12.1676  12.1677  12.2268  12.2269  12.2706  12.2706  12.3207  12.3207
    12.4221  12.4222  12.9590  12.9594  13.0915  13.0918  13.1215  13.1221
    13.7836  13.7838  14.2127  14.2128  14.3462  14.3464  14.4821  14.4822
    14.6929  14.6934  14.8013  14.8020  14.9340  14.9343  15.9438  15.9440
    16.9437  16.9439  17.0097  17.0101  17.0314  17.0315  17.0548  17.0551
    17.1445  17.1445  17.2354  17.2355  17.5409  17.5411  17.7538  17.7544
    17.9545  17.9551  18.0159  18.0163  18.1181  18.1184  18.2359  18.2363
    18.2543  18.2545  18.6522  18.6524  18.7388  18.7393  18.8326  18.8328
    19.0579  19.0580

          k = 0.3750-0.5000-0.0484 ( 13940 PWs)   bands (ev):

   -66.7647 -66.7639 -62.1618 -62.1618 -62.0724 -62.0722 -62.0624 -62.0621
   -35.5346 -35.5346 -35.4939 -35.4928 -35.4921 -35.4910 -30.9964 -30.9964
   -30.9940 -30.9940 -30.9849 -30.9848 -30.9052 -30.9051 -30.9032 -30.9029
   -30.9028 -30.9027 -30.8962 -30.8961 -30.8938 -30.8936 -30.8910 -30.8907
     8.1539   8.1546   8.5110   8.5115   8.6393   8.6394   8.7211   8.7212
     9.0240   9.0244   9.1001   9.1002   9.1545   9.1545   9.2208   9.2209
     9.3141   9.3142   9.3601   9.3603   9.4034   9.4035   9.4617   9.4618
     9.4999   9.4999   9.5801   9.5801   9.7851   9.7851   9.7965   9.7965
     9.9704   9.9705  10.0252  10.0252  10.1366  10.1367  10.1984  10.1985
    10.2796  10.2801  10.4897  10.4897  10.5876  10.5877  10.6457  10.6459
    10.6971  10.6971  10.7700  10.7701  11.0062  11.0063  11.0880  11.0881
    11.1312  11.1313  11.3230  11.3233  11.3506  11.3507  11.4869  11.4871
    11.6000  11.6002  11.6835  11.6836  11.7282  11.7283  11.7694  11.7694
    11.9288  11.9290  11.9614  11.9616  12.0004  12.0005  12.0235  12.0235
    12.1693  12.1694  12.2127  12.2128  12.2825  12.2825  12.3382  12.3382
    12.4028  12.4030  12.9911  12.9916  13.0338  13.0340  13.1501  13.1507
    13.7824  13.7826  14.2256  14.2258  14.3172  14.3173  14.5195  14.5197
    14.6525  14.6529  14.8297  14.8305  14.9253  14.9256  15.9438  15.9440
    16.9480  16.9482  17.0100  17.0103  17.0353  17.0355  17.0596  17.0599
    17.0964  17.0965  17.3033  17.3035  17.4791  17.4794  17.8134  17.8139
    17.9152  17.9157  18.0361  18.0367  18.1342  18.1346  18.1752  18.1753
    18.2668  18.2673  18.6712  18.6717  18.8176  18.8178  18.8264  18.8266
    18.9609  18.9610

          k =-0.5000-0.5000 0.0000 ( 13964 PWs)   bands (ev):

   -66.7647 -66.7639 -62.1616 -62.1616 -62.0723 -62.0721 -62.0622 -62.0619
   -35.5345 -35.5345 -35.4937 -35.4937 -35.4926 -35.4926 -30.9962 -30.9962
   -30.9962 -30.9962 -30.9848 -30.9847 -30.9050 -30.9050 -30.9049 -30.9049
   -30.9031 -30.9028 -30.8960 -30.8960 -30.8958 -30.8958 -30.8909 -30.8906
     8.0693   8.0700   8.4624   8.4629   8.5589   8.5589   8.7246   8.7246
     8.8937   8.8940   9.1868   9.1870   9.2213   9.2215   9.2363   9.2363
     9.2998   9.2998   9.3224   9.3224   9.4241   9.4242   9.4501   9.4501
     9.4545   9.4545   9.6980   9.6980   9.7042   9.7042   9.8870   9.8870
     9.9167   9.9176  10.0042  10.0042  10.0713  10.0713  10.0778  10.0778
    10.4929  10.4929  10.5609  10.5612  10.5789  10.5789  10.6238  10.6238
    10.6956  10.6957  11.0446  11.0446  11.0993  11.0997  11.1140  11.1140
    11.3838  11.3839  11.4420  11.4431  11.5303  11.5303  11.5852  11.5852
    11.9249  11.9250  11.9525  11.9526  11.9965  11.9968  11.9983  11.9985
    12.0234  12.0234  12.0492  12.0495  12.0892  12.0894  12.0907  12.0909
    12.1760  12.1762  12.2212  12.2213  12.2400  12.2401  12.2762  12.2762
    12.2987  12.2988  13.3687  13.3693  13.3988  13.3997  13.4155  13.4167
    13.8754  13.8754  14.1306  14.1306  14.2665  14.2665  14.5471  14.5471
    14.6963  14.6963  14.8457  14.8457  15.2053  15.2053  16.6010  16.6010
    16.6414  16.6417  16.7881  16.7883  16.8927  16.8928  17.0041  17.0042
    17.1225  17.1225  17.4143  17.4143  17.5888  17.5888  17.7531  17.7532
    17.9411  17.9411  18.0880  18.0885  18.1659  18.1659  18.1850  18.1859
    18.1917  18.1927  18.3048  18.3048  18.4468  18.4468  18.5014  18.5016
    18.8080  18.8086

          k =-0.5000-0.5000-0.0484 ( 13992 PWs)   bands (ev):

   -66.7647 -66.7639 -62.1616 -62.1616 -62.0723 -62.0721 -62.0622 -62.0619
   -35.5345 -35.5345 -35.4937 -35.4937 -35.4926 -35.4926 -30.9962 -30.9962
   -30.9962 -30.9962 -30.9848 -30.9847 -30.9050 -30.9050 -30.9049 -30.9049
   -30.9031 -30.9028 -30.8960 -30.8960 -30.8958 -30.8958 -30.8909 -30.8906
     8.0693   8.0700   8.4548   8.4554   8.5923   8.5925   8.6722   8.6722
     8.9728   8.9732   9.0619   9.0620   9.2373   9.2373   9.2874   9.2874
     9.3420   9.3423   9.3609   9.3609   9.3744   9.3745   9.3770   9.3770
     9.5606   9.5606   9.5651   9.5651   9.8608   9.8608   9.8698   9.8698
     9.8875   9.8875   9.9180   9.9190  10.0312  10.0312  10.2473  10.2473
    10.3269  10.3269  10.5595  10.5598  10.6255  10.6255  10.6952  10.6952
    10.7590  10.7590  10.8480  10.8480  11.0993  11.0996  11.3352  11.3352
    11.3478  11.3478  11.3838  11.3839  11.4420  11.4431  11.6519  11.6519
    11.9249  11.9250  11.9525  11.9526  11.9965  11.9968  11.9983  11.9985
    12.0234  12.0234  12.0492  12.0495  12.0892  12.0894  12.0907  12.0909
    12.1756  12.1758  12.2234  12.2235  12.2380  12.2381  12.2737  12.2737
    12.2989  12.2990  13.3687  13.3693  13.3988  13.3998  13.4155  13.4167
    13.8902  13.8902  14.0781  14.0781  14.3392  14.3392  14.4914  14.4914
    14.7251  14.7251  14.8377  14.8377  15.2053  15.2053  16.6004  16.6004
    16.6415  16.6418  16.7862  16.7864  16.8991  16.8991  16.9981  16.9983
    17.1618  17.1618  17.2919  17.2919  17.7997  17.7998  17.8033  17.8033
    17.8660  17.8660  17.9875  17.9875  18.0880  18.0885  18.1850  18.1859
    18.1917  18.1927  18.2092  18.2093  18.4869  18.4870  18.8093  18.8098
    18.8920  18.8920

     the Fermi energy is    15.2168 ev

!    total energy              =  -14694.00953466 Ry
     Harris-Foulkes estimate   =  -14694.00953171 Ry
     estimated scf accuracy    <       0.00000054 Ry

     total all-electron energy =   -626921.605257 Ry

     The total energy is the sum of the following terms:

     one-electron contribution =    -714.69781790 Ry
     hartree contribution      =     656.69896300 Ry
     xc contribution           =    -737.85616494 Ry
     ewald contribution        =   -2196.78933708 Ry
     Hubbard energy            =       0.46019730 Ry
     one-center paw contrib.   =  -11701.82537504 Ry

     total magnetization       =    17.03 Bohr mag/cell
     absolute magnetization    =    37.05 Bohr mag/cell

     convergence has been achieved in  30 iterations

     Writing output data file mnau2.save/
 
     init_run     :     63.20s CPU     65.17s WALL (       1 calls)
     electrons    :   3418.28s CPU   3553.29s WALL (       1 calls)

     Called by init_run:
     wfcinit      :     57.72s CPU     59.49s WALL (       1 calls)
     potinit      :      2.76s CPU      2.85s WALL (       1 calls)
     hinit0       :      1.81s CPU      1.85s WALL (       1 calls)

     Called by electrons:
     c_bands      :   3031.89s CPU   3127.00s WALL (      30 calls)
     sum_band     :    319.12s CPU    330.04s WALL (      30 calls)
     v_of_rho     :      5.16s CPU      5.27s WALL (      31 calls)
     newd         :     15.48s CPU     17.08s WALL (      31 calls)
     PAW_pot      :     44.98s CPU     45.74s WALL (      31 calls)
     mix_rho      :      3.21s CPU      3.48s WALL (      30 calls)

     Called by c_bands:
     init_us_2    :      6.04s CPU      6.08s WALL (    3720 calls)
     cegterg      :   2915.84s CPU   3008.38s WALL (    1800 calls)

     Called by sum_band:
     sum_band:bec :      1.73s CPU      1.74s WALL (    1800 calls)
     addusdens    :     12.60s CPU     13.96s WALL (      30 calls)

     Called by *egterg:
     h_psi        :   1201.71s CPU   1236.79s WALL (    5445 calls)
     s_psi        :    107.63s CPU    108.13s WALL (    5505 calls)
     g_psi        :      3.32s CPU      3.34s WALL (    3585 calls)
     cdiaghg      :    717.13s CPU    751.11s WALL (    5385 calls)

     Called by h_psi:
     h_psi:pot    :   1050.94s CPU   1079.95s WALL (    5445 calls)
     h_psi:calbec :    213.76s CPU    223.08s WALL (    5445 calls)
     vloc_psi     :    731.31s CPU    750.88s WALL (    5445 calls)
     add_vuspsi   :    105.80s CPU    105.94s WALL (    5445 calls)
     vhpsi        :    149.08s CPU    152.65s WALL (    5445 calls)

     General routines
     calbec       :    460.76s CPU    478.35s WALL (   14550 calls)
     fft          :      6.84s CPU      7.02s WALL (     771 calls)
     ffts         :      0.13s CPU      0.13s WALL (     122 calls)
     fftw         :    866.07s CPU    889.22s WALL ( 1688416 calls)
     interpolate  :      0.32s CPU      0.33s WALL (      62 calls)
     davcio       :      0.01s CPU      0.85s WALL (      60 calls)
 
     Parallel routines
     fft_scatt_xy :     38.78s CPU     39.66s WALL ( 1689309 calls)
     fft_scatt_yz :    656.94s CPU    675.38s WALL ( 1689309 calls)

     Hubbard U routines
     new_ns       :     13.78s CPU     14.37s WALL (      30 calls)
     vhpsi        :    149.08s CPU    152.65s WALL (    5445 calls)
 
     PWSCF        : 58m38.53s CPU       58h 1m WALL

       2h
 
   This run was terminated on:  23: 0: 4   6Apr2019            

=------------------------------------------------------------------------------=
   JOB DONE.
=------------------------------------------------------------------------------=
