
     Program PWSCF v.6.3MaX starts on  6Apr2019 at 23: 0: 9 

     This program is part of the open-source Quantum ESPRESSO suite
     for quantum simulation of materials; please cite
         "P. Giannozzi et al., J. Phys.:Condens. Matter 21 395502 (2009);
         "P. Giannozzi et al., J. Phys.:Condens. Matter 29 465901 (2017);
          URL http://www.quantum-espresso.org", 
     in publications or presentations arising from this work. More details at
     http://www.quantum-espresso.org/quote

     Parallel version (MPI), running on    16 processors

     MPI processes distributed on     7 nodes
     R & G space division:  proc/nbgrp/npool/nimage =      16
     Waiting for input...
     Reading input from standard input

     Current dimensions of program PWSCF are:
     Max number of different atomic species (ntypx) = 10
     Max number of k-points (npk) =  40000
     Max angular momentum in pseudopotentials (lmaxx) =  3
               file Mn.pbe-spn-kjpaw_psl.0.3.1.UPF: wavefunction(s)  3P 3D renormalized
               file Mn.pbe-spn-kjpaw_psl.0.3.1.UPF: wavefunction(s)  3P 3D renormalized
               file Au.pbe-dn-kjpaw_psl.0.1.UPF: wavefunction(s)  6S 6P 5D renormalized

     Subspace diagonalization in iterative solution of the eigenvalue problem:
     one sub-group per band group will be used
     scalapack distributed-memory algorithm (size of sub-group:  2*  2 procs)

 
     Parallelization info
     --------------------
     sticks:   dense  smooth     PW     G-vecs:    dense   smooth      PW
     Min          82      37     11                23002     6955    1163
     Max          83      38     12                23036     6988    1204
     Sum        1313     593    177               368373   111379   18691
 


     bravais-lattice index     =            0
     lattice parameter (alat)  =       6.4153  a.u.
     unit-cell volume          =    2724.7774 (a.u.)^3
     number of atoms/cell      =           24
     number of atomic types    =            3
     number of electrons       =       296.00
     number of Kohn-Sham states=          178
     kinetic-energy cutoff     =      45.0000  Ry
     charge density cutoff     =     400.0000  Ry
     convergence threshold     =      1.0E-06
     mixing beta               =       0.1000
     number of iterations used =            8  plain     mixing
     Exchange-correlation      = SLA PW PBX PBC ( 1  4  3  4 0 0)

     celldm(1)=   6.415315  celldm(2)=   0.000000  celldm(3)=   0.000000
     celldm(4)=   0.000000  celldm(5)=   0.000000  celldm(6)=   0.000000

     crystal axes: (cart. coord. in units of alat)
               a(1) = (   1.000000   0.000000   0.000000 )  
               a(2) = (   0.000000   1.000000   0.000000 )  
               a(3) = (   0.000000   0.000000  10.319937 )  

     reciprocal axes: (cart. coord. in units 2 pi/alat)
               b(1) = (  1.000000  0.000000  0.000000 )  
               b(2) = (  0.000000  1.000000  0.000000 )  
               b(3) = (  0.000000  0.000000  0.096900 )  


     PseudoPot. # 1 for Mn read from file:
     ./pseudo/Mn.pbe-spn-kjpaw_psl.0.3.1.UPF
     MD5 check sum: 7b43a3fb0e93e198b8dd8488d8cf503e
     Pseudo is Projector augmented-wave + core cor, Zval = 15.0
     Generated using "atomic" code by A. Dal Corso v.5.0.99 svn rev. 10869
     Shape of augmentation charge: PSQ
     Using radial grid of 1187 points,  6 beta functions with: 
                l(1) =   0
                l(2) =   0
                l(3) =   1
                l(4) =   1
                l(5) =   2
                l(6) =   2
     Q(r) pseudized with 0 coefficients 


     PseudoPot. # 2 for Mn read from file:
     ./pseudo/Mn.pbe-spn-kjpaw_psl.0.3.1.UPF
     MD5 check sum: 7b43a3fb0e93e198b8dd8488d8cf503e
     Pseudo is Projector augmented-wave + core cor, Zval = 15.0
     Generated using "atomic" code by A. Dal Corso v.5.0.99 svn rev. 10869
     Shape of augmentation charge: PSQ
     Using radial grid of 1187 points,  6 beta functions with: 
                l(1) =   0
                l(2) =   0
                l(3) =   1
                l(4) =   1
                l(5) =   2
                l(6) =   2
     Q(r) pseudized with 0 coefficients 


     PseudoPot. # 3 for Au read from file:
     ./pseudo/Au.pbe-dn-kjpaw_psl.0.1.UPF
     MD5 check sum: be11e2e8e535ebe2b3ccfb4f88f554cb
     Pseudo is Projector augmented-wave + core cor, Zval = 11.0
     Generated using "atomic" code by A. Dal Corso v.5.0.2 svn rev. 9415
     Shape of augmentation charge: PSQ
     Using radial grid of 1279 points,  6 beta functions with: 
                l(1) =   0
                l(2) =   0
                l(3) =   1
                l(4) =   1
                l(5) =   2
                l(6) =   2
     Q(r) pseudized with 0 coefficients 


     atomic species   valence    mass     pseudopotential
        Mn1           15.00    54.93800     Mn( 1.00)
        Mn2           15.00    54.93800     Mn( 1.00)
        Au            11.00   196.96600     Au( 1.00)

     Starting magnetic structure 
     atomic species   magnetization
        Mn1          0.800
        Mn2         -0.800
        Au           0.000


     Full LDA+U calculation (l_max = 2) with parameters (eV):
     U(  1) =   3.1200   J(  1) =   0.7000   B(  1) =   0.0803
     U(  2) =   3.1200   J(  2) =   0.7000   B(  2) =   0.0803



     16 Sym. Ops., with inversion, found ( 8 have fractional translation)



   Cartesian axes

     site n.     atom                  positions (alat units)
         1           Mn1 tau(   1) = (   0.0000000   0.0000000   0.0000000  )
         2           Mn1 tau(   2) = (   0.5000000   0.5000000   1.2899921  )
         3           Mn1 tau(   3) = (   0.0000000   0.0000000   2.5799843  )
         4           Mn1 tau(   4) = (   0.5000000   0.5000000   3.8699764  )
         5           Mn1 tau(   5) = (   0.0000000   0.0000000   5.1599686  )
         6           Mn2 tau(   6) = (   0.5000000   0.5000000   6.4499607  )
         7           Mn1 tau(   7) = (   0.0000000   0.0000000   7.7399528  )
         8           Mn2 tau(   8) = (   0.5000000   0.5000000   9.0299450  )
         9           Au  tau(   9) = (   0.5000000   0.5000000   0.4127975  )
        10           Au  tau(  10) = (   0.0000000   0.0000000   0.8771947  )
        11           Au  tau(  11) = (   0.0000000   0.0000000   1.7027896  )
        12           Au  tau(  12) = (   0.5000000   0.5000000   2.1671868  )
        13           Au  tau(  13) = (   0.5000000   0.5000000   2.9927818  )
        14           Au  tau(  14) = (   0.0000000   0.0000000   3.4571789  )
        15           Au  tau(  15) = (   0.0000000   0.0000000   4.2827739  )
        16           Au  tau(  16) = (   0.5000000   0.5000000   4.7471711  )
        17           Au  tau(  17) = (   0.5000000   0.5000000   5.5727660  )
        18           Au  tau(  18) = (   0.0000000   0.0000000   6.0371632  )
        19           Au  tau(  19) = (   0.0000000   0.0000000   6.8627582  )
        20           Au  tau(  20) = (   0.5000000   0.5000000   7.3271553  )
        21           Au  tau(  21) = (   0.5000000   0.5000000   8.1527503  )
        22           Au  tau(  22) = (   0.0000000   0.0000000   8.6171475  )
        23           Au  tau(  23) = (   0.0000000   0.0000000   9.4427424  )
        24           Au  tau(  24) = (   0.5000000   0.5000000   9.9071396  )

     number of k points=    30 (tetrahedron method)
                       cart. coord. in units 2pi/alat
        k(    1) = (   0.0000000   0.0000000   0.0000000), wk =   0.0078125
        k(    2) = (   0.0000000   0.0000000  -0.0484499), wk =   0.0078125
        k(    3) = (   0.0000000   0.1250000   0.0000000), wk =   0.0312500
        k(    4) = (   0.0000000   0.1250000  -0.0484499), wk =   0.0312500
        k(    5) = (   0.0000000   0.2500000   0.0000000), wk =   0.0312500
        k(    6) = (   0.0000000   0.2500000  -0.0484499), wk =   0.0312500
        k(    7) = (   0.0000000   0.3750000   0.0000000), wk =   0.0312500
        k(    8) = (   0.0000000   0.3750000  -0.0484499), wk =   0.0312500
        k(    9) = (   0.0000000  -0.5000000   0.0000000), wk =   0.0156250
        k(   10) = (   0.0000000  -0.5000000  -0.0484499), wk =   0.0156250
        k(   11) = (   0.1250000   0.1250000   0.0000000), wk =   0.0312500
        k(   12) = (   0.1250000   0.1250000  -0.0484499), wk =   0.0312500
        k(   13) = (   0.1250000   0.2500000   0.0000000), wk =   0.0625000
        k(   14) = (   0.1250000   0.2500000  -0.0484499), wk =   0.0625000
        k(   15) = (   0.1250000   0.3750000   0.0000000), wk =   0.0625000
        k(   16) = (   0.1250000   0.3750000  -0.0484499), wk =   0.0625000
        k(   17) = (   0.1250000  -0.5000000   0.0000000), wk =   0.0312500
        k(   18) = (   0.1250000  -0.5000000  -0.0484499), wk =   0.0312500
        k(   19) = (   0.2500000   0.2500000   0.0000000), wk =   0.0312500
        k(   20) = (   0.2500000   0.2500000  -0.0484499), wk =   0.0312500
        k(   21) = (   0.2500000   0.3750000   0.0000000), wk =   0.0625000
        k(   22) = (   0.2500000   0.3750000  -0.0484499), wk =   0.0625000
        k(   23) = (   0.2500000  -0.5000000   0.0000000), wk =   0.0312500
        k(   24) = (   0.2500000  -0.5000000  -0.0484499), wk =   0.0312500
        k(   25) = (   0.3750000   0.3750000   0.0000000), wk =   0.0312500
        k(   26) = (   0.3750000   0.3750000  -0.0484499), wk =   0.0312500
        k(   27) = (   0.3750000  -0.5000000   0.0000000), wk =   0.0312500
        k(   28) = (   0.3750000  -0.5000000  -0.0484499), wk =   0.0312500
        k(   29) = (  -0.5000000  -0.5000000   0.0000000), wk =   0.0078125
        k(   30) = (  -0.5000000  -0.5000000  -0.0484499), wk =   0.0078125

     Dense  grid:   368373 G-vectors     FFT dimensions: (  45,  45, 432)

     Smooth grid:   111379 G-vectors     FFT dimensions: (  27,  27, 288)

     Estimated max dynamical RAM per process >     281.85 MB

     Estimated total dynamical RAM >       4.40 GB
     Generating pointlists ...
     new r_m :   0.3377 (alat units)  2.1668 (a.u.) for type    1
     new r_m :   0.3377 (alat units)  2.1668 (a.u.) for type    2
     new r_m :   0.3377 (alat units)  2.1668 (a.u.) for type    3

     Check: negative/imaginary core charge=   -0.000006    0.000000

     Initial potential from superposition of free atoms

     starting charge  295.99426, renormalised to  296.00000
     Number of +U iterations with fixed ns =  0
     Starting occupations:
 --- enter write_ns ---
 LDA+U parameters:
U(  1) =   3.1200   J(  1) =   0.7000   B(  1) =   0.0803
U(  2) =   3.1200   J(  2) =   0.7000   B(  2) =   0.0803
atom    1   Tr[ns(na)] (up, down, total) =   5.00000  0.00000  5.00000
   spin  1
    eigenvalues: 
  1.000  1.000  1.000  1.000  1.000
    eigenvectors:
  1.000  0.000  0.000  0.000  0.000
  0.000  1.000  0.000  0.000  0.000
  0.000  0.000  1.000  0.000  0.000
  0.000  0.000  0.000  1.000  0.000
  0.000  0.000  0.000  0.000  1.000
    occupations:
  1.000  0.000  0.000  0.000  0.000
  0.000  1.000  0.000  0.000  0.000
  0.000  0.000  1.000  0.000  0.000
  0.000  0.000  0.000  1.000  0.000
  0.000  0.000  0.000  0.000  1.000
   spin  2
    eigenvalues: 
  0.000  0.000  0.000  0.000  0.000
    eigenvectors:
  1.000  0.000  0.000  0.000  0.000
  0.000  1.000  0.000  0.000  0.000
  0.000  0.000  1.000  0.000  0.000
  0.000  0.000  0.000  1.000  0.000
  0.000  0.000  0.000  0.000  1.000
    occupations:
  0.000  0.000  0.000  0.000  0.000
  0.000  0.000  0.000  0.000  0.000
  0.000  0.000  0.000  0.000  0.000
  0.000  0.000  0.000  0.000  0.000
  0.000  0.000  0.000  0.000  0.000
atomic mag. moment =     5.000000
atom    2   Tr[ns(na)] (up, down, total) =   5.00000  0.00000  5.00000
   spin  1
    eigenvalues: 
  1.000  1.000  1.000  1.000  1.000
    eigenvectors:
  1.000  0.000  0.000  0.000  0.000
  0.000  1.000  0.000  0.000  0.000
  0.000  0.000  1.000  0.000  0.000
  0.000  0.000  0.000  1.000  0.000
  0.000  0.000  0.000  0.000  1.000
    occupations:
  1.000  0.000  0.000  0.000  0.000
  0.000  1.000  0.000  0.000  0.000
  0.000  0.000  1.000  0.000  0.000
  0.000  0.000  0.000  1.000  0.000
  0.000  0.000  0.000  0.000  1.000
   spin  2
    eigenvalues: 
  0.000  0.000  0.000  0.000  0.000
    eigenvectors:
  1.000  0.000  0.000  0.000  0.000
  0.000  1.000  0.000  0.000  0.000
  0.000  0.000  1.000  0.000  0.000
  0.000  0.000  0.000  1.000  0.000
  0.000  0.000  0.000  0.000  1.000
    occupations:
  0.000  0.000  0.000  0.000  0.000
  0.000  0.000  0.000  0.000  0.000
  0.000  0.000  0.000  0.000  0.000
  0.000  0.000  0.000  0.000  0.000
  0.000  0.000  0.000  0.000  0.000
atomic mag. moment =     5.000000
atom    3   Tr[ns(na)] (up, down, total) =   5.00000  0.00000  5.00000
   spin  1
    eigenvalues: 
  1.000  1.000  1.000  1.000  1.000
    eigenvectors:
  1.000  0.000  0.000  0.000  0.000
  0.000  1.000  0.000  0.000  0.000
  0.000  0.000  1.000  0.000  0.000
  0.000  0.000  0.000  1.000  0.000
  0.000  0.000  0.000  0.000  1.000
    occupations:
  1.000  0.000  0.000  0.000  0.000
  0.000  1.000  0.000  0.000  0.000
  0.000  0.000  1.000  0.000  0.000
  0.000  0.000  0.000  1.000  0.000
  0.000  0.000  0.000  0.000  1.000
   spin  2
    eigenvalues: 
  0.000  0.000  0.000  0.000  0.000
    eigenvectors:
  1.000  0.000  0.000  0.000  0.000
  0.000  1.000  0.000  0.000  0.000
  0.000  0.000  1.000  0.000  0.000
  0.000  0.000  0.000  1.000  0.000
  0.000  0.000  0.000  0.000  1.000
    occupations:
  0.000  0.000  0.000  0.000  0.000
  0.000  0.000  0.000  0.000  0.000
  0.000  0.000  0.000  0.000  0.000
  0.000  0.000  0.000  0.000  0.000
  0.000  0.000  0.000  0.000  0.000
atomic mag. moment =     5.000000
atom    4   Tr[ns(na)] (up, down, total) =   5.00000  0.00000  5.00000
   spin  1
    eigenvalues: 
  1.000  1.000  1.000  1.000  1.000
    eigenvectors:
  1.000  0.000  0.000  0.000  0.000
  0.000  1.000  0.000  0.000  0.000
  0.000  0.000  1.000  0.000  0.000
  0.000  0.000  0.000  1.000  0.000
  0.000  0.000  0.000  0.000  1.000
    occupations:
  1.000  0.000  0.000  0.000  0.000
  0.000  1.000  0.000  0.000  0.000
  0.000  0.000  1.000  0.000  0.000
  0.000  0.000  0.000  1.000  0.000
  0.000  0.000  0.000  0.000  1.000
   spin  2
    eigenvalues: 
  0.000  0.000  0.000  0.000  0.000
    eigenvectors:
  1.000  0.000  0.000  0.000  0.000
  0.000  1.000  0.000  0.000  0.000
  0.000  0.000  1.000  0.000  0.000
  0.000  0.000  0.000  1.000  0.000
  0.000  0.000  0.000  0.000  1.000
    occupations:
  0.000  0.000  0.000  0.000  0.000
  0.000  0.000  0.000  0.000  0.000
  0.000  0.000  0.000  0.000  0.000
  0.000  0.000  0.000  0.000  0.000
  0.000  0.000  0.000  0.000  0.000
atomic mag. moment =     5.000000
atom    5   Tr[ns(na)] (up, down, total) =   5.00000  0.00000  5.00000
   spin  1
    eigenvalues: 
  1.000  1.000  1.000  1.000  1.000
    eigenvectors:
  1.000  0.000  0.000  0.000  0.000
  0.000  1.000  0.000  0.000  0.000
  0.000  0.000  1.000  0.000  0.000
  0.000  0.000  0.000  1.000  0.000
  0.000  0.000  0.000  0.000  1.000
    occupations:
  1.000  0.000  0.000  0.000  0.000
  0.000  1.000  0.000  0.000  0.000
  0.000  0.000  1.000  0.000  0.000
  0.000  0.000  0.000  1.000  0.000
  0.000  0.000  0.000  0.000  1.000
   spin  2
    eigenvalues: 
  0.000  0.000  0.000  0.000  0.000
    eigenvectors:
  1.000  0.000  0.000  0.000  0.000
  0.000  1.000  0.000  0.000  0.000
  0.000  0.000  1.000  0.000  0.000
  0.000  0.000  0.000  1.000  0.000
  0.000  0.000  0.000  0.000  1.000
    occupations:
  0.000  0.000  0.000  0.000  0.000
  0.000  0.000  0.000  0.000  0.000
  0.000  0.000  0.000  0.000  0.000
  0.000  0.000  0.000  0.000  0.000
  0.000  0.000  0.000  0.000  0.000
atomic mag. moment =     5.000000
atom    6   Tr[ns(na)] (up, down, total) =   0.00000  5.00000  5.00000
   spin  1
    eigenvalues: 
  0.000  0.000  0.000  0.000  0.000
    eigenvectors:
  1.000  0.000  0.000  0.000  0.000
  0.000  1.000  0.000  0.000  0.000
  0.000  0.000  1.000  0.000  0.000
  0.000  0.000  0.000  1.000  0.000
  0.000  0.000  0.000  0.000  1.000
    occupations:
  0.000  0.000  0.000  0.000  0.000
  0.000  0.000  0.000  0.000  0.000
  0.000  0.000  0.000  0.000  0.000
  0.000  0.000  0.000  0.000  0.000
  0.000  0.000  0.000  0.000  0.000
   spin  2
    eigenvalues: 
  1.000  1.000  1.000  1.000  1.000
    eigenvectors:
  1.000  0.000  0.000  0.000  0.000
  0.000  1.000  0.000  0.000  0.000
  0.000  0.000  1.000  0.000  0.000
  0.000  0.000  0.000  1.000  0.000
  0.000  0.000  0.000  0.000  1.000
    occupations:
  1.000  0.000  0.000  0.000  0.000
  0.000  1.000  0.000  0.000  0.000
  0.000  0.000  1.000  0.000  0.000
  0.000  0.000  0.000  1.000  0.000
  0.000  0.000  0.000  0.000  1.000
atomic mag. moment =    -5.000000
atom    7   Tr[ns(na)] (up, down, total) =   5.00000  0.00000  5.00000
   spin  1
    eigenvalues: 
  1.000  1.000  1.000  1.000  1.000
    eigenvectors:
  1.000  0.000  0.000  0.000  0.000
  0.000  1.000  0.000  0.000  0.000
  0.000  0.000  1.000  0.000  0.000
  0.000  0.000  0.000  1.000  0.000
  0.000  0.000  0.000  0.000  1.000
    occupations:
  1.000  0.000  0.000  0.000  0.000
  0.000  1.000  0.000  0.000  0.000
  0.000  0.000  1.000  0.000  0.000
  0.000  0.000  0.000  1.000  0.000
  0.000  0.000  0.000  0.000  1.000
   spin  2
    eigenvalues: 
  0.000  0.000  0.000  0.000  0.000
    eigenvectors:
  1.000  0.000  0.000  0.000  0.000
  0.000  1.000  0.000  0.000  0.000
  0.000  0.000  1.000  0.000  0.000
  0.000  0.000  0.000  1.000  0.000
  0.000  0.000  0.000  0.000  1.000
    occupations:
  0.000  0.000  0.000  0.000  0.000
  0.000  0.000  0.000  0.000  0.000
  0.000  0.000  0.000  0.000  0.000
  0.000  0.000  0.000  0.000  0.000
  0.000  0.000  0.000  0.000  0.000
atomic mag. moment =     5.000000
atom    8   Tr[ns(na)] (up, down, total) =   0.00000  5.00000  5.00000
   spin  1
    eigenvalues: 
  0.000  0.000  0.000  0.000  0.000
    eigenvectors:
  1.000  0.000  0.000  0.000  0.000
  0.000  1.000  0.000  0.000  0.000
  0.000  0.000  1.000  0.000  0.000
  0.000  0.000  0.000  1.000  0.000
  0.000  0.000  0.000  0.000  1.000
    occupations:
  0.000  0.000  0.000  0.000  0.000
  0.000  0.000  0.000  0.000  0.000
  0.000  0.000  0.000  0.000  0.000
  0.000  0.000  0.000  0.000  0.000
  0.000  0.000  0.000  0.000  0.000
   spin  2
    eigenvalues: 
  1.000  1.000  1.000  1.000  1.000
    eigenvectors:
  1.000  0.000  0.000  0.000  0.000
  0.000  1.000  0.000  0.000  0.000
  0.000  0.000  1.000  0.000  0.000
  0.000  0.000  0.000  1.000  0.000
  0.000  0.000  0.000  0.000  1.000
    occupations:
  1.000  0.000  0.000  0.000  0.000
  0.000  1.000  0.000  0.000  0.000
  0.000  0.000  1.000  0.000  0.000
  0.000  0.000  0.000  1.000  0.000
  0.000  0.000  0.000  0.000  1.000
atomic mag. moment =    -5.000000
N of occupied +U levels =   40.000000
 --- exit write_ns ---
 Atomic wfc used for LDA+U Projector are NOT orthogonalized
     Starting wfcs are  224 randomized atomic wfcs
     Checking if some PAW data can be deallocated... 

     total cpu time spent up to now is       75.0 secs

     Self-consistent Calculation

     iteration #  1     ecut=    45.00 Ry     beta= 0.10
     Davidson diagonalization with overlap
     ethr =  1.00E-02,  avg # of iterations =  3.8
 --- enter write_ns ---
 LDA+U parameters:
U(  1) =   3.1200   J(  1) =   0.7000   B(  1) =   0.0803
U(  2) =   3.1200   J(  2) =   0.7000   B(  2) =   0.0803
atom    1   Tr[ns(na)] (up, down, total) =   5.01739  0.40587  5.42326
   spin  1
    eigenvalues: 
  1.003  1.003  1.003  1.004  1.004
    eigenvectors:
  0.000  0.000  0.000  1.000  0.000
  0.000  0.312  0.688  0.000  0.000
  0.000  0.688  0.312  0.000  0.000
  0.000  0.000  0.000  0.000  1.000
  1.000  0.000  0.000  0.000  0.000
    occupations:
  1.004 -0.000 -0.000  0.000  0.000
 -0.000  1.003 -0.000  0.000  0.000
 -0.000 -0.000  1.003  0.000  0.000
  0.000  0.000  0.000  1.004 -0.000
  0.000  0.000  0.000 -0.000  1.003
   spin  2
    eigenvalues: 
  0.053  0.072  0.080  0.080  0.121
    eigenvectors:
  0.000  1.000  0.000  0.000  0.000
  0.000  0.000  0.359  0.641  0.000
  0.000  0.000  0.641  0.359  0.000
  1.000  0.000  0.000  0.000  0.000
  0.000  0.000  0.000  0.000  1.000
    occupations:
  0.072 -0.000 -0.000  0.000  0.000
 -0.000  0.080 -0.000  0.000  0.000
 -0.000 -0.000  0.080  0.000  0.000
  0.000  0.000  0.000  0.053 -0.000
  0.000  0.000  0.000 -0.000  0.121
atomic mag. moment =     4.611515
atom    2   Tr[ns(na)] (up, down, total) =   5.01747  0.40186  5.41933
   spin  1
    eigenvalues: 
  1.003  1.003  1.003  1.004  1.004
    eigenvectors:
  0.000  0.000  0.000  1.000  0.000
  0.000  0.269  0.731  0.000  0.000
  0.000  0.731  0.269  0.000  0.000
  0.000  0.000  0.000  0.000  1.000
  1.000  0.000  0.000  0.000  0.000
    occupations:
  1.004 -0.000 -0.000  0.000  0.000
 -0.000  1.003 -0.000  0.000  0.000
 -0.000 -0.000  1.003  0.000  0.000
  0.000  0.000  0.000  1.004 -0.000
  0.000  0.000  0.000 -0.000  1.003
   spin  2
    eigenvalues: 
  0.053  0.073  0.081  0.081  0.114
    eigenvectors:
  0.000  1.000  0.000  0.000  0.000
  0.000  0.000  0.384  0.616  0.000
  0.000  0.000  0.616  0.384  0.000
  1.000  0.000  0.000  0.000  0.000
  0.000  0.000  0.000  0.000  1.000
    occupations:
  0.073 -0.000 -0.000  0.000  0.000
 -0.000  0.081 -0.000  0.000  0.000
 -0.000 -0.000  0.081  0.000  0.000
  0.000  0.000  0.000  0.053 -0.000
  0.000  0.000  0.000 -0.000  0.114
atomic mag. moment =     4.615607
atom    3   Tr[ns(na)] (up, down, total) =   5.01756  0.40133  5.41889
   spin  1
    eigenvalues: 
  1.003  1.003  1.003  1.004  1.004
    eigenvectors:
  0.000  0.000  0.000  1.000  0.000
  0.000  0.344  0.656  0.000  0.000
  0.000  0.656  0.344  0.000  0.000
  0.000  0.000  0.000  0.000  1.000
  1.000  0.000  0.000  0.000  0.000
    occupations:
  1.004 -0.000 -0.000  0.000  0.000
 -0.000  1.003 -0.000  0.000  0.000
 -0.000 -0.000  1.003  0.000  0.000
  0.000  0.000  0.000  1.004 -0.000
  0.000  0.000  0.000 -0.000  1.003
   spin  2
    eigenvalues: 
  0.053  0.073  0.080  0.080  0.115
    eigenvectors:
  0.000  1.000  0.000  0.000  0.000
  0.000  0.000  0.349  0.651  0.000
  0.000  0.000  0.651  0.349  0.000
  1.000  0.000  0.000  0.000  0.000
  0.000  0.000  0.000  0.000  1.000
    occupations:
  0.073 -0.000 -0.000  0.000  0.000
 -0.000  0.080 -0.000  0.000  0.000
 -0.000 -0.000  0.080  0.000  0.000
  0.000  0.000  0.000  0.053 -0.000
  0.000  0.000  0.000 -0.000  0.115
atomic mag. moment =     4.616234
atom    4   Tr[ns(na)] (up, down, total) =   5.01747  0.40186  5.41933
   spin  1
    eigenvalues: 
  1.003  1.003  1.003  1.004  1.004
    eigenvectors:
  0.000  0.000  0.000  1.000  0.000
  0.000  0.302  0.698  0.000  0.000
  0.000  0.698  0.302  0.000  0.000
  0.000  0.000  0.000  0.000  1.000
  1.000  0.000  0.000  0.000  0.000
    occupations:
  1.004 -0.000 -0.000  0.000  0.000
 -0.000  1.003 -0.000  0.000  0.000
 -0.000 -0.000  1.003  0.000  0.000
  0.000  0.000  0.000  1.004 -0.000
  0.000  0.000  0.000 -0.000  1.003
   spin  2
    eigenvalues: 
  0.053  0.073  0.081  0.081  0.114
    eigenvectors:
  0.000  1.000  0.000  0.000  0.000
  0.000  0.000  0.337  0.663  0.000
  0.000  0.000  0.663  0.337  0.000
  1.000  0.000  0.000  0.000  0.000
  0.000  0.000  0.000  0.000  1.000
    occupations:
  0.073 -0.000 -0.000  0.000  0.000
 -0.000  0.081 -0.000  0.000  0.000
 -0.000 -0.000  0.081  0.000  0.000
  0.000  0.000  0.000  0.053 -0.000
  0.000  0.000  0.000 -0.000  0.114
atomic mag. moment =     4.615607
atom    5   Tr[ns(na)] (up, down, total) =   5.01739  0.40587  5.42326
   spin  1
    eigenvalues: 
  1.003  1.003  1.003  1.004  1.004
    eigenvectors:
  0.000  0.000  0.000  1.000  0.000
  0.000  0.314  0.686  0.000  0.000
  0.000  0.686  0.314  0.000  0.000
  0.000  0.000  0.000  0.000  1.000
  1.000  0.000  0.000  0.000  0.000
    occupations:
  1.004 -0.000 -0.000  0.000  0.000
 -0.000  1.003 -0.000  0.000  0.000
 -0.000 -0.000  1.003  0.000  0.000
  0.000  0.000  0.000  1.004 -0.000
  0.000  0.000  0.000 -0.000  1.003
   spin  2
    eigenvalues: 
  0.053  0.072  0.080  0.080  0.121
    eigenvectors:
  0.000  1.000  0.000  0.000  0.000
  0.000  0.000  0.310  0.690  0.000
  0.000  0.000  0.690  0.310  0.000
  1.000  0.000  0.000  0.000  0.000
  0.000  0.000  0.000  0.000  1.000
    occupations:
  0.072 -0.000 -0.000  0.000  0.000
 -0.000  0.080 -0.000  0.000  0.000
 -0.000 -0.000  0.080  0.000  0.000
  0.000  0.000  0.000  0.053 -0.000
  0.000  0.000  0.000 -0.000  0.121
atomic mag. moment =     4.611515
atom    6   Tr[ns(na)] (up, down, total) =   0.41339  5.01744  5.43083
   spin  1
    eigenvalues: 
  0.054  0.074  0.081  0.081  0.125
    eigenvectors:
  0.000  1.000  0.000  0.000  0.000
  0.000  0.000  0.237  0.763  0.000
  0.000  0.000  0.763  0.237  0.000
  1.000  0.000  0.000  0.000  0.000
  0.000  0.000  0.000  0.000  1.000
    occupations:
  0.074 -0.000 -0.000  0.000  0.000
 -0.000  0.081 -0.000  0.000  0.000
 -0.000 -0.000  0.081  0.000  0.000
  0.000  0.000  0.000  0.054 -0.000
  0.000  0.000  0.000 -0.000  0.125
   spin  2
    eigenvalues: 
  1.003  1.003  1.003  1.004  1.004
    eigenvectors:
  0.000  0.000  0.000  1.000  0.000
  0.000  0.290  0.710  0.000  0.000
  0.000  0.710  0.290  0.000  0.000
  0.000  0.000  0.000  0.000  1.000
  1.000  0.000  0.000  0.000  0.000
    occupations:
  1.004 -0.000 -0.000  0.000  0.000
 -0.000  1.003 -0.000  0.000  0.000
 -0.000 -0.000  1.003  0.000  0.000
  0.000  0.000  0.000  1.004 -0.000
  0.000  0.000  0.000 -0.000  1.003
atomic mag. moment =    -4.604053
atom    7   Tr[ns(na)] (up, down, total) =   5.01730  0.41272  5.43002
   spin  1
    eigenvalues: 
  1.003  1.003  1.003  1.004  1.004
    eigenvectors:
  0.000  0.000  0.000  1.000  0.000
  0.000  0.304  0.696  0.000  0.000
  0.000  0.696  0.304  0.000  0.000
  0.000  0.000  0.000  0.000  1.000
  1.000  0.000  0.000  0.000  0.000
    occupations:
  1.004 -0.000 -0.000  0.000  0.000
 -0.000  1.003 -0.000  0.000  0.000
 -0.000 -0.000  1.003  0.000  0.000
  0.000  0.000  0.000  1.004 -0.000
  0.000  0.000  0.000 -0.000  1.003
   spin  2
    eigenvalues: 
  0.053  0.073  0.080  0.080  0.126
    eigenvectors:
  0.000  1.000  0.000  0.000  0.000
  0.000  0.000  0.325  0.675  0.000
  0.000  0.000  0.675  0.325  0.000
  1.000  0.000  0.000  0.000  0.000
  0.000  0.000  0.000  0.000  1.000
    occupations:
  0.073 -0.000 -0.000  0.000  0.000
 -0.000  0.080 -0.000  0.000  0.000
 -0.000 -0.000  0.080  0.000  0.000
  0.000  0.000  0.000  0.053 -0.000
  0.000  0.000  0.000 -0.000  0.126
atomic mag. moment =     4.604587
atom    8   Tr[ns(na)] (up, down, total) =   0.41339  5.01744  5.43083
   spin  1
    eigenvalues: 
  0.054  0.074  0.081  0.081  0.125
    eigenvectors:
  0.000  1.000  0.000  0.000  0.000
  0.000  0.000  0.338  0.662  0.000
  0.000  0.000  0.662  0.338  0.000
  1.000  0.000  0.000  0.000  0.000
  0.000  0.000  0.000  0.000  1.000
    occupations:
  0.074 -0.000 -0.000  0.000  0.000
 -0.000  0.081 -0.000  0.000  0.000
 -0.000 -0.000  0.081  0.000  0.000
  0.000  0.000  0.000  0.054 -0.000
  0.000  0.000  0.000 -0.000  0.125
   spin  2
    eigenvalues: 
  1.003  1.003  1.003  1.004  1.004
    eigenvectors:
  0.000  0.000  0.000  1.000  0.000
  0.000  0.306  0.694  0.000  0.000
  0.000  0.694  0.306  0.000  0.000
  0.000  0.000  0.000  0.000  1.000
  1.000  0.000  0.000  0.000  0.000
    occupations:
  1.004 -0.000 -0.000  0.000  0.000
 -0.000  1.003 -0.000  0.000  0.000
 -0.000 -0.000  1.003  0.000  0.000
  0.000  0.000  0.000  1.004 -0.000
  0.000  0.000  0.000 -0.000  1.003
atomic mag. moment =    -4.604053
N of occupied +U levels =   43.395737
 --- exit write_ns ---

     total cpu time spent up to now is      243.1 secs

     total energy              =  -14687.27582880 Ry
     Harris-Foulkes estimate   =  -14685.81672307 Ry
     estimated scf accuracy    <      11.55664837 Ry

     total magnetization       =    20.20 Bohr mag/cell
     absolute magnetization    =    41.59 Bohr mag/cell

     iteration #  2     ecut=    45.00 Ry     beta= 0.10
     Davidson diagonalization with overlap
     ethr =  3.90E-03,  avg # of iterations =  1.0

     total cpu time spent up to now is      344.6 secs

     total energy              =  -14688.35195140 Ry
     Harris-Foulkes estimate   =  -14687.35729713 Ry
     estimated scf accuracy    <      10.25820936 Ry

     total magnetization       =    19.85 Bohr mag/cell
     absolute magnetization    =    41.21 Bohr mag/cell

     iteration #  3     ecut=    45.00 Ry     beta= 0.10
     Davidson diagonalization with overlap
     ethr =  3.47E-03,  avg # of iterations =  3.6

     total cpu time spent up to now is      480.1 secs

     total energy              =  -14692.28860137 Ry
     Harris-Foulkes estimate   =  -14689.32365862 Ry
     estimated scf accuracy    <      85.41587768 Ry

     total magnetization       =    19.84 Bohr mag/cell
     absolute magnetization    =    40.89 Bohr mag/cell

     iteration #  4     ecut=    45.00 Ry     beta= 0.10
     Davidson diagonalization with overlap
     ethr =  3.47E-03,  avg # of iterations =  2.5

     total cpu time spent up to now is      610.1 secs

     total energy              =  -14694.78279409 Ry
     Harris-Foulkes estimate   =  -14694.23285977 Ry
     estimated scf accuracy    <       4.20661439 Ry

     total magnetization       =    18.50 Bohr mag/cell
     absolute magnetization    =    38.44 Bohr mag/cell

     iteration #  5     ecut=    45.00 Ry     beta= 0.10
     Davidson diagonalization with overlap
     ethr =  1.42E-03,  avg # of iterations =  2.5

     total cpu time spent up to now is      731.2 secs

     total energy              =  -14694.52080377 Ry
     Harris-Foulkes estimate   =  -14694.86678262 Ry
     estimated scf accuracy    <       7.67189595 Ry

     total magnetization       =    18.19 Bohr mag/cell
     absolute magnetization    =    37.94 Bohr mag/cell

     iteration #  6     ecut=    45.00 Ry     beta= 0.10
     Davidson diagonalization with overlap
     ethr =  1.42E-03,  avg # of iterations =  1.1

     total cpu time spent up to now is      832.3 secs

     total energy              =  -14693.40372311 Ry
     Harris-Foulkes estimate   =  -14694.54169979 Ry
     estimated scf accuracy    <       6.24482952 Ry

     total magnetization       =    18.35 Bohr mag/cell
     absolute magnetization    =    38.16 Bohr mag/cell

     iteration #  7     ecut=    45.00 Ry     beta= 0.10
     Davidson diagonalization with overlap
     ethr =  1.42E-03,  avg # of iterations =  4.7

     total cpu time spent up to now is     1010.0 secs

     total energy              =  -14693.96014465 Ry
     Harris-Foulkes estimate   =  -14693.96064829 Ry
     estimated scf accuracy    <       0.14676579 Ry

     total magnetization       =    17.83 Bohr mag/cell
     absolute magnetization    =    37.74 Bohr mag/cell

     iteration #  8     ecut=    45.00 Ry     beta= 0.10
     Davidson diagonalization with overlap
     ethr =  4.96E-05,  avg # of iterations =  4.5

     total cpu time spent up to now is     1266.3 secs

     total energy              =  -14694.01247243 Ry
     Harris-Foulkes estimate   =  -14694.01192648 Ry
     estimated scf accuracy    <       0.27398611 Ry

     total magnetization       =    17.45 Bohr mag/cell
     absolute magnetization    =    37.29 Bohr mag/cell

     iteration #  9     ecut=    45.00 Ry     beta= 0.10
     Davidson diagonalization with overlap
     ethr =  4.96E-05,  avg # of iterations =  1.0

     total cpu time spent up to now is     1366.6 secs

     total energy              =  -14693.99999189 Ry
     Harris-Foulkes estimate   =  -14694.01255667 Ry
     estimated scf accuracy    <       0.28246860 Ry

     total magnetization       =    17.45 Bohr mag/cell
     absolute magnetization    =    37.30 Bohr mag/cell

     iteration # 10     ecut=    45.00 Ry     beta= 0.10
     Davidson diagonalization with overlap
     ethr =  4.96E-05,  avg # of iterations =  1.1

     total cpu time spent up to now is     1469.9 secs

     total energy              =  -14694.00124739 Ry
     Harris-Foulkes estimate   =  -14694.00430951 Ry
     estimated scf accuracy    <       0.13413927 Ry

     total magnetization       =    17.40 Bohr mag/cell
     absolute magnetization    =    37.27 Bohr mag/cell

     iteration # 11     ecut=    45.00 Ry     beta= 0.10
     Davidson diagonalization with overlap
     ethr =  4.53E-05,  avg # of iterations =  1.0

     total cpu time spent up to now is     1572.4 secs

     total energy              =  -14693.99769808 Ry
     Harris-Foulkes estimate   =  -14694.00258908 Ry
     estimated scf accuracy    <       0.08057335 Ry

     total magnetization       =    17.38 Bohr mag/cell
     absolute magnetization    =    37.27 Bohr mag/cell

     iteration # 12     ecut=    45.00 Ry     beta= 0.10
     Davidson diagonalization with overlap
     ethr =  2.72E-05,  avg # of iterations =  1.5

     total cpu time spent up to now is     1681.3 secs

     total energy              =  -14694.00158797 Ry
     Harris-Foulkes estimate   =  -14694.00028775 Ry
     estimated scf accuracy    <       0.02524228 Ry

     total magnetization       =    17.35 Bohr mag/cell
     absolute magnetization    =    37.27 Bohr mag/cell

     iteration # 13     ecut=    45.00 Ry     beta= 0.10
     Davidson diagonalization with overlap
     ethr =  8.53E-06,  avg # of iterations =  2.9

     total cpu time spent up to now is     1809.0 secs

     total energy              =  -14694.00032387 Ry
     Harris-Foulkes estimate   =  -14694.00211832 Ry
     estimated scf accuracy    <       0.01571007 Ry

     total magnetization       =    17.33 Bohr mag/cell
     absolute magnetization    =    37.23 Bohr mag/cell

     iteration # 14     ecut=    45.00 Ry     beta= 0.10
     Davidson diagonalization with overlap
     ethr =  5.31E-06,  avg # of iterations =  3.5

     total cpu time spent up to now is     1967.2 secs

     total energy              =  -14694.00263199 Ry
     Harris-Foulkes estimate   =  -14694.00264880 Ry
     estimated scf accuracy    <       0.00090235 Ry

     total magnetization       =    17.25 Bohr mag/cell
     absolute magnetization    =    37.18 Bohr mag/cell

     iteration # 15     ecut=    45.00 Ry     beta= 0.10
     Davidson diagonalization with overlap
     ethr =  3.05E-07,  avg # of iterations =  3.5

     total cpu time spent up to now is     2160.4 secs

     total energy              =  -14694.00240288 Ry
     Harris-Foulkes estimate   =  -14694.00291748 Ry
     estimated scf accuracy    <       0.00164331 Ry

     total magnetization       =    17.24 Bohr mag/cell
     absolute magnetization    =    37.18 Bohr mag/cell

     iteration # 16     ecut=    45.00 Ry     beta= 0.10
     Davidson diagonalization with overlap
     ethr =  3.05E-07,  avg # of iterations =  2.4

     total cpu time spent up to now is     2295.0 secs

     total energy              =  -14694.00267288 Ry
     Harris-Foulkes estimate   =  -14694.00260115 Ry
     estimated scf accuracy    <       0.00015143 Ry

     total magnetization       =    17.26 Bohr mag/cell
     absolute magnetization    =    37.20 Bohr mag/cell

     iteration # 17     ecut=    45.00 Ry     beta= 0.10
     Davidson diagonalization with overlap
     ethr =  5.12E-08,  avg # of iterations =  1.4

     total cpu time spent up to now is     2398.2 secs

     total energy              =  -14694.00272398 Ry
     Harris-Foulkes estimate   =  -14694.00266620 Ry
     estimated scf accuracy    <       0.00012277 Ry

     total magnetization       =    17.26 Bohr mag/cell
     absolute magnetization    =    37.20 Bohr mag/cell

     iteration # 18     ecut=    45.00 Ry     beta= 0.10
     Davidson diagonalization with overlap
     ethr =  4.15E-08,  avg # of iterations =  1.4

     total cpu time spent up to now is     2501.5 secs

     total energy              =  -14694.00273341 Ry
     Harris-Foulkes estimate   =  -14694.00272280 Ry
     estimated scf accuracy    <       0.00006327 Ry

     total magnetization       =    17.25 Bohr mag/cell
     absolute magnetization    =    37.19 Bohr mag/cell

     iteration # 19     ecut=    45.00 Ry     beta= 0.10
     Davidson diagonalization with overlap
     ethr =  2.14E-08,  avg # of iterations =  2.5

     total cpu time spent up to now is     2620.4 secs

     total energy              =  -14694.00275070 Ry
     Harris-Foulkes estimate   =  -14694.00272958 Ry
     estimated scf accuracy    <       0.00002962 Ry

     total magnetization       =    17.24 Bohr mag/cell
     absolute magnetization    =    37.20 Bohr mag/cell

     iteration # 20     ecut=    45.00 Ry     beta= 0.10
     Davidson diagonalization with overlap
     ethr =  1.00E-08,  avg # of iterations =  2.4

     total cpu time spent up to now is     2741.3 secs

     total energy              =  -14694.00274194 Ry
     Harris-Foulkes estimate   =  -14694.00273573 Ry
     estimated scf accuracy    <       0.00001638 Ry

     total magnetization       =    17.24 Bohr mag/cell
     absolute magnetization    =    37.19 Bohr mag/cell

     iteration # 21     ecut=    45.00 Ry     beta= 0.10
     Davidson diagonalization with overlap
     ethr =  5.53E-09,  avg # of iterations =  2.5

     total cpu time spent up to now is     2865.3 secs

     total energy              =  -14694.00273767 Ry
     Harris-Foulkes estimate   =  -14694.00273496 Ry
     estimated scf accuracy    <       0.00000302 Ry

     total magnetization       =    17.23 Bohr mag/cell
     absolute magnetization    =    37.19 Bohr mag/cell

     iteration # 22     ecut=    45.00 Ry     beta= 0.10
     Davidson diagonalization with overlap
     ethr =  1.02E-09,  avg # of iterations =  3.2

     total cpu time spent up to now is     2993.2 secs

     total energy              =  -14694.00273488 Ry
     Harris-Foulkes estimate   =  -14694.00273347 Ry
     estimated scf accuracy    <       0.00000707 Ry

     total magnetization       =    17.23 Bohr mag/cell
     absolute magnetization    =    37.19 Bohr mag/cell

     iteration # 23     ecut=    45.00 Ry     beta= 0.10
     Davidson diagonalization with overlap
     ethr =  1.02E-09,  avg # of iterations =  1.6

     total cpu time spent up to now is     3099.6 secs

     total energy              =  -14694.00273613 Ry
     Harris-Foulkes estimate   =  -14694.00273468 Ry
     estimated scf accuracy    <       0.00000173 Ry

     total magnetization       =    17.23 Bohr mag/cell
     absolute magnetization    =    37.19 Bohr mag/cell

     iteration # 24     ecut=    45.00 Ry     beta= 0.10
     Davidson diagonalization with overlap
     ethr =  5.86E-10,  avg # of iterations =  1.8
 
     Magnetic moment per site:
     atom:    1    charge:   13.5468    magn:    4.2398    constr:    0.0000
     atom:    2    charge:   13.5531    magn:    4.1977    constr:    0.0000
     atom:    3    charge:   13.5541    magn:    4.1943    constr:    0.0000
     atom:    4    charge:   13.5531    magn:    4.1977    constr:    0.0000
     atom:    5    charge:   13.5468    magn:    4.2398    constr:    0.0000
     atom:    6    charge:   13.5442    magn:   -4.2600    constr:    0.0000
     atom:    7    charge:   13.5417    magn:    4.2746    constr:    0.0000
     atom:    8    charge:   13.5442    magn:   -4.2600    constr:    0.0000
     atom:    9    charge:    9.1226    magn:    0.0307    constr:    0.0000
     atom:   10    charge:    9.1222    magn:    0.0295    constr:    0.0000
     atom:   11    charge:    9.1212    magn:    0.0289    constr:    0.0000
     atom:   12    charge:    9.1195    magn:    0.0237    constr:    0.0000
     atom:   13    charge:    9.1195    magn:    0.0237    constr:    0.0000
     atom:   14    charge:    9.1212    magn:    0.0289    constr:    0.0000
     atom:   15    charge:    9.1222    magn:    0.0295    constr:    0.0000
     atom:   16    charge:    9.1226    magn:    0.0307    constr:    0.0000
     atom:   17    charge:    9.1241    magn:    0.0384    constr:    0.0000
     atom:   18    charge:    9.1243    magn:   -0.0405    constr:    0.0000
     atom:   19    charge:    9.1249    magn:   -0.0373    constr:    0.0000
     atom:   20    charge:    9.1252    magn:    0.0393    constr:    0.0000
     atom:   21    charge:    9.1252    magn:    0.0393    constr:    0.0000
     atom:   22    charge:    9.1249    magn:   -0.0373    constr:    0.0000
     atom:   23    charge:    9.1243    magn:   -0.0405    constr:    0.0000
     atom:   24    charge:    9.1241    magn:    0.0384    constr:    0.0000

     total cpu time spent up to now is     3205.4 secs

     End of self-consistent calculation
 --- enter write_ns ---
 LDA+U parameters:
U(  1) =   3.1200   J(  1) =   0.7000   B(  1) =   0.0803
U(  2) =   3.1200   J(  2) =   0.7000   B(  2) =   0.0803
atom    1   Tr[ns(na)] (up, down, total) =   4.97255  0.73245  5.70501
   spin  1
    eigenvalues: 
  0.985  0.994  0.994  0.997  1.002
    eigenvectors:
  0.000  0.000  0.000  1.000  0.000
  0.000  0.327  0.673  0.000  0.000
  0.000  0.673  0.327  0.000  0.000
  0.000  0.000  0.000  0.000  1.000
  1.000  0.000  0.000  0.000  0.000
    occupations:
  0.997 -0.000 -0.000  0.000  0.000
 -0.000  0.994 -0.000  0.000  0.000
 -0.000 -0.000  0.994  0.000  0.000
  0.000  0.000  0.000  1.002 -0.000
  0.000  0.000  0.000 -0.000  0.985
   spin  2
    eigenvalues: 
  0.067  0.130  0.144  0.144  0.247
    eigenvectors:
  0.000  1.000  0.000  0.000  0.000
  0.000  0.000  0.332  0.668  0.000
  0.000  0.000  0.668  0.332  0.000
  1.000  0.000  0.000  0.000  0.000
  0.000  0.000  0.000  0.000  1.000
    occupations:
  0.130 -0.000 -0.000  0.000  0.000
 -0.000  0.144 -0.000  0.000  0.000
 -0.000 -0.000  0.144  0.000  0.000
  0.000  0.000  0.000  0.067 -0.000
  0.000  0.000  0.000 -0.000  0.247
atomic mag. moment =     4.240104
atom    2   Tr[ns(na)] (up, down, total) =   4.96924  0.76547  5.73470
   spin  1
    eigenvalues: 
  0.984  0.993  0.993  0.996  1.002
    eigenvectors:
  0.000  0.000  0.000  1.000  0.000
  0.000  0.382  0.618  0.000  0.000
  0.000  0.618  0.382  0.000  0.000
  0.000  0.000  0.000  0.000  1.000
  1.000  0.000  0.000  0.000  0.000
    occupations:
  0.996 -0.000 -0.000  0.000  0.000
 -0.000  0.993 -0.000  0.000  0.000
 -0.000 -0.000  0.993  0.000  0.000
  0.000  0.000  0.000  1.002 -0.000
  0.000  0.000  0.000 -0.000  0.984
   spin  2
    eigenvalues: 
  0.065  0.143  0.143  0.146  0.268
    eigenvectors:
  0.000  0.000  0.000  1.000  0.000
  0.000  0.390  0.610  0.000  0.000
  0.000  0.610  0.390  0.000  0.000
  1.000  0.000  0.000  0.000  0.000
  0.000  0.000  0.000  0.000  1.000
    occupations:
  0.146 -0.000 -0.000  0.000  0.000
 -0.000  0.143 -0.000  0.000  0.000
 -0.000 -0.000  0.143  0.000  0.000
  0.000  0.000  0.000  0.065 -0.000
  0.000  0.000  0.000 -0.000  0.268
atomic mag. moment =     4.203771
atom    3   Tr[ns(na)] (up, down, total) =   4.96845  0.76843  5.73688
   spin  1
    eigenvalues: 
  0.984  0.993  0.993  0.997  1.002
    eigenvectors:
  0.000  0.000  0.000  1.000  0.000
  0.000  0.294  0.706  0.000  0.000
  0.000  0.706  0.294  0.000  0.000
  0.000  0.000  0.000  0.000  1.000
  1.000  0.000  0.000  0.000  0.000
    occupations:
  0.997 -0.000 -0.000  0.000  0.000
 -0.000  0.993 -0.000  0.000  0.000
 -0.000 -0.000  0.993  0.000  0.000
  0.000  0.000  0.000  1.002 -0.000
  0.000  0.000  0.000 -0.000  0.984
   spin  2
    eigenvalues: 
  0.065  0.143  0.143  0.148  0.270
    eigenvectors:
  0.000  0.000  0.000  1.000  0.000
  0.000  0.276  0.724  0.000  0.000
  0.000  0.724  0.276  0.000  0.000
  1.000  0.000  0.000  0.000  0.000
  0.000  0.000  0.000  0.000  1.000
    occupations:
  0.148 -0.000 -0.000  0.000  0.000
 -0.000  0.143 -0.000  0.000  0.000
 -0.000 -0.000  0.143  0.000  0.000
  0.000  0.000  0.000  0.065 -0.000
  0.000  0.000  0.000 -0.000  0.270
atomic mag. moment =     4.200016
atom    4   Tr[ns(na)] (up, down, total) =   4.96924  0.76547  5.73470
   spin  1
    eigenvalues: 
  0.984  0.993  0.993  0.996  1.002
    eigenvectors:
  0.000  0.000  0.000  1.000  0.000
  0.000  0.244  0.756  0.000  0.000
  0.000  0.756  0.244  0.000  0.000
  0.000  0.000  0.000  0.000  1.000
  1.000  0.000  0.000  0.000  0.000
    occupations:
  0.996 -0.000 -0.000  0.000  0.000
 -0.000  0.993 -0.000  0.000  0.000
 -0.000 -0.000  0.993  0.000  0.000
  0.000  0.000  0.000  1.002 -0.000
  0.000  0.000  0.000 -0.000  0.984
   spin  2
    eigenvalues: 
  0.065  0.143  0.143  0.146  0.268
    eigenvectors:
  0.000  0.000  0.000  1.000  0.000
  0.000  0.346  0.654  0.000  0.000
  0.000  0.654  0.346  0.000  0.000
  1.000  0.000  0.000  0.000  0.000
  0.000  0.000  0.000  0.000  1.000
    occupations:
  0.146 -0.000 -0.000  0.000  0.000
 -0.000  0.143 -0.000  0.000  0.000
 -0.000 -0.000  0.143  0.000  0.000
  0.000  0.000  0.000  0.065 -0.000
  0.000  0.000  0.000 -0.000  0.268
atomic mag. moment =     4.203771
atom    5   Tr[ns(na)] (up, down, total) =   4.97255  0.73245  5.70501
   spin  1
    eigenvalues: 
  0.985  0.994  0.994  0.997  1.002
    eigenvectors:
  0.000  0.000  0.000  1.000  0.000
  0.000  0.271  0.729  0.000  0.000
  0.000  0.729  0.271  0.000  0.000
  0.000  0.000  0.000  0.000  1.000
  1.000  0.000  0.000  0.000  0.000
    occupations:
  0.997 -0.000 -0.000  0.000  0.000
 -0.000  0.994 -0.000  0.000  0.000
 -0.000 -0.000  0.994  0.000  0.000
  0.000  0.000  0.000  1.002 -0.000
  0.000  0.000  0.000 -0.000  0.985
   spin  2
    eigenvalues: 
  0.067  0.130  0.144  0.144  0.247
    eigenvectors:
  0.000  1.000  0.000  0.000  0.000
  0.000  0.000  0.327  0.673  0.000
  0.000  0.000  0.673  0.327  0.000
  1.000  0.000  0.000  0.000  0.000
  0.000  0.000  0.000  0.000  1.000
    occupations:
  0.130 -0.000 -0.000  0.000  0.000
 -0.000  0.144 -0.000  0.000  0.000
 -0.000 -0.000  0.144  0.000  0.000
  0.000  0.000  0.000  0.067 -0.000
  0.000  0.000  0.000 -0.000  0.247
atomic mag. moment =     4.240104
atom    6   Tr[ns(na)] (up, down, total) =   0.71894  4.97235  5.69129
   spin  1
    eigenvalues: 
  0.065  0.121  0.144  0.144  0.245
    eigenvectors:
  0.000  1.000  0.000  0.000  0.000
  0.000  0.000  0.312  0.688  0.000
  0.000  0.000  0.688  0.312  0.000
  1.000  0.000  0.000  0.000  0.000
  0.000  0.000  0.000  0.000  1.000
    occupations:
  0.121 -0.000 -0.000  0.000  0.000
 -0.000  0.144 -0.000  0.000  0.000
 -0.000 -0.000  0.144  0.000  0.000
  0.000  0.000  0.000  0.065 -0.000
  0.000  0.000  0.000 -0.000  0.245
   spin  2
    eigenvalues: 
  0.985  0.994  0.994  0.997  1.003
    eigenvectors:
  0.000  0.000  0.000  1.000  0.000
  0.000  0.348  0.652  0.000  0.000
  0.000  0.652  0.348  0.000  0.000
  0.000  0.000  0.000  0.000  1.000
  1.000  0.000  0.000  0.000  0.000
    occupations:
  0.997 -0.000 -0.000  0.000  0.000
 -0.000  0.994 -0.000  0.000  0.000
 -0.000 -0.000  0.994  0.000  0.000
  0.000  0.000  0.000  1.003 -0.000
  0.000  0.000  0.000 -0.000  0.985
atomic mag. moment =    -4.253405
atom    7   Tr[ns(na)] (up, down, total) =   4.97423  0.70549  5.67972
   spin  1
    eigenvalues: 
  0.985  0.994  0.994  0.998  1.003
    eigenvectors:
  0.000  0.000  0.000  1.000  0.000
  0.000  0.275  0.725  0.000  0.000
  0.000  0.725  0.275  0.000  0.000
  0.000  0.000  0.000  0.000  1.000
  1.000  0.000  0.000  0.000  0.000
    occupations:
  0.998 -0.000 -0.000  0.000  0.000
 -0.000  0.994 -0.000  0.000  0.000
 -0.000 -0.000  0.994  0.000  0.000
  0.000  0.000  0.000  1.003 -0.000
  0.000  0.000  0.000 -0.000  0.985
   spin  2
    eigenvalues: 
  0.067  0.109  0.145  0.145  0.239
    eigenvectors:
  0.000  1.000  0.000  0.000  0.000
  0.000  0.000  0.358  0.642  0.000
  0.000  0.000  0.642  0.358  0.000
  1.000  0.000  0.000  0.000  0.000
  0.000  0.000  0.000  0.000  1.000
    occupations:
  0.109 -0.000 -0.000  0.000  0.000
 -0.000  0.145 -0.000  0.000  0.000
 -0.000 -0.000  0.145  0.000  0.000
  0.000  0.000  0.000  0.067 -0.000
  0.000  0.000  0.000 -0.000  0.239
atomic mag. moment =     4.268737
atom    8   Tr[ns(na)] (up, down, total) =   0.71894  4.97235  5.69129
   spin  1
    eigenvalues: 
  0.065  0.121  0.144  0.144  0.245
    eigenvectors:
  0.000  1.000  0.000  0.000  0.000
  0.000  0.000  0.323  0.677  0.000
  0.000  0.000  0.677  0.323  0.000
  1.000  0.000  0.000  0.000  0.000
  0.000  0.000  0.000  0.000  1.000
    occupations:
  0.121 -0.000 -0.000  0.000  0.000
 -0.000  0.144 -0.000  0.000  0.000
 -0.000 -0.000  0.144  0.000  0.000
  0.000  0.000  0.000  0.065 -0.000
  0.000  0.000  0.000 -0.000  0.245
   spin  2
    eigenvalues: 
  0.985  0.994  0.994  0.997  1.003
    eigenvectors:
  0.000  0.000  0.000  1.000  0.000
  0.000  0.259  0.741  0.000  0.000
  0.000  0.741  0.259  0.000  0.000
  0.000  0.000  0.000  0.000  1.000
  1.000  0.000  0.000  0.000  0.000
    occupations:
  0.997 -0.000 -0.000  0.000  0.000
 -0.000  0.994 -0.000  0.000  0.000
 -0.000 -0.000  0.994  0.000  0.000
  0.000  0.000  0.000  1.003 -0.000
  0.000  0.000  0.000 -0.000  0.985
atomic mag. moment =    -4.253405
N of occupied +U levels =   45.678604
 --- exit write_ns ---

 ------ SPIN UP ------------


          k = 0.0000 0.0000 0.0000 ( 13925 PWs)   bands (ev):

   -66.8718 -66.7530 -66.7530 -66.6053 -66.6053 -66.5781 -62.2317 -62.2317
   -35.6391 -35.5875 -35.5875 -35.5160 -35.5160 -35.4732 -35.4732 -35.4732
   -35.4732 -35.3811 -35.3810 -35.3514 -35.3216 -35.3216 -35.3216 -35.3216
   -35.2959 -35.2959 -31.0536 -31.0536 -31.0501 -31.0501 -31.0501 -31.0501
     5.7434   5.8906   5.8977   6.2861   6.3921   7.0128   7.0142   7.6155
     8.2204   8.3818   8.3824   8.4365   8.4635   8.4792   8.5044   8.5782
     8.7122   8.7732   8.7997   8.8426   8.9112   9.0282   9.2025   9.2028
     9.2160   9.3777   9.4040   9.4437   9.5898   9.5972   9.7097   9.9018
     9.9372   9.9393   9.9401  10.0536  10.0711  10.1053  10.1056  10.1056
    10.1149  10.1699  10.1699  10.2024  10.2024  10.2127  10.3167  10.3365
    10.3365  10.3459  10.3459  10.4192  10.5380  10.5433  10.5433  10.5916
    10.5916  10.5961  10.5961  10.6087  10.6087  10.6147  10.6147  10.6181
    10.6661  10.6898  10.6898  10.7726  10.7726  10.7986  10.7986  10.8749
    10.9652  11.0251  11.0251  11.0417  11.0417  11.0728  11.1450  11.2152
    11.2539  11.2575  11.3069  11.3908  11.4467  11.4495  11.4495  11.5013
    11.5409  11.5409  11.5836  11.7104  11.7598  11.7986  11.8623  11.9340
    11.9340  11.9909  12.0016  12.0796  12.1036  12.1431  12.1591  12.1591
    12.2425  12.2567  12.3493  12.3493  12.5295  12.5595  12.5595  12.7138
    12.7647  12.8093  12.8093  12.8151  12.8891  13.0343  13.0645  13.1455
    13.1957  13.8681  14.2888  15.1683  15.3990  16.4792  16.8501  16.8501
    16.9022  16.9022  16.9246  16.9248  17.1121  17.1122  17.5457  17.5660
    18.1616  19.4862  19.5187  20.0402  20.0402  20.4032  20.4032  20.4162
    20.4162  21.3382

          k = 0.0000 0.0000-0.0484 ( 13878 PWs)   bands (ev):

   -66.8718 -66.7530 -66.7530 -66.6053 -66.6053 -66.5781 -62.2317 -62.2317
   -35.6391 -35.5875 -35.5875 -35.5160 -35.5160 -35.4732 -35.4732 -35.4732
   -35.4732 -35.3811 -35.3810 -35.3514 -35.3216 -35.3216 -35.3216 -35.3216
   -35.2959 -35.2959 -31.0536 -31.0536 -31.0501 -31.0501 -31.0501 -31.0501
     5.7734   5.7904   6.0482   6.1112   6.6198   6.6947   7.3486   7.4213
     8.3661   8.3825   8.4320   8.4341   8.4365   8.4690   8.5050   8.5643
     8.5752   8.6649   8.7765   8.9541   9.0192   9.0328   9.1390   9.2266
     9.2804   9.3484   9.3484   9.4063   9.6139   9.6297   9.7098   9.8986
     9.9029   9.9288   9.9483  10.0520  10.1041  10.1068  10.1068  10.1151
    10.1266  10.1582  10.1582  10.2148  10.2495  10.2495  10.2515  10.2515
    10.2792  10.4120  10.4594  10.4594  10.4637  10.4637  10.5437  10.5437
    10.5553  10.5938  10.5938  10.6023  10.6023  10.6404  10.6486  10.6898
    10.6898  10.7319  10.7319  10.7520  10.7520  10.8120  10.8120  10.8878
    10.8925  10.8925  10.9263  11.1204  11.1218  11.2116  11.2116  11.2155
    11.2292  11.2907  11.2995  11.2995  11.3049  11.3949  11.4252  11.4978
    11.5909  11.6563  11.6563  11.7225  11.7616  11.7867  11.8606  11.8606
    11.8724  11.9791  11.9886  12.0779  12.1343  12.1433  12.2261  12.2511
    12.2511  12.2566  12.2806  12.2806  12.5344  12.5691  12.5691  12.7051
    12.7719  12.8083  12.8083  12.8879  12.8927  12.9056  13.0345  13.1455
    13.3430  13.7116  14.5667  14.7778  15.7042  16.3377  16.8501  16.8501
    16.9022  16.9022  16.9246  16.9248  17.1120  17.1122  17.5460  17.5609
    18.4279  18.8174  20.1273  20.1273  20.1440  20.1440  20.4103  20.5375
    20.8061  20.8062

          k = 0.0000 0.1250 0.0000 ( 13879 PWs)   bands (ev):

   -66.8715 -66.7527 -66.7527 -66.6050 -66.6050 -66.5778 -62.2317 -62.2317
   -35.6390 -35.5893 -35.5874 -35.5158 -35.5158 -35.4750 -35.4750 -35.4731
   -35.4731 -35.3809 -35.3809 -35.3512 -35.3234 -35.3234 -35.3215 -35.3215
   -35.2977 -35.2958 -31.0533 -31.0533 -31.0522 -31.0522 -31.0499 -31.0499
     5.9870   6.1300   6.1374   6.5134   6.6097   7.1960   7.1964   7.7443
     8.2367   8.4725   8.5194   8.5598   8.5734   8.5759   8.6029   8.6833
     8.7082   8.7289   8.8251   8.8543   8.9636   9.0693   9.1503   9.1604
     9.2875   9.3007   9.3108   9.3705   9.4335   9.6141   9.7517   9.7556
     9.7567   9.8188   9.8274   9.9009   9.9081   9.9410   9.9555  10.0193
    10.0481  10.0582  10.0711  10.1071  10.1282  10.1399  10.1805  10.2305
    10.2730  10.3301  10.3335  10.3965  10.4065  10.4081  10.4789  10.5839
    10.5926  10.6115  10.6568  10.6894  10.7222  10.7506  10.7553  10.7736
    10.8453  10.8491  10.8801  10.8932  10.9669  10.9878  11.0074  11.0936
    11.1222  11.1257  11.1492  11.1509  11.1976  11.2318  11.2476  11.2725
    11.2866  11.2993  11.3425  11.4025  11.4177  11.4908  11.4969  11.5629
    11.5664  11.6553  11.7012  11.7193  11.8118  11.8159  11.8381  11.8403
    11.8981  12.0107  12.0110  12.0326  12.0444  12.1311  12.1329  12.2230
    12.2257  12.2492  12.4023  12.4066  12.4733  12.4948  12.6334  12.6636
    12.6637  12.7238  12.7644  12.8784  12.8968  13.0403  13.0405  13.0499
    13.1602  13.9064  14.3252  15.2978  15.5236  16.5648  16.6863  16.7421
    16.9323  16.9394  16.9836  17.0074  17.0082  17.0272  17.5683  17.8807
    18.2732  18.6036  18.9290  18.9581  19.7218  19.8132  19.8367  19.8472
    20.6484  20.8950

          k = 0.0000 0.1250-0.0484 ( 13868 PWs)   bands (ev):

   -66.8715 -66.7527 -66.7527 -66.6050 -66.6050 -66.5778 -62.2317 -62.2317
   -35.6390 -35.5893 -35.5874 -35.5158 -35.5158 -35.4750 -35.4750 -35.4731
   -35.4731 -35.3809 -35.3809 -35.3512 -35.3234 -35.3234 -35.3215 -35.3215
   -35.2977 -35.2958 -31.0533 -31.0533 -31.0522 -31.0522 -31.0499 -31.0499
     6.0156   6.0334   6.2837   6.3424   6.8305   6.8954   7.5110   7.5611
     8.3844   8.4613   8.4942   8.5215   8.5260   8.5644   8.5860   8.6582
     8.6849   8.7580   8.8576   8.9471   8.9547   9.0668   9.0788   9.1681
     9.2663   9.2835   9.3305   9.3936   9.4824   9.5574   9.7316   9.7560
     9.8097   9.8233   9.8406   9.8726   9.8945   9.9415   9.9535  10.0202
    10.0505  10.0590  10.0730  10.0938  10.1518  10.1533  10.1607  10.2539
    10.2702  10.3059  10.3271  10.3380  10.4315  10.4585  10.5502  10.5572
    10.5746  10.5985  10.6182  10.6523  10.6939  10.7478  10.7851  10.8417
    10.8496  10.8577  10.8930  10.9247  10.9617  10.9625  11.0055  11.0411
    11.0932  11.1191  11.1227  11.1849  11.2077  11.2324  11.2677  11.2713
    11.3097  11.3108  11.3516  11.3688  11.4218  11.4648  11.5443  11.5500
    11.5910  11.6560  11.6685  11.7279  11.7501  11.8154  11.8288  11.8903
    11.9223  11.9797  11.9960  12.0274  12.1222  12.1355  12.1359  12.1726
    12.2257  12.2474  12.3767  12.4247  12.4641  12.5278  12.6335  12.6337
    12.6906  12.7159  12.8533  12.8537  12.8787  12.8974  13.0404  13.0404
    13.3537  13.7043  14.6488  14.8677  15.8469  16.4329  16.6626  16.7859
    16.9323  16.9399  16.9836  17.0074  17.0082  17.0272  17.6118  17.6961
    18.6447  18.7165  18.7470  19.0301  19.2870  19.3530  20.2752  20.3349
    20.7027  20.7576

          k = 0.0000 0.2500 0.0000 ( 13848 PWs)   bands (ev):

   -66.8713 -66.7525 -66.7525 -66.6049 -66.6049 -66.5777 -62.2313 -62.2313
   -35.6386 -35.5935 -35.5872 -35.5154 -35.5154 -35.4791 -35.4791 -35.4729
   -35.4728 -35.3805 -35.3805 -35.3508 -35.3276 -35.3276 -35.3213 -35.3213
   -35.3019 -35.2956 -31.0575 -31.0575 -31.0528 -31.0528 -31.0496 -31.0496
     6.6759   6.8043   6.8124   7.1409   7.2059   7.6546   7.6572   8.0128
     8.2181   8.4440   8.4458   8.6542   8.6707   8.7126   8.7736   8.8056
     8.8509   8.8628   8.8713   8.9153   8.9194   8.9762   9.0164   9.0454
     9.1159   9.1168   9.3331   9.4715   9.4857   9.4961   9.5599   9.5667
     9.5968   9.5985   9.6364   9.6943   9.6949   9.7287   9.7774   9.8038
     9.8576   9.9293   9.9845  10.0274  10.0553  10.1532  10.2131  10.2642
    10.3251  10.4549  10.5257  10.5661  10.5825  10.5883  10.6260  10.6393
    10.6962  10.7489  10.7664  10.7966  10.8054  10.8494  10.8691  10.9245
    10.9811  11.0573  11.0691  11.0985  11.1163  11.1188  11.1233  11.2412
    11.2662  11.2687  11.3000  11.3785  11.3948  11.4065  11.4256  11.4543
    11.5087  11.5351  11.5821  11.6169  11.6463  11.6689  11.6713  11.6879
    11.7493  11.7614  11.7643  11.8317  11.8320  11.8695  11.8953  11.8982
    11.9329  11.9355  11.9803  12.0105  12.0471  12.0823  12.0988  12.1498
    12.1640  12.2662  12.2750  12.4307  12.4606  12.5852  12.5984  12.6832
    12.6869  12.7773  12.7774  12.9436  12.9528  12.9909  13.0495  13.0762
    13.0926  14.0275  14.3910  15.4907  15.7037  15.9613  16.1039  16.1108
    16.5096  16.5595  16.8451  16.8641  16.8745  16.8840  17.1875  17.2527
    17.2559  17.3715  17.4830  17.8184  18.1928  18.3802  18.4715  18.5519
    19.2564  20.3378

          k = 0.0000 0.2500-0.0484 ( 13842 PWs)   bands (ev):

   -66.8713 -66.7525 -66.7525 -66.6049 -66.6049 -66.5777 -62.2313 -62.2313
   -35.6386 -35.5935 -35.5872 -35.5154 -35.5154 -35.4791 -35.4791 -35.4729
   -35.4729 -35.3805 -35.3805 -35.3508 -35.3276 -35.3276 -35.3213 -35.3213
   -35.3019 -35.2956 -31.0575 -31.0575 -31.0528 -31.0528 -31.0496 -31.0496
     6.7002   6.7201   6.9426   6.9879   7.3952   7.4281   7.8790   7.8829
     8.3093   8.3206   8.5583   8.5617   8.7218   8.7337   8.7534   8.7797
     8.8311   8.8631   8.9031   8.9200   8.9382   8.9944   9.0147   9.0360
     9.0590   9.1179   9.4026   9.4734   9.4778   9.5133   9.5282   9.5616
     9.5986   9.6103   9.6105   9.6371   9.6883   9.7021   9.8104   9.8542
     9.9188   9.9241  10.0093  10.0123  10.0402  10.0533  10.2550  10.2567
    10.3486  10.4745  10.5393  10.5586  10.5600  10.5898  10.6070  10.6536
    10.6875  10.7202  10.7498  10.7894  10.8448  10.8467  10.9095  10.9785
    10.9803  10.9843  11.0032  11.1012  11.1064  11.1857  11.1869  11.1911
    11.2528  11.2851  11.2871  11.3639  11.4016  11.4082  11.4249  11.4852
    11.5185  11.5325  11.5665  11.5676  11.6492  11.6624  11.6629  11.7463
    11.7584  11.7632  11.7847  11.8273  11.8527  11.8528  11.8638  11.8887
    11.8927  11.9461  11.9595  12.0244  12.0792  12.0987  12.1043  12.1413
    12.1640  12.2539  12.3205  12.3300  12.5422  12.5939  12.6546  12.6816
    12.6951  12.7012  12.7780  12.7904  12.9436  12.9513  13.0764  13.0926
    13.3983  13.6747  14.8329  15.0213  15.8945  16.0080  16.0972  16.2383
    16.3300  16.5645  16.8641  16.8745  16.8813  16.8895  17.2527  17.2559
    17.2564  17.2665  17.5684  17.8415  18.0639  18.1138  18.6699  18.7278
    19.4605  19.6278

          k = 0.0000 0.3750 0.0000 ( 13856 PWs)   bands (ev):

   -66.8719 -66.7531 -66.7531 -66.6055 -66.6055 -66.5782 -62.2303 -62.2303
   -35.6382 -35.5975 -35.5869 -35.5150 -35.5150 -35.4832 -35.4832 -35.4726
   -35.4726 -35.3801 -35.3801 -35.3504 -35.3317 -35.3317 -35.3211 -35.3211
   -35.3060 -35.2953 -31.0629 -31.0629 -31.0522 -31.0522 -31.0493 -31.0493
     7.6353   7.7326   7.7425   7.9539   7.9582   8.1186   8.1377   8.1808
     8.1827   8.2269   8.2395   8.3396   8.3418   8.5211   8.5436   8.7148
     8.8217   8.9320   9.0228   9.0632   9.1251   9.1286   9.2219   9.2233
     9.2269   9.2609   9.2614   9.2674   9.3004   9.3322   9.3329   9.3993
     9.4534   9.4752   9.5780   9.6110   9.6262   9.6525   9.7116   9.7528
     9.8851   9.9082   9.9998  10.0872  10.0954  10.1373  10.1389  10.3184
    10.3448  10.3747  10.3884  10.4274  10.5042  10.5907  10.6263  10.7235
    10.7749  10.8055  10.8526  10.9256  10.9912  11.1460  11.1668  11.1677
    11.2281  11.2455  11.3222  11.3280  11.4047  11.4505  11.4601  11.4674
    11.4739  11.5095  11.5179  11.5809  11.5814  11.6030  11.6284  11.6552
    11.6890  11.6990  11.7036  11.7212  11.7892  11.8428  11.8449  11.8495
    11.9117  11.9313  11.9821  12.0031  12.0352  12.0438  12.0561  12.0876
    12.1508  12.1686  12.1825  12.2196  12.2268  12.2514  12.2980  12.3548
    12.3823  12.4990  12.5024  12.5285  12.5962  12.6052  12.7283  12.7490
    12.7688  12.8519  12.8996  12.9802  12.9803  13.0014  13.0359  13.1266
    13.1395  13.9453  14.0684  14.0912  14.2617  14.2981  14.9519  15.0004
    15.1018  15.1273  15.6786  15.6908  16.0012  16.1024  16.7983  16.7992
    16.8069  16.9873  16.9920  17.1302  17.4555  17.4559  17.8941  18.0117
    19.4331  19.4729

          k = 0.0000 0.3750-0.0484 ( 13872 PWs)   bands (ev):

   -66.8719 -66.7531 -66.7531 -66.6055 -66.6055 -66.5782 -62.2303 -62.2303
   -35.6382 -35.5975 -35.5869 -35.5150 -35.5150 -35.4832 -35.4832 -35.4726
   -35.4726 -35.3801 -35.3801 -35.3504 -35.3317 -35.3317 -35.3211 -35.3211
   -35.3060 -35.2953 -31.0629 -31.0629 -31.0522 -31.0522 -31.0493 -31.0493
     7.6505   7.6760   7.8350   7.8490   8.0480   8.0630   8.1687   8.1692
     8.1869   8.2113   8.2710   8.2838   8.4137   8.4406   8.6376   8.6473
     8.8503   8.9403   9.0030   9.0189   9.1556   9.1658   9.2193   9.2222
     9.2232   9.2669   9.2779   9.2968   9.3043   9.3115   9.3148   9.3655
     9.4217   9.4490   9.5877   9.6303   9.6418   9.6499   9.7970   9.8075
     9.8410   9.8876   9.9192  10.0329  10.0793  10.0948  10.3172  10.3220
    10.3295  10.4019  10.4024  10.4253  10.5005  10.5201  10.6138  10.6902
    10.7211  10.8362  10.9284  11.0147  11.0214  11.0338  11.1357  11.2115
    11.2540  11.2754  11.2955  11.3319  11.3883  11.3944  11.4389  11.4629
    11.4689  11.4792  11.5366  11.5692  11.5708  11.6049  11.6168  11.6340
    11.7091  11.7311  11.7349  11.7624  11.7709  11.8134  11.8293  11.8612
    11.8844  11.9218  11.9791  12.0351  12.0388  12.0597  12.1115  12.1144
    12.1486  12.1516  12.1789  12.1806  12.2784  12.3371  12.3510  12.3691
    12.4297  12.4378  12.4936  12.5003  12.5204  12.5995  12.6287  12.7301
    12.7384  12.7694  12.8542  12.8995  13.0011  13.0359  13.1266  13.1395
    13.5314  13.5859  14.0061  14.0585  14.4666  14.5855  14.6318  14.7049
    15.3507  15.3974  15.5775  15.5893  15.9860  16.1057  16.7983  16.7992
    16.8180  16.9870  16.9931  17.1347  17.4555  17.4559  17.8907  18.0175
    19.4515  19.5387

          k = 0.0000-0.5000 0.0000 ( 13918 PWs)   bands (ev):

   -66.8724 -66.7536 -66.7536 -66.6059 -66.6059 -66.5787 -62.2297 -62.2297
   -35.6380 -35.5992 -35.5868 -35.5148 -35.5148 -35.4849 -35.4849 -35.4725
   -35.4725 -35.3799 -35.3799 -35.3502 -35.3333 -35.3333 -35.3210 -35.3210
   -35.3076 -35.2952 -31.0652 -31.0652 -31.0520 -31.0520 -31.0491 -31.0491
     8.1111   8.1156   8.1530   8.1577   8.1646   8.1748   8.2452   8.2873
     8.3207   8.3979   8.4254   8.4381   8.5098   8.5180   8.5250   8.6615
     8.6936   8.7910   8.9249   8.9448   9.1181   9.1245   9.1406   9.1799
     9.1832   9.1979   9.2228   9.2260   9.3070   9.3162   9.3597   9.4689
     9.4832   9.5650   9.6757   9.7067   9.7250   9.7539   9.7907   9.7912
     9.8161   9.8185   9.8434   9.9725   9.9972  10.0239  10.0435  10.1394
    10.2365  10.3582  10.3968  10.3987  10.5526  10.5567  10.6051  10.6398
    10.6640  10.7466  10.8268  11.0279  11.1757  11.1909  11.2708  11.3363
    11.3558  11.4241  11.4356  11.4861  11.5022  11.5065  11.5579  11.5606
    11.5631  11.5780  11.5976  11.6072  11.6361  11.6536  11.6799  11.7075
    11.7279  11.7564  11.7779  11.7958  11.8394  11.8694  11.8758  12.0132
    12.0283  12.0795  12.0917  12.2147  12.2648  12.3730  12.4075  12.4201
    12.4338  12.4629  12.4958  12.5047  12.5570  12.5708  12.5972  12.6158
    12.6266  12.6754  12.7363  12.7412  12.7745  12.7759  12.8400  12.8743
    12.9363  12.9514  12.9688  13.0297  13.0406  13.0586  13.1541  13.1558
    13.1560  13.3614  13.3891  13.4112  13.7524  13.8158  13.9382  13.9868
    14.3874  14.4256  14.4789  14.4885  14.7656  14.8280  16.5493  16.7784
    16.7790  16.7810  16.8507  16.8515  17.5295  17.5295  17.8914  17.9460
    19.4266  19.4604

          k = 0.0000-0.5000-0.0484 ( 13892 PWs)   bands (ev):

   -66.8724 -66.7536 -66.7536 -66.6059 -66.6059 -66.5787 -62.2297 -62.2297
   -35.6380 -35.5992 -35.5868 -35.5148 -35.5148 -35.4849 -35.4849 -35.4725
   -35.4725 -35.3799 -35.3799 -35.3502 -35.3333 -35.3333 -35.3210 -35.3210
   -35.3076 -35.2952 -31.0652 -31.0652 -31.0520 -31.0520 -31.0491 -31.0491
     8.1196   8.1229   8.1254   8.1399   8.1885   8.2090   8.2167   8.2732
     8.3351   8.3889   8.4428   8.4585   8.4671   8.5090   8.5487   8.6574
     8.6972   8.7935   8.9194   8.9384   9.1233   9.1245   9.1558   9.1636
     9.1832   9.2229   9.2281   9.2387   9.2811   9.3162   9.3334   9.4537
     9.5172   9.5650   9.6774   9.6807   9.7107   9.7287   9.7933   9.8128
     9.8161   9.8446   9.8795   9.9810   9.9972  10.0008  10.0435  10.1997
    10.2392  10.2744  10.3767  10.3987  10.4148  10.6051  10.6244  10.6640
    10.7466  10.8210  10.8843  10.9668  11.0430  11.1936  11.2872  11.3175
    11.3863  11.4258  11.4342  11.4794  11.4903  11.5154  11.5335  11.5564
    11.5602  11.5956  11.5981  11.6105  11.6151  11.6184  11.7366  11.7534
    11.7633  11.7719  11.7821  11.7930  11.8694  11.8697  11.8913  11.9287
    11.9990  12.0795  12.1200  12.1611  12.2910  12.3733  12.3808  12.4198
    12.4374  12.5126  12.5225  12.5301  12.5376  12.5635  12.5709  12.5741
    12.6365  12.6738  12.7410  12.7748  12.7910  12.8174  12.8177  12.8201
    12.8743  12.9398  13.0286  13.0438  13.0586  13.0949  13.1519  13.1541
    13.1556  13.2065  13.4339  13.5627  13.6803  13.6818  14.0735  14.1585
    14.1764  14.2364  14.6538  14.6590  14.7025  14.7501  16.5536  16.7756
    16.7790  16.7810  16.8510  16.8514  17.5295  17.5295  17.8932  17.9448
    19.4900  19.4948

          k = 0.1250 0.1250 0.0000 ( 13839 PWs)   bands (ev):

   -66.8712 -66.7524 -66.7524 -66.6047 -66.6047 -66.5775 -62.2317 -62.2317
   -35.6388 -35.5892 -35.5892 -35.5157 -35.5157 -35.4749 -35.4749 -35.4748
   -35.4748 -35.3807 -35.3807 -35.3511 -35.3233 -35.3233 -35.3233 -35.3233
   -35.2976 -35.2976 -31.0531 -31.0531 -31.0522 -31.0522 -31.0520 -31.0520
     6.2186   6.3588   6.3663   6.7340   6.8252   7.3854   7.3867   7.8936
     8.3003   8.5544   8.6442   8.6615   8.6721   8.6983   8.7022   8.7065
     8.7108   8.8193   8.9030   8.9778   8.9919   9.0712   9.1758   9.1766
     9.3353   9.3367   9.3411   9.4604   9.4708   9.5211   9.5605   9.6063
     9.7379   9.7630   9.7712   9.8463   9.8555   9.8682   9.8837   9.8876
     9.9191   9.9211   9.9252   9.9654  10.0252  10.1083  10.1084  10.1695
    10.2093  10.3019  10.3277  10.3419  10.3598  10.3737  10.4642  10.4822
    10.5575  10.5588  10.5824  10.6109  10.6536  10.6769  10.6872  10.7547
    10.8265  10.8307  10.8477  11.0359  11.0662  11.0872  11.1123  11.1332
    11.1463  11.1904  11.2023  11.2124  11.2743  11.2787  11.2820  11.3407
    11.3869  11.3873  11.4628  11.4950  11.5004  11.5211  11.5987  11.6422
    11.6700  11.7087  11.7382  11.8178  11.8713  11.8750  11.9413  11.9628
    11.9693  11.9961  11.9965  12.0598  12.1073  12.1933  12.1988  12.2147
    12.2813  12.3703  12.4016  12.4390  12.4877  12.5539  12.5992  12.6062
    12.6389  12.7193  12.7687  12.7849  12.8459  12.9167  12.9174  13.0714
    13.1687  14.0040  14.4304  15.4360  15.6857  16.6597  16.7819  16.7968
    16.8482  16.9219  16.9266  16.9610  16.9710  17.0192  17.5981  18.1969
    18.4411  19.0952  19.1971  19.3030  19.3888  19.5413  19.5708  19.8006
    19.9995  20.1119

          k = 0.1250 0.1250-0.0484 ( 13838 PWs)   bands (ev):

   -66.8712 -66.7524 -66.7524 -66.6047 -66.6047 -66.5775 -62.2317 -62.2317
   -35.6388 -35.5892 -35.5892 -35.5157 -35.5157 -35.4749 -35.4749 -35.4748
   -35.4748 -35.3807 -35.3807 -35.3511 -35.3233 -35.3233 -35.3233 -35.3233
   -35.2976 -35.2976 -31.0531 -31.0531 -31.0522 -31.0522 -31.0520 -31.0520
     6.2472   6.2636   6.5095   6.5666   7.0402   7.0989   7.6850   7.7194
     8.4266   8.4911   8.5789   8.6057   8.6623   8.6958   8.7173   8.7347
     8.8176   8.8279   8.8899   8.9158   8.9797   9.1560   9.1601   9.1723
     9.2480   9.3487   9.4358   9.4392   9.4620   9.4729   9.5789   9.6349
     9.7143   9.7562   9.7966   9.8346   9.8531   9.8733   9.8810   9.8904
     9.9100   9.9198   9.9248   9.9649  10.0749  10.0992  10.1083  10.1084
    10.2199  10.3071  10.3429  10.3584  10.3737  10.3738  10.4369  10.4651
    10.5578  10.5709  10.5726  10.6345  10.6530  10.6837  10.7075  10.7228
    10.7572  10.8263  10.9348  11.0227  11.0953  11.1047  11.1092  11.1177
    11.1283  11.1393  11.1788  11.2654  11.2777  11.2831  11.3308  11.3317
    11.3426  11.3959  11.4229  11.4831  11.4904  11.5203  11.6665  11.6722
    11.6895  11.7130  11.7373  11.7977  11.8258  11.8562  11.9191  11.9249
    11.9876  11.9995  12.0130  12.1092  12.1134  12.1933  12.1998  12.2100
    12.3048  12.3344  12.3692  12.4649  12.4946  12.5491  12.6094  12.6105
    12.6311  12.7622  12.7726  12.8247  12.8448  12.8472  12.9176  12.9188
    13.4138  13.7601  14.7852  15.0050  15.9754  16.5531  16.7820  16.8482
    16.8621  16.8639  16.9289  16.9610  16.9710  17.0403  17.7009  17.8379
    19.0484  19.1185  19.1883  19.2562  19.3078  19.3307  19.5350  19.6343
    19.9071  19.9949

          k = 0.1250 0.2500 0.0000 ( 13846 PWs)   bands (ev):

   -66.8709 -66.7521 -66.7521 -66.6045 -66.6045 -66.5773 -62.2315 -62.2315
   -35.6384 -35.5934 -35.5889 -35.5153 -35.5153 -35.4790 -35.4790 -35.4746
   -35.4746 -35.3804 -35.3804 -35.3507 -35.3275 -35.3275 -35.3231 -35.3231
   -35.3018 -35.2973 -31.0573 -31.0573 -31.0526 -31.0526 -31.0517 -31.0517
     6.8641   6.9940   7.0017   7.3351   7.4102   7.8599   7.8627   8.2080
     8.3642   8.5537   8.5549   8.7337   8.7504   8.7611   8.8638   8.8659
     8.9424   8.9487   9.0064   9.0565   9.0602   9.1129   9.1579   9.1743
     9.1850   9.2712   9.3520   9.4490   9.4768   9.4939   9.5179   9.5332
     9.5657   9.5930   9.6517   9.6578   9.6915   9.7195   9.7524   9.7803
     9.8645   9.8893   9.9018   9.9615  10.0004  10.0277  10.1171  10.2072
    10.3158  10.3288  10.3420  10.3519  10.3864  10.4146  10.4395  10.4816
    10.4992  10.5654  10.6021  10.6374  10.6475  10.7330  10.7600  10.7783
    10.7900  10.8662  10.9138  10.9172  10.9913  10.9980  11.1385  11.2200
    11.2623  11.2754  11.3180  11.4131  11.4539  11.4818  11.4950  11.5293
    11.5504  11.5652  11.6107  11.6266  11.6385  11.6610  11.6634  11.7700
    11.7728  11.8279  11.8672  11.8829  11.8909  11.9238  11.9475  12.0181
    12.0251  12.0768  12.0844  12.1312  12.1371  12.1809  12.1906  12.2954
    12.3107  12.4866  12.5059  12.5611  12.5859  12.6091  12.6375  12.6526
    12.7295  12.7316  12.7893  12.8034  12.8185  12.8806  12.9260  13.2351
    13.3037  14.2930  14.7013  15.6020  15.9420  16.2064  16.3285  16.4702
    16.7197  16.8314  16.8890  16.9285  17.0448  17.1054  17.1837  17.3249
    17.4486  17.5606  17.7772  18.0845  18.5041  18.6566  18.8098  18.8876
    19.2934  20.4118

          k = 0.1250 0.2500-0.0484 ( 13868 PWs)   bands (ev):

   -66.8709 -66.7521 -66.7521 -66.6045 -66.6045 -66.5773 -62.2315 -62.2315
   -35.6384 -35.5934 -35.5889 -35.5153 -35.5153 -35.4790 -35.4790 -35.4746
   -35.4746 -35.3804 -35.3804 -35.3507 -35.3275 -35.3275 -35.3231 -35.3231
   -35.3018 -35.2973 -31.0573 -31.0573 -31.0526 -31.0526 -31.0517 -31.0517
     6.8926   6.9041   7.1324   7.1850   7.5967   7.6353   8.0792   8.0824
     8.4437   8.4536   8.6485   8.6507   8.7706   8.8034   8.8317   8.8536
     8.9520   8.9857   9.0056   9.0560   9.0568   9.1022   9.1409   9.1570
     9.1759   9.2732   9.4294   9.4339   9.4795   9.5003   9.5065   9.5417
     9.5548   9.6027   9.6188   9.6456   9.6703   9.6985   9.7575   9.7864
     9.8778   9.9003   9.9404   9.9794   9.9843  10.0240  10.1303  10.1777
    10.2633  10.3061  10.3412  10.3724  10.3812  10.4617  10.4762  10.4986
    10.5219  10.5433  10.5699  10.6424  10.6506  10.6975  10.7165  10.7719
    10.8185  10.8723  10.9029  10.9765  11.0174  11.0454  11.0692  11.1301
    11.2495  11.3030  11.4025  11.4291  11.4406  11.4590  11.5114  11.5225
    11.5355  11.5804  11.5967  11.6178  11.6391  11.6513  11.6610  11.7618
    11.7765  11.8390  11.8746  11.8792  11.9104  11.9188  11.9253  12.0082
    12.0584  12.0611  12.0757  12.1313  12.1443  12.1960  12.2072  12.2375
    12.3709  12.4071  12.5081  12.5535  12.5890  12.6065  12.6662  12.7183
    12.7295  12.7860  12.7990  12.8179  12.8400  12.8805  12.8885  12.9285
    13.6667  13.9717  15.0893  15.2620  16.0047  16.2882  16.3350  16.5601
    16.5607  16.7974  16.9446  16.9535  16.9896  17.1584  17.2149  17.2249
    17.5233  17.5662  17.8596  18.1076  18.3126  18.4100  18.9876  19.0170
    19.6440  19.6975

          k = 0.1250 0.3750 0.0000 ( 13875 PWs)   bands (ev):

   -66.8714 -66.7526 -66.7526 -66.6049 -66.6049 -66.5777 -62.2306 -62.2306
   -35.6381 -35.5974 -35.5887 -35.5149 -35.5149 -35.4831 -35.4831 -35.4743
   -35.4743 -35.3800 -35.3800 -35.3503 -35.3316 -35.3316 -35.3228 -35.3228
   -35.3058 -35.2971 -31.0627 -31.0627 -31.0521 -31.0521 -31.0513 -31.0513
     7.7343   7.8420   7.8489   8.0941   8.1292   8.3133   8.3227   8.3512
     8.3777   8.3859   8.4200   8.4797   8.4882   8.6463   8.6651   8.8030
     8.9023   8.9588   9.0527   9.0681   9.1643   9.2397   9.2402   9.2592
     9.2762   9.2786   9.2970   9.3362   9.3649   9.4015   9.4091   9.4283
     9.4418   9.5063   9.5649   9.5671   9.6028   9.6941   9.7004   9.7842
     9.8391   9.8713   9.9294   9.9444   9.9796  10.1617  10.2388  10.2658
    10.2890  10.3877  10.3969  10.4355  10.5066  10.5329  10.5400  10.5858
    10.6089  10.6921  10.7565  10.7931  10.9159  10.9304  10.9391  10.9633
    11.0628  11.0988  11.1693  11.2380  11.2413  11.2941  11.3404  11.4299
    11.4559  11.4673  11.4728  11.5369  11.5599  11.6045  11.6161  11.6415
    11.6446  11.6859  11.7425  11.7546  11.7668  11.7958  11.7969  11.8170
    11.8606  11.8616  11.8941  11.9081  11.9172  11.9585  11.9946  12.0125
    12.0275  12.0999  12.1136  12.2378  12.2409  12.3458  12.3868  12.4804
    12.4881  12.4984  12.5392  12.5400  12.5522  12.5927  12.6229  12.7393
    12.7741  12.8777  12.8847  12.8860  12.9356  13.1997  13.2624  13.7158
    13.8042  14.3536  14.4901  14.5706  14.6854  14.7453  15.3171  15.3580
    15.5089  15.6151  16.0223  16.0389  16.5354  16.5435  16.9233  16.9282
    16.9919  17.1356  17.1511  17.1748  17.6101  17.6720  17.9676  18.1243
    19.4541  19.4808

          k = 0.1250 0.3750-0.0484 ( 13882 PWs)   bands (ev):

   -66.8714 -66.7526 -66.7526 -66.6049 -66.6049 -66.5777 -62.2306 -62.2306
   -35.6381 -35.5974 -35.5887 -35.5149 -35.5149 -35.4831 -35.4831 -35.4743
   -35.4743 -35.3800 -35.3800 -35.3503 -35.3316 -35.3316 -35.3228 -35.3228
   -35.3058 -35.2971 -31.0627 -31.0627 -31.0521 -31.0521 -31.0513 -31.0513
     7.7608   7.7657   7.9494   7.9903   8.2324   8.2379   8.3473   8.3516
     8.3834   8.3841   8.4228   8.4489   8.5394   8.5788   8.7499   8.7525
     8.9187   8.9454   9.0158   9.1342   9.1633   9.2140   9.2516   9.2760
     9.2876   9.2966   9.2982   9.3123   9.3284   9.3478   9.4187   9.4354
     9.4421   9.5012   9.5695   9.5725   9.6956   9.6982   9.7475   9.7572
     9.7999   9.8069   9.8979   9.9701   9.9843  10.1281  10.2591  10.3079
    10.3564  10.3840  10.4015  10.4142  10.4578  10.4986  10.5488  10.5747
    10.6484  10.7123  10.7573  10.7905  10.8451  10.8770  10.9973  11.0024
    11.1108  11.1217  11.1383  11.1683  11.2491  11.2731  11.3539  11.4118
    11.4806  11.4861  11.5263  11.5518  11.5578  11.5873  11.6110  11.6122
    11.6555  11.6740  11.7212  11.7600  11.7641  11.7886  11.8062  11.8157
    11.8529  11.8657  11.9054  11.9058  11.9285  11.9554  11.9936  12.0139
    12.0165  12.0992  12.1163  12.2057  12.3215  12.3453  12.3665  12.4314
    12.4566  12.5152  12.5247  12.5329  12.6036  12.6209  12.6506  12.7233
    12.7403  12.8116  12.8854  12.9349  13.0376  13.0435  13.4617  13.4665
    14.0375  14.2352  14.4274  14.4698  14.8617  14.9578  15.1187  15.1382
    15.6687  15.6934  16.0315  16.0464  16.4964  16.5041  16.9327  16.9353
    16.9970  17.1359  17.1525  17.1729  17.5984  17.6855  17.9590  18.1368
    19.5171  19.5869

          k = 0.1250-0.5000 0.0000 ( 13890 PWs)   bands (ev):

   -66.8718 -66.7530 -66.7530 -66.6053 -66.6053 -66.5781 -62.2301 -62.2301
   -35.6379 -35.5990 -35.5886 -35.5147 -35.5147 -35.4847 -35.4847 -35.4742
   -35.4742 -35.3798 -35.3798 -35.3501 -35.3332 -35.3332 -35.3227 -35.3227
   -35.3075 -35.2970 -31.0649 -31.0649 -31.0519 -31.0519 -31.0512 -31.0512
     8.2725   8.2905   8.3081   8.3170   8.3189   8.3515   8.3820   8.4044
     8.4841   8.4929   8.5522   8.5638   8.5768   8.5921   8.6133   8.6595
     8.7668   8.7792   8.9729   8.9847   9.0943   9.1399   9.1507   9.1990
     9.2015   9.2106   9.2493   9.2677   9.2822   9.3324   9.3761   9.3878
     9.4998   9.5488   9.6513   9.6618   9.7309   9.7715   9.7831   9.8132
     9.8195   9.8612   9.8769   9.9041   9.9095   9.9612  10.2452  10.3498
    10.3938  10.4014  10.4603  10.4840  10.4877  10.5019  10.6614  10.7237
    10.7445  10.7807  10.8018  10.8368  10.9494  10.9925  11.0029  11.1155
    11.1909  11.2933  11.3276  11.3430  11.4540  11.4609  11.5113  11.5223
    11.5544  11.5693  11.5942  11.6004  11.6030  11.6874  11.7077  11.7208
    11.7745  11.7852  11.8125  11.8386  11.9019  11.9189  11.9482  11.9560
    11.9978  12.0123  12.0475  12.0894  12.0960  12.1171  12.1307  12.1456
    12.1523  12.1684  12.2656  12.2718  12.2833  12.3111  12.3460  12.4480
    12.5049  12.5368  12.5544  12.6227  12.6490  12.6574  12.6917  12.6924
    12.8640  12.8829  12.9163  12.9325  13.2659  13.2752  13.3181  13.5160
    13.7183  13.8415  13.9307  13.9695  14.3641  14.3988  14.4531  14.6845
    14.9745  15.1434  15.1824  15.2530  15.6169  15.6642  16.6946  16.9087
    16.9115  16.9401  17.0080  17.0863  17.5922  17.6696  17.9173  17.9793
    19.4150  19.4388

          k = 0.1250-0.5000-0.0484 ( 13872 PWs)   bands (ev):

   -66.8718 -66.7530 -66.7530 -66.6053 -66.6053 -66.5781 -62.2301 -62.2301
   -35.6379 -35.5990 -35.5886 -35.5147 -35.5147 -35.4847 -35.4847 -35.4742
   -35.4742 -35.3798 -35.3798 -35.3501 -35.3332 -35.3332 -35.3227 -35.3227
   -35.3075 -35.2970 -31.0649 -31.0649 -31.0519 -31.0519 -31.0512 -31.0512
     8.2767   8.2929   8.3010   8.3050   8.3329   8.3502   8.3783   8.4100
     8.4748   8.4993   8.5545   8.5616   8.5799   8.5915   8.6088   8.6644
     8.7595   8.7895   8.9468   8.9899   9.1348   9.1363   9.1436   9.1900
     9.2027   9.2187   9.2570   9.2757   9.2757   9.3160   9.3549   9.3737
     9.5219   9.5448   9.6622   9.6962   9.7092   9.7604   9.7823   9.8280
     9.8419   9.8420   9.8615   9.9101   9.9109   9.9575  10.2353  10.3191
    10.3722  10.3781  10.4399  10.4843  10.5048  10.6284  10.6636  10.7424
    10.7673  10.7795  10.7809  10.8360  10.9503  10.9671  10.9675  11.0111
    11.2760  11.2941  11.3218  11.3497  11.4722  11.4771  11.5033  11.5176
    11.5455  11.5844  11.5926  11.5930  11.6488  11.6548  11.7009  11.7532
    11.7551  11.7919  11.8127  11.8218  11.8921  11.8992  11.9617  11.9687
[...]
    11.6070  11.6507  11.6515  11.8702  11.8818  11.8923  11.9577  12.0281
    12.0706  12.0897  12.1164  12.1440  12.1892  12.2490  12.2518  12.2854
    12.3537  12.4428  12.5122  12.5679  12.6064  12.7172  12.7272  12.9088
    12.9794  13.2737  13.3894  13.7988  13.8254  14.2770  14.4273  14.8676
    15.1432  15.2036  15.3258  15.3582  15.5653  15.5914  15.8441  15.9488
    16.1820  16.3315  16.8736  16.8958  16.9335  16.9467  17.0657  17.0942
    17.1077  17.1979  17.2113  17.2237  17.2431  17.3290  17.3387  17.4054
    17.4785  17.4886  17.5468  17.5782  17.9903  17.9951  18.0602  18.1987
    18.2578  18.2698  18.3061  18.4215  18.5320  18.7538  19.0184  19.2229
    19.5770  19.6474

          k = 0.2500 0.3750-0.0484 ( 13916 PWs)   bands (ev):

   -66.8396 -66.8396 -62.2457 -62.1569 -62.1569 -62.0466 -62.0466 -62.0233
   -35.6055 -35.6055 -35.5674 -35.5674 -35.5631 -35.5631 -31.0779 -31.0722
   -31.0639 -30.9900 -30.9900 -30.9842 -30.9842 -30.9780 -30.9780 -30.8781
   -30.8781 -30.8766 -30.8766 -30.8708 -30.8708 -30.8553 -30.8510 -30.8496
     7.9805   8.1227   8.3617   8.4477   8.6314   8.6650   8.7895   8.8089
     8.8658   8.8664   8.8869   8.9349   9.0878   9.1177   9.2232   9.2643
     9.2676   9.2978   9.3224   9.3805   9.3884   9.4148   9.4203   9.5381
     9.5853   9.6255   9.6438   9.6664   9.7034   9.7401   9.7565   9.7821
     9.7974   9.8220   9.8384   9.8850   9.9128   9.9623  10.0250  10.1186
    10.1532  10.1567  10.2164  10.2316  10.4061  10.4651  10.5084  10.5282
    10.5463  10.6109  10.6136  10.6296  10.6345  10.7231  10.7389  10.8031
    10.8220  10.8842  10.8922  10.9003  10.9924  11.0735  11.1377  11.1510
    11.1905  11.2066  11.2887  11.3506  11.3908  11.4623  11.4899  11.5503
    11.5763  11.6152  11.7709  11.7858  11.8827  11.8923  11.9978  12.0199
    12.0676  12.0882  12.1157  12.1581  12.1911  12.2042  12.2778  12.2822
    12.3622  12.4400  12.5118  12.5623  12.6379  12.6551  12.7900  12.8456
    13.0482  13.1947  13.4904  13.6335  14.0674  14.0747  14.5352  14.8092
    15.1642  15.2160  15.2905  15.4111  15.5442  15.5734  15.8533  15.9526
    16.1780  16.3326  16.8748  16.8928  16.9389  16.9422  17.0618  17.0907
    17.1167  17.1925  17.2186  17.2319  17.2394  17.3066  17.3407  17.4433
    17.4508  17.4948  17.5467  17.5753  17.9809  18.0412  18.0764  18.0769
    18.2162  18.2656  18.4094  18.4959  18.6309  18.6412  18.9058  19.2287
    19.5746  19.6485

          k = 0.2500-0.5000 0.0000 ( 13940 PWs)   bands (ev):

   -66.8398 -66.8398 -62.2454 -62.1565 -62.1565 -62.0462 -62.0462 -62.0229
   -35.6054 -35.6054 -35.5690 -35.5690 -35.5629 -35.5629 -31.0801 -31.0720
   -31.0638 -30.9922 -30.9922 -30.9841 -30.9841 -30.9778 -30.9778 -30.8788
   -30.8788 -30.8780 -30.8780 -30.8706 -30.8706 -30.8576 -30.8509 -30.8494
     8.3852   8.4293   8.4804   8.5672   8.7161   8.7684   8.7965   8.8068
     8.8153   8.8340   8.8484   8.9011   9.0015   9.1074   9.1302   9.1600
     9.1739   9.1767   9.2210   9.3329   9.3381   9.3421   9.4124   9.5462
     9.5512   9.6228   9.6287   9.6658   9.6817   9.6857   9.7237   9.7608
     9.7938   9.8529   9.8571   9.9130   9.9745  10.0049  10.0646  10.0863
    10.2860  10.3600  10.3905  10.4100  10.4140  10.5063  10.7240  10.7262
    10.7899  10.7961  10.8285  10.8493  10.8830  10.8857  10.9067  10.9543
    10.9633  10.9869  10.9963  11.0114  11.0612  11.2083  11.2175  11.2275
    11.2382  11.2440  11.2730  11.3143  11.4494  11.5367  11.6452  11.6457
    11.8144  11.8532  11.8634  11.9087  11.9138  11.9179  11.9597  11.9904
    12.0418  12.0825  12.2038  12.2936  12.3028  12.3309  12.3683  12.3978
    12.4845  12.5010  12.7537  12.8153  12.9366  12.9409  12.9744  13.1006
    13.1374  13.3566  13.6120  13.7025  13.8457  13.8773  13.9392  14.3397
    14.3562  14.4425  14.6383  14.7116  14.9275  15.0075  15.1674  15.6166
    16.0098  16.1990  16.8861  16.9561  16.9883  17.0070  17.0469  17.0524
    17.0683  17.0897  17.1079  17.1632  17.1711  17.2724  17.4706  17.4883
    17.5032  17.5280  17.7244  17.7388  17.9062  17.9541  18.1148  18.1483
    18.2003  18.2219  18.3220  18.3226  18.3681  18.3902  18.6418  18.6885
    19.7057  19.8180

          k = 0.2500-0.5000-0.0484 ( 13912 PWs)   bands (ev):

   -66.8398 -66.8398 -62.2454 -62.1565 -62.1565 -62.0462 -62.0462 -62.0229
   -35.6054 -35.6054 -35.5690 -35.5690 -35.5629 -35.5629 -31.0801 -31.0720
   -31.0638 -30.9922 -30.9922 -30.9841 -30.9841 -30.9778 -30.9778 -30.8788
   -30.8788 -30.8780 -30.8780 -30.8706 -30.8706 -30.8576 -30.8509 -30.8494
     8.3855   8.4295   8.4801   8.5633   8.7322   8.7697   8.7966   8.8035
     8.8148   8.8197   8.8477   8.9001   9.0041   9.1200   9.1232   9.1649
     9.1657   9.1741   9.2281   9.3122   9.3432   9.3637   9.4134   9.5289
     9.5352   9.6308   9.6509   9.6576   9.6804   9.6990   9.7201   9.7520
     9.8027   9.8193   9.8872   9.9277   9.9428  10.0171  10.0727  10.0795
    10.2869  10.3604  10.3896  10.4100  10.4134  10.5013  10.7294  10.7345
    10.7828  10.7880  10.8290  10.8613  10.8794  10.9033  10.9122  10.9195
    10.9571  10.9843  10.9957  11.0261  11.0666  11.2080  11.2138  11.2306
    11.2306  11.2493  11.2750  11.3128  11.4503  11.5358  11.6452  11.6457
    11.8145  11.8532  11.8631  11.9095  11.9140  11.9179  11.9602  11.9900
    12.0415  12.0827  12.2158  12.2580  12.2831  12.3753  12.3902  12.4235
    12.4523  12.4714  12.7977  12.8402  12.8443  12.9319  13.0245  13.1092
    13.1301  13.3401  13.6761  13.7009  13.7255  13.9107  14.0194  14.1949
    14.4313  14.5074  14.5871  14.8012  14.8271  14.9847  15.2224  15.6040
    16.0122  16.1974  16.8917  16.9562  16.9882  16.9966  17.0473  17.0610
    17.0675  17.0903  17.1035  17.1644  17.1709  17.2715  17.4711  17.5026
    17.5028  17.5138  17.7253  17.7389  17.9060  17.9534  18.1143  18.1534
    18.1948  18.2222  18.2853  18.3058  18.4058  18.4895  18.6083  18.6093
    19.8326  19.9882

          k = 0.3750 0.3750 0.0000 ( 13948 PWs)   bands (ev):

   -66.8394 -66.8394 -62.2455 -62.1567 -62.1567 -62.0464 -62.0464 -62.0231
   -35.6053 -35.6053 -35.5670 -35.5670 -35.5670 -35.5670 -31.0775 -31.0773
   -31.0636 -30.9896 -30.9896 -30.9894 -30.9894 -30.9777 -30.9777 -30.8778
   -30.8778 -30.8762 -30.8761 -30.8759 -30.8759 -30.8549 -30.8547 -30.8507
     8.0998   8.2357   8.4416   8.4954   8.5408   8.7252   8.7297   8.8506
     9.0112   9.0241   9.0576   9.1329   9.2084   9.2214   9.2850   9.2961
     9.3065   9.3471   9.3670   9.4007   9.4279   9.4784   9.5176   9.5177
     9.5364   9.5638   9.5831   9.6365   9.7063   9.7178   9.7236   9.8960
     9.9446   9.9571  10.0077  10.0250  10.0304  10.1228  10.1284  10.1621
    10.1773  10.2905  10.2940  10.3781  10.4402  10.5033  10.5654  10.6160
    10.6590  10.6755  10.7508  10.7734  10.8007  10.8161  10.8436  10.9817
    11.0083  11.0112  11.1177  11.1715  11.1918  11.2205  11.2589  11.3848
    11.4289  11.4828  11.4842  11.5418  11.5718  11.5947  11.5967  11.6194
    11.7569  11.8811  11.8883  11.9319  11.9613  11.9615  11.9874  12.0344
    12.0485  12.0586  12.0949  12.1480  12.1529  12.2161  12.2462  12.2645
    12.3175  12.4451  12.5194  12.6574  12.6708  12.9246  12.9715  13.1708
    13.3372  13.6230  13.8108  14.1140  14.3635  14.6844  14.6970  14.8852
    15.0816  15.1704  15.2066  15.3105  15.4099  15.5061  16.2304  16.3417
    16.4172  16.5135  16.9443  17.0235  17.0565  17.0873  17.1101  17.1316
    17.1459  17.1666  17.2388  17.3574  17.4442  17.5943  17.6410  17.6904
    17.7951  17.8289  17.8347  17.8365  17.9728  18.1072  18.1559  18.2038
    18.3709  18.3713  18.3765  18.4691  18.4864  18.8647  19.0178  19.0393
    19.0665  19.0903

          k = 0.3750 0.3750-0.0484 ( 13950 PWs)   bands (ev):

   -66.8394 -66.8394 -62.2455 -62.1567 -62.1567 -62.0464 -62.0464 -62.0231
   -35.6053 -35.6053 -35.5670 -35.5670 -35.5670 -35.5670 -31.0775 -31.0773
   -31.0636 -30.9896 -30.9896 -30.9894 -30.9894 -30.9777 -30.9777 -30.8778
   -30.8778 -30.8762 -30.8762 -30.8759 -30.8759 -30.8549 -30.8547 -30.8507
     8.1003   8.2333   8.4425   8.4978   8.5868   8.6037   8.8274   8.8514
     8.9959   9.0141   9.0586   9.1493   9.1714   9.1957   9.2963   9.3138
     9.3364   9.3457   9.3687   9.4419   9.4506   9.4536   9.4571   9.4892
     9.5360   9.6065   9.6092   9.6175   9.6507   9.7037   9.8482   9.8546
     9.9267   9.9583   9.9684   9.9835  10.0669  10.1374  10.1597  10.1795
    10.2032  10.2421  10.3147  10.3268  10.4301  10.5514  10.5875  10.5955
    10.6488  10.6937  10.6988  10.7853  10.8114  10.8389  10.8699  10.9089
    10.9823  11.0666  11.1167  11.1691  11.2128  11.2132  11.2607  11.3701
    11.4321  11.4673  11.5000  11.5359  11.5804  11.5842  11.6013  11.6192
    11.7863  11.8152  11.9321  11.9606  11.9618  11.9705  11.9729  11.9861
    12.0446  12.0748  12.1095  12.1322  12.1721  12.2202  12.2396  12.2454
    12.3319  12.4429  12.5385  12.5826  12.7971  12.8029  13.0572  13.1226
    13.3605  13.5984  13.8400  14.0814  14.4153  14.5777  14.8019  14.8533
    15.0875  15.1479  15.2313  15.3006  15.4117  15.5059  16.2306  16.3434
    16.4168  16.5104  16.9591  17.0100  17.0619  17.0800  17.1104  17.1341
    17.1456  17.1572  17.2516  17.3811  17.4171  17.5594  17.6575  17.7124
    17.7926  17.8282  17.8372  17.8489  17.9529  18.0951  18.1635  18.2108
    18.2824  18.3143  18.5636  18.6218  18.6245  18.6640  18.6937  18.8030
    19.0932  19.2419

          k = 0.3750-0.5000 0.0000 ( 13934 PWs)   bands (ev):

   -66.8394 -66.8394 -62.2453 -62.1565 -62.1565 -62.0462 -62.0462 -62.0229
   -35.6052 -35.6052 -35.5686 -35.5686 -35.5669 -35.5669 -31.0796 -31.0772
   -31.0635 -30.9917 -30.9917 -30.9893 -30.9893 -30.9775 -30.9775 -30.8783
   -30.8783 -30.8777 -30.8777 -30.8758 -30.8758 -30.8570 -30.8546 -30.8506
     8.2256   8.2358   8.3112   8.3989   8.6374   8.6511   8.7754   8.7898
     8.9135   9.0536   9.1093   9.1586   9.1916   9.1979   9.2085   9.2315
     9.2721   9.3071   9.3130   9.3657   9.4190   9.4289   9.4305   9.4856
     9.5135   9.5292   9.6205   9.6557   9.7065   9.7076   9.8859   9.9045
     9.9497   9.9686   9.9854   9.9906  10.0761  10.1002  10.1842  10.2153
    10.3587  10.3842  10.3886  10.3938  10.5269  10.5757  10.6683  10.6752
    10.6856  10.7637  10.8241  10.8632  10.8798  11.0642  11.1064  11.1519
    11.1554  11.1567  11.2460  11.2502  11.3463  11.4186  11.4359  11.4378
    11.5180  11.6391  11.6473  11.6863  11.7547  11.7677  11.7695  11.8162
    11.8974  11.9507  11.9629  11.9814  12.0286  12.0311  12.0441  12.0931
    12.1052  12.1145  12.1655  12.2167  12.2664  12.2714  12.3159  12.3599
    12.3683  12.4268  12.9240  13.0147  13.1035  13.1123  13.1378  13.2835
    13.5728  13.8236  14.1355  14.2537  14.2811  14.2912  14.4423  14.4762
    14.6181  14.6727  14.8394  14.8416  15.3318  15.4080  15.5674  15.8802
    16.7275  16.8493  17.0253  17.0313  17.0404  17.0438  17.0785  17.0976
    17.1084  17.1363  17.3288  17.3313  17.3376  17.6929  17.7188  17.8681
    17.9035  17.9528  17.9946  18.0428  18.0823  18.1280  18.1497  18.2608
    18.3029  18.4341  18.4551  18.5561  18.7526  18.7749  18.8114  18.9731
    19.0103  19.1751

          k = 0.3750-0.5000-0.0484 ( 13940 PWs)   bands (ev):

   -66.8394 -66.8394 -62.2453 -62.1565 -62.1565 -62.0462 -62.0462 -62.0229
   -35.6052 -35.6052 -35.5686 -35.5686 -35.5669 -35.5669 -31.0796 -31.0772
   -31.0635 -30.9917 -30.9917 -30.9893 -30.9893 -30.9775 -30.9775 -30.8783
   -30.8783 -30.8777 -30.8777 -30.8758 -30.8758 -30.8570 -30.8546 -30.8506
     8.2260   8.2360   8.3107   8.3958   8.6563   8.6929   8.6993   8.7651
     8.9999   9.0840   9.0968   9.1095   9.1594   9.1635   9.2006   9.2557
     9.2806   9.3000   9.3694   9.3768   9.3929   9.3970   9.4774   9.4922
     9.5010   9.5567   9.5719   9.6125   9.7482   9.7800   9.8235   9.8552
     9.9469   9.9518   9.9982  10.0317  10.1148  10.1618  10.1623  10.2306
    10.2459  10.2616  10.5045  10.5196  10.5238  10.5323  10.6425  10.6852
    10.6925  10.7551  10.7693  10.8074  10.9920  11.0683  11.0984  11.1148
    11.1558  11.2122  11.2222  11.2627  11.2894  11.4000  11.4700  11.4806
    11.4975  11.6115  11.6633  11.7035  11.7247  11.7677  11.7951  11.8059
    11.9014  11.9460  11.9640  11.9849  12.0215  12.0243  12.0540  12.0941
    12.1042  12.1147  12.1667  12.2071  12.2545  12.2963  12.3365  12.3509
    12.3744  12.4010  12.9532  13.0234  13.0248  13.1289  13.1774  13.2702
    13.5763  13.8206  14.1471  14.2132  14.2863  14.3391  14.4183  14.4658
    14.6263  14.6818  14.8372  14.8373  15.3321  15.4079  15.5679  15.8800
    16.7283  16.8467  17.0203  17.0319  17.0441  17.0485  17.0785  17.0917
    17.1410  17.1515  17.2044  17.3075  17.4987  17.5955  17.7749  17.8399
    17.9090  17.9798  17.9891  18.0213  18.1042  18.1232  18.1949  18.2194
    18.2456  18.4131  18.4637  18.5915  18.7642  18.8153  18.9469  18.9569
    18.9816  19.0072

          k =-0.5000-0.5000 0.0000 ( 13964 PWs)   bands (ev):

   -66.8394 -66.8394 -62.2452 -62.1563 -62.1563 -62.0460 -62.0460 -62.0227
   -35.6051 -35.6051 -35.5685 -35.5685 -35.5685 -35.5685 -31.0794 -31.0794
   -31.0634 -30.9914 -30.9914 -30.9914 -30.9914 -30.9774 -30.9774 -30.8780
   -30.8780 -30.8780 -30.8780 -30.8776 -30.8776 -30.8568 -30.8568 -30.8505
     8.1506   8.1556   8.2324   8.3218   8.5946   8.6014   8.7383   8.7766
     8.8452   8.9842   9.1986   9.1992   9.2219   9.2315   9.2315   9.2366
     9.2928   9.2928   9.3457   9.3457   9.4288   9.4523   9.4588   9.4588
     9.4655   9.4655   9.7082   9.7082   9.7089   9.7089   9.8614   9.9190
     9.9190   9.9197   9.9197   9.9963  10.0509  10.0509  10.0835  10.0835
    10.4944  10.5234  10.5234  10.5370  10.5370  10.6080  10.6150  10.6413
    10.7208  10.7213  10.9850  10.9850  11.1440  11.1562  11.1725  11.1725
    11.2071  11.2849  11.3768  11.3769  11.5754  11.5754  11.7567  11.7567
    11.9195  11.9196  11.9470  11.9749  11.9749  12.0097  12.0097  12.0325
    12.0326  12.0373  12.0394  12.0773  12.0773  12.0971  12.0971  12.1254
    12.1254  12.1294  12.1392  12.1555  12.2011  12.2585  12.2679  12.2690
    12.2754  12.3487  13.3641  13.4009  13.4014  13.4310  13.4469  13.4503
    13.8831  13.8831  14.1304  14.1304  14.1936  14.1936  14.4718  14.4718
    14.6783  14.6783  14.8577  14.8577  15.8476  15.8476  15.9658  15.9658
    16.5721  16.6334  16.7483  16.8271  16.9240  16.9370  16.9640  17.1606
    17.1606  17.2071  17.4542  17.4542  17.6292  17.6292  17.7418  17.7711
    17.8495  17.9965  18.0064  18.0847  18.0848  18.2140  18.2140  18.2157
    18.2218  18.2373  18.3456  18.3456  18.3909  18.4088  18.4088  18.6670
    18.7194  18.7857

          k =-0.5000-0.5000-0.0484 ( 13992 PWs)   bands (ev):

   -66.8394 -66.8394 -62.2452 -62.1563 -62.1563 -62.0460 -62.0460 -62.0227
   -35.6051 -35.6051 -35.5685 -35.5685 -35.5685 -35.5685 -31.0794 -31.0794
   -31.0634 -30.9914 -30.9914 -30.9914 -30.9914 -30.9774 -30.9774 -30.8780
   -30.8780 -30.8780 -30.8780 -30.8776 -30.8776 -30.8568 -30.8568 -30.8505
     8.1508   8.1559   8.2319   8.3194   8.6083   8.6370   8.6790   8.7218
     8.9652   9.0483   9.0680   9.0695   9.2320   9.2320   9.2875   9.2875
     9.3147   9.3712   9.3809   9.3809   9.3841   9.3841   9.3931   9.4006
     9.5711   9.5711   9.5713   9.5713   9.8670   9.8724   9.8724   9.8750
     9.8750   9.9192   9.9192   9.9197   9.9197   9.9936  10.2615  10.2615
    10.3159  10.3159  10.5026  10.5740  10.6414  10.6460  10.7158  10.7213
    10.7388  10.7388  10.8409  10.8409  11.1440  11.1562  11.2073  11.2790
    11.2790  11.2847  11.3768  11.3769  11.4922  11.4922  11.8019  11.8019
    11.9195  11.9196  11.9470  11.9749  11.9749  12.0097  12.0097  12.0325
    12.0326  12.0373  12.0394  12.0773  12.0773  12.0876  12.0876  12.1254
    12.1254  12.1294  12.1393  12.1554  12.2024  12.2565  12.2586  12.2753
    12.2798  12.3480  13.3642  13.3988  13.4035  13.4310  13.4469  13.4502
    13.9014  13.9014  14.0589  14.0589  14.2717  14.2717  14.4396  14.4396
    14.6873  14.6873  14.8563  14.8563  15.8476  15.8476  15.9658  15.9658
    16.5728  16.6298  16.7702  16.8272  16.8451  16.9639  17.0332  17.1572
    17.1869  17.1869  17.3489  17.3489  17.7737  17.8000  17.8839  17.8893
    17.8893  17.9424  17.9424  17.9618  18.0064  18.0181  18.0848  18.0848
    18.2140  18.2140  18.2373  18.3862  18.4673  18.5601  18.7214  18.7845
    18.8979  18.8979

     the Fermi energy is    15.2701 ev

!    total energy              =  -14694.00274139 Ry
     Harris-Foulkes estimate   =  -14694.00273552 Ry
     estimated scf accuracy    <       0.00000081 Ry

     total all-electron energy =   -626921.598463 Ry

     The total energy is the sum of the following terms:

     one-electron contribution =    -714.49129626 Ry
     hartree contribution      =     656.54393977 Ry
     xc contribution           =    -737.87582532 Ry
     ewald contribution        =   -2196.78933708 Ry
     Hubbard energy            =       0.45109250 Ry
     one-center paw contrib.   =  -11701.84131500 Ry

     total magnetization       =    17.23 Bohr mag/cell
     absolute magnetization    =    37.19 Bohr mag/cell

     convergence has been achieved in  24 iterations

     Writing output data file mnau2.save/
 
     init_run     :     64.26s CPU     66.26s WALL (       1 calls)
     electrons    :   3032.33s CPU   3131.05s WALL (       1 calls)

     Called by init_run:
     wfcinit      :     58.84s CPU     60.60s WALL (       1 calls)
     potinit      :      2.83s CPU      2.96s WALL (       1 calls)
     hinit0       :      1.68s CPU      1.72s WALL (       1 calls)

     Called by electrons:
     c_bands      :   2726.91s CPU   2814.30s WALL (      24 calls)
     sum_band     :    252.61s CPU    261.40s WALL (      24 calls)
     v_of_rho     :      4.17s CPU      4.25s WALL (      25 calls)
     newd         :     12.47s CPU     13.77s WALL (      25 calls)
     PAW_pot      :     36.82s CPU     37.42s WALL (      25 calls)
     mix_rho      :      1.11s CPU      1.15s WALL (      24 calls)

     Called by c_bands:
     init_us_2    :      4.92s CPU      4.97s WALL (    3000 calls)
     cegterg      :   2635.12s CPU   2720.41s WALL (    1440 calls)

     Called by sum_band:
     sum_band:bec :      1.26s CPU      1.27s WALL (    1440 calls)
     addusdens    :     10.16s CPU     11.26s WALL (      24 calls)

     Called by *egterg:
     h_psi        :    986.22s CPU   1015.20s WALL (    4939 calls)
     s_psi        :     90.26s CPU     90.67s WALL (    4999 calls)
     g_psi        :      2.81s CPU      2.83s WALL (    3439 calls)
     cdiaghg      :    717.91s CPU    750.94s WALL (    4879 calls)

     Called by h_psi:
     h_psi:pot    :    862.52s CPU    886.66s WALL (    4939 calls)
     h_psi:calbec :    175.19s CPU    182.88s WALL (    4939 calls)
     vloc_psi     :    598.95s CPU    615.29s WALL (    4939 calls)
     add_vuspsi   :     88.31s CPU     88.45s WALL (    4939 calls)
     vhpsi        :    122.21s CPU    125.14s WALL (    4939 calls)

     General routines
     calbec       :    376.23s CPU    390.74s WALL (   12818 calls)
     fft          :      6.12s CPU      6.29s WALL (     621 calls)
     ffts         :      0.10s CPU      0.10s WALL (      98 calls)
     fftw         :    705.11s CPU    724.20s WALL ( 1389306 calls)
     interpolate  :      0.26s CPU      0.26s WALL (      50 calls)
     davcio       :      0.01s CPU      0.67s WALL (      60 calls)
 
     Parallel routines
     fft_scatt_xy :     31.82s CPU     32.57s WALL ( 1390025 calls)
     fft_scatt_yz :    532.78s CPU    547.74s WALL ( 1390025 calls)

     Hubbard U routines
     new_ns       :     11.01s CPU     11.51s WALL (      24 calls)
     vhpsi        :    122.21s CPU    125.14s WALL (    4939 calls)
 
     PWSCF        : 52m 6.14s CPU    55m59.81s WALL

 
   This run was terminated on:  23:56: 9   6Apr2019            

=------------------------------------------------------------------------------=
   JOB DONE.
=------------------------------------------------------------------------------=
