
     Program PWSCF v.6.3MaX starts on  6Apr2019 at 23:56:10 

     This program is part of the open-source Quantum ESPRESSO suite
     for quantum simulation of materials; please cite
         "P. Giannozzi et al., J. Phys.:Condens. Matter 21 395502 (2009);
         "P. Giannozzi et al., J. Phys.:Condens. Matter 29 465901 (2017);
          URL http://www.quantum-espresso.org", 
     in publications or presentations arising from this work. More details at
     http://www.quantum-espresso.org/quote

     Parallel version (MPI), running on    16 processors

     MPI processes distributed on     7 nodes
     R & G space division:  proc/nbgrp/npool/nimage =      16
     Waiting for input...
     Reading input from standard input

     Current dimensions of program PWSCF are:
     Max number of different atomic species (ntypx) = 10
     Max number of k-points (npk) =  40000
     Max angular momentum in pseudopotentials (lmaxx) =  3
               file Mn.pbe-spn-kjpaw_psl.0.3.1.UPF: wavefunction(s)  3P 3D renormalized
               file Mn.pbe-spn-kjpaw_psl.0.3.1.UPF: wavefunction(s)  3P 3D renormalized
               file Au.pbe-dn-kjpaw_psl.0.1.UPF: wavefunction(s)  6S 6P 5D renormalized

     Subspace diagonalization in iterative solution of the eigenvalue problem:
     one sub-group per band group will be used
     scalapack distributed-memory algorithm (size of sub-group:  2*  2 procs)

 
     Parallelization info
     --------------------
     sticks:   dense  smooth     PW     G-vecs:    dense   smooth      PW
     Min          82      37     11                23002     6955    1163
     Max          83      38     12                23036     6988    1204
     Sum        1313     593    177               368373   111379   18691
 


     bravais-lattice index     =            0
     lattice parameter (alat)  =       6.4153  a.u.
     unit-cell volume          =    2724.7774 (a.u.)^3
     number of atoms/cell      =           24
     number of atomic types    =            3
     number of electrons       =       296.00
     number of Kohn-Sham states=          178
     kinetic-energy cutoff     =      45.0000  Ry
     charge density cutoff     =     400.0000  Ry
     convergence threshold     =      1.0E-06
     mixing beta               =       0.1000
     number of iterations used =            8  plain     mixing
     Exchange-correlation      = SLA PW PBX PBC ( 1  4  3  4 0 0)

     celldm(1)=   6.415315  celldm(2)=   0.000000  celldm(3)=   0.000000
     celldm(4)=   0.000000  celldm(5)=   0.000000  celldm(6)=   0.000000

     crystal axes: (cart. coord. in units of alat)
               a(1) = (   1.000000   0.000000   0.000000 )  
               a(2) = (   0.000000   1.000000   0.000000 )  
               a(3) = (   0.000000   0.000000  10.319937 )  

     reciprocal axes: (cart. coord. in units 2 pi/alat)
               b(1) = (  1.000000  0.000000  0.000000 )  
               b(2) = (  0.000000  1.000000  0.000000 )  
               b(3) = (  0.000000  0.000000  0.096900 )  


     PseudoPot. # 1 for Mn read from file:
     ./pseudo/Mn.pbe-spn-kjpaw_psl.0.3.1.UPF
     MD5 check sum: 7b43a3fb0e93e198b8dd8488d8cf503e
     Pseudo is Projector augmented-wave + core cor, Zval = 15.0
     Generated using "atomic" code by A. Dal Corso v.5.0.99 svn rev. 10869
     Shape of augmentation charge: PSQ
     Using radial grid of 1187 points,  6 beta functions with: 
                l(1) =   0
                l(2) =   0
                l(3) =   1
                l(4) =   1
                l(5) =   2
                l(6) =   2
     Q(r) pseudized with 0 coefficients 


     PseudoPot. # 2 for Mn read from file:
     ./pseudo/Mn.pbe-spn-kjpaw_psl.0.3.1.UPF
     MD5 check sum: 7b43a3fb0e93e198b8dd8488d8cf503e
     Pseudo is Projector augmented-wave + core cor, Zval = 15.0
     Generated using "atomic" code by A. Dal Corso v.5.0.99 svn rev. 10869
     Shape of augmentation charge: PSQ
     Using radial grid of 1187 points,  6 beta functions with: 
                l(1) =   0
                l(2) =   0
                l(3) =   1
                l(4) =   1
                l(5) =   2
                l(6) =   2
     Q(r) pseudized with 0 coefficients 


     PseudoPot. # 3 for Au read from file:
     ./pseudo/Au.pbe-dn-kjpaw_psl.0.1.UPF
     MD5 check sum: be11e2e8e535ebe2b3ccfb4f88f554cb
     Pseudo is Projector augmented-wave + core cor, Zval = 11.0
     Generated using "atomic" code by A. Dal Corso v.5.0.2 svn rev. 9415
     Shape of augmentation charge: PSQ
     Using radial grid of 1279 points,  6 beta functions with: 
                l(1) =   0
                l(2) =   0
                l(3) =   1
                l(4) =   1
                l(5) =   2
                l(6) =   2
     Q(r) pseudized with 0 coefficients 


     atomic species   valence    mass     pseudopotential
        Mn1           15.00    54.93800     Mn( 1.00)
        Mn2           15.00    54.93800     Mn( 1.00)
        Au            11.00   196.96600     Au( 1.00)

     Starting magnetic structure 
     atomic species   magnetization
        Mn1          0.800
        Mn2         -0.800
        Au           0.000


     Full LDA+U calculation (l_max = 2) with parameters (eV):
     U(  1) =   3.1200   J(  1) =   0.7000   B(  1) =   0.0803
     U(  2) =   3.1200   J(  2) =   0.7000   B(  2) =   0.0803



     16 Sym. Ops., with inversion, found ( 8 have fractional translation)



   Cartesian axes

     site n.     atom                  positions (alat units)
         1           Mn1 tau(   1) = (   0.0000000   0.0000000   0.0000000  )
         2           Mn1 tau(   2) = (   0.5000000   0.5000000   1.2899921  )
         3           Mn1 tau(   3) = (   0.0000000   0.0000000   2.5799843  )
         4           Mn1 tau(   4) = (   0.5000000   0.5000000   3.8699764  )
         5           Mn1 tau(   5) = (   0.0000000   0.0000000   5.1599686  )
         6           Mn2 tau(   6) = (   0.5000000   0.5000000   6.4499607  )
         7           Mn2 tau(   7) = (   0.0000000   0.0000000   7.7399528  )
         8           Mn2 tau(   8) = (   0.5000000   0.5000000   9.0299450  )
         9           Au  tau(   9) = (   0.5000000   0.5000000   0.4127975  )
        10           Au  tau(  10) = (   0.0000000   0.0000000   0.8771947  )
        11           Au  tau(  11) = (   0.0000000   0.0000000   1.7027896  )
        12           Au  tau(  12) = (   0.5000000   0.5000000   2.1671868  )
        13           Au  tau(  13) = (   0.5000000   0.5000000   2.9927818  )
        14           Au  tau(  14) = (   0.0000000   0.0000000   3.4571789  )
        15           Au  tau(  15) = (   0.0000000   0.0000000   4.2827739  )
        16           Au  tau(  16) = (   0.5000000   0.5000000   4.7471711  )
        17           Au  tau(  17) = (   0.5000000   0.5000000   5.5727660  )
        18           Au  tau(  18) = (   0.0000000   0.0000000   6.0371632  )
        19           Au  tau(  19) = (   0.0000000   0.0000000   6.8627582  )
        20           Au  tau(  20) = (   0.5000000   0.5000000   7.3271553  )
        21           Au  tau(  21) = (   0.5000000   0.5000000   8.1527503  )
        22           Au  tau(  22) = (   0.0000000   0.0000000   8.6171475  )
        23           Au  tau(  23) = (   0.0000000   0.0000000   9.4427424  )
        24           Au  tau(  24) = (   0.5000000   0.5000000   9.9071396  )

     number of k points=    30 (tetrahedron method)
                       cart. coord. in units 2pi/alat
        k(    1) = (   0.0000000   0.0000000   0.0000000), wk =   0.0078125
        k(    2) = (   0.0000000   0.0000000  -0.0484499), wk =   0.0078125
        k(    3) = (   0.0000000   0.1250000   0.0000000), wk =   0.0312500
        k(    4) = (   0.0000000   0.1250000  -0.0484499), wk =   0.0312500
        k(    5) = (   0.0000000   0.2500000   0.0000000), wk =   0.0312500
        k(    6) = (   0.0000000   0.2500000  -0.0484499), wk =   0.0312500
        k(    7) = (   0.0000000   0.3750000   0.0000000), wk =   0.0312500
        k(    8) = (   0.0000000   0.3750000  -0.0484499), wk =   0.0312500
        k(    9) = (   0.0000000  -0.5000000   0.0000000), wk =   0.0156250
        k(   10) = (   0.0000000  -0.5000000  -0.0484499), wk =   0.0156250
        k(   11) = (   0.1250000   0.1250000   0.0000000), wk =   0.0312500
        k(   12) = (   0.1250000   0.1250000  -0.0484499), wk =   0.0312500
        k(   13) = (   0.1250000   0.2500000   0.0000000), wk =   0.0625000
        k(   14) = (   0.1250000   0.2500000  -0.0484499), wk =   0.0625000
        k(   15) = (   0.1250000   0.3750000   0.0000000), wk =   0.0625000
        k(   16) = (   0.1250000   0.3750000  -0.0484499), wk =   0.0625000
        k(   17) = (   0.1250000  -0.5000000   0.0000000), wk =   0.0312500
        k(   18) = (   0.1250000  -0.5000000  -0.0484499), wk =   0.0312500
        k(   19) = (   0.2500000   0.2500000   0.0000000), wk =   0.0312500
        k(   20) = (   0.2500000   0.2500000  -0.0484499), wk =   0.0312500
        k(   21) = (   0.2500000   0.3750000   0.0000000), wk =   0.0625000
        k(   22) = (   0.2500000   0.3750000  -0.0484499), wk =   0.0625000
        k(   23) = (   0.2500000  -0.5000000   0.0000000), wk =   0.0312500
        k(   24) = (   0.2500000  -0.5000000  -0.0484499), wk =   0.0312500
        k(   25) = (   0.3750000   0.3750000   0.0000000), wk =   0.0312500
        k(   26) = (   0.3750000   0.3750000  -0.0484499), wk =   0.0312500
        k(   27) = (   0.3750000  -0.5000000   0.0000000), wk =   0.0312500
        k(   28) = (   0.3750000  -0.5000000  -0.0484499), wk =   0.0312500
        k(   29) = (  -0.5000000  -0.5000000   0.0000000), wk =   0.0078125
        k(   30) = (  -0.5000000  -0.5000000  -0.0484499), wk =   0.0078125

     Dense  grid:   368373 G-vectors     FFT dimensions: (  45,  45, 432)

     Smooth grid:   111379 G-vectors     FFT dimensions: (  27,  27, 288)

     Estimated max dynamical RAM per process >     281.85 MB

     Estimated total dynamical RAM >       4.40 GB
     Generating pointlists ...
     new r_m :   0.3377 (alat units)  2.1668 (a.u.) for type    1
     new r_m :   0.3377 (alat units)  2.1668 (a.u.) for type    2
     new r_m :   0.3377 (alat units)  2.1668 (a.u.) for type    3

     Check: negative/imaginary core charge=   -0.000006    0.000000

     Initial potential from superposition of free atoms

     starting charge  295.99426, renormalised to  296.00000
     Number of +U iterations with fixed ns =  0
     Starting occupations:
 --- enter write_ns ---
 LDA+U parameters:
U(  1) =   3.1200   J(  1) =   0.7000   B(  1) =   0.0803
U(  2) =   3.1200   J(  2) =   0.7000   B(  2) =   0.0803
atom    1   Tr[ns(na)] (up, down, total) =   5.00000  0.00000  5.00000
   spin  1
    eigenvalues: 
  1.000  1.000  1.000  1.000  1.000
    eigenvectors:
  1.000  0.000  0.000  0.000  0.000
  0.000  1.000  0.000  0.000  0.000
  0.000  0.000  1.000  0.000  0.000
  0.000  0.000  0.000  1.000  0.000
  0.000  0.000  0.000  0.000  1.000
    occupations:
  1.000  0.000  0.000  0.000  0.000
  0.000  1.000  0.000  0.000  0.000
  0.000  0.000  1.000  0.000  0.000
  0.000  0.000  0.000  1.000  0.000
  0.000  0.000  0.000  0.000  1.000
   spin  2
    eigenvalues: 
  0.000  0.000  0.000  0.000  0.000
    eigenvectors:
  1.000  0.000  0.000  0.000  0.000
  0.000  1.000  0.000  0.000  0.000
  0.000  0.000  1.000  0.000  0.000
  0.000  0.000  0.000  1.000  0.000
  0.000  0.000  0.000  0.000  1.000
    occupations:
  0.000  0.000  0.000  0.000  0.000
  0.000  0.000  0.000  0.000  0.000
  0.000  0.000  0.000  0.000  0.000
  0.000  0.000  0.000  0.000  0.000
  0.000  0.000  0.000  0.000  0.000
atomic mag. moment =     5.000000
atom    2   Tr[ns(na)] (up, down, total) =   5.00000  0.00000  5.00000
   spin  1
    eigenvalues: 
  1.000  1.000  1.000  1.000  1.000
    eigenvectors:
  1.000  0.000  0.000  0.000  0.000
  0.000  1.000  0.000  0.000  0.000
  0.000  0.000  1.000  0.000  0.000
  0.000  0.000  0.000  1.000  0.000
  0.000  0.000  0.000  0.000  1.000
    occupations:
  1.000  0.000  0.000  0.000  0.000
  0.000  1.000  0.000  0.000  0.000
  0.000  0.000  1.000  0.000  0.000
  0.000  0.000  0.000  1.000  0.000
  0.000  0.000  0.000  0.000  1.000
   spin  2
    eigenvalues: 
  0.000  0.000  0.000  0.000  0.000
    eigenvectors:
  1.000  0.000  0.000  0.000  0.000
  0.000  1.000  0.000  0.000  0.000
  0.000  0.000  1.000  0.000  0.000
  0.000  0.000  0.000  1.000  0.000
  0.000  0.000  0.000  0.000  1.000
    occupations:
  0.000  0.000  0.000  0.000  0.000
  0.000  0.000  0.000  0.000  0.000
  0.000  0.000  0.000  0.000  0.000
  0.000  0.000  0.000  0.000  0.000
  0.000  0.000  0.000  0.000  0.000
atomic mag. moment =     5.000000
atom    3   Tr[ns(na)] (up, down, total) =   5.00000  0.00000  5.00000
   spin  1
    eigenvalues: 
  1.000  1.000  1.000  1.000  1.000
    eigenvectors:
  1.000  0.000  0.000  0.000  0.000
  0.000  1.000  0.000  0.000  0.000
  0.000  0.000  1.000  0.000  0.000
  0.000  0.000  0.000  1.000  0.000
  0.000  0.000  0.000  0.000  1.000
    occupations:
  1.000  0.000  0.000  0.000  0.000
  0.000  1.000  0.000  0.000  0.000
  0.000  0.000  1.000  0.000  0.000
  0.000  0.000  0.000  1.000  0.000
  0.000  0.000  0.000  0.000  1.000
   spin  2
    eigenvalues: 
  0.000  0.000  0.000  0.000  0.000
    eigenvectors:
  1.000  0.000  0.000  0.000  0.000
  0.000  1.000  0.000  0.000  0.000
  0.000  0.000  1.000  0.000  0.000
  0.000  0.000  0.000  1.000  0.000
  0.000  0.000  0.000  0.000  1.000
    occupations:
  0.000  0.000  0.000  0.000  0.000
  0.000  0.000  0.000  0.000  0.000
  0.000  0.000  0.000  0.000  0.000
  0.000  0.000  0.000  0.000  0.000
  0.000  0.000  0.000  0.000  0.000
atomic mag. moment =     5.000000
atom    4   Tr[ns(na)] (up, down, total) =   5.00000  0.00000  5.00000
   spin  1
    eigenvalues: 
  1.000  1.000  1.000  1.000  1.000
    eigenvectors:
  1.000  0.000  0.000  0.000  0.000
  0.000  1.000  0.000  0.000  0.000
  0.000  0.000  1.000  0.000  0.000
  0.000  0.000  0.000  1.000  0.000
  0.000  0.000  0.000  0.000  1.000
    occupations:
  1.000  0.000  0.000  0.000  0.000
  0.000  1.000  0.000  0.000  0.000
  0.000  0.000  1.000  0.000  0.000
  0.000  0.000  0.000  1.000  0.000
  0.000  0.000  0.000  0.000  1.000
   spin  2
    eigenvalues: 
  0.000  0.000  0.000  0.000  0.000
    eigenvectors:
  1.000  0.000  0.000  0.000  0.000
  0.000  1.000  0.000  0.000  0.000
  0.000  0.000  1.000  0.000  0.000
  0.000  0.000  0.000  1.000  0.000
  0.000  0.000  0.000  0.000  1.000
    occupations:
  0.000  0.000  0.000  0.000  0.000
  0.000  0.000  0.000  0.000  0.000
  0.000  0.000  0.000  0.000  0.000
  0.000  0.000  0.000  0.000  0.000
  0.000  0.000  0.000  0.000  0.000
atomic mag. moment =     5.000000
atom    5   Tr[ns(na)] (up, down, total) =   5.00000  0.00000  5.00000
   spin  1
    eigenvalues: 
  1.000  1.000  1.000  1.000  1.000
    eigenvectors:
  1.000  0.000  0.000  0.000  0.000
  0.000  1.000  0.000  0.000  0.000
  0.000  0.000  1.000  0.000  0.000
  0.000  0.000  0.000  1.000  0.000
  0.000  0.000  0.000  0.000  1.000
    occupations:
  1.000  0.000  0.000  0.000  0.000
  0.000  1.000  0.000  0.000  0.000
  0.000  0.000  1.000  0.000  0.000
  0.000  0.000  0.000  1.000  0.000
  0.000  0.000  0.000  0.000  1.000
   spin  2
    eigenvalues: 
  0.000  0.000  0.000  0.000  0.000
    eigenvectors:
  1.000  0.000  0.000  0.000  0.000
  0.000  1.000  0.000  0.000  0.000
  0.000  0.000  1.000  0.000  0.000
  0.000  0.000  0.000  1.000  0.000
  0.000  0.000  0.000  0.000  1.000
    occupations:
  0.000  0.000  0.000  0.000  0.000
  0.000  0.000  0.000  0.000  0.000
  0.000  0.000  0.000  0.000  0.000
  0.000  0.000  0.000  0.000  0.000
  0.000  0.000  0.000  0.000  0.000
atomic mag. moment =     5.000000
atom    6   Tr[ns(na)] (up, down, total) =   0.00000  5.00000  5.00000
   spin  1
    eigenvalues: 
  0.000  0.000  0.000  0.000  0.000
    eigenvectors:
  1.000  0.000  0.000  0.000  0.000
  0.000  1.000  0.000  0.000  0.000
  0.000  0.000  1.000  0.000  0.000
  0.000  0.000  0.000  1.000  0.000
  0.000  0.000  0.000  0.000  1.000
    occupations:
  0.000  0.000  0.000  0.000  0.000
  0.000  0.000  0.000  0.000  0.000
  0.000  0.000  0.000  0.000  0.000
  0.000  0.000  0.000  0.000  0.000
  0.000  0.000  0.000  0.000  0.000
   spin  2
    eigenvalues: 
  1.000  1.000  1.000  1.000  1.000
    eigenvectors:
  1.000  0.000  0.000  0.000  0.000
  0.000  1.000  0.000  0.000  0.000
  0.000  0.000  1.000  0.000  0.000
  0.000  0.000  0.000  1.000  0.000
  0.000  0.000  0.000  0.000  1.000
    occupations:
  1.000  0.000  0.000  0.000  0.000
  0.000  1.000  0.000  0.000  0.000
  0.000  0.000  1.000  0.000  0.000
  0.000  0.000  0.000  1.000  0.000
  0.000  0.000  0.000  0.000  1.000
atomic mag. moment =    -5.000000
atom    7   Tr[ns(na)] (up, down, total) =   0.00000  5.00000  5.00000
   spin  1
    eigenvalues: 
  0.000  0.000  0.000  0.000  0.000
    eigenvectors:
  1.000  0.000  0.000  0.000  0.000
  0.000  1.000  0.000  0.000  0.000
  0.000  0.000  1.000  0.000  0.000
  0.000  0.000  0.000  1.000  0.000
  0.000  0.000  0.000  0.000  1.000
    occupations:
  0.000  0.000  0.000  0.000  0.000
  0.000  0.000  0.000  0.000  0.000
  0.000  0.000  0.000  0.000  0.000
  0.000  0.000  0.000  0.000  0.000
  0.000  0.000  0.000  0.000  0.000
   spin  2
    eigenvalues: 
  1.000  1.000  1.000  1.000  1.000
    eigenvectors:
  1.000  0.000  0.000  0.000  0.000
  0.000  1.000  0.000  0.000  0.000
  0.000  0.000  1.000  0.000  0.000
  0.000  0.000  0.000  1.000  0.000
  0.000  0.000  0.000  0.000  1.000
    occupations:
  1.000  0.000  0.000  0.000  0.000
  0.000  1.000  0.000  0.000  0.000
  0.000  0.000  1.000  0.000  0.000
  0.000  0.000  0.000  1.000  0.000
  0.000  0.000  0.000  0.000  1.000
atomic mag. moment =    -5.000000
atom    8   Tr[ns(na)] (up, down, total) =   0.00000  5.00000  5.00000
   spin  1
    eigenvalues: 
  0.000  0.000  0.000  0.000  0.000
    eigenvectors:
  1.000  0.000  0.000  0.000  0.000
  0.000  1.000  0.000  0.000  0.000
  0.000  0.000  1.000  0.000  0.000
  0.000  0.000  0.000  1.000  0.000
  0.000  0.000  0.000  0.000  1.000
    occupations:
  0.000  0.000  0.000  0.000  0.000
  0.000  0.000  0.000  0.000  0.000
  0.000  0.000  0.000  0.000  0.000
  0.000  0.000  0.000  0.000  0.000
  0.000  0.000  0.000  0.000  0.000
   spin  2
    eigenvalues: 
  1.000  1.000  1.000  1.000  1.000
    eigenvectors:
  1.000  0.000  0.000  0.000  0.000
  0.000  1.000  0.000  0.000  0.000
  0.000  0.000  1.000  0.000  0.000
  0.000  0.000  0.000  1.000  0.000
  0.000  0.000  0.000  0.000  1.000
    occupations:
  1.000  0.000  0.000  0.000  0.000
  0.000  1.000  0.000  0.000  0.000
  0.000  0.000  1.000  0.000  0.000
  0.000  0.000  0.000  1.000  0.000
  0.000  0.000  0.000  0.000  1.000
atomic mag. moment =    -5.000000
N of occupied +U levels =   40.000000
 --- exit write_ns ---
 Atomic wfc used for LDA+U Projector are NOT orthogonalized
     Starting wfcs are  224 randomized atomic wfcs
     Checking if some PAW data can be deallocated... 

     total cpu time spent up to now is       82.1 secs

     Self-consistent Calculation

     iteration #  1     ecut=    45.00 Ry     beta= 0.10
     Davidson diagonalization with overlap
     ethr =  1.00E-02,  avg # of iterations =  4.1
 --- enter write_ns ---
 LDA+U parameters:
U(  1) =   3.1200   J(  1) =   0.7000   B(  1) =   0.0803
U(  2) =   3.1200   J(  2) =   0.7000   B(  2) =   0.0803
atom    1   Tr[ns(na)] (up, down, total) =   5.01740  0.41003  5.42744
   spin  1
    eigenvalues: 
  1.003  1.003  1.003  1.004  1.004
    eigenvectors:
  0.000  0.000  0.000  1.000  0.000
  0.000  0.326  0.674  0.000  0.000
  0.000  0.674  0.326  0.000  0.000
  0.000  0.000  0.000  0.000  1.000
  1.000  0.000  0.000  0.000  0.000
    occupations:
  1.004 -0.000 -0.000  0.000  0.000
 -0.000  1.003 -0.000  0.000  0.000
 -0.000 -0.000  1.003  0.000  0.000
  0.000  0.000  0.000  1.004 -0.000
  0.000  0.000  0.000 -0.000  1.003
   spin  2
    eigenvalues: 
  0.053  0.074  0.081  0.081  0.121
    eigenvectors:
  0.000  1.000  0.000  0.000  0.000
  0.000  0.000  0.336  0.664  0.000
  0.000  0.000  0.664  0.336  0.000
  1.000  0.000  0.000  0.000  0.000
  0.000  0.000  0.000  0.000  1.000
    occupations:
  0.074 -0.000 -0.000  0.000  0.000
 -0.000  0.081 -0.000  0.000  0.000
 -0.000 -0.000  0.081  0.000  0.000
  0.000  0.000  0.000  0.053 -0.000
  0.000  0.000  0.000 -0.000  0.121
atomic mag. moment =     4.607372
atom    2   Tr[ns(na)] (up, down, total) =   5.01753  0.40258  5.42011
   spin  1
    eigenvalues: 
  1.003  1.003  1.003  1.004  1.004
    eigenvectors:
  0.000  0.000  0.000  1.000  0.000
  0.000  0.389  0.611  0.000  0.000
  0.000  0.611  0.389  0.000  0.000
  0.000  0.000  0.000  0.000  1.000
  1.000  0.000  0.000  0.000  0.000
    occupations:
  1.004 -0.000 -0.000  0.000  0.000
 -0.000  1.003 -0.000  0.000  0.000
 -0.000 -0.000  1.003  0.000  0.000
  0.000  0.000  0.000  1.004 -0.000
  0.000  0.000  0.000 -0.000  1.003
   spin  2
    eigenvalues: 
  0.053  0.073  0.082  0.082  0.113
    eigenvectors:
  0.000  1.000  0.000  0.000  0.000
  0.000  0.000  0.281  0.719  0.000
  0.000  0.000  0.719  0.281  0.000
  1.000  0.000  0.000  0.000  0.000
  0.000  0.000  0.000  0.000  1.000
    occupations:
  0.073 -0.000 -0.000  0.000  0.000
 -0.000  0.082 -0.000  0.000  0.000
 -0.000 -0.000  0.082  0.000  0.000
  0.000  0.000  0.000  0.053 -0.000
  0.000  0.000  0.000 -0.000  0.113
atomic mag. moment =     4.614953
atom    3   Tr[ns(na)] (up, down, total) =   5.01761  0.40056  5.41817
   spin  1
    eigenvalues: 
  1.003  1.003  1.003  1.004  1.004
    eigenvectors:
  0.000  0.000  0.000  1.000  0.000
  0.000  0.264  0.736  0.000  0.000
  0.000  0.736  0.264  0.000  0.000
  0.000  0.000  0.000  0.000  1.000
  1.000  0.000  0.000  0.000  0.000
    occupations:
  1.004 -0.000 -0.000  0.000  0.000
 -0.000  1.003 -0.000  0.000  0.000
 -0.000 -0.000  1.003  0.000  0.000
  0.000  0.000  0.000  1.004 -0.000
  0.000  0.000  0.000 -0.000  1.003
   spin  2
    eigenvalues: 
  0.053  0.072  0.081  0.081  0.115
    eigenvectors:
  0.000  1.000  0.000  0.000  0.000
  0.000  0.000  0.314  0.686  0.000
  0.000  0.000  0.686  0.314  0.000
  1.000  0.000  0.000  0.000  0.000
  0.000  0.000  0.000  0.000  1.000
    occupations:
  0.072 -0.000 -0.000  0.000  0.000
 -0.000  0.081 -0.000  0.000  0.000
 -0.000 -0.000  0.081  0.000  0.000
  0.000  0.000  0.000  0.053 -0.000
  0.000  0.000  0.000 -0.000  0.115
atomic mag. moment =     4.617042
atom    4   Tr[ns(na)] (up, down, total) =   5.01753  0.40258  5.42011
   spin  1
    eigenvalues: 
  1.003  1.003  1.003  1.004  1.004
    eigenvectors:
  0.000  0.000  0.000  1.000  0.000
  0.000  0.331  0.669  0.000  0.000
  0.000  0.669  0.331  0.000  0.000
  0.000  0.000  0.000  0.000  1.000
  1.000  0.000  0.000  0.000  0.000
    occupations:
  1.004 -0.000 -0.000  0.000  0.000
 -0.000  1.003 -0.000  0.000  0.000
 -0.000 -0.000  1.003  0.000  0.000
  0.000  0.000  0.000  1.004 -0.000
  0.000  0.000  0.000 -0.000  1.003
   spin  2
    eigenvalues: 
  0.053  0.073  0.082  0.082  0.113
    eigenvectors:
  0.000  1.000  0.000  0.000  0.000
  0.000  0.000  0.299  0.701  0.000
  0.000  0.000  0.701  0.299  0.000
  1.000  0.000  0.000  0.000  0.000
  0.000  0.000  0.000  0.000  1.000
    occupations:
  0.073 -0.000 -0.000  0.000  0.000
 -0.000  0.082 -0.000  0.000  0.000
 -0.000 -0.000  0.082  0.000  0.000
  0.000  0.000  0.000  0.053 -0.000
  0.000  0.000  0.000 -0.000  0.113
atomic mag. moment =     4.614953
atom    5   Tr[ns(na)] (up, down, total) =   5.01740  0.41003  5.42744
   spin  1
    eigenvalues: 
  1.003  1.003  1.003  1.004  1.004
    eigenvectors:
  0.000  0.000  0.000  1.000  0.000
  0.000  0.345  0.655  0.000  0.000
  0.000  0.655  0.345  0.000  0.000
  0.000  0.000  0.000  0.000  1.000
  1.000  0.000  0.000  0.000  0.000
    occupations:
  1.004 -0.000 -0.000  0.000  0.000
 -0.000  1.003 -0.000  0.000  0.000
 -0.000 -0.000  1.003  0.000  0.000
  0.000  0.000  0.000  1.004 -0.000
  0.000  0.000  0.000 -0.000  1.003
   spin  2
    eigenvalues: 
  0.053  0.074  0.081  0.081  0.121
    eigenvectors:
  0.000  1.000  0.000  0.000  0.000
  0.000  0.000  0.324  0.676  0.000
  0.000  0.000  0.676  0.324  0.000
  1.000  0.000  0.000  0.000  0.000
  0.000  0.000  0.000  0.000  1.000
    occupations:
  0.074 -0.000 -0.000  0.000  0.000
 -0.000  0.081 -0.000  0.000  0.000
 -0.000 -0.000  0.081  0.000  0.000
  0.000  0.000  0.000  0.053 -0.000
  0.000  0.000  0.000 -0.000  0.121
atomic mag. moment =     4.607372
atom    6   Tr[ns(na)] (up, down, total) =   0.40868  5.01758  5.42627
   spin  1
    eigenvalues: 
  0.053  0.074  0.081  0.081  0.121
    eigenvectors:
  0.000  1.000  0.000  0.000  0.000
  0.000  0.000  0.317  0.683  0.000
  0.000  0.000  0.683  0.317  0.000
  1.000  0.000  0.000  0.000  0.000
  0.000  0.000  0.000  0.000  1.000
    occupations:
  0.074 -0.000 -0.000  0.000  0.000
 -0.000  0.081 -0.000  0.000  0.000
 -0.000 -0.000  0.081  0.000  0.000
  0.000  0.000  0.000  0.053 -0.000
  0.000  0.000  0.000 -0.000  0.121
   spin  2
    eigenvalues: 
  1.003  1.003  1.003  1.004  1.004
    eigenvectors:
  0.000  0.000  0.000  1.000  0.000
  0.000  0.371  0.629  0.000  0.000
  0.000  0.629  0.371  0.000  0.000
  0.000  0.000  0.000  0.000  1.000
  1.000  0.000  0.000  0.000  0.000
    occupations:
  1.004 -0.000 -0.000  0.000  0.000
 -0.000  1.003 -0.000  0.000  0.000
 -0.000 -0.000  1.003  0.000  0.000
  0.000  0.000  0.000  1.004 -0.000
  0.000  0.000  0.000 -0.000  1.003
atomic mag. moment =    -4.608903
atom    7   Tr[ns(na)] (up, down, total) =   0.40482  5.01778  5.42259
   spin  1
    eigenvalues: 
  0.053  0.076  0.082  0.082  0.111
    eigenvectors:
  0.000  1.000  0.000  0.000  0.000
  0.000  0.000  0.225  0.775  0.000
  0.000  0.000  0.775  0.225  0.000
  1.000  0.000  0.000  0.000  0.000
  0.000  0.000  0.000  0.000  1.000
    occupations:
  0.076 -0.000 -0.000  0.000  0.000
 -0.000  0.082 -0.000  0.000  0.000
 -0.000 -0.000  0.082  0.000  0.000
  0.000  0.000  0.000  0.053 -0.000
  0.000  0.000  0.000 -0.000  0.111
   spin  2
    eigenvalues: 
  1.003  1.003  1.003  1.004  1.004
    eigenvectors:
  0.000  0.000  0.000  1.000  0.000
  0.000  0.328  0.672  0.000  0.000
  0.000  0.672  0.328  0.000  0.000
  0.000  0.000  0.000  0.000  1.000
  1.000  0.000  0.000  0.000  0.000
    occupations:
  1.004 -0.000 -0.000  0.000  0.000
 -0.000  1.003 -0.000  0.000  0.000
 -0.000 -0.000  1.003  0.000  0.000
  0.000  0.000  0.000  1.004 -0.000
  0.000  0.000  0.000 -0.000  1.003
atomic mag. moment =    -4.612957
atom    8   Tr[ns(na)] (up, down, total) =   0.40868  5.01758  5.42627
   spin  1
    eigenvalues: 
  0.053  0.074  0.081  0.081  0.121
    eigenvectors:
  0.000  1.000  0.000  0.000  0.000
  0.000  0.000  0.332  0.668  0.000
  0.000  0.000  0.668  0.332  0.000
  1.000  0.000  0.000  0.000  0.000
  0.000  0.000  0.000  0.000  1.000
    occupations:
  0.074 -0.000 -0.000  0.000  0.000
 -0.000  0.081 -0.000  0.000  0.000
 -0.000 -0.000  0.081  0.000  0.000
  0.000  0.000  0.000  0.053 -0.000
  0.000  0.000  0.000 -0.000  0.121
   spin  2
    eigenvalues: 
  1.003  1.003  1.003  1.004  1.004
    eigenvectors:
  0.000  0.000  0.000  1.000  0.000
  0.000  0.269  0.731  0.000  0.000
  0.000  0.731  0.269  0.000  0.000
  0.000  0.000  0.000  0.000  1.000
  1.000  0.000  0.000  0.000  0.000
    occupations:
  1.004 -0.000 -0.000  0.000  0.000
 -0.000  1.003 -0.000  0.000  0.000
 -0.000 -0.000  1.003  0.000  0.000
  0.000  0.000  0.000  1.004 -0.000
  0.000  0.000  0.000 -0.000  1.003
atomic mag. moment =    -4.608903
N of occupied +U levels =   43.388381
 --- exit write_ns ---

     total cpu time spent up to now is      256.0 secs

     total energy              =  -14687.27070340 Ry
     Harris-Foulkes estimate   =  -14685.80949434 Ry
     estimated scf accuracy    <      11.54020283 Ry

     total magnetization       =    10.08 Bohr mag/cell
     absolute magnetization    =    41.53 Bohr mag/cell

     iteration #  2     ecut=    45.00 Ry     beta= 0.10
     Davidson diagonalization with overlap
     ethr =  3.90E-03,  avg # of iterations =  1.0

     total cpu time spent up to now is      366.7 secs

     total energy              =  -14689.22486312 Ry
     Harris-Foulkes estimate   =  -14687.34802209 Ry
     estimated scf accuracy    <       9.72685703 Ry

     total magnetization       =     9.87 Bohr mag/cell
     absolute magnetization    =    41.19 Bohr mag/cell

     iteration #  3     ecut=    45.00 Ry     beta= 0.10
     Davidson diagonalization with overlap
     ethr =  3.29E-03,  avg # of iterations =  4.5

     total cpu time spent up to now is      514.7 secs

     total energy              =  -14691.69501830 Ry
     Harris-Foulkes estimate   =  -14690.73112689 Ry
     estimated scf accuracy    <     148.76734929 Ry

     total magnetization       =    10.17 Bohr mag/cell
     absolute magnetization    =    40.50 Bohr mag/cell

     iteration #  4     ecut=    45.00 Ry     beta= 0.10
     Davidson diagonalization with overlap
     ethr =  3.29E-03,  avg # of iterations =  3.6

     total cpu time spent up to now is      653.2 secs

     total energy              =  -14695.09034711 Ry
     Harris-Foulkes estimate   =  -14694.18613638 Ry
     estimated scf accuracy    <       3.55027357 Ry

     total magnetization       =     9.30 Bohr mag/cell
     absolute magnetization    =    38.38 Bohr mag/cell

     iteration #  5     ecut=    45.00 Ry     beta= 0.10
     Davidson diagonalization with overlap
     ethr =  1.20E-03,  avg # of iterations =  4.6

     total cpu time spent up to now is      797.6 secs

     total energy              =  -14693.17624945 Ry
     Harris-Foulkes estimate   =  -14695.25211888 Ry
     estimated scf accuracy    <       7.39677481 Ry

     total magnetization       =     9.00 Bohr mag/cell
     absolute magnetization    =    37.40 Bohr mag/cell

     iteration #  6     ecut=    45.00 Ry     beta= 0.10
     Davidson diagonalization with overlap
     ethr =  1.20E-03,  avg # of iterations =  4.9

     total cpu time spent up to now is      996.4 secs

     total energy              =  -14693.86620902 Ry
     Harris-Foulkes estimate   =  -14693.92851967 Ry
     estimated scf accuracy    <       0.70013639 Ry

     total magnetization       =     9.07 Bohr mag/cell
     absolute magnetization    =    38.03 Bohr mag/cell

     iteration #  7     ecut=    45.00 Ry     beta= 0.10
     Davidson diagonalization with overlap
     ethr =  2.37E-04,  avg # of iterations =  4.8

     total cpu time spent up to now is     1153.5 secs

     total energy              =  -14693.97123559 Ry
     Harris-Foulkes estimate   =  -14693.97350265 Ry
     estimated scf accuracy    <       0.45832286 Ry

     total magnetization       =     8.66 Bohr mag/cell
     absolute magnetization    =    37.44 Bohr mag/cell

     iteration #  8     ecut=    45.00 Ry     beta= 0.10
     Davidson diagonalization with overlap
     ethr =  1.55E-04,  avg # of iterations =  1.1

     total cpu time spent up to now is     1245.1 secs

     total energy              =  -14694.00196104 Ry
     Harris-Foulkes estimate   =  -14693.99119372 Ry
     estimated scf accuracy    <       0.05672068 Ry

     total magnetization       =     8.75 Bohr mag/cell
     absolute magnetization    =    37.36 Bohr mag/cell

     iteration #  9     ecut=    45.00 Ry     beta= 0.10
     Davidson diagonalization with overlap
     ethr =  1.92E-05,  avg # of iterations =  4.2

     total cpu time spent up to now is     1457.3 secs

     total energy              =  -14693.99693829 Ry
     Harris-Foulkes estimate   =  -14694.02162214 Ry
     estimated scf accuracy    <       0.21746359 Ry

     total magnetization       =     8.51 Bohr mag/cell
     absolute magnetization    =    36.95 Bohr mag/cell

     iteration # 10     ecut=    45.00 Ry     beta= 0.10
     Davidson diagonalization with overlap
     ethr =  1.92E-05,  avg # of iterations =  2.7

     total cpu time spent up to now is     1585.4 secs

     total energy              =  -14694.00360146 Ry
     Harris-Foulkes estimate   =  -14694.00572626 Ry
     estimated scf accuracy    <       0.03571361 Ry

     total magnetization       =     8.56 Bohr mag/cell
     absolute magnetization    =    37.02 Bohr mag/cell

     iteration # 11     ecut=    45.00 Ry     beta= 0.10
     Davidson diagonalization with overlap
     ethr =  1.21E-05,  avg # of iterations =  2.7

     total cpu time spent up to now is     1705.4 secs

     total energy              =  -14694.00671256 Ry
     Harris-Foulkes estimate   =  -14694.00507800 Ry
     estimated scf accuracy    <       0.01103811 Ry

     total magnetization       =     8.61 Bohr mag/cell
     absolute magnetization    =    37.15 Bohr mag/cell

     iteration # 12     ecut=    45.00 Ry     beta= 0.10
     Davidson diagonalization with overlap
     ethr =  3.73E-06,  avg # of iterations =  3.2

     total cpu time spent up to now is     1833.3 secs

     total energy              =  -14694.00802017 Ry
     Harris-Foulkes estimate   =  -14694.00733617 Ry
     estimated scf accuracy    <       0.00299717 Ry

     total magnetization       =     8.59 Bohr mag/cell
     absolute magnetization    =    37.09 Bohr mag/cell

     iteration # 13     ecut=    45.00 Ry     beta= 0.10
     Davidson diagonalization with overlap
     ethr =  1.01E-06,  avg # of iterations =  3.0

     total cpu time spent up to now is     1957.6 secs

     total energy              =  -14694.00824098 Ry
     Harris-Foulkes estimate   =  -14694.00840141 Ry
     estimated scf accuracy    <       0.02202537 Ry

     total magnetization       =     8.56 Bohr mag/cell
     absolute magnetization    =    37.09 Bohr mag/cell

     iteration # 14     ecut=    45.00 Ry     beta= 0.10
     Davidson diagonalization with overlap
     ethr =  1.01E-06,  avg # of iterations =  2.4

     total cpu time spent up to now is     2083.9 secs

     total energy              =  -14694.00904551 Ry
     Harris-Foulkes estimate   =  -14694.00891855 Ry
     estimated scf accuracy    <       0.00049072 Ry

     total magnetization       =     8.56 Bohr mag/cell
     absolute magnetization    =    37.04 Bohr mag/cell

     iteration # 15     ecut=    45.00 Ry     beta= 0.10
     Davidson diagonalization with overlap
     ethr =  1.66E-07,  avg # of iterations =  1.8

     total cpu time spent up to now is     2190.9 secs

     total energy              =  -14694.00914347 Ry
     Harris-Foulkes estimate   =  -14694.00905387 Ry
     estimated scf accuracy    <       0.00024441 Ry

     total magnetization       =     8.56 Bohr mag/cell
     absolute magnetization    =    37.05 Bohr mag/cell

     iteration # 16     ecut=    45.00 Ry     beta= 0.10
     Davidson diagonalization with overlap
     ethr =  8.26E-08,  avg # of iterations =  1.6

     total cpu time spent up to now is     2293.2 secs

     total energy              =  -14694.00921438 Ry
     Harris-Foulkes estimate   =  -14694.00914569 Ry
     estimated scf accuracy    <       0.00011932 Ry

     total magnetization       =     8.56 Bohr mag/cell
     absolute magnetization    =    37.05 Bohr mag/cell

     iteration # 17     ecut=    45.00 Ry     beta= 0.10
     Davidson diagonalization with overlap
     ethr =  4.03E-08,  avg # of iterations =  2.7

     total cpu time spent up to now is     2411.9 secs

     total energy              =  -14694.00924304 Ry
     Harris-Foulkes estimate   =  -14694.00922261 Ry
     estimated scf accuracy    <       0.00004183 Ry

     total magnetization       =     8.55 Bohr mag/cell
     absolute magnetization    =    37.04 Bohr mag/cell

     iteration # 18     ecut=    45.00 Ry     beta= 0.10
     Davidson diagonalization with overlap
     ethr =  1.41E-08,  avg # of iterations =  2.7

     total cpu time spent up to now is     2552.3 secs

     total energy              =  -14694.00925244 Ry
     Harris-Foulkes estimate   =  -14694.00924743 Ry
     estimated scf accuracy    <       0.00000797 Ry

     total magnetization       =     8.54 Bohr mag/cell
     absolute magnetization    =    37.04 Bohr mag/cell

     iteration # 19     ecut=    45.00 Ry     beta= 0.10
     Davidson diagonalization with overlap
     ethr =  2.69E-09,  avg # of iterations =  2.2

     total cpu time spent up to now is     2664.9 secs

     total energy              =  -14694.00925543 Ry
     Harris-Foulkes estimate   =  -14694.00925121 Ry
     estimated scf accuracy    <       0.00000474 Ry

     total magnetization       =     8.54 Bohr mag/cell
     absolute magnetization    =    37.04 Bohr mag/cell

     iteration # 20     ecut=    45.00 Ry     beta= 0.10
     Davidson diagonalization with overlap
     ethr =  1.60E-09,  avg # of iterations =  2.2

     total cpu time spent up to now is     2783.7 secs

     total energy              =  -14694.00925706 Ry
     Harris-Foulkes estimate   =  -14694.00925493 Ry
     estimated scf accuracy    <       0.00000346 Ry

     total magnetization       =     8.54 Bohr mag/cell
     absolute magnetization    =    37.04 Bohr mag/cell

     iteration # 21     ecut=    45.00 Ry     beta= 0.10
     Davidson diagonalization with overlap
     ethr =  1.17E-09,  avg # of iterations =  1.6

     total cpu time spent up to now is     2886.1 secs

     total energy              =  -14694.00925947 Ry
     Harris-Foulkes estimate   =  -14694.00925729 Ry
     estimated scf accuracy    <       0.00000455 Ry

     total magnetization       =     8.54 Bohr mag/cell
     absolute magnetization    =    37.04 Bohr mag/cell

     iteration # 22     ecut=    45.00 Ry     beta= 0.10
     Davidson diagonalization with overlap
     ethr =  1.17E-09,  avg # of iterations =  1.3

     total cpu time spent up to now is     2985.2 secs

     total energy              =  -14694.00926189 Ry
     Harris-Foulkes estimate   =  -14694.00926020 Ry
     estimated scf accuracy    <       0.00000119 Ry

     total magnetization       =     8.54 Bohr mag/cell
     absolute magnetization    =    37.04 Bohr mag/cell

     iteration # 23     ecut=    45.00 Ry     beta= 0.10
     Davidson diagonalization with overlap
     ethr =  4.02E-10,  avg # of iterations =  2.3

     total cpu time spent up to now is     3099.4 secs

     total energy              =  -14694.00926261 Ry
     Harris-Foulkes estimate   =  -14694.00926132 Ry
     estimated scf accuracy    <       0.00000125 Ry

     total magnetization       =     8.54 Bohr mag/cell
     absolute magnetization    =    37.04 Bohr mag/cell

     iteration # 24     ecut=    45.00 Ry     beta= 0.10
     Davidson diagonalization with overlap
     ethr =  4.02E-10,  avg # of iterations =  2.1
 
     Magnetic moment per site:
     atom:    1    charge:   13.5491    magn:    4.2270    constr:    0.0000
     atom:    2    charge:   13.5540    magn:    4.1933    constr:    0.0000
     atom:    3    charge:   13.5541    magn:    4.1977    constr:    0.0000
     atom:    4    charge:   13.5540    magn:    4.1933    constr:    0.0000
     atom:    5    charge:   13.5491    magn:    4.2270    constr:    0.0000
     atom:    6    charge:   13.5492    magn:   -4.2310    constr:    0.0000
     atom:    7    charge:   13.5525    magn:   -4.2029    constr:    0.0000
     atom:    8    charge:   13.5492    magn:   -4.2310    constr:    0.0000
     atom:    9    charge:    9.1220    magn:    0.0305    constr:    0.0000
     atom:   10    charge:    9.1217    magn:    0.0295    constr:    0.0000
     atom:   11    charge:    9.1212    magn:    0.0303    constr:    0.0000
     atom:   12    charge:    9.1194    magn:    0.0242    constr:    0.0000
     atom:   13    charge:    9.1194    magn:    0.0242    constr:    0.0000
     atom:   14    charge:    9.1212    magn:    0.0303    constr:    0.0000
     atom:   15    charge:    9.1217    magn:    0.0295    constr:    0.0000
     atom:   16    charge:    9.1220    magn:    0.0305    constr:    0.0000
     atom:   17    charge:    9.1237    magn:    0.0381    constr:    0.0000
     atom:   18    charge:    9.1231    magn:   -0.0394    constr:    0.0000
     atom:   19    charge:    9.1217    magn:   -0.0321    constr:    0.0000
     atom:   20    charge:    9.1217    magn:   -0.0343    constr:    0.0000
     atom:   21    charge:    9.1217    magn:   -0.0343    constr:    0.0000
     atom:   22    charge:    9.1217    magn:   -0.0321    constr:    0.0000
     atom:   23    charge:    9.1231    magn:   -0.0394    constr:    0.0000
     atom:   24    charge:    9.1237    magn:    0.0381    constr:    0.0000

     total cpu time spent up to now is     3209.1 secs

     End of self-consistent calculation
 --- enter write_ns ---
 LDA+U parameters:
U(  1) =   3.1200   J(  1) =   0.7000   B(  1) =   0.0803
U(  2) =   3.1200   J(  2) =   0.7000   B(  2) =   0.0803
atom    1   Tr[ns(na)] (up, down, total) =   4.97054  0.74360  5.71415
   spin  1
    eigenvalues: 
  0.984  0.994  0.994  0.997  1.002
    eigenvectors:
  0.000  0.000  0.000  1.000  0.000
  0.000  0.357  0.643  0.000  0.000
  0.000  0.643  0.357  0.000  0.000
  0.000  0.000  0.000  0.000  1.000
  1.000  0.000  0.000  0.000  0.000
    occupations:
  0.997 -0.000 -0.000  0.000  0.000
 -0.000  0.994 -0.000  0.000  0.000
 -0.000 -0.000  0.994  0.000  0.000
  0.000  0.000  0.000  1.002 -0.000
  0.000  0.000  0.000 -0.000  0.984
   spin  2
    eigenvalues: 
  0.065  0.136  0.144  0.144  0.255
    eigenvectors:
  0.000  1.000  0.000  0.000  0.000
  0.000  0.000  0.285  0.715  0.000
  0.000  0.000  0.715  0.285  0.000
  1.000  0.000  0.000  0.000  0.000
  0.000  0.000  0.000  0.000  1.000
    occupations:
  0.136 -0.000 -0.000  0.000  0.000
 -0.000  0.144 -0.000  0.000  0.000
 -0.000 -0.000  0.144  0.000  0.000
  0.000  0.000  0.000  0.065 -0.000
  0.000  0.000  0.000 -0.000  0.255
atomic mag. moment =     4.226938
atom    2   Tr[ns(na)] (up, down, total) =   4.96849  0.77009  5.73858
   spin  1
    eigenvalues: 
  0.984  0.993  0.993  0.996  1.002
    eigenvectors:
  0.000  0.000  0.000  1.000  0.000
  0.000  0.315  0.685  0.000  0.000
  0.000  0.685  0.315  0.000  0.000
  0.000  0.000  0.000  0.000  1.000
  1.000  0.000  0.000  0.000  0.000
    occupations:
  0.996 -0.000 -0.000  0.000  0.000
 -0.000  0.993 -0.000  0.000  0.000
 -0.000 -0.000  0.993  0.000  0.000
  0.000  0.000  0.000  1.002 -0.000
  0.000  0.000  0.000 -0.000  0.984
   spin  2
    eigenvalues: 
  0.065  0.144  0.144  0.148  0.270
    eigenvectors:
  0.000  0.000  0.000  1.000  0.000
  0.000  0.338  0.662  0.000  0.000
  0.000  0.662  0.338  0.000  0.000
  1.000  0.000  0.000  0.000  0.000
  0.000  0.000  0.000  0.000  1.000
    occupations:
  0.148 -0.000 -0.000  0.000  0.000
 -0.000  0.144 -0.000  0.000  0.000
 -0.000 -0.000  0.144  0.000  0.000
  0.000  0.000  0.000  0.065 -0.000
  0.000  0.000  0.000 -0.000  0.270
atomic mag. moment =     4.198391
atom    3   Tr[ns(na)] (up, down, total) =   4.96860  0.76715  5.73576
   spin  1
    eigenvalues: 
  0.984  0.993  0.993  0.997  1.002
    eigenvectors:
  0.000  0.000  0.000  1.000  0.000
  0.000  0.296  0.704  0.000  0.000
  0.000  0.704  0.296  0.000  0.000
  0.000  0.000  0.000  0.000  1.000
  1.000  0.000  0.000  0.000  0.000
    occupations:
  0.997 -0.000 -0.000  0.000  0.000
 -0.000  0.993 -0.000  0.000  0.000
 -0.000 -0.000  0.993  0.000  0.000
  0.000  0.000  0.000  1.002 -0.000
  0.000  0.000  0.000 -0.000  0.984
   spin  2
    eigenvalues: 
  0.065  0.142  0.142  0.149  0.270
    eigenvectors:
  0.000  0.000  0.000  1.000  0.000
  0.000  0.265  0.735  0.000  0.000
  0.000  0.735  0.265  0.000  0.000
  1.000  0.000  0.000  0.000  0.000
  0.000  0.000  0.000  0.000  1.000
    occupations:
  0.149 -0.000 -0.000  0.000  0.000
 -0.000  0.142 -0.000  0.000  0.000
 -0.000 -0.000  0.142  0.000  0.000
  0.000  0.000  0.000  0.065 -0.000
  0.000  0.000  0.000 -0.000  0.270
atomic mag. moment =     4.201448
atom    4   Tr[ns(na)] (up, down, total) =   4.96849  0.77009  5.73858
   spin  1
    eigenvalues: 
  0.984  0.993  0.993  0.996  1.002
    eigenvectors:
  0.000  0.000  0.000  1.000  0.000
  0.000  0.338  0.662  0.000  0.000
  0.000  0.662  0.338  0.000  0.000
  0.000  0.000  0.000  0.000  1.000
  1.000  0.000  0.000  0.000  0.000
    occupations:
  0.996 -0.000 -0.000  0.000  0.000
 -0.000  0.993 -0.000  0.000  0.000
 -0.000 -0.000  0.993  0.000  0.000
  0.000  0.000  0.000  1.002 -0.000
  0.000  0.000  0.000 -0.000  0.984
   spin  2
    eigenvalues: 
  0.065  0.144  0.144  0.148  0.270
    eigenvectors:
  0.000  0.000  0.000  1.000  0.000
  0.000  0.403  0.597  0.000  0.000
  0.000  0.597  0.403  0.000  0.000
  1.000  0.000  0.000  0.000  0.000
  0.000  0.000  0.000  0.000  1.000
    occupations:
  0.148 -0.000 -0.000  0.000  0.000
 -0.000  0.144 -0.000  0.000  0.000
 -0.000 -0.000  0.144  0.000  0.000
  0.000  0.000  0.000  0.065 -0.000
  0.000  0.000  0.000 -0.000  0.270
atomic mag. moment =     4.198391
atom    5   Tr[ns(na)] (up, down, total) =   4.97054  0.74360  5.71415
   spin  1
    eigenvalues: 
  0.984  0.994  0.994  0.997  1.002
    eigenvectors:
  0.000  0.000  0.000  1.000  0.000
  0.000  0.323  0.677  0.000  0.000
  0.000  0.677  0.323  0.000  0.000
  0.000  0.000  0.000  0.000  1.000
  1.000  0.000  0.000  0.000  0.000
    occupations:
  0.997 -0.000 -0.000  0.000  0.000
 -0.000  0.994 -0.000  0.000  0.000
 -0.000 -0.000  0.994  0.000  0.000
  0.000  0.000  0.000  1.002 -0.000
  0.000  0.000  0.000 -0.000  0.984
   spin  2
    eigenvalues: 
  0.065  0.136  0.144  0.144  0.255
    eigenvectors:
  0.000  1.000  0.000  0.000  0.000
  0.000  0.000  0.355  0.645  0.000
  0.000  0.000  0.645  0.355  0.000
  1.000  0.000  0.000  0.000  0.000
  0.000  0.000  0.000  0.000  1.000
    occupations:
  0.136 -0.000 -0.000  0.000  0.000
 -0.000  0.144 -0.000  0.000  0.000
 -0.000 -0.000  0.144  0.000  0.000
  0.000  0.000  0.000  0.065 -0.000
  0.000  0.000  0.000 -0.000  0.255
atomic mag. moment =     4.226938
atom    6   Tr[ns(na)] (up, down, total) =   0.74192  4.97093  5.71285
   spin  1
    eigenvalues: 
  0.065  0.136  0.142  0.142  0.256
    eigenvectors:
  0.000  1.000  0.000  0.000  0.000
  0.000  0.000  0.308  0.692  0.000
  0.000  0.000  0.692  0.308  0.000
  1.000  0.000  0.000  0.000  0.000
  0.000  0.000  0.000  0.000  1.000
    occupations:
  0.136 -0.000 -0.000  0.000  0.000
 -0.000  0.142 -0.000  0.000  0.000
 -0.000 -0.000  0.142  0.000  0.000
  0.000  0.000  0.000  0.065 -0.000
  0.000  0.000  0.000 -0.000  0.256
   spin  2
    eigenvalues: 
  0.984  0.993  0.993  0.997  1.002
    eigenvectors:
  0.000  0.000  0.000  1.000  0.000
  0.000  0.301  0.699  0.000  0.000
  0.000  0.699  0.301  0.000  0.000
  0.000  0.000  0.000  0.000  1.000
  1.000  0.000  0.000  0.000  0.000
    occupations:
  0.997 -0.000 -0.000  0.000  0.000
 -0.000  0.993 -0.000  0.000  0.000
 -0.000 -0.000  0.993  0.000  0.000
  0.000  0.000  0.000  1.002 -0.000
  0.000  0.000  0.000 -0.000  0.984
atomic mag. moment =    -4.229012
atom    7   Tr[ns(na)] (up, down, total) =   0.76310  4.96991  5.73301
   spin  1
    eigenvalues: 
  0.065  0.141  0.141  0.147  0.268
    eigenvectors:
  0.000  0.000  0.000  1.000  0.000
  0.000  0.273  0.727  0.000  0.000
  0.000  0.727  0.273  0.000  0.000
  1.000  0.000  0.000  0.000  0.000
  0.000  0.000  0.000  0.000  1.000
    occupations:
  0.147 -0.000 -0.000  0.000  0.000
 -0.000  0.141 -0.000  0.000  0.000
 -0.000 -0.000  0.141  0.000  0.000
  0.000  0.000  0.000  0.065 -0.000
  0.000  0.000  0.000 -0.000  0.268
   spin  2
    eigenvalues: 
  0.985  0.993  0.993  0.997  1.002
    eigenvectors:
  0.000  0.000  0.000  1.000  0.000
  0.000  0.378  0.622  0.000  0.000
  0.000  0.622  0.378  0.000  0.000
  0.000  0.000  0.000  0.000  1.000
  1.000  0.000  0.000  0.000  0.000
    occupations:
  0.997 -0.000 -0.000  0.000  0.000
 -0.000  0.993 -0.000  0.000  0.000
 -0.000 -0.000  0.993  0.000  0.000
  0.000  0.000  0.000  1.002 -0.000
  0.000  0.000  0.000 -0.000  0.985
atomic mag. moment =    -4.206819
atom    8   Tr[ns(na)] (up, down, total) =   0.74192  4.97093  5.71285
   spin  1
    eigenvalues: 
  0.065  0.136  0.142  0.142  0.256
    eigenvectors:
  0.000  1.000  0.000  0.000  0.000
  0.000  0.000  0.317  0.683  0.000
  0.000  0.000  0.683  0.317  0.000
  1.000  0.000  0.000  0.000  0.000
  0.000  0.000  0.000  0.000  1.000
    occupations:
  0.136 -0.000 -0.000  0.000  0.000
 -0.000  0.142 -0.000  0.000  0.000
 -0.000 -0.000  0.142  0.000  0.000
  0.000  0.000  0.000  0.065 -0.000
  0.000  0.000  0.000 -0.000  0.256
   spin  2
    eigenvalues: 
  0.984  0.993  0.993  0.997  1.002
    eigenvectors:
  0.000  0.000  0.000  1.000  0.000
  0.000  0.381  0.619  0.000  0.000
  0.000  0.619  0.381  0.000  0.000
  0.000  0.000  0.000  0.000  1.000
  1.000  0.000  0.000  0.000  0.000
    occupations:
  0.997 -0.000 -0.000  0.000  0.000
 -0.000  0.993 -0.000  0.000  0.000
 -0.000 -0.000  0.993  0.000  0.000
  0.000  0.000  0.000  1.002 -0.000
  0.000  0.000  0.000 -0.000  0.984
atomic mag. moment =    -4.229012
N of occupied +U levels =   45.799907
 --- exit write_ns ---

 ------ SPIN UP ------------


          k = 0.0000 0.0000 0.0000 ( 13925 PWs)   bands (ev):

   -66.7570 -66.7570 -66.6289 -66.6289 -66.6147 -62.1651 -62.1651 -62.0816
   -35.5238 -35.5238 -35.4758 -35.4758 -35.4758 -35.4758 -35.4035 -35.4035
   -35.3896 -35.3460 -35.3460 -35.3460 -35.3460 -35.3315 -35.3315 -30.9895
   -30.9895 -30.9845 -30.9845 -30.9845 -30.9845 -30.9147 -30.8985 -30.8985
     5.7487   5.8725   5.9731   6.3443   6.3837   7.0195   7.0370   7.6100
     8.2595   8.3522   8.3649   8.4108   8.4584   8.5481   8.6271   8.7463
     8.8038   8.8336   8.8920   8.9859   9.1087   9.1672   9.2110   9.2272
     9.2357   9.3626   9.4482   9.5737   9.5835   9.6469   9.7225   9.8768
     9.9165   9.9168  10.0281  10.1204  10.1204  10.1341  10.1569  10.1569
    10.1890  10.1944  10.1944  10.2497  10.3131  10.3384  10.3384  10.3392
    10.3392  10.3834  10.4895  10.5704  10.5724  10.5724  10.5798  10.5798
    10.5948  10.6044  10.6044  10.6050  10.6050  10.6554  10.6615  10.6615
    10.7504  10.7504  10.7711  10.7711  10.8242  10.8635  10.9933  11.0039
    11.0039  11.0404  11.0404  11.1043  11.1260  11.1878  11.2408  11.2863
    11.4022  11.4727  11.4727  11.4756  11.4930  11.4930  11.5634  11.6893
    11.7398  11.7751  11.9012  11.9012  11.9199  11.9199  11.9257  11.9628
    12.0400  12.0512  12.1153  12.1401  12.2244  12.2327  12.2415  12.2415
    12.5115  12.5343  12.5343  12.6955  12.7774  12.7774  12.8164  12.8659
    13.0097  13.0982  13.1120  13.1148  13.8565  13.9228  14.7918  15.3868
    16.4107  16.7810  16.7810  16.9194  16.9194  16.9593  16.9755  17.0694
    17.1083  17.1311  17.1941  17.2000  17.2000  17.4841  17.5486  17.6187
    18.2982  19.4947  19.7540  20.0540  20.0540  20.4013  20.4013  20.5259
    20.5259  21.4372

          k = 0.0000 0.0000-0.0484 ( 13878 PWs)   bands (ev):

   -66.7570 -66.7570 -66.6289 -66.6289 -66.6147 -62.1651 -62.1651 -62.0816
   -35.5238 -35.5238 -35.4758 -35.4758 -35.4758 -35.4758 -35.4035 -35.4035
   -35.3896 -35.3460 -35.3460 -35.3460 -35.3460 -35.3315 -35.3315 -30.9895
   -30.9895 -30.9845 -30.9845 -30.9845 -30.9845 -30.9147 -30.8985 -30.8985
     5.7625   5.8243   6.0956   6.1344   6.6535   6.6950   7.3597   7.4268
     8.3416   8.3522   8.4107   8.4155   8.4534   8.5483   8.5859   8.6462
     8.7457   8.8533   8.9930   9.0208   9.0507   9.0897   9.2593   9.2633
     9.3368   9.3762   9.3855   9.4699   9.5923   9.6816   9.7385   9.8768
     9.9112   9.9168  10.0282  10.1283  10.1283  10.1333  10.1373  10.1373
    10.1886  10.2356  10.2356  10.2560  10.2560  10.2560  10.3129  10.3877
    10.4565  10.4565  10.4616  10.4616  10.4750  10.5732  10.5732  10.5809
    10.5847  10.5847  10.6009  10.6324  10.6615  10.6615  10.7147  10.7147
    10.7286  10.7286  10.7972  10.7972  10.8678  10.8822  10.8822  10.8886
    10.9096  11.1234  11.1601  11.1789  11.1789  11.1878  11.2131  11.2860
    11.3150  11.3150  11.4050  11.4764  11.5654  11.6574  11.6574  11.6839
    11.7383  11.7617  11.7617  11.7744  11.9608  11.9631  11.9900  12.0053
    12.0053  12.0528  12.1153  12.1828  12.2078  12.2244  12.2293  12.2293
    12.5127  12.5361  12.5361  12.6950  12.7772  12.7772  12.8429  12.8660
    12.9495  13.0097  13.1148  13.3449  13.5442  14.2733  14.5531  15.5345
    16.3232  16.7810  16.7810  16.9195  16.9195  16.9592  16.9755  17.0694
    17.1083  17.1311  17.1941  17.2000  17.2000  17.4696  17.5927  17.6074
    18.4333  19.0539  20.1039  20.1039  20.2255  20.2255  20.5538  20.5674
    20.8811  20.8811

          k = 0.0000 0.1250 0.0000 ( 13879 PWs)   bands (ev):

   -66.7568 -66.7568 -66.6286 -66.6286 -66.6144 -62.1651 -62.1651 -62.0816
   -35.5236 -35.5236 -35.4775 -35.4775 -35.4757 -35.4757 -35.4034 -35.4034
   -35.3894 -35.3478 -35.3478 -35.3459 -35.3459 -35.3333 -35.3314 -30.9892
   -30.9892 -30.9867 -30.9867 -30.9844 -30.9844 -30.9145 -30.9006 -30.8983
     5.9922   6.1124   6.2110   6.5710   6.6045   7.2134   7.2197   7.7532
     8.2713   8.4554   8.4904   8.5359   8.5540   8.6528   8.7042   8.7203
     8.8238   8.8293   8.9608   9.0321   9.0621   9.1809   9.1952   9.2776
     9.2825   9.3339   9.3947   9.4004   9.5138   9.6133   9.7901   9.8050
     9.8060   9.8192   9.8691   9.9127   9.9211  10.0127  10.0267  10.0455
    10.0603  10.0740  10.1328  10.1539  10.2135  10.2269  10.3039  10.3121
    10.3335  10.3767  10.4284  10.4313  10.4836  10.5179  10.5793  10.5858
    10.6307  10.6472  10.6596  10.7225  10.7583  10.8067  10.8267  10.8273
    10.8629  10.8686  10.8976  10.9625  11.0510  11.0757  11.0822  11.1100
    11.1288  11.1460  11.1931  11.2183  11.2382  11.2471  11.2649  11.3638
    11.3922  11.4120  11.4648  11.5034  11.5354  11.6320  11.6903  11.6976
    11.7999  11.8035  11.8128  11.8330  11.9024  11.9830  11.9839  12.0034
    12.0226  12.1023  12.1278  12.1498  12.1728  12.1933  12.2160  12.3822
    12.3838  12.4519  12.6034  12.6287  12.6966  12.7633  12.8563  12.8699
    13.0092  13.0103  13.0770  13.0788  13.8965  13.9949  14.9205  15.5011
    16.5098  16.5256  16.7723  16.9003  16.9087  16.9509  16.9672  17.0333
    17.0478  17.0986  17.1128  17.2034  17.3146  17.4413  17.5984  17.9375
    18.4577  18.6077  18.9342  19.1181  19.8349  19.8680  19.9013  20.0368
    20.6530  20.9401

          k = 0.0000 0.1250-0.0484 ( 13868 PWs)   bands (ev):

   -66.7568 -66.7568 -66.6286 -66.6286 -66.6144 -62.1651 -62.1651 -62.0816
   -35.5236 -35.5236 -35.4775 -35.4775 -35.4757 -35.4757 -35.4034 -35.4034
   -35.3894 -35.3478 -35.3478 -35.3459 -35.3459 -35.3333 -35.3314 -30.9892
   -30.9892 -30.9867 -30.9867 -30.9844 -30.9844 -30.9145 -30.9006 -30.8983
     6.0057   6.0659   6.3282   6.3682   6.8646   6.9019   7.5399   7.5670
     8.3740   8.4689   8.4922   8.5240   8.5505   8.5552   8.6591   8.7427
     8.8220   8.8818   8.9824   9.0396   9.0711   9.1706   9.1930   9.2338
     9.2708   9.3144   9.3894   9.5108   9.5161   9.5552   9.7606   9.7910
     9.8036   9.8699   9.8931   9.9126   9.9214   9.9944  10.0162  10.0231
    10.0569  10.0985  10.1342  10.1463  10.2321  10.2639  10.2875  10.3001
    10.3068  10.3396  10.4508  10.4550  10.4896  10.5639  10.5764  10.5963
    10.6245  10.6297  10.6537  10.6556  10.7292  10.8191  10.8265  10.8491
    10.8626  10.9162  10.9222  10.9764  11.0554  11.0612  11.0809  11.0971
    11.1022  11.1223  11.2009  11.2094  11.2281  11.2489  11.2603  11.3550
    11.3947  11.4353  11.5156  11.5323  11.5583  11.6159  11.6317  11.7020
    11.7099  11.7836  11.8147  11.8907  11.9455  11.9943  11.9991  12.0103
    12.0433  12.0983  12.1109  12.1145  12.1407  12.1933  12.2332  12.3892
    12.3941  12.4500  12.6016  12.6257  12.6969  12.8038  12.8562  12.8705
    12.8902  13.0092  13.0102  13.3589  13.5487  14.3921  14.6332  15.6739
    16.3296  16.6880  16.7120  16.9003  16.9087  16.9532  16.9669  17.0333
    17.0478  17.0979  17.1141  17.2034  17.3146  17.4264  17.6855  17.7729
    18.6308  18.7749  18.8174  19.2485  19.3793  19.4581  20.3869  20.4197
    20.6763  20.8417

          k = 0.0000 0.2500 0.0000 ( 13848 PWs)   bands (ev):

   -66.7566 -66.7566 -66.6285 -66.6285 -66.6143 -62.1647 -62.1647 -62.0812
   -35.5232 -35.5232 -35.4817 -35.4817 -35.4754 -35.4754 -35.4030 -35.4030
   -35.3890 -35.3520 -35.3520 -35.3457 -35.3457 -35.3375 -35.3312 -30.9920
   -30.9920 -30.9887 -30.9887 -30.9841 -30.9841 -30.9139 -30.9060 -30.8980
     6.6812   6.7884   6.8802   7.1947   7.2094   7.6802   7.6914   8.0641
     8.2390   8.4745   8.4959   8.6883   8.7146   8.7260   8.7949   8.8360
     8.8512   8.8875   8.9129   8.9554   8.9845   9.0173   9.0575   9.2379
     9.3375   9.3831   9.4461   9.4651   9.5184   9.5762   9.6163   9.6195
     9.6550   9.6670   9.6723   9.7529   9.7684   9.8047   9.8302   9.8889
     9.9663   9.9884  10.0336  10.1159  10.1455  10.1527  10.2250  10.2786
    10.3475  10.4991  10.5266  10.5494  10.5652  10.5914  10.6732  10.7110
    10.7779  10.7799  10.8018  10.8793  10.9173  10.9560  10.9827  11.0079
    11.0751  11.0818  11.1143  11.1642  11.1674  11.2063  11.2339  11.3025
    11.3331  11.3663  11.3747  11.3919  11.4539  11.4917  11.4944  11.5779
    11.5962  11.6112  11.6422  11.6762  11.6781  11.7259  11.7307  11.7492
    11.8067  11.8079  11.8804  11.8980  11.9018  11.9560  11.9855  12.0140
    12.0576  12.0598  12.0697  12.1311  12.1318  12.2278  12.2435  12.2967
    12.4319  12.5140  12.5780  12.5790  12.7505  12.7555  12.9154  12.9273
    12.9771  13.0147  13.0465  13.0611  14.0116  14.1366  15.1748  15.5661
    16.0230  16.0730  16.1005  16.1948  16.4612  16.7272  16.8036  16.8638
    16.8724  17.0353  17.0598  17.0665  17.2341  17.3105  17.3376  17.3563
    17.4415  17.4428  17.8791  17.9697  18.2979  18.5081  18.5344  18.8583
    19.4133  20.3949

          k = 0.0000 0.2500-0.0484 ( 13842 PWs)   bands (ev):

   -66.7566 -66.7566 -66.6285 -66.6285 -66.6143 -62.1647 -62.1647 -62.0812
   -35.5232 -35.5232 -35.4817 -35.4817 -35.4754 -35.4754 -35.4030 -35.4030
   -35.3890 -35.3520 -35.3520 -35.3457 -35.3457 -35.3375 -35.3312 -30.9920
   -30.9920 -30.9887 -30.9887 -30.9841 -30.9841 -30.9139 -30.9060 -30.8980
     6.6930   6.7485   6.9778   7.0206   7.4289   7.4483   7.8854   7.9538
     8.3216   8.3723   8.6026   8.6087   8.6996   8.7765   8.8176   8.8230
     8.8371   8.8808   8.8928   8.9735   8.9834   9.0428   9.0474   9.2500
     9.2550   9.4461   9.4650   9.5014   9.5189   9.5756   9.5868   9.6198
     9.6424   9.6544   9.6675   9.6734   9.7709   9.8298   9.8832   9.9438
     9.9750   9.9867  10.0282  10.0513  10.1125  10.1508  10.2516  10.2997
    10.3451  10.4999  10.5419  10.5437  10.5513  10.6070  10.6637  10.7269
    10.7386  10.7671  10.8164  10.8966  10.9068  10.9651  10.9826  11.0087
    11.0734  11.0780  11.1306  11.1400  11.1970  11.2092  11.2512  11.2569
    11.3422  11.3742  11.3803  11.3998  11.4295  11.4740  11.5093  11.5346
    11.6121  11.6292  11.6400  11.6783  11.7083  11.7274  11.7286  11.7671
    11.8048  11.8340  11.8499  11.8668  11.9319  11.9329  11.9453  12.0011
    12.0554  12.0694  12.1157  12.1310  12.1449  12.2234  12.2339  12.3192
    12.3870  12.5393  12.5759  12.6564  12.7182  12.7509  12.7519  12.9152
    12.9282  13.0464  13.0611  13.4062  13.5469  14.6379  14.7899  15.8602
    15.8975  16.0728  16.0941  16.1530  16.4664  16.7272  16.8201  16.8638
    16.8699  17.0353  17.0603  17.0650  17.2311  17.3070  17.3105  17.3563
    17.4428  17.6225  17.7013  18.0440  18.2446  18.2495  18.8184  18.9027
    19.5408  19.8523

          k = 0.0000 0.3750 0.0000 ( 13856 PWs)   bands (ev):

   -66.7572 -66.7572 -66.6291 -66.6291 -66.6149 -62.1637 -62.1637 -62.0802
   -35.5228 -35.5228 -35.4858 -35.4858 -35.4752 -35.4752 -35.4026 -35.4026
   -35.3886 -35.3561 -35.3561 -35.3454 -35.3454 -35.3416 -35.3310 -30.9974
   -30.9974 -30.9881 -30.9881 -30.9837 -30.9837 -30.9133 -30.9114 -30.8977
     7.6425   7.7218   7.7919   7.9709   7.9883   8.1298   8.1337   8.1677
     8.1745   8.2742   8.2854   8.4234   8.4882   8.6201   8.7584   8.8720
     8.8929   8.9295   9.0562   9.0605   9.1490   9.1941   9.1987   9.2443
     9.2606   9.2652   9.2686   9.3114   9.3713   9.4227   9.4413   9.5637
     9.5862   9.6025   9.6187   9.7403   9.7566   9.7939   9.8571   9.8995
     9.9779   9.9796  10.0337  10.0606  10.1480  10.1763  10.1876  10.2937
    10.3218  10.3589  10.3957  10.4149  10.6191  10.6255  10.6287  10.8607
    10.8613  10.9671  11.0867  11.1125  11.1197  11.2279  11.2420  11.3070
    11.3622  11.3690  11.3778  11.4299  11.4382  11.4497  11.5110  11.5196
    11.5691  11.5805  11.5872  11.6028  11.6217  11.6644  11.6660  11.7084
    11.7165  11.7829  11.7979  11.8339  11.8370  11.8819  11.8832  11.9078
    12.0267  12.0528  12.0587  12.0643  12.1196  12.1357  12.1503  12.1533
    12.1717  12.2042  12.3159  12.3212  12.3601  12.3865  12.4740  12.4770
    12.5397  12.5640  12.6378  12.7094  12.8204  12.8749  12.9742  12.9800
    12.9833  13.0102  13.0949  13.1088  13.9543  13.9666  13.9917  14.2546
    14.3119  14.7960  14.8899  15.0650  15.0948  15.5717  15.6030  15.9726
    16.0816  16.6980  16.7613  16.8149  16.8549  16.9627  17.0047  17.0426
    17.1354  17.3281  17.5226  17.5262  17.6107  17.9304  18.0140  18.2361
    19.4325  19.4963

          k = 0.0000 0.3750-0.0484 ( 13872 PWs)   bands (ev):

   -66.7572 -66.7572 -66.6291 -66.6291 -66.6149 -62.1637 -62.1637 -62.0802
   -35.5228 -35.5228 -35.4858 -35.4858 -35.4752 -35.4752 -35.4026 -35.4026
   -35.3886 -35.3561 -35.3561 -35.3454 -35.3454 -35.3416 -35.3310 -30.9974
   -30.9974 -30.9881 -30.9881 -30.9837 -30.9837 -30.9133 -30.9114 -30.8977
     7.6509   7.6948   7.8500   7.8852   8.0609   8.0889   8.1487   8.1559
     8.2100   8.2173   8.3505   8.3734   8.5114   8.6128   8.7775   8.8144
     8.9396   8.9734   8.9985   9.0363   9.1941   9.1984   9.1987   9.2097
     9.2443   9.2651   9.3003   9.3603   9.3715   9.4227   9.4323   9.4717
     9.5629   9.6026   9.6670   9.7449   9.7907   9.8479   9.8568   9.8950
     9.9772   9.9796  10.0000  10.0458  10.0593  10.1408  10.2949  10.3050
    10.3164  10.3820  10.4127  10.4555  10.4976  10.6322  10.6416  10.8506
    10.9199  10.9339  11.0461  11.1247  11.1776  11.2210  11.2556  11.3504
    11.3522  11.3845  11.4078  11.4369  11.4400  11.4531  11.4676  11.4786
    11.4796  11.5507  11.5847  11.6080  11.6520  11.6698  11.6828  11.7030
    11.7262  11.7595  11.7719  11.7810  11.8583  11.8824  11.8928  11.9900
    11.9922  12.0335  12.0688  12.0755  12.1207  12.1289  12.1409  12.1463
    12.2534  12.3046  12.3229  12.3297  12.4104  12.4268  12.4668  12.4783
    12.5017  12.5160  12.5690  12.6496  12.7094  12.8178  12.8750  12.9748
    13.0101  13.0948  13.1088  13.4948  13.5223  14.0352  14.0436  14.4096
    14.4138  14.6291  14.6657  15.1697  15.2656  15.5608  15.5853  15.9336
    16.0645  16.6980  16.7712  16.8149  16.8568  16.9627  17.0049  17.0413
    17.1332  17.3365  17.5226  17.5262  17.6107  17.9326  18.0091  18.2413
    19.4310  19.5310

          k = 0.0000-0.5000 0.0000 ( 13918 PWs)   bands (ev):

   -66.7576 -66.7576 -66.6295 -66.6295 -66.6153 -62.1631 -62.1631 -62.0797
   -35.5226 -35.5226 -35.4874 -35.4874 -35.4751 -35.4751 -35.4024 -35.4024
   -35.3885 -35.3577 -35.3577 -35.3453 -35.3453 -35.3432 -35.3309 -30.9997
   -30.9997 -30.9879 -30.9879 -30.9836 -30.9836 -30.9137 -30.9131 -30.8975
     8.0895   8.0967   8.1259   8.1365   8.1810   8.2679   8.2794   8.4070
     8.4119   8.4310   8.4689   8.5002   8.5025   8.6202   8.6838   8.7614
     8.8397   8.8689   8.9576   8.9664   9.0939   9.0965   9.1556   9.1595
     9.1618   9.2540   9.2922   9.3097   9.4643   9.5407   9.5491   9.5669
     9.6771   9.6866   9.7041   9.7145   9.7657   9.7874   9.7912   9.8149
     9.8307   9.9212  10.0163  10.0208  10.0499  10.0906  10.0921  10.2623
    10.3546  10.3783  10.3932  10.4061  10.5573  10.5928  10.6135  10.7247
    10.8040  10.9643  11.2511  11.3332  11.3375  11.3500  11.4096  11.4247
    11.4635  11.4891  11.5042  11.5219  11.5501  11.5531  11.5690  11.5728
    11.5771  11.6006  11.6023  11.6548  11.6725  11.7065  11.7450  11.7604
    11.8160  11.8421  11.8439  11.8695  11.8785  12.0432  12.0539  12.0718
    12.1760  12.2553  12.3916  12.4040  12.4510  12.4561  12.4705  12.4750
    12.5078  12.5227  12.5247  12.5432  12.5486  12.5975  12.6699  12.7148
    12.7236  12.8035  12.8538  12.8719  12.9141  12.9486  12.9604  13.0148
    13.0326  13.1232  13.1240  13.2102  13.2973  13.3442  13.4023  13.7473
    13.8288  13.8600  13.8924  14.3657  14.3938  14.4543  14.4966  14.8130
    14.8550  16.5263  16.6506  16.7952  16.7960  16.8338  16.8656  16.8692
    17.0134  17.0580  17.5993  17.5997  17.6823  17.9761  17.9922  18.0722
    19.4432  19.4552

          k = 0.0000-0.5000-0.0484 ( 13892 PWs)   bands (ev):

   -66.7576 -66.7576 -66.6295 -66.6295 -66.6153 -62.1631 -62.1631 -62.0797
   -35.5226 -35.5226 -35.4874 -35.4874 -35.4751 -35.4751 -35.4024 -35.4024
   -35.3885 -35.3577 -35.3577 -35.3453 -35.3453 -35.3432 -35.3309 -30.9997
   -30.9997 -30.9879 -30.9879 -30.9836 -30.9836 -30.9137 -30.9131 -30.8975
     8.0894   8.0971   8.1262   8.1350   8.1828   8.2630   8.2851   8.3946
     8.4034   8.4694   8.4766   8.4789   8.4953   8.6433   8.6522   8.7550
     8.8936   8.9099   8.9107   8.9165   9.0939   9.0965   9.1556   9.1618
     9.1802   9.2659   9.2922   9.3098   9.4642   9.5320   9.5407   9.5547
     9.6776   9.6871   9.7081   9.7145   9.7648   9.7824   9.7912   9.8156
     9.8295   9.9223  10.0163  10.0205  10.0499  10.1334  10.1786  10.2165
    10.2627  10.3545  10.3783  10.4000  10.5928  10.6136  10.6359  10.7248
    10.8040  10.9630  11.2652  11.3248  11.3301  11.3532  11.4137  11.4275
    11.4666  11.4839  11.5070  11.5223  11.5508  11.5573  11.5672  11.5740
    11.5745  11.5953  11.6006  11.6007  11.6630  11.7219  11.7434  11.7627
    11.8022  11.8389  11.8421  11.8767  11.9333  12.0483  12.0539  12.0917
    12.1710  12.2259  12.3919  12.4078  12.4410  12.4506  12.4733  12.4969
    12.5042  12.5122  12.5221  12.5396  12.5488  12.6020  12.6858  12.7155
    12.7236  12.7971  12.8355  12.8538  12.9139  12.9843  12.9911  13.0149
    13.0326  13.1232  13.1240  13.1497  13.2247  13.4296  13.5670  13.5947
    13.6330  14.0759  14.1137  14.1431  14.1612  14.6313  14.6533  14.7444
    14.8015  16.5297  16.6515  16.7952  16.7960  16.8337  16.8654  16.8666
    17.0141  17.0582  17.5993  17.5997  17.6823  17.9775  17.9909  18.0722
    19.4636  19.4702

          k = 0.1250 0.1250 0.0000 ( 13839 PWs)   bands (ev):

   -66.7565 -66.7565 -66.6283 -66.6283 -66.6141 -62.1651 -62.1651 -62.0817
   -35.5235 -35.5235 -35.4775 -35.4775 -35.4774 -35.4774 -35.4032 -35.4032
   -35.3893 -35.3477 -35.3477 -35.3477 -35.3477 -35.3332 -35.3332 -30.9890
   -30.9890 -30.9866 -30.9866 -30.9864 -30.9864 -30.9143 -30.9006 -30.9004
     6.2233   6.3416   6.4411   6.7925   6.8222   7.4101   7.4102   7.9135
     8.3300   8.5402   8.6251   8.6326   8.6768   8.7136   8.7471   8.7902
     8.8470   8.9505   9.0147   9.0531   9.1428   9.1750   9.2990   9.2994
     9.3674   9.3789   9.3801   9.4700   9.5277   9.5523   9.5658   9.7146
     9.7221   9.8076   9.8323   9.8539   9.8583   9.8616   9.8895   9.8911
     9.9261   9.9371  10.0430  10.0673  10.1485  10.1638  10.2884  10.3072
    10.3167  10.3513  10.3566  10.3776  10.4072  10.4369  10.5343  10.5349
    10.5621  10.5976  10.6226  10.6424  10.7244  10.7264  10.8237  10.8918
    10.8995  10.9084  11.0419  11.0651  11.0761  11.0858  11.0884  11.1430
    11.1467  11.1863  11.2480  11.2577  11.2781  11.3287  11.4216  11.4486
    11.4925  11.5007  11.5819  11.6032  11.6361  11.6510  11.6926  11.7189
    11.8401  11.9345  11.9349  11.9650  11.9702  11.9715  12.0173  12.0352
    12.0657  12.0921  12.1607  12.1736  12.1768  12.2716  12.3004  12.3536
    12.4474  12.5739  12.5864  12.5869  12.7090  12.7499  12.7593  12.8140
    12.8857  12.8873  13.0845  13.0990  13.9889  14.0975  15.0636  15.6498
    16.6116  16.6926  16.7025  16.8086  16.8130  16.8863  16.9598  16.9875
    17.0007  17.1468  17.1612  17.2072  17.2341  17.4572  17.6486  18.2806
    18.6517  19.0732  19.2037  19.2873  19.5393  19.5706  19.7411  20.0113
    20.0359  20.1898

          k = 0.1250 0.1250-0.0484 ( 13838 PWs)   bands (ev):

   -66.7565 -66.7565 -66.6283 -66.6283 -66.6141 -62.1651 -62.1651 -62.0817
   -35.5235 -35.5235 -35.4775 -35.4775 -35.4774 -35.4774 -35.4032 -35.4032
   -35.3893 -35.3477 -35.3477 -35.3477 -35.3477 -35.3332 -35.3332 -30.9890
   -30.9890 -30.9866 -30.9866 -30.9864 -30.9864 -30.9143 -30.9006 -30.9004
     6.2360   6.2974   6.5534   6.5954   7.0752   7.1096   7.7258   7.7265
     8.4210   8.5544   8.5660   8.6256   8.6326   8.6768   8.7903   8.8217
     8.8957   8.9341   8.9502   9.1220   9.1446   9.1863   9.2015   9.2886
     9.4081   9.4195   9.4264   9.4286   9.4929   9.5607   9.5646   9.7113
     9.7279   9.8091   9.8276   9.8547   9.8577   9.8885   9.8913   9.8918
     9.8954   9.9330  10.0552  10.0672  10.1487  10.1630  10.2781  10.3029
    10.3247  10.3484  10.3512  10.3755  10.4277  10.4399  10.5260  10.5306
    10.5476  10.6082  10.6256  10.6722  10.7225  10.7301  10.8004  10.8246
    10.9041  10.9664  11.0231  11.0678  11.0852  11.0970  11.1096  11.1202
    11.1696  11.1936  11.2279  11.2666  11.3013  11.3204  11.3501  11.4627
    11.4910  11.4967  11.5179  11.6427  11.6800  11.6858  11.7418  11.7492
    11.8067  11.8605  11.8617  11.9630  11.9632  11.9657  12.0112  12.0850
    12.1221  12.1229  12.1494  12.1607  12.2080  12.2401  12.2826  12.3448
    12.4501  12.5764  12.5876  12.5920  12.7299  12.7545  12.7795  12.8137
    12.8731  12.8875  12.8884  13.4163  13.6020  14.5236  14.7620  15.8271
    16.4506  16.6926  16.7164  16.8131  16.8858  16.9214  16.9464  16.9875
    17.0007  17.1276  17.1468  17.2071  17.2492  17.4250  17.8050  17.9609
    19.0659  19.1363  19.2325  19.2711  19.4248  19.4758  19.6289  19.8309
    20.0113  20.0965

          k = 0.1250 0.2500 0.0000 ( 13846 PWs)   bands (ev):

   -66.7562 -66.7562 -66.6281 -66.6281 -66.6139 -62.1649 -62.1649 -62.0814
   -35.5231 -35.5231 -35.4816 -35.4816 -35.4772 -35.4772 -35.4029 -35.4029
   -35.3889 -35.3519 -35.3519 -35.3474 -35.3474 -35.3374 -35.3329 -30.9918
   -30.9918 -30.9885 -30.9885 -30.9862 -30.9862 -30.9137 -30.9058 -30.9001
     6.8667   6.9777   7.0805   7.3961   7.4133   7.8868   7.8963   8.2537
     8.3807   8.5788   8.6028   8.7399   8.8045   8.8192   8.8455   8.9777
     8.9946   9.0175   9.0512   9.0719   9.1011   9.1430   9.1991   9.3360
     9.3902   9.4138   9.4798   9.4914   9.4929   9.5158   9.5410   9.6015
     9.6169   9.6381   9.6396   9.7070   9.7693   9.7812   9.8117   9.8895
     9.9122   9.9605   9.9939  10.0151  10.0557  10.1111  10.1731  10.2478
    10.3075  10.3137  10.3560  10.4108  10.4142  10.4353  10.4798  10.4997
    10.5753  10.6310  10.6584  10.7034  10.7300  10.7803  10.8768  10.8891
    10.9179  10.9707  11.0225  11.0682  11.0797  11.0834  11.2230  11.2719
    11.4053  11.4180  11.4589  11.4595  11.4924  11.4942  11.5084  11.5516
    11.6068  11.6097  11.6398  11.7284  11.7467  11.7583  11.8284  11.8288
    11.8897  11.8932  11.9188  11.9896  12.0150  12.0261  12.0650  12.0916
    12.0984  12.1623  12.1919  12.2314  12.3034  12.3222  12.4690  12.5209
    12.5797  12.6100  12.6154  12.6966  12.7033  12.7624  12.7731  12.7895
    12.8503  12.8931  13.1879  13.2207  14.2531  14.3562  15.3351  15.8093
    16.1644  16.2927  16.3646  16.4528  16.7274  16.8532  16.8899  16.9456
    17.0439  17.0527  17.1608  17.1771  17.1893  17.2418  17.3911  17.4866
    17.6054  17.6589  18.1479  18.2478  18.6142  18.7847  18.9635  19.0912
    19.4728  20.3977

          k = 0.1250 0.2500-0.0484 ( 13868 PWs)   bands (ev):

   -66.7562 -66.7562 -66.6281 -66.6281 -66.6139 -62.1649 -62.1649 -62.0814
   -35.5231 -35.5231 -35.4816 -35.4816 -35.4772 -35.4772 -35.4029 -35.4029
   -35.3889 -35.3519 -35.3519 -35.3474 -35.3474 -35.3374 -35.3329 -30.9918
   -30.9918 -30.9885 -30.9885 -30.9862 -30.9862 -30.9137 -30.9058 -30.9001
     6.8768   6.9417   7.1743   7.2230   7.6331   7.6555   8.0872   8.1468
     8.4533   8.4960   8.6992   8.7008   8.7442   8.8356   8.9177   8.9273
     8.9866   9.0293   9.0306   9.0998   9.1227   9.1421   9.1818   9.2863
     9.3976   9.4759   9.4810   9.4902   9.4916   9.5217   9.5420   9.5924
     9.6244   9.6389   9.6519   9.6619   9.7099   9.7898   9.8536   9.8684
     9.9584   9.9796   9.9887  10.0024  10.0641  10.1111  10.1760  10.2023
    10.3023  10.3194  10.3530  10.3786  10.4373  10.4748  10.4806  10.5220
    10.5475  10.6073  10.6756  10.7179  10.7440  10.7947  10.8469  10.8510
    10.9140  10.9694  11.0050  11.0543  11.1153  11.1792  11.1830  11.3056
    11.3084  11.4161  11.4306  11.4589  11.4873  11.5068  11.5378  11.5944
    11.6093  11.6174  11.6414  11.7307  11.7349  11.7658  11.8192  11.8463
    11.8550  11.8852  11.9000  11.9760  12.0137  12.0478  12.0978  12.0991
    12.1285  12.1316  12.1904  12.1997  12.2908  12.3542  12.4721  12.4879
    12.5773  12.6106  12.6883  12.7036  12.7380  12.7694  12.7749  12.7877
    12.8503  12.8842  12.8950  13.6368  13.7920  14.8069  15.0343  15.9964
    16.1234  16.2885  16.3849  16.3942  16.7802  16.7985  16.8210  16.9836
    17.0192  17.1428  17.1441  17.1676  17.1803  17.2423  17.3637  17.4315
    17.6016  17.9496  17.9693  18.3053  18.5400  18.5429  19.0891  19.2000
    19.7695  19.8765

          k = 0.1250 0.3750 0.0000 ( 13875 PWs)   bands (ev):

   -66.7567 -66.7567 -66.6285 -66.6285 -66.6143 -62.1640 -62.1640 -62.0805
   -35.5227 -35.5227 -35.4857 -35.4857 -35.4769 -35.4769 -35.4025 -35.4025
   -35.3885 -35.3559 -35.3559 -35.3472 -35.3472 -35.3415 -35.3327 -30.9972
   -30.9972 -30.9880 -30.9880 -30.9858 -30.9858 -30.9132 -30.9112 -30.8998
     7.7330   7.8269   7.9296   8.1413   8.1500   8.3122   8.3290   8.3427
     8.3503   8.4301   8.4342   8.5714   8.6281   8.7387   8.8840   8.9080
     9.0018   9.0181   9.0601   9.1391   9.2019   9.2160   9.2526   9.2552
     9.2640   9.3053   9.3733   9.4067   9.4266   9.4422   9.4826   9.5316
     9.5353   9.5934   9.5983   9.7001   9.7223   9.8047   9.8334   9.8802
     9.8834   9.9442   9.9668  10.0101  10.1218  10.2275  10.2714  10.2838
    10.3033  10.3787  10.3792  10.4693  10.5326  10.5469  10.5944  10.6687
    10.7539  10.8354  10.8683  10.8708  10.9993  11.0215  11.1236  11.1366
    11.1810  11.1836  11.2119  11.2887  11.3421  11.3511  11.4577  11.4681
    11.4824  11.5237  11.5390  11.5661  11.6007  11.6259  11.6563  11.7090
    11.7355  11.7528  11.7689  11.8066  11.8419  11.8576  11.8830  11.8990
    11.9195  11.9479  11.9798  11.9902  12.0369  12.0847  12.1108  12.1441
    12.2599  12.2641  12.3685  12.3965  12.4894  12.4995  12.5028  12.5169
    12.5722  12.5970  12.6829  12.7037  12.7818  12.7960  12.8558  12.9029
    13.0737  13.1780  13.6388  13.6747  14.3453  14.3838  14.3961  14.6553
    14.7288  15.1323  15.1571  15.4302  15.5046  15.9417  15.9557  16.4894
    16.4986  16.7635  16.8292  16.8918  17.0894  17.0897  17.1235  17.1359
    17.1801  17.2337  17.6404  17.6894  17.9779  17.9939  18.1198  18.3935
    19.4734  19.5189

          k = 0.1250 0.3750-0.0484 ( 13882 PWs)   bands (ev):

   -66.7567 -66.7567 -66.6285 -66.6285 -66.6143 -62.1640 -62.1640 -62.0805
   -35.5227 -35.5227 -35.4857 -35.4857 -35.4769 -35.4769 -35.4025 -35.4025
   -35.3885 -35.3559 -35.3559 -35.3472 -35.3472 -35.3415 -35.3327 -30.9972
   -30.9972 -30.9880 -30.9880 -30.9858 -30.9858 -30.9132 -30.9112 -30.8998
     7.7387   7.8062   7.9843   8.0395   8.2584   8.2620   8.3251   8.3476
     8.3713   8.3780   8.5063   8.5136   8.6554   8.7302   8.8801   8.9274
     8.9931   8.9941   9.0698   9.1429   9.1972   9.2124   9.2541   9.2697
     9.2928   9.3142   9.3714   9.3942   9.4056   9.4191   9.4751   9.5091
     9.5413   9.5596   9.6880   9.7437   9.7529   9.7600   9.8242   9.8354
     9.9107   9.9193   9.9620  10.0055  10.1289  10.1937  10.2627  10.2977
    10.3723  10.3756  10.4050  10.4699  10.4945  10.5437  10.5744  10.6584
    10.7744  10.7788  10.8825  10.9653  11.0024  11.0089  11.0648  11.1147
    11.1743  11.1765  11.2717  11.3020  11.3113  11.3698  11.4121  11.4697
    11.4997  11.5200  11.5648  11.5913  11.5994  11.6208  11.6351  11.6965
    11.7413  11.7414  11.7676  11.8366  11.8398  11.8567  11.8815  11.9059
    11.9164  11.9455  11.9767  11.9806  12.0318  12.0831  12.1121  12.1572
    12.2101  12.3290  12.3473  12.4152  12.4766  12.4855  12.5009  12.5333
    12.5950  12.6005  12.6099  12.7107  12.7832  12.8551  12.8835  12.9153
    12.9402  13.3580  13.3824  13.9537  14.0528  14.4378  14.4563  14.7390
    14.8094  15.0273  15.0635  15.4571  15.5296  15.9834  15.9863  16.4585
    16.4587  16.7633  16.8390  16.9022  17.0897  17.0982  17.1179  17.1411
    17.1685  17.2360  17.6438  17.6777  17.9817  17.9972  18.1152  18.4045
    19.4959  19.5825

          k = 0.1250-0.5000 0.0000 ( 13890 PWs)   bands (ev):

   -66.7570 -66.7570 -66.6289 -66.6289 -66.6147 -62.1635 -62.1635 -62.0800
   -35.5226 -35.5226 -35.4873 -35.4873 -35.4768 -35.4768 -35.4023 -35.4023
   -35.3884 -35.3576 -35.3576 -35.3471 -35.3471 -35.3431 -35.3326 -30.9994
   -30.9994 -30.9877 -30.9877 -30.9857 -30.9857 -30.9134 -30.9130 -30.8996
     8.2626   8.2730   8.2788   8.2990   8.3041   8.4085   8.4244   8.5322
     8.5383   8.5592   8.5615   8.6120   8.6391   8.6449   8.7488   8.7548
     8.9094   8.9220   8.9716   9.0764   9.0956   9.1134   9.1550   9.1793
     9.1837   9.2617   9.3080   9.3376   9.4750   9.5043   9.5053   9.5530
     9.6024   9.6129   9.7005   9.7626   9.7884   9.8051   9.8124   9.8458
     9.8609   9.8803   9.8907   9.8920   9.9335  10.3551  10.3844  10.3948
    10.3949  10.4557  10.4569  10.4968  10.6056  10.6355  10.6480  10.7230
    10.8128  10.9262  10.9366  10.9808  11.0340  11.1841  11.2165  11.2991
    11.3006  11.3190  11.3686  11.4178  11.4980  11.5180  11.5520  11.5552
    11.5853  11.5913  11.6042  11.6355  11.7103  11.7537  11.7567  11.7571
    11.7906  11.8305  11.8705  11.9524  11.9726  12.0060  12.0543  12.0662
    12.0674  12.0846  12.1150  12.1173  12.1463  12.2374  12.2472  12.2535
    12.2717  12.3870  12.3954  12.4864  12.5164  12.5273  12.6254  12.6306
    12.6322  12.6591  12.6622  12.8444  12.8477  12.8521  12.8894  13.1856
    13.2058  13.2405  13.2530  13.6008  13.7471  13.7938  13.8644  14.2892
    14.3755  14.3800  14.4667  14.9001  15.0052  15.1263  15.2072  15.5811
    15.6194  16.6826  16.7315  16.9196  16.9285  16.9756  17.0472  17.0513
    17.0670  17.0937  17.7414  17.7519  17.8829  18.0090  18.0427  18.1122
    19.4433  19.4451

          k = 0.1250-0.5000-0.0484 ( 13872 PWs)   bands (ev):

   -66.7570 -66.7570 -66.6289 -66.6289 -66.6147 -62.1635 -62.1635 -62.0800
   -35.5226 -35.5226 -35.4873 -35.4873 -35.4768 -35.4768 -35.4023 -35.4023
   -35.3884 -35.3576 -35.3576 -35.3471 -35.3471 -35.3431 -35.3326 -30.9994
   -30.9994 -30.9877 -30.9877 -30.9857 -30.9857 -30.9134 -30.9130 -30.8996
     8.2626   8.2735   8.2788   8.2970   8.3057   8.4128   8.4193   8.5292
     8.5321   8.5603   8.5861   8.5922   8.6463   8.6474   8.7432   8.7473
     8.9266   8.9320   8.9640   9.0355   9.1148   9.1154   9.1591   9.1760
     9.1914   9.2818   9.3039   9.3298   9.4708   9.4787   9.5087   9.5198
     9.6536   9.6593   9.6860   9.7056   9.8072   9.8125   9.8212   9.8504
     9.8635   9.8779   9.8786   9.8941   9.9338  10.3466  10.3471  10.4020
    10.4173  10.4567  10.4580  10.4745  10.6321  10.6465  10.6615  10.7197
    10.8128  10.9168  10.9260  10.9879  11.0587  11.1316  11.2238  11.2780
    11.3307  11.3423  11.3454  11.4049  11.5104  11.5174  11.5519  11.5648
    11.5856  11.5972  11.6160  11.6319  11.6870  11.7450  11.7637  11.7826
    11.7866  11.8259  11.8697  11.9393  11.9529  12.0232  12.0478  12.0660
[...]
    11.5568  11.5792  11.6443  11.6548  11.7281  11.7835  11.8696  11.8898
    11.9300  11.9771  11.9807  11.9940  12.0427  12.0845  12.0971  12.1337
    12.1632  12.2293  12.3193  12.3362  12.4720  12.5046  12.5770  12.6064
    12.6220  12.6824  12.7143  12.7218  12.9236  13.0260  13.4343  13.4471
    13.9392  14.0601  14.4955  14.6973  15.1151  15.1569  15.3401  15.3715
    15.4366  15.6091  15.6403  16.1257  16.1885  16.7794  16.8521  16.8679
    16.9140  16.9841  16.9988  17.0887  17.1229  17.1886  17.1905  17.2185
    17.2487  17.3238  17.4508  17.5153  17.5635  17.8331  17.9130  18.1172
    18.1324  18.1680  18.2491  18.3884  18.4976  18.5690  18.9492  19.1814
    19.3764  19.5621

          k = 0.2500 0.3750-0.0484 ( 13916 PWs)   bands (ev):

   -66.7492 -66.7492 -66.6430 -62.1741 -62.1741 -62.0753 -62.0753 -62.0579
   -35.5174 -35.5174 -35.4780 -35.4780 -35.4737 -35.4737 -35.4195 -35.3696
   -35.3652 -31.0063 -31.0063 -31.0006 -31.0006 -30.9974 -30.9974 -30.9064
   -30.9064 -30.9053 -30.9053 -30.9006 -30.9006 -30.8892 -30.8869 -30.8835
     7.9043   8.1251   8.3393   8.3850   8.5425   8.6552   8.7240   8.7468
     8.7592   8.8878   8.9034   8.9155   9.0174   9.0893   9.1927   9.2216
     9.2349   9.2549   9.2704   9.3128   9.3240   9.3571   9.3882   9.4617
     9.4733   9.5147   9.5865   9.6010   9.6649   9.6815   9.6960   9.7264
     9.7363   9.7941   9.8023   9.8540   9.8726   9.9302   9.9440  10.0352
    10.0858  10.1282  10.1787  10.2195  10.2601  10.2784  10.3347  10.3563
    10.4731  10.4987  10.5601  10.5647  10.5836  10.5921  10.6662  10.7202
    10.7925  10.8075  10.8544  10.8620  10.8659  10.9405  10.9451  11.0449
    11.1040  11.1398  11.2241  11.2691  11.2747  11.3300  11.3871  11.4457
    11.5784  11.6066  11.6484  11.6597  11.7259  11.7467  11.8694  11.8996
    11.9453  11.9706  11.9821  12.0054  12.0499  12.0647  12.0785  12.1577
    12.1646  12.2151  12.3274  12.3326  12.4719  12.5047  12.5804  12.6193
    12.6370  12.6434  12.6846  12.7892  12.8567  13.1082  13.2781  13.6353
    13.7767  14.2562  14.3182  14.8284  15.0148  15.1964  15.2311  15.5022
    15.5257  15.5599  15.5712  16.1272  16.1926  16.7726  16.8442  16.8891
    16.9120  16.9861  17.0295  17.0340  17.1603  17.1632  17.1981  17.2178
    17.2250  17.3544  17.4390  17.5162  17.5630  17.8336  17.9261  17.9970
    18.1758  18.2241  18.3581  18.3686  18.5169  18.5209  18.8226  19.1914
    19.3739  19.5679

          k = 0.2500-0.5000 0.0000 ( 13940 PWs)   bands (ev):

   -66.7495 -66.7494 -66.6432 -62.1737 -62.1737 -62.0750 -62.0750 -62.0575
   -35.5173 -35.5173 -35.4797 -35.4797 -35.4736 -35.4736 -35.4193 -35.3712
   -35.3651 -31.0085 -31.0085 -31.0004 -31.0004 -30.9972 -30.9972 -30.9086
   -30.9086 -30.9051 -30.9051 -30.9004 -30.9004 -30.8915 -30.8867 -30.8833
     8.3204   8.3211   8.4976   8.5580   8.6637   8.7320   8.7392   8.7534
     8.7923   8.8179   8.8208   8.9019   8.9369   9.0292   9.1268   9.1337
     9.1340   9.1344   9.1407   9.2202   9.2282   9.3217   9.3844   9.3866
     9.4324   9.5114   9.5589   9.6111   9.6294   9.6389   9.6581   9.7198
     9.7403   9.7696   9.8520   9.9092   9.9434   9.9544  10.0324  10.0510
    10.1037  10.1540  10.3673  10.3727  10.4324  10.4722  10.4862  10.5389
    10.5752  10.6915  10.6964  10.8046  10.8448  10.8560  10.8694  10.9062
    10.9189  10.9341  10.9625  11.0087  11.0155  11.0751  11.1483  11.1573
    11.2057  11.2063  11.2080  11.2273  11.2835  11.2999  11.5073  11.6107
    11.6520  11.6680  11.7144  11.7372  11.8403  11.8412  11.8799  11.8840
    11.8906  11.9461  11.9840  12.0225  12.0555  12.1911  12.2408  12.2798
    12.3046  12.3053  12.3528  12.4496  12.4771  12.4844  12.5324  12.7726
    12.7944  12.9556  12.9629  12.9720  13.1440  13.4320  13.5862  13.6607
    13.6771  13.9590  13.9874  14.0561  14.3871  14.5736  14.7075  14.7305
    14.8754  15.0703  15.1653  15.5354  16.0369  16.4999  16.7568  16.9280
    16.9623  16.9683  17.0306  17.0586  17.0597  17.0694  17.1338  17.1342
    17.1797  17.4423  17.4727  17.4814  17.5864  17.7506  17.9926  18.1048
    18.1571  18.1928  18.1963  18.2877  18.3252  18.3471  18.6067  18.6203
    19.5706  19.6328

          k = 0.2500-0.5000-0.0484 ( 13912 PWs)   bands (ev):

   -66.7495 -66.7494 -66.6432 -62.1737 -62.1737 -62.0750 -62.0750 -62.0575
   -35.5173 -35.5173 -35.4797 -35.4797 -35.4736 -35.4736 -35.4193 -35.3712
   -35.3651 -31.0085 -31.0085 -31.0004 -31.0004 -30.9972 -30.9972 -30.9086
   -30.9086 -30.9051 -30.9051 -30.9004 -30.9004 -30.8915 -30.8867 -30.8833
     8.3206   8.3211   8.4970   8.5532   8.6775   8.7384   8.7388   8.7506
     8.7850   8.8140   8.8142   8.9011   8.9371   9.0371   9.1268   9.1279
     9.1328   9.1402   9.1446   9.2198   9.2250   9.3501   9.3557   9.3841
     9.4323   9.4967   9.6005   9.6094   9.6131   9.6428   9.6541   9.6849
     9.7506   9.8174   9.8273   9.9041   9.9257   9.9820  10.0262  10.0411
    10.1118  10.1540  10.3687  10.3725  10.4324  10.4684  10.4848  10.5389
    10.5715  10.6999  10.7004  10.8197  10.8217  10.8526  10.8854  10.8879
    10.9181  10.9363  10.9612  11.0161  11.0217  11.0687  11.1534  11.1542
    11.2039  11.2056  11.2094  11.2246  11.2847  11.3010  11.5064  11.6106
    11.6518  11.6685  11.7159  11.7372  11.8399  11.8416  11.8804  11.8840
    11.8878  11.9458  11.9847  12.0258  12.0554  12.2045  12.2269  12.2523
    12.2597  12.3949  12.4079  12.4286  12.4481  12.4667  12.5056  12.8262
    12.8446  12.8490  12.9193  13.0318  13.1642  13.4094  13.5352  13.7360
    13.7699  13.8363  13.8893  14.2134  14.4277  14.4783  14.5814  14.8986
    14.9608  14.9720  15.1338  15.5484  16.0389  16.4966  16.7553  16.9304
    16.9602  16.9729  17.0334  17.0458  17.0547  17.0846  17.1294  17.1354
    17.1809  17.4416  17.4734  17.4780  17.5895  17.7500  17.9922  18.1055
    18.1516  18.1931  18.1931  18.2705  18.3649  18.3938  18.5616  18.5674
    19.6851  19.7678

          k = 0.3750 0.3750 0.0000 ( 13948 PWs)   bands (ev):

   -66.7490 -66.7490 -66.6428 -62.1739 -62.1739 -62.0752 -62.0752 -62.0577
   -35.5172 -35.5172 -35.4777 -35.4777 -35.4777 -35.4777 -35.4192 -35.3692
   -35.3692 -31.0059 -31.0059 -31.0057 -31.0057 -30.9971 -30.9971 -30.9060
   -30.9060 -30.9058 -30.9058 -30.9050 -30.9050 -30.8888 -30.8886 -30.8866
     7.9969   8.2493   8.3395   8.4455   8.5429   8.6564   8.7091   8.8125
     8.9682   8.9857   9.0267   9.0379   9.1501   9.1942   9.2124   9.2479
     9.3058   9.3314   9.3376   9.3482   9.4001   9.4059   9.4890   9.4959
     9.5057   9.5114   9.5507   9.5830   9.6747   9.6849   9.7114   9.8434
     9.9158   9.9676   9.9754  10.0047  10.0116  10.0632  10.1044  10.1111
    10.1140  10.1600  10.2310  10.3406  10.3492  10.3538  10.4150  10.4803
    10.5076  10.6101  10.6107  10.6441  10.6581  10.6603  10.7578  10.7654
    10.7950  10.9323  10.9581  11.0125  11.0559  11.0874  11.1559  11.2111
    11.2921  11.4432  11.4604  11.5105  11.5392  11.5505  11.5632  11.5841
    11.5979  11.6317  11.6713  11.7275  11.7623  11.8678  11.9229  11.9358
    11.9395  11.9831  11.9978  12.0053  12.0329  12.0489  12.0949  12.1033
    12.1254  12.2429  12.2638  12.3289  12.4231  12.4639  12.5401  12.6635
    12.7212  12.7602  12.9794  13.0087  13.2179  13.5616  13.8350  14.0097
    14.4021  14.4221  14.7368  15.0994  15.1297  15.1922  15.2443  15.3845
    15.4704  15.6031  16.0093  16.4724  16.7790  16.9623  16.9702  17.0350
    17.0443  17.1077  17.1079  17.1207  17.1731  17.3573  17.4352  17.4548
    17.5129  17.6691  17.6862  17.7700  17.8464  17.9566  18.0711  18.0940
    18.2277  18.2866  18.3046  18.3247  18.4400  18.6147  18.8707  18.9411
    19.0105  19.0158

          k = 0.3750 0.3750-0.0484 ( 13950 PWs)   bands (ev):

   -66.7490 -66.7490 -66.6428 -62.1739 -62.1739 -62.0752 -62.0752 -62.0577
   -35.5172 -35.5172 -35.4777 -35.4777 -35.4777 -35.4777 -35.4192 -35.3692
   -35.3692 -31.0059 -31.0059 -31.0057 -31.0057 -30.9971 -30.9971 -30.9060
   -30.9060 -30.9058 -30.9058 -30.9050 -30.9050 -30.8888 -30.8886 -30.8866
     7.9972   8.2452   8.3396   8.4805   8.5311   8.5815   8.7839   8.8201
     8.9681   8.9701   9.0203   9.0334   9.1209   9.1762   9.2160   9.2910
     9.3063   9.3313   9.3349   9.4137   9.4151   9.4207   9.4259   9.4293
     9.4775   9.5784   9.5793   9.5886   9.6085   9.6629   9.8140   9.8536
     9.8772   9.9212   9.9393  10.0068  10.0334  10.0650  10.1029  10.1113
    10.1527  10.2106  10.2418  10.2776  10.3036  10.3707  10.4386  10.4589
    10.5434  10.5796  10.6291  10.6617  10.6705  10.6721  10.6763  10.7933
    10.8601  10.8773  10.9581  10.9963  11.0568  11.0873  11.1849  11.2070
    11.2921  11.4418  11.4627  11.5088  11.5396  11.5464  11.5520  11.5827
    11.5987  11.6316  11.6773  11.7275  11.7946  11.8182  11.9370  11.9386
    11.9614  11.9831  11.9860  12.0227  12.0278  12.0438  12.0506  12.1133
    12.1652  12.2189  12.2634  12.3357  12.4222  12.4660  12.5683  12.5911
    12.7600  12.8107  12.8787  13.0864  13.1859  13.6006  13.7603  14.1158
    14.2450  14.5501  14.6997  15.1148  15.1345  15.1534  15.2821  15.3643
    15.4766  15.6026  16.0080  16.4718  16.7946  16.9082  17.0032  17.0168
    17.0663  17.0990  17.1079  17.1496  17.2301  17.2838  17.3190  17.5609
    17.5890  17.6310  17.6461  17.7726  17.8628  17.9371  18.0942  18.1325
    18.1689  18.2346  18.3187  18.4922  18.5320  18.5381  18.5978  18.7727
    18.8917  19.1513

          k = 0.3750-0.5000 0.0000 ( 13934 PWs)   bands (ev):

   -66.7490 -66.7490 -66.6428 -62.1737 -62.1737 -62.0750 -62.0750 -62.0575
   -35.5171 -35.5171 -35.4793 -35.4793 -35.4775 -35.4775 -35.4191 -35.3708
   -35.3690 -31.0080 -31.0080 -31.0056 -31.0056 -30.9969 -30.9969 -30.9081
   -30.9081 -30.9057 -30.9057 -30.9049 -30.9048 -30.8909 -30.8885 -30.8864
     8.1213   8.1222   8.3287   8.4044   8.5675   8.6116   8.7222   8.7463
     8.9079   8.9296   9.1026   9.1162   9.1728   9.1800   9.2080   9.2112
     9.2242   9.2417   9.2796   9.3284   9.3943   9.3994   9.4168   9.4188
     9.4530   9.4726   9.5919   9.6392   9.6447   9.6577   9.8661   9.8813
     9.9129   9.9211   9.9708   9.9956  10.0414  10.0819  10.1141  10.1521
    10.1681  10.2994  10.3280  10.3663  10.3790  10.4300  10.4522  10.6210
    10.6410  10.6530  10.6596  10.6878  10.8254  10.8542  10.9080  10.9824
    11.0273  11.0468  11.1820  11.2137  11.2224  11.2744  11.2755  11.3329
    11.3816  11.4705  11.5308  11.5756  11.5889  11.6344  11.6761  11.7020
    11.7352  11.7562  11.7722  11.7769  11.9169  11.9467  11.9515  11.9961
    12.0004  12.0163  12.0478  12.0610  12.1028  12.1843  12.2077  12.2347
    12.2770  12.2906  12.3012  12.3613  12.4098  12.5032  12.5333  12.9605
    12.9831  13.1129  13.1196  13.1625  13.5916  13.8653  14.2187  14.2197
    14.2504  14.3699  14.5122  14.5610  14.5891  14.7578  14.8020  14.8161
    15.3526  15.4094  16.0422  16.3318  16.8369  16.9723  16.9952  17.0126
    17.0466  17.0569  17.0990  17.1128  17.1224  17.2964  17.5082  17.5097
    17.5713  17.7908  17.9266  17.9325  18.0065  18.0648  18.1237  18.1449
    18.2297  18.2364  18.3079  18.5509  18.6991  18.7144  18.7646  18.8151
    18.8798  18.9580

          k = 0.3750-0.5000-0.0484 ( 13940 PWs)   bands (ev):

   -66.7490 -66.7490 -66.6428 -62.1737 -62.1737 -62.0750 -62.0750 -62.0575
   -35.5171 -35.5171 -35.4793 -35.4793 -35.4775 -35.4775 -35.4191 -35.3708
   -35.3690 -31.0080 -31.0080 -31.0056 -31.0056 -30.9969 -30.9969 -30.9081
   -30.9081 -30.9057 -30.9057 -30.9048 -30.9048 -30.8909 -30.8885 -30.8864
     8.1213   8.1224   8.3279   8.3999   8.6025   8.6256   8.6656   8.7167
     8.9748   9.0007   9.0367   9.0883   9.1361   9.1482   9.1771   9.2140
     9.2517   9.2888   9.3190   9.3511   9.3531   9.3809   9.4242   9.4557
     9.4677   9.4733   9.5299   9.5715   9.7442   9.7482   9.7741   9.7924
     9.9358   9.9554   9.9656   9.9874  10.1056  10.1098  10.1373  10.1389
    10.1966  10.2065  10.2622  10.3032  10.4239  10.4906  10.5286  10.6127
    10.6298  10.6690  10.6753  10.6836  10.7440  10.7733  10.9859  11.0252
    11.0379  11.0791  11.1436  11.1740  11.2353  11.2427  11.2800  11.3488
    11.4182  11.4346  11.5341  11.5902  11.6005  11.6203  11.6592  11.7215
    11.7375  11.7516  11.7556  11.7879  11.9262  11.9375  11.9537  11.9942
    12.0008  12.0143  12.0476  12.0622  12.1031  12.1989  12.2004  12.2269
    12.2301  12.3113  12.3526  12.3657  12.4098  12.4866  12.5112  13.0011
    13.0262  13.0274  13.0972  13.1960  13.5948  13.8627  14.1775  14.2375
    14.3253  14.3366  14.4388  14.6345  14.6375  14.6646  14.8061  14.8399
    15.3528  15.4085  16.0422  16.3319  16.8341  16.9711  17.0039  17.0124
    17.0470  17.0492  17.0517  17.1182  17.2563  17.2570  17.3429  17.5646
    17.7148  17.7430  17.8561  17.9554  18.0584  18.0698  18.0743  18.1442
    18.1591  18.2441  18.3549  18.5902  18.7338  18.7413  18.7977  18.8223
    18.8766  18.9242

          k =-0.5000-0.5000 0.0000 ( 13964 PWs)   bands (ev):

   -66.7490 -66.7490 -66.6428 -62.1736 -62.1736 -62.0748 -62.0748 -62.0573
   -35.5170 -35.5170 -35.4791 -35.4791 -35.4791 -35.4791 -35.4190 -35.3706
   -35.3706 -31.0078 -31.0078 -31.0078 -31.0078 -30.9968 -30.9968 -30.9079
   -30.9079 -30.9079 -30.9079 -30.9047 -30.9047 -30.8907 -30.8907 -30.8863
     8.0342   8.0369   8.2511   8.3325   8.5224   8.5597   8.6850   8.7097
     8.8363   8.8503   9.1327   9.1530   9.2045   9.2139   9.2447   9.2447
     9.2798   9.2798   9.3249   9.3249   9.4106   9.4253   9.4432   9.4432
     9.4474   9.4474   9.6904   9.6904   9.6978   9.6978   9.8465   9.8999
     9.8999   9.9377   9.9724   9.9724  10.0151  10.0234  10.0234  10.0680
    10.0680  10.1443  10.1443  10.5157  10.5157  10.5513  10.5842  10.6086
    10.6129  10.6129  10.6843  10.6883  11.0824  11.0836  11.0836  11.1075
    11.1500  11.1500  11.1857  11.2844  11.4565  11.4566  11.4993  11.5112
    11.5583  11.5786  11.5786  11.7517  11.7517  11.9251  11.9257  11.9476
    11.9477  11.9801  11.9988  11.9988  12.0023  12.0280  12.0295  12.0481
    12.0481  12.0695  12.0917  12.0917  12.0944  12.1701  12.1973  12.2239
    12.2343  12.2424  12.2542  12.3104  12.3783  12.4933  12.4933  13.3611
    13.3635  13.3948  13.4107  13.4158  13.8585  13.8585  14.1637  14.1637
    14.3278  14.3278  14.6500  14.6500  14.7721  14.7721  14.8886  14.8886
    15.9131  15.9131  16.6359  16.6467  16.7947  16.8119  16.8299  16.9324
    16.9325  16.9539  16.9539  17.0232  17.2636  17.2636  17.4237  17.4237
    17.7515  17.7624  17.8953  17.9547  17.9778  18.0802  18.0802  18.1260
    18.1260  18.1868  18.1868  18.1946  18.2043  18.3616  18.3616  18.3650
    18.5374  18.7529

          k =-0.5000-0.5000-0.0484 ( 13992 PWs)   bands (ev):

   -66.7490 -66.7490 -66.6428 -62.1736 -62.1736 -62.0748 -62.0748 -62.0573
   -35.5170 -35.5170 -35.4791 -35.4791 -35.4791 -35.4791 -35.4190 -35.3706
   -35.3706 -31.0078 -31.0078 -31.0078 -31.0078 -30.9968 -30.9968 -30.9079
   -30.9079 -30.9079 -30.9079 -30.9047 -30.9047 -30.8907 -30.8907 -30.8863
     8.0342   8.0370   8.2504   8.3288   8.5645   8.5777   8.6102   8.6646
     8.9222   8.9637   8.9756   9.0435   9.2470   9.2470   9.2708   9.2708
     9.3219   9.3495   9.3516   9.3579   9.3605   9.3605   9.3686   9.3686
     9.5539   9.5539   9.5567   9.5567   9.8523   9.8538   9.8538   9.8669
     9.8669   9.8999   9.8999   9.9393   9.9730   9.9730  10.0126  10.1069
    10.1069  10.2445  10.2445  10.3633  10.3633  10.5480  10.5877  10.6087
    10.6839  10.6882  10.8184  10.8184  10.8556  10.8556  11.0825  11.1074
    11.1856  11.2846  11.3310  11.3310  11.4565  11.4566  11.4698  11.4698
    11.4993  11.5111  11.5583  11.7907  11.7907  11.9251  11.9257  11.9476
    11.9477  11.9801  11.9988  11.9988  12.0023  12.0280  12.0295  12.0481
    12.0481  12.0695  12.0917  12.0917  12.0944  12.1698  12.2004  12.2257
    12.2266  12.2408  12.2589  12.3105  12.3781  12.4898  12.4898  13.3611
    13.3635  13.3948  13.4107  13.4158  13.8772  13.8772  14.1032  14.1032
    14.4120  14.4120  14.5768  14.5768  14.8265  14.8265  14.8659  14.8659
    15.9130  15.9130  16.6390  16.6433  16.7941  16.8127  16.8279  16.9321
    16.9433  16.9786  16.9786  17.0126  17.1569  17.1569  17.6215  17.6215
    17.7757  17.8091  17.8423  17.8537  17.8537  17.8829  18.0100  18.0802
    18.0802  18.1868  18.1868  18.2043  18.2312  18.3617  18.5290  18.7530
    18.7541  18.7541

     the Fermi energy is    15.2274 ev

!    total energy              =  -14694.00926808 Ry
     Harris-Foulkes estimate   =  -14694.00926258 Ry
     estimated scf accuracy    <       0.00000076 Ry

     total all-electron energy =   -626921.604990 Ry

     The total energy is the sum of the following terms:

     one-electron contribution =    -714.68030550 Ry
     hartree contribution      =     656.68717514 Ry
     xc contribution           =    -737.85810158 Ry
     ewald contribution        =   -2196.78933708 Ry
     Hubbard energy            =       0.45910706 Ry
     one-center paw contrib.   =  -11701.82780612 Ry

     total magnetization       =     8.54 Bohr mag/cell
     absolute magnetization    =    37.04 Bohr mag/cell

     convergence has been achieved in  24 iterations

     Writing output data file mnau2.save/
 
     init_run     :     71.36s CPU     73.48s WALL (       1 calls)
     electrons    :   3027.10s CPU   3128.91s WALL (       1 calls)

     Called by init_run:
     wfcinit      :     65.95s CPU     67.85s WALL (       1 calls)
     potinit      :      2.79s CPU      2.89s WALL (       1 calls)
     hinit0       :      1.63s CPU      1.67s WALL (       1 calls)

     Called by electrons:
     c_bands      :   2725.19s CPU   2814.28s WALL (      24 calls)
     sum_band     :    250.07s CPU    258.58s WALL (      24 calls)
     v_of_rho     :      4.16s CPU      4.26s WALL (      25 calls)
     newd         :     12.40s CPU     13.68s WALL (      25 calls)
     PAW_pot      :     34.15s CPU     34.69s WALL (      25 calls)
     mix_rho      :      2.86s CPU      3.09s WALL (      24 calls)

     Called by c_bands:
     init_us_2    :      4.89s CPU      4.92s WALL (    3000 calls)
     cegterg      :   2624.62s CPU   2711.48s WALL (    1440 calls)

     Called by sum_band:
     sum_band:bec :      1.30s CPU      1.31s WALL (    1440 calls)
     addusdens    :     10.10s CPU     11.21s WALL (      24 calls)

     Called by *egterg:
     h_psi        :    986.45s CPU   1016.18s WALL (    5541 calls)
     s_psi        :     91.50s CPU     91.84s WALL (    5601 calls)
     g_psi        :      2.80s CPU      2.83s WALL (    4041 calls)
     cdiaghg      :    814.80s CPU    851.94s WALL (    5481 calls)

     Called by h_psi:
     h_psi:pot    :    862.47s CPU    887.10s WALL (    5541 calls)
     h_psi:calbec :    178.03s CPU    185.63s WALL (    5541 calls)
     vloc_psi     :    595.19s CPU    610.92s WALL (    5541 calls)
     add_vuspsi   :     89.19s CPU     90.50s WALL (    5541 calls)
     vhpsi        :    122.47s CPU    125.46s WALL (    5541 calls)

     General routines
     calbec       :    379.24s CPU    393.64s WALL (   14022 calls)
     fft          :      5.83s CPU      6.01s WALL (     621 calls)
     ffts         :      0.10s CPU      0.10s WALL (      98 calls)
     fftw         :    699.53s CPU    718.02s WALL ( 1387822 calls)
     interpolate  :      0.23s CPU      0.23s WALL (      50 calls)
     davcio       :      0.00s CPU      0.65s WALL (      60 calls)
 
     Parallel routines
     fft_scatt_xy :     32.02s CPU     32.73s WALL ( 1388541 calls)
     fft_scatt_yz :    526.87s CPU    541.44s WALL ( 1388541 calls)

     Hubbard U routines
     new_ns       :     11.06s CPU     11.49s WALL (      24 calls)
     vhpsi        :    122.47s CPU    125.46s WALL (    5541 calls)
 
     PWSCF        : 52m12.30s CPU    56m21.81s WALL

 
   This run was terminated on:   0:52:32   7Apr2019            

=------------------------------------------------------------------------------=
   JOB DONE.
=------------------------------------------------------------------------------=
