
     Program PWSCF v.6.3MaX starts on  6Apr2019 at 21: 6:13 

     This program is part of the open-source Quantum ESPRESSO suite
     for quantum simulation of materials; please cite
         "P. Giannozzi et al., J. Phys.:Condens. Matter 21 395502 (2009);
         "P. Giannozzi et al., J. Phys.:Condens. Matter 29 465901 (2017);
          URL http://www.quantum-espresso.org", 
     in publications or presentations arising from this work. More details at
     http://www.quantum-espresso.org/quote

     Parallel version (MPI), running on    32 processors

     MPI processes distributed on     5 nodes
     R & G space division:  proc/nbgrp/npool/nimage =      32
     Waiting for input...
     Reading input from standard input

     Current dimensions of program PWSCF are:
     Max number of different atomic species (ntypx) = 10
     Max number of k-points (npk) =  40000
     Max angular momentum in pseudopotentials (lmaxx) =  3
               file Mn.pbe-spn-kjpaw_psl.0.3.1.UPF: wavefunction(s)  3P 3D renormalized
               file Mn.pbe-spn-kjpaw_psl.0.3.1.UPF: wavefunction(s)  3P 3D renormalized
               file Au.pbe-dn-kjpaw_psl.0.1.UPF: wavefunction(s)  6S 6P 5D renormalized

     Subspace diagonalization in iterative solution of the eigenvalue problem:
     one sub-group per band group will be used
     scalapack distributed-memory algorithm (size of sub-group:  4*  4 procs)

 
     Parallelization info
     --------------------
     sticks:   dense  smooth     PW     G-vecs:    dense   smooth      PW
     Min          41      18      5                11487     3460     563
     Max          42      19      6                11527     3505     606
     Sum        1313     593    177               368373   111379   18691
 


     bravais-lattice index     =            0
     lattice parameter (alat)  =       6.4153  a.u.
     unit-cell volume          =    2724.7774 (a.u.)^3
     number of atoms/cell      =           24
     number of atomic types    =            3
     number of electrons       =       296.00
     number of Kohn-Sham states=          178
     kinetic-energy cutoff     =      45.0000  Ry
     charge density cutoff     =     400.0000  Ry
     convergence threshold     =      1.0E-06
     mixing beta               =       0.1000
     number of iterations used =            8  plain     mixing
     Exchange-correlation      = SLA PW PBX PBC ( 1  4  3  4 0 0)

     celldm(1)=   6.415315  celldm(2)=   0.000000  celldm(3)=   0.000000
     celldm(4)=   0.000000  celldm(5)=   0.000000  celldm(6)=   0.000000

     crystal axes: (cart. coord. in units of alat)
               a(1) = (   1.000000   0.000000   0.000000 )  
               a(2) = (   0.000000   1.000000   0.000000 )  
               a(3) = (   0.000000   0.000000  10.319937 )  

     reciprocal axes: (cart. coord. in units 2 pi/alat)
               b(1) = (  1.000000  0.000000  0.000000 )  
               b(2) = (  0.000000  1.000000  0.000000 )  
               b(3) = (  0.000000  0.000000  0.096900 )  


     PseudoPot. # 1 for Mn read from file:
     ./pseudo/Mn.pbe-spn-kjpaw_psl.0.3.1.UPF
     MD5 check sum: 7b43a3fb0e93e198b8dd8488d8cf503e
     Pseudo is Projector augmented-wave + core cor, Zval = 15.0
     Generated using "atomic" code by A. Dal Corso v.5.0.99 svn rev. 10869
     Shape of augmentation charge: PSQ
     Using radial grid of 1187 points,  6 beta functions with: 
                l(1) =   0
                l(2) =   0
                l(3) =   1
                l(4) =   1
                l(5) =   2
                l(6) =   2
     Q(r) pseudized with 0 coefficients 


     PseudoPot. # 2 for Mn read from file:
     ./pseudo/Mn.pbe-spn-kjpaw_psl.0.3.1.UPF
     MD5 check sum: 7b43a3fb0e93e198b8dd8488d8cf503e
     Pseudo is Projector augmented-wave + core cor, Zval = 15.0
     Generated using "atomic" code by A. Dal Corso v.5.0.99 svn rev. 10869
     Shape of augmentation charge: PSQ
     Using radial grid of 1187 points,  6 beta functions with: 
                l(1) =   0
                l(2) =   0
                l(3) =   1
                l(4) =   1
                l(5) =   2
                l(6) =   2
     Q(r) pseudized with 0 coefficients 


     PseudoPot. # 3 for Au read from file:
     ./pseudo/Au.pbe-dn-kjpaw_psl.0.1.UPF
     MD5 check sum: be11e2e8e535ebe2b3ccfb4f88f554cb
     Pseudo is Projector augmented-wave + core cor, Zval = 11.0
     Generated using "atomic" code by A. Dal Corso v.5.0.2 svn rev. 9415
     Shape of augmentation charge: PSQ
     Using radial grid of 1279 points,  6 beta functions with: 
                l(1) =   0
                l(2) =   0
                l(3) =   1
                l(4) =   1
                l(5) =   2
                l(6) =   2
     Q(r) pseudized with 0 coefficients 


     atomic species   valence    mass     pseudopotential
        Mn1           15.00    54.93800     Mn( 1.00)
        Mn2           15.00    54.93800     Mn( 1.00)
        Au            11.00   196.96600     Au( 1.00)

     Starting magnetic structure 
     atomic species   magnetization
        Mn1          0.800
        Mn2         -0.800
        Au           0.000


     Full LDA+U calculation (l_max = 2) with parameters (eV):
     U(  1) =   3.1200   J(  1) =   0.7000   B(  1) =   0.0803
     U(  2) =   3.1200   J(  2) =   0.7000   B(  2) =   0.0803



      8 Sym. Ops. (no inversion) found



   Cartesian axes

     site n.     atom                  positions (alat units)
         1           Mn1 tau(   1) = (   0.0000000   0.0000000   0.0000000  )
         2           Mn1 tau(   2) = (   0.5000000   0.5000000   1.2899921  )
         3           Mn1 tau(   3) = (   0.0000000   0.0000000   2.5799843  )
         4           Mn1 tau(   4) = (   0.5000000   0.5000000   3.8699764  )
         5           Mn2 tau(   5) = (   0.0000000   0.0000000   5.1599686  )
         6           Mn1 tau(   6) = (   0.5000000   0.5000000   6.4499607  )
         7           Mn1 tau(   7) = (   0.0000000   0.0000000   7.7399528  )
         8           Mn2 tau(   8) = (   0.5000000   0.5000000   9.0299450  )
         9           Au  tau(   9) = (   0.5000000   0.5000000   0.4127975  )
        10           Au  tau(  10) = (   0.0000000   0.0000000   0.8771947  )
        11           Au  tau(  11) = (   0.0000000   0.0000000   1.7027896  )
        12           Au  tau(  12) = (   0.5000000   0.5000000   2.1671868  )
        13           Au  tau(  13) = (   0.5000000   0.5000000   2.9927818  )
        14           Au  tau(  14) = (   0.0000000   0.0000000   3.4571789  )
        15           Au  tau(  15) = (   0.0000000   0.0000000   4.2827739  )
        16           Au  tau(  16) = (   0.5000000   0.5000000   4.7471711  )
        17           Au  tau(  17) = (   0.5000000   0.5000000   5.5727660  )
        18           Au  tau(  18) = (   0.0000000   0.0000000   6.0371632  )
        19           Au  tau(  19) = (   0.0000000   0.0000000   6.8627582  )
        20           Au  tau(  20) = (   0.5000000   0.5000000   7.3271553  )
        21           Au  tau(  21) = (   0.5000000   0.5000000   8.1527503  )
        22           Au  tau(  22) = (   0.0000000   0.0000000   8.6171475  )
        23           Au  tau(  23) = (   0.0000000   0.0000000   9.4427424  )
        24           Au  tau(  24) = (   0.5000000   0.5000000   9.9071396  )

     number of k points=    30 (tetrahedron method)
                       cart. coord. in units 2pi/alat
        k(    1) = (   0.0000000   0.0000000   0.0000000), wk =   0.0078125
        k(    2) = (   0.0000000   0.0000000  -0.0484499), wk =   0.0078125
        k(    3) = (   0.0000000   0.1250000   0.0000000), wk =   0.0312500
        k(    4) = (   0.0000000   0.1250000  -0.0484499), wk =   0.0312500
        k(    5) = (   0.0000000   0.2500000   0.0000000), wk =   0.0312500
        k(    6) = (   0.0000000   0.2500000  -0.0484499), wk =   0.0312500
        k(    7) = (   0.0000000   0.3750000   0.0000000), wk =   0.0312500
        k(    8) = (   0.0000000   0.3750000  -0.0484499), wk =   0.0312500
        k(    9) = (   0.0000000  -0.5000000   0.0000000), wk =   0.0156250
        k(   10) = (   0.0000000  -0.5000000  -0.0484499), wk =   0.0156250
        k(   11) = (   0.1250000   0.1250000   0.0000000), wk =   0.0312500
        k(   12) = (   0.1250000   0.1250000  -0.0484499), wk =   0.0312500
        k(   13) = (   0.1250000   0.2500000   0.0000000), wk =   0.0625000
        k(   14) = (   0.1250000   0.2500000  -0.0484499), wk =   0.0625000
        k(   15) = (   0.1250000   0.3750000   0.0000000), wk =   0.0625000
        k(   16) = (   0.1250000   0.3750000  -0.0484499), wk =   0.0625000
        k(   17) = (   0.1250000  -0.5000000   0.0000000), wk =   0.0312500
        k(   18) = (   0.1250000  -0.5000000  -0.0484499), wk =   0.0312500
        k(   19) = (   0.2500000   0.2500000   0.0000000), wk =   0.0312500
        k(   20) = (   0.2500000   0.2500000  -0.0484499), wk =   0.0312500
        k(   21) = (   0.2500000   0.3750000   0.0000000), wk =   0.0625000
        k(   22) = (   0.2500000   0.3750000  -0.0484499), wk =   0.0625000
        k(   23) = (   0.2500000  -0.5000000   0.0000000), wk =   0.0312500
        k(   24) = (   0.2500000  -0.5000000  -0.0484499), wk =   0.0312500
        k(   25) = (   0.3750000   0.3750000   0.0000000), wk =   0.0312500
        k(   26) = (   0.3750000   0.3750000  -0.0484499), wk =   0.0312500
        k(   27) = (   0.3750000  -0.5000000   0.0000000), wk =   0.0312500
        k(   28) = (   0.3750000  -0.5000000  -0.0484499), wk =   0.0312500
        k(   29) = (  -0.5000000  -0.5000000   0.0000000), wk =   0.0078125
        k(   30) = (  -0.5000000  -0.5000000  -0.0484499), wk =   0.0078125

     Dense  grid:   368373 G-vectors     FFT dimensions: (  45,  45, 432)

     Smooth grid:   111379 G-vectors     FFT dimensions: (  27,  27, 288)

     Estimated max dynamical RAM per process >     143.50 MB

     Estimated total dynamical RAM >       4.48 GB
     Generating pointlists ...
     new r_m :   0.3377 (alat units)  2.1668 (a.u.) for type    1
     new r_m :   0.3377 (alat units)  2.1668 (a.u.) for type    2
     new r_m :   0.3377 (alat units)  2.1668 (a.u.) for type    3

     Check: negative/imaginary core charge=   -0.000006    0.000000

     Initial potential from superposition of free atoms

     starting charge  295.99426, renormalised to  296.00000
     Number of +U iterations with fixed ns =  0
     Starting occupations:
 --- enter write_ns ---
 LDA+U parameters:
U(  1) =   3.1200   J(  1) =   0.7000   B(  1) =   0.0803
U(  2) =   3.1200   J(  2) =   0.7000   B(  2) =   0.0803
atom    1   Tr[ns(na)] (up, down, total) =   5.00000  0.00000  5.00000
   spin  1
    eigenvalues: 
  1.000  1.000  1.000  1.000  1.000
    eigenvectors:
  1.000  0.000  0.000  0.000  0.000
  0.000  1.000  0.000  0.000  0.000
  0.000  0.000  1.000  0.000  0.000
  0.000  0.000  0.000  1.000  0.000
  0.000  0.000  0.000  0.000  1.000
    occupations:
  1.000  0.000  0.000  0.000  0.000
  0.000  1.000  0.000  0.000  0.000
  0.000  0.000  1.000  0.000  0.000
  0.000  0.000  0.000  1.000  0.000
  0.000  0.000  0.000  0.000  1.000
   spin  2
    eigenvalues: 
  0.000  0.000  0.000  0.000  0.000
    eigenvectors:
  1.000  0.000  0.000  0.000  0.000
  0.000  1.000  0.000  0.000  0.000
  0.000  0.000  1.000  0.000  0.000
  0.000  0.000  0.000  1.000  0.000
  0.000  0.000  0.000  0.000  1.000
    occupations:
  0.000  0.000  0.000  0.000  0.000
  0.000  0.000  0.000  0.000  0.000
  0.000  0.000  0.000  0.000  0.000
  0.000  0.000  0.000  0.000  0.000
  0.000  0.000  0.000  0.000  0.000
atomic mag. moment =     5.000000
atom    2   Tr[ns(na)] (up, down, total) =   5.00000  0.00000  5.00000
   spin  1
    eigenvalues: 
  1.000  1.000  1.000  1.000  1.000
    eigenvectors:
  1.000  0.000  0.000  0.000  0.000
  0.000  1.000  0.000  0.000  0.000
  0.000  0.000  1.000  0.000  0.000
  0.000  0.000  0.000  1.000  0.000
  0.000  0.000  0.000  0.000  1.000
    occupations:
  1.000  0.000  0.000  0.000  0.000
  0.000  1.000  0.000  0.000  0.000
  0.000  0.000  1.000  0.000  0.000
  0.000  0.000  0.000  1.000  0.000
  0.000  0.000  0.000  0.000  1.000
   spin  2
    eigenvalues: 
  0.000  0.000  0.000  0.000  0.000
    eigenvectors:
  1.000  0.000  0.000  0.000  0.000
  0.000  1.000  0.000  0.000  0.000
  0.000  0.000  1.000  0.000  0.000
  0.000  0.000  0.000  1.000  0.000
  0.000  0.000  0.000  0.000  1.000
    occupations:
  0.000  0.000  0.000  0.000  0.000
  0.000  0.000  0.000  0.000  0.000
  0.000  0.000  0.000  0.000  0.000
  0.000  0.000  0.000  0.000  0.000
  0.000  0.000  0.000  0.000  0.000
atomic mag. moment =     5.000000
atom    3   Tr[ns(na)] (up, down, total) =   5.00000  0.00000  5.00000
   spin  1
    eigenvalues: 
  1.000  1.000  1.000  1.000  1.000
    eigenvectors:
  1.000  0.000  0.000  0.000  0.000
  0.000  1.000  0.000  0.000  0.000
  0.000  0.000  1.000  0.000  0.000
  0.000  0.000  0.000  1.000  0.000
  0.000  0.000  0.000  0.000  1.000
    occupations:
  1.000  0.000  0.000  0.000  0.000
  0.000  1.000  0.000  0.000  0.000
  0.000  0.000  1.000  0.000  0.000
  0.000  0.000  0.000  1.000  0.000
  0.000  0.000  0.000  0.000  1.000
   spin  2
    eigenvalues: 
  0.000  0.000  0.000  0.000  0.000
    eigenvectors:
  1.000  0.000  0.000  0.000  0.000
  0.000  1.000  0.000  0.000  0.000
  0.000  0.000  1.000  0.000  0.000
  0.000  0.000  0.000  1.000  0.000
  0.000  0.000  0.000  0.000  1.000
    occupations:
  0.000  0.000  0.000  0.000  0.000
  0.000  0.000  0.000  0.000  0.000
  0.000  0.000  0.000  0.000  0.000
  0.000  0.000  0.000  0.000  0.000
  0.000  0.000  0.000  0.000  0.000
atomic mag. moment =     5.000000
atom    4   Tr[ns(na)] (up, down, total) =   5.00000  0.00000  5.00000
   spin  1
    eigenvalues: 
  1.000  1.000  1.000  1.000  1.000
    eigenvectors:
  1.000  0.000  0.000  0.000  0.000
  0.000  1.000  0.000  0.000  0.000
  0.000  0.000  1.000  0.000  0.000
  0.000  0.000  0.000  1.000  0.000
  0.000  0.000  0.000  0.000  1.000
    occupations:
  1.000  0.000  0.000  0.000  0.000
  0.000  1.000  0.000  0.000  0.000
  0.000  0.000  1.000  0.000  0.000
  0.000  0.000  0.000  1.000  0.000
  0.000  0.000  0.000  0.000  1.000
   spin  2
    eigenvalues: 
  0.000  0.000  0.000  0.000  0.000
    eigenvectors:
  1.000  0.000  0.000  0.000  0.000
  0.000  1.000  0.000  0.000  0.000
  0.000  0.000  1.000  0.000  0.000
  0.000  0.000  0.000  1.000  0.000
  0.000  0.000  0.000  0.000  1.000
    occupations:
  0.000  0.000  0.000  0.000  0.000
  0.000  0.000  0.000  0.000  0.000
  0.000  0.000  0.000  0.000  0.000
  0.000  0.000  0.000  0.000  0.000
  0.000  0.000  0.000  0.000  0.000
atomic mag. moment =     5.000000
atom    5   Tr[ns(na)] (up, down, total) =   0.00000  5.00000  5.00000
   spin  1
    eigenvalues: 
  0.000  0.000  0.000  0.000  0.000
    eigenvectors:
  1.000  0.000  0.000  0.000  0.000
  0.000  1.000  0.000  0.000  0.000
  0.000  0.000  1.000  0.000  0.000
  0.000  0.000  0.000  1.000  0.000
  0.000  0.000  0.000  0.000  1.000
    occupations:
  0.000  0.000  0.000  0.000  0.000
  0.000  0.000  0.000  0.000  0.000
  0.000  0.000  0.000  0.000  0.000
  0.000  0.000  0.000  0.000  0.000
  0.000  0.000  0.000  0.000  0.000
   spin  2
    eigenvalues: 
  1.000  1.000  1.000  1.000  1.000
    eigenvectors:
  1.000  0.000  0.000  0.000  0.000
  0.000  1.000  0.000  0.000  0.000
  0.000  0.000  1.000  0.000  0.000
  0.000  0.000  0.000  1.000  0.000
  0.000  0.000  0.000  0.000  1.000
    occupations:
  1.000  0.000  0.000  0.000  0.000
  0.000  1.000  0.000  0.000  0.000
  0.000  0.000  1.000  0.000  0.000
  0.000  0.000  0.000  1.000  0.000
  0.000  0.000  0.000  0.000  1.000
atomic mag. moment =    -5.000000
atom    6   Tr[ns(na)] (up, down, total) =   5.00000  0.00000  5.00000
   spin  1
    eigenvalues: 
  1.000  1.000  1.000  1.000  1.000
    eigenvectors:
  1.000  0.000  0.000  0.000  0.000
  0.000  1.000  0.000  0.000  0.000
  0.000  0.000  1.000  0.000  0.000
  0.000  0.000  0.000  1.000  0.000
  0.000  0.000  0.000  0.000  1.000
    occupations:
  1.000  0.000  0.000  0.000  0.000
  0.000  1.000  0.000  0.000  0.000
  0.000  0.000  1.000  0.000  0.000
  0.000  0.000  0.000  1.000  0.000
  0.000  0.000  0.000  0.000  1.000
   spin  2
    eigenvalues: 
  0.000  0.000  0.000  0.000  0.000
    eigenvectors:
  1.000  0.000  0.000  0.000  0.000
  0.000  1.000  0.000  0.000  0.000
  0.000  0.000  1.000  0.000  0.000
  0.000  0.000  0.000  1.000  0.000
  0.000  0.000  0.000  0.000  1.000
    occupations:
  0.000  0.000  0.000  0.000  0.000
  0.000  0.000  0.000  0.000  0.000
  0.000  0.000  0.000  0.000  0.000
  0.000  0.000  0.000  0.000  0.000
  0.000  0.000  0.000  0.000  0.000
atomic mag. moment =     5.000000
atom    7   Tr[ns(na)] (up, down, total) =   5.00000  0.00000  5.00000
   spin  1
    eigenvalues: 
  1.000  1.000  1.000  1.000  1.000
    eigenvectors:
  1.000  0.000  0.000  0.000  0.000
  0.000  1.000  0.000  0.000  0.000
  0.000  0.000  1.000  0.000  0.000
  0.000  0.000  0.000  1.000  0.000
  0.000  0.000  0.000  0.000  1.000
    occupations:
  1.000  0.000  0.000  0.000  0.000
  0.000  1.000  0.000  0.000  0.000
  0.000  0.000  1.000  0.000  0.000
  0.000  0.000  0.000  1.000  0.000
  0.000  0.000  0.000  0.000  1.000
   spin  2
    eigenvalues: 
  0.000  0.000  0.000  0.000  0.000
    eigenvectors:
  1.000  0.000  0.000  0.000  0.000
  0.000  1.000  0.000  0.000  0.000
  0.000  0.000  1.000  0.000  0.000
  0.000  0.000  0.000  1.000  0.000
  0.000  0.000  0.000  0.000  1.000
    occupations:
  0.000  0.000  0.000  0.000  0.000
  0.000  0.000  0.000  0.000  0.000
  0.000  0.000  0.000  0.000  0.000
  0.000  0.000  0.000  0.000  0.000
  0.000  0.000  0.000  0.000  0.000
atomic mag. moment =     5.000000
atom    8   Tr[ns(na)] (up, down, total) =   0.00000  5.00000  5.00000
   spin  1
    eigenvalues: 
  0.000  0.000  0.000  0.000  0.000
    eigenvectors:
  1.000  0.000  0.000  0.000  0.000
  0.000  1.000  0.000  0.000  0.000
  0.000  0.000  1.000  0.000  0.000
  0.000  0.000  0.000  1.000  0.000
  0.000  0.000  0.000  0.000  1.000
    occupations:
  0.000  0.000  0.000  0.000  0.000
  0.000  0.000  0.000  0.000  0.000
  0.000  0.000  0.000  0.000  0.000
  0.000  0.000  0.000  0.000  0.000
  0.000  0.000  0.000  0.000  0.000
   spin  2
    eigenvalues: 
  1.000  1.000  1.000  1.000  1.000
    eigenvectors:
  1.000  0.000  0.000  0.000  0.000
  0.000  1.000  0.000  0.000  0.000
  0.000  0.000  1.000  0.000  0.000
  0.000  0.000  0.000  1.000  0.000
  0.000  0.000  0.000  0.000  1.000
    occupations:
  1.000  0.000  0.000  0.000  0.000
  0.000  1.000  0.000  0.000  0.000
  0.000  0.000  1.000  0.000  0.000
  0.000  0.000  0.000  1.000  0.000
  0.000  0.000  0.000  0.000  1.000
atomic mag. moment =    -5.000000
N of occupied +U levels =   40.000000
 --- exit write_ns ---
 Atomic wfc used for LDA+U Projector are NOT orthogonalized
     Starting wfcs are  224 randomized atomic wfcs
     Checking if some PAW data can be deallocated... 

     total cpu time spent up to now is       34.6 secs

     Self-consistent Calculation

     iteration #  1     ecut=    45.00 Ry     beta= 0.10
     Davidson diagonalization with overlap
     ethr =  1.00E-02,  avg # of iterations =  3.7
 --- enter write_ns ---
 LDA+U parameters:
U(  1) =   3.1200   J(  1) =   0.7000   B(  1) =   0.0803
U(  2) =   3.1200   J(  2) =   0.7000   B(  2) =   0.0803
atom    1   Tr[ns(na)] (up, down, total) =   5.01737  0.40774  5.42511
   spin  1
    eigenvalues: 
  1.003  1.003  1.003  1.004  1.004
    eigenvectors:
  0.000  0.000  0.000  1.000  0.000
  0.000  0.116  0.884  0.000  0.000
  0.000  0.884  0.116  0.000  0.000
  0.000  0.000  0.000  0.000  1.000
  1.000  0.000  0.000  0.000  0.000
    occupations:
  1.004 -0.000 -0.000  0.000  0.000
 -0.000  1.003 -0.000  0.000  0.000
 -0.000 -0.000  1.003  0.000  0.000
  0.000  0.000  0.000  1.004 -0.000
  0.000  0.000  0.000 -0.000  1.003
   spin  2
    eigenvalues: 
  0.053  0.072  0.081  0.081  0.122
    eigenvectors:
  0.000  1.000  0.000  0.000  0.000
  0.000  0.000  0.151  0.849  0.000
  0.000  0.000  0.849  0.151  0.000
  1.000  0.000  0.000  0.000  0.000
  0.000  0.000  0.000  0.000  1.000
    occupations:
  0.072 -0.000 -0.000  0.000  0.000
 -0.000  0.081 -0.000  0.000  0.000
 -0.000 -0.000  0.081  0.000  0.000
  0.000  0.000  0.000  0.053 -0.000
  0.000  0.000  0.000 -0.000  0.122
atomic mag. moment =     4.609639
atom    2   Tr[ns(na)] (up, down, total) =   5.01759  0.40236  5.41995
   spin  1
    eigenvalues: 
  1.003  1.003  1.003  1.004  1.004
    eigenvectors:
  0.000  0.000  0.000  1.000  0.000
  0.000  0.125  0.875  0.000  0.000
  0.000  0.875  0.125  0.000  0.000
  0.000  0.000  0.000  0.000  1.000
  1.000  0.000  0.000  0.000  0.000
    occupations:
  1.004 -0.000 -0.000  0.000  0.000
 -0.000  1.003 -0.000  0.000  0.000
 -0.000 -0.000  1.003  0.000  0.000
  0.000  0.000  0.000  1.004 -0.000
  0.000  0.000  0.000 -0.000  1.003
   spin  2
    eigenvalues: 
  0.053  0.074  0.081  0.081  0.114
    eigenvectors:
  0.000  1.000  0.000  0.000  0.000
  0.000  0.000  0.120  0.880  0.000
  0.000  0.000  0.880  0.120  0.000
  1.000  0.000  0.000  0.000  0.000
  0.000  0.000  0.000  0.000  1.000
    occupations:
  0.074 -0.000 -0.000  0.000  0.000
 -0.000  0.081 -0.000  0.000  0.000
 -0.000 -0.000  0.081  0.000  0.000
  0.000  0.000  0.000  0.053 -0.000
  0.000  0.000  0.000 -0.000  0.114
atomic mag. moment =     4.615226
atom    3   Tr[ns(na)] (up, down, total) =   5.01756  0.40260  5.42016
   spin  1
    eigenvalues: 
  1.003  1.003  1.003  1.004  1.004
    eigenvectors:
  0.000  0.000  0.000  1.000  0.000
  0.000  0.101  0.899  0.000  0.000
  0.000  0.899  0.101  0.000  0.000
  0.000  0.000  0.000  0.000  1.000
  1.000  0.000  0.000  0.000  0.000
    occupations:
  1.004 -0.000 -0.000  0.000  0.000
 -0.000  1.003 -0.000  0.000  0.000
 -0.000 -0.000  1.003  0.000  0.000
  0.000  0.000  0.000  1.004 -0.000
  0.000  0.000  0.000 -0.000  1.003
   spin  2
    eigenvalues: 
  0.053  0.074  0.081  0.081  0.114
    eigenvectors:
  0.000  1.000  0.000  0.000  0.000
  0.000  0.000  0.119  0.881  0.000
  0.000  0.000  0.881  0.119  0.000
  1.000  0.000  0.000  0.000  0.000
  0.000  0.000  0.000  0.000  1.000
    occupations:
  0.074 -0.000 -0.000  0.000  0.000
 -0.000  0.081 -0.000  0.000  0.000
 -0.000 -0.000  0.081  0.000  0.000
  0.000  0.000  0.000  0.053 -0.000
  0.000  0.000  0.000 -0.000  0.114
atomic mag. moment =     4.614958
atom    4   Tr[ns(na)] (up, down, total) =   5.01729  0.40840  5.42570
   spin  1
    eigenvalues: 
  1.003  1.003  1.003  1.004  1.004
    eigenvectors:
  0.000  0.000  0.000  1.000  0.000
  0.000  0.142  0.858  0.000  0.000
  0.000  0.858  0.142  0.000  0.000
  0.000  0.000  0.000  0.000  1.000
  1.000  0.000  0.000  0.000  0.000
    occupations:
  1.004 -0.000 -0.000  0.000  0.000
 -0.000  1.003 -0.000  0.000  0.000
 -0.000 -0.000  1.003  0.000  0.000
  0.000  0.000  0.000  1.004 -0.000
  0.000  0.000  0.000 -0.000  1.003
   spin  2
    eigenvalues: 
  0.053  0.072  0.081  0.081  0.123
    eigenvectors:
  0.000  1.000  0.000  0.000  0.000
  0.000  0.000  0.156  0.844  0.000
  0.000  0.000  0.844  0.156  0.000
  1.000  0.000  0.000  0.000  0.000
  0.000  0.000  0.000  0.000  1.000
    occupations:
  0.072 -0.000 -0.000  0.000  0.000
 -0.000  0.081 -0.000  0.000  0.000
 -0.000 -0.000  0.081  0.000  0.000
  0.000  0.000  0.000  0.053 -0.000
  0.000  0.000  0.000 -0.000  0.123
atomic mag. moment =     4.608890
atom    5   Tr[ns(na)] (up, down, total) =   0.41591  5.01744  5.43335
   spin  1
    eigenvalues: 
  0.053  0.075  0.081  0.081  0.125
    eigenvectors:
  0.000  1.000  0.000  0.000  0.000
  0.000  0.000  0.128  0.872  0.000
  0.000  0.000  0.872  0.128  0.000
  1.000  0.000  0.000  0.000  0.000
  0.000  0.000  0.000  0.000  1.000
    occupations:
  0.075 -0.000 -0.000  0.000  0.000
 -0.000  0.081 -0.000  0.000  0.000
 -0.000 -0.000  0.081  0.000  0.000
  0.000  0.000  0.000  0.053 -0.000
  0.000  0.000  0.000 -0.000  0.125
   spin  2
    eigenvalues: 
  1.003  1.003  1.003  1.004  1.004
    eigenvectors:
  0.000  0.000  0.000  1.000  0.000
  0.000  0.119  0.881  0.000  0.000
  0.000  0.881  0.119  0.000  0.000
  0.000  0.000  0.000  0.000  1.000
  1.000  0.000  0.000  0.000  0.000
    occupations:
  1.004 -0.000 -0.000  0.000  0.000
 -0.000  1.003 -0.000  0.000  0.000
 -0.000 -0.000  1.003  0.000  0.000
  0.000  0.000  0.000  1.004 -0.000
  0.000  0.000  0.000 -0.000  1.003
atomic mag. moment =    -4.601536
atom    6   Tr[ns(na)] (up, down, total) =   5.01750  0.41113  5.42863
   spin  1
    eigenvalues: 
  1.003  1.003  1.003  1.004  1.004
    eigenvectors:
  0.000  0.000  0.000  1.000  0.000
  0.000  0.137  0.863  0.000  0.000
  0.000  0.863  0.137  0.000  0.000
  0.000  0.000  0.000  0.000  1.000
  1.000  0.000  0.000  0.000  0.000
    occupations:
  1.004 -0.000 -0.000  0.000  0.000
 -0.000  1.003 -0.000  0.000  0.000
 -0.000 -0.000  1.003  0.000  0.000
  0.000  0.000  0.000  1.004 -0.000
  0.000  0.000  0.000 -0.000  1.003
   spin  2
    eigenvalues: 
  0.053  0.074  0.082  0.082  0.121
    eigenvectors:
  0.000  1.000  0.000  0.000  0.000
  0.000  0.000  0.145  0.855  0.000
  0.000  0.000  0.855  0.145  0.000
  1.000  0.000  0.000  0.000  0.000
  0.000  0.000  0.000  0.000  1.000
    occupations:
  0.074 -0.000 -0.000  0.000  0.000
 -0.000  0.082 -0.000  0.000  0.000
 -0.000 -0.000  0.082  0.000  0.000
  0.000  0.000  0.000  0.053 -0.000
  0.000  0.000  0.000 -0.000  0.121
atomic mag. moment =     4.606364
atom    7   Tr[ns(na)] (up, down, total) =   5.01740  0.41098  5.42838
   spin  1
    eigenvalues: 
  1.003  1.003  1.003  1.004  1.004
    eigenvectors:
  0.000  0.000  0.000  1.000  0.000
  0.000  0.100  0.900  0.000  0.000
  0.000  0.900  0.100  0.000  0.000
  0.000  0.000  0.000  0.000  1.000
  1.000  0.000  0.000  0.000  0.000
    occupations:
  1.004 -0.000 -0.000  0.000  0.000
 -0.000  1.003 -0.000  0.000  0.000
 -0.000 -0.000  1.003  0.000  0.000
  0.000  0.000  0.000  1.004 -0.000
  0.000  0.000  0.000 -0.000  1.003
   spin  2
    eigenvalues: 
  0.053  0.074  0.082  0.082  0.121
    eigenvectors:
  0.000  1.000  0.000  0.000  0.000
  0.000  0.000  0.151  0.849  0.000
  0.000  0.000  0.849  0.151  0.000
  1.000  0.000  0.000  0.000  0.000
  0.000  0.000  0.000  0.000  1.000
    occupations:
  0.074 -0.000 -0.000  0.000  0.000
 -0.000  0.082 -0.000  0.000  0.000
 -0.000 -0.000  0.082  0.000  0.000
  0.000  0.000  0.000  0.053 -0.000
  0.000  0.000  0.000 -0.000  0.121
atomic mag. moment =     4.606416
atom    8   Tr[ns(na)] (up, down, total) =   0.41534  5.01738  5.43272
   spin  1
    eigenvalues: 
  0.053  0.075  0.081  0.081  0.125
    eigenvectors:
  0.000  1.000  0.000  0.000  0.000
  0.000  0.000  0.114  0.886  0.000
  0.000  0.000  0.886  0.114  0.000
  1.000  0.000  0.000  0.000  0.000
  0.000  0.000  0.000  0.000  1.000
    occupations:
  0.075 -0.000 -0.000  0.000  0.000
 -0.000  0.081 -0.000  0.000  0.000
 -0.000 -0.000  0.081  0.000  0.000
  0.000  0.000  0.000  0.053 -0.000
  0.000  0.000  0.000 -0.000  0.125
   spin  2
    eigenvalues: 
  1.003  1.003  1.003  1.004  1.004
    eigenvectors:
  0.000  0.000  0.000  1.000  0.000
  0.000  0.109  0.891  0.000  0.000
  0.000  0.891  0.109  0.000  0.000
  0.000  0.000  0.000  0.000  1.000
  1.000  0.000  0.000  0.000  0.000
    occupations:
  1.004 -0.000 -0.000  0.000  0.000
 -0.000  1.003 -0.000  0.000  0.000
 -0.000 -0.000  1.003  0.000  0.000
  0.000  0.000  0.000  1.004 -0.000
  0.000  0.000  0.000 -0.000  1.003
atomic mag. moment =    -4.602048
N of occupied +U levels =   43.413999
 --- exit write_ns ---

     total cpu time spent up to now is      123.0 secs

     total energy              =  -14687.27614876 Ry
     Harris-Foulkes estimate   =  -14685.81562008 Ry
     estimated scf accuracy    <      11.55763431 Ry

     total magnetization       =    20.15 Bohr mag/cell
     absolute magnetization    =    41.56 Bohr mag/cell

     iteration #  2     ecut=    45.00 Ry     beta= 0.10
     Davidson diagonalization with overlap
     ethr =  3.90E-03,  avg # of iterations =  1.0

     total cpu time spent up to now is      183.4 secs

     total energy              =  -14690.17724583 Ry
     Harris-Foulkes estimate   =  -14687.35087486 Ry
     estimated scf accuracy    <       9.52261084 Ry

     total magnetization       =    19.93 Bohr mag/cell
     absolute magnetization    =    41.23 Bohr mag/cell

     iteration #  3     ecut=    45.00 Ry     beta= 0.10
     Davidson diagonalization with overlap
     ethr =  3.22E-03,  avg # of iterations =  4.9

     total cpu time spent up to now is      271.5 secs

     total energy              =  -14690.59487672 Ry
     Harris-Foulkes estimate   =  -14692.13122690 Ry
     estimated scf accuracy    <     254.24005160 Ry

     total magnetization       =    18.26 Bohr mag/cell
     absolute magnetization    =    39.65 Bohr mag/cell

     iteration #  4     ecut=    45.00 Ry     beta= 0.10
     Davidson diagonalization with overlap
     ethr =  3.22E-03,  avg # of iterations =  4.5

     total cpu time spent up to now is      358.6 secs

     total energy              =  -14694.62049399 Ry
     Harris-Foulkes estimate   =  -14694.20461889 Ry
     estimated scf accuracy    <       4.57041130 Ry

     total magnetization       =    18.42 Bohr mag/cell
     absolute magnetization    =    38.45 Bohr mag/cell

     iteration #  5     ecut=    45.00 Ry     beta= 0.10
     Davidson diagonalization with overlap
     ethr =  1.54E-03,  avg # of iterations =  3.5

     total cpu time spent up to now is      433.7 secs

     total energy              =  -14694.49211114 Ry
     Harris-Foulkes estimate   =  -14694.66933327 Ry
     estimated scf accuracy    <       7.31444299 Ry

     total magnetization       =    18.22 Bohr mag/cell
     absolute magnetization    =    38.09 Bohr mag/cell

     iteration #  6     ecut=    45.00 Ry     beta= 0.10
     Davidson diagonalization with overlap
     ethr =  1.54E-03,  avg # of iterations =  1.3

     total cpu time spent up to now is      495.6 secs

     total energy              =  -14693.03154446 Ry
     Harris-Foulkes estimate   =  -14694.52140200 Ry
     estimated scf accuracy    <      10.65988014 Ry

     total magnetization       =    18.31 Bohr mag/cell
     absolute magnetization    =    38.17 Bohr mag/cell

     iteration #  7     ecut=    45.00 Ry     beta= 0.10
     Davidson diagonalization with overlap
     ethr =  1.54E-03,  avg # of iterations =  4.7

     total cpu time spent up to now is      587.7 secs

     total energy              =  -14693.86108804 Ry
     Harris-Foulkes estimate   =  -14693.74496620 Ry
     estimated scf accuracy    <       3.22253820 Ry

     total magnetization       =    18.58 Bohr mag/cell
     absolute magnetization    =    38.36 Bohr mag/cell

     iteration #  8     ecut=    45.00 Ry     beta= 0.10
     Davidson diagonalization with overlap
     ethr =  1.09E-03,  avg # of iterations =  2.7

     total cpu time spent up to now is      657.4 secs

     total energy              =  -14693.98030963 Ry
     Harris-Foulkes estimate   =  -14693.97163604 Ry
     estimated scf accuracy    <       0.15864933 Ry

     total magnetization       =    17.82 Bohr mag/cell
     absolute magnetization    =    37.70 Bohr mag/cell

     iteration #  9     ecut=    45.00 Ry     beta= 0.10
     Davidson diagonalization with overlap
     ethr =  5.36E-05,  avg # of iterations =  6.2

     total cpu time spent up to now is      768.8 secs

     total energy              =  -14693.99386325 Ry
     Harris-Foulkes estimate   =  -14693.99405282 Ry
     estimated scf accuracy    <       0.06471946 Ry

     total magnetization       =    17.69 Bohr mag/cell
     absolute magnetization    =    37.49 Bohr mag/cell

     iteration # 10     ecut=    45.00 Ry     beta= 0.10
     Davidson diagonalization with overlap
     ethr =  2.19E-05,  avg # of iterations =  2.3

     total cpu time spent up to now is      835.5 secs

     total energy              =  -14693.99215103 Ry
     Harris-Foulkes estimate   =  -14693.99713139 Ry
     estimated scf accuracy    <       0.08609343 Ry

     total magnetization       =    17.63 Bohr mag/cell
     absolute magnetization    =    37.41 Bohr mag/cell

     iteration # 11     ecut=    45.00 Ry     beta= 0.10
     Davidson diagonalization with overlap
     ethr =  2.19E-05,  avg # of iterations =  2.4

     total cpu time spent up to now is      906.0 secs

     total energy              =  -14693.99940939 Ry
     Harris-Foulkes estimate   =  -14693.99859763 Ry
     estimated scf accuracy    <       0.02183479 Ry

     total magnetization       =    17.57 Bohr mag/cell
     absolute magnetization    =    37.36 Bohr mag/cell

     iteration # 12     ecut=    45.00 Ry     beta= 0.10
     Davidson diagonalization with overlap
     ethr =  7.38E-06,  avg # of iterations =  1.4

     total cpu time spent up to now is      968.7 secs

     total energy              =  -14694.00202487 Ry
     Harris-Foulkes estimate   =  -14694.00083892 Ry
     estimated scf accuracy    <       0.01049603 Ry

     total magnetization       =    17.53 Bohr mag/cell
     absolute magnetization    =    37.33 Bohr mag/cell

     iteration # 13     ecut=    45.00 Ry     beta= 0.10
     Davidson diagonalization with overlap
     ethr =  3.55E-06,  avg # of iterations =  1.6

     total cpu time spent up to now is     1028.3 secs

     total energy              =  -14694.00352343 Ry
     Harris-Foulkes estimate   =  -14694.00233637 Ry
     estimated scf accuracy    <       0.01417108 Ry

     total magnetization       =    17.51 Bohr mag/cell
     absolute magnetization    =    37.30 Bohr mag/cell

     iteration # 14     ecut=    45.00 Ry     beta= 0.10
     Davidson diagonalization with overlap
     ethr =  3.55E-06,  avg # of iterations =  2.7

     total cpu time spent up to now is     1095.7 secs

     total energy              =  -14694.00397903 Ry
     Harris-Foulkes estimate   =  -14694.00397888 Ry
     estimated scf accuracy    <       0.02017540 Ry

     total magnetization       =    17.51 Bohr mag/cell
     absolute magnetization    =    37.31 Bohr mag/cell

     iteration # 15     ecut=    45.00 Ry     beta= 0.10
     Davidson diagonalization with overlap
     ethr =  3.55E-06,  avg # of iterations =  1.6

     total cpu time spent up to now is     1158.7 secs

     total energy              =  -14694.00444226 Ry
     Harris-Foulkes estimate   =  -14694.00428171 Ry
     estimated scf accuracy    <       0.00630952 Ry

     total magnetization       =    17.48 Bohr mag/cell
     absolute magnetization    =    37.27 Bohr mag/cell

     iteration # 16     ecut=    45.00 Ry     beta= 0.10
     Davidson diagonalization with overlap
     ethr =  2.13E-06,  avg # of iterations =  1.4

     total cpu time spent up to now is     1216.7 secs

     total energy              =  -14694.00487584 Ry
     Harris-Foulkes estimate   =  -14694.00454960 Ry
     estimated scf accuracy    <       0.00210007 Ry

     total magnetization       =    17.48 Bohr mag/cell
     absolute magnetization    =    37.28 Bohr mag/cell

     iteration # 17     ecut=    45.00 Ry     beta= 0.10
     Davidson diagonalization with overlap
     ethr =  7.09E-07,  avg # of iterations =  3.0

     total cpu time spent up to now is     1271.3 secs

     total energy              =  -14694.00506799 Ry
     Harris-Foulkes estimate   =  -14694.00494864 Ry
     estimated scf accuracy    <       0.00095434 Ry

     total magnetization       =    17.46 Bohr mag/cell
     absolute magnetization    =    37.27 Bohr mag/cell

     iteration # 18     ecut=    45.00 Ry     beta= 0.10
     Davidson diagonalization with overlap
     ethr =  3.22E-07,  avg # of iterations =  1.8

     total cpu time spent up to now is     1309.5 secs

     total energy              =  -14694.00509960 Ry
     Harris-Foulkes estimate   =  -14694.00507981 Ry
     estimated scf accuracy    <       0.00041614 Ry

     total magnetization       =    17.45 Bohr mag/cell
     absolute magnetization    =    37.26 Bohr mag/cell

     iteration # 19     ecut=    45.00 Ry     beta= 0.10
     Davidson diagonalization with overlap
     ethr =  1.41E-07,  avg # of iterations =  1.3

     total cpu time spent up to now is     1355.9 secs

     total energy              =  -14694.00512357 Ry
     Harris-Foulkes estimate   =  -14694.00510295 Ry
     estimated scf accuracy    <       0.00032219 Ry

     total magnetization       =    17.45 Bohr mag/cell
     absolute magnetization    =    37.26 Bohr mag/cell

     iteration # 20     ecut=    45.00 Ry     beta= 0.10
     Davidson diagonalization with overlap
     ethr =  1.09E-07,  avg # of iterations =  1.0

     total cpu time spent up to now is     1411.0 secs

     total energy              =  -14694.00514705 Ry
     Harris-Foulkes estimate   =  -14694.00512521 Ry
     estimated scf accuracy    <       0.00012208 Ry

     total magnetization       =    17.45 Bohr mag/cell
     absolute magnetization    =    37.26 Bohr mag/cell

     iteration # 21     ecut=    45.00 Ry     beta= 0.10
     Davidson diagonalization with overlap
     ethr =  4.12E-08,  avg # of iterations =  1.4

     total cpu time spent up to now is     1468.4 secs

     total energy              =  -14694.00516487 Ry
     Harris-Foulkes estimate   =  -14694.00514556 Ry
     estimated scf accuracy    <       0.00012510 Ry

     total magnetization       =    17.45 Bohr mag/cell
     absolute magnetization    =    37.25 Bohr mag/cell

     iteration # 22     ecut=    45.00 Ry     beta= 0.10
     Davidson diagonalization with overlap
     ethr =  4.12E-08,  avg # of iterations =  1.4

     total cpu time spent up to now is     1524.9 secs

     total energy              =  -14694.00517037 Ry
     Harris-Foulkes estimate   =  -14694.00515869 Ry
     estimated scf accuracy    <       0.00009003 Ry

     total magnetization       =    17.44 Bohr mag/cell
     absolute magnetization    =    37.25 Bohr mag/cell

     iteration # 23     ecut=    45.00 Ry     beta= 0.10
     Davidson diagonalization with overlap
     ethr =  3.04E-08,  avg # of iterations =  1.4

     total cpu time spent up to now is     1581.3 secs

     total energy              =  -14694.00516788 Ry
     Harris-Foulkes estimate   =  -14694.00516386 Ry
     estimated scf accuracy    <       0.00004212 Ry

     total magnetization       =    17.44 Bohr mag/cell
     absolute magnetization    =    37.25 Bohr mag/cell

     iteration # 24     ecut=    45.00 Ry     beta= 0.10
     Davidson diagonalization with overlap
     ethr =  1.42E-08,  avg # of iterations =  1.2

     total cpu time spent up to now is     1637.1 secs

     total energy              =  -14694.00516771 Ry
     Harris-Foulkes estimate   =  -14694.00516568 Ry
     estimated scf accuracy    <       0.00002128 Ry

     total magnetization       =    17.44 Bohr mag/cell
     absolute magnetization    =    37.25 Bohr mag/cell

     iteration # 25     ecut=    45.00 Ry     beta= 0.10
     Davidson diagonalization with overlap
     ethr =  7.19E-09,  avg # of iterations =  1.2

     total cpu time spent up to now is     1693.0 secs

     total energy              =  -14694.00516871 Ry
     Harris-Foulkes estimate   =  -14694.00516726 Ry
     estimated scf accuracy    <       0.00002079 Ry

     total magnetization       =    17.44 Bohr mag/cell
     absolute magnetization    =    37.25 Bohr mag/cell

     iteration # 26     ecut=    45.00 Ry     beta= 0.10
     Davidson diagonalization with overlap
     ethr =  7.02E-09,  avg # of iterations =  1.1

     total cpu time spent up to now is     1748.1 secs

     total energy              =  -14694.00516846 Ry
     Harris-Foulkes estimate   =  -14694.00516743 Ry
     estimated scf accuracy    <       0.00000438 Ry

     total magnetization       =    17.44 Bohr mag/cell
     absolute magnetization    =    37.25 Bohr mag/cell

     iteration # 27     ecut=    45.00 Ry     beta= 0.10
     Davidson diagonalization with overlap
     ethr =  1.48E-09,  avg # of iterations =  2.1

     total cpu time spent up to now is     1788.0 secs

     total energy              =  -14694.00516936 Ry
     Harris-Foulkes estimate   =  -14694.00516857 Ry
     estimated scf accuracy    <       0.00001227 Ry

     total magnetization       =    17.44 Bohr mag/cell
     absolute magnetization    =    37.25 Bohr mag/cell

     iteration # 28     ecut=    45.00 Ry     beta= 0.10
     Davidson diagonalization with overlap
     ethr =  1.48E-09,  avg # of iterations =  1.0

     total cpu time spent up to now is     1821.2 secs

     total energy              =  -14694.00517041 Ry
     Harris-Foulkes estimate   =  -14694.00516975 Ry
     estimated scf accuracy    <       0.00000957 Ry

     total magnetization       =    17.44 Bohr mag/cell
     absolute magnetization    =    37.25 Bohr mag/cell

     iteration # 29     ecut=    45.00 Ry     beta= 0.10
     Davidson diagonalization with overlap
     ethr =  1.48E-09,  avg # of iterations =  1.0

     total cpu time spent up to now is     1854.2 secs

     total energy              =  -14694.00517017 Ry
     Harris-Foulkes estimate   =  -14694.00516958 Ry
     estimated scf accuracy    <       0.00000306 Ry

     total magnetization       =    17.44 Bohr mag/cell
     absolute magnetization    =    37.25 Bohr mag/cell

     iteration # 30     ecut=    45.00 Ry     beta= 0.10
     Davidson diagonalization with overlap
     ethr =  1.04E-09,  avg # of iterations =  1.1

     total cpu time spent up to now is     1901.6 secs

     total energy              =  -14694.00517103 Ry
     Harris-Foulkes estimate   =  -14694.00517053 Ry
     estimated scf accuracy    <       0.00000663 Ry

     total magnetization       =    17.44 Bohr mag/cell
     absolute magnetization    =    37.25 Bohr mag/cell

     iteration # 31     ecut=    45.00 Ry     beta= 0.10
     Davidson diagonalization with overlap
     ethr =  1.04E-09,  avg # of iterations =  1.0

     total cpu time spent up to now is     1957.0 secs

     total energy              =  -14694.00517182 Ry
     Harris-Foulkes estimate   =  -14694.00517139 Ry
     estimated scf accuracy    <       0.00000914 Ry

     total magnetization       =    17.44 Bohr mag/cell
     absolute magnetization    =    37.25 Bohr mag/cell

     iteration # 32     ecut=    45.00 Ry     beta= 0.10
     Davidson diagonalization with overlap
     ethr =  1.04E-09,  avg # of iterations =  1.0

     total cpu time spent up to now is     2011.9 secs

     total energy              =  -14694.00517230 Ry
     Harris-Foulkes estimate   =  -14694.00517192 Ry
     estimated scf accuracy    <       0.00000107 Ry

     total magnetization       =    17.44 Bohr mag/cell
     absolute magnetization    =    37.25 Bohr mag/cell

     iteration # 33     ecut=    45.00 Ry     beta= 0.10
     Davidson diagonalization with overlap
     ethr =  3.63E-10,  avg # of iterations =  1.8
 
     Magnetic moment per site:
     atom:    1    charge:   13.5462    magn:    4.2457    constr:    0.0000
     atom:    2    charge:   13.5526    magn:    4.2016    constr:    0.0000
     atom:    3    charge:   13.5527    magn:    4.2015    constr:    0.0000
     atom:    4    charge:   13.5462    magn:    4.2457    constr:    0.0000
     atom:    5    charge:   13.5468    magn:   -4.2420    constr:    0.0000
     atom:    6    charge:   13.5457    magn:    4.2470    constr:    0.0000
     atom:    7    charge:   13.5457    magn:    4.2469    constr:    0.0000
     atom:    8    charge:   13.5470    magn:   -4.2421    constr:    0.0000
     atom:    9    charge:    9.1229    magn:    0.0325    constr:    0.0000
     atom:   10    charge:    9.1220    magn:    0.0313    constr:    0.0000
     atom:   11    charge:    9.1205    magn:    0.0305    constr:    0.0000
     atom:   12    charge:    9.1204    magn:    0.0305    constr:    0.0000
     atom:   13    charge:    9.1219    magn:    0.0313    constr:    0.0000
     atom:   14    charge:    9.1230    magn:    0.0326    constr:    0.0000
     atom:   15    charge:    9.1242    magn:    0.0420    constr:    0.0000
     atom:   16    charge:    9.1239    magn:   -0.0394    constr:    0.0000
     atom:   17    charge:    9.1229    magn:   -0.0391    constr:    0.0000
     atom:   18    charge:    9.1238    magn:    0.0458    constr:    0.0000
     atom:   19    charge:    9.1235    magn:    0.0379    constr:    0.0000
     atom:   20    charge:    9.1234    magn:    0.0379    constr:    0.0000
     atom:   21    charge:    9.1238    magn:    0.0457    constr:    0.0000
     atom:   22    charge:    9.1231    magn:   -0.0391    constr:    0.0000
     atom:   23    charge:    9.1241    magn:   -0.0394    constr:    0.0000
     atom:   24    charge:    9.1241    magn:    0.0419    constr:    0.0000

     total cpu time spent up to now is     2070.1 secs

     End of self-consistent calculation
 --- enter write_ns ---
 LDA+U parameters:
U(  1) =   3.1200   J(  1) =   0.7000   B(  1) =   0.0803
U(  2) =   3.1200   J(  2) =   0.7000   B(  2) =   0.0803
atom    1   Tr[ns(na)] (up, down, total) =   4.97322  0.72766  5.70088
   spin  1
    eigenvalues: 
  0.985  0.994  0.994  0.997  1.002
    eigenvectors:
  0.000  0.000  0.000  1.000  0.000
  0.000  0.107  0.893  0.000  0.000
  0.000  0.893  0.107  0.000  0.000
  0.000  0.000  0.000  0.000  1.000
  1.000  0.000  0.000  0.000  0.000
    occupations:
  0.997 -0.000 -0.000  0.000  0.000
 -0.000  0.994 -0.000  0.000  0.000
 -0.000 -0.000  0.994  0.000  0.000
  0.000  0.000  0.000  1.002 -0.000
  0.000  0.000  0.000 -0.000  0.985
   spin  2
    eigenvalues: 
  0.067  0.123  0.145  0.145  0.247
    eigenvectors:
  0.000  1.000  0.000  0.000  0.000
  0.000  0.000  0.130  0.870  0.000
  0.000  0.000  0.870  0.130  0.000
  1.000  0.000  0.000  0.000  0.000
  0.000  0.000  0.000  0.000  1.000
    occupations:
  0.123 -0.000 -0.000  0.000  0.000
 -0.000  0.145 -0.000  0.000  0.000
 -0.000 -0.000  0.145  0.000  0.000
  0.000  0.000  0.000  0.067 -0.000
  0.000  0.000  0.000 -0.000  0.247
atomic mag. moment =     4.245557
atom    2   Tr[ns(na)] (up, down, total) =   4.96967  0.76256  5.73222
   spin  1
    eigenvalues: 
  0.984  0.993  0.993  0.997  1.002
    eigenvectors:
  0.000  0.000  0.000  1.000  0.000
  0.000  0.100  0.900  0.000  0.000
  0.000  0.900  0.100  0.000  0.000
  0.000  0.000  0.000  0.000  1.000
  1.000  0.000  0.000  0.000  0.000
    occupations:
  0.997 -0.000 -0.000  0.000  0.000
 -0.000  0.993 -0.000  0.000  0.000
 -0.000 -0.000  0.993  0.000  0.000
  0.000  0.000  0.000  1.002 -0.000
  0.000  0.000  0.000 -0.000  0.984
   spin  2
    eigenvalues: 
  0.064  0.141  0.144  0.144  0.269
    eigenvectors:
  0.000  1.000  0.000  0.000  0.000
  0.000  0.000  0.124  0.876  0.000
  0.000  0.000  0.876  0.124  0.000
  1.000  0.000  0.000  0.000  0.000
  0.000  0.000  0.000  0.000  1.000
    occupations:
  0.141 -0.000 -0.000  0.000  0.000
 -0.000  0.144 -0.000  0.000  0.000
 -0.000 -0.000  0.144  0.000  0.000
  0.000  0.000  0.000  0.064 -0.000
  0.000  0.000  0.000 -0.000  0.269
atomic mag. moment =     4.207110
atom    3   Tr[ns(na)] (up, down, total) =   4.96967  0.76274  5.73241
   spin  1
    eigenvalues: 
  0.984  0.993  0.993  0.997  1.002
    eigenvectors:
  0.000  0.000  0.000  1.000  0.000
  0.000  0.114  0.886  0.000  0.000
  0.000  0.886  0.114  0.000  0.000
  0.000  0.000  0.000  0.000  1.000
  1.000  0.000  0.000  0.000  0.000
    occupations:
  0.997 -0.000 -0.000  0.000  0.000
 -0.000  0.993 -0.000  0.000  0.000
 -0.000 -0.000  0.993  0.000  0.000
  0.000  0.000  0.000  1.002 -0.000
  0.000  0.000  0.000 -0.000  0.984
   spin  2
    eigenvalues: 
  0.064  0.141  0.144  0.144  0.270
    eigenvectors:
  0.000  1.000  0.000  0.000  0.000
  0.000  0.000  0.143  0.857  0.000
  0.000  0.000  0.857  0.143  0.000
  1.000  0.000  0.000  0.000  0.000
  0.000  0.000  0.000  0.000  1.000
    occupations:
  0.141 -0.000 -0.000  0.000  0.000
 -0.000  0.144 -0.000  0.000  0.000
 -0.000 -0.000  0.144  0.000  0.000
  0.000  0.000  0.000  0.064 -0.000
  0.000  0.000  0.000 -0.000  0.270
atomic mag. moment =     4.206936
atom    4   Tr[ns(na)] (up, down, total) =   4.97322  0.72759  5.70081
   spin  1
    eigenvalues: 
  0.985  0.994  0.994  0.997  1.002
    eigenvectors:
  0.000  0.000  0.000  1.000  0.000
  0.000  0.121  0.879  0.000  0.000
  0.000  0.879  0.121  0.000  0.000
  0.000  0.000  0.000  0.000  1.000
  1.000  0.000  0.000  0.000  0.000
    occupations:
  0.997 -0.000 -0.000  0.000  0.000
 -0.000  0.994 -0.000  0.000  0.000
 -0.000 -0.000  0.994  0.000  0.000
  0.000  0.000  0.000  1.002 -0.000
  0.000  0.000  0.000 -0.000  0.985
   spin  2
    eigenvalues: 
  0.067  0.123  0.145  0.145  0.247
    eigenvectors:
  0.000  1.000  0.000  0.000  0.000
  0.000  0.000  0.138  0.862  0.000
  0.000  0.000  0.862  0.138  0.000
  1.000  0.000  0.000  0.000  0.000
  0.000  0.000  0.000  0.000  1.000
    occupations:
  0.123 -0.000 -0.000  0.000  0.000
 -0.000  0.145 -0.000  0.000  0.000
 -0.000 -0.000  0.145  0.000  0.000
  0.000  0.000  0.000  0.067 -0.000
  0.000  0.000  0.000 -0.000  0.247
atomic mag. moment =     4.245626
atom    5   Tr[ns(na)] (up, down, total) =   0.73301  4.97014  5.70315
   spin  1
    eigenvalues: 
  0.064  0.125  0.145  0.145  0.254
    eigenvectors:
  0.000  1.000  0.000  0.000  0.000
  0.000  0.000  0.083  0.917  0.000
  0.000  0.000  0.917  0.083  0.000
  1.000  0.000  0.000  0.000  0.000
  0.000  0.000  0.000  0.000  1.000
    occupations:
  0.125 -0.000 -0.000  0.000  0.000
 -0.000  0.145 -0.000  0.000  0.000
 -0.000 -0.000  0.145  0.000  0.000
  0.000  0.000  0.000  0.064 -0.000
  0.000  0.000  0.000 -0.000  0.254
   spin  2
    eigenvalues: 
  0.984  0.994  0.994  0.996  1.003
    eigenvectors:
  0.000  0.000  0.000  1.000  0.000
  0.000  0.102  0.898  0.000  0.000
  0.000  0.898  0.102  0.000  0.000
  0.000  0.000  0.000  0.000  1.000
  1.000  0.000  0.000  0.000  0.000
    occupations:
  0.996 -0.000 -0.000  0.000  0.000
 -0.000  0.994 -0.000  0.000  0.000
 -0.000 -0.000  0.994  0.000  0.000
  0.000  0.000  0.000  1.003 -0.000
  0.000  0.000  0.000 -0.000  0.984
atomic mag. moment =    -4.237135
atom    6   Tr[ns(na)] (up, down, total) =   4.97333  0.72727  5.70060
   spin  1
    eigenvalues: 
  0.985  0.994  0.994  0.997  1.002
    eigenvectors:
  0.000  0.000  0.000  1.000  0.000
  0.000  0.132  0.868  0.000  0.000
  0.000  0.868  0.132  0.000  0.000
  0.000  0.000  0.000  0.000  1.000
  1.000  0.000  0.000  0.000  0.000
    occupations:
  0.997 -0.000 -0.000  0.000  0.000
 -0.000  0.994 -0.000  0.000  0.000
 -0.000 -0.000  0.994  0.000  0.000
  0.000  0.000  0.000  1.002 -0.000
  0.000  0.000  0.000 -0.000  0.985
   spin  2
    eigenvalues: 
  0.066  0.121  0.146  0.146  0.248
    eigenvectors:
  0.000  1.000  0.000  0.000  0.000
  0.000  0.000  0.141  0.859  0.000
  0.000  0.000  0.859  0.141  0.000
  1.000  0.000  0.000  0.000  0.000
  0.000  0.000  0.000  0.000  1.000
    occupations:
  0.121 -0.000 -0.000  0.000  0.000
 -0.000  0.146 -0.000  0.000  0.000
 -0.000 -0.000  0.146  0.000  0.000
  0.000  0.000  0.000  0.066 -0.000
  0.000  0.000  0.000 -0.000  0.248
atomic mag. moment =     4.246059
atom    7   Tr[ns(na)] (up, down, total) =   4.97333  0.72743  5.70076
   spin  1
    eigenvalues: 
  0.985  0.994  0.994  0.997  1.002
    eigenvectors:
  0.000  0.000  0.000  1.000  0.000
  0.000  0.132  0.868  0.000  0.000
  0.000  0.868  0.132  0.000  0.000
  0.000  0.000  0.000  0.000  1.000
  1.000  0.000  0.000  0.000  0.000
    occupations:
  0.997 -0.000 -0.000  0.000  0.000
 -0.000  0.994 -0.000  0.000  0.000
 -0.000 -0.000  0.994  0.000  0.000
  0.000  0.000  0.000  1.002 -0.000
  0.000  0.000  0.000 -0.000  0.985
   spin  2
    eigenvalues: 
  0.066  0.121  0.146  0.146  0.248
    eigenvectors:
  0.000  1.000  0.000  0.000  0.000
  0.000  0.000  0.149  0.851  0.000
  0.000  0.000  0.851  0.149  0.000
  1.000  0.000  0.000  0.000  0.000
  0.000  0.000  0.000  0.000  1.000
    occupations:
  0.121 -0.000 -0.000  0.000  0.000
 -0.000  0.146 -0.000  0.000  0.000
 -0.000 -0.000  0.146  0.000  0.000
  0.000  0.000  0.000  0.066 -0.000
  0.000  0.000  0.000 -0.000  0.248
atomic mag. moment =     4.245898
atom    8   Tr[ns(na)] (up, down, total) =   0.73294  4.97015  5.70309
   spin  1
    eigenvalues: 
  0.064  0.125  0.145  0.145  0.254
    eigenvectors:
  0.000  1.000  0.000  0.000  0.000
  0.000  0.000  0.154  0.846  0.000
  0.000  0.000  0.846  0.154  0.000
  1.000  0.000  0.000  0.000  0.000
  0.000  0.000  0.000  0.000  1.000
    occupations:
  0.125 -0.000 -0.000  0.000  0.000
 -0.000  0.145 -0.000  0.000  0.000
 -0.000 -0.000  0.145  0.000  0.000
  0.000  0.000  0.000  0.064 -0.000
  0.000  0.000  0.000 -0.000  0.254
   spin  2
    eigenvalues: 
  0.984  0.994  0.994  0.996  1.003
    eigenvectors:
  0.000  0.000  0.000  1.000  0.000
  0.000  0.124  0.876  0.000  0.000
  0.000  0.876  0.124  0.000  0.000
  0.000  0.000  0.000  0.000  1.000
  1.000  0.000  0.000  0.000  0.000
    occupations:
  0.996 -0.000 -0.000  0.000  0.000
 -0.000  0.994 -0.000  0.000  0.000
 -0.000 -0.000  0.994  0.000  0.000
  0.000  0.000  0.000  1.003 -0.000
  0.000  0.000  0.000 -0.000  0.984
atomic mag. moment =    -4.237210
N of occupied +U levels =   45.673924
 --- exit write_ns ---

 ------ SPIN UP ------------


          k = 0.0000 0.0000 0.0000 ( 13925 PWs)   bands (ev):

   -66.7657 -66.7656 -66.7639 -66.7635 -66.6007 -66.6001 -62.2082 -62.2082
   -35.5340 -35.5337 -35.5325 -35.5324 -35.4838 -35.4838 -35.4837 -35.4837
   -35.4802 -35.4802 -35.4799 -35.4799 -35.3792 -35.3786 -35.3155 -35.3155
   -35.3149 -35.3149 -31.0332 -31.0332 -31.0254 -31.0254 -31.0254 -31.0254
     5.7404   5.8812   5.8995   6.3330   6.3375   6.9741   7.0492   7.6125
     8.2161   8.3784   8.3831   8.4024   8.4385   8.4666   8.5107   8.6749
     8.7053   8.7585   8.7695   8.8274   8.9234   8.9637   9.1523   9.2333
     9.2548   9.3756   9.4387   9.4725   9.5036   9.6243   9.6968   9.8661
     9.8974   9.9069   9.9571  10.0475  10.0967  10.1173  10.1173  10.1306
    10.1327  10.1449  10.1568  10.1568  10.2003  10.2003  10.3361  10.3361
    10.3408  10.3408  10.3659  10.4746  10.5318  10.5618  10.5618  10.5793
    10.5807  10.5807  10.6016  10.6016  10.6027  10.6027  10.6080  10.6080
    10.6637  10.6853  10.6853  10.7257  10.7257  10.7939  10.7939  10.8933
    10.9032  11.0127  11.0127  11.0393  11.0393  11.0813  11.1266  11.2158
    11.2336  11.2516  11.2643  11.3516  11.4135  11.4135  11.5804  11.5804
    11.5850  11.6089  11.6286  11.6340  11.7008  11.7409  11.8598  11.9376
    11.9717  11.9717  12.0016  12.0416  12.0416  12.0719  12.0895  12.1476
    12.2355  12.2399  12.4419  12.4419  12.5504  12.5511  12.5511  12.6573
    12.7670  12.7676  12.7676  12.8141  12.9650  12.9763  13.0245  13.1246
    13.2642  13.9790  14.0784  15.1687  15.5042  16.3951  16.8926  16.8926
    16.9007  16.9007  16.9564  16.9564  17.1042  17.1045  17.5501  17.5614
    18.2008  19.3859  19.5907  20.0364  20.0364  20.3869  20.3869  20.4243
    20.4243  21.3824

          k = 0.0000 0.0000-0.0484 ( 13878 PWs)   bands (ev):

   -66.7657 -66.7656 -66.7639 -66.7635 -66.6007 -66.6001 -62.2082 -62.2082
   -35.5340 -35.5337 -35.5325 -35.5324 -35.4838 -35.4838 -35.4837 -35.4837
   -35.4802 -35.4802 -35.4799 -35.4799 -35.3792 -35.3786 -35.3155 -35.3155
   -35.3149 -35.3149 -31.0332 -31.0332 -31.0254 -31.0254 -31.0254 -31.0254
     5.7724   5.7843   6.0373   6.1229   6.5966   6.7008   7.3636   7.4039
     8.3723   8.3848   8.3995   8.4084   8.4404   8.4686   8.4718   8.5505
     8.6648   8.7106   8.7168   8.9152   8.9582   9.0702   9.1233   9.2446
     9.2860   9.3355   9.3497   9.4332   9.5909   9.6570   9.6838   9.8257
     9.9013   9.9022   9.9586  10.0786  10.1021  10.1212  10.1212  10.1213
    10.1277  10.1436  10.1436  10.1550  10.2430  10.2430  10.2521  10.2521
    10.3620  10.4208  10.4526  10.4526  10.4655  10.4655  10.5628  10.5628
    10.5833  10.5833  10.5873  10.6011  10.6026  10.6026  10.6385  10.6702
    10.6702  10.7151  10.7151  10.7446  10.7446  10.8033  10.8033  10.8674
    10.8720  10.8720  10.9219  11.0566  11.1709  11.2170  11.2175  11.2235
    11.2235  11.2519  11.2611  11.2666  11.2666  11.3539  11.5512  11.6197
    11.6242  11.6686  11.6850  11.6850  11.7057  11.7294  11.8587  11.8587
    11.8649  11.9229  11.9997  12.0680  12.0926  12.1194  12.1194  12.1773
    12.2155  12.2354  12.4121  12.4121  12.5582  12.5680  12.5680  12.6492
    12.7658  12.7658  12.7703  12.8917  12.8928  12.9619  12.9789  13.1246
    13.3939  13.7255  14.3652  14.8901  15.8227  16.2082  16.8928  16.8928
    16.9005  16.9005  16.9564  16.9564  17.1042  17.1045  17.5501  17.5592
    18.5160  18.7386  20.1283  20.1283  20.1346  20.1346  20.3838  20.5642
    20.7880  20.7882

          k = 0.0000 0.1250 0.0000 ( 13879 PWs)   bands (ev):

   -66.7654 -66.7653 -66.7636 -66.7633 -66.6004 -66.5998 -62.2082 -62.2082
   -35.5338 -35.5335 -35.5324 -35.5322 -35.4856 -35.4855 -35.4837 -35.4836
   -35.4820 -35.4817 -35.4801 -35.4798 -35.3790 -35.3785 -35.3173 -35.3167
   -35.3154 -35.3148 -31.0330 -31.0330 -31.0276 -31.0276 -31.0253 -31.0253
     5.9840   6.1216   6.1379   6.5560   6.5600   7.1633   7.2238   7.7416
     8.2320   8.4685   8.5194   8.5247   8.5355   8.5821   8.6088   8.6885
     8.7188   8.7777   8.8058   8.9036   8.9250   9.0159   9.1262   9.1710
     9.2575   9.2872   9.3054   9.4149   9.4180   9.6118   9.7217   9.7812
     9.8031   9.8117   9.8263   9.8749   9.9136   9.9213   9.9458  10.0078
    10.0133  10.0414  10.0613  10.1246  10.1248  10.1340  10.2075  10.2260
    10.2721  10.3104  10.3395  10.3879  10.4058  10.4488  10.4891  10.5714
    10.6114  10.6148  10.6328  10.6548  10.7179  10.7277  10.7526  10.8049
    10.8155  10.8449  10.8485  10.8614  10.9381  11.0104  11.0501  11.0681
    11.0979  11.1446  11.1556  11.1600  11.1749  11.1878  11.2355  11.2429
    11.3212  11.3323  11.3511  11.3761  11.3979  11.4549  11.4908  11.5791
    11.6034  11.6544  11.6928  11.7460  11.7850  11.8046  11.8594  11.8932
    11.8971  11.9003  11.9469  11.9668  12.0710  12.0783  12.2073  12.2313
    12.2361  12.3053  12.3677  12.4025  12.4053  12.5133  12.5694  12.5993
    12.7602  12.7889  12.7991  12.8348  12.8590  13.0035  13.0098  13.0148
    13.2269  14.0298  14.1168  15.2923  15.6233  16.5228  16.6669  16.7646
    16.9654  16.9673  17.0014  17.0031  17.0224  17.0253  17.5776  17.8739
    18.2992  18.5979  18.9067  18.9742  19.7220  19.7789  19.8094  19.8892
    20.6461  20.8650

          k = 0.0000 0.1250-0.0484 ( 13868 PWs)   bands (ev):

   -66.7654 -66.7653 -66.7636 -66.7633 -66.6004 -66.5998 -62.2082 -62.2082
   -35.5338 -35.5335 -35.5324 -35.5322 -35.4856 -35.4855 -35.4837 -35.4836
   -35.4820 -35.4817 -35.4801 -35.4798 -35.3790 -35.3785 -35.3173 -35.3167
   -35.3154 -35.3148 -31.0330 -31.0330 -31.0276 -31.0276 -31.0253 -31.0253
     6.0149   6.0271   6.2728   6.3531   6.8103   6.9001   7.5202   7.5482
     8.3931   8.4368   8.4928   8.4997   8.5228   8.5329   8.5918   8.6444
     8.7455   8.7997   8.8161   8.9389   9.0054   9.0154   9.0442   9.1314
     9.2713   9.2763   9.3248   9.3971   9.4959   9.5411   9.7632   9.7847
     9.7903   9.7993   9.8430   9.8662   9.9061   9.9216   9.9459  10.0010
    10.0058  10.0521  10.0674  10.1044  10.1401  10.1506  10.1885  10.2554
    10.2729  10.2956  10.3185  10.3453  10.4459  10.4856  10.5496  10.5529
    10.5642  10.6136  10.6219  10.6338  10.6550  10.7282  10.8038  10.8330
    10.8350  10.8407  10.8473  10.9176  10.9376  10.9524  11.0336  11.0445
    11.1038  11.1393  11.1611  11.1683  11.1787  11.2190  11.2433  11.2466
    11.2549  11.3202  11.3227  11.4084  11.4144  11.4804  11.5704  11.5819
    11.5907  11.6583  11.6631  11.7076  11.7079  11.8058  11.8523  11.8760
    11.9322  11.9356  11.9533  12.0488  12.0615  12.0810  12.1681  12.2073
    12.2285  12.2558  12.4124  12.4206  12.4331  12.5085  12.5442  12.5968
    12.7917  12.8088  12.8323  12.8427  12.8491  12.8536  13.0101  13.0148
    13.3946  13.7204  14.4607  14.9753  15.9581  16.3208  16.7315  16.7438
    16.9655  16.9671  17.0015  17.0031  17.0225  17.0252  17.6355  17.6821
    18.6674  18.7042  18.7986  18.9606  19.2641  19.3803  20.2686  20.3332
    20.7106  20.7381

          k = 0.0000 0.2500 0.0000 ( 13848 PWs)   bands (ev):

   -66.7653 -66.7651 -66.7635 -66.7632 -66.6002 -66.5997 -62.2078 -62.2078
   -35.5334 -35.5331 -35.5320 -35.5318 -35.4898 -35.4897 -35.4862 -35.4859
   -35.4835 -35.4834 -35.4799 -35.4796 -35.3786 -35.3781 -35.3215 -35.3209
   -35.3152 -35.3146 -31.0329 -31.0328 -31.0324 -31.0324 -31.0250 -31.0249
     6.6731   6.7990   6.8092   7.1689   7.1721   7.6428   7.6610   8.0087
     8.2129   8.4391   8.4411   8.6537   8.6581   8.7149   8.7884   8.8128
     8.8336   8.8506   8.8638   8.8932   8.8946   8.9683   8.9928   9.0804
     9.1041   9.2192   9.2353   9.4636   9.4753   9.4913   9.5534   9.5680
     9.6007   9.6062   9.6321   9.6629   9.7346   9.7459   9.7816   9.7924
     9.8360   9.9057   9.9882  10.0113  10.0319  10.1505  10.2351  10.2631
    10.3379  10.4640  10.5020  10.5424  10.5719  10.5949  10.5979  10.6728
    10.7106  10.7145  10.7351  10.7544  10.7926  10.8688  10.9053  10.9537
    10.9882  10.9964  11.0465  11.0810  11.0997  11.1410  11.1569  11.2248
    11.2616  11.2899  11.3504  11.3598  11.3881  11.4178  11.4537  11.4682
    11.5052  11.5137  11.5275  11.6202  11.6283  11.6339  11.6451  11.6726
    11.7515  11.7646  11.7666  11.8105  11.8306  11.8462  11.8496  11.8833
    11.8892  11.9325  12.0190  12.0358  12.0445  12.0624  12.0899  12.1506
    12.1969  12.2479  12.2892  12.4008  12.4851  12.5343  12.5824  12.6318
    12.6765  12.8534  12.8759  12.8819  12.9199  12.9308  13.0438  13.0721
    13.1091  14.1553  14.2115  15.4907  15.7162  16.0303  16.0623  16.2796
    16.3356  16.5830  16.7612  16.8614  16.8617  17.0278  17.0828  17.2750
    17.2751  17.4218  17.5315  17.7526  18.2873  18.3934  18.4661  18.4900
    19.2619  20.3228

          k = 0.0000 0.2500-0.0484 ( 13842 PWs)   bands (ev):

   -66.7653 -66.7651 -66.7635 -66.7632 -66.6002 -66.5997 -62.2078 -62.2078
   -35.5334 -35.5331 -35.5320 -35.5318 -35.4898 -35.4897 -35.4862 -35.4859
   -35.4835 -35.4834 -35.4799 -35.4796 -35.3786 -35.3781 -35.3215 -35.3209
   -35.3152 -35.3146 -31.0329 -31.0328 -31.0324 -31.0324 -31.0250 -31.0249
     6.7001   6.7133   6.9319   6.9954   7.3833   7.4290   7.8764   7.8774
     8.3071   8.3126   8.5535   8.5581   8.7096   8.7295   8.7675   8.7834
     8.8472   8.8549   8.8634   8.8917   8.9230   8.9732   8.9920   9.0791
     9.1041   9.1207   9.3527   9.4649   9.4706   9.5024   9.5280   9.5575
     9.6000   9.6035   9.6211   9.6238   9.7059   9.7776   9.7818   9.7942
     9.8903   9.9620  10.0028  10.0128  10.0191  10.0220  10.2635  10.2856
    10.3632  10.4281  10.5448  10.5538  10.5697  10.5888  10.6098  10.6183
    10.6677  10.7004  10.7246  10.8227  10.8443  10.8720  10.8926  10.9369
    10.9523  10.9892  11.0579  11.0823  11.1228  11.1377  11.1430  11.2303
    11.2865  11.2921  11.3346  11.3499  11.3746  11.4413  11.4438  11.4843
    11.5220  11.5237  11.5374  11.5385  11.5942  11.6182  11.7119  11.7122
    11.7282  11.7750  11.7787  11.8091  11.8331  11.8413  11.8594  11.8701
    11.8833  11.9135  11.9699  12.0464  12.0574  12.1099  12.1137  12.1506
    12.1560  12.2304  12.3222  12.3740  12.4885  12.5563  12.6168  12.6771
    12.6851  12.6964  12.8501  12.8783  12.8875  12.9160  13.0438  13.0721
    13.4102  13.6925  14.6855  15.1180  15.9504  15.9544  16.1515  16.2500
    16.3462  16.6453  16.6728  16.8614  16.8617  17.0348  17.0857  17.2750
    17.2751  17.3152  17.6662  17.8998  18.0080  18.1033  18.6823  18.7146
    19.4974  19.5906

          k = 0.0000 0.3750 0.0000 ( 13856 PWs)   bands (ev):

   -66.7658 -66.7657 -66.7640 -66.7637 -66.6008 -66.6002 -62.2069 -62.2068
   -35.5330 -35.5327 -35.5316 -35.5314 -35.4938 -35.4937 -35.4902 -35.4899
   -35.4832 -35.4831 -35.4796 -35.4793 -35.3782 -35.3777 -35.3256 -35.3250
   -35.3149 -35.3143 -31.0383 -31.0382 -31.0319 -31.0318 -31.0246 -31.0246
     7.6337   7.7307   7.7359   7.9534   7.9553   8.1180   8.1220   8.1727
     8.1767   8.2207   8.2281   8.3448   8.3508   8.5047   8.5583   8.7097
     8.8231   8.9183   8.9990   9.0330   9.1031   9.1569   9.2243   9.2255
     9.2330   9.2414   9.2431   9.2455   9.2928   9.3211   9.3341   9.4462
     9.5388   9.5389   9.5393   9.5672   9.5827   9.6687   9.6855   9.7242
     9.8275   9.9446   9.9985  10.0724  10.0899  10.0945  10.1730  10.3446
    10.3518  10.3644  10.3711  10.4748  10.4954  10.5212  10.6288  10.7042
    10.7671  10.7743  10.8180  10.8750  11.1106  11.1223  11.1566  11.1989
    11.2377  11.2788  11.3097  11.3395  11.4184  11.4364  11.4451  11.4720
    11.4900  11.4957  11.4996  11.5456  11.5761  11.5977  11.6148  11.6435
    11.6606  11.6731  11.6964  11.7291  11.7763  11.8163  11.8323  11.8338
    11.9034  11.9416  11.9435  12.0117  12.0371  12.0510  12.0544  12.0868
    12.0930  12.1716  12.1830  12.2159  12.2451  12.2759  12.3293  12.3747
    12.4213  12.4368  12.4707  12.5344  12.5720  12.6174  12.6350  12.7305
    12.7930  12.9207  12.9576  12.9641  12.9713  12.9720  12.9949  13.1022
    13.1188  13.9260  14.1035  14.1045  14.2516  14.2605  14.9181  14.9666
    15.1245  15.1597  15.7081  15.7263  15.9674  16.0340  16.7907  16.7909
    16.8948  16.9990  17.0086  17.0933  17.4767  17.4768  17.9405  17.9950
    19.4448  19.5391

          k = 0.0000 0.3750-0.0484 ( 13872 PWs)   bands (ev):

   -66.7658 -66.7657 -66.7640 -66.7637 -66.6008 -66.6002 -62.2069 -62.2068
   -35.5330 -35.5327 -35.5316 -35.5314 -35.4938 -35.4937 -35.4902 -35.4899
   -35.4832 -35.4831 -35.4796 -35.4793 -35.3782 -35.3777 -35.3256 -35.3250
   -35.3149 -35.3143 -31.0383 -31.0382 -31.0319 -31.0318 -31.0246 -31.0246
     7.6526   7.6679   7.8279   7.8504   8.0381   8.0684   8.1558   8.1592
     8.1832   8.1985   8.2749   8.2790   8.4166   8.4471   8.6368   8.6389
     8.8670   8.9179   8.9736   8.9960   9.1390   9.1844   9.2190   9.2232
     9.2250   9.2325   9.2538   9.2969   9.2971   9.3067   9.3140   9.3864
     9.4986   9.5029   9.5420   9.5878   9.6416   9.6742   9.7583   9.7595
     9.8161   9.9131   9.9224  10.0278  10.0718  10.0832  10.3302  10.3345
    10.3442  10.3611  10.4228  10.4642  10.4836  10.5161  10.5644  10.6528
    10.6676  10.8127  10.9102  11.0278  11.0399  11.0883  11.1951  11.2000
    11.2341  11.2406  11.3009  11.3730  11.3885  11.4233  11.4477  11.4638
    11.4936  11.4942  11.5086  11.5167  11.5564  11.5696  11.5857  11.6048
    11.6848  11.6875  11.7188  11.7569  11.8101  11.8138  11.8140  11.8278
    11.8662  11.8948  11.9967  12.0424  12.0588  12.0648  12.0945  12.1118
    12.1306  12.1423  12.1740  12.1787  12.2810  12.3644  12.3814  12.3968
    12.4118  12.4331  12.4839  12.4863  12.5264  12.5694  12.5750  12.6686
    12.7299  12.7936  12.9155  12.9646  12.9652  12.9745  13.1021  13.1188
    13.5277  13.5944  14.0030  14.0403  14.5455  14.5587  14.5962  14.6573
    15.3728  15.3816  15.6051  15.6255  15.9635  16.0376  16.7907  16.7909
    16.9169  16.9981  17.0097  17.0852  17.4767  17.4768  17.9412  17.9985
    19.4889  19.6033

          k = 0.0000-0.5000 0.0000 ( 13918 PWs)   bands (ev):

   -66.7663 -66.7662 -66.7645 -66.7642 -66.6013 -66.6007 -62.2063 -62.2062
   -35.5328 -35.5326 -35.5314 -35.5313 -35.4955 -35.4954 -35.4919 -35.4916
   -35.4831 -35.4830 -35.4795 -35.4792 -35.3780 -35.3775 -35.3272 -35.3266
   -35.3148 -35.3142 -31.0405 -31.0405 -31.0316 -31.0316 -31.0245 -31.0245
     8.1126   8.1126   8.1227   8.1227   8.1844   8.1844   8.2591   8.2592
     8.3637   8.3638   8.4361   8.4361   8.5000   8.5000   8.6320   8.6320
     8.6970   8.6970   8.8902   8.8903   9.1218   9.1218   9.1448   9.1448
     9.2099   9.2099   9.2147   9.2147   9.4008   9.4008   9.4040   9.4040
     9.4834   9.4834   9.6849   9.6850   9.7163   9.7163   9.7315   9.7315
     9.8230   9.8231   9.9413   9.9413  10.0275  10.0275  10.0824  10.0824
    10.2943  10.2943  10.4198  10.4199  10.5634  10.5635  10.5676  10.5677
    10.6854  10.6854  10.8835  10.8836  11.2146  11.2147  11.2853  11.2854
    11.4203  11.4204  11.4466  11.4466  11.5020  11.5022  11.5577  11.5577
    11.5789  11.5791  11.5859  11.5860  11.6425  11.6425  11.6876  11.6876
    11.7648  11.7648  11.7758  11.7759  11.8417  11.8418  11.9452  11.9452
    11.9792  11.9793  12.2276  12.2276  12.2714  12.2715  12.4054  12.4054
    12.4534  12.4534  12.5134  12.5135  12.5607  12.5607  12.6021  12.6021
    12.6550  12.6550  12.6770  12.6770  12.7911  12.7912  12.8773  12.8773
    12.9528  12.9528  12.9704  12.9704  13.0030  13.0030  13.1336  13.1336
    13.2705  13.2705  13.4405  13.4405  13.8360  13.8360  13.8807  13.8807
    14.4072  14.4072  14.4762  14.4762  14.7946  14.7946  16.6789  16.6789
    16.7718  16.7721  16.8633  16.8634  17.5506  17.5507  17.9410  17.9410
    19.4823  19.4823

          k = 0.0000-0.5000-0.0484 ( 13892 PWs)   bands (ev):

   -66.7663 -66.7662 -66.7645 -66.7642 -66.6013 -66.6007 -62.2063 -62.2062
   -35.5328 -35.5326 -35.5314 -35.5313 -35.4955 -35.4954 -35.4919 -35.4916
   -35.4831 -35.4830 -35.4795 -35.4792 -35.3780 -35.3775 -35.3272 -35.3266
   -35.3148 -35.3142 -31.0405 -31.0405 -31.0316 -31.0316 -31.0245 -31.0245
     8.1063   8.1063   8.1366   8.1367   8.1702   8.1702   8.2741   8.2741
     8.3474   8.3475   8.4497   8.4497   8.4937   8.4937   8.6300   8.6300
     8.7031   8.7031   8.8816   8.8818   9.1220   9.1220   9.1444   9.1444
     9.2150   9.2150   9.2334   9.2334   9.3752   9.3753   9.4002   9.4002
     9.4841   9.4841   9.6876   9.6877   9.7158   9.7158   9.7432   9.7432
     9.8181   9.8182   9.9421   9.9421  10.0270  10.0270  10.1112  10.1112
    10.2540  10.2541  10.4196  10.4197  10.5604  10.5604  10.5683  10.5684
    10.6849  10.6850  10.9170  10.9171  11.2147  11.2148  11.3200  11.3201
    11.3434  11.3434  11.4671  11.4672  11.5042  11.5044  11.5280  11.5280
    11.5751  11.5752  11.5927  11.5928  11.6154  11.6155  11.7397  11.7397
    11.7502  11.7502  11.7755  11.7755  11.8342  11.8343  11.9801  11.9802
    12.0158  12.0158  12.2054  12.2055  12.2257  12.2258  12.4085  12.4085
    12.4858  12.4859  12.5086  12.5086  12.5568  12.5569  12.5744  12.5745
    12.6800  12.6801  12.6904  12.6904  12.7899  12.7899  12.8215  12.8215
    12.9709  12.9710  13.0026  13.0026  13.0273  13.0273  13.1336  13.1336
    13.1969  13.1969  13.5334  13.5334  13.6839  13.6839  14.0506  14.0506
    14.2280  14.2281  14.6671  14.6671  14.7110  14.7110  16.6800  16.6800
    16.7718  16.7721  16.8631  16.8632  17.5506  17.5507  17.9410  17.9411
    19.5526  19.5528

          k = 0.1250 0.1250 0.0000 ( 13839 PWs)   bands (ev):

   -66.7651 -66.7650 -66.7633 -66.7630 -66.6001 -66.5995 -62.2083 -62.2082
   -35.5337 -35.5334 -35.5322 -35.5321 -35.4855 -35.4854 -35.4854 -35.4853
   -35.4819 -35.4818 -35.4816 -35.4815 -35.3788 -35.3783 -35.3172 -35.3172
   -35.3166 -35.3166 -31.0328 -31.0328 -31.0275 -31.0275 -31.0273 -31.0273
     6.2154   6.3502   6.3669   6.7744   6.7781   7.3576   7.4081   7.8907
     8.2950   8.5512   8.5940   8.6599   8.6709   8.6814   8.6980   8.7035
     8.7242   8.8969   8.9150   8.9767   8.9846   9.0812   9.0979   9.1262
     9.3223   9.3446   9.3742   9.4193   9.4584   9.5195   9.5775   9.6663
     9.7053   9.7482   9.7706   9.8545   9.8636   9.8645   9.8701   9.8778
     9.8945   9.9099   9.9158   9.9534  10.0338  10.1121  10.1229  10.1650
    10.2028  10.3079  10.3307  10.3348  10.3389  10.3867  10.4943  10.5085
    10.5107  10.5176  10.5755  10.6117  10.6320  10.6846  10.6889  10.7695
    10.7970  10.8294  10.8574  11.0360  11.0384  11.1013  11.1026  11.1143
    11.1372  11.1750  11.1775  11.1833  11.2042  11.2996  11.3237  11.3246
    11.3867  11.4482  11.4612  11.4874  11.5089  11.5841  11.5989  11.6377
    11.6527  11.6712  11.7558  11.7665  11.7912  11.8942  11.9194  11.9597
    11.9783  12.0261  12.0329  12.0484  12.0907  12.1203  12.1785  12.2189
    12.2573  12.3247  12.4201  12.4555  12.4860  12.5485  12.5917  12.6853
    12.6958  12.7056  12.7347  12.7611  12.8045  12.8889  12.8890  13.0137
    13.2398  14.1359  14.2181  15.4456  15.7721  16.5994  16.8252  16.8298
    16.8423  16.8872  16.9389  16.9948  16.9967  17.0128  17.6174  18.1916
    18.4539  19.1044  19.1969  19.2678  19.3815  19.5098  19.5880  19.9010
    19.9198  20.0760

          k = 0.1250 0.1250-0.0484 ( 13838 PWs)   bands (ev):

   -66.7651 -66.7650 -66.7633 -66.7630 -66.6001 -66.5995 -62.2083 -62.2082
   -35.5337 -35.5334 -35.5322 -35.5321 -35.4855 -35.4854 -35.4854 -35.4853
   -35.4819 -35.4818 -35.4816 -35.4815 -35.3788 -35.3783 -35.3172 -35.3172
   -35.3166 -35.3166 -31.0328 -31.0328 -31.0275 -31.0275 -31.0273 -31.0273
     6.2460   6.2575   6.4984   6.5771   7.0218   7.1027   7.6900   7.7094
     8.4325   8.4675   8.5770   8.5840   8.6625   8.6674   8.7201   8.7257
     8.8392   8.8863   8.8889   8.9237   8.9798   9.1065   9.1234   9.1469
     9.2380   9.3842   9.3940   9.4295   9.4651   9.4701   9.6007   9.6825
     9.6932   9.7317   9.7865   9.8464   9.8574   9.8606   9.8766   9.8889
     9.8898   9.9119   9.9152   9.9536  10.0625  10.0894  10.1114  10.1236
    10.2490  10.3098  10.3323  10.3370  10.3600  10.3872  10.4371  10.5081
    10.5111  10.5507  10.5658  10.6304  10.6416  10.6822  10.7039  10.7102
    10.7742  10.8274  10.9220  11.0350  11.0606  11.1023  11.1035  11.1103
    11.1307  11.1312  11.1441  11.1867  11.2844  11.2859  11.3189  11.3226
    11.3728  11.4154  11.4485  11.5045  11.5302  11.5561  11.6144  11.6474
    11.6747  11.6788  11.7599  11.8048  11.8200  11.8237  11.8952  11.9193
    11.9478  12.0283  12.0503  12.0723  12.0972  12.1772  12.1938  12.2053
    12.2543  12.2816  12.4521  12.4546  12.4720  12.5264  12.6095  12.6828
    12.6912  12.7365  12.7414  12.8026  12.8205  12.8234  12.8917  12.8975
    13.4467  13.7791  14.5976  15.1209  16.0767  16.4494  16.8302  16.8419
    16.8637  16.8873  16.9506  16.9949  16.9963  16.9967  17.7447  17.8147
    19.0984  19.1200  19.2084  19.2195  19.2685  19.3082  19.4832  19.7039
    19.8784  20.0287

          k = 0.1250 0.2500 0.0000 ( 13846 PWs)   bands (ev):

   -66.7649 -66.7647 -66.7631 -66.7628 -66.5998 -66.5993 -62.2080 -62.2080
   -35.5333 -35.5330 -35.5319 -35.5317 -35.4896 -35.4895 -35.4860 -35.4857
   -35.4852 -35.4851 -35.4816 -35.4813 -35.3785 -35.3780 -35.3214 -35.3208
   -35.3169 -35.3163 -31.0327 -31.0327 -31.0322 -31.0322 -31.0271 -31.0270
     6.8603   6.9844   7.0027   7.3687   7.3714   7.8466   7.8676   8.2030
     8.3579   8.5471   8.5495   8.7300   8.7382   8.7637   8.8376   8.9009
     8.9242   8.9549   9.0176   9.0207   9.0409   9.1044   9.1460   9.2233
     9.2512   9.2590   9.2687   9.4559   9.4766   9.4858   9.5119   9.5190
     9.5727   9.5877   9.6259   9.6605   9.6873   9.6915   9.7779   9.7970
     9.8146   9.8867   9.9252   9.9610  10.0009  10.0160  10.0994  10.2110
    10.3026  10.3401  10.3457  10.3577  10.3885  10.4348  10.4405  10.4589
    10.5009  10.5586  10.5665  10.6309  10.6362  10.7104  10.7157  10.8088
    10.8192  10.8567  10.8867  10.8969  10.9805  11.0438  11.1224  11.1630
    11.2732  11.2988  11.3998  11.4154  11.4254  11.4905  11.5006  11.5199
    11.5408  11.5413  11.5897  11.6173  11.6268  11.6604  11.7204  11.7436
    11.7737  11.7889  11.8312  11.8389  11.8543  11.9086  11.9594  11.9950
    12.0245  12.0418  12.0760  12.1221  12.1755  12.1771  12.1976  12.2927
    12.3462  12.4981  12.5343  12.5367  12.5713  12.6165  12.6305  12.6513
    12.7174  12.7453  12.7697  12.7739  12.7964  12.8567  12.9080  13.1740
    13.3685  14.4178  14.4984  15.6799  15.9212  16.3061  16.3938  16.4293
    16.5639  16.8641  16.8849  16.9699  17.0126  17.1193  17.2517  17.3192
    17.3613  17.6420  17.8570  17.9778  18.5739  18.6687  18.7677  18.8844
    19.2893  20.4297

          k = 0.1250 0.2500-0.0484 ( 13868 PWs)   bands (ev):

   -66.7649 -66.7647 -66.7631 -66.7628 -66.5998 -66.5993 -62.2080 -62.2080
   -35.5333 -35.5330 -35.5319 -35.5317 -35.4896 -35.4895 -35.4860 -35.4857
   -35.4852 -35.4851 -35.4816 -35.4813 -35.3785 -35.3780 -35.3214 -35.3208
   -35.3169 -35.3163 -31.0327 -31.0327 -31.0322 -31.0322 -31.0271 -31.0270
     6.8896   6.8989   7.1211   7.1947   7.5835   7.6364   8.0761   8.0764
     8.4401   8.4447   8.6424   8.6465   8.7726   8.7740   8.8503   8.8573
     8.9490   8.9808   9.0045   9.0256   9.0402   9.1078   9.1395   9.1653
     9.2210   9.2554   9.3849   9.4571   9.4704   9.4883   9.5008   9.5307
     9.5765   9.5828   9.5839   9.6387   9.6828   9.7246   9.7376   9.7788
     9.8404   9.9197   9.9505   9.9821   9.9904   9.9978  10.1290  10.1588
    10.2798  10.2986  10.3410  10.3852  10.4247  10.4375  10.4412  10.5063
    10.5277  10.5381  10.5576  10.5960  10.6607  10.6700  10.7256  10.7481
    10.8204  10.8442  10.9501  10.9511  11.0137  11.0334  11.1031  11.1132
    11.1912  11.3954  11.4009  11.4110  11.4649  11.4696  11.5028  11.5120
    11.5294  11.5624  11.5906  11.5925  11.6271  11.6730  11.7225  11.7338
    11.7444  11.7959  11.8047  11.8481  11.8855  11.8870  11.9386  12.0202
    12.0455  12.0628  12.0897  12.1134  12.1254  12.1977  12.2112  12.2591
    12.4027  12.4033  12.5323  12.5409  12.5833  12.6085  12.6559  12.7156
    12.7524  12.7552  12.7622  12.7954  12.8494  12.8618  12.8623  12.9090
    13.6878  13.9861  14.8939  15.4210  16.0729  16.2211  16.4186  16.4651
    16.6206  16.7887  16.9223  16.9538  16.9882  17.1775  17.2247  17.2858
    17.4010  17.5930  17.9368  18.1755  18.2530  18.3900  18.9972  19.0098
    19.6562  19.6844

          k = 0.1250 0.3750 0.0000 ( 13875 PWs)   bands (ev):

   -66.7653 -66.7652 -66.7635 -66.7632 -66.6003 -66.5997 -62.2071 -62.2071
   -35.5329 -35.5326 -35.5315 -35.5313 -35.4937 -35.4936 -35.4901 -35.4898
   -35.4849 -35.4848 -35.4813 -35.4810 -35.3781 -35.3776 -35.3254 -35.3248
   -35.3167 -35.3161 -31.0381 -31.0380 -31.0317 -31.0317 -31.0267 -31.0267
     7.7299   7.8316   7.8503   8.1097   8.1133   8.3016   8.3143   8.3427
     8.3674   8.3905   8.3940   8.4895   8.5017   8.6272   8.6907   8.8017
     8.8872   8.9550   9.0237   9.0599   9.1751   9.2267   9.2384   9.2428
     9.2519   9.2550   9.2946   9.3343   9.3933   9.4023   9.4397   9.4800
     9.4923   9.5058   9.5092   9.5381   9.5559   9.6707   9.7026   9.8041
     9.8177   9.8813   9.9064   9.9528   9.9669  10.1246  10.2567  10.2676
    10.3172  10.3509  10.4198  10.4546  10.5039  10.5060  10.5517  10.5735
    10.6026  10.6246  10.7084  10.7779  10.9148  10.9275  11.0245  11.0272
    11.0334  11.0964  11.1558  11.1852  11.2515  11.2811  11.3979  11.4014
    11.4400  11.4784  11.4946  11.5018  11.5573  11.5943  11.6077  11.6115
    11.6419  11.6868  11.7106  11.7308  11.7308  11.7562  11.7974  11.8541
    11.8562  11.8842  11.8903  11.8939  11.9135  11.9429  11.9978  11.9986
    12.0488  12.0787  12.1228  12.2150  12.2563  12.3574  12.3945  12.4349
    12.4916  12.5031  12.5176  12.5403  12.5493  12.6191  12.6538  12.6927
    12.7626  12.8392  12.8682  12.8834  12.9162  13.1983  13.2673  13.6924
    13.8385  14.3244  14.5338  14.5813  14.6666  14.7059  15.2694  15.2907
    15.6233  15.6370  16.0313  16.0718  16.4632  16.4686  16.9296  16.9457
    17.0251  17.1302  17.1784  17.2296  17.6257  17.6641  18.0228  18.0912
    19.4653  19.5274

          k = 0.1250 0.3750-0.0484 ( 13882 PWs)   bands (ev):

   -66.7653 -66.7652 -66.7635 -66.7632 -66.6003 -66.5997 -62.2071 -62.2071
   -35.5329 -35.5326 -35.5315 -35.5313 -35.4937 -35.4936 -35.4901 -35.4898
   -35.4849 -35.4848 -35.4813 -35.4810 -35.3781 -35.3776 -35.3254 -35.3248
   -35.3167 -35.3161 -31.0381 -31.0380 -31.0317 -31.0317 -31.0267 -31.0267
[...]
    11.6213  11.6694  11.6698  11.8972  11.8995  11.9164  11.9442  12.0291
    12.0536  12.0841  12.1316  12.1460  12.1783  12.2395  12.2521  12.2894
    12.3786  12.4559  12.5189  12.5445  12.6028  12.7105  12.7311  12.9374
    12.9827  13.2301  13.4310  13.8112  13.8169  14.3291  14.4077  14.8238
    15.1517  15.2577  15.2823  15.3596  15.5175  15.5614  15.9896  16.0207
    16.1396  16.2372  16.8679  16.9082  16.9129  16.9665  17.0522  17.0810
    17.1435  17.1925  17.2026  17.2187  17.2454  17.3037  17.3688  17.4755
    17.4837  17.4992  17.5113  17.5320  17.9811  18.0229  18.0348  18.2024
    18.2459  18.2891  18.3178  18.3304  18.5034  18.9170  18.9331  19.1715
    19.6293  19.6352

          k = 0.2500 0.3750-0.0484 ( 13916 PWs)   bands (ev):

   -66.7982 -66.7981 -62.1636 -62.1635 -62.1613 -62.1610 -62.0389 -62.0384
   -35.5699 -35.5698 -35.5238 -35.5237 -35.5194 -35.5194 -30.9967 -30.9966
   -30.9922 -30.9919 -30.9909 -30.9909 -30.9865 -30.9862 -30.9860 -30.9857
   -30.9846 -30.9845 -30.8698 -30.8694 -30.8692 -30.8686 -30.8634 -30.8629
     8.0353   8.0783   8.3835   8.4448   8.6265   8.7131   8.7642   8.8619
     8.8623   8.8736   8.8856   8.8996   9.1126   9.1164   9.2412   9.2673
     9.2884   9.3064   9.3590   9.3958   9.4044   9.4136   9.4285   9.4882
     9.5785   9.6270   9.6628   9.6680   9.6826   9.7228   9.7685   9.7794
     9.7866   9.8090   9.8604   9.8678   9.9276   9.9570  10.0160  10.1031
    10.2005  10.2131  10.2290  10.2362  10.4163  10.4865  10.5395  10.5454
    10.5589  10.5759  10.6019  10.6282  10.6621  10.7117  10.7579  10.7770
    10.8443  10.8622  10.8787  10.9121  11.0223  11.0365  11.1625  11.1695
    11.1935  11.2022  11.2841  11.3371  11.4063  11.4382  11.5223  11.5905
    11.6163  11.6267  11.7751  11.8223  11.8992  11.8995  11.9967  12.0471
    12.0482  12.0817  12.1082  12.1451  12.2055  12.2073  12.2668  12.2806
    12.3916  12.4479  12.5197  12.5397  12.6387  12.6456  12.7997  12.8542
    13.0763  13.1564  13.5229  13.6264  14.0327  14.1359  14.5595  14.7521
    15.1828  15.2147  15.3381  15.3558  15.5231  15.5299  16.0007  16.0200
    16.1321  16.2391  16.8726  16.8918  16.9439  16.9451  17.0569  17.0714
    17.1487  17.1902  17.2122  17.2320  17.2447  17.2756  17.3860  17.4690
    17.4797  17.5001  17.5143  17.5319  18.0010  18.0230  18.0623  18.0772
    18.2217  18.2537  18.3537  18.4857  18.6133  18.7017  18.9367  19.1638
    19.6215  19.6381

          k = 0.2500-0.5000 0.0000 ( 13940 PWs)   bands (ev):

   -66.7984 -66.7984 -62.1632 -62.1631 -62.1609 -62.1606 -62.0385 -62.0380
   -35.5697 -35.5697 -35.5254 -35.5253 -35.5193 -35.5192 -30.9989 -30.9988
   -30.9945 -30.9942 -30.9908 -30.9907 -30.9863 -30.9860 -30.9858 -30.9855
   -30.9844 -30.9843 -30.8714 -30.8709 -30.8696 -30.8692 -30.8632 -30.8627
     8.4601   8.4601   8.4910   8.4911   8.7409   8.7410   8.8142   8.8143
     8.8237   8.8238   8.8722   8.8724   9.0400   9.0401   9.1658   9.1659
     9.2175   9.2175   9.3425   9.3426   9.3593   9.3593   9.3831   9.3831
     9.5908   9.5909   9.6310   9.6310   9.6795   9.6795   9.7650   9.7650
     9.7923   9.7923   9.9367   9.9367   9.9721   9.9722  10.0610  10.0611
    10.3711  10.3712  10.4316  10.4317  10.4769  10.4770  10.7318  10.7318
    10.7778  10.7779  10.8449  10.8449  10.8811  10.8811  10.9062  10.9062
    10.9659  10.9659  11.0312  11.0312  11.1122  11.1123  11.2253  11.2253
    11.2481  11.2482  11.3229  11.3229  11.5258  11.5258  11.6664  11.6665
    11.8480  11.8481  11.8731  11.8732  11.9191  11.9191  11.9908  11.9909
    12.0704  12.0706  12.2402  12.2402  12.3264  12.3264  12.3916  12.3917
    12.4893  12.4894  12.7797  12.7798  12.9355  12.9356  13.0302  13.0302
    13.2610  13.2611  13.6593  13.6593  13.8656  13.8657  14.0887  14.0887
    14.5330  14.5331  14.5795  14.5795  14.9310  14.9310  15.4470  15.4471
    16.1315  16.1316  16.9023  16.9024  16.9746  16.9747  17.0831  17.0831
    17.0945  17.0946  17.1556  17.1557  17.1662  17.1663  17.4764  17.4765
    17.5041  17.5041  17.8137  17.8137  17.8763  17.8763  18.1448  18.1448
    18.2039  18.2040  18.3364  18.3366  18.3483  18.3483  18.6327  18.6327
    19.7871  19.7871

          k = 0.2500-0.5000-0.0484 ( 13912 PWs)   bands (ev):

   -66.7984 -66.7984 -62.1632 -62.1631 -62.1609 -62.1606 -62.0385 -62.0380
   -35.5697 -35.5697 -35.5254 -35.5253 -35.5193 -35.5192 -30.9989 -30.9988
   -30.9945 -30.9942 -30.9908 -30.9907 -30.9863 -30.9860 -30.9858 -30.9855
   -30.9844 -30.9843 -30.8714 -30.8709 -30.8696 -30.8692 -30.8632 -30.8627
     8.4616   8.4616   8.4889   8.4890   8.7451   8.7452   8.8136   8.8137
     8.8203   8.8205   8.8722   8.8724   9.0372   9.0373   9.1673   9.1674
     9.2247   9.2248   9.3435   9.3435   9.3520   9.3520   9.3814   9.3814
     9.6022   9.6023   9.6207   9.6208   9.6986   9.6986   9.7199   9.7200
     9.8307   9.8307   9.9174   9.9175   9.9802   9.9803  10.0614  10.0615
    10.3708  10.3710  10.4316  10.4317  10.4756  10.4757  10.7390  10.7390
    10.7768  10.7768  10.8333  10.8334  10.8760  10.8760  10.9311  10.9311
    10.9505  10.9506  11.0338  11.0338  11.1113  11.1114  11.2330  11.2331
    11.2401  11.2401  11.3236  11.3237  11.5259  11.5259  11.6664  11.6665
    11.8464  11.8465  11.8750  11.8750  11.9194  11.9195  11.9902  11.9903
    12.0704  12.0706  12.2355  12.2356  12.3258  12.3259  12.4214  12.4214
    12.4585  12.4586  12.8113  12.8113  12.8856  12.8857  13.0661  13.0661
    13.2443  13.2444  13.6952  13.6953  13.8061  13.8061  14.1534  14.1534
    14.4050  14.4050  14.7152  14.7153  14.8811  14.8812  15.4543  15.4544
    16.1302  16.1303  16.9027  16.9028  16.9742  16.9743  17.0845  17.0845
    17.0929  17.0931  17.1565  17.1566  17.1655  17.1657  17.4778  17.4779
    17.5025  17.5026  17.8148  17.8148  17.8749  17.8749  18.1459  18.1459
    18.2014  18.2015  18.2910  18.2913  18.4414  18.4415  18.5722  18.5723
    19.9710  19.9711

          k = 0.3750 0.3750 0.0000 ( 13948 PWs)   bands (ev):

   -66.7979 -66.7979 -62.1634 -62.1633 -62.1611 -62.1608 -62.0387 -62.0382
   -35.5696 -35.5696 -35.5234 -35.5234 -35.5233 -35.5233 -30.9963 -30.9962
   -30.9961 -30.9960 -30.9918 -30.9916 -30.9915 -30.9913 -30.9857 -30.9854
   -30.9842 -30.9842 -30.8695 -30.8691 -30.8688 -30.8686 -30.8682 -30.8680
     8.1540   8.1978   8.4957   8.5008   8.5209   8.7158   8.7182   8.8449
     9.0437   9.0471   9.0994   9.1267   9.2189   9.2220   9.2753   9.3067
     9.3192   9.3381   9.3617   9.4282   9.4335   9.4353   9.5152   9.5237
     9.5366   9.5651   9.5860   9.6250   9.6980   9.7219   9.7260   9.8913
     9.9638   9.9805  10.0109  10.0282  10.1124  10.1183  10.1252  10.1471
    10.2293  10.2733  10.2735  10.4175  10.4752  10.4825  10.5938  10.5946
    10.6542  10.6894  10.7006  10.7472  10.7871  10.8084  10.9211  10.9617
    10.9887  11.0973  11.1149  11.1956  11.1980  11.2602  11.2632  11.3552
    11.4457  11.4838  11.4892  11.5477  11.5613  11.6109  11.6136  11.6225
    11.7577  11.8820  11.8957  11.9499  11.9630  11.9706  11.9804  12.0427
    12.0571  12.0683  12.1170  12.1185  12.1573  12.2201  12.2450  12.2480
    12.3722  12.4267  12.5225  12.6581  12.6622  12.9345  12.9648  13.1812
    13.3642  13.5357  13.8700  14.2252  14.2425  14.6353  14.7538  14.8967
    15.0949  15.1547  15.2233  15.3457  15.3526  15.4831  16.3123  16.3517
    16.3905  16.4927  16.9487  17.0284  17.0482  17.0717  17.0937  17.1275
    17.1409  17.2557  17.2716  17.2956  17.4699  17.5320  17.5383  17.7673
    17.8232  17.8661  17.8674  17.8976  17.9423  18.0169  18.1649  18.1976
    18.3420  18.3740  18.3784  18.4137  18.5356  18.9692  18.9976  19.0194
    19.0337  19.1224

          k = 0.3750 0.3750-0.0484 ( 13950 PWs)   bands (ev):

   -66.7979 -66.7979 -62.1634 -62.1633 -62.1611 -62.1608 -62.0387 -62.0382
   -35.5696 -35.5696 -35.5234 -35.5234 -35.5233 -35.5233 -30.9963 -30.9962
   -30.9961 -30.9960 -30.9918 -30.9916 -30.9915 -30.9913 -30.9857 -30.9854
   -30.9842 -30.9842 -30.8695 -30.8691 -30.8688 -30.8686 -30.8682 -30.8680
     8.1570   8.1930   8.4871   8.5117   8.5587   8.6036   8.8205   8.8359
     9.0306   9.0443   9.0754   9.1634   9.1671   9.2351   9.2756   9.3186
     9.3205   9.3356   9.3962   9.4322   9.4506   9.4536   9.4587   9.4771
     9.5649   9.5830   9.6085   9.6123   9.6542   9.6878   9.8541   9.8588
     9.9371   9.9807   9.9849   9.9903  10.1188  10.1405  10.1526  10.1845
    10.2381  10.2382  10.3063  10.3401  10.4640  10.5321  10.5752  10.6130
    10.6433  10.6911  10.7227  10.7569  10.7614  10.8328  10.9144  10.9210
    10.9892  11.0963  11.1383  11.1880  11.2258  11.2500  11.2759  11.3284
    11.4528  11.4653  11.5043  11.5401  11.5661  11.6071  11.6184  11.6208
    11.7935  11.8109  11.9513  11.9604  11.9712  11.9737  11.9802  11.9847
    12.0538  12.0796  12.1249  12.1316  12.1555  12.2264  12.2330  12.2412
    12.3838  12.4202  12.5465  12.5747  12.7733  12.8237  13.0684  13.1199
    13.4049  13.5041  13.8938  14.1373  14.3412  14.5720  14.8270  14.8598
    15.1061  15.1323  15.2438  15.3203  15.3690  15.4828  16.3135  16.3503
    16.3986  16.4823  16.9740  16.9930  17.0637  17.0712  17.0901  17.1302
    17.1408  17.2531  17.2752  17.3154  17.4133  17.5342  17.5705  17.7656
    17.8308  17.8661  17.8674  17.8761  17.9634  18.0192  18.1824  18.2076
    18.2473  18.2645  18.5953  18.6010  18.6359  18.6445  18.6983  18.8778
    19.0619  19.2173

          k = 0.3750-0.5000 0.0000 ( 13934 PWs)   bands (ev):

   -66.7980 -66.7980 -62.1632 -62.1631 -62.1609 -62.1606 -62.0385 -62.0380
   -35.5695 -35.5695 -35.5250 -35.5249 -35.5232 -35.5232 -30.9984 -30.9983
   -30.9960 -30.9959 -30.9939 -30.9936 -30.9915 -30.9912 -30.9855 -30.9853
   -30.9841 -30.9840 -30.8709 -30.8703 -30.8694 -30.8689 -30.8685 -30.8679
     8.2792   8.2792   8.3231   8.3232   8.6574   8.6575   8.7677   8.7678
     8.9991   8.9992   9.1509   9.1510   9.1863   9.1864   9.2528   9.2529
     9.3056   9.3057   9.3174   9.3175   9.3992   9.3993   9.4786   9.4786
     9.5093   9.5093   9.6704   9.6704   9.6765   9.6765   9.9321   9.9321
     9.9547   9.9547  10.0089  10.0090  10.0870  10.0870  10.2132  10.2133
    10.3483  10.3483  10.4107  10.4107  10.5872  10.5872  10.6624  10.6625
    10.7329  10.7330  10.8294  10.8295  10.9454  10.9454  11.1347  11.1348
    11.2101  11.2101  11.2591  11.2591  11.3933  11.3934  11.4482  11.4482
    11.6069  11.6070  11.6604  11.6604  11.7423  11.7423  11.8066  11.8067
    11.9423  11.9423  11.9644  11.9644  12.0201  12.0201  12.0870  12.0870
    12.1138  12.1139  12.1858  12.1859  12.2828  12.2829  12.3378  12.3379
    12.3953  12.3954  12.9613  12.9614  13.0990  13.0992  13.2239  13.2239
    13.6988  13.6989  14.1847  14.1848  14.3346  14.3346  14.4922  14.4922
    14.5861  14.5862  14.7971  14.7971  15.3930  15.3931  15.7432  15.7433
    16.7956  16.7958  17.0243  17.0243  17.0536  17.0537  17.0876  17.0878
    17.1550  17.1550  17.2726  17.2727  17.5149  17.5149  17.8074  17.8074
    17.9513  17.9513  18.0158  18.0160  18.1013  18.1013  18.1569  18.1570
    18.3435  18.3436  18.5444  18.5445  18.7661  18.7661  18.9245  18.9246
    19.0476  19.0477

          k = 0.3750-0.5000-0.0484 ( 13940 PWs)   bands (ev):

   -66.7980 -66.7980 -62.1632 -62.1631 -62.1609 -62.1606 -62.0385 -62.0380
   -35.5695 -35.5695 -35.5250 -35.5249 -35.5232 -35.5232 -30.9984 -30.9983
   -30.9960 -30.9959 -30.9939 -30.9936 -30.9915 -30.9912 -30.9855 -30.9853
   -30.9841 -30.9840 -30.8709 -30.8703 -30.8694 -30.8689 -30.8685 -30.8679
     8.2804   8.2804   8.3210   8.3212   8.6753   8.6754   8.7381   8.7382
     9.0458   9.0459   9.1247   9.1247   9.1822   9.1823   9.2089   9.2090
     9.3115   9.3116   9.3688   9.3688   9.3899   9.3900   9.4677   9.4678
     9.5383   9.5383   9.5884   9.5885   9.7884   9.7884   9.8186   9.8187
     9.9982   9.9982  10.0149  10.0149  10.1539  10.1539  10.1784  10.1784
    10.2645  10.2645  10.4995  10.4995  10.5847  10.5848  10.6456  10.6456
    10.7326  10.7327  10.7893  10.7894  10.9840  10.9840  11.1532  11.1532
    11.2115  11.2116  11.2178  11.2178  11.4011  11.4011  11.4611  11.4612
    11.5902  11.5902  11.6726  11.6726  11.7402  11.7402  11.8053  11.8054
    11.9474  11.9475  11.9608  11.9608  12.0168  12.0169  12.0889  12.0890
    12.1135  12.1136  12.1846  12.1847  12.2862  12.2862  12.3572  12.3574
    12.3727  12.3727  12.9755  12.9755  13.0780  13.0781  13.2334  13.2334
    13.6975  13.6976  14.1910  14.1911  14.3192  14.3192  14.5401  14.5401
    14.5448  14.5449  14.8004  14.8004  15.3928  15.3930  15.7432  15.7433
    16.7967  16.7968  17.0225  17.0225  17.0539  17.0540  17.0864  17.0866
    17.1441  17.1441  17.3001  17.3002  17.4893  17.4893  17.8491  17.8491
    17.9096  17.9096  18.0364  18.0366  18.0836  18.0836  18.1805  18.1807
    18.2987  18.2988  18.5674  18.5675  18.8294  18.8295  18.9259  18.9259
    18.9775  18.9776

          k =-0.5000-0.5000 0.0000 ( 13964 PWs)   bands (ev):

   -66.7980 -66.7980 -62.1630 -62.1629 -62.1607 -62.1604 -62.0384 -62.0379
   -35.5694 -35.5694 -35.5248 -35.5248 -35.5248 -35.5248 -30.9982 -30.9982
   -30.9981 -30.9981 -30.9937 -30.9937 -30.9934 -30.9934 -30.9854 -30.9851
   -30.9840 -30.9839 -30.8707 -30.8707 -30.8701 -30.8701 -30.8692 -30.8688
     8.1984   8.1984   8.2486   8.2488   8.6139   8.6139   8.7450   8.7452
     8.9221   8.9221   9.2087   9.2087   9.2283   9.2284   9.2521   9.2521
     9.2816   9.2816   9.3466   9.3466   9.4366   9.4366   9.4595   9.4595
     9.4671   9.4671   9.7096   9.7096   9.7109   9.7109   9.9415   9.9415
     9.9422   9.9422   9.9505   9.9506  10.0539  10.0539  10.0858  10.0858
    10.4922  10.4922  10.5566  10.5567  10.5727  10.5727  10.6386  10.6387
    10.7066  10.7067  11.0718  11.0718  11.0785  11.0785  11.1644  11.1645
    11.2804  11.2805  11.4143  11.4143  11.5214  11.5214  11.8800  11.8800
    11.9267  11.9269  11.9734  11.9734  11.9840  11.9842  12.0171  12.0173
    12.0386  12.0388  12.0480  12.0480  12.0770  12.0771  12.0844  12.0846
    12.1325  12.1326  12.1496  12.1498  12.2165  12.2166  12.2712  12.2713
    12.3250  12.3251  13.3940  13.3940  13.4078  13.4079  13.4456  13.4458
    13.9054  13.9054  14.0620  14.0620  14.2469  14.2469  14.5716  14.5716
    14.5799  14.5799  14.8220  14.8220  15.9103  15.9103  15.9273  15.9273
    16.6219  16.6220  16.7937  16.7937  16.9132  16.9134  17.1112  17.1113
    17.1716  17.1716  17.4805  17.4805  17.5511  17.5511  17.7645  17.7646
    17.9749  17.9750  18.0817  18.0818  18.0920  18.0923  18.1806  18.1806
    18.2275  18.2280  18.3411  18.3411  18.4193  18.4193  18.4920  18.4921
    18.8385  18.8387

          k =-0.5000-0.5000-0.0484 ( 13992 PWs)   bands (ev):

   -66.7980 -66.7980 -62.1630 -62.1629 -62.1607 -62.1604 -62.0384 -62.0379
   -35.5694 -35.5694 -35.5248 -35.5248 -35.5248 -35.5248 -30.9982 -30.9982
   -30.9981 -30.9981 -30.9937 -30.9937 -30.9934 -30.9934 -30.9854 -30.9851
   -30.9840 -30.9839 -30.8707 -30.8707 -30.8701 -30.8701 -30.8693 -30.8688
     8.1994   8.1994   8.2470   8.2472   8.6346   8.6347   8.7028   8.7028
     8.9959   8.9959   9.0802   9.0802   9.2547   9.2547   9.2746   9.2746
     9.3481   9.3481   9.3794   9.3794   9.3872   9.3872   9.3927   9.3927
     9.5696   9.5696   9.5759   9.5759   9.8749   9.8749   9.8758   9.8758
     9.9424   9.9424   9.9426   9.9426   9.9518   9.9518  10.2741  10.2741
    10.3034  10.3034  10.5554  10.5554  10.6403  10.6404  10.7060  10.7061
    10.7381  10.7381  10.8727  10.8727  11.1644  11.1645  11.2453  11.2453
    11.2804  11.2805  11.4143  11.4143  11.4583  11.4583  11.9216  11.9216
    11.9267  11.9269  11.9734  11.9734  11.9840  11.9842  12.0171  12.0173
    12.0245  12.0245  12.0386  12.0388  12.0770  12.0771  12.0844  12.0846
    12.1325  12.1326  12.1495  12.1497  12.2168  12.2169  12.2709  12.2710
    12.3251  12.3252  13.3940  13.3940  13.4078  13.4079  13.4456  13.4458
    13.9375  13.9375  14.0033  14.0033  14.2949  14.2949  14.5054  14.5054
    14.6270  14.6270  14.8200  14.8200  15.9105  15.9105  15.9271  15.9271
    16.6220  16.6221  16.7925  16.7926  16.9163  16.9165  17.1074  17.1075
    17.2102  17.2102  17.3260  17.3260  17.7909  17.7909  17.8076  17.8077
    17.8982  17.8983  18.0040  18.0040  18.0817  18.0818  18.0920  18.0923
    18.2275  18.2280  18.2348  18.2349  18.4704  18.4705  18.8458  18.8458
    18.9060  18.9060

     the Fermi energy is    15.2745 ev

!    total energy              =  -14694.00517387 Ry
     Harris-Foulkes estimate   =  -14694.00517244 Ry
     estimated scf accuracy    <       0.00000088 Ry

     total all-electron energy =   -626921.600896 Ry

     The total energy is the sum of the following terms:

     one-electron contribution =    -714.48609480 Ry
     hartree contribution      =     656.53876287 Ry
     xc contribution           =    -737.87742525 Ry
     ewald contribution        =   -2196.78933708 Ry
     Hubbard energy            =       0.45035626 Ry
     one-center paw contrib.   =  -11701.84143586 Ry

     total magnetization       =    17.44 Bohr mag/cell
     absolute magnetization    =    37.25 Bohr mag/cell

     convergence has been achieved in  33 iterations

     Writing output data file mnau2.save/
 
     init_run     :     29.58s CPU     30.38s WALL (       1 calls)
     electrons    :   1999.87s CPU   2036.38s WALL (       1 calls)

     Called by init_run:
     wfcinit      :     27.66s CPU     28.10s WALL (       1 calls)
     potinit      :      1.10s CPU      1.14s WALL (       1 calls)
     hinit0       :      0.45s CPU      0.68s WALL (       1 calls)

     Called by electrons:
     c_bands      :   1684.51s CPU   1714.92s WALL (      33 calls)
     sum_band     :    284.57s CPU    289.40s WALL (      33 calls)
     v_of_rho     :      2.53s CPU      2.55s WALL (      34 calls)
     newd         :      7.02s CPU      7.10s WALL (      34 calls)
     PAW_pot      :     21.13s CPU     21.41s WALL (      34 calls)
     mix_rho      :      0.67s CPU      0.68s WALL (      33 calls)

     Called by c_bands:
     init_us_2    :      3.96s CPU      4.00s WALL (    4080 calls)
     cegterg      :   1630.67s CPU   1660.21s WALL (    1980 calls)

     Called by sum_band:
     sum_band:bec :      1.19s CPU      1.19s WALL (    1980 calls)
     addusdens    :      6.37s CPU      6.44s WALL (      33 calls)

     Called by *egterg:
     h_psi        :   1046.43s CPU   1063.42s WALL (    6219 calls)
     s_psi        :     33.19s CPU     33.22s WALL (    6279 calls)
     g_psi        :      1.19s CPU      1.19s WALL (    4179 calls)
     cdiaghg      :    343.16s CPU    353.57s WALL (    6159 calls)

     Called by h_psi:
     h_psi:pot    :    995.22s CPU   1011.56s WALL (    6219 calls)
     h_psi:calbec :     72.07s CPU     73.91s WALL (    6219 calls)
     vloc_psi     :    891.17s CPU    905.60s WALL (    6219 calls)
     add_vuspsi   :     31.94s CPU     32.00s WALL (    6219 calls)
     vhpsi        :     50.40s CPU     51.05s WALL (    6219 calls)

     General routines
     calbec       :    158.14s CPU    161.70s WALL (   16458 calls)
     fft          :      2.77s CPU      3.04s WALL (     846 calls)
     ffts         :      0.14s CPU      0.14s WALL (     134 calls)
     fftw         :   1097.10s CPU   1115.00s WALL ( 1825474 calls)
     interpolate  :      0.19s CPU      0.19s WALL (      68 calls)
     davcio       :      0.01s CPU      2.25s WALL (      60 calls)
 
     Parallel routines
     fft_scatt_xy :     18.30s CPU     18.45s WALL ( 1826454 calls)
     fft_scatt_yz :   1002.90s CPU   1019.99s WALL ( 1826454 calls)

     Hubbard U routines
     new_ns       :      5.84s CPU      6.01s WALL (      33 calls)
     vhpsi        :     50.40s CPU     51.05s WALL (    6219 calls)
 
     PWSCF        : 34m40.44s CPU    37m47.62s WALL

 
   This run was terminated on:  21:44: 1   6Apr2019            

=------------------------------------------------------------------------------=
   JOB DONE.
=------------------------------------------------------------------------------=
