
     Program PWSCF v.6.3MaX starts on  6Apr2019 at 21:44: 2 

     This program is part of the open-source Quantum ESPRESSO suite
     for quantum simulation of materials; please cite
         "P. Giannozzi et al., J. Phys.:Condens. Matter 21 395502 (2009);
         "P. Giannozzi et al., J. Phys.:Condens. Matter 29 465901 (2017);
          URL http://www.quantum-espresso.org", 
     in publications or presentations arising from this work. More details at
     http://www.quantum-espresso.org/quote

     Parallel version (MPI), running on    32 processors

     MPI processes distributed on     5 nodes
     R & G space division:  proc/nbgrp/npool/nimage =      32
     Waiting for input...
     Reading input from standard input

     Current dimensions of program PWSCF are:
     Max number of different atomic species (ntypx) = 10
     Max number of k-points (npk) =  40000
     Max angular momentum in pseudopotentials (lmaxx) =  3
               file Mn.pbe-spn-kjpaw_psl.0.3.1.UPF: wavefunction(s)  3P 3D renormalized
               file Mn.pbe-spn-kjpaw_psl.0.3.1.UPF: wavefunction(s)  3P 3D renormalized
               file Au.pbe-dn-kjpaw_psl.0.1.UPF: wavefunction(s)  6S 6P 5D renormalized

     Subspace diagonalization in iterative solution of the eigenvalue problem:
     one sub-group per band group will be used
     scalapack distributed-memory algorithm (size of sub-group:  4*  4 procs)

 
     Parallelization info
     --------------------
     sticks:   dense  smooth     PW     G-vecs:    dense   smooth      PW
     Min          41      18      5                11487     3460     563
     Max          42      19      6                11527     3505     606
     Sum        1313     593    177               368373   111379   18691
 


     bravais-lattice index     =            0
     lattice parameter (alat)  =       6.4153  a.u.
     unit-cell volume          =    2724.7774 (a.u.)^3
     number of atoms/cell      =           24
     number of atomic types    =            3
     number of electrons       =       296.00
     number of Kohn-Sham states=          178
     kinetic-energy cutoff     =      45.0000  Ry
     charge density cutoff     =     400.0000  Ry
     convergence threshold     =      1.0E-06
     mixing beta               =       0.1000
     number of iterations used =            8  plain     mixing
     Exchange-correlation      = SLA PW PBX PBC ( 1  4  3  4 0 0)

     celldm(1)=   6.415315  celldm(2)=   0.000000  celldm(3)=   0.000000
     celldm(4)=   0.000000  celldm(5)=   0.000000  celldm(6)=   0.000000

     crystal axes: (cart. coord. in units of alat)
               a(1) = (   1.000000   0.000000   0.000000 )  
               a(2) = (   0.000000   1.000000   0.000000 )  
               a(3) = (   0.000000   0.000000  10.319937 )  

     reciprocal axes: (cart. coord. in units 2 pi/alat)
               b(1) = (  1.000000  0.000000  0.000000 )  
               b(2) = (  0.000000  1.000000  0.000000 )  
               b(3) = (  0.000000  0.000000  0.096900 )  


     PseudoPot. # 1 for Mn read from file:
     ./pseudo/Mn.pbe-spn-kjpaw_psl.0.3.1.UPF
     MD5 check sum: 7b43a3fb0e93e198b8dd8488d8cf503e
     Pseudo is Projector augmented-wave + core cor, Zval = 15.0
     Generated using "atomic" code by A. Dal Corso v.5.0.99 svn rev. 10869
     Shape of augmentation charge: PSQ
     Using radial grid of 1187 points,  6 beta functions with: 
                l(1) =   0
                l(2) =   0
                l(3) =   1
                l(4) =   1
                l(5) =   2
                l(6) =   2
     Q(r) pseudized with 0 coefficients 


     PseudoPot. # 2 for Mn read from file:
     ./pseudo/Mn.pbe-spn-kjpaw_psl.0.3.1.UPF
     MD5 check sum: 7b43a3fb0e93e198b8dd8488d8cf503e
     Pseudo is Projector augmented-wave + core cor, Zval = 15.0
     Generated using "atomic" code by A. Dal Corso v.5.0.99 svn rev. 10869
     Shape of augmentation charge: PSQ
     Using radial grid of 1187 points,  6 beta functions with: 
                l(1) =   0
                l(2) =   0
                l(3) =   1
                l(4) =   1
                l(5) =   2
                l(6) =   2
     Q(r) pseudized with 0 coefficients 


     PseudoPot. # 3 for Au read from file:
     ./pseudo/Au.pbe-dn-kjpaw_psl.0.1.UPF
     MD5 check sum: be11e2e8e535ebe2b3ccfb4f88f554cb
     Pseudo is Projector augmented-wave + core cor, Zval = 11.0
     Generated using "atomic" code by A. Dal Corso v.5.0.2 svn rev. 9415
     Shape of augmentation charge: PSQ
     Using radial grid of 1279 points,  6 beta functions with: 
                l(1) =   0
                l(2) =   0
                l(3) =   1
                l(4) =   1
                l(5) =   2
                l(6) =   2
     Q(r) pseudized with 0 coefficients 


     atomic species   valence    mass     pseudopotential
        Mn1           15.00    54.93800     Mn( 1.00)
        Mn2           15.00    54.93800     Mn( 1.00)
        Au            11.00   196.96600     Au( 1.00)

     Starting magnetic structure 
     atomic species   magnetization
        Mn1          0.800
        Mn2         -0.800
        Au           0.000


     Full LDA+U calculation (l_max = 2) with parameters (eV):
     U(  1) =   3.1200   J(  1) =   0.7000   B(  1) =   0.0803
     U(  2) =   3.1200   J(  2) =   0.7000   B(  2) =   0.0803



      8 Sym. Ops. (no inversion) found



   Cartesian axes

     site n.     atom                  positions (alat units)
         1           Mn1 tau(   1) = (   0.0000000   0.0000000   0.0000000  )
         2           Mn1 tau(   2) = (   0.5000000   0.5000000   1.2899921  )
         3           Mn1 tau(   3) = (   0.0000000   0.0000000   2.5799843  )
         4           Mn1 tau(   4) = (   0.5000000   0.5000000   3.8699764  )
         5           Mn2 tau(   5) = (   0.0000000   0.0000000   5.1599686  )
         6           Mn1 tau(   6) = (   0.5000000   0.5000000   6.4499607  )
         7           Mn2 tau(   7) = (   0.0000000   0.0000000   7.7399528  )
         8           Mn2 tau(   8) = (   0.5000000   0.5000000   9.0299450  )
         9           Au  tau(   9) = (   0.5000000   0.5000000   0.4127975  )
        10           Au  tau(  10) = (   0.0000000   0.0000000   0.8771947  )
        11           Au  tau(  11) = (   0.0000000   0.0000000   1.7027896  )
        12           Au  tau(  12) = (   0.5000000   0.5000000   2.1671868  )
        13           Au  tau(  13) = (   0.5000000   0.5000000   2.9927818  )
        14           Au  tau(  14) = (   0.0000000   0.0000000   3.4571789  )
        15           Au  tau(  15) = (   0.0000000   0.0000000   4.2827739  )
        16           Au  tau(  16) = (   0.5000000   0.5000000   4.7471711  )
        17           Au  tau(  17) = (   0.5000000   0.5000000   5.5727660  )
        18           Au  tau(  18) = (   0.0000000   0.0000000   6.0371632  )
        19           Au  tau(  19) = (   0.0000000   0.0000000   6.8627582  )
        20           Au  tau(  20) = (   0.5000000   0.5000000   7.3271553  )
        21           Au  tau(  21) = (   0.5000000   0.5000000   8.1527503  )
        22           Au  tau(  22) = (   0.0000000   0.0000000   8.6171475  )
        23           Au  tau(  23) = (   0.0000000   0.0000000   9.4427424  )
        24           Au  tau(  24) = (   0.5000000   0.5000000   9.9071396  )

     number of k points=    30 (tetrahedron method)
                       cart. coord. in units 2pi/alat
        k(    1) = (   0.0000000   0.0000000   0.0000000), wk =   0.0078125
        k(    2) = (   0.0000000   0.0000000  -0.0484499), wk =   0.0078125
        k(    3) = (   0.0000000   0.1250000   0.0000000), wk =   0.0312500
        k(    4) = (   0.0000000   0.1250000  -0.0484499), wk =   0.0312500
        k(    5) = (   0.0000000   0.2500000   0.0000000), wk =   0.0312500
        k(    6) = (   0.0000000   0.2500000  -0.0484499), wk =   0.0312500
        k(    7) = (   0.0000000   0.3750000   0.0000000), wk =   0.0312500
        k(    8) = (   0.0000000   0.3750000  -0.0484499), wk =   0.0312500
        k(    9) = (   0.0000000  -0.5000000   0.0000000), wk =   0.0156250
        k(   10) = (   0.0000000  -0.5000000  -0.0484499), wk =   0.0156250
        k(   11) = (   0.1250000   0.1250000   0.0000000), wk =   0.0312500
        k(   12) = (   0.1250000   0.1250000  -0.0484499), wk =   0.0312500
        k(   13) = (   0.1250000   0.2500000   0.0000000), wk =   0.0625000
        k(   14) = (   0.1250000   0.2500000  -0.0484499), wk =   0.0625000
        k(   15) = (   0.1250000   0.3750000   0.0000000), wk =   0.0625000
        k(   16) = (   0.1250000   0.3750000  -0.0484499), wk =   0.0625000
        k(   17) = (   0.1250000  -0.5000000   0.0000000), wk =   0.0312500
        k(   18) = (   0.1250000  -0.5000000  -0.0484499), wk =   0.0312500
        k(   19) = (   0.2500000   0.2500000   0.0000000), wk =   0.0312500
        k(   20) = (   0.2500000   0.2500000  -0.0484499), wk =   0.0312500
        k(   21) = (   0.2500000   0.3750000   0.0000000), wk =   0.0625000
        k(   22) = (   0.2500000   0.3750000  -0.0484499), wk =   0.0625000
        k(   23) = (   0.2500000  -0.5000000   0.0000000), wk =   0.0312500
        k(   24) = (   0.2500000  -0.5000000  -0.0484499), wk =   0.0312500
        k(   25) = (   0.3750000   0.3750000   0.0000000), wk =   0.0312500
        k(   26) = (   0.3750000   0.3750000  -0.0484499), wk =   0.0312500
        k(   27) = (   0.3750000  -0.5000000   0.0000000), wk =   0.0312500
        k(   28) = (   0.3750000  -0.5000000  -0.0484499), wk =   0.0312500
        k(   29) = (  -0.5000000  -0.5000000   0.0000000), wk =   0.0078125
        k(   30) = (  -0.5000000  -0.5000000  -0.0484499), wk =   0.0078125

     Dense  grid:   368373 G-vectors     FFT dimensions: (  45,  45, 432)

     Smooth grid:   111379 G-vectors     FFT dimensions: (  27,  27, 288)

     Estimated max dynamical RAM per process >     143.50 MB

     Estimated total dynamical RAM >       4.48 GB
     Generating pointlists ...
     new r_m :   0.3377 (alat units)  2.1668 (a.u.) for type    1
     new r_m :   0.3377 (alat units)  2.1668 (a.u.) for type    2
     new r_m :   0.3377 (alat units)  2.1668 (a.u.) for type    3

     Check: negative/imaginary core charge=   -0.000006    0.000000

     Initial potential from superposition of free atoms

     starting charge  295.99426, renormalised to  296.00000
     Number of +U iterations with fixed ns =  0
     Starting occupations:
 --- enter write_ns ---
 LDA+U parameters:
U(  1) =   3.1200   J(  1) =   0.7000   B(  1) =   0.0803
U(  2) =   3.1200   J(  2) =   0.7000   B(  2) =   0.0803
atom    1   Tr[ns(na)] (up, down, total) =   5.00000  0.00000  5.00000
   spin  1
    eigenvalues: 
  1.000  1.000  1.000  1.000  1.000
    eigenvectors:
  1.000  0.000  0.000  0.000  0.000
  0.000  1.000  0.000  0.000  0.000
  0.000  0.000  1.000  0.000  0.000
  0.000  0.000  0.000  1.000  0.000
  0.000  0.000  0.000  0.000  1.000
    occupations:
  1.000  0.000  0.000  0.000  0.000
  0.000  1.000  0.000  0.000  0.000
  0.000  0.000  1.000  0.000  0.000
  0.000  0.000  0.000  1.000  0.000
  0.000  0.000  0.000  0.000  1.000
   spin  2
    eigenvalues: 
  0.000  0.000  0.000  0.000  0.000
    eigenvectors:
  1.000  0.000  0.000  0.000  0.000
  0.000  1.000  0.000  0.000  0.000
  0.000  0.000  1.000  0.000  0.000
  0.000  0.000  0.000  1.000  0.000
  0.000  0.000  0.000  0.000  1.000
    occupations:
  0.000  0.000  0.000  0.000  0.000
  0.000  0.000  0.000  0.000  0.000
  0.000  0.000  0.000  0.000  0.000
  0.000  0.000  0.000  0.000  0.000
  0.000  0.000  0.000  0.000  0.000
atomic mag. moment =     5.000000
atom    2   Tr[ns(na)] (up, down, total) =   5.00000  0.00000  5.00000
   spin  1
    eigenvalues: 
  1.000  1.000  1.000  1.000  1.000
    eigenvectors:
  1.000  0.000  0.000  0.000  0.000
  0.000  1.000  0.000  0.000  0.000
  0.000  0.000  1.000  0.000  0.000
  0.000  0.000  0.000  1.000  0.000
  0.000  0.000  0.000  0.000  1.000
    occupations:
  1.000  0.000  0.000  0.000  0.000
  0.000  1.000  0.000  0.000  0.000
  0.000  0.000  1.000  0.000  0.000
  0.000  0.000  0.000  1.000  0.000
  0.000  0.000  0.000  0.000  1.000
   spin  2
    eigenvalues: 
  0.000  0.000  0.000  0.000  0.000
    eigenvectors:
  1.000  0.000  0.000  0.000  0.000
  0.000  1.000  0.000  0.000  0.000
  0.000  0.000  1.000  0.000  0.000
  0.000  0.000  0.000  1.000  0.000
  0.000  0.000  0.000  0.000  1.000
    occupations:
  0.000  0.000  0.000  0.000  0.000
  0.000  0.000  0.000  0.000  0.000
  0.000  0.000  0.000  0.000  0.000
  0.000  0.000  0.000  0.000  0.000
  0.000  0.000  0.000  0.000  0.000
atomic mag. moment =     5.000000
atom    3   Tr[ns(na)] (up, down, total) =   5.00000  0.00000  5.00000
   spin  1
    eigenvalues: 
  1.000  1.000  1.000  1.000  1.000
    eigenvectors:
  1.000  0.000  0.000  0.000  0.000
  0.000  1.000  0.000  0.000  0.000
  0.000  0.000  1.000  0.000  0.000
  0.000  0.000  0.000  1.000  0.000
  0.000  0.000  0.000  0.000  1.000
    occupations:
  1.000  0.000  0.000  0.000  0.000
  0.000  1.000  0.000  0.000  0.000
  0.000  0.000  1.000  0.000  0.000
  0.000  0.000  0.000  1.000  0.000
  0.000  0.000  0.000  0.000  1.000
   spin  2
    eigenvalues: 
  0.000  0.000  0.000  0.000  0.000
    eigenvectors:
  1.000  0.000  0.000  0.000  0.000
  0.000  1.000  0.000  0.000  0.000
  0.000  0.000  1.000  0.000  0.000
  0.000  0.000  0.000  1.000  0.000
  0.000  0.000  0.000  0.000  1.000
    occupations:
  0.000  0.000  0.000  0.000  0.000
  0.000  0.000  0.000  0.000  0.000
  0.000  0.000  0.000  0.000  0.000
  0.000  0.000  0.000  0.000  0.000
  0.000  0.000  0.000  0.000  0.000
atomic mag. moment =     5.000000
atom    4   Tr[ns(na)] (up, down, total) =   5.00000  0.00000  5.00000
   spin  1
    eigenvalues: 
  1.000  1.000  1.000  1.000  1.000
    eigenvectors:
  1.000  0.000  0.000  0.000  0.000
  0.000  1.000  0.000  0.000  0.000
  0.000  0.000  1.000  0.000  0.000
  0.000  0.000  0.000  1.000  0.000
  0.000  0.000  0.000  0.000  1.000
    occupations:
  1.000  0.000  0.000  0.000  0.000
  0.000  1.000  0.000  0.000  0.000
  0.000  0.000  1.000  0.000  0.000
  0.000  0.000  0.000  1.000  0.000
  0.000  0.000  0.000  0.000  1.000
   spin  2
    eigenvalues: 
  0.000  0.000  0.000  0.000  0.000
    eigenvectors:
  1.000  0.000  0.000  0.000  0.000
  0.000  1.000  0.000  0.000  0.000
  0.000  0.000  1.000  0.000  0.000
  0.000  0.000  0.000  1.000  0.000
  0.000  0.000  0.000  0.000  1.000
    occupations:
  0.000  0.000  0.000  0.000  0.000
  0.000  0.000  0.000  0.000  0.000
  0.000  0.000  0.000  0.000  0.000
  0.000  0.000  0.000  0.000  0.000
  0.000  0.000  0.000  0.000  0.000
atomic mag. moment =     5.000000
atom    5   Tr[ns(na)] (up, down, total) =   0.00000  5.00000  5.00000
   spin  1
    eigenvalues: 
  0.000  0.000  0.000  0.000  0.000
    eigenvectors:
  1.000  0.000  0.000  0.000  0.000
  0.000  1.000  0.000  0.000  0.000
  0.000  0.000  1.000  0.000  0.000
  0.000  0.000  0.000  1.000  0.000
  0.000  0.000  0.000  0.000  1.000
    occupations:
  0.000  0.000  0.000  0.000  0.000
  0.000  0.000  0.000  0.000  0.000
  0.000  0.000  0.000  0.000  0.000
  0.000  0.000  0.000  0.000  0.000
  0.000  0.000  0.000  0.000  0.000
   spin  2
    eigenvalues: 
  1.000  1.000  1.000  1.000  1.000
    eigenvectors:
  1.000  0.000  0.000  0.000  0.000
  0.000  1.000  0.000  0.000  0.000
  0.000  0.000  1.000  0.000  0.000
  0.000  0.000  0.000  1.000  0.000
  0.000  0.000  0.000  0.000  1.000
    occupations:
  1.000  0.000  0.000  0.000  0.000
  0.000  1.000  0.000  0.000  0.000
  0.000  0.000  1.000  0.000  0.000
  0.000  0.000  0.000  1.000  0.000
  0.000  0.000  0.000  0.000  1.000
atomic mag. moment =    -5.000000
atom    6   Tr[ns(na)] (up, down, total) =   5.00000  0.00000  5.00000
   spin  1
    eigenvalues: 
  1.000  1.000  1.000  1.000  1.000
    eigenvectors:
  1.000  0.000  0.000  0.000  0.000
  0.000  1.000  0.000  0.000  0.000
  0.000  0.000  1.000  0.000  0.000
  0.000  0.000  0.000  1.000  0.000
  0.000  0.000  0.000  0.000  1.000
    occupations:
  1.000  0.000  0.000  0.000  0.000
  0.000  1.000  0.000  0.000  0.000
  0.000  0.000  1.000  0.000  0.000
  0.000  0.000  0.000  1.000  0.000
  0.000  0.000  0.000  0.000  1.000
   spin  2
    eigenvalues: 
  0.000  0.000  0.000  0.000  0.000
    eigenvectors:
  1.000  0.000  0.000  0.000  0.000
  0.000  1.000  0.000  0.000  0.000
  0.000  0.000  1.000  0.000  0.000
  0.000  0.000  0.000  1.000  0.000
  0.000  0.000  0.000  0.000  1.000
    occupations:
  0.000  0.000  0.000  0.000  0.000
  0.000  0.000  0.000  0.000  0.000
  0.000  0.000  0.000  0.000  0.000
  0.000  0.000  0.000  0.000  0.000
  0.000  0.000  0.000  0.000  0.000
atomic mag. moment =     5.000000
atom    7   Tr[ns(na)] (up, down, total) =   0.00000  5.00000  5.00000
   spin  1
    eigenvalues: 
  0.000  0.000  0.000  0.000  0.000
    eigenvectors:
  1.000  0.000  0.000  0.000  0.000
  0.000  1.000  0.000  0.000  0.000
  0.000  0.000  1.000  0.000  0.000
  0.000  0.000  0.000  1.000  0.000
  0.000  0.000  0.000  0.000  1.000
    occupations:
  0.000  0.000  0.000  0.000  0.000
  0.000  0.000  0.000  0.000  0.000
  0.000  0.000  0.000  0.000  0.000
  0.000  0.000  0.000  0.000  0.000
  0.000  0.000  0.000  0.000  0.000
   spin  2
    eigenvalues: 
  1.000  1.000  1.000  1.000  1.000
    eigenvectors:
  1.000  0.000  0.000  0.000  0.000
  0.000  1.000  0.000  0.000  0.000
  0.000  0.000  1.000  0.000  0.000
  0.000  0.000  0.000  1.000  0.000
  0.000  0.000  0.000  0.000  1.000
    occupations:
  1.000  0.000  0.000  0.000  0.000
  0.000  1.000  0.000  0.000  0.000
  0.000  0.000  1.000  0.000  0.000
  0.000  0.000  0.000  1.000  0.000
  0.000  0.000  0.000  0.000  1.000
atomic mag. moment =    -5.000000
atom    8   Tr[ns(na)] (up, down, total) =   0.00000  5.00000  5.00000
   spin  1
    eigenvalues: 
  0.000  0.000  0.000  0.000  0.000
    eigenvectors:
  1.000  0.000  0.000  0.000  0.000
  0.000  1.000  0.000  0.000  0.000
  0.000  0.000  1.000  0.000  0.000
  0.000  0.000  0.000  1.000  0.000
  0.000  0.000  0.000  0.000  1.000
    occupations:
  0.000  0.000  0.000  0.000  0.000
  0.000  0.000  0.000  0.000  0.000
  0.000  0.000  0.000  0.000  0.000
  0.000  0.000  0.000  0.000  0.000
  0.000  0.000  0.000  0.000  0.000
   spin  2
    eigenvalues: 
  1.000  1.000  1.000  1.000  1.000
    eigenvectors:
  1.000  0.000  0.000  0.000  0.000
  0.000  1.000  0.000  0.000  0.000
  0.000  0.000  1.000  0.000  0.000
  0.000  0.000  0.000  1.000  0.000
  0.000  0.000  0.000  0.000  1.000
    occupations:
  1.000  0.000  0.000  0.000  0.000
  0.000  1.000  0.000  0.000  0.000
  0.000  0.000  1.000  0.000  0.000
  0.000  0.000  0.000  1.000  0.000
  0.000  0.000  0.000  0.000  1.000
atomic mag. moment =    -5.000000
N of occupied +U levels =   40.000000
 --- exit write_ns ---
 Atomic wfc used for LDA+U Projector are NOT orthogonalized
     Starting wfcs are  224 randomized atomic wfcs
     Checking if some PAW data can be deallocated... 

     total cpu time spent up to now is       22.7 secs

     Self-consistent Calculation

     iteration #  1     ecut=    45.00 Ry     beta= 0.10
     Davidson diagonalization with overlap
     ethr =  1.00E-02,  avg # of iterations =  4.1
 --- enter write_ns ---
 LDA+U parameters:
U(  1) =   3.1200   J(  1) =   0.7000   B(  1) =   0.0803
U(  2) =   3.1200   J(  2) =   0.7000   B(  2) =   0.0803
atom    1   Tr[ns(na)] (up, down, total) =   5.01742  0.41006  5.42748
   spin  1
    eigenvalues: 
  1.003  1.003  1.003  1.004  1.004
    eigenvectors:
  0.000  0.000  0.000  1.000  0.000
  0.000  0.127  0.873  0.000  0.000
  0.000  0.873  0.127  0.000  0.000
  0.000  0.000  0.000  0.000  1.000
  1.000  0.000  0.000  0.000  0.000
    occupations:
  1.004 -0.000 -0.000  0.000  0.000
 -0.000  1.003 -0.000  0.000  0.000
 -0.000 -0.000  1.003  0.000  0.000
  0.000  0.000  0.000  1.004 -0.000
  0.000  0.000  0.000 -0.000  1.003
   spin  2
    eigenvalues: 
  0.052  0.073  0.081  0.081  0.122
    eigenvectors:
  0.000  1.000  0.000  0.000  0.000
  0.000  0.000  0.138  0.862  0.000
  0.000  0.000  0.862  0.138  0.000
  1.000  0.000  0.000  0.000  0.000
  0.000  0.000  0.000  0.000  1.000
    occupations:
  0.073 -0.000 -0.000  0.000  0.000
 -0.000  0.081 -0.000  0.000  0.000
 -0.000 -0.000  0.081  0.000  0.000
  0.000  0.000  0.000  0.052 -0.000
  0.000  0.000  0.000 -0.000  0.122
atomic mag. moment =     4.607361
atom    2   Tr[ns(na)] (up, down, total) =   5.01763  0.40329  5.42092
   spin  1
    eigenvalues: 
  1.003  1.003  1.003  1.004  1.004
    eigenvectors:
  0.000  0.000  0.000  1.000  0.000
  0.000  0.097  0.903  0.000  0.000
  0.000  0.903  0.097  0.000  0.000
  0.000  0.000  0.000  0.000  1.000
  1.000  0.000  0.000  0.000  0.000
    occupations:
  1.004 -0.000 -0.000  0.000  0.000
 -0.000  1.003 -0.000  0.000  0.000
 -0.000 -0.000  1.003  0.000  0.000
  0.000  0.000  0.000  1.004 -0.000
  0.000  0.000  0.000 -0.000  1.003
   spin  2
    eigenvalues: 
  0.053  0.075  0.081  0.081  0.114
    eigenvectors:
  0.000  1.000  0.000  0.000  0.000
  0.000  0.000  0.173  0.827  0.000
  0.000  0.000  0.827  0.173  0.000
  1.000  0.000  0.000  0.000  0.000
  0.000  0.000  0.000  0.000  1.000
    occupations:
  0.075 -0.000 -0.000  0.000  0.000
 -0.000  0.081 -0.000  0.000  0.000
 -0.000 -0.000  0.081  0.000  0.000
  0.000  0.000  0.000  0.053 -0.000
  0.000  0.000  0.000 -0.000  0.114
atomic mag. moment =     4.614342
atom    3   Tr[ns(na)] (up, down, total) =   5.01757  0.40315  5.42072
   spin  1
    eigenvalues: 
  1.003  1.003  1.003  1.004  1.004
    eigenvectors:
  0.000  0.000  0.000  1.000  0.000
  0.000  0.136  0.864  0.000  0.000
  0.000  0.864  0.136  0.000  0.000
  0.000  0.000  0.000  0.000  1.000
  1.000  0.000  0.000  0.000  0.000
    occupations:
  1.004 -0.000 -0.000  0.000  0.000
 -0.000  1.003 -0.000  0.000  0.000
 -0.000 -0.000  1.003  0.000  0.000
  0.000  0.000  0.000  1.004 -0.000
  0.000  0.000  0.000 -0.000  1.003
   spin  2
    eigenvalues: 
  0.053  0.073  0.082  0.082  0.114
    eigenvectors:
  0.000  1.000  0.000  0.000  0.000
  0.000  0.000  0.171  0.829  0.000
  0.000  0.000  0.829  0.171  0.000
  1.000  0.000  0.000  0.000  0.000
  0.000  0.000  0.000  0.000  1.000
    occupations:
  0.073 -0.000 -0.000  0.000  0.000
 -0.000  0.082 -0.000  0.000  0.000
 -0.000 -0.000  0.082  0.000  0.000
  0.000  0.000  0.000  0.053 -0.000
  0.000  0.000  0.000 -0.000  0.114
atomic mag. moment =     4.614421
atom    4   Tr[ns(na)] (up, down, total) =   5.01733  0.40739  5.42472
   spin  1
    eigenvalues: 
  1.003  1.003  1.003  1.004  1.004
    eigenvectors:
  0.000  0.000  0.000  1.000  0.000
  0.000  0.118  0.882  0.000  0.000
  0.000  0.882  0.118  0.000  0.000
  0.000  0.000  0.000  0.000  1.000
  1.000  0.000  0.000  0.000  0.000
    occupations:
  1.004 -0.000 -0.000  0.000  0.000
 -0.000  1.003 -0.000  0.000  0.000
 -0.000 -0.000  1.003  0.000  0.000
  0.000  0.000  0.000  1.004 -0.000
  0.000  0.000  0.000 -0.000  1.003
   spin  2
    eigenvalues: 
  0.053  0.071  0.080  0.080  0.123
    eigenvectors:
  0.000  1.000  0.000  0.000  0.000
  0.000  0.000  0.141  0.859  0.000
  0.000  0.000  0.859  0.141  0.000
  1.000  0.000  0.000  0.000  0.000
  0.000  0.000  0.000  0.000  1.000
    occupations:
  0.071 -0.000 -0.000  0.000  0.000
 -0.000  0.080 -0.000  0.000  0.000
 -0.000 -0.000  0.080  0.000  0.000
  0.000  0.000  0.000  0.053 -0.000
  0.000  0.000  0.000 -0.000  0.123
atomic mag. moment =     4.609943
atom    5   Tr[ns(na)] (up, down, total) =   0.41318  5.01739  5.43058
   spin  1
    eigenvalues: 
  0.053  0.074  0.081  0.081  0.125
    eigenvectors:
  0.000  1.000  0.000  0.000  0.000
  0.000  0.000  0.100  0.900  0.000
  0.000  0.000  0.900  0.100  0.000
  1.000  0.000  0.000  0.000  0.000
  0.000  0.000  0.000  0.000  1.000
    occupations:
  0.074 -0.000 -0.000  0.000  0.000
 -0.000  0.081 -0.000  0.000  0.000
 -0.000 -0.000  0.081  0.000  0.000
  0.000  0.000  0.000  0.053 -0.000
  0.000  0.000  0.000 -0.000  0.125
   spin  2
    eigenvalues: 
  1.003  1.003  1.003  1.004  1.004
    eigenvectors:
  0.000  0.000  0.000  1.000  0.000
  0.000  0.104  0.896  0.000  0.000
  0.000  0.896  0.104  0.000  0.000
  0.000  0.000  0.000  0.000  1.000
  1.000  0.000  0.000  0.000  0.000
    occupations:
  1.004 -0.000 -0.000  0.000  0.000
 -0.000  1.003 -0.000  0.000  0.000
 -0.000 -0.000  1.003  0.000  0.000
  0.000  0.000  0.000  1.004 -0.000
  0.000  0.000  0.000 -0.000  1.003
atomic mag. moment =    -4.604208
atom    6   Tr[ns(na)] (up, down, total) =   5.01742  0.41292  5.43034
   spin  1
    eigenvalues: 
  1.003  1.003  1.003  1.004  1.004
    eigenvectors:
  0.000  0.000  0.000  1.000  0.000
  0.000  0.103  0.897  0.000  0.000
  0.000  0.897  0.103  0.000  0.000
  0.000  0.000  0.000  0.000  1.000
  1.000  0.000  0.000  0.000  0.000
    occupations:
  1.004 -0.000 -0.000  0.000  0.000
 -0.000  1.003 -0.000  0.000  0.000
 -0.000 -0.000  1.003  0.000  0.000
  0.000  0.000  0.000  1.004 -0.000
  0.000  0.000  0.000 -0.000  1.003
   spin  2
    eigenvalues: 
  0.053  0.074  0.080  0.080  0.125
    eigenvectors:
  0.000  1.000  0.000  0.000  0.000
  0.000  0.000  0.122  0.878  0.000
  0.000  0.000  0.878  0.122  0.000
  1.000  0.000  0.000  0.000  0.000
  0.000  0.000  0.000  0.000  1.000
    occupations:
  0.074 -0.000 -0.000  0.000  0.000
 -0.000  0.080 -0.000  0.000  0.000
 -0.000 -0.000  0.080  0.000  0.000
  0.000  0.000  0.000  0.053 -0.000
  0.000  0.000  0.000 -0.000  0.125
atomic mag. moment =     4.604498
atom    7   Tr[ns(na)] (up, down, total) =   0.40993  5.01753  5.42746
   spin  1
    eigenvalues: 
  0.053  0.073  0.081  0.081  0.121
    eigenvectors:
  0.000  1.000  0.000  0.000  0.000
  0.000  0.000  0.206  0.794  0.000
  0.000  0.000  0.794  0.206  0.000
  1.000  0.000  0.000  0.000  0.000
  0.000  0.000  0.000  0.000  1.000
    occupations:
  0.073 -0.000 -0.000  0.000  0.000
 -0.000  0.081 -0.000  0.000  0.000
 -0.000 -0.000  0.081  0.000  0.000
  0.000  0.000  0.000  0.053 -0.000
  0.000  0.000  0.000 -0.000  0.121
   spin  2
    eigenvalues: 
  1.003  1.003  1.003  1.004  1.004
    eigenvectors:
  0.000  0.000  0.000  1.000  0.000
  0.000  0.134  0.866  0.000  0.000
  0.000  0.866  0.134  0.000  0.000
  0.000  0.000  0.000  0.000  1.000
  1.000  0.000  0.000  0.000  0.000
    occupations:
  1.004 -0.000 -0.000  0.000  0.000
 -0.000  1.003 -0.000  0.000  0.000
 -0.000 -0.000  1.003  0.000  0.000
  0.000  0.000  0.000  1.004 -0.000
  0.000  0.000  0.000 -0.000  1.003
atomic mag. moment =    -4.607598
atom    8   Tr[ns(na)] (up, down, total) =   0.41301  5.01747  5.43048
   spin  1
    eigenvalues: 
  0.053  0.075  0.082  0.082  0.120
    eigenvectors:
  0.000  1.000  0.000  0.000  0.000
  0.000  0.000  0.180  0.820  0.000
  0.000  0.000  0.820  0.180  0.000
  1.000  0.000  0.000  0.000  0.000
  0.000  0.000  0.000  0.000  1.000
    occupations:
  0.075 -0.000 -0.000  0.000  0.000
 -0.000  0.082 -0.000  0.000  0.000
 -0.000 -0.000  0.082  0.000  0.000
  0.000  0.000  0.000  0.053 -0.000
  0.000  0.000  0.000 -0.000  0.120
   spin  2
    eigenvalues: 
  1.003  1.003  1.003  1.004  1.004
    eigenvectors:
  0.000  0.000  0.000  1.000  0.000
  0.000  0.103  0.897  0.000  0.000
  0.000  0.897  0.103  0.000  0.000
  0.000  0.000  0.000  0.000  1.000
  1.000  0.000  0.000  0.000  0.000
    occupations:
  1.004 -0.000 -0.000  0.000  0.000
 -0.000  1.003 -0.000  0.000  0.000
 -0.000 -0.000  1.003  0.000  0.000
  0.000  0.000  0.000  1.004 -0.000
  0.000  0.000  0.000 -0.000  1.003
atomic mag. moment =    -4.604458
N of occupied +U levels =   43.412713
 --- exit write_ns ---

     total cpu time spent up to now is       90.8 secs

     total energy              =  -14687.27573800 Ry
     Harris-Foulkes estimate   =  -14685.81613302 Ry
     estimated scf accuracy    <      11.56123953 Ry

     total magnetization       =    10.13 Bohr mag/cell
     absolute magnetization    =    41.56 Bohr mag/cell

     iteration #  2     ecut=    45.00 Ry     beta= 0.10
     Davidson diagonalization with overlap
     ethr =  3.91E-03,  avg # of iterations =  1.1

     total cpu time spent up to now is      135.5 secs

     total energy              =  -14689.43196528 Ry
     Harris-Foulkes estimate   =  -14687.35242174 Ry
     estimated scf accuracy    <       9.67588352 Ry

     total magnetization       =     9.94 Bohr mag/cell
     absolute magnetization    =    41.22 Bohr mag/cell

     iteration #  3     ecut=    45.00 Ry     beta= 0.10
     Davidson diagonalization with overlap
     ethr =  3.27E-03,  avg # of iterations =  4.7

     total cpu time spent up to now is      196.4 secs

     total energy              =  -14691.32940299 Ry
     Harris-Foulkes estimate   =  -14691.03295573 Ry
     estimated scf accuracy    <     175.15156344 Ry

     total magnetization       =     9.45 Bohr mag/cell
     absolute magnetization    =    40.42 Bohr mag/cell

     iteration #  4     ecut=    45.00 Ry     beta= 0.10
     Davidson diagonalization with overlap
     ethr =  3.27E-03,  avg # of iterations =  4.2

     total cpu time spent up to now is      257.1 secs

     total energy              =  -14694.54438039 Ry
     Harris-Foulkes estimate   =  -14694.17884360 Ry
     estimated scf accuracy    <       3.83226520 Ry

     total magnetization       =     9.18 Bohr mag/cell
     absolute magnetization    =    38.48 Bohr mag/cell

     iteration #  5     ecut=    45.00 Ry     beta= 0.10
     Davidson diagonalization with overlap
     ethr =  1.29E-03,  avg # of iterations =  4.4

     total cpu time spent up to now is      322.9 secs

     total energy              =  -14694.52855484 Ry
     Harris-Foulkes estimate   =  -14694.59425393 Ry
     estimated scf accuracy    <       6.22784639 Ry

     total magnetization       =     9.10 Bohr mag/cell
     absolute magnetization    =    38.15 Bohr mag/cell

     iteration #  6     ecut=    45.00 Ry     beta= 0.10
     Davidson diagonalization with overlap
     ethr =  1.29E-03,  avg # of iterations =  1.2

     total cpu time spent up to now is      384.7 secs

     total energy              =  -14693.07359286 Ry
     Harris-Foulkes estimate   =  -14694.53897391 Ry
     estimated scf accuracy    <       8.09987066 Ry

     total magnetization       =     9.12 Bohr mag/cell
     absolute magnetization    =    38.16 Bohr mag/cell

     iteration #  7     ecut=    45.00 Ry     beta= 0.10
     Davidson diagonalization with overlap
     ethr =  1.29E-03,  avg # of iterations =  4.7

     total cpu time spent up to now is      484.0 secs

     total energy              =  -14693.87118261 Ry
     Harris-Foulkes estimate   =  -14693.73190031 Ry
     estimated scf accuracy    <       2.12680561 Ry

     total magnetization       =     9.13 Bohr mag/cell
     absolute magnetization    =    38.42 Bohr mag/cell

     iteration #  8     ecut=    45.00 Ry     beta= 0.10
     Davidson diagonalization with overlap
     ethr =  7.19E-04,  avg # of iterations =  3.2

     total cpu time spent up to now is      556.8 secs

     total energy              =  -14693.98422127 Ry
     Harris-Foulkes estimate   =  -14693.96996692 Ry
     estimated scf accuracy    <       0.17327190 Ry

     total magnetization       =     8.76 Bohr mag/cell
     absolute magnetization    =    37.73 Bohr mag/cell

     iteration #  9     ecut=    45.00 Ry     beta= 0.10
     Davidson diagonalization with overlap
     ethr =  5.85E-05,  avg # of iterations =  5.2

     total cpu time spent up to now is      623.7 secs

     total energy              =  -14693.99225228 Ry
     Harris-Foulkes estimate   =  -14693.99404032 Ry
     estimated scf accuracy    <       0.07113956 Ry

     total magnetization       =     8.70 Bohr mag/cell
     absolute magnetization    =    37.44 Bohr mag/cell

     iteration # 10     ecut=    45.00 Ry     beta= 0.10
     Davidson diagonalization with overlap
     ethr =  2.40E-05,  avg # of iterations =  1.8

     total cpu time spent up to now is      660.4 secs

     total energy              =  -14693.99262137 Ry
     Harris-Foulkes estimate   =  -14693.99552625 Ry
     estimated scf accuracy    <       0.07464926 Ry

     total magnetization       =     8.68 Bohr mag/cell
     absolute magnetization    =    37.38 Bohr mag/cell

     iteration # 11     ecut=    45.00 Ry     beta= 0.10
     Davidson diagonalization with overlap
     ethr =  2.40E-05,  avg # of iterations =  2.0

     total cpu time spent up to now is      698.2 secs

     total energy              =  -14693.99766893 Ry
     Harris-Foulkes estimate   =  -14693.99793544 Ry
     estimated scf accuracy    <       0.02317905 Ry

     total magnetization       =     8.68 Bohr mag/cell
     absolute magnetization    =    37.35 Bohr mag/cell

     iteration # 12     ecut=    45.00 Ry     beta= 0.10
     Davidson diagonalization with overlap
     ethr =  7.83E-06,  avg # of iterations =  2.4

     total cpu time spent up to now is      740.2 secs

     total energy              =  -14694.00117938 Ry
     Harris-Foulkes estimate   =  -14694.00086247 Ry
     estimated scf accuracy    <       0.00971419 Ry

     total magnetization       =     8.62 Bohr mag/cell
     absolute magnetization    =    37.31 Bohr mag/cell

     iteration # 13     ecut=    45.00 Ry     beta= 0.10
     Davidson diagonalization with overlap
     ethr =  3.28E-06,  avg # of iterations =  2.6

     total cpu time spent up to now is      780.2 secs

     total energy              =  -14694.00312298 Ry
     Harris-Foulkes estimate   =  -14694.00165548 Ry
     estimated scf accuracy    <       0.00435807 Ry

     total magnetization       =     8.62 Bohr mag/cell
     absolute magnetization    =    37.29 Bohr mag/cell

     iteration # 14     ecut=    45.00 Ry     beta= 0.10
     Davidson diagonalization with overlap
     ethr =  1.47E-06,  avg # of iterations =  4.4

     total cpu time spent up to now is      850.8 secs

     total energy              =  -14694.00373312 Ry
     Harris-Foulkes estimate   =  -14694.00353155 Ry
     estimated scf accuracy    <       0.00786966 Ry

     total magnetization       =     8.61 Bohr mag/cell
     absolute magnetization    =    37.25 Bohr mag/cell

     iteration # 15     ecut=    45.00 Ry     beta= 0.10
     Davidson diagonalization with overlap
     ethr =  1.47E-06,  avg # of iterations =  1.7

     total cpu time spent up to now is      915.2 secs

     total energy              =  -14694.00389835 Ry
     Harris-Foulkes estimate   =  -14694.00391695 Ry
     estimated scf accuracy    <       0.00279574 Ry

     total magnetization       =     8.59 Bohr mag/cell
     absolute magnetization    =    37.26 Bohr mag/cell

     iteration # 16     ecut=    45.00 Ry     beta= 0.10
     Davidson diagonalization with overlap
     ethr =  9.45E-07,  avg # of iterations =  1.1

     total cpu time spent up to now is      976.3 secs

     total energy              =  -14694.00403230 Ry
     Harris-Foulkes estimate   =  -14694.00394448 Ry
     estimated scf accuracy    <       0.00064605 Ry

     total magnetization       =     8.59 Bohr mag/cell
     absolute magnetization    =    37.25 Bohr mag/cell

     iteration # 17     ecut=    45.00 Ry     beta= 0.10
     Davidson diagonalization with overlap
     ethr =  2.18E-07,  avg # of iterations =  2.1

     total cpu time spent up to now is     1043.1 secs

     total energy              =  -14694.00414647 Ry
     Harris-Foulkes estimate   =  -14694.00408377 Ry
     estimated scf accuracy    <       0.00491708 Ry

     total magnetization       =     8.60 Bohr mag/cell
     absolute magnetization    =    37.25 Bohr mag/cell

     iteration # 18     ecut=    45.00 Ry     beta= 0.10
     Davidson diagonalization with overlap
     ethr =  2.18E-07,  avg # of iterations =  1.2

     total cpu time spent up to now is     1104.2 secs

     total energy              =  -14694.00424310 Ry
     Harris-Foulkes estimate   =  -14694.00420092 Ry
     estimated scf accuracy    <       0.00016410 Ry

     total magnetization       =     8.58 Bohr mag/cell
     absolute magnetization    =    37.25 Bohr mag/cell

     iteration # 19     ecut=    45.00 Ry     beta= 0.10
     Davidson diagonalization with overlap
     ethr =  5.54E-08,  avg # of iterations =  2.3

     total cpu time spent up to now is     1168.8 secs

     total energy              =  -14694.00427008 Ry
     Harris-Foulkes estimate   =  -14694.00424982 Ry
     estimated scf accuracy    <       0.00012413 Ry

     total magnetization       =     8.58 Bohr mag/cell
     absolute magnetization    =    37.24 Bohr mag/cell

     iteration # 20     ecut=    45.00 Ry     beta= 0.10
     Davidson diagonalization with overlap
     ethr =  4.19E-08,  avg # of iterations =  1.1

     total cpu time spent up to now is     1229.9 secs

     total energy              =  -14694.00430622 Ry
     Harris-Foulkes estimate   =  -14694.00426891 Ry
     estimated scf accuracy    <       0.00007989 Ry

     total magnetization       =     8.58 Bohr mag/cell
     absolute magnetization    =    37.24 Bohr mag/cell

     iteration # 21     ecut=    45.00 Ry     beta= 0.10
     Davidson diagonalization with overlap
     ethr =  2.70E-08,  avg # of iterations =  2.4

     total cpu time spent up to now is     1299.7 secs

     total energy              =  -14694.00430435 Ry
     Harris-Foulkes estimate   =  -14694.00431331 Ry
     estimated scf accuracy    <       0.00007593 Ry

     total magnetization       =     8.58 Bohr mag/cell
     absolute magnetization    =    37.23 Bohr mag/cell

     iteration # 22     ecut=    45.00 Ry     beta= 0.10
     Davidson diagonalization with overlap
     ethr =  2.57E-08,  avg # of iterations =  1.4

     total cpu time spent up to now is     1355.7 secs

     total energy              =  -14694.00432182 Ry
     Harris-Foulkes estimate   =  -14694.00431229 Ry
     estimated scf accuracy    <       0.00010004 Ry

     total magnetization       =     8.58 Bohr mag/cell
     absolute magnetization    =    37.23 Bohr mag/cell

     iteration # 23     ecut=    45.00 Ry     beta= 0.10
     Davidson diagonalization with overlap
     ethr =  2.57E-08,  avg # of iterations =  1.5

     total cpu time spent up to now is     1405.5 secs

     total energy              =  -14694.00432554 Ry
     Harris-Foulkes estimate   =  -14694.00432280 Ry
     estimated scf accuracy    <       0.00000565 Ry

     total magnetization       =     8.58 Bohr mag/cell
     absolute magnetization    =    37.23 Bohr mag/cell

     iteration # 24     ecut=    45.00 Ry     beta= 0.10
     Davidson diagonalization with overlap
     ethr =  1.91E-09,  avg # of iterations =  2.6

     total cpu time spent up to now is     1470.0 secs

     total energy              =  -14694.00432686 Ry
     Harris-Foulkes estimate   =  -14694.00432567 Ry
     estimated scf accuracy    <       0.00000543 Ry

     total magnetization       =     8.57 Bohr mag/cell
     absolute magnetization    =    37.23 Bohr mag/cell

     iteration # 25     ecut=    45.00 Ry     beta= 0.10
     Davidson diagonalization with overlap
     ethr =  1.84E-09,  avg # of iterations =  1.2

     total cpu time spent up to now is     1526.4 secs

     total energy              =  -14694.00433077 Ry
     Harris-Foulkes estimate   =  -14694.00433026 Ry
     estimated scf accuracy    <       0.00008123 Ry

     total magnetization       =     8.57 Bohr mag/cell
     absolute magnetization    =    37.23 Bohr mag/cell

     iteration # 26     ecut=    45.00 Ry     beta= 0.10
     Davidson diagonalization with overlap
     ethr =  1.84E-09,  avg # of iterations =  1.5

     total cpu time spent up to now is     1585.1 secs

     total energy              =  -14694.00433079 Ry
     Harris-Foulkes estimate   =  -14694.00432975 Ry
     estimated scf accuracy    <       0.00000119 Ry

     total magnetization       =     8.57 Bohr mag/cell
     absolute magnetization    =    37.23 Bohr mag/cell

     iteration # 27     ecut=    45.00 Ry     beta= 0.10
     Davidson diagonalization with overlap
     ethr =  4.03E-10,  avg # of iterations =  2.2

     total cpu time spent up to now is     1652.7 secs

     total energy              =  -14694.00433186 Ry
     Harris-Foulkes estimate   =  -14694.00433108 Ry
     estimated scf accuracy    <       0.00000241 Ry

     total magnetization       =     8.57 Bohr mag/cell
     absolute magnetization    =    37.23 Bohr mag/cell

     iteration # 28     ecut=    45.00 Ry     beta= 0.10
     Davidson diagonalization with overlap
     ethr =  4.03E-10,  avg # of iterations =  1.8

     total cpu time spent up to now is     1717.8 secs

     total energy              =  -14694.00433281 Ry
     Harris-Foulkes estimate   =  -14694.00433215 Ry
     estimated scf accuracy    <       0.00000328 Ry

     total magnetization       =     8.57 Bohr mag/cell
     absolute magnetization    =    37.23 Bohr mag/cell

     iteration # 29     ecut=    45.00 Ry     beta= 0.10
     Davidson diagonalization with overlap
     ethr =  4.03E-10,  avg # of iterations =  1.9
 
     Magnetic moment per site:
     atom:    1    charge:   13.5495    magn:    4.2254    constr:    0.0000
     atom:    2    charge:   13.5530    magn:    4.1998    constr:    0.0000
     atom:    3    charge:   13.5526    magn:    4.2049    constr:    0.0000
     atom:    4    charge:   13.5462    magn:    4.2457    constr:    0.0000
     atom:    5    charge:   13.5436    magn:   -4.2575    constr:    0.0000
     atom:    6    charge:   13.5445    magn:    4.2583    constr:    0.0000
     atom:    7    charge:   13.5461    magn:   -4.2481    constr:    0.0000
     atom:    8    charge:   13.5484    magn:   -4.2354    constr:    0.0000
     atom:    9    charge:    9.1223    magn:    0.0318    constr:    0.0000
     atom:   10    charge:    9.1214    magn:    0.0303    constr:    0.0000
     atom:   11    charge:    9.1206    magn:    0.0317    constr:    0.0000
     atom:   12    charge:    9.1202    magn:    0.0297    constr:    0.0000
     atom:   13    charge:    9.1215    magn:    0.0301    constr:    0.0000
     atom:   14    charge:    9.1232    magn:    0.0341    constr:    0.0000
     atom:   15    charge:    9.1245    magn:    0.0421    constr:    0.0000
     atom:   16    charge:    9.1247    magn:   -0.0377    constr:    0.0000
     atom:   17    charge:    9.1249    magn:   -0.0375    constr:    0.0000
     atom:   18    charge:    9.1241    magn:    0.0431    constr:    0.0000
     atom:   19    charge:    9.1234    magn:    0.0404    constr:    0.0000
     atom:   20    charge:    9.1236    magn:   -0.0440    constr:    0.0000
     atom:   21    charge:    9.1231    magn:   -0.0394    constr:    0.0000
     atom:   22    charge:    9.1238    magn:   -0.0407    constr:    0.0000
     atom:   23    charge:    9.1235    magn:   -0.0457    constr:    0.0000
     atom:   24    charge:    9.1229    magn:    0.0384    constr:    0.0000

     total cpu time spent up to now is     1767.7 secs

     End of self-consistent calculation
 --- enter write_ns ---
 LDA+U parameters:
U(  1) =   3.1200   J(  1) =   0.7000   B(  1) =   0.0803
U(  2) =   3.1200   J(  2) =   0.7000   B(  2) =   0.0803
atom    1   Tr[ns(na)] (up, down, total) =   4.97072  0.74495  5.71567
   spin  1
    eigenvalues: 
  0.984  0.994  0.994  0.997  1.002
    eigenvectors:
  0.000  0.000  0.000  1.000  0.000
  0.000  0.126  0.874  0.000  0.000
  0.000  0.874  0.126  0.000  0.000
  0.000  0.000  0.000  0.000  1.000
  1.000  0.000  0.000  0.000  0.000
    occupations:
  0.997 -0.000 -0.000  0.000  0.000
 -0.000  0.994 -0.000  0.000  0.000
 -0.000 -0.000  0.994  0.000  0.000
  0.000  0.000  0.000  1.002 -0.000
  0.000  0.000  0.000 -0.000  0.984
   spin  2
    eigenvalues: 
  0.065  0.132  0.146  0.146  0.256
    eigenvectors:
  0.000  1.000  0.000  0.000  0.000
  0.000  0.000  0.131  0.869  0.000
  0.000  0.000  0.869  0.131  0.000
  1.000  0.000  0.000  0.000  0.000
  0.000  0.000  0.000  0.000  1.000
    occupations:
  0.132 -0.000 -0.000  0.000  0.000
 -0.000  0.146 -0.000  0.000  0.000
 -0.000 -0.000  0.146  0.000  0.000
  0.000  0.000  0.000  0.065 -0.000
  0.000  0.000  0.000 -0.000  0.256
atomic mag. moment =     4.225765
atom    2   Tr[ns(na)] (up, down, total) =   4.96939  0.76453  5.73392
   spin  1
    eigenvalues: 
  0.984  0.993  0.993  0.996  1.002
    eigenvectors:
  0.000  0.000  0.000  1.000  0.000
  0.000  0.111  0.889  0.000  0.000
  0.000  0.889  0.111  0.000  0.000
  0.000  0.000  0.000  0.000  1.000
  1.000  0.000  0.000  0.000  0.000
    occupations:
  0.996 -0.000 -0.000  0.000  0.000
 -0.000  0.993 -0.000  0.000  0.000
 -0.000 -0.000  0.993  0.000  0.000
  0.000  0.000  0.000  1.002 -0.000
  0.000  0.000  0.000 -0.000  0.984
   spin  2
    eigenvalues: 
  0.065  0.143  0.143  0.145  0.269
    eigenvectors:
  0.000  0.000  0.000  1.000  0.000
  0.000  0.135  0.865  0.000  0.000
  0.000  0.865  0.135  0.000  0.000
  1.000  0.000  0.000  0.000  0.000
  0.000  0.000  0.000  0.000  1.000
    occupations:
  0.145 -0.000 -0.000  0.000  0.000
 -0.000  0.143 -0.000  0.000  0.000
 -0.000 -0.000  0.143  0.000  0.000
  0.000  0.000  0.000  0.065 -0.000
  0.000  0.000  0.000 -0.000  0.269
atomic mag. moment =     4.204855
atom    3   Tr[ns(na)] (up, down, total) =   4.96989  0.76085  5.73075
   spin  1
    eigenvalues: 
  0.984  0.993  0.993  0.997  1.002
    eigenvectors:
  0.000  0.000  0.000  1.000  0.000
  0.000  0.104  0.896  0.000  0.000
  0.000  0.896  0.104  0.000  0.000
  0.000  0.000  0.000  0.000  1.000
  1.000  0.000  0.000  0.000  0.000
    occupations:
  0.997 -0.000 -0.000  0.000  0.000
 -0.000  0.993 -0.000  0.000  0.000
 -0.000 -0.000  0.993  0.000  0.000
  0.000  0.000  0.000  1.002 -0.000
  0.000  0.000  0.000 -0.000  0.984
   spin  2
    eigenvalues: 
  0.065  0.142  0.143  0.143  0.268
    eigenvectors:
  0.000  1.000  0.000  0.000  0.000
  0.000  0.000  0.144  0.856  0.000
  0.000  0.000  0.856  0.144  0.000
  1.000  0.000  0.000  0.000  0.000
  0.000  0.000  0.000  0.000  1.000
    occupations:
  0.142 -0.000 -0.000  0.000  0.000
 -0.000  0.143 -0.000  0.000  0.000
 -0.000 -0.000  0.143  0.000  0.000
  0.000  0.000  0.000  0.065 -0.000
  0.000  0.000  0.000 -0.000  0.268
atomic mag. moment =     4.209042
atom    4   Tr[ns(na)] (up, down, total) =   4.97321  0.72786  5.70107
   spin  1
    eigenvalues: 
  0.985  0.994  0.994  0.997  1.002
    eigenvectors:
  0.000  0.000  0.000  1.000  0.000
  0.000  0.151  0.849  0.000  0.000
  0.000  0.849  0.151  0.000  0.000
  0.000  0.000  0.000  0.000  1.000
  1.000  0.000  0.000  0.000  0.000
    occupations:
  0.997 -0.000 -0.000  0.000  0.000
 -0.000  0.994 -0.000  0.000  0.000
 -0.000 -0.000  0.994  0.000  0.000
  0.000  0.000  0.000  1.002 -0.000
  0.000  0.000  0.000 -0.000  0.985
   spin  2
    eigenvalues: 
  0.067  0.122  0.147  0.147  0.246
    eigenvectors:
  0.000  1.000  0.000  0.000  0.000
  0.000  0.000  0.138  0.862  0.000
  0.000  0.000  0.862  0.138  0.000
  1.000  0.000  0.000  0.000  0.000
  0.000  0.000  0.000  0.000  1.000
    occupations:
  0.122 -0.000 -0.000  0.000  0.000
 -0.000  0.147 -0.000  0.000  0.000
 -0.000 -0.000  0.147  0.000  0.000
  0.000  0.000  0.000  0.067 -0.000
  0.000  0.000  0.000 -0.000  0.246
atomic mag. moment =     4.245345
atom    5   Tr[ns(na)] (up, down, total) =   0.71873  4.97186  5.69059
   spin  1
    eigenvalues: 
  0.066  0.114  0.147  0.147  0.245
    eigenvectors:
  0.000  1.000  0.000  0.000  0.000
  0.000  0.000  0.117  0.883  0.000
  0.000  0.000  0.883  0.117  0.000
  1.000  0.000  0.000  0.000  0.000
  0.000  0.000  0.000  0.000  1.000
    occupations:
  0.114 -0.000 -0.000  0.000  0.000
 -0.000  0.147 -0.000  0.000  0.000
 -0.000 -0.000  0.147  0.000  0.000
  0.000  0.000  0.000  0.066 -0.000
  0.000  0.000  0.000 -0.000  0.245
   spin  2
    eigenvalues: 
  0.985  0.994  0.994  0.997  1.003
    eigenvectors:
  0.000  0.000  0.000  1.000  0.000
  0.000  0.146  0.854  0.000  0.000
  0.000  0.854  0.146  0.000  0.000
  0.000  0.000  0.000  0.000  1.000
  1.000  0.000  0.000  0.000  0.000
    occupations:
  0.997 -0.000 -0.000  0.000  0.000
 -0.000  0.994 -0.000  0.000  0.000
 -0.000 -0.000  0.994  0.000  0.000
  0.000  0.000  0.000  1.003 -0.000
  0.000  0.000  0.000 -0.000  0.985
atomic mag. moment =    -4.253129
atom    6   Tr[ns(na)] (up, down, total) =   4.97220  0.71953  5.69173
   spin  1
    eigenvalues: 
  0.985  0.994  0.994  0.997  1.003
    eigenvectors:
  0.000  0.000  0.000  1.000  0.000
  0.000  0.155  0.845  0.000  0.000
  0.000  0.845  0.155  0.000  0.000
  0.000  0.000  0.000  0.000  1.000
  1.000  0.000  0.000  0.000  0.000
    occupations:
  0.997 -0.000 -0.000  0.000  0.000
 -0.000  0.994 -0.000  0.000  0.000
 -0.000 -0.000  0.994  0.000  0.000
  0.000  0.000  0.000  1.003 -0.000
  0.000  0.000  0.000 -0.000  0.985
   spin  2
    eigenvalues: 
  0.066  0.118  0.147  0.147  0.243
    eigenvectors:
  0.000  1.000  0.000  0.000  0.000
  0.000  0.000  0.126  0.874  0.000
  0.000  0.000  0.874  0.126  0.000
  1.000  0.000  0.000  0.000  0.000
  0.000  0.000  0.000  0.000  1.000
    occupations:
  0.118 -0.000 -0.000  0.000  0.000
 -0.000  0.147 -0.000  0.000  0.000
 -0.000 -0.000  0.147  0.000  0.000
  0.000  0.000  0.000  0.066 -0.000
  0.000  0.000  0.000 -0.000  0.243
atomic mag. moment =     4.252668
atom    7   Tr[ns(na)] (up, down, total) =   0.72766  4.97361  5.70127
   spin  1
    eigenvalues: 
  0.066  0.129  0.142  0.142  0.248
    eigenvectors:
  0.000  1.000  0.000  0.000  0.000
  0.000  0.000  0.125  0.875  0.000
  0.000  0.000  0.875  0.125  0.000
  1.000  0.000  0.000  0.000  0.000
  0.000  0.000  0.000  0.000  1.000
    occupations:
  0.129 -0.000 -0.000  0.000  0.000
 -0.000  0.142 -0.000  0.000  0.000
 -0.000 -0.000  0.142  0.000  0.000
  0.000  0.000  0.000  0.066 -0.000
  0.000  0.000  0.000 -0.000  0.248
   spin  2
    eigenvalues: 
  0.985  0.994  0.994  0.997  1.002
    eigenvectors:
  0.000  0.000  0.000  1.000  0.000
  0.000  0.091  0.909  0.000  0.000
  0.000  0.909  0.091  0.000  0.000
  0.000  0.000  0.000  0.000  1.000
  1.000  0.000  0.000  0.000  0.000
    occupations:
  0.997 -0.000 -0.000  0.000  0.000
 -0.000  0.994 -0.000  0.000  0.000
 -0.000 -0.000  0.994  0.000  0.000
  0.000  0.000  0.000  1.002 -0.000
  0.000  0.000  0.000 -0.000  0.985
atomic mag. moment =    -4.245952
atom    8   Tr[ns(na)] (up, down, total) =   0.73864  4.97170  5.71034
   spin  1
    eigenvalues: 
  0.064  0.133  0.142  0.142  0.257
    eigenvectors:
  0.000  1.000  0.000  0.000  0.000
  0.000  0.000  0.093  0.907  0.000
  0.000  0.000  0.907  0.093  0.000
  1.000  0.000  0.000  0.000  0.000
  0.000  0.000  0.000  0.000  1.000
    occupations:
  0.133 -0.000 -0.000  0.000  0.000
 -0.000  0.142 -0.000  0.000  0.000
 -0.000 -0.000  0.142  0.000  0.000
  0.000  0.000  0.000  0.064 -0.000
  0.000  0.000  0.000 -0.000  0.257
   spin  2
    eigenvalues: 
  0.985  0.994  0.994  0.996  1.002
    eigenvectors:
  0.000  0.000  0.000  1.000  0.000
  0.000  0.092  0.908  0.000  0.000
  0.000  0.908  0.092  0.000  0.000
  0.000  0.000  0.000  0.000  1.000
  1.000  0.000  0.000  0.000  0.000
    occupations:
  0.996 -0.000 -0.000  0.000  0.000
 -0.000  0.994 -0.000  0.000  0.000
 -0.000 -0.000  0.994  0.000  0.000
  0.000  0.000  0.000  1.002 -0.000
  0.000  0.000  0.000 -0.000  0.985
atomic mag. moment =    -4.233054
N of occupied +U levels =   45.675335
 --- exit write_ns ---

 ------ SPIN UP ------------


          k = 0.0000 0.0000 0.0000 ( 13925 PWs)   bands (ev):

   -66.8294 -66.7691 -66.7029 -66.6049 -66.5972 -62.2501 -62.1573 -62.1425
   -35.5942 -35.5470 -35.5470 -35.5355 -35.4875 -35.4875 -35.4722 -35.4209
   -35.4209 -35.3825 -35.3736 -35.3202 -35.3202 -35.3132 -35.3132 -31.0735
   -31.0673 -31.0673 -30.9825 -30.9762 -30.9762 -30.9699 -30.9603 -30.9603
     5.7585   5.8936   5.9391   6.3377   6.3938   7.0118   7.0553   7.6175
     8.2763   8.3875   8.3922   8.4721   8.4864   8.5050   8.5560   8.6823
     8.7902   8.8348   8.8680   8.9601   9.0605   9.1469   9.2129   9.2501
     9.2581   9.3772   9.4495   9.5040   9.6567   9.6680   9.9055   9.9069
     9.9570   9.9737  10.0427  10.1075  10.1124  10.1124  10.1266  10.1388
    10.1779  10.1779  10.1970  10.1970  10.2808  10.3411  10.3411  10.3482
    10.3482  10.3653  10.4819  10.5139  10.5694  10.5694  10.5795  10.5856
    10.5856  10.6085  10.6085  10.6149  10.6149  10.6305  10.6305  10.6682
    10.7328  10.7328  10.7893  10.7893  10.8398  10.9265  10.9946  10.9946
    11.0097  11.0455  11.0455  11.1254  11.2221  11.2357  11.2550  11.3014
    11.3660  11.4072  11.4072  11.4175  11.5349  11.5349  11.5940  11.6253
    11.6414  11.8302  11.8302  11.8648  11.8892  11.9157  12.0071  12.0458
    12.0458  12.0653  12.0803  12.1493  12.2364  12.2453  12.3096  12.3096
    12.4515  12.4515  12.5654  12.7684  12.7684  12.7747  12.7922  12.8173
    12.9746  12.9972  13.1255  13.1911  13.7094  14.0757  15.0505  15.2212
    16.3095  16.8029  16.8029  16.8526  16.8526  16.9118  16.9633  17.0243
    17.0995  17.1041  17.1041  17.1335  17.1886  17.5196  17.5804  17.5867
    18.3589  19.5375  19.6768  20.0675  20.0675  20.4283  20.4283  20.4873
    20.4873  21.4236

          k = 0.0000 0.0000-0.0484 ( 13878 PWs)   bands (ev):

   -66.8294 -66.7691 -66.7029 -66.6049 -66.5972 -62.2501 -62.1573 -62.1425
   -35.5942 -35.5470 -35.5470 -35.5355 -35.4875 -35.4875 -35.4722 -35.4209
   -35.4209 -35.3825 -35.3736 -35.3202 -35.3202 -35.3132 -35.3132 -31.0735
   -31.0673 -31.0673 -30.9825 -30.9762 -30.9762 -30.9699 -30.9603 -30.9603
     5.7779   5.8227   6.0560   6.1595   6.6391   6.7153   7.3671   7.4320
     8.3777   8.3876   8.4434   8.4711   8.4834   8.4875   8.5759   8.5934
     8.6819   8.7728   8.9626   9.0239   9.0862   9.1343   9.1560   9.2768
     9.3567   9.3607   9.3913   9.4599   9.6644   9.6849   9.9055   9.9123
     9.9565   9.9742  10.0233  10.1063  10.1141  10.1141  10.1386  10.1473
    10.1610  10.1610  10.2419  10.2419  10.2618  10.2618  10.2804  10.3670
    10.4620  10.4620  10.4676  10.4676  10.4728  10.5035  10.5719  10.5719
    10.5875  10.5875  10.6001  10.6303  10.6303  10.6546  10.7154  10.7154
    10.7466  10.7466  10.7873  10.7873  10.8667  10.8783  10.8783  10.9301
    10.9648  11.1666  11.1986  11.1986  11.2227  11.2253  11.2353  11.2704
    11.2704  11.3122  11.3624  11.4211  11.5900  11.6270  11.6405  11.6583
    11.6583  11.7428  11.7428  11.8611  11.8923  11.9270  12.0074  12.0403
    12.0802  12.0831  12.0831  12.1783  12.2313  12.2364  12.2901  12.2901
    12.4582  12.4582  12.5664  12.7682  12.7682  12.7722  12.7944  12.8581
    12.9030  12.9746  13.1255  13.3400  13.5229  14.2665  14.7597  15.4793
    16.2176  16.8028  16.8028  16.8527  16.8527  16.9118  16.9633  17.0243
    17.0995  17.1041  17.1041  17.1335  17.1886  17.5252  17.5731  17.5970
    18.5371  19.0017  20.1312  20.1312  20.2114  20.2114  20.4584  20.6443
    20.8413  20.8413

          k = 0.0000 0.1250 0.0000 ( 13879 PWs)   bands (ev):

   -66.8291 -66.7689 -66.7027 -66.6046 -66.5969 -62.2501 -62.1574 -62.1425
   -35.5941 -35.5488 -35.5469 -35.5354 -35.4893 -35.4874 -35.4720 -35.4227
   -35.4208 -35.3823 -35.3734 -35.3220 -35.3201 -35.3150 -35.3131 -31.0733
   -31.0694 -31.0671 -30.9823 -30.9783 -30.9760 -30.9697 -30.9625 -30.9602
     6.0019   6.1337   6.1781   6.5632   6.6153   7.2030   7.2377   7.7589
     8.2870   8.4820   8.5242   8.5820   8.6030   8.6071   8.6494   8.7376
     8.7610   8.7923   8.9187   8.9881   9.0571   9.1675   9.2214   9.2571
     9.3100   9.3269   9.3960   9.4240   9.6155   9.6425   9.7720   9.7827
     9.8223   9.8476   9.8677   9.9238   9.9459  10.0148  10.0305  10.0589
    10.0688  10.1255  10.1280  10.1644  10.1700  10.2261  10.2328  10.3151
    10.3240  10.3915  10.4062  10.4231  10.4660  10.4822  10.5486  10.5891
    10.6202  10.6665  10.7079  10.7337  10.7634  10.7893  10.7897  10.8456
    10.8635  10.8971  10.9436  10.9775  10.9936  11.0821  11.1096  11.1331
    11.1385  11.1826  11.1892  11.2096  11.2259  11.2937  11.3281  11.3551
    11.3875  11.3960  11.4398  11.4976  11.5722  11.5987  11.6082  11.6881
    11.7882  11.7932  11.8099  11.8699  11.8998  11.9084  11.9571  11.9679
    12.0423  12.0787  12.1155  12.2076  12.2215  12.2412  12.2469  12.3148
    12.4957  12.5240  12.5756  12.5999  12.6933  12.7585  12.7985  12.8238
    12.9760  13.0125  13.0153  13.1570  13.7803  14.1136  15.1725  15.3390
    16.4160  16.5742  16.6824  16.9002  16.9139  16.9344  16.9718  16.9789
    16.9956  17.0413  17.0694  17.0975  17.2495  17.5007  17.6252  17.9293
    18.4862  18.6370  18.9845  19.0578  19.8279  19.8665  19.9399  19.9756
    20.6791  20.9790

          k = 0.0000 0.1250-0.0484 ( 13868 PWs)   bands (ev):

   -66.8291 -66.7689 -66.7027 -66.6046 -66.5969 -62.2501 -62.1574 -62.1425
   -35.5941 -35.5488 -35.5469 -35.5354 -35.4893 -35.4874 -35.4720 -35.4227
   -35.4208 -35.3823 -35.3734 -35.3220 -35.3201 -35.3150 -35.3131 -31.0733
   -31.0694 -31.0671 -30.9823 -30.9783 -30.9760 -30.9697 -30.9625 -30.9602
     6.0206   6.0650   6.2919   6.3902   6.8541   6.9173   7.5393   7.5772
     8.4067   8.4937   8.5237   8.5278   8.5853   8.6004   8.6059   8.6757
     8.7729   8.8442   8.9707   9.0149   9.0309   9.1520   9.2196   9.2551
     9.2813   9.3028   9.3993   9.5066   9.5687   9.6451   9.7694   9.7722
     9.8200   9.8508   9.9018   9.9227   9.9459   9.9899  10.0261  10.0583
    10.0763  10.1279  10.1296  10.1599  10.1739  10.2091  10.2759  10.3119
    10.3275  10.3339  10.3994  10.4269  10.4749  10.5514  10.5634  10.5886
    10.6195  10.6251  10.6669  10.7082  10.7323  10.8009  10.8408  10.8618
    10.8687  10.9384  10.9464  10.9909  11.0086  11.0238  11.0885  11.1084
    11.1192  11.1798  11.1922  11.2500  11.2577  11.2697  11.3100  11.3418
    11.3949  11.4218  11.4242  11.5500  11.5718  11.6013  11.6466  11.6702
    11.6892  11.7272  11.8815  11.8818  11.8936  11.9332  11.9586  12.0187
    12.0300  12.0763  12.0991  12.1770  12.2080  12.2392  12.2544  12.3339
    12.5015  12.5309  12.5629  12.5988  12.6953  12.7981  12.8111  12.8240
    12.8516  13.0125  13.0153  13.3444  13.5428  14.3569  14.8427  15.6199
    16.2950  16.6016  16.7033  16.9002  16.9119  16.9315  16.9718  16.9793
    16.9956  17.0413  17.0688  17.0975  17.2495  17.4945  17.6954  17.7743
    18.6740  18.7979  18.8554  19.1912  19.3446  19.4748  20.3842  20.4173
    20.7135  20.8338

          k = 0.0000 0.2500 0.0000 ( 13848 PWs)   bands (ev):

   -66.8290 -66.7687 -66.7025 -66.6045 -66.5968 -62.2497 -62.1570 -62.1421
   -35.5937 -35.5530 -35.5467 -35.5350 -35.4935 -35.4872 -35.4716 -35.4269
   -35.4205 -35.3819 -35.3730 -35.3262 -35.3198 -35.3192 -35.3129 -31.0747
   -31.0727 -31.0668 -30.9836 -30.9817 -30.9757 -30.9691 -30.9678 -30.9599
     6.6905   6.8098   6.8508   7.1838   7.2219   7.6835   7.6933   8.0594
     8.2523   8.4826   8.4972   8.6948   8.7175   8.7291   8.7961   8.8599
     8.8623   8.8930   8.9247   8.9386   8.9730   8.9981   9.0745   9.2067
     9.2367   9.4401   9.4718   9.5011   9.5267   9.5802   9.5936   9.6202
     9.6405   9.6451   9.6586   9.7372   9.7442   9.7870   9.8455   9.8859
     9.9857   9.9976  10.0297  10.1263  10.1466  10.1597  10.2514  10.3192
    10.3689  10.5461  10.5492  10.5715  10.6127  10.6289  10.6679  10.7196
    10.7452  10.8020  10.8251  10.8589  10.9067  10.9186  10.9321  11.0128
    11.0635  11.0980  11.1075  11.1409  11.1714  11.1920  11.2246  11.2713
    11.3220  11.3290  11.3844  11.4248  11.4302  11.4481  11.5382  11.5396
    11.6121  11.6131  11.6470  11.6613  11.6898  11.7094  11.7609  11.7915
    11.8112  11.8290  11.8717  11.8748  11.9105  11.9381  11.9493  11.9855
    12.0397  12.0658  12.0700  12.1356  12.1507  12.2179  12.2477  12.3699
    12.4569  12.5749  12.5800  12.6829  12.6975  12.7022  12.8685  12.8872
    12.9128  13.0461  13.0521  13.0728  13.9627  14.2000  15.3706  15.4656
    15.9703  16.0243  16.1203  16.2250  16.4775  16.6267  16.7391  16.7881
    16.8571  17.0074  17.0492  17.0865  17.2258  17.2476  17.3213  17.3511
    17.3859  17.5693  17.7914  17.9572  18.3795  18.5073  18.5330  18.7644
    19.4153  20.4327

          k = 0.0000 0.2500-0.0484 ( 13842 PWs)   bands (ev):

   -66.8290 -66.7687 -66.7025 -66.6045 -66.5968 -62.2497 -62.1570 -62.1421
   -35.5937 -35.5530 -35.5467 -35.5350 -35.4935 -35.4872 -35.4716 -35.4269
   -35.4205 -35.3819 -35.3730 -35.3262 -35.3198 -35.3192 -35.3129 -31.0747
   -31.0727 -31.0668 -30.9836 -30.9817 -30.9757 -30.9691 -30.9678 -30.9599
     6.7066   6.7496   6.9518   7.0333   7.4278   7.4528   7.9007   7.9396
     8.3368   8.3745   8.6023   8.6102   8.7310   8.7591   8.7938   8.8456
     8.8702   8.8888   8.9042   8.9607   8.9899   8.9972   9.0736   9.1751
     9.2351   9.4719   9.5001   9.5249   9.5293   9.5699   9.5756   9.6175
     9.6247   9.6443   9.6552   9.6617   9.7431   9.7870   9.8871   9.9687
     9.9805  10.0041  10.0278  10.0629  10.1224  10.1467  10.2813  10.3253
    10.3784  10.5295  10.5623  10.5814  10.5945  10.6408  10.6968  10.7184
    10.7284  10.7444  10.8484  10.8572  10.8906  10.9288  10.9882  10.9990
    11.0417  11.0816  11.1281  11.1502  11.1585  11.2009  11.2146  11.2958
    11.3124  11.3312  11.3830  11.4094  11.4252  11.4832  11.5050  11.5476
    11.5708  11.6121  11.6240  11.6889  11.6986  11.7596  11.7905  11.8040
    11.8188  11.8325  11.8517  11.8620  11.8797  11.9034  11.9410  11.9776
    12.0325  12.0635  12.1345  12.1454  12.1507  12.2060  12.2344  12.3914
    12.4192  12.6083  12.6596  12.6789  12.6898  12.6916  12.6996  12.8701
    12.8871  13.0460  13.0728  13.3712  13.5735  14.5803  14.9659  15.7892
    15.9282  16.0160  16.1039  16.1881  16.4956  16.6146  16.7455  16.7881
    16.8571  17.0074  17.0493  17.0847  17.2258  17.2644  17.3213  17.3236
    17.3859  17.6448  17.7456  18.0768  18.1957  18.2359  18.8065  18.8733
    19.5737  19.8001

          k = 0.0000 0.3750 0.0000 ( 13856 PWs)   bands (ev):

   -66.8295 -66.7693 -66.7031 -66.6051 -66.5973 -62.2488 -62.1560 -62.1411
   -35.5933 -35.5570 -35.5464 -35.5346 -35.4975 -35.4869 -35.4712 -35.4309
   -35.4203 -35.3815 -35.3726 -35.3302 -35.3233 -35.3196 -35.3126 -31.0801
   -31.0722 -31.0665 -30.9890 -30.9812 -30.9754 -30.9732 -30.9686 -30.9595
     7.6492   7.7411   7.7742   7.9739   7.9823   8.1427   8.1459   8.1857
     8.2017   8.2677   8.2973   8.4107   8.4527   8.6173   8.6602   8.8510
     8.9277   8.9640   9.0671   9.1195   9.1658   9.1805   9.2272   9.2294
     9.2923   9.2947   9.3132   9.3143   9.3189   9.3561   9.5080   9.5182
     9.5459   9.5859   9.6124   9.6947   9.7194   9.7929   9.8380   9.9126
     9.9333  10.0106  10.0370  10.1016  10.1174  10.1564  10.2017  10.3505
    10.3608  10.3747  10.4922  10.5250  10.5540  10.7089  10.7714  10.8215
    10.8362  10.8655  11.0052  11.0195  11.1308  11.1848  11.2241  11.2806
    11.3065  11.3299  11.3571  11.4302  11.4551  11.4587  11.4864  11.5277
    11.5420  11.5800  11.6097  11.6230  11.6280  11.6741  11.7137  11.7213
    11.7409  11.7694  11.8154  11.8366  11.8439  11.8816  11.9017  11.9384
    12.0167  12.0484  12.0526  12.0647  12.1040  12.1289  12.1616  12.1674
    12.1923  12.1947  12.3130  12.3320  12.3646  12.3789  12.4423  12.5387
    12.5610  12.5729  12.6939  12.7718  12.7850  12.8043  12.9342  12.9704
    12.9795  12.9843  13.1036  13.1194  13.9380  14.0044  14.0195  14.2674
    14.2768  14.8138  14.8812  15.0989  15.1387  15.5458  15.5801  15.9488
    16.0328  16.7509  16.7866  16.8093  16.8253  16.9359  16.9820  17.0448
    17.1135  17.2603  17.4271  17.5275  17.5535  17.9061  17.9780  18.1590
    19.4943  19.6010

          k = 0.0000 0.3750-0.0484 ( 13872 PWs)   bands (ev):

   -66.8295 -66.7693 -66.7031 -66.6051 -66.5973 -62.2488 -62.1560 -62.1411
   -35.5933 -35.5570 -35.5464 -35.5346 -35.4975 -35.4869 -35.4712 -35.4309
   -35.4203 -35.3815 -35.3726 -35.3302 -35.3233 -35.3196 -35.3126 -31.0801
   -31.0722 -31.0665 -30.9890 -30.9812 -30.9754 -30.9732 -30.9686 -30.9595
     7.6594   7.7006   7.8453   7.8818   8.0660   8.0874   8.1711   8.1774
     8.2181   8.2432   8.3407   8.3542   8.5052   8.5659   8.6961   8.8254
     8.9562   8.9762   9.0458   9.0684   9.1925   9.2240   9.2271   9.2293
     9.2936   9.2949   9.3145   9.3199   9.3205   9.3543   9.4532   9.5098
     9.5389   9.5458   9.6499   9.7134   9.7946   9.8019   9.8347   9.9404
     9.9462   9.9576   9.9884  10.0601  10.0869  10.1235  10.3328  10.3504
    10.3627  10.4276  10.4444  10.5234  10.5552  10.6795  10.7255  10.8069
    10.8186  10.8904  11.0557  11.0883  11.1503  11.1874  11.1960  11.2269
    11.3108  11.3347  11.4044  11.4408  11.4417  11.4580  11.4842  11.4869
    11.5150  11.5431  11.5829  11.6097  11.6538  11.6727  11.6905  11.7336
    11.7615  11.7788  11.7974  11.8141  11.8677  11.8746  11.9129  11.9834
    11.9996  12.0244  12.0639  12.0658  12.0895  12.1441  12.1660  12.1709
    12.2652  12.2683  12.2838  12.3726  12.4001  12.4180  12.4594  12.4884
    12.5271  12.5603  12.5766  12.7015  12.7674  12.7848  12.8048  12.9345
    12.9795  13.1036  13.1194  13.4922  13.5413  14.0123  14.0551  14.4164
    14.4744  14.5927  14.6738  15.2246  15.2911  15.5363  15.5521  15.9154
    16.0067  16.7509  16.7866  16.8050  16.8435  16.9359  16.9819  17.0402
    17.1166  17.2637  17.4271  17.5275  17.5535  17.9079  17.9753  18.1629
    19.5017  19.6452

          k = 0.0000-0.5000 0.0000 ( 13918 PWs)   bands (ev):

   -66.8300 -66.7697 -66.7035 -66.6055 -66.5978 -62.2482 -62.1554 -62.1405
   -35.5931 -35.5587 -35.5463 -35.5344 -35.4992 -35.4868 -35.4710 -35.4326
   -35.4202 -35.3814 -35.3724 -35.3319 -35.3249 -35.3195 -35.3125 -31.0823
   -31.0719 -31.0663 -30.9913 -30.9809 -30.9755 -30.9752 -30.9683 -30.9594
     8.1186   8.1211   8.1587   8.1764   8.2064   8.2146   8.2996   8.3267
     8.3915   8.4431   8.4471   8.5091   8.5128   8.5530   8.6702   8.6869
     8.8704   8.8776   9.0110   9.0315   9.1264   9.1296   9.2022   9.2034
     9.2239   9.2372   9.2457   9.2832   9.4322   9.4340   9.5197   9.5652
     9.6830   9.6893   9.6935   9.7043   9.7523   9.7689   9.8204   9.8308
     9.8867   9.9628   9.9799  10.0054  10.0314  10.0429  10.1003  10.2643
    10.3461  10.4092  10.4312  10.4331  10.5705  10.6831  10.6846  10.7041
    10.8367  10.9051  11.0847  11.2048  11.3175  11.3596  11.3761  11.4409
    11.4513  11.4531  11.4666  11.5389  11.5411  11.5584  11.5687  11.5824
    11.5892  11.6062  11.6131  11.6486  11.6620  11.7390  11.7468  11.7779
    11.8089  11.8455  11.8459  11.9226  11.9305  12.0071  12.0457  12.1393
    12.2277  12.2604  12.3774  12.4114  12.4263  12.4456  12.4540  12.4761
    12.5204  12.5484  12.5756  12.5904  12.5975  12.6017  12.6423  12.7776
    12.7923  12.7949  12.8307  12.8337  12.8645  12.9556  12.9700  12.9926
    12.9953  13.1338  13.1353  13.1372  13.2488  13.3834  13.4275  13.7452
    13.8100  13.8758  13.8942  14.3976  14.4210  14.4394  14.4991  14.8145
    14.8420  16.5529  16.6725  16.7493  16.7679  16.8190  16.8332  16.8499
    16.9885  16.9971  17.5009  17.6067  17.6220  17.9048  18.0010  18.0120
    19.5264  19.5423

          k = 0.0000-0.5000-0.0484 ( 13892 PWs)   bands (ev):

   -66.8300 -66.7697 -66.7035 -66.6055 -66.5978 -62.2482 -62.1554 -62.1405
   -35.5931 -35.5587 -35.5463 -35.5344 -35.4992 -35.4868 -35.4710 -35.4326
   -35.4202 -35.3814 -35.3724 -35.3319 -35.3249 -35.3195 -35.3125 -31.0823
   -31.0719 -31.0663 -30.9913 -30.9809 -30.9755 -30.9752 -30.9683 -30.9594
     8.1194   8.1206   8.1558   8.1822   8.1989   8.2190   8.3049   8.3209
     8.3847   8.4524   8.4568   8.4932   8.5112   8.5596   8.6689   8.6860
     8.8772   8.8812   9.0011   9.0179   9.1265   9.1296   9.2033   9.2184
     9.2239   9.2372   9.2458   9.3059   9.4323   9.4339   9.4963   9.5322
     9.6837   9.6935   9.6937   9.7158   9.7641   9.7680   9.8154   9.8292
     9.8867   9.9636  10.0054  10.0171  10.0310  10.0428  10.1549  10.2077
    10.2607  10.4312  10.4330  10.4394  10.5998  10.6829  10.6848  10.7042
    10.8305  10.9278  11.0845  11.2109  11.3296  11.3341  11.3761  11.4412
    11.4451  11.4578  11.4675  11.5231  11.5449  11.5520  11.5774  11.5885
    11.5979  11.6052  11.6069  11.6192  11.6348  11.7462  11.7621  11.7754
    11.8112  11.8417  11.8443  11.9227  11.9873  12.0091  12.0672  12.1392
    12.1805  12.2576  12.3777  12.4146  12.4260  12.4298  12.4673  12.4845
    12.5183  12.5395  12.5736  12.5780  12.5905  12.6130  12.6721  12.7793
    12.7915  12.7956  12.8142  12.8258  12.8325  12.9927  12.9954  13.0078
    13.0182  13.0851  13.1338  13.1353  13.1906  13.4289  13.5225  13.6494
    13.6561  14.0371  14.0579  14.1861  14.2248  14.6448  14.6879  14.7369
    14.7660  16.5579  16.6737  16.7460  16.7679  16.8190  16.8332  16.8498
    16.9884  16.9971  17.5009  17.6067  17.6220  17.9050  18.0009  18.0120
    19.5567  19.5651

          k = 0.1250 0.1250 0.0000 ( 13839 PWs)   bands (ev):

   -66.8288 -66.7686 -66.7024 -66.6043 -66.5966 -62.2502 -62.1574 -62.1426
   -35.5939 -35.5487 -35.5486 -35.5352 -35.4892 -35.4891 -35.4719 -35.4226
   -35.4225 -35.3822 -35.3733 -35.3219 -35.3218 -35.3149 -35.3148 -31.0731
   -31.0694 -31.0692 -30.9821 -30.9783 -30.9781 -30.9695 -30.9624 -30.9622
     6.2336   6.3630   6.4078   6.7836   6.8339   7.3988   7.4275   7.9174
     8.3468   8.5644   8.6654   8.6737   8.7248   8.7249   8.7320   8.7388
     8.7597   8.9041   8.9964   9.0387   9.1215   9.1272   9.3199   9.3345
     9.3558   9.3835   9.3849   9.4704   9.5161   9.6049   9.6135   9.6921
     9.7721   9.8015   9.8218   9.8701   9.8724   9.8845   9.9059   9.9162
     9.9228   9.9528  10.0920  10.1019  10.1051  10.1443  10.2397  10.2537
    10.3422  10.3430  10.3645  10.3834  10.3837  10.4029  10.5167  10.5269
    10.5780  10.6269  10.6337  10.6811  10.7039  10.7343  10.7672  10.8492
    10.8787  10.9274  11.0194  11.0560  11.0887  11.1178  11.1486  11.1671
    11.1878  11.2128  11.2617  11.2993  11.3001  11.3755  11.3973  11.4037
    11.4445  11.5110  11.5456  11.5700  11.6442  11.6630  11.6945  11.7446
    11.8213  11.8532  11.9051  11.9220  11.9710  11.9790  11.9830  12.0380
    12.0740  12.1195  12.1249  12.1786  12.2641  12.2905  12.3661  12.4621
    12.4954  12.4966  12.5201  12.6093  12.6950  12.7063  12.7341  12.8053
    12.8885  12.8914  12.9901  13.1687  13.8896  14.2108  15.3116  15.4724
    16.5264  16.7065  16.7137  16.7884  16.8435  16.9011  16.9395  16.9493
    16.9836  16.9888  17.0223  17.1401  17.1875  17.5188  17.6866  18.2753
    18.6592  19.1218  19.2339  19.3836  19.4761  19.5866  19.6705  19.9360
    20.0842  20.2153

          k = 0.1250 0.1250-0.0484 ( 13838 PWs)   bands (ev):

   -66.8288 -66.7686 -66.7024 -66.6043 -66.5966 -62.2502 -62.1574 -62.1426
   -35.5939 -35.5487 -35.5486 -35.5352 -35.4892 -35.4891 -35.4719 -35.4226
   -35.4225 -35.3822 -35.3733 -35.3219 -35.3218 -35.3149 -35.3148 -31.0731
   -31.0694 -31.0692 -30.9821 -30.9783 -30.9781 -30.9695 -30.9624 -30.9622
     6.2516   6.2966   6.5183   6.6154   7.0670   7.1219   7.7189   7.7407
     8.4506   8.5581   8.5848   8.6556   8.6654   8.7243   8.7395   8.7534
     8.8820   8.9039   8.9298   9.0400   9.1281   9.1867   9.2252   9.3108
     9.3907   9.4094   9.4496   9.4575   9.4709   9.5959   9.6119   9.7123
     9.7645   9.8073   9.8199   9.8644   9.8696   9.8870   9.9001   9.9162
     9.9423   9.9531  10.0584  10.1014  10.1056  10.1761  10.2287  10.2537
    10.3226  10.3422  10.3753  10.3830  10.4038  10.4066  10.5119  10.5164
    10.5681  10.6328  10.6444  10.6916  10.7067  10.7476  10.7701  10.7945
    10.8491  10.9854  11.0126  11.0579  11.1219  11.1278  11.1321  11.1415
    11.1910  11.2104  11.2860  11.3032  11.3089  11.3502  11.3858  11.3883
    11.4235  11.4813  11.5369  11.6400  11.6609  11.6732  11.7260  11.7552
    11.8095  11.8478  11.8598  11.9035  11.9286  11.9313  12.0247  12.0684
    12.0876  12.1386  12.1653  12.1790  12.2527  12.2662  12.3429  12.4629
    12.5031  12.5034  12.5325  12.6004  12.6990  12.7108  12.7858  12.8050
    12.8259  12.8936  12.8964  13.3977  13.6085  14.4871  14.9706  15.7469
    16.4024  16.7137  16.7885  16.7939  16.8435  16.8650  16.9492  16.9513
    16.9781  16.9888  17.0223  17.1401  17.1900  17.4955  17.8412  17.9556
    19.1227  19.1630  19.2743  19.3330  19.4193  19.4259  19.5760  19.8035
    19.9521  20.1217

          k = 0.1250 0.2500 0.0000 ( 13846 PWs)   bands (ev):

   -66.8286 -66.7683 -66.7021 -66.6041 -66.5964 -62.2499 -62.1571 -62.1423
   -35.5936 -35.5528 -35.5484 -35.5349 -35.4933 -35.4889 -35.4715 -35.4267
   -35.4223 -35.3818 -35.3729 -35.3260 -35.3216 -35.3191 -35.3146 -31.0745
   -31.0725 -31.0689 -30.9834 -30.9815 -30.9778 -30.9689 -30.9676 -30.9620
     6.8792   6.9998   7.0460   7.3830   7.4274   7.8887   7.8995   8.2527
     8.3963   8.5914   8.6070   8.7696   8.7868   8.8119   8.8799   8.9328
     8.9784   9.0100   9.0433   9.0686   9.1069   9.1501   9.2153   9.2639
     9.3571   9.4277   9.4757   9.5020   9.5253   9.5284   9.5339   9.5662
     9.6070   9.6376   9.6781   9.7147   9.7790   9.7990   9.8277   9.9073
     9.9191   9.9585   9.9897  10.0315  10.0432  10.1047  10.1417  10.2851
    10.3259  10.3519  10.3740  10.4191  10.4337  10.4519  10.4718  10.5511
    10.5915  10.5981  10.6636  10.7151  10.7371  10.7834  10.8792  10.8858
    10.9003  10.9633  10.9870  11.0163  11.0757  11.1119  11.1933  11.2758
    11.3115  11.3946  11.4376  11.4666  11.4841  11.5049  11.5423  11.5524
    11.5939  11.6292  11.6589  11.7164  11.7517  11.7874  11.8253  11.8443
    11.8707  11.8831  11.9199  11.9696  12.0166  12.0329  12.0753  12.1171
    12.1236  12.1785  12.1889  12.2233  12.3038  12.3531  12.4817  12.5352
    12.5664  12.6004  12.6163  12.6539  12.6765  12.7527  12.7723  12.7770
    12.8578  12.9087  13.1316  13.2891  14.1826  14.4637  15.5117  15.6490
    16.1776  16.2596  16.3553  16.4755  16.6004  16.8210  16.8744  16.9064
    16.9665  17.0229  17.0946  17.1536  17.2055  17.3333  17.3626  17.4506
    17.5895  17.7938  18.0393  18.2437  18.6810  18.7855  18.9615  19.0167
    19.4389  20.4438

          k = 0.1250 0.2500-0.0484 ( 13868 PWs)   bands (ev):

   -66.8286 -66.7683 -66.7021 -66.6041 -66.5964 -62.2499 -62.1571 -62.1423
   -35.5936 -35.5528 -35.5484 -35.5349 -35.4933 -35.4889 -35.4715 -35.4267
   -35.4223 -35.3818 -35.3729 -35.3260 -35.3216 -35.3191 -35.3146 -31.0745
   -31.0725 -31.0689 -30.9834 -30.9815 -30.9778 -30.9689 -30.9676 -30.9620
     6.8945   6.9419   7.1430   7.2363   7.6308   7.6609   8.1022   8.1358
     8.4707   8.5040   8.6962   8.7042   8.7756   8.8416   8.8964   8.9199
     8.9828   9.0041   9.0440   9.0637   9.1299   9.1478   9.2115   9.2218
     9.3700   9.4466   9.4980   9.5054   9.5200   9.5330   9.5431   9.5766
     9.6024   9.6169   9.6739   9.6876   9.7332   9.8011   9.8561   9.8960
     9.9547   9.9922   9.9984  10.0123  10.0388  10.1056  10.1551  10.2228
    10.3295  10.3473  10.3777  10.4159  10.4297  10.4614  10.5294  10.5464
    10.5640  10.6018  10.6739  10.7168  10.7481  10.7714  10.8365  10.8605
    10.9245  10.9626  10.9943  11.0346  11.0941  11.1374  11.1955  11.2207
    11.2959  11.4077  11.4412  11.4623  11.4883  11.5279  11.5372  11.5566
    11.5934  11.6345  11.6752  11.6900  11.7501  11.7935  11.8049  11.8377
    11.8645  11.9046  11.9194  11.9450  12.0341  12.0458  12.0776  12.1157
    12.1233  12.1788  12.2049  12.2135  12.2737  12.3866  12.4643  12.5082
    12.5526  12.6100  12.6324  12.6741  12.7481  12.7539  12.7747  12.8146
    12.8567  12.8654  12.9100  13.6201  13.8253  14.7823  15.1957  15.8686
    16.1542  16.2368  16.3932  16.4357  16.6091  16.7885  16.8680  16.9467
    16.9737  16.9979  17.1312  17.1460  17.1786  17.3390  17.3695  17.4035
    17.5956  17.9020  18.0390  18.3455  18.4753  18.5329  19.0965  19.1619
    19.7669  19.8429

          k = 0.1250 0.3750 0.0000 ( 13875 PWs)   bands (ev):

   -66.8290 -66.7688 -66.7026 -66.6045 -66.5968 -62.2490 -62.1563 -62.1414
   -35.5932 -35.5569 -35.5481 -35.5345 -35.4974 -35.4886 -35.4711 -35.4308
   -35.4220 -35.3814 -35.3725 -35.3301 -35.3231 -35.3213 -35.3143 -31.0799
   -31.0720 -31.0685 -30.9888 -30.9810 -30.9774 -30.9730 -30.9684 -30.9616
     7.7491   7.8492   7.8968   8.1303   8.1549   8.3304   8.3383   8.3681
     8.3742   8.4227   8.4637   8.5473   8.5933   8.7440   8.7725   8.9064
     9.0003   9.0389   9.0873   9.1075   9.2359   9.2462   9.2540   9.2955
     9.3028   9.3213   9.3302   9.3578   9.4301   9.4630   9.4849   9.5148
     9.5250   9.5836   9.6119   9.6753   9.7323   9.7685   9.8314   9.9015
     9.9128   9.9381   9.9535   9.9846  10.1000  10.2298  10.2858  10.3057
    10.3501  10.4237  10.4602  10.4693  10.5848  10.6014  10.6400  10.6650
    10.7321  10.7897  10.8119  10.8517  10.9705  11.0296  11.0542  11.1145
    11.1327  11.1923  11.2400  11.2711  11.2959  11.3517  11.4210  11.4964
    11.5017  11.5155  11.5483  11.5899  11.6171  11.6283  11.6548  11.7178
    11.7232  11.7668  11.7811  11.8061  11.8448  11.8663  11.8750  11.9031
    11.9112  11.9402  11.9864  11.9976  12.0412  12.0646  12.1085  12.1548
    12.2253  12.3054  12.3459  12.3817  12.4823  12.5035  12.5223  12.5276
    12.5464  12.5650  12.6606  12.6920  12.8076  12.8458  12.8542  12.9169
    13.1152  13.1902  13.6004  13.7233  14.2892  14.3817  14.4698  14.6612
    14.6995  15.1125  15.1769  15.5164  15.5671  15.8249  15.8635  16.4224
    16.4398  16.8517  16.8703  16.9293  16.9963  17.1090  17.1275  17.1337
    17.1779  17.2435  17.6055  17.6505  17.8416  18.0067  18.0639  18.3019
    19.5332  19.6019

          k = 0.1250 0.3750-0.0484 ( 13882 PWs)   bands (ev):

   -66.8290 -66.7688 -66.7026 -66.6045 -66.5968 -62.2490 -62.1563 -62.1414
   -35.5932 -35.5569 -35.5481 -35.5345 -35.4974 -35.4886 -35.4711 -35.4308
   -35.4220 -35.3814 -35.3725 -35.3301 -35.3231 -35.3213 -35.3143 -31.0799
   -31.0720 -31.0685 -30.9888 -30.9810 -30.9774 -30.9730 -30.9684 -30.9616
     7.7590   7.8098   7.9619   8.0398   8.2572   8.2631   8.3462   8.3723
     8.3891   8.4132   8.4895   8.5007   8.6400   8.6960   8.7999   8.9081
     9.0046   9.0140   9.0683   9.1669   9.2200   9.2355   9.2632   9.2982
     9.3165   9.3225   9.3365   9.3620   9.3819   9.4493   9.4736   9.5097
     9.5131   9.5957   9.6483   9.7288   9.7479   9.7743   9.8291   9.8425
     9.8956   9.9160   9.9499   9.9985  10.1097  10.1978  10.2919  10.3442
    10.4042  10.4262  10.4592  10.4785  10.5183  10.5727  10.6323  10.6717
    10.7192  10.8244  10.8313  10.9072  10.9160  11.0298  11.0536  11.0576
    11.1739  11.1840  11.2469  11.2706  11.3091  11.3658  11.3943  11.4586
    11.5196  11.5388  11.5669  11.5841  11.6098  11.6337  11.6678  11.6890
    11.7226  11.7654  11.8069  11.8157  11.8306  11.8575  11.8717  11.8949
    11.9101  11.9628  11.9832  11.9956  12.0380  12.0563  12.1116  12.1347
    12.2566  12.2985  12.3522  12.4025  12.4394  12.4987  12.5178  12.5262
    12.5312  12.6314  12.6553  12.6909  12.7371  12.8504  12.9155  12.9712
    12.9789  13.3549  13.3955  13.9604  14.0605  14.4183  14.4600  14.7596
    14.7933  14.9933  15.1211  15.5241  15.5557  15.8745  15.9241  16.3792
    16.4124  16.8552  16.8726  16.9322  17.0084  17.1085  17.1287  17.1307
    17.1694  17.2478  17.6130  17.6359  17.8397  18.0182  18.0553  18.3123
    19.5723  19.6804

          k = 0.1250-0.5000 0.0000 ( 13890 PWs)   bands (ev):

   -66.8294 -66.7691 -66.7029 -66.6049 -66.5972 -62.2485 -62.1558 -62.1409
   -35.5930 -35.5585 -35.5480 -35.5343 -35.4990 -35.4885 -35.4710 -35.4324
   -35.4219 -35.3813 -35.3723 -35.3317 -35.3248 -35.3212 -35.3142 -31.0821
   -31.0718 -31.0684 -30.9911 -30.9808 -30.9773 -30.9752 -30.9682 -30.9615
     8.2853   8.2925   8.3076   8.3362   8.3670   8.3733   8.4442   8.4656
     8.4914   8.5578   8.5621   8.5995   8.6259   8.6307   8.6932   8.7162
     8.9151   8.9186   9.0247   9.0767   9.1433   9.1462   9.1955   9.2278
[...]
    11.5212  11.5451  11.5874  11.6477  11.6829  11.7535  11.8139  11.8812
    11.9030  11.9370  11.9658  12.0198  12.0541  12.0839  12.1334  12.1443
    12.1662  12.2558  12.2707  12.3842  12.4017  12.4796  12.5479  12.5711
    12.5968  12.6225  12.7448  12.7799  13.0013  13.0812  13.4260  13.5229
    13.9582  14.0316  14.4248  14.7116  15.1522  15.1806  15.3077  15.3813
    15.4650  15.6429  15.7410  16.0089  16.1762  16.6536  16.7008  16.8770
    16.9277  16.9625  17.0762  17.1012  17.1528  17.2156  17.2382  17.2608
    17.3587  17.4217  17.4732  17.5231  17.5478  17.7776  17.9514  18.0247
    18.1612  18.1857  18.2261  18.3256  18.5017  18.6341  18.8793  19.1563
    19.4505  19.5920

          k = 0.2500 0.3750-0.0484 ( 13916 PWs)   bands (ev):

   -66.8566 -66.7586 -66.7299 -62.2206 -62.1673 -62.1214 -62.0406 -62.0375
   -35.6263 -35.5820 -35.5777 -35.5257 -35.5025 -35.4874 -35.4831 -35.4565
   -35.4522 -31.0522 -31.0465 -31.0406 -31.0000 -30.9942 -30.9891 -30.9540
   -30.9482 -30.9449 -30.8711 -30.8709 -30.8681 -30.8679 -30.8654 -30.8622
     7.9383   8.0600   8.3383   8.3878   8.5813   8.6266   8.7320   8.7690
     8.7972   8.8449   8.8544   8.8863   9.0177   9.0228   9.1027   9.2061
     9.2456   9.2701   9.2926   9.3334   9.3394   9.3599   9.3912   9.4016
     9.4476   9.5604   9.5791   9.6139   9.6257   9.6917   9.7268   9.7437
     9.7686   9.7993   9.8058   9.8592   9.8834   9.9171   9.9793  10.0528
    10.1003  10.1475  10.1796  10.2231  10.2409  10.2736  10.3671  10.3848
    10.4593  10.5156  10.5322  10.5842  10.6091  10.6165  10.6338  10.7054
    10.7681  10.7941  10.8415  10.8601  10.9071  10.9278  10.9506  11.0661
    11.1245  11.1301  11.2052  11.2584  11.2689  11.3401  11.4036  11.4795
    11.5130  11.5728  11.6058  11.6192  11.6888  11.7178  11.8631  11.8805
    11.9035  11.9061  11.9666  12.0384  12.0649  12.0821  12.0881  12.1602
    12.1920  12.2290  12.2772  12.3865  12.4053  12.4794  12.5493  12.5593
    12.5965  12.6628  12.6782  12.8594  12.9075  13.1764  13.3159  13.6437
    13.8090  14.2199  14.2898  14.7812  15.1071  15.1840  15.2433  15.4594
    15.5278  15.6043  15.7022  16.0208  16.1773  16.6525  16.6981  16.8795
    16.9213  16.9724  17.0775  17.0970  17.1595  17.2136  17.2364  17.2498
    17.3868  17.4052  17.4686  17.5255  17.5462  17.7760  17.9616  18.0045
    18.0612  18.2135  18.3326  18.4265  18.5061  18.5570  18.7698  19.1498
    19.4494  19.5925

          k = 0.2500-0.5000 0.0000 ( 13940 PWs)   bands (ev):

   -66.8569 -66.7588 -66.7301 -62.2202 -62.1669 -62.1211 -62.0402 -62.0371
   -35.6262 -35.5836 -35.5776 -35.5255 -35.5024 -35.4891 -35.4830 -35.4582
   -35.4521 -31.0544 -31.0463 -31.0405 -31.0022 -30.9941 -30.9890 -30.9562
   -30.9480 -30.9447 -30.8734 -30.8707 -30.8702 -30.8679 -30.8652 -30.8620
     8.3479   8.3689   8.4526   8.4774   8.6696   8.6800   8.7732   8.7741
     8.7947   8.8134   8.8229   8.8441   8.9501   8.9589   9.0702   9.1061
     9.1661   9.1679   9.1926   9.2108   9.2790   9.2790   9.3382   9.3647
     9.3888   9.5409   9.5853   9.6045   9.6277   9.6386   9.7048   9.7379
     9.7482   9.7828   9.8530   9.8987   9.9396   9.9602  10.0494  10.0572
    10.1994  10.2291  10.3533  10.3569  10.3940  10.4578  10.4731  10.5307
    10.5688  10.7150  10.7150  10.7772  10.8008  10.8249  10.8721  10.8753
    10.9118  10.9447  10.9701  10.9844  11.0201  11.0788  11.1158  11.1514
    11.2206  11.2334  11.2410  11.2705  11.2827  11.3005  11.4737  11.6022
    11.6067  11.6376  11.6674  11.6829  11.8278  11.8591  11.8806  11.9136
    11.9172  11.9611  11.9863  11.9960  12.0619  12.1653  12.1719  12.2525
    12.3047  12.3271  12.3704  12.4198  12.4386  12.4988  12.5016  12.7841
    12.8245  12.9574  12.9858  13.0335  13.1622  13.3935  13.4408  13.6818
    13.7516  13.9303  14.0563  14.1517  14.3831  14.5440  14.6599  14.7720
    14.8603  15.1428  15.2699  15.4924  16.0824  16.3786  16.3837  16.9630
    16.9706  16.9980  17.0470  17.0817  17.0957  17.1391  17.1635  17.1637
    17.2865  17.4849  17.4956  17.5881  17.6449  17.8287  17.8782  18.0476
    18.1398  18.1452  18.2080  18.2576  18.3282  18.3288  18.5847  18.6091
    19.6231  19.6678

          k = 0.2500-0.5000-0.0484 ( 13912 PWs)   bands (ev):

   -66.8569 -66.7588 -66.7301 -62.2202 -62.1669 -62.1211 -62.0402 -62.0371
   -35.6262 -35.5836 -35.5776 -35.5255 -35.5024 -35.4891 -35.4830 -35.4582
   -35.4521 -31.0544 -31.0463 -31.0405 -31.0022 -30.9941 -30.9890 -30.9562
   -30.9480 -30.9447 -30.8734 -30.8707 -30.8702 -30.8679 -30.8652 -30.8620
     8.3483   8.3691   8.4520   8.4755   8.6715   8.6872   8.7735   8.7747
     8.7947   8.8108   8.8129   8.8438   8.9493   8.9619   9.0638   9.1204
     9.1649   9.1682   9.2005   9.2035   9.2753   9.2801   9.3369   9.3631
     9.3890   9.5515   9.5825   9.5875   9.6350   9.6585   9.6785   9.7050
     9.7884   9.8158   9.8289   9.8879   9.9302   9.9710  10.0554  10.0563
    10.1978  10.2289  10.3542  10.3575  10.3932  10.4560  10.4718  10.5302
    10.5632  10.7236  10.7261  10.7738  10.7966  10.8167  10.8724  10.8976
    10.9077  10.9262  10.9624  10.9811  11.0348  11.0805  11.1177  11.1485
    11.2219  11.2260  11.2476  11.2650  11.2855  11.3025  11.4728  11.6021
    11.6067  11.6376  11.6675  11.6829  11.8272  11.8596  11.8811  11.9137
    11.9173  11.9620  11.9871  11.9954  12.0618  12.1677  12.1680  12.2320
    12.2979  12.3685  12.3988  12.4111  12.4440  12.4694  12.4764  12.8269
    12.8623  12.8895  12.9368  13.0760  13.1948  13.3709  13.4145  13.7488
    13.7874  13.8338  14.0081  14.2555  14.4275  14.5032  14.5248  14.8798
    14.9124  15.0733  15.2552  15.5117  16.0868  16.3763  16.3805  16.9707
    16.9708  16.9909  17.0465  17.0826  17.0975  17.1376  17.1626  17.1644
    17.2872  17.4841  17.4922  17.5908  17.6462  17.8277  17.8767  18.0475
    18.1394  18.1427  18.2089  18.2474  18.3498  18.3781  18.5496  18.5534
    19.7651  19.8236

          k = 0.3750 0.3750 0.0000 ( 13948 PWs)   bands (ev):

   -66.8564 -66.7583 -66.7297 -62.2204 -62.1671 -62.1213 -62.0404 -62.0373
   -35.6261 -35.5817 -35.5816 -35.5254 -35.5023 -35.4871 -35.4871 -35.4562
   -35.4561 -31.0518 -31.0516 -31.0403 -30.9996 -30.9994 -30.9888 -30.9536
   -30.9534 -30.9445 -30.8707 -30.8706 -30.8705 -30.8678 -30.8675 -30.8673
     8.0416   8.1726   8.3831   8.4405   8.4879   8.6501   8.6725   8.8176
     8.9706   8.9925   9.0313   9.0401   9.1196   9.1847   9.2345   9.2598
     9.2997   9.3315   9.3397   9.3413   9.3767   9.4010   9.4932   9.5057
     9.5142   9.5304   9.5518   9.5827   9.6849   9.6909   9.7092   9.8410
     9.9311   9.9399   9.9775  10.0128  10.0221  10.0961  10.1041  10.1109
    10.1341  10.1502  10.1624  10.2618  10.2644  10.3899  10.3984  10.4743
    10.5206  10.5679  10.6102  10.6772  10.7089  10.7376  10.7442  10.7897
    10.8529  10.9268  10.9939  11.0340  11.0815  11.0994  11.1569  11.1922
    11.2210  11.3948  11.4423  11.4759  11.5082  11.5363  11.5567  11.5703
    11.5849  11.6070  11.6185  11.6820  11.7652  11.9066  11.9379  11.9467
    11.9580  11.9744  11.9875  12.0241  12.0388  12.0722  12.1127  12.1259
    12.1442  12.2252  12.2632  12.3356  12.3725  12.3991  12.5334  12.6383
    12.6924  12.7191  12.9910  13.0711  13.2952  13.5114  13.8744  13.9956
    14.3169  14.5911  14.8055  15.0232  15.0922  15.1800  15.2278  15.3561
    15.4846  15.8568  16.1493  16.3175  16.4325  16.9661  17.0226  17.0258
    17.0751  17.1081  17.1219  17.1380  17.2146  17.3189  17.3624  17.5272
    17.5488  17.7483  17.7716  17.8379  17.8858  17.9411  18.0215  18.0540
    18.1325  18.2697  18.3158  18.3441  18.4737  18.5438  18.8852  18.9170
    18.9493  19.0136

          k = 0.3750 0.3750-0.0484 ( 13950 PWs)   bands (ev):

   -66.8564 -66.7583 -66.7297 -62.2204 -62.1671 -62.1213 -62.0404 -62.0373
   -35.6261 -35.5817 -35.5816 -35.5254 -35.5023 -35.4871 -35.4871 -35.4562
   -35.4561 -31.0518 -31.0516 -31.0403 -30.9996 -30.9994 -30.9888 -30.9536
   -30.9534 -30.9445 -30.8707 -30.8706 -30.8705 -30.8678 -30.8675 -30.8673
     8.0422   8.1698   8.3835   8.4519   8.5236   8.5414   8.7462   8.8295
     8.9532   8.9920   9.0217   9.0552   9.0996   9.1784   9.2200   9.2583
     9.3000   9.3378   9.3387   9.3922   9.4131   9.4287   9.4460   9.4514
     9.4672   9.5802   9.5809   9.5950   9.6208   9.6676   9.8186   9.8478
     9.8782   9.9343   9.9530   9.9690  10.0352  10.1041  10.1240  10.1290
    10.1476  10.1713  10.1770  10.2355  10.2934  10.3289  10.4043  10.4458
    10.5359  10.5954  10.6221  10.6754  10.6993  10.7156  10.7488  10.8526
    10.8529  10.9069  10.9269  11.0538  11.0824  11.0994  11.1550  11.2131
    11.2338  11.3860  11.4402  11.4828  11.5016  11.5355  11.5540  11.5609
    11.5812  11.6091  11.6175  11.6820  11.8033  11.8531  11.9381  11.9578
    11.9740  11.9860  11.9949  12.0235  12.0397  12.0557  12.0773  12.1388
    12.1816  12.2235  12.2405  12.3349  12.3794  12.3993  12.5661  12.5999
    12.6376  12.8372  12.8885  13.1508  13.2435  13.5430  13.8224  14.0586
    14.2715  14.6384  14.7693  15.0318  15.1023  15.1534  15.2495  15.3505
    15.4851  15.8568  16.1471  16.3171  16.4363  16.9467  17.0339  17.0473
    17.0753  17.1082  17.1150  17.1379  17.2515  17.2881  17.3038  17.5642
    17.5730  17.7389  17.7686  17.8380  17.8650  17.9638  18.0215  18.0348
    18.1634  18.2327  18.3215  18.5001  18.5166  18.5382  18.5928  18.6808
    18.9265  19.2087

          k = 0.3750-0.5000 0.0000 ( 13934 PWs)   bands (ev):

   -66.8565 -66.7584 -66.7297 -62.2201 -62.1669 -62.1210 -62.0402 -62.0371
   -35.6260 -35.5832 -35.5815 -35.5253 -35.5022 -35.4887 -35.4869 -35.4578
   -35.4560 -31.0539 -31.0515 -31.0402 -31.0017 -30.9993 -30.9887 -30.9557
   -30.9533 -30.9444 -30.8728 -30.8704 -30.8704 -30.8696 -30.8677 -30.8672
     8.1647   8.1723   8.2737   8.3069   8.5576   8.5833   8.7206   8.7407
     8.8808   8.9855   9.1072   9.1367   9.1654   9.1689   9.2067   9.2230
     9.2243   9.2516   9.2705   9.2899   9.3874   9.3911   9.4177   9.4698
     9.4783   9.4850   9.5974   9.6408   9.6442   9.6668   9.8665   9.8989
     9.9066   9.9403   9.9590   9.9760  10.0595  10.0628  10.0854  10.1007
    10.1900  10.2653  10.2954  10.3685  10.3837  10.3910  10.4181  10.5883
    10.6452  10.6713  10.6966  10.7493  10.8082  10.8538  10.9045  11.0005
    11.0703  11.0803  11.1250  11.1599  11.2215  11.2614  11.2707  11.3597
    11.4048  11.4371  11.4858  11.5121  11.5198  11.6465  11.6535  11.7163
    11.7339  11.7684  11.8015  11.8043  11.9089  11.9536  11.9643  12.0160
    12.0200  12.0430  12.0487  12.0739  12.1035  12.1763  12.2104  12.2130
    12.2711  12.2936  12.3132  12.3417  12.3717  12.4556  12.4834  12.9691
    13.0311  13.1202  13.1558  13.2227  13.6351  13.8129  13.8888  14.1861
    14.2987  14.3414  14.5297  14.5338  14.7674  14.7938  14.9093  14.9390
    15.3687  15.6821  15.9621  16.0167  16.7730  16.9991  17.0043  17.0342
    17.0592  17.0726  17.0851  17.1171  17.1608  17.2384  17.4319  17.4957
    17.6476  17.8820  17.8999  17.9391  18.0208  18.0507  18.1068  18.1363
    18.2259  18.2602  18.3653  18.4822  18.6799  18.6927  18.7842  18.8556
    18.9601  18.9639

          k = 0.3750-0.5000-0.0484 ( 13940 PWs)   bands (ev):

   -66.8565 -66.7584 -66.7297 -62.2201 -62.1669 -62.1210 -62.0402 -62.0371
   -35.6260 -35.5832 -35.5815 -35.5253 -35.5022 -35.4887 -35.4869 -35.4578
   -35.4560 -31.0539 -31.0515 -31.0402 -31.0017 -30.9993 -30.9887 -30.9557
   -30.9533 -30.9444 -30.8728 -30.8704 -30.8704 -30.8696 -30.8677 -30.8672
     8.1651   8.1726   8.2728   8.3049   8.5637   8.6066   8.6908   8.7074
     8.9401   9.0246   9.0907   9.0922   9.1407   9.1541   9.1866   9.1997
     9.2518   9.2574   9.2995   9.3237   9.3780   9.3805   9.4384   9.4660
     9.4912   9.5064   9.5365   9.5712   9.7404   9.7557   9.7825   9.7910
     9.9371   9.9477   9.9864  10.0080  10.0487  10.0536  10.1482  10.1558
    10.1618  10.2260  10.2331  10.3121  10.3230  10.5016  10.5126  10.5763
    10.6391  10.6840  10.6867  10.7374  10.7658  10.7772  10.9843  11.0191
    11.0786  11.0895  11.1459  11.1686  11.1747  11.2153  11.2906  11.3846
    11.4062  11.4217  11.4510  11.5289  11.5528  11.6371  11.6406  11.7293
    11.7346  11.7612  11.8017  11.8049  11.9113  11.9523  11.9667  12.0155
    12.0195  12.0373  12.0457  12.0780  12.1044  12.1762  12.2049  12.2095
    12.2608  12.3057  12.3423  12.3513  12.3725  12.4379  12.4637  13.0006
    13.0487  13.0758  13.1387  13.2409  13.6411  13.8106  13.8832  14.1955
    14.3059  14.3249  14.5229  14.5459  14.7769  14.7781  14.9188  14.9337
    15.3690  15.6818  15.9620  16.0168  16.7712  16.9906  17.0100  17.0364
    17.0665  17.0678  17.0887  17.1078  17.1966  17.2244  17.3589  17.5495
    17.7116  17.8108  17.8608  17.9841  18.0194  18.0732  18.1219  18.1317
    18.1677  18.2287  18.4024  18.5040  18.7140  18.7266  18.8273  18.8489
    18.9278  18.9430

          k =-0.5000-0.5000 0.0000 ( 13964 PWs)   bands (ev):

   -66.8565 -66.7584 -66.7297 -62.2200 -62.1667 -62.1209 -62.0400 -62.0369
   -35.6259 -35.5831 -35.5831 -35.5252 -35.5021 -35.4885 -35.4885 -35.4576
   -35.4576 -31.0537 -31.0537 -31.0401 -31.0014 -31.0014 -30.9886 -30.9554
   -30.9554 -30.9443 -30.8726 -30.8726 -30.8703 -30.8694 -30.8694 -30.8675
     8.0836   8.0868   8.1922   8.2314   8.5034   8.5307   8.6759   8.6991
     8.8211   8.9129   9.1619   9.1841   9.2078   9.2120   9.2363   9.2363
     9.2891   9.2891   9.3321   9.3321   9.4221   9.4360   9.4501   9.4501
     9.4540   9.4540   9.6951   9.6951   9.7030   9.7030   9.8547   9.9090
     9.9090   9.9117   9.9117   9.9493   9.9992  10.0258  10.0258  10.0707
    10.0707  10.0904  10.0904  10.5121  10.5121  10.5228  10.5815  10.5815
    10.6039  10.6132  10.7024  10.7054  11.0641  11.0641  11.1208  11.1225
    11.1442  11.2065  11.2065  11.2245  11.3656  11.4098  11.4146  11.4542
    11.4790  11.5808  11.5808  11.8902  11.8902  11.9157  11.9528  11.9576
    11.9625  11.9712  11.9948  12.0057  12.0351  12.0385  12.0471  12.0506
    12.0561  12.0763  12.0922  12.1283  12.1318  12.1409  12.1977  12.2107
    12.2640  12.2645  12.2708  12.3349  12.3371  12.3371  12.3539  13.3691
    13.3990  13.4072  13.4450  13.4460  13.8656  13.8656  14.1028  14.1028
    14.2476  14.2476  14.5702  14.5702  14.8154  14.8154  15.2236  15.2236
    15.8967  15.8967  16.5817  16.6444  16.6444  16.6825  16.6836  16.8339
    16.8791  16.9219  17.0257  17.1270  17.2530  17.2530  17.5253  17.5253
    17.7504  17.7695  17.8588  17.9866  18.0170  18.0341  18.0778  18.1344
    18.2168  18.2174  18.2174  18.2231  18.2257  18.3036  18.3036  18.4412
    18.5141  18.7309

          k =-0.5000-0.5000-0.0484 ( 13992 PWs)   bands (ev):

   -66.8565 -66.7584 -66.7297 -62.2200 -62.1667 -62.1209 -62.0400 -62.0369
   -35.6259 -35.5831 -35.5831 -35.5252 -35.5021 -35.4885 -35.4885 -35.4576
   -35.4576 -31.0537 -31.0537 -31.0401 -31.0014 -31.0014 -30.9886 -30.9554
   -30.9554 -30.9443 -30.8726 -30.8726 -30.8703 -30.8694 -30.8694 -30.8675
     8.0839   8.0870   8.1914   8.2297   8.5108   8.5561   8.6384   8.6569
     8.8999   8.9710   9.0494   9.0611   9.2371   9.2371   9.2825   9.2825
     9.3201   9.3515   9.3601   9.3601   9.3701   9.3788   9.3830   9.3830
     9.5582   9.5582   9.5633   9.5633   9.8611   9.8616   9.8616   9.8707
     9.8707   9.9091   9.9091   9.9117   9.9117   9.9508   9.9962  10.0555
    10.0555  10.2627  10.2627  10.3284  10.3284  10.5215  10.6040  10.6146
    10.7024  10.7050  10.7494  10.7494  10.9131  10.9131  11.1207  11.1226
    11.1440  11.2247  11.3565  11.3565  11.3656  11.4098  11.4146  11.4542
    11.4790  11.4860  11.4860  11.9157  11.9207  11.9207  11.9528  11.9576
    11.9625  11.9712  11.9948  12.0057  12.0351  12.0385  12.0471  12.0506
    12.0561  12.0763  12.0922  12.1283  12.1318  12.1408  12.1989  12.2110
    12.2554  12.2643  12.2787  12.3296  12.3296  12.3350  12.3534  13.3691
    13.3990  13.4072  13.4450  13.4460  13.8910  13.8910  14.0408  14.0408
    14.3000  14.3000  14.5512  14.5512  14.8194  14.8194  15.2235  15.2235
    15.8966  15.8966  16.5817  16.6469  16.6469  16.6825  16.6839  16.8308
    16.8792  16.9280  17.0253  17.1215  17.2108  17.2108  17.6736  17.6736
    17.7848  17.8083  17.8112  17.8983  17.8983  17.9162  18.0342  18.0360
    18.0778  18.1344  18.2231  18.2257  18.2625  18.4381  18.4993  18.7313
    18.7610  18.7610

     the Fermi energy is    15.2669 ev

!    total energy              =  -14694.00433580 Ry
     Harris-Foulkes estimate   =  -14694.00433278 Ry
     estimated scf accuracy    <       0.00000042 Ry

     total all-electron energy =   -626921.600058 Ry

     The total energy is the sum of the following terms:

     one-electron contribution =    -714.49060044 Ry
     hartree contribution      =     656.54531527 Ry
     xc contribution           =    -737.87874113 Ry
     ewald contribution        =   -2196.78933708 Ry
     Hubbard energy            =       0.45056785 Ry
     one-center paw contrib.   =  -11701.84154027 Ry

     total magnetization       =     8.57 Bohr mag/cell
     absolute magnetization    =    37.23 Bohr mag/cell

     convergence has been achieved in  29 iterations

     Writing output data file mnau2.save/
 
     init_run     :     19.44s CPU     19.84s WALL (       1 calls)
     electrons    :   1713.46s CPU   1746.71s WALL (       1 calls)

     Called by init_run:
     wfcinit      :     17.46s CPU     17.75s WALL (       1 calls)
     potinit      :      1.10s CPU      1.14s WALL (       1 calls)
     hinit0       :      0.51s CPU      0.52s WALL (       1 calls)

     Called by electrons:
     c_bands      :   1457.67s CPU   1485.19s WALL (      29 calls)
     sum_band     :    231.58s CPU    235.44s WALL (      29 calls)
     v_of_rho     :      2.07s CPU      2.10s WALL (      30 calls)
     newd         :      5.60s CPU      5.65s WALL (      30 calls)
     PAW_pot      :     16.56s CPU     16.80s WALL (      30 calls)
     mix_rho      :      0.52s CPU      0.54s WALL (      29 calls)

     Called by c_bands:
     init_us_2    :      3.40s CPU      3.43s WALL (    3600 calls)
     cegterg      :   1414.04s CPU   1440.98s WALL (    1740 calls)

     Called by sum_band:
     sum_band:bec :      1.07s CPU      1.08s WALL (    1740 calls)
     addusdens    :      5.54s CPU      5.60s WALL (      29 calls)

     Called by *egterg:
     h_psi        :    861.13s CPU    875.09s WALL (    6106 calls)
     s_psi        :     29.86s CPU     29.89s WALL (    6166 calls)
     g_psi        :      1.07s CPU      1.08s WALL (    4306 calls)
     cdiaghg      :    348.66s CPU    359.93s WALL (    6046 calls)

     Called by h_psi:
     h_psi:pot    :    820.79s CPU    834.24s WALL (    6106 calls)
     h_psi:calbec :     60.84s CPU     62.51s WALL (    6106 calls)
     vloc_psi     :    731.18s CPU    742.93s WALL (    6106 calls)
     add_vuspsi   :     28.72s CPU     28.77s WALL (    6106 calls)
     vhpsi        :     39.62s CPU     40.12s WALL (    6106 calls)

     General routines
     calbec       :    130.14s CPU    133.16s WALL (   15752 calls)
     fft          :      2.22s CPU      2.25s WALL (     746 calls)
     ffts         :      0.11s CPU      0.12s WALL (     118 calls)
     fftw         :    896.46s CPU    910.96s WALL ( 1623210 calls)
     interpolate  :      0.16s CPU      0.16s WALL (      60 calls)
     davcio       :      0.01s CPU      1.25s WALL (      60 calls)
 
     Parallel routines
     fft_scatt_xy :     16.25s CPU     16.37s WALL ( 1624074 calls)
     fft_scatt_yz :    813.66s CPU    827.31s WALL ( 1624074 calls)

     Hubbard U routines
     new_ns       :      5.02s CPU      5.13s WALL (      29 calls)
     vhpsi        :     39.62s CPU     40.12s WALL (    6106 calls)
 
     PWSCF        : 29m42.46s CPU    31m27.31s WALL

 
   This run was terminated on:  22:15:29   6Apr2019            

=------------------------------------------------------------------------------=
   JOB DONE.
=------------------------------------------------------------------------------=
