
     Program PWSCF v.6.3MaX starts on  6Apr2019 at 22:15:32 

     This program is part of the open-source Quantum ESPRESSO suite
     for quantum simulation of materials; please cite
         "P. Giannozzi et al., J. Phys.:Condens. Matter 21 395502 (2009);
         "P. Giannozzi et al., J. Phys.:Condens. Matter 29 465901 (2017);
          URL http://www.quantum-espresso.org", 
     in publications or presentations arising from this work. More details at
     http://www.quantum-espresso.org/quote

     Parallel version (MPI), running on    32 processors

     MPI processes distributed on     5 nodes
     R & G space division:  proc/nbgrp/npool/nimage =      32
     Waiting for input...
     Reading input from standard input

     Current dimensions of program PWSCF are:
     Max number of different atomic species (ntypx) = 10
     Max number of k-points (npk) =  40000
     Max angular momentum in pseudopotentials (lmaxx) =  3
               file Mn.pbe-spn-kjpaw_psl.0.3.1.UPF: wavefunction(s)  3P 3D renormalized
               file Mn.pbe-spn-kjpaw_psl.0.3.1.UPF: wavefunction(s)  3P 3D renormalized
               file Au.pbe-dn-kjpaw_psl.0.1.UPF: wavefunction(s)  6S 6P 5D renormalized

     Subspace diagonalization in iterative solution of the eigenvalue problem:
     one sub-group per band group will be used
     scalapack distributed-memory algorithm (size of sub-group:  4*  4 procs)

 
     Parallelization info
     --------------------
     sticks:   dense  smooth     PW     G-vecs:    dense   smooth      PW
     Min          41      18      5                11487     3460     563
     Max          42      19      6                11527     3505     606
     Sum        1313     593    177               368373   111379   18691
 


     bravais-lattice index     =            0
     lattice parameter (alat)  =       6.4153  a.u.
     unit-cell volume          =    2724.7774 (a.u.)^3
     number of atoms/cell      =           24
     number of atomic types    =            3
     number of electrons       =       296.00
     number of Kohn-Sham states=          178
     kinetic-energy cutoff     =      45.0000  Ry
     charge density cutoff     =     400.0000  Ry
     convergence threshold     =      1.0E-06
     mixing beta               =       0.1000
     number of iterations used =            8  plain     mixing
     Exchange-correlation      = SLA PW PBX PBC ( 1  4  3  4 0 0)

     celldm(1)=   6.415315  celldm(2)=   0.000000  celldm(3)=   0.000000
     celldm(4)=   0.000000  celldm(5)=   0.000000  celldm(6)=   0.000000

     crystal axes: (cart. coord. in units of alat)
               a(1) = (   1.000000   0.000000   0.000000 )  
               a(2) = (   0.000000   1.000000   0.000000 )  
               a(3) = (   0.000000   0.000000  10.319937 )  

     reciprocal axes: (cart. coord. in units 2 pi/alat)
               b(1) = (  1.000000  0.000000  0.000000 )  
               b(2) = (  0.000000  1.000000  0.000000 )  
               b(3) = (  0.000000  0.000000  0.096900 )  


     PseudoPot. # 1 for Mn read from file:
     ./pseudo/Mn.pbe-spn-kjpaw_psl.0.3.1.UPF
     MD5 check sum: 7b43a3fb0e93e198b8dd8488d8cf503e
     Pseudo is Projector augmented-wave + core cor, Zval = 15.0
     Generated using "atomic" code by A. Dal Corso v.5.0.99 svn rev. 10869
     Shape of augmentation charge: PSQ
     Using radial grid of 1187 points,  6 beta functions with: 
                l(1) =   0
                l(2) =   0
                l(3) =   1
                l(4) =   1
                l(5) =   2
                l(6) =   2
     Q(r) pseudized with 0 coefficients 


     PseudoPot. # 2 for Mn read from file:
     ./pseudo/Mn.pbe-spn-kjpaw_psl.0.3.1.UPF
     MD5 check sum: 7b43a3fb0e93e198b8dd8488d8cf503e
     Pseudo is Projector augmented-wave + core cor, Zval = 15.0
     Generated using "atomic" code by A. Dal Corso v.5.0.99 svn rev. 10869
     Shape of augmentation charge: PSQ
     Using radial grid of 1187 points,  6 beta functions with: 
                l(1) =   0
                l(2) =   0
                l(3) =   1
                l(4) =   1
                l(5) =   2
                l(6) =   2
     Q(r) pseudized with 0 coefficients 


     PseudoPot. # 3 for Au read from file:
     ./pseudo/Au.pbe-dn-kjpaw_psl.0.1.UPF
     MD5 check sum: be11e2e8e535ebe2b3ccfb4f88f554cb
     Pseudo is Projector augmented-wave + core cor, Zval = 11.0
     Generated using "atomic" code by A. Dal Corso v.5.0.2 svn rev. 9415
     Shape of augmentation charge: PSQ
     Using radial grid of 1279 points,  6 beta functions with: 
                l(1) =   0
                l(2) =   0
                l(3) =   1
                l(4) =   1
                l(5) =   2
                l(6) =   2
     Q(r) pseudized with 0 coefficients 


     atomic species   valence    mass     pseudopotential
        Mn1           15.00    54.93800     Mn( 1.00)
        Mn2           15.00    54.93800     Mn( 1.00)
        Au            11.00   196.96600     Au( 1.00)

     Starting magnetic structure 
     atomic species   magnetization
        Mn1          0.800
        Mn2         -0.800
        Au           0.000


     Full LDA+U calculation (l_max = 2) with parameters (eV):
     U(  1) =   3.1200   J(  1) =   0.7000   B(  1) =   0.0803
     U(  2) =   3.1200   J(  2) =   0.7000   B(  2) =   0.0803



      8 Sym. Ops. (no inversion) found



   Cartesian axes

     site n.     atom                  positions (alat units)
         1           Mn1 tau(   1) = (   0.0000000   0.0000000   0.0000000  )
         2           Mn1 tau(   2) = (   0.5000000   0.5000000   1.2899921  )
         3           Mn1 tau(   3) = (   0.0000000   0.0000000   2.5799843  )
         4           Mn1 tau(   4) = (   0.5000000   0.5000000   3.8699764  )
         5           Mn2 tau(   5) = (   0.0000000   0.0000000   5.1599686  )
         6           Mn2 tau(   6) = (   0.5000000   0.5000000   6.4499607  )
         7           Mn2 tau(   7) = (   0.0000000   0.0000000   7.7399528  )
         8           Mn2 tau(   8) = (   0.5000000   0.5000000   9.0299450  )
         9           Au  tau(   9) = (   0.5000000   0.5000000   0.4127975  )
        10           Au  tau(  10) = (   0.0000000   0.0000000   0.8771947  )
        11           Au  tau(  11) = (   0.0000000   0.0000000   1.7027896  )
        12           Au  tau(  12) = (   0.5000000   0.5000000   2.1671868  )
        13           Au  tau(  13) = (   0.5000000   0.5000000   2.9927818  )
        14           Au  tau(  14) = (   0.0000000   0.0000000   3.4571789  )
        15           Au  tau(  15) = (   0.0000000   0.0000000   4.2827739  )
        16           Au  tau(  16) = (   0.5000000   0.5000000   4.7471711  )
        17           Au  tau(  17) = (   0.5000000   0.5000000   5.5727660  )
        18           Au  tau(  18) = (   0.0000000   0.0000000   6.0371632  )
        19           Au  tau(  19) = (   0.0000000   0.0000000   6.8627582  )
        20           Au  tau(  20) = (   0.5000000   0.5000000   7.3271553  )
        21           Au  tau(  21) = (   0.5000000   0.5000000   8.1527503  )
        22           Au  tau(  22) = (   0.0000000   0.0000000   8.6171475  )
        23           Au  tau(  23) = (   0.0000000   0.0000000   9.4427424  )
        24           Au  tau(  24) = (   0.5000000   0.5000000   9.9071396  )

     number of k points=    30 (tetrahedron method)
                       cart. coord. in units 2pi/alat
        k(    1) = (   0.0000000   0.0000000   0.0000000), wk =   0.0078125
        k(    2) = (   0.0000000   0.0000000  -0.0484499), wk =   0.0078125
        k(    3) = (   0.0000000   0.1250000   0.0000000), wk =   0.0312500
        k(    4) = (   0.0000000   0.1250000  -0.0484499), wk =   0.0312500
        k(    5) = (   0.0000000   0.2500000   0.0000000), wk =   0.0312500
        k(    6) = (   0.0000000   0.2500000  -0.0484499), wk =   0.0312500
        k(    7) = (   0.0000000   0.3750000   0.0000000), wk =   0.0312500
        k(    8) = (   0.0000000   0.3750000  -0.0484499), wk =   0.0312500
        k(    9) = (   0.0000000  -0.5000000   0.0000000), wk =   0.0156250
        k(   10) = (   0.0000000  -0.5000000  -0.0484499), wk =   0.0156250
        k(   11) = (   0.1250000   0.1250000   0.0000000), wk =   0.0312500
        k(   12) = (   0.1250000   0.1250000  -0.0484499), wk =   0.0312500
        k(   13) = (   0.1250000   0.2500000   0.0000000), wk =   0.0625000
        k(   14) = (   0.1250000   0.2500000  -0.0484499), wk =   0.0625000
        k(   15) = (   0.1250000   0.3750000   0.0000000), wk =   0.0625000
        k(   16) = (   0.1250000   0.3750000  -0.0484499), wk =   0.0625000
        k(   17) = (   0.1250000  -0.5000000   0.0000000), wk =   0.0312500
        k(   18) = (   0.1250000  -0.5000000  -0.0484499), wk =   0.0312500
        k(   19) = (   0.2500000   0.2500000   0.0000000), wk =   0.0312500
        k(   20) = (   0.2500000   0.2500000  -0.0484499), wk =   0.0312500
        k(   21) = (   0.2500000   0.3750000   0.0000000), wk =   0.0625000
        k(   22) = (   0.2500000   0.3750000  -0.0484499), wk =   0.0625000
        k(   23) = (   0.2500000  -0.5000000   0.0000000), wk =   0.0312500
        k(   24) = (   0.2500000  -0.5000000  -0.0484499), wk =   0.0312500
        k(   25) = (   0.3750000   0.3750000   0.0000000), wk =   0.0312500
        k(   26) = (   0.3750000   0.3750000  -0.0484499), wk =   0.0312500
        k(   27) = (   0.3750000  -0.5000000   0.0000000), wk =   0.0312500
        k(   28) = (   0.3750000  -0.5000000  -0.0484499), wk =   0.0312500
        k(   29) = (  -0.5000000  -0.5000000   0.0000000), wk =   0.0078125
        k(   30) = (  -0.5000000  -0.5000000  -0.0484499), wk =   0.0078125

     Dense  grid:   368373 G-vectors     FFT dimensions: (  45,  45, 432)

     Smooth grid:   111379 G-vectors     FFT dimensions: (  27,  27, 288)

     Estimated max dynamical RAM per process >     143.50 MB

     Estimated total dynamical RAM >       4.48 GB
     Generating pointlists ...
     new r_m :   0.3377 (alat units)  2.1668 (a.u.) for type    1
     new r_m :   0.3377 (alat units)  2.1668 (a.u.) for type    2
     new r_m :   0.3377 (alat units)  2.1668 (a.u.) for type    3

     Check: negative/imaginary core charge=   -0.000006    0.000000

     Initial potential from superposition of free atoms

     starting charge  295.99426, renormalised to  296.00000
     Number of +U iterations with fixed ns =  0
     Starting occupations:
 --- enter write_ns ---
 LDA+U parameters:
U(  1) =   3.1200   J(  1) =   0.7000   B(  1) =   0.0803
U(  2) =   3.1200   J(  2) =   0.7000   B(  2) =   0.0803
atom    1   Tr[ns(na)] (up, down, total) =   5.00000  0.00000  5.00000
   spin  1
    eigenvalues: 
  1.000  1.000  1.000  1.000  1.000
    eigenvectors:
  1.000  0.000  0.000  0.000  0.000
  0.000  1.000  0.000  0.000  0.000
  0.000  0.000  1.000  0.000  0.000
  0.000  0.000  0.000  1.000  0.000
  0.000  0.000  0.000  0.000  1.000
    occupations:
  1.000  0.000  0.000  0.000  0.000
  0.000  1.000  0.000  0.000  0.000
  0.000  0.000  1.000  0.000  0.000
  0.000  0.000  0.000  1.000  0.000
  0.000  0.000  0.000  0.000  1.000
   spin  2
    eigenvalues: 
  0.000  0.000  0.000  0.000  0.000
    eigenvectors:
  1.000  0.000  0.000  0.000  0.000
  0.000  1.000  0.000  0.000  0.000
  0.000  0.000  1.000  0.000  0.000
  0.000  0.000  0.000  1.000  0.000
  0.000  0.000  0.000  0.000  1.000
    occupations:
  0.000  0.000  0.000  0.000  0.000
  0.000  0.000  0.000  0.000  0.000
  0.000  0.000  0.000  0.000  0.000
  0.000  0.000  0.000  0.000  0.000
  0.000  0.000  0.000  0.000  0.000
atomic mag. moment =     5.000000
atom    2   Tr[ns(na)] (up, down, total) =   5.00000  0.00000  5.00000
   spin  1
    eigenvalues: 
  1.000  1.000  1.000  1.000  1.000
    eigenvectors:
  1.000  0.000  0.000  0.000  0.000
  0.000  1.000  0.000  0.000  0.000
  0.000  0.000  1.000  0.000  0.000
  0.000  0.000  0.000  1.000  0.000
  0.000  0.000  0.000  0.000  1.000
    occupations:
  1.000  0.000  0.000  0.000  0.000
  0.000  1.000  0.000  0.000  0.000
  0.000  0.000  1.000  0.000  0.000
  0.000  0.000  0.000  1.000  0.000
  0.000  0.000  0.000  0.000  1.000
   spin  2
    eigenvalues: 
  0.000  0.000  0.000  0.000  0.000
    eigenvectors:
  1.000  0.000  0.000  0.000  0.000
  0.000  1.000  0.000  0.000  0.000
  0.000  0.000  1.000  0.000  0.000
  0.000  0.000  0.000  1.000  0.000
  0.000  0.000  0.000  0.000  1.000
    occupations:
  0.000  0.000  0.000  0.000  0.000
  0.000  0.000  0.000  0.000  0.000
  0.000  0.000  0.000  0.000  0.000
  0.000  0.000  0.000  0.000  0.000
  0.000  0.000  0.000  0.000  0.000
atomic mag. moment =     5.000000
atom    3   Tr[ns(na)] (up, down, total) =   5.00000  0.00000  5.00000
   spin  1
    eigenvalues: 
  1.000  1.000  1.000  1.000  1.000
    eigenvectors:
  1.000  0.000  0.000  0.000  0.000
  0.000  1.000  0.000  0.000  0.000
  0.000  0.000  1.000  0.000  0.000
  0.000  0.000  0.000  1.000  0.000
  0.000  0.000  0.000  0.000  1.000
    occupations:
  1.000  0.000  0.000  0.000  0.000
  0.000  1.000  0.000  0.000  0.000
  0.000  0.000  1.000  0.000  0.000
  0.000  0.000  0.000  1.000  0.000
  0.000  0.000  0.000  0.000  1.000
   spin  2
    eigenvalues: 
  0.000  0.000  0.000  0.000  0.000
    eigenvectors:
  1.000  0.000  0.000  0.000  0.000
  0.000  1.000  0.000  0.000  0.000
  0.000  0.000  1.000  0.000  0.000
  0.000  0.000  0.000  1.000  0.000
  0.000  0.000  0.000  0.000  1.000
    occupations:
  0.000  0.000  0.000  0.000  0.000
  0.000  0.000  0.000  0.000  0.000
  0.000  0.000  0.000  0.000  0.000
  0.000  0.000  0.000  0.000  0.000
  0.000  0.000  0.000  0.000  0.000
atomic mag. moment =     5.000000
atom    4   Tr[ns(na)] (up, down, total) =   5.00000  0.00000  5.00000
   spin  1
    eigenvalues: 
  1.000  1.000  1.000  1.000  1.000
    eigenvectors:
  1.000  0.000  0.000  0.000  0.000
  0.000  1.000  0.000  0.000  0.000
  0.000  0.000  1.000  0.000  0.000
  0.000  0.000  0.000  1.000  0.000
  0.000  0.000  0.000  0.000  1.000
    occupations:
  1.000  0.000  0.000  0.000  0.000
  0.000  1.000  0.000  0.000  0.000
  0.000  0.000  1.000  0.000  0.000
  0.000  0.000  0.000  1.000  0.000
  0.000  0.000  0.000  0.000  1.000
   spin  2
    eigenvalues: 
  0.000  0.000  0.000  0.000  0.000
    eigenvectors:
  1.000  0.000  0.000  0.000  0.000
  0.000  1.000  0.000  0.000  0.000
  0.000  0.000  1.000  0.000  0.000
  0.000  0.000  0.000  1.000  0.000
  0.000  0.000  0.000  0.000  1.000
    occupations:
  0.000  0.000  0.000  0.000  0.000
  0.000  0.000  0.000  0.000  0.000
  0.000  0.000  0.000  0.000  0.000
  0.000  0.000  0.000  0.000  0.000
  0.000  0.000  0.000  0.000  0.000
atomic mag. moment =     5.000000
atom    5   Tr[ns(na)] (up, down, total) =   0.00000  5.00000  5.00000
   spin  1
    eigenvalues: 
  0.000  0.000  0.000  0.000  0.000
    eigenvectors:
  1.000  0.000  0.000  0.000  0.000
  0.000  1.000  0.000  0.000  0.000
  0.000  0.000  1.000  0.000  0.000
  0.000  0.000  0.000  1.000  0.000
  0.000  0.000  0.000  0.000  1.000
    occupations:
  0.000  0.000  0.000  0.000  0.000
  0.000  0.000  0.000  0.000  0.000
  0.000  0.000  0.000  0.000  0.000
  0.000  0.000  0.000  0.000  0.000
  0.000  0.000  0.000  0.000  0.000
   spin  2
    eigenvalues: 
  1.000  1.000  1.000  1.000  1.000
    eigenvectors:
  1.000  0.000  0.000  0.000  0.000
  0.000  1.000  0.000  0.000  0.000
  0.000  0.000  1.000  0.000  0.000
  0.000  0.000  0.000  1.000  0.000
  0.000  0.000  0.000  0.000  1.000
    occupations:
  1.000  0.000  0.000  0.000  0.000
  0.000  1.000  0.000  0.000  0.000
  0.000  0.000  1.000  0.000  0.000
  0.000  0.000  0.000  1.000  0.000
  0.000  0.000  0.000  0.000  1.000
atomic mag. moment =    -5.000000
atom    6   Tr[ns(na)] (up, down, total) =   0.00000  5.00000  5.00000
   spin  1
    eigenvalues: 
  0.000  0.000  0.000  0.000  0.000
    eigenvectors:
  1.000  0.000  0.000  0.000  0.000
  0.000  1.000  0.000  0.000  0.000
  0.000  0.000  1.000  0.000  0.000
  0.000  0.000  0.000  1.000  0.000
  0.000  0.000  0.000  0.000  1.000
    occupations:
  0.000  0.000  0.000  0.000  0.000
  0.000  0.000  0.000  0.000  0.000
  0.000  0.000  0.000  0.000  0.000
  0.000  0.000  0.000  0.000  0.000
  0.000  0.000  0.000  0.000  0.000
   spin  2
    eigenvalues: 
  1.000  1.000  1.000  1.000  1.000
    eigenvectors:
  1.000  0.000  0.000  0.000  0.000
  0.000  1.000  0.000  0.000  0.000
  0.000  0.000  1.000  0.000  0.000
  0.000  0.000  0.000  1.000  0.000
  0.000  0.000  0.000  0.000  1.000
    occupations:
  1.000  0.000  0.000  0.000  0.000
  0.000  1.000  0.000  0.000  0.000
  0.000  0.000  1.000  0.000  0.000
  0.000  0.000  0.000  1.000  0.000
  0.000  0.000  0.000  0.000  1.000
atomic mag. moment =    -5.000000
atom    7   Tr[ns(na)] (up, down, total) =   0.00000  5.00000  5.00000
   spin  1
    eigenvalues: 
  0.000  0.000  0.000  0.000  0.000
    eigenvectors:
  1.000  0.000  0.000  0.000  0.000
  0.000  1.000  0.000  0.000  0.000
  0.000  0.000  1.000  0.000  0.000
  0.000  0.000  0.000  1.000  0.000
  0.000  0.000  0.000  0.000  1.000
    occupations:
  0.000  0.000  0.000  0.000  0.000
  0.000  0.000  0.000  0.000  0.000
  0.000  0.000  0.000  0.000  0.000
  0.000  0.000  0.000  0.000  0.000
  0.000  0.000  0.000  0.000  0.000
   spin  2
    eigenvalues: 
  1.000  1.000  1.000  1.000  1.000
    eigenvectors:
  1.000  0.000  0.000  0.000  0.000
  0.000  1.000  0.000  0.000  0.000
  0.000  0.000  1.000  0.000  0.000
  0.000  0.000  0.000  1.000  0.000
  0.000  0.000  0.000  0.000  1.000
    occupations:
  1.000  0.000  0.000  0.000  0.000
  0.000  1.000  0.000  0.000  0.000
  0.000  0.000  1.000  0.000  0.000
  0.000  0.000  0.000  1.000  0.000
  0.000  0.000  0.000  0.000  1.000
atomic mag. moment =    -5.000000
atom    8   Tr[ns(na)] (up, down, total) =   0.00000  5.00000  5.00000
   spin  1
    eigenvalues: 
  0.000  0.000  0.000  0.000  0.000
    eigenvectors:
  1.000  0.000  0.000  0.000  0.000
  0.000  1.000  0.000  0.000  0.000
  0.000  0.000  1.000  0.000  0.000
  0.000  0.000  0.000  1.000  0.000
  0.000  0.000  0.000  0.000  1.000
    occupations:
  0.000  0.000  0.000  0.000  0.000
  0.000  0.000  0.000  0.000  0.000
  0.000  0.000  0.000  0.000  0.000
  0.000  0.000  0.000  0.000  0.000
  0.000  0.000  0.000  0.000  0.000
   spin  2
    eigenvalues: 
  1.000  1.000  1.000  1.000  1.000
    eigenvectors:
  1.000  0.000  0.000  0.000  0.000
  0.000  1.000  0.000  0.000  0.000
  0.000  0.000  1.000  0.000  0.000
  0.000  0.000  0.000  1.000  0.000
  0.000  0.000  0.000  0.000  1.000
    occupations:
  1.000  0.000  0.000  0.000  0.000
  0.000  1.000  0.000  0.000  0.000
  0.000  0.000  1.000  0.000  0.000
  0.000  0.000  0.000  1.000  0.000
  0.000  0.000  0.000  0.000  1.000
atomic mag. moment =    -5.000000
N of occupied +U levels =   40.000000
 --- exit write_ns ---
 Atomic wfc used for LDA+U Projector are NOT orthogonalized
     Starting wfcs are  224 randomized atomic wfcs
     Checking if some PAW data can be deallocated... 

     total cpu time spent up to now is       35.4 secs

     Self-consistent Calculation

     iteration #  1     ecut=    45.00 Ry     beta= 0.10
     Davidson diagonalization with overlap
     ethr =  1.00E-02,  avg # of iterations =  4.1
 --- enter write_ns ---
 LDA+U parameters:
U(  1) =   3.1200   J(  1) =   0.7000   B(  1) =   0.0803
U(  2) =   3.1200   J(  2) =   0.7000   B(  2) =   0.0803
atom    1   Tr[ns(na)] (up, down, total) =   5.01744  0.40836  5.42580
   spin  1
    eigenvalues: 
  1.003  1.003  1.003  1.004  1.004
    eigenvectors:
  0.000  0.000  0.000  1.000  0.000
  0.000  0.101  0.899  0.000  0.000
  0.000  0.899  0.101  0.000  0.000
  0.000  0.000  0.000  0.000  1.000
  1.000  0.000  0.000  0.000  0.000
    occupations:
  1.004 -0.000 -0.000  0.000  0.000
 -0.000  1.003 -0.000  0.000  0.000
 -0.000 -0.000  1.003  0.000  0.000
  0.000  0.000  0.000  1.004 -0.000
  0.000  0.000  0.000 -0.000  1.003
   spin  2
    eigenvalues: 
  0.053  0.073  0.081  0.081  0.121
    eigenvectors:
  0.000  1.000  0.000  0.000  0.000
  0.000  0.000  0.119  0.881  0.000
  0.000  0.000  0.881  0.119  0.000
  1.000  0.000  0.000  0.000  0.000
  0.000  0.000  0.000  0.000  1.000
    occupations:
  0.073 -0.000 -0.000  0.000  0.000
 -0.000  0.081 -0.000  0.000  0.000
 -0.000 -0.000  0.081  0.000  0.000
  0.000  0.000  0.000  0.053 -0.000
  0.000  0.000  0.000 -0.000  0.121
atomic mag. moment =     4.609075
atom    2   Tr[ns(na)] (up, down, total) =   5.01767  0.40247  5.42014
   spin  1
    eigenvalues: 
  1.003  1.003  1.003  1.004  1.004
    eigenvectors:
  0.000  0.000  0.000  1.000  0.000
  0.000  0.130  0.870  0.000  0.000
  0.000  0.870  0.130  0.000  0.000
  0.000  0.000  0.000  0.000  1.000
  1.000  0.000  0.000  0.000  0.000
    occupations:
  1.004 -0.000 -0.000  0.000  0.000
 -0.000  1.003 -0.000  0.000  0.000
 -0.000 -0.000  1.003  0.000  0.000
  0.000  0.000  0.000  1.004 -0.000
  0.000  0.000  0.000 -0.000  1.003
   spin  2
    eigenvalues: 
  0.053  0.074  0.081  0.081  0.114
    eigenvectors:
  0.000  1.000  0.000  0.000  0.000
  0.000  0.000  0.177  0.823  0.000
  0.000  0.000  0.823  0.177  0.000
  1.000  0.000  0.000  0.000  0.000
  0.000  0.000  0.000  0.000  1.000
    occupations:
  0.074 -0.000 -0.000  0.000  0.000
 -0.000  0.081 -0.000  0.000  0.000
 -0.000 -0.000  0.081  0.000  0.000
  0.000  0.000  0.000  0.053 -0.000
  0.000  0.000  0.000 -0.000  0.114
atomic mag. moment =     4.615208
atom    3   Tr[ns(na)] (up, down, total) =   5.01764  0.40382  5.42146
   spin  1
    eigenvalues: 
  1.003  1.003  1.003  1.004  1.004
    eigenvectors:
  0.000  0.000  0.000  1.000  0.000
  0.000  0.106  0.894  0.000  0.000
  0.000  0.894  0.106  0.000  0.000
  0.000  0.000  0.000  0.000  1.000
  1.000  0.000  0.000  0.000  0.000
    occupations:
  1.004 -0.000 -0.000  0.000  0.000
 -0.000  1.003 -0.000  0.000  0.000
 -0.000 -0.000  1.003  0.000  0.000
  0.000  0.000  0.000  1.004 -0.000
  0.000  0.000  0.000 -0.000  1.003
   spin  2
    eigenvalues: 
  0.053  0.075  0.081  0.081  0.114
    eigenvectors:
  0.000  1.000  0.000  0.000  0.000
  0.000  0.000  0.114  0.886  0.000
  0.000  0.000  0.886  0.114  0.000
  1.000  0.000  0.000  0.000  0.000
  0.000  0.000  0.000  0.000  1.000
    occupations:
  0.075 -0.000 -0.000  0.000  0.000
 -0.000  0.081 -0.000  0.000  0.000
 -0.000 -0.000  0.081  0.000  0.000
  0.000  0.000  0.000  0.053 -0.000
  0.000  0.000  0.000 -0.000  0.114
atomic mag. moment =     4.613820
atom    4   Tr[ns(na)] (up, down, total) =   5.01735  0.40953  5.42687
   spin  1
    eigenvalues: 
  1.003  1.003  1.003  1.004  1.004
    eigenvectors:
  0.000  0.000  0.000  1.000  0.000
  0.000  0.116  0.884  0.000  0.000
  0.000  0.884  0.116  0.000  0.000
  0.000  0.000  0.000  0.000  1.000
  1.000  0.000  0.000  0.000  0.000
    occupations:
  1.004 -0.000 -0.000  0.000  0.000
 -0.000  1.003 -0.000  0.000  0.000
 -0.000 -0.000  1.003  0.000  0.000
  0.000  0.000  0.000  1.004 -0.000
  0.000  0.000  0.000 -0.000  1.003
   spin  2
    eigenvalues: 
  0.053  0.073  0.081  0.081  0.122
    eigenvectors:
  0.000  1.000  0.000  0.000  0.000
  0.000  0.000  0.167  0.833  0.000
  0.000  0.000  0.833  0.167  0.000
  1.000  0.000  0.000  0.000  0.000
  0.000  0.000  0.000  0.000  1.000
    occupations:
  0.073 -0.000 -0.000  0.000  0.000
 -0.000  0.081 -0.000  0.000  0.000
 -0.000 -0.000  0.081  0.000  0.000
  0.000  0.000  0.000  0.053 -0.000
  0.000  0.000  0.000 -0.000  0.122
atomic mag. moment =     4.607821
atom    5   Tr[ns(na)] (up, down, total) =   0.41050  5.01750  5.42799
   spin  1
    eigenvalues: 
  0.053  0.074  0.081  0.081  0.122
    eigenvectors:
  0.000  1.000  0.000  0.000  0.000
  0.000  0.000  0.168  0.832  0.000
  0.000  0.000  0.832  0.168  0.000
  1.000  0.000  0.000  0.000  0.000
  0.000  0.000  0.000  0.000  1.000
    occupations:
  0.074 -0.000 -0.000  0.000  0.000
 -0.000  0.081 -0.000  0.000  0.000
 -0.000 -0.000  0.081  0.000  0.000
  0.000  0.000  0.000  0.053 -0.000
  0.000  0.000  0.000 -0.000  0.122
   spin  2
    eigenvalues: 
  1.003  1.003  1.003  1.004  1.004
    eigenvectors:
  0.000  0.000  0.000  1.000  0.000
  0.000  0.125  0.875  0.000  0.000
  0.000  0.875  0.125  0.000  0.000
  0.000  0.000  0.000  0.000  1.000
  1.000  0.000  0.000  0.000  0.000
    occupations:
  1.004 -0.000 -0.000  0.000  0.000
 -0.000  1.003 -0.000  0.000  0.000
 -0.000 -0.000  1.003  0.000  0.000
  0.000  0.000  0.000  1.004 -0.000
  0.000  0.000  0.000 -0.000  1.003
atomic mag. moment =    -4.607000
atom    6   Tr[ns(na)] (up, down, total) =   0.40312  5.01778  5.42090
   spin  1
    eigenvalues: 
  0.053  0.074  0.081  0.081  0.114
    eigenvectors:
  0.000  1.000  0.000  0.000  0.000
  0.000  0.000  0.200  0.800  0.000
  0.000  0.000  0.800  0.200  0.000
  1.000  0.000  0.000  0.000  0.000
  0.000  0.000  0.000  0.000  1.000
    occupations:
  0.074 -0.000 -0.000  0.000  0.000
 -0.000  0.081 -0.000  0.000  0.000
 -0.000 -0.000  0.081  0.000  0.000
  0.000  0.000  0.000  0.053 -0.000
  0.000  0.000  0.000 -0.000  0.114
   spin  2
    eigenvalues: 
  1.003  1.003  1.003  1.004  1.004
    eigenvectors:
  0.000  0.000  0.000  1.000  0.000
  0.000  0.095  0.905  0.000  0.000
  0.000  0.905  0.095  0.000  0.000
  0.000  0.000  0.000  0.000  1.000
  1.000  0.000  0.000  0.000  0.000
    occupations:
  1.004 -0.000 -0.000  0.000  0.000
 -0.000  1.003 -0.000  0.000  0.000
 -0.000 -0.000  1.003  0.000  0.000
  0.000  0.000  0.000  1.004 -0.000
  0.000  0.000  0.000 -0.000  1.003
atomic mag. moment =    -4.614652
atom    7   Tr[ns(na)] (up, down, total) =   0.40195  5.01769  5.41964
   spin  1
    eigenvalues: 
  0.053  0.074  0.081  0.081  0.114
    eigenvectors:
  0.000  1.000  0.000  0.000  0.000
  0.000  0.000  0.157  0.843  0.000
  0.000  0.000  0.843  0.157  0.000
  1.000  0.000  0.000  0.000  0.000
  0.000  0.000  0.000  0.000  1.000
    occupations:
  0.074 -0.000 -0.000  0.000  0.000
 -0.000  0.081 -0.000  0.000  0.000
 -0.000 -0.000  0.081  0.000  0.000
  0.000  0.000  0.000  0.053 -0.000
  0.000  0.000  0.000 -0.000  0.114
   spin  2
    eigenvalues: 
  1.003  1.003  1.003  1.004  1.004
    eigenvectors:
  0.000  0.000  0.000  1.000  0.000
  0.000  0.112  0.888  0.000  0.000
  0.000  0.888  0.112  0.000  0.000
  0.000  0.000  0.000  0.000  1.000
  1.000  0.000  0.000  0.000  0.000
    occupations:
  1.004 -0.000 -0.000  0.000  0.000
 -0.000  1.003 -0.000  0.000  0.000
 -0.000 -0.000  1.003  0.000  0.000
  0.000  0.000  0.000  1.004 -0.000
  0.000  0.000  0.000 -0.000  1.003
atomic mag. moment =    -4.615742
atom    8   Tr[ns(na)] (up, down, total) =   0.40912  5.01744  5.42656
   spin  1
    eigenvalues: 
  0.053  0.073  0.081  0.081  0.121
    eigenvectors:
  0.000  1.000  0.000  0.000  0.000
  0.000  0.000  0.171  0.829  0.000
  0.000  0.000  0.829  0.171  0.000
  1.000  0.000  0.000  0.000  0.000
  0.000  0.000  0.000  0.000  1.000
    occupations:
  0.073 -0.000 -0.000  0.000  0.000
 -0.000  0.081 -0.000  0.000  0.000
 -0.000 -0.000  0.081  0.000  0.000
  0.000  0.000  0.000  0.053 -0.000
  0.000  0.000  0.000 -0.000  0.121
   spin  2
    eigenvalues: 
  1.003  1.003  1.003  1.004  1.004
    eigenvectors:
  0.000  0.000  0.000  1.000  0.000
  0.000  0.121  0.879  0.000  0.000
  0.000  0.879  0.121  0.000  0.000
  0.000  0.000  0.000  0.000  1.000
  1.000  0.000  0.000  0.000  0.000
    occupations:
  1.004 -0.000 -0.000  0.000  0.000
 -0.000  1.003 -0.000  0.000  0.000
 -0.000 -0.000  1.003  0.000  0.000
  0.000  0.000  0.000  1.004 -0.000
  0.000  0.000  0.000 -0.000  1.003
atomic mag. moment =    -4.608322
N of occupied +U levels =   43.389376
 --- exit write_ns ---

     total cpu time spent up to now is      103.1 secs

     total energy              =  -14687.27165617 Ry
     Harris-Foulkes estimate   =  -14685.81089729 Ry
     estimated scf accuracy    <      11.53658133 Ry

     total magnetization       =     0.00 Bohr mag/cell
     absolute magnetization    =    41.52 Bohr mag/cell

     iteration #  2     ecut=    45.00 Ry     beta= 0.10
     Davidson diagonalization with overlap
     ethr =  3.90E-03,  avg # of iterations =  1.0

     total cpu time spent up to now is      136.3 secs

     total energy              =  -14692.42521491 Ry
     Harris-Foulkes estimate   =  -14687.34573658 Ry
     estimated scf accuracy    <       9.30495884 Ry

     total magnetization       =     0.00 Bohr mag/cell
     absolute magnetization    =    41.20 Bohr mag/cell

     iteration #  3     ecut=    45.00 Ry     beta= 0.10
     Davidson diagonalization with overlap
     ethr =  3.14E-03,  avg # of iterations =  2.8

     total cpu time spent up to now is      181.7 secs

     total energy              =  -14693.34070963 Ry
     Harris-Foulkes estimate   =  -14693.97816570 Ry
     estimated scf accuracy    <      44.84913394 Ry

     total magnetization       =    -0.01 Bohr mag/cell
     absolute magnetization    =    38.68 Bohr mag/cell

     iteration #  4     ecut=    45.00 Ry     beta= 0.10
     Davidson diagonalization with overlap
     ethr =  3.14E-03,  avg # of iterations =  2.5

     total cpu time spent up to now is      225.7 secs

     total energy              =  -14693.74600365 Ry
     Harris-Foulkes estimate   =  -14693.88779000 Ry
     estimated scf accuracy    <       4.26814706 Ry

     total magnetization       =     0.00 Bohr mag/cell
     absolute magnetization    =    38.70 Bohr mag/cell

     iteration #  5     ecut=    45.00 Ry     beta= 0.10
     Davidson diagonalization with overlap
     ethr =  1.44E-03,  avg # of iterations =  1.5

     total cpu time spent up to now is      261.2 secs

     total energy              =  -14693.33351795 Ry
     Harris-Foulkes estimate   =  -14693.77005845 Ry
     estimated scf accuracy    <       2.79820961 Ry

     total magnetization       =    -0.01 Bohr mag/cell
     absolute magnetization    =    38.71 Bohr mag/cell

     iteration #  6     ecut=    45.00 Ry     beta= 0.10
     Davidson diagonalization with overlap
     ethr =  9.45E-04,  avg # of iterations =  1.6

     total cpu time spent up to now is      297.1 secs

     total energy              =  -14693.35349849 Ry
     Harris-Foulkes estimate   =  -14693.40760051 Ry
     estimated scf accuracy    <       1.98154461 Ry

     total magnetization       =     0.17 Bohr mag/cell
     absolute magnetization    =    38.90 Bohr mag/cell

     iteration #  7     ecut=    45.00 Ry     beta= 0.10
     Davidson diagonalization with overlap
     ethr =  6.69E-04,  avg # of iterations =  4.8

     total cpu time spent up to now is      360.6 secs

     total energy              =  -14693.63642776 Ry
     Harris-Foulkes estimate   =  -14693.99265940 Ry
     estimated scf accuracy    <      40.47871245 Ry

     total magnetization       =    -0.87 Bohr mag/cell
     absolute magnetization    =    38.06 Bohr mag/cell

     iteration #  8     ecut=    45.00 Ry     beta= 0.10
     Davidson diagonalization with overlap
     ethr =  6.69E-04,  avg # of iterations =  5.8

     total cpu time spent up to now is      441.1 secs

     total energy              =  -14694.00134412 Ry
     Harris-Foulkes estimate   =  -14694.00031161 Ry
     estimated scf accuracy    <       0.27254187 Ry

     total magnetization       =    -0.06 Bohr mag/cell
     absolute magnetization    =    37.35 Bohr mag/cell

     iteration #  9     ecut=    45.00 Ry     beta= 0.10
     Davidson diagonalization with overlap
     c_bands:  1 eigenvalues not converged
     ethr =  9.21E-05,  avg # of iterations =  4.0

     total cpu time spent up to now is      497.6 secs

     total energy              =  -14694.00280658 Ry
     Harris-Foulkes estimate   =  -14694.00461208 Ry
     estimated scf accuracy    <       0.18103732 Ry

     total magnetization       =    -0.03 Bohr mag/cell
     absolute magnetization    =    37.27 Bohr mag/cell

     iteration # 10     ecut=    45.00 Ry     beta= 0.10
     Davidson diagonalization with overlap
     ethr =  6.12E-05,  avg # of iterations =  1.7

     total cpu time spent up to now is      533.9 secs

     total energy              =  -14693.97928291 Ry
     Harris-Foulkes estimate   =  -14694.00555488 Ry
     estimated scf accuracy    <       0.16066360 Ry

     total magnetization       =    -0.01 Bohr mag/cell
     absolute magnetization    =    37.20 Bohr mag/cell

     iteration # 11     ecut=    45.00 Ry     beta= 0.10
     Davidson diagonalization with overlap
     ethr =  5.43E-05,  avg # of iterations =  3.0

     total cpu time spent up to now is      578.8 secs

     total energy              =  -14693.99998619 Ry
     Harris-Foulkes estimate   =  -14694.00353884 Ry
     estimated scf accuracy    <       0.04627721 Ry

     total magnetization       =    -0.01 Bohr mag/cell
     absolute magnetization    =    37.16 Bohr mag/cell

     iteration # 12     ecut=    45.00 Ry     beta= 0.10
     Davidson diagonalization with overlap
     c_bands:  2 eigenvalues not converged
     ethr =  1.56E-05,  avg # of iterations =  3.5

     total cpu time spent up to now is      639.2 secs

     total energy              =  -14694.00490355 Ry
     Harris-Foulkes estimate   =  -14694.00337199 Ry
     estimated scf accuracy    <       0.01343610 Ry

     total magnetization       =    -0.01 Bohr mag/cell
     absolute magnetization    =    37.11 Bohr mag/cell

     iteration # 13     ecut=    45.00 Ry     beta= 0.10
     Davidson diagonalization with overlap
     ethr =  4.54E-06,  avg # of iterations =  4.6

     total cpu time spent up to now is      689.0 secs

     total energy              =  -14694.00681005 Ry
     Harris-Foulkes estimate   =  -14694.00546833 Ry
     estimated scf accuracy    <       0.03303396 Ry

     total magnetization       =     0.00 Bohr mag/cell
     absolute magnetization    =    37.10 Bohr mag/cell

     iteration # 14     ecut=    45.00 Ry     beta= 0.10
     Davidson diagonalization with overlap
     ethr =  4.54E-06,  avg # of iterations =  2.4

     total cpu time spent up to now is      728.3 secs

     total energy              =  -14694.00773011 Ry
     Harris-Foulkes estimate   =  -14694.00761897 Ry
     estimated scf accuracy    <       0.01205113 Ry

     total magnetization       =     0.02 Bohr mag/cell
     absolute magnetization    =    37.08 Bohr mag/cell

     iteration # 15     ecut=    45.00 Ry     beta= 0.10
     Davidson diagonalization with overlap
     ethr =  4.07E-06,  avg # of iterations =  1.1

     total cpu time spent up to now is      761.6 secs

     total energy              =  -14694.00820613 Ry
     Harris-Foulkes estimate   =  -14694.00791616 Ry
     estimated scf accuracy    <       0.00152564 Ry

     total magnetization       =     0.00 Bohr mag/cell
     absolute magnetization    =    37.08 Bohr mag/cell

     iteration # 16     ecut=    45.00 Ry     beta= 0.10
     Davidson diagonalization with overlap
     ethr =  5.15E-07,  avg # of iterations =  4.1

     total cpu time spent up to now is      812.9 secs

     total energy              =  -14694.00841429 Ry
     Harris-Foulkes estimate   =  -14694.00827058 Ry
     estimated scf accuracy    <       0.00127832 Ry

     total magnetization       =     0.00 Bohr mag/cell
     absolute magnetization    =    37.07 Bohr mag/cell

     iteration # 17     ecut=    45.00 Ry     beta= 0.10
     Davidson diagonalization with overlap
     ethr =  4.32E-07,  avg # of iterations =  1.2

     total cpu time spent up to now is      847.2 secs

     total energy              =  -14694.00854273 Ry
     Harris-Foulkes estimate   =  -14694.00842572 Ry
     estimated scf accuracy    <       0.00050785 Ry

     total magnetization       =     0.00 Bohr mag/cell
     absolute magnetization    =    37.07 Bohr mag/cell

     iteration # 18     ecut=    45.00 Ry     beta= 0.10
     Davidson diagonalization with overlap
     ethr =  1.72E-07,  avg # of iterations =  1.6

     total cpu time spent up to now is      883.5 secs

     total energy              =  -14694.00860876 Ry
     Harris-Foulkes estimate   =  -14694.00853667 Ry
     estimated scf accuracy    <       0.00025116 Ry

     total magnetization       =    -0.00 Bohr mag/cell
     absolute magnetization    =    37.06 Bohr mag/cell

     iteration # 19     ecut=    45.00 Ry     beta= 0.10
     Davidson diagonalization with overlap
     ethr =  8.49E-08,  avg # of iterations =  1.4

     total cpu time spent up to now is      936.6 secs

     total energy              =  -14694.00865364 Ry
     Harris-Foulkes estimate   =  -14694.00860524 Ry
     estimated scf accuracy    <       0.00026371 Ry

     total magnetization       =    -0.00 Bohr mag/cell
     absolute magnetization    =    37.06 Bohr mag/cell

     iteration # 20     ecut=    45.00 Ry     beta= 0.10
     Davidson diagonalization with overlap
     ethr =  8.49E-08,  avg # of iterations =  1.3

     total cpu time spent up to now is      971.6 secs

     total energy              =  -14694.00866807 Ry
     Harris-Foulkes estimate   =  -14694.00865924 Ry
     estimated scf accuracy    <       0.00034083 Ry

     total magnetization       =     0.00 Bohr mag/cell
     absolute magnetization    =    37.06 Bohr mag/cell

     iteration # 21     ecut=    45.00 Ry     beta= 0.10
     Davidson diagonalization with overlap
     ethr =  8.49E-08,  avg # of iterations =  1.0

     total cpu time spent up to now is     1005.0 secs

     total energy              =  -14694.00869251 Ry
     Harris-Foulkes estimate   =  -14694.00866990 Ry
     estimated scf accuracy    <       0.00010152 Ry

     total magnetization       =    -0.00 Bohr mag/cell
     absolute magnetization    =    37.06 Bohr mag/cell

     iteration # 22     ecut=    45.00 Ry     beta= 0.10
     Davidson diagonalization with overlap
     ethr =  3.43E-08,  avg # of iterations =  1.4

     total cpu time spent up to now is     1041.0 secs

     total energy              =  -14694.00868914 Ry
     Harris-Foulkes estimate   =  -14694.00868510 Ry
     estimated scf accuracy    <       0.00006391 Ry

     total magnetization       =    -0.00 Bohr mag/cell
     absolute magnetization    =    37.06 Bohr mag/cell

     iteration # 23     ecut=    45.00 Ry     beta= 0.10
     Davidson diagonalization with overlap
     ethr =  2.16E-08,  avg # of iterations =  1.0

     total cpu time spent up to now is     1074.2 secs

     total energy              =  -14694.00869083 Ry
     Harris-Foulkes estimate   =  -14694.00868823 Ry
     estimated scf accuracy    <       0.00002631 Ry

     total magnetization       =    -0.00 Bohr mag/cell
     absolute magnetization    =    37.06 Bohr mag/cell

     iteration # 24     ecut=    45.00 Ry     beta= 0.10
     Davidson diagonalization with overlap
     ethr =  8.89E-09,  avg # of iterations =  1.0

     total cpu time spent up to now is     1111.9 secs

     total energy              =  -14694.00869246 Ry
     Harris-Foulkes estimate   =  -14694.00868989 Ry
     estimated scf accuracy    <       0.00000733 Ry

     total magnetization       =     0.00 Bohr mag/cell
     absolute magnetization    =    37.06 Bohr mag/cell

     iteration # 25     ecut=    45.00 Ry     beta= 0.10
     Davidson diagonalization with overlap
     ethr =  2.48E-09,  avg # of iterations =  2.5

     total cpu time spent up to now is     1155.0 secs

     total energy              =  -14694.00869160 Ry
     Harris-Foulkes estimate   =  -14694.00869083 Ry
     estimated scf accuracy    <       0.00007403 Ry

     total magnetization       =    -0.00 Bohr mag/cell
     absolute magnetization    =    37.06 Bohr mag/cell

     iteration # 26     ecut=    45.00 Ry     beta= 0.10
     Davidson diagonalization with overlap
     ethr =  2.48E-09,  avg # of iterations =  1.0

     total cpu time spent up to now is     1188.1 secs

     total energy              =  -14694.00869206 Ry
     Harris-Foulkes estimate   =  -14694.00869109 Ry
     estimated scf accuracy    <       0.00000122 Ry

     total magnetization       =    -0.00 Bohr mag/cell
     absolute magnetization    =    37.06 Bohr mag/cell

     iteration # 27     ecut=    45.00 Ry     beta= 0.10
     Davidson diagonalization with overlap
     ethr =  4.11E-10,  avg # of iterations =  2.6

     total cpu time spent up to now is     1257.7 secs

     total energy              =  -14694.00869231 Ry
     Harris-Foulkes estimate   =  -14694.00869153 Ry
     estimated scf accuracy    <       0.00000224 Ry

     total magnetization       =     0.00 Bohr mag/cell
     absolute magnetization    =    37.06 Bohr mag/cell

     iteration # 28     ecut=    45.00 Ry     beta= 0.10
     Davidson diagonalization with overlap
     ethr =  4.11E-10,  avg # of iterations =  1.9

     total cpu time spent up to now is     1315.8 secs

     total energy              =  -14694.00869188 Ry
     Harris-Foulkes estimate   =  -14694.00869120 Ry
     estimated scf accuracy    <       0.00000197 Ry

     total magnetization       =    -0.00 Bohr mag/cell
     absolute magnetization    =    37.06 Bohr mag/cell

     iteration # 29     ecut=    45.00 Ry     beta= 0.10
     Davidson diagonalization with overlap
     ethr =  4.11E-10,  avg # of iterations =  1.6

     total cpu time spent up to now is     1352.0 secs

     total energy              =  -14694.00869205 Ry
     Harris-Foulkes estimate   =  -14694.00869151 Ry
     estimated scf accuracy    <       0.00000106 Ry

     total magnetization       =    -0.00 Bohr mag/cell
     absolute magnetization    =    37.06 Bohr mag/cell

     iteration # 30     ecut=    45.00 Ry     beta= 0.10
     Davidson diagonalization with overlap
     ethr =  3.57E-10,  avg # of iterations =  1.6
 
     Magnetic moment per site:
     atom:    1    charge:   13.5488    magn:    4.2273    constr:    0.0000
     atom:    2    charge:   13.5534    magn:    4.2013    constr:    0.0000
     atom:    3    charge:   13.5533    magn:    4.2010    constr:    0.0000
     atom:    4    charge:   13.5487    magn:    4.2278    constr:    0.0000
     atom:    5    charge:   13.5486    magn:   -4.2278    constr:    0.0000
     atom:    6    charge:   13.5535    magn:   -4.2010    constr:    0.0000
     atom:    7    charge:   13.5533    magn:   -4.2013    constr:    0.0000
     atom:    8    charge:   13.5489    magn:   -4.2274    constr:    0.0000
     atom:    9    charge:    9.1229    magn:    0.0344    constr:    0.0000
     atom:   10    charge:    9.1208    magn:    0.0291    constr:    0.0000
     atom:   11    charge:    9.1202    magn:    0.0300    constr:    0.0000
     atom:   12    charge:    9.1200    magn:    0.0299    constr:    0.0000
     atom:   13    charge:    9.1206    magn:    0.0291    constr:    0.0000
     atom:   14    charge:    9.1230    magn:    0.0345    constr:    0.0000
     atom:   15    charge:    9.1238    magn:    0.0423    constr:    0.0000
     atom:   16    charge:    9.1237    magn:   -0.0423    constr:    0.0000
     atom:   17    charge:    9.1229    magn:   -0.0345    constr:    0.0000
     atom:   18    charge:    9.1207    magn:   -0.0291    constr:    0.0000
     atom:   19    charge:    9.1201    magn:   -0.0299    constr:    0.0000
     atom:   20    charge:    9.1201    magn:   -0.0300    constr:    0.0000
     atom:   21    charge:    9.1206    magn:   -0.0291    constr:    0.0000
     atom:   22    charge:    9.1230    magn:   -0.0344    constr:    0.0000
     atom:   23    charge:    9.1237    magn:   -0.0421    constr:    0.0000
     atom:   24    charge:    9.1236    magn:    0.0421    constr:    0.0000

     total cpu time spent up to now is     1388.2 secs

     End of self-consistent calculation
 --- enter write_ns ---
 LDA+U parameters:
U(  1) =   3.1200   J(  1) =   0.7000   B(  1) =   0.0803
U(  2) =   3.1200   J(  2) =   0.7000   B(  2) =   0.0803
atom    1   Tr[ns(na)] (up, down, total) =   4.97052  0.74286  5.71338
   spin  1
    eigenvalues: 
  0.984  0.994  0.994  0.996  1.002
    eigenvectors:
  0.000  0.000  0.000  1.000  0.000
  0.000  0.115  0.885  0.000  0.000
  0.000  0.885  0.115  0.000  0.000
  0.000  0.000  0.000  0.000  1.000
  1.000  0.000  0.000  0.000  0.000
    occupations:
  0.996 -0.000 -0.000  0.000  0.000
 -0.000  0.994 -0.000  0.000  0.000
 -0.000 -0.000  0.994  0.000  0.000
  0.000  0.000  0.000  1.002 -0.000
  0.000  0.000  0.000 -0.000  0.984
   spin  2
    eigenvalues: 
  0.065  0.131  0.144  0.144  0.258
    eigenvectors:
  0.000  1.000  0.000  0.000  0.000
  0.000  0.000  0.162  0.838  0.000
  0.000  0.000  0.838  0.162  0.000
  1.000  0.000  0.000  0.000  0.000
  0.000  0.000  0.000  0.000  1.000
    occupations:
  0.131 -0.000 -0.000  0.000  0.000
 -0.000  0.144 -0.000  0.000  0.000
 -0.000 -0.000  0.144  0.000  0.000
  0.000  0.000  0.000  0.065 -0.000
  0.000  0.000  0.000 -0.000  0.258
atomic mag. moment =     4.227658
atom    2   Tr[ns(na)] (up, down, total) =   4.96951  0.76440  5.73391
   spin  1
    eigenvalues: 
  0.984  0.993  0.993  0.997  1.002
    eigenvectors:
  0.000  0.000  0.000  1.000  0.000
  0.000  0.109  0.891  0.000  0.000
  0.000  0.891  0.109  0.000  0.000
  0.000  0.000  0.000  0.000  1.000
  1.000  0.000  0.000  0.000  0.000
    occupations:
  0.997 -0.000 -0.000  0.000  0.000
 -0.000  0.993 -0.000  0.000  0.000
 -0.000 -0.000  0.993  0.000  0.000
  0.000  0.000  0.000  1.002 -0.000
  0.000  0.000  0.000 -0.000  0.984
   spin  2
    eigenvalues: 
  0.065  0.143  0.143  0.147  0.268
    eigenvectors:
  0.000  0.000  0.000  1.000  0.000
  0.000  0.145  0.855  0.000  0.000
  0.000  0.855  0.145  0.000  0.000
  1.000  0.000  0.000  0.000  0.000
  0.000  0.000  0.000  0.000  1.000
    occupations:
  0.147 -0.000 -0.000  0.000  0.000
 -0.000  0.143 -0.000  0.000  0.000
 -0.000 -0.000  0.143  0.000  0.000
  0.000  0.000  0.000  0.065 -0.000
  0.000  0.000  0.000 -0.000  0.268
atomic mag. moment =     4.205114
atom    3   Tr[ns(na)] (up, down, total) =   4.96939  0.76468  5.73407
   spin  1
    eigenvalues: 
  0.984  0.993  0.993  0.997  1.002
    eigenvectors:
  0.000  0.000  0.000  1.000  0.000
  0.000  0.137  0.863  0.000  0.000
  0.000  0.863  0.137  0.000  0.000
  0.000  0.000  0.000  0.000  1.000
  1.000  0.000  0.000  0.000  0.000
    occupations:
  0.997 -0.000 -0.000  0.000  0.000
 -0.000  0.993 -0.000  0.000  0.000
 -0.000 -0.000  0.993  0.000  0.000
  0.000  0.000  0.000  1.002 -0.000
  0.000  0.000  0.000 -0.000  0.984
   spin  2
    eigenvalues: 
  0.065  0.142  0.142  0.147  0.269
    eigenvectors:
  0.000  0.000  0.000  1.000  0.000
  0.000  0.132  0.868  0.000  0.000
  0.000  0.868  0.132  0.000  0.000
  1.000  0.000  0.000  0.000  0.000
  0.000  0.000  0.000  0.000  1.000
    occupations:
  0.147 -0.000 -0.000  0.000  0.000
 -0.000  0.142 -0.000  0.000  0.000
 -0.000 -0.000  0.142  0.000  0.000
  0.000  0.000  0.000  0.065 -0.000
  0.000  0.000  0.000 -0.000  0.269
atomic mag. moment =     4.204715
atom    4   Tr[ns(na)] (up, down, total) =   4.97064  0.74235  5.71299
   spin  1
    eigenvalues: 
  0.984  0.994  0.994  0.996  1.002
    eigenvectors:
  0.000  0.000  0.000  1.000  0.000
  0.000  0.148  0.852  0.000  0.000
  0.000  0.852  0.148  0.000  0.000
  0.000  0.000  0.000  0.000  1.000
  1.000  0.000  0.000  0.000  0.000
    occupations:
  0.996 -0.000 -0.000  0.000  0.000
 -0.000  0.994 -0.000  0.000  0.000
 -0.000 -0.000  0.994  0.000  0.000
  0.000  0.000  0.000  1.002 -0.000
  0.000  0.000  0.000 -0.000  0.984
   spin  2
    eigenvalues: 
  0.065  0.131  0.144  0.144  0.257
    eigenvectors:
  0.000  1.000  0.000  0.000  0.000
  0.000  0.000  0.107  0.893  0.000
  0.000  0.000  0.893  0.107  0.000
  1.000  0.000  0.000  0.000  0.000
  0.000  0.000  0.000  0.000  1.000
    occupations:
  0.131 -0.000 -0.000  0.000  0.000
 -0.000  0.144 -0.000  0.000  0.000
 -0.000 -0.000  0.144  0.000  0.000
  0.000  0.000  0.000  0.065 -0.000
  0.000  0.000  0.000 -0.000  0.257
atomic mag. moment =     4.228286
atom    5   Tr[ns(na)] (up, down, total) =   0.74233  4.97064  5.71297
   spin  1
    eigenvalues: 
  0.065  0.131  0.144  0.144  0.257
    eigenvectors:
  0.000  1.000  0.000  0.000  0.000
  0.000  0.000  0.208  0.792  0.000
  0.000  0.000  0.792  0.208  0.000
  1.000  0.000  0.000  0.000  0.000
  0.000  0.000  0.000  0.000  1.000
    occupations:
  0.131 -0.000 -0.000  0.000  0.000
 -0.000  0.144 -0.000  0.000  0.000
 -0.000 -0.000  0.144  0.000  0.000
  0.000  0.000  0.000  0.065 -0.000
  0.000  0.000  0.000 -0.000  0.257
   spin  2
    eigenvalues: 
  0.984  0.994  0.994  0.996  1.002
    eigenvectors:
  0.000  0.000  0.000  1.000  0.000
  0.000  0.139  0.861  0.000  0.000
  0.000  0.861  0.139  0.000  0.000
  0.000  0.000  0.000  0.000  1.000
  1.000  0.000  0.000  0.000  0.000
    occupations:
  0.996 -0.000 -0.000  0.000  0.000
 -0.000  0.994 -0.000  0.000  0.000
 -0.000 -0.000  0.994  0.000  0.000
  0.000  0.000  0.000  1.002 -0.000
  0.000  0.000  0.000 -0.000  0.984
atomic mag. moment =    -4.228306
atom    6   Tr[ns(na)] (up, down, total) =   0.76470  4.96939  5.73409
   spin  1
    eigenvalues: 
  0.065  0.142  0.142  0.147  0.269
    eigenvectors:
  0.000  0.000  0.000  1.000  0.000
  0.000  0.171  0.829  0.000  0.000
  0.000  0.829  0.171  0.000  0.000
  1.000  0.000  0.000  0.000  0.000
  0.000  0.000  0.000  0.000  1.000
    occupations:
  0.147 -0.000 -0.000  0.000  0.000
 -0.000  0.142 -0.000  0.000  0.000
 -0.000 -0.000  0.142  0.000  0.000
  0.000  0.000  0.000  0.065 -0.000
  0.000  0.000  0.000 -0.000  0.269
   spin  2
    eigenvalues: 
  0.984  0.993  0.993  0.997  1.002
    eigenvectors:
  0.000  0.000  0.000  1.000  0.000
  0.000  0.119  0.881  0.000  0.000
  0.000  0.881  0.119  0.000  0.000
  0.000  0.000  0.000  0.000  1.000
  1.000  0.000  0.000  0.000  0.000
    occupations:
  0.997 -0.000 -0.000  0.000  0.000
 -0.000  0.993 -0.000  0.000  0.000
 -0.000 -0.000  0.993  0.000  0.000
  0.000  0.000  0.000  1.002 -0.000
  0.000  0.000  0.000 -0.000  0.984
atomic mag. moment =    -4.204694
atom    7   Tr[ns(na)] (up, down, total) =   0.76437  4.96951  5.73388
   spin  1
    eigenvalues: 
  0.065  0.143  0.143  0.147  0.268
    eigenvectors:
  0.000  0.000  0.000  1.000  0.000
  0.000  0.154  0.846  0.000  0.000
  0.000  0.846  0.154  0.000  0.000
  1.000  0.000  0.000  0.000  0.000
  0.000  0.000  0.000  0.000  1.000
    occupations:
  0.147 -0.000 -0.000  0.000  0.000
 -0.000  0.143 -0.000  0.000  0.000
 -0.000 -0.000  0.143  0.000  0.000
  0.000  0.000  0.000  0.065 -0.000
  0.000  0.000  0.000 -0.000  0.268
   spin  2
    eigenvalues: 
  0.984  0.993  0.993  0.997  1.002
    eigenvectors:
  0.000  0.000  0.000  1.000  0.000
  0.000  0.149  0.851  0.000  0.000
  0.000  0.851  0.149  0.000  0.000
  0.000  0.000  0.000  0.000  1.000
  1.000  0.000  0.000  0.000  0.000
    occupations:
  0.997 -0.000 -0.000  0.000  0.000
 -0.000  0.993 -0.000  0.000  0.000
 -0.000 -0.000  0.993  0.000  0.000
  0.000  0.000  0.000  1.002 -0.000
  0.000  0.000  0.000 -0.000  0.984
atomic mag. moment =    -4.205144
atom    8   Tr[ns(na)] (up, down, total) =   0.74282  4.97051  5.71334
   spin  1
    eigenvalues: 
  0.065  0.131  0.144  0.144  0.258
    eigenvectors:
  0.000  1.000  0.000  0.000  0.000
  0.000  0.000  0.200  0.800  0.000
  0.000  0.000  0.800  0.200  0.000
  1.000  0.000  0.000  0.000  0.000
  0.000  0.000  0.000  0.000  1.000
    occupations:
  0.131 -0.000 -0.000  0.000  0.000
 -0.000  0.144 -0.000  0.000  0.000
 -0.000 -0.000  0.144  0.000  0.000
  0.000  0.000  0.000  0.065 -0.000
  0.000  0.000  0.000 -0.000  0.258
   spin  2
    eigenvalues: 
  0.984  0.994  0.994  0.996  1.002
    eigenvectors:
  0.000  0.000  0.000  1.000  0.000
  0.000  0.116  0.884  0.000  0.000
  0.000  0.884  0.116  0.000  0.000
  0.000  0.000  0.000  0.000  1.000
  1.000  0.000  0.000  0.000  0.000
    occupations:
  0.996 -0.000 -0.000  0.000  0.000
 -0.000  0.994 -0.000  0.000  0.000
 -0.000 -0.000  0.994  0.000  0.000
  0.000  0.000  0.000  1.002 -0.000
  0.000  0.000  0.000 -0.000  0.984
atomic mag. moment =    -4.227691
N of occupied +U levels =   45.788636
 --- exit write_ns ---

 ------ SPIN UP ------------


          k = 0.0000 0.0000 0.0000 ( 13925 PWs)   bands (ev):

   -66.7612 -66.7593 -66.6283 -66.6280 -62.1787 -62.1773 -62.0690 -62.0685
   -35.5340 -35.5334 -35.4768 -35.4768 -35.4743 -35.4743 -35.4045 -35.4039
   -35.3445 -35.3445 -35.3443 -35.3443 -31.0052 -31.0042 -30.9968 -30.9968
   -30.9952 -30.9952 -30.9014 -30.9009 -30.8864 -30.8864 -30.8857 -30.8857
     5.7550   5.9011   5.9994   6.3729   6.3978   7.0325   7.0626   7.6118
     8.3054   8.3570   8.3729   8.4473   8.5038   8.6526   8.7097   8.8396
     8.8577   8.9300   9.0255   9.0703   9.1713   9.2234   9.2255   9.2736
     9.3263   9.3637   9.4583   9.6229   9.6383   9.6439   9.8789   9.9445
     9.9779  10.0344  10.1120  10.1218  10.1218  10.1567  10.1567  10.2001
    10.2001  10.2422  10.3361  10.3364  10.3397  10.3397  10.3441  10.3441
    10.4380  10.4621  10.5351  10.5651  10.5651  10.5900  10.5900  10.5987
    10.5987  10.6008  10.6095  10.6095  10.6628  10.7033  10.7033  10.7627
    10.7627  10.8185  10.8339  10.9063  10.9720  10.9720  11.0434  11.0434
    11.0456  11.1511  11.1944  11.2236  11.2452  11.3381  11.4171  11.4171
    11.4890  11.4890  11.5611  11.6005  11.6136  11.8077  11.8077  11.8443
    11.8903  11.9133  11.9133  11.9579  11.9797  12.0487  12.0903  12.0903
    12.0966  12.1723  12.2043  12.2413  12.4168  12.4168  12.5428  12.7352
    12.7352  12.7576  12.8158  12.9457  13.0103  13.0940  13.1091  13.6583
    13.8900  14.6042  15.1349  16.2446  16.7726  16.7726  16.8400  16.8400
    16.9610  16.9658  17.0261  17.0261  17.0497  17.0994  17.1024  17.1092
    17.1688  17.2154  17.2604  17.2604  17.4628  17.5661  17.5695  17.6638
    18.4500  19.6545  19.8080  20.0762  20.0762  20.4614  20.4614  20.5709
    20.5709  21.5024

          k = 0.0000 0.0000-0.0484 ( 13878 PWs)   bands (ev):

   -66.7612 -66.7593 -66.6283 -66.6280 -62.1787 -62.1773 -62.0690 -62.0685
   -35.5340 -35.5334 -35.4768 -35.4768 -35.4743 -35.4743 -35.4045 -35.4039
   -35.3445 -35.3445 -35.3443 -35.3443 -31.0052 -31.0042 -30.9968 -30.9968
   -30.9952 -30.9952 -30.9014 -30.9009 -30.8864 -30.8864 -30.8857 -30.8857
     5.7633   5.8597   6.1267   6.1507   6.6709   6.7182   7.3801   7.4324
     8.3534   8.3570   8.4331   8.4473   8.4980   8.6417   8.6526   8.7456
     8.9288   8.9481   9.0513   9.0807   9.0838   9.1497   9.3093   9.3384
     9.3689   9.4045   9.4319   9.4950   9.6409   9.6832   9.8789   9.9445
     9.9876  10.0330  10.1120  10.1308  10.1308  10.1370  10.1370  10.2403
    10.2482  10.2482  10.2509  10.2509  10.3358  10.3361  10.4412  10.4610
    10.4610  10.4630  10.4630  10.4704  10.5167  10.5665  10.5665  10.5901
    10.5901  10.6349  10.6386  10.6883  10.6883  10.7225  10.7225  10.7735
    10.7757  10.7757  10.8648  10.8648  10.9074  10.9076  10.9922  11.1671
    11.1671  11.1948  11.2030  11.2152  11.2230  11.2837  11.2837  11.3374
    11.5621  11.6009  11.6141  11.6510  11.6510  11.6761  11.6761  11.8443
    11.8779  11.9796  11.9818  11.9818  11.9868  12.0488  12.0631  12.0651
    12.0651  12.2043  12.2107  12.2189  12.4178  12.4178  12.5430  12.7351
    12.7351  12.7575  12.8327  12.9243  12.9457  13.0940  13.3209  13.3815
    14.2493  14.2933  15.2565  16.1919  16.7727  16.7727  16.8399  16.8399
    16.9609  16.9658  17.0262  17.0262  17.0497  17.0994  17.1024  17.1092
    17.1688  17.2153  17.2602  17.2602  17.4706  17.5275  17.6156  17.6620
    18.5466  19.2231  20.1169  20.1169  20.2870  20.2871  20.5870  20.6729
    20.9713  20.9725

          k = 0.0000 0.1250 0.0000 ( 13879 PWs)   bands (ev):

   -66.7609 -66.7590 -66.6280 -66.6278 -62.1787 -62.1773 -62.0690 -62.0685
   -35.5339 -35.5332 -35.4786 -35.4767 -35.4761 -35.4742 -35.4044 -35.4037
   -35.3463 -35.3461 -35.3444 -35.3442 -31.0050 -31.0040 -30.9990 -30.9974
   -30.9967 -30.9951 -30.9011 -30.9007 -30.8885 -30.8879 -30.8862 -30.8856
     5.9984   6.1403   6.2383   6.5981   6.6223   7.2256   7.2541   7.7683
     8.3142   8.4613   8.4945   8.5670   8.6008   8.7228   8.7666   8.7709
     8.9165   8.9648   9.0488   9.0949   9.1871   9.2305   9.2342   9.3219
     9.3483   9.3850   9.4360   9.4489   9.6241   9.6903   9.7899   9.8153
     9.8595   9.8922   9.9121   9.9319  10.0129  10.0223  10.0971  10.1178
    10.1179  10.1291  10.2040  10.2137  10.2886  10.2899  10.3205  10.3615
    10.4291  10.4353  10.4873  10.4962  10.5016  10.5632  10.5855  10.6211
    10.6695  10.6800  10.7023  10.7659  10.8155  10.8227  10.8603  10.8678
    10.8861  10.9135  11.0246  11.0618  11.0750  11.1172  11.1577  11.1677
    11.1804  11.1808  11.2099  11.2926  11.3663  11.3670  11.3700  11.4497
    11.4655  11.5676  11.5807  11.6589  11.7826  11.7902  11.8008  11.8355
    11.8593  11.8989  11.9402  11.9748  12.0466  12.0508  12.0816  12.1190
    12.1758  12.1847  12.2236  12.2257  12.2813  12.4897  12.5383  12.5669
    12.7572  12.7712  12.7933  12.9811  12.9831  12.9841  13.0758  13.7291
    13.9393  14.7533  15.2476  16.3489  16.4713  16.6839  16.8234  16.8885
    16.9085  16.9410  16.9565  16.9674  17.0206  17.0351  17.0978  17.1170
    17.1753  17.1816  17.2639  17.3545  17.4128  17.5595  17.6738  17.9934
    18.6220  18.6364  19.0245  19.2018  19.9436  19.9773  19.9912  20.1044
    20.6774  21.0151

          k = 0.0000 0.1250-0.0484 ( 13868 PWs)   bands (ev):

   -66.7609 -66.7590 -66.6280 -66.6278 -62.1787 -62.1773 -62.0690 -62.0685
   -35.5339 -35.5332 -35.4786 -35.4767 -35.4761 -35.4742 -35.4044 -35.4037
   -35.3463 -35.3461 -35.3444 -35.3442 -31.0050 -31.0040 -30.9990 -30.9974
   -30.9967 -30.9951 -30.9011 -30.9007 -30.8885 -30.8879 -30.8862 -30.8856
     6.0064   6.1008   6.3626   6.3824   6.8868   6.9248   7.5706   7.5791
     8.3970   8.4746   8.4971   8.5578   8.5892   8.6240   8.7461   8.8302
     8.9062   8.9905   9.0395   9.1427   9.1872   9.2015   9.2680   9.2809
     9.3214   9.3459   9.4560   9.5481   9.5553   9.7168   9.7901   9.8150
     9.8182   9.8923   9.9121   9.9748  10.0153  10.0214  10.0778  10.0938
    10.1290  10.1407  10.1798  10.2714  10.2850  10.2931  10.3142  10.3274
    10.4004  10.4436  10.4787  10.4964  10.5621  10.5936  10.5994  10.6205
    10.6512  10.6650  10.6749  10.7075  10.8190  10.8227  10.8570  10.8949
    10.9134  10.9441  11.0194  11.0835  11.0926  11.0942  11.1274  11.1405
    11.1628  11.1921  11.2334  11.2811  11.3011  11.3594  11.3907  11.5304
    11.5345  11.5577  11.5836  11.6442  11.6856  11.6869  11.8537  11.8564
    11.9175  11.9208  11.9763  12.0061  12.0175  12.0319  12.0537  12.0929
    12.1686  12.1758  12.2316  12.2455  12.2864  12.4898  12.5367  12.5660
    12.7712  12.7869  12.7935  12.8641  12.9811  12.9831  13.3230  13.4084
    14.3361  14.4177  15.3932  16.2371  16.5993  16.6124  16.8346  16.8885
    16.9085  16.9410  16.9554  16.9677  17.0205  17.0351  17.0985  17.1163
    17.1748  17.1815  17.2639  17.3545  17.4226  17.5194  17.8122  17.8173
    18.6596  18.8604  18.9209  19.4021  19.5027  19.5077  20.4914  20.5017
    20.6935  20.9204

          k = 0.0000 0.2500 0.0000 ( 13848 PWs)   bands (ev):

   -66.7608 -66.7589 -66.6278 -66.6277 -62.1783 -62.1769 -62.0686 -62.0681
   -35.5335 -35.5328 -35.4828 -35.4803 -35.4765 -35.4740 -35.4040 -35.4033
   -35.3505 -35.3503 -35.3441 -35.3440 -31.0044 -31.0043 -31.0034 -31.0027
   -30.9963 -30.9948 -30.9005 -30.9001 -30.8939 -30.8932 -30.8859 -30.8853
     6.6867   6.8139   6.9101   7.2174   7.2363   7.7152   7.7201   8.1164
     8.2705   8.5215   8.5417   8.7047   8.7562   8.7563   8.8306   8.8491
     8.8854   8.9491   8.9507   8.9807   9.1263   9.1404   9.2881   9.3751
     9.4451   9.4607   9.4810   9.5532   9.6034   9.6169   9.6213   9.6674
     9.6813   9.7072   9.7577   9.7664   9.8481   9.8734   9.9589   9.9600
     9.9973  10.0287  10.1254  10.1325  10.1605  10.2530  10.2544  10.3215
    10.4169  10.5362  10.5458  10.5685  10.6234  10.6796  10.7019  10.7410
    10.8414  10.8711  10.8938  10.9582  11.0085  11.0146  11.0368  11.0945
    11.1092  11.1143  11.1658  11.2070  11.2812  11.2907  11.3242  11.3246
    11.3458  11.4096  11.4228  11.5074  11.5227  11.5411  11.5912  11.6292
    11.6329  11.6827  11.6905  11.7294  11.7837  11.7965  11.8021  11.8519
    11.8750  11.9197  11.9481  12.0125  12.0248  12.0410  12.0653  12.1183
    12.1570  12.2136  12.2236  12.2830  12.3645  12.4514  12.5686  12.5887
    12.6559  12.8392  12.8551  12.9223  12.9820  13.0144  13.0407  13.9106
    14.0473  15.0315  15.3739  15.9827  16.0361  16.0400  16.1188  16.1694
    16.5896  16.6716  16.7135  16.7950  16.9301  17.0577  17.0593  17.0677
    17.0930  17.1182  17.2242  17.3020  17.3279  17.3855  17.4270  17.4673
    17.4860  17.7947  18.0303  18.0629  18.4946  18.5477  18.6795  19.0056
    19.5526  20.5123

          k = 0.0000 0.2500-0.0484 ( 13842 PWs)   bands (ev):

   -66.7608 -66.7589 -66.6278 -66.6277 -62.1783 -62.1769 -62.0686 -62.0681
   -35.5335 -35.5328 -35.4828 -35.4803 -35.4765 -35.4740 -35.4040 -35.4033
   -35.3505 -35.3503 -35.3441 -35.3440 -31.0044 -31.0043 -31.0034 -31.0027
   -30.9963 -30.9948 -30.9005 -30.9001 -30.8939 -30.8932 -30.8859 -30.8853
     6.6935   6.7812   7.0216   7.0278   7.4616   7.4714   7.9156   8.0046
     8.3562   8.4203   8.6462   8.6594   8.7058   8.8118   8.8293   8.8674
     8.8734   8.9077   8.9629   8.9888   9.1149   9.1877   9.2816   9.3032
     9.4451   9.4809   9.5533   9.5808   9.6026   9.6034   9.6176   9.6463
     9.6727   9.6848   9.7068   9.7577   9.8502   9.9440   9.9743   9.9976
     9.9999  10.0247  10.0621  10.1256  10.1291  10.2360  10.2959  10.3702
    10.3780  10.5332  10.5498  10.5817  10.6001  10.6785  10.6932  10.8132
    10.8195  10.8619  10.8753  10.9139  11.0167  11.0281  11.0416  11.0918
    11.1124  11.1535  11.1571  11.2266  11.2454  11.2668  11.3320  11.3532
    11.3578  11.3857  11.4790  11.4829  11.4895  11.5445  11.5525  11.5838
    11.6518  11.7042  11.7242  11.7838  11.7844  11.7975  11.8175  11.8437
    11.8514  11.9158  11.9305  11.9532  12.0278  12.0311  12.1183  12.1383
    12.1599  12.2038  12.2116  12.2832  12.3872  12.4242  12.5953  12.6350
    12.6559  12.6952  12.8385  12.8551  13.0145  13.0407  13.3505  13.4645
    14.5355  14.6429  15.6151  15.8325  16.0427  16.0515  16.1167  16.2011
    16.5849  16.6728  16.7135  16.7950  16.9301  17.0539  17.0662  17.0677
    17.0922  17.1161  17.2414  17.3020  17.3088  17.3279  17.4270  17.4673
    17.6367  17.7472  17.9798  18.1517  18.3471  18.3784  18.9430  19.0446
    19.6470  19.9998

          k = 0.0000 0.3750 0.0000 ( 13856 PWs)   bands (ev):

   -66.7614 -66.7595 -66.6284 -66.6282 -62.1773 -62.1759 -62.0676 -62.0671
   -35.5331 -35.5324 -35.4869 -35.4844 -35.4762 -35.4738 -35.4035 -35.4029
   -35.3545 -35.3544 -35.3439 -35.3437 -31.0097 -31.0081 -31.0039 -31.0028
   -30.9960 -30.9944 -30.9000 -30.8995 -30.8993 -30.8987 -30.8856 -30.8849
     7.6464   7.7406   7.8210   7.9910   8.0089   8.1318   8.1446   8.1951
     8.2122   8.3616   8.3647   8.4954   8.6187   8.7743   8.8196   8.9271
     8.9446   8.9677   9.0822   9.1890   9.1976   9.2008   9.2039   9.2786
     9.2909   9.3031   9.3631   9.4071   9.4736   9.5183   9.5539   9.6464
     9.6859   9.6878   9.7774   9.7937   9.8092   9.8982   9.9024   9.9563
    10.0317  10.0317  10.0633  10.1050  10.1909  10.1922  10.2410  10.3230
    10.3528  10.3541  10.4821  10.5161  10.6837  10.7649  10.7986  10.9212
    11.0468  11.0925  11.1372  11.2435  11.2481  11.2734  11.3428  11.3687
    11.3747  11.4103  11.4331  11.4716  11.5075  11.5451  11.5580  11.5671
    11.5987  11.6095  11.6351  11.6831  11.7018  11.7216  11.7635  11.7714
    11.8031  11.8223  11.8427  11.8441  11.9306  12.0005  12.0252  12.0584
    12.0730  12.0888  12.1301  12.1320  12.1478  12.1760  12.2960  12.3079
    12.3437  12.3603  12.4113  12.4307  12.5299  12.5401  12.5488  12.6965
    12.7755  12.9021  12.9489  12.9695  12.9829  13.0711  13.0876  13.8914
    13.9209  13.9755  14.2556  14.2941  14.6944  14.7566  15.0777  15.0895
    15.4231  15.4666  15.9114  16.0039  16.6865  16.7571  16.7697  16.7836
    16.8784  16.9104  16.9938  17.0130  17.0306  17.1229  17.1991  17.4170
    17.5051  17.5072  17.6079  17.6279  17.9405  17.9713  18.1121  18.3062
    19.4847  19.6239

          k = 0.0000 0.3750-0.0484 ( 13872 PWs)   bands (ev):

   -66.7614 -66.7595 -66.6284 -66.6282 -62.1773 -62.1759 -62.0676 -62.0671
   -35.5331 -35.5324 -35.4869 -35.4844 -35.4762 -35.4738 -35.4035 -35.4029
   -35.3545 -35.3544 -35.3439 -35.3437 -31.0097 -31.0081 -31.0039 -31.0028
   -30.9960 -30.9944 -30.9000 -30.8995 -30.8993 -30.8987 -30.8856 -30.8849
     7.6508   7.7212   7.8815   7.8996   8.0846   8.0983   8.1604   8.1607
     8.2728   8.2800   8.4258   8.4780   8.6131   8.7823   8.8509   8.8582
     8.9535   9.0407   9.0444   9.1307   9.1976   9.2008   9.2639   9.2676
     9.2786   9.3031   9.4058   9.4497   9.4680   9.4737   9.5183   9.5874
     9.6853   9.7692   9.7834   9.7875   9.8101   9.8988   9.9546   9.9720
    10.0076  10.0307  10.0490  10.0689  10.1002  10.1925  10.3188  10.3231
    10.3372  10.4253  10.4979  10.5147  10.5833  10.7672  10.7981  11.0230
    11.0433  11.0585  11.1004  11.1858  11.2666  11.3286  11.3847  11.4062
    11.4133  11.4196  11.4304  11.4560  11.4878  11.5081  11.5089  11.5180
    11.6008  11.6223  11.6556  11.6730  11.7001  11.7177  11.7464  11.7656
    11.7768  11.7780  11.8740  11.8977  11.9331  11.9654  12.0020  12.0444
    12.0503  12.1178  12.1313  12.1383  12.2335  12.2406  12.2953  12.3428
    12.3487  12.3977  12.4513  12.4838  12.4859  12.5325  12.5348  12.5473
    12.6989  12.7754  12.9018  12.9489  13.0711  13.0876  13.4542  13.4877
    14.0237  14.0519  14.3283  14.3320  14.6062  14.6613  15.0466  15.1671
    15.4851  15.5031  15.8699  15.9652  16.6865  16.7571  16.7655  16.7997
    16.8784  16.9084  16.9938  17.0014  17.0437  17.1202  17.1965  17.4259
    17.5051  17.5072  17.6079  17.6279  17.9386  17.9745  18.1084  18.3103
    19.4821  19.6470

          k = 0.0000-0.5000 0.0000 ( 13918 PWs)   bands (ev):

   -66.7618 -66.7599 -66.6288 -66.6287 -62.1767 -62.1754 -62.0670 -62.0665
   -35.5329 -35.5322 -35.4885 -35.4860 -35.4761 -35.4737 -35.4034 -35.4027
   -35.3562 -35.3560 -35.3438 -35.3436 -31.0119 -31.0104 -31.0036 -31.0026
   -30.9958 -30.9943 -30.9016 -30.9009 -30.8997 -30.8993 -30.8854 -30.8848
     8.0928   8.0931   8.1498   8.1503   8.2790   8.2794   8.4135   8.4137
     8.4565   8.4566   8.5076   8.5077   8.6428   8.6433   8.8441   8.8441
     8.8690   8.8690   9.0822   9.0823   9.0985   9.0991   9.1956   9.1963
     9.3305   9.3307   9.4013   9.4017   9.6063   9.6064   9.6666   9.6670
     9.6968   9.6970   9.7195   9.7197   9.7930   9.7933   9.8689   9.8691
    10.0170  10.0172  10.0604  10.0604  10.0978  10.0982  10.2859  10.2861
    10.4091  10.4100  10.4228  10.4230  10.6690  10.6704  10.8106  10.8107
    11.2937  11.2938  11.3414  11.3416  11.4299  11.4305  11.4706  11.4707
    11.5285  11.5293  11.5602  11.5602  11.5655  11.5656  11.6073  11.6074
    11.6077  11.6080  11.6799  11.6799  11.7224  11.7227  11.8115  11.8116
    11.8940  11.8944  12.0195  12.0196  12.1092  12.1093  12.3980  12.3981
    12.4275  12.4276  12.4537  12.4538  12.4745  12.4747  12.5079  12.5081
    12.5659  12.5663  12.5810  12.5814  12.7753  12.7763  12.7989  12.7990
    12.9602  12.9602  12.9613  12.9617  13.1023  13.1029  13.1870  13.1871
    13.3340  13.3342  13.7409  13.7412  13.8426  13.8428  14.4059  14.4063
    14.4332  14.4337  14.8648  14.8652  16.5382  16.5389  16.7812  16.7830
    16.7943  16.7945  16.8413  16.8441  16.9656  16.9661  17.0774  17.0777
    17.5799  17.5820  17.6908  17.6911  17.9783  17.9805  18.0876  18.0877
    19.5317  19.5317

          k = 0.0000-0.5000-0.0484 ( 13892 PWs)   bands (ev):

   -66.7618 -66.7599 -66.6288 -66.6287 -62.1767 -62.1754 -62.0670 -62.0665
   -35.5329 -35.5322 -35.4885 -35.4860 -35.4761 -35.4737 -35.4034 -35.4027
   -35.3562 -35.3560 -35.3438 -35.3436 -31.0119 -31.0104 -31.0036 -31.0026
   -30.9958 -30.9943 -30.9016 -30.9009 -30.8997 -30.8993 -30.8854 -30.8848
     8.0928   8.0931   8.1497   8.1501   8.2797   8.2802   8.4073   8.4075
     8.4690   8.4690   8.4996   8.4997   8.6467   8.6472   8.8130   8.8131
     8.9111   8.9112   9.0581   9.0582   9.0985   9.0991   9.1956   9.1963
     9.3548   9.3550   9.4013   9.4018   9.5786   9.5786   9.6666   9.6670
     9.7037   9.7038   9.7196   9.7198   9.7919   9.7921   9.8689   9.8691
    10.0170  10.0172  10.0604  10.0604  10.1584  10.1588  10.2171  10.2173
    10.4091  10.4100  10.4347  10.4349  10.6690  10.6704  10.8146  10.8147
    11.3059  11.3060  11.3414  11.3416  11.4236  11.4242  11.4758  11.4759
    11.5291  11.5299  11.5622  11.5624  11.5698  11.5700  11.5915  11.5917
    11.6077  11.6080  11.6612  11.6613  11.7300  11.7302  11.8088  11.8090
    11.8941  11.8944  12.0353  12.0355  12.1092  12.1092  12.3983  12.3984
    12.4210  12.4211  12.4534  12.4535  12.4820  12.4821  12.4999  12.5001
    12.5660  12.5664  12.5854  12.5858  12.7753  12.7763  12.7938  12.7939
    12.9613  12.9617  12.9787  12.9787  13.1023  13.1029  13.1370  13.1371
    13.4199  13.4201  13.5985  13.5986  14.0397  14.0401  14.1564  14.1566
    14.6360  14.6367  14.8044  14.8048  16.5423  16.5430  16.7812  16.7830
    16.7918  16.7920  16.8413  16.8441  16.9654  16.9660  17.0777  17.0779
    17.5799  17.5820  17.6908  17.6911  17.9783  17.9805  18.0876  18.0877
    19.5416  19.5417

          k = 0.1250 0.1250 0.0000 ( 13839 PWs)   bands (ev):

   -66.7606 -66.7587 -66.6277 -66.6275 -62.1788 -62.1774 -62.0691 -62.0685
   -35.5337 -35.5331 -35.4785 -35.4785 -35.4760 -35.4760 -35.4042 -35.4035
   -35.3462 -35.3461 -35.3460 -35.3460 -31.0048 -31.0037 -30.9989 -30.9987
   -30.9974 -30.9972 -30.9009 -30.9004 -30.8885 -30.8883 -30.8879 -30.8877
     6.2295   6.3699   6.4700   6.8191   6.8432   7.4235   7.4492   7.9391
     8.3696   8.5467   8.6355   8.6764   8.7054   8.7560   8.7847   8.8746
     8.9799   9.0571   9.0790   9.0967   9.2758   9.3401   9.3412   9.3527
     9.3906   9.3918   9.4048   9.4908   9.5851   9.6187   9.6505   9.7552
     9.7828   9.8368   9.8414   9.8650   9.8815   9.9024   9.9112   9.9198
    10.0636  10.0668  10.1138  10.1969  10.2256  10.3118  10.3260  10.3445
    10.3615  10.3703  10.3706  10.4067  10.4723  10.4863  10.5574  10.6019
    10.6087  10.6260  10.7143  10.7483  10.7515  10.8388  10.8767  10.9168
    10.9507  11.0214  11.0824  11.0862  11.0970  11.1321  11.1575  11.1581
    11.2030  11.2733  11.2743  11.3406  11.4038  11.4885  11.5255  11.5524
    11.6070  11.6123  11.6383  11.6865  11.7112  11.8756  11.8896  11.9199
    11.9460  11.9650  12.0230  12.0242  12.0469  12.0508  12.1461  12.1481
    12.1854  12.1922  12.2424  12.2824  12.4350  12.4612  12.5194  12.6719
    12.6734  12.7222  12.7721  12.8584  12.8603  12.9977  13.0871  13.8308
    14.0302  14.8888  15.3881  16.4654  16.6408  16.6874  16.7079  16.7409
    16.8347  16.8956  16.9069  16.9238  16.9881  17.0000  17.1449  17.1585
    17.1601  17.1663  17.2643  17.2799  17.4072  17.6014  17.7588  18.3614
    18.8206  19.0973  19.2353  19.3883  19.6290  19.7120  19.8211  20.0795
    20.1381  20.3035

          k = 0.1250 0.1250-0.0484 ( 13838 PWs)   bands (ev):

   -66.7606 -66.7587 -66.6277 -66.6275 -62.1788 -62.1774 -62.0691 -62.0685
   -35.5337 -35.5331 -35.4785 -35.4785 -35.4760 -35.4760 -35.4042 -35.4035
   -35.3462 -35.3461 -35.3460 -35.3460 -31.0048 -31.0037 -30.9989 -30.9987
   -30.9974 -30.9972 -30.9009 -30.9004 -30.8885 -30.8883 -30.8879 -30.8877
     6.2369   6.3326   6.5914   6.6082   7.1010   7.1328   7.7429   7.7645
     8.4453   8.5614   8.6284   8.6355   8.6749   8.7053   8.8746   8.8893
     8.9309   9.0318   9.0964   9.1994   9.2401   9.2688   9.2831   9.3319
     9.4369   9.4481   9.4533   9.4681   9.5900   9.6076   9.6296   9.7544
     9.7904   9.8369   9.8561   9.8589   9.8679   9.8815   9.9199   9.9389
    10.0639  10.0663  10.1133  10.1928  10.2259  10.3147  10.3274  10.3487
    10.3492  10.3617  10.3810  10.4058  10.4836  10.4879  10.5412  10.6039
    10.6112  10.6256  10.7312  10.7515  10.7662  10.8396  10.8471  10.8745
    10.9791  11.0212  11.0640  11.0946  11.1166  11.1211  11.1546  11.1612
    11.2716  11.2892  11.2904  11.2923  11.3661  11.4582  11.5012  11.5212
    11.6217  11.6315  11.6671  11.7606  11.7864  11.8179  11.8314  11.8757
    11.9032  11.9698  12.0161  12.0308  12.0823  12.1170  12.1415  12.1481
    12.1795  12.2004  12.2401  12.2519  12.4354  12.4629  12.5221  12.6701
    12.6795  12.7555  12.7720  12.8377  12.8626  12.8669  13.3714  13.4722
    14.4588  14.5419  15.5363  16.3452  16.6875  16.7078  16.7407  16.7553
    16.8390  16.8766  16.8959  16.9079  16.9879  17.0001  17.1296  17.1585
    17.1664  17.1820  17.2642  17.2748  17.4261  17.5325  17.9821  18.0365
    19.0984  19.2189  19.2564  19.3849  19.5193  19.6179  19.7934  19.8858
    20.1255  20.1470

          k = 0.1250 0.2500 0.0000 ( 13846 PWs)   bands (ev):

   -66.7604 -66.7585 -66.6274 -66.6273 -62.1785 -62.1771 -62.0688 -62.0682
   -35.5334 -35.5327 -35.4827 -35.4802 -35.4782 -35.4757 -35.4038 -35.4032
   -35.3503 -35.3502 -35.3459 -35.3457 -31.0042 -31.0041 -31.0032 -31.0025
   -30.9984 -30.9969 -30.9003 -30.8999 -30.8937 -30.8930 -30.8880 -30.8874
     6.8730   7.0073   7.1146   7.4202   7.4424   7.9204   7.9268   8.3046
     8.4099   8.6279   8.6542   8.7481   8.8615   8.8663   8.9067   9.0063
     9.0073   9.0886   9.0999   9.1198   9.1763   9.2690   9.3838   9.4416
     9.4544   9.4828   9.4981   9.5038   9.5221   9.5858   9.6076   9.6290
     9.6433   9.6526   9.7492   9.7868   9.8037   9.9047   9.9082   9.9638
     9.9647  10.0234  10.0361  10.0795  10.1179  10.1574  10.2136  10.3110
    10.3120  10.3466  10.3810  10.4291  10.4451  10.4591  10.5553  10.6080
    10.6820  10.6904  10.7505  10.7860  10.8648  10.8787  10.9371  10.9900
    11.0009  11.0596  11.0693  11.1084  11.2007  11.2037  11.2404  11.4053
    11.4219  11.4504  11.4660  11.4933  11.5103  11.5594  11.6168  11.6763
    11.7165  11.7249  11.7535  11.7586  11.8103  11.8717  11.8853  11.9524
    11.9904  12.0285  12.0566  12.0611  12.0889  12.1548  12.1833  12.2120
    12.2930  12.3074  12.3213  12.4753  12.5088  12.5841  12.6186  12.6303
    12.7248  12.7387  12.7430  12.8264  12.8755  13.1047  13.1781  14.0993
    14.2641  15.1374  15.5818  16.1445  16.2061  16.2146  16.3828  16.4050
    16.7432  16.7542  16.8904  16.8928  16.9538  17.0419  17.0464  17.1574
    17.1636  17.1805  17.2505  17.2680  17.3358  17.3705  17.4422  17.6417
    17.7313  18.0261  18.3181  18.3350  18.8058  18.9060  19.0353  19.2354
    19.5992  20.4176

          k = 0.1250 0.2500-0.0484 ( 13868 PWs)   bands (ev):

   -66.7604 -66.7585 -66.6274 -66.6273 -62.1785 -62.1771 -62.0688 -62.0682
   -35.5334 -35.5327 -35.4827 -35.4802 -35.4782 -35.4757 -35.4038 -35.4032
   -35.3503 -35.3502 -35.3459 -35.3457 -31.0042 -31.0041 -31.0032 -31.0025
   -30.9984 -30.9969 -30.9003 -30.8999 -30.8937 -30.8930 -30.8880 -30.8874
     6.8785   6.9782   7.2244   7.2301   7.6669   7.6796   8.1170   8.1956
     8.4882   8.5423   8.7490   8.7532   8.7621   8.8941   8.9515   8.9784
     9.0150   9.0452   9.1175   9.1340   9.1978   9.2886   9.3150   9.4287
     9.4726   9.4894   9.4943   9.5234   9.5573   9.5925   9.5951   9.6333
     9.6501   9.6714   9.6835   9.7495   9.8290   9.8748   9.9482   9.9815
     9.9886  10.0188  10.0335  10.0840  10.1168  10.1541  10.2213  10.2348
    10.3166  10.3652  10.3829  10.4293  10.4481  10.5174  10.5425  10.5862
    10.6525  10.6847  10.7882  10.8005  10.8409  10.9231  10.9358  10.9776
    10.9795  11.0185  11.0534  11.1402  11.1574  11.2571  11.3194  11.3563
    11.4049  11.4416  11.4505  11.5025  11.5051  11.5605  11.6255  11.6409
    11.7208  11.7335  11.7678  11.8263  11.8395  11.8412  11.8592  11.9101
    11.9740  12.0137  12.0762  12.0917  12.1149  12.1309  12.1884  12.1945
    12.2793  12.2975  12.3610  12.4762  12.4849  12.5830  12.6299  12.6974
    12.7232  12.7408  12.7595  12.8263  12.8464  12.8788  13.5660  13.6693
    14.7290  14.7899  15.7542  16.0467  16.1485  16.3003  16.3588  16.4335
    16.7552  16.7821  16.7901  16.9320  16.9581  17.0410  17.0847  17.1168
    17.1689  17.1765  17.2483  17.2682  17.3668  17.3755  17.4316  17.5112
    17.9006  18.0580  18.2562  18.4479  18.6412  18.6746  19.2162  19.3169
    19.8756  20.0000

          k = 0.1250 0.3750 0.0000 ( 13875 PWs)   bands (ev):

   -66.7608 -66.7589 -66.6278 -66.6277 -62.1776 -62.1762 -62.0679 -62.0674
   -35.5330 -35.5323 -35.4867 -35.4842 -35.4780 -35.4755 -35.4034 -35.4028
   -35.3544 -35.3542 -35.3456 -35.3455 -31.0094 -31.0079 -31.0037 -31.0027
   -30.9981 -30.9965 -30.8998 -30.8994 -30.8991 -30.8984 -30.8876 -30.8870
     7.7389   7.8566   7.9707   8.1684   8.1709   8.3149   8.3394   8.3617
     8.3709   8.5059   8.5295   8.6479   8.7395   8.8815   8.9444   8.9671
     9.0461   9.0777   9.1003   9.1963   9.2219   9.2558   9.2672   9.2926
     9.3086   9.3929   9.4433   9.4475   9.4777   9.5023   9.5281   9.5892
     9.6527   9.6957   9.7376   9.7995   9.8212   9.8737   9.8968   9.9260
     9.9335   9.9668  10.0492  10.0881  10.2076  10.2716  10.2865  10.3409
    10.3500  10.3970  10.4376  10.5265  10.5980  10.6459  10.6984  10.7793
    10.8620  10.9025  11.0086  11.0382  11.0715  11.1085  11.1488  11.2234
    11.2311  11.2595  11.2700  11.3241  11.4006  11.4336  11.5102  11.5189
    11.5236  11.5440  11.5907  11.6010  11.6850  11.6860  11.7367  11.7590
    11.8232  11.8329  11.8750  11.8762  11.8955  11.9489  11.9679  11.9820
    12.0098  12.0627  12.0862  12.1424  12.2084  12.2217  12.3275  12.3789
    12.4675  12.4694  12.4935  12.5035  12.5252  12.6325  12.6621  12.6696
    12.7300  12.8186  12.8833  12.9848  13.0911  13.5159  13.5959  14.1865
    14.2941  14.3753  14.6633  14.6799  14.9736  15.0133  15.3610  15.4047
    15.7340  15.7671  16.3776  16.3918  16.7400  16.7815  16.8403  16.8882
    17.0769  17.0926  17.1089  17.1277  17.1378  17.1494  17.2302  17.2391
    17.6352  17.6549  17.8103  17.9974  18.0489  18.0829  18.2261  18.4762
    19.5408  19.6384

          k = 0.1250 0.3750-0.0484 ( 13882 PWs)   bands (ev):

   -66.7608 -66.7589 -66.6278 -66.6277 -62.1776 -62.1762 -62.0679 -62.0674
   -35.5330 -35.5323 -35.4867 -35.4842 -35.4780 -35.4755 -35.4034 -35.4028
   -35.3544 -35.3542 -35.3456 -35.3455 -31.0094 -31.0079 -31.0037 -31.0027
   -30.9981 -30.9965 -30.8998 -30.8994 -30.8991 -30.8984 -30.8876 -30.8870
     7.7415   7.8421   8.0339   8.0528   8.2738   8.2862   8.3292   8.3407
     8.4243   8.4391   8.5899   8.6204   8.7376   8.8734   8.9791   8.9853
     9.0130   9.0454   9.1125   9.2115   9.2196   9.2239   9.2781   9.3060
     9.3658   9.3987   9.4180   9.4263   9.4816   9.4851   9.4899   9.5871
     9.6903   9.7219   9.7459   9.8098   9.8347   9.8518   9.8900   9.9002
     9.9407   9.9475  10.0542  10.0868  10.2247  10.2351  10.2793  10.3428
    10.3956  10.4365  10.4370  10.5068  10.5787  10.6135  10.6909  10.7897
    10.8645  10.9392  11.0264  11.0297  11.0860  11.0936  11.1434  11.1597
    11.2306  11.2327  11.3332  11.3699  11.3925  11.4109  11.4549  11.5291
    11.5321  11.5732  11.6007  11.6061  11.6432  11.6955  11.7396  11.8021
    11.8055  11.8330  11.8525  11.8777  11.9244  11.9488  11.9503  11.9843
    11.9976  12.0582  12.0977  12.1515  12.1623  12.2818  12.2917  12.4125
    12.4456  12.4815  12.4936  12.4944  12.5477  12.5973  12.6455  12.6604
    12.8179  12.8236  12.8648  12.8835  13.2686  13.2834  13.8759  13.8951
    14.4154  14.4566  14.6180  14.6436  14.9811  15.0651  15.2895  15.3482
    15.7904  15.8272  16.3443  16.3758  16.7333  16.7781  16.8532  16.8982
    17.0771  17.0791  17.1033  17.1337  17.1494  17.1590  17.2108  17.2460
    17.6432  17.6528  17.7875  17.9951  18.0572  18.0976  18.2151  18.4877
    19.5545  19.6853

[...]
    11.3945  11.4701  11.6018  11.6036  11.6661  11.6763  11.7042  11.7308
    11.7674  11.8722  11.8955  11.8998  11.9615  11.9929  11.9997  12.0130
    12.0453  12.0601  12.1154  12.1367  12.1972  12.2454  12.3693  12.3908
    12.4411  12.5015  12.5709  12.5877  12.6427  12.6561  12.7429  12.7553
    12.7913  13.0406  13.1610  13.5923  13.6412  14.1641  14.2219  14.7426
    14.8875  15.1648  15.3646  15.4065  15.4424  15.5241  15.8260  15.9309
    16.4678  16.5573  16.8390  16.8964  16.9023  17.0293  17.0629  17.1354
    17.1751  17.2279  17.2294  17.3934  17.4014  17.4998  17.6276  17.8074
    18.0269  18.0375  18.1825  18.2718  18.4100  18.4661  18.7974  19.1136
    19.3499  19.4970

          k = 0.2500 0.3750-0.0484 ( 13916 PWs)   bands (ev):

   -66.7599 -66.7579 -66.6270 -66.6269 -62.1780 -62.1767 -62.0682 -62.0677
   -35.5327 -35.5319 -35.4863 -35.4837 -35.4820 -35.4794 -35.4033 -35.4025
   -35.3541 -35.3539 -35.3498 -35.3496 -31.0090 -31.0075 -31.0034 -31.0032
   -31.0025 -31.0018 -30.8994 -30.8991 -30.8985 -30.8980 -30.8927 -30.8922
     7.8879   8.0415   8.3069   8.3385   8.5364   8.5881   8.6940   8.7284
     8.7336   8.8146   8.8503   8.8602   8.9718   8.9838   9.0595   9.1524
     9.1967   9.2313   9.2412   9.2827   9.3049   9.3132   9.3506   9.3751
     9.4219   9.4417   9.5242   9.5394   9.5496   9.6353   9.6841   9.6884
     9.7051   9.7397   9.7891   9.8182   9.8380   9.8864   9.9203   9.9530
    10.0557  10.0650  10.1518  10.1861  10.2076  10.2373  10.2511  10.2516
    10.3317  10.4340  10.4472  10.4593  10.4735  10.5549  10.5759  10.6035
    10.6683  10.7382  10.7666  10.7926  10.8237  10.8917  10.9030  10.9313
    10.9750  11.0463  11.0982  11.1097  11.2068  11.2543  11.3135  11.3379
    11.3753  11.5330  11.5481  11.6128  11.6349  11.6769  11.7028  11.7500
    11.8010  11.8644  11.8731  11.8967  11.9607  11.9933  11.9970  12.0159
    12.0563  12.0657  12.1083  12.1488  12.2122  12.2124  12.3656  12.3967
    12.4458  12.5051  12.5481  12.6415  12.6421  12.6493  12.6767  12.7575
    12.8796  12.9343  13.2790  13.4227  13.8225  13.9792  14.4029  14.5909
    15.0145  15.2137  15.2403  15.3149  15.5414  15.5721  15.8135  15.9128
    16.4707  16.5607  16.8502  16.8586  16.9295  17.0214  17.0841  17.1000
    17.1778  17.2091  17.2819  17.3556  17.4156  17.5000  17.6269  17.8070
    17.9528  18.1509  18.2219  18.2944  18.3623  18.4839  18.6616  19.1056
    19.3507  19.4963

          k = 0.2500-0.5000 0.0000 ( 13940 PWs)   bands (ev):

   -66.7602 -66.7581 -66.6272 -66.6271 -62.1776 -62.1764 -62.0678 -62.0674
   -35.5325 -35.5318 -35.4880 -35.4853 -35.4819 -35.4793 -35.4031 -35.4024
   -35.3557 -35.3555 -35.3496 -35.3494 -31.0112 -31.0098 -31.0033 -31.0031
   -31.0023 -31.0016 -30.9007 -30.9002 -30.8992 -30.8989 -30.8925 -30.8920
     8.3039   8.3047   8.4444   8.4454   8.6337   8.6337   8.7399   8.7404
     8.7829   8.7830   8.7995   8.7999   8.9263   8.9268   9.0232   9.0232
     9.1296   9.1297   9.1413   9.1418   9.2118   9.2123   9.3124   9.3128
     9.3641   9.3641   9.5117   9.5119   9.5890   9.5890   9.6489   9.6492
     9.6982   9.6982   9.8526   9.8527   9.9052   9.9054  10.0111  10.0112
    10.0863  10.0863  10.3072  10.3074  10.3695  10.3695  10.4834  10.4836
    10.5150  10.5153  10.5934  10.5934  10.6866  10.6869  10.8350  10.8353
    10.8825  10.8827  10.9276  10.9276  11.0221  11.0221  11.0407  11.0408
    11.1592  11.1599  11.2076  11.2078  11.2585  11.2591  11.2994  11.3002
    11.5249  11.5250  11.6566  11.6581  11.7221  11.7221  11.7597  11.7600
    11.8460  11.8464  11.8876  11.8877  11.9662  11.9664  12.0001  12.0002
    12.1123  12.1125  12.2635  12.2635  12.3124  12.3124  12.3676  12.3678
    12.5011  12.5011  12.5443  12.5444  12.8066  12.8067  12.9754  12.9756
    13.2192  13.2197  13.6319  13.6321  13.7309  13.7310  14.1172  14.1173
    14.4101  14.4106  14.8502  14.8510  14.9120  14.9126  15.4450  15.4454
    16.1765  16.1773  16.8000  16.8003  16.9473  16.9477  17.0468  17.0472
    17.1149  17.1152  17.1621  17.1624  17.4595  17.4609  17.6692  17.6693
    18.0679  18.0700  18.1645  18.1652  18.2882  18.2885  18.5463  18.5468
    19.4890  19.4891

          k = 0.2500-0.5000-0.0484 ( 13912 PWs)   bands (ev):

   -66.7602 -66.7581 -66.6272 -66.6271 -62.1776 -62.1764 -62.0678 -62.0674
   -35.5325 -35.5318 -35.4880 -35.4853 -35.4819 -35.4793 -35.4031 -35.4024
   -35.3557 -35.3555 -35.3496 -35.3494 -31.0112 -31.0098 -31.0033 -31.0031
   -31.0023 -31.0016 -30.9007 -30.9002 -30.8992 -30.8989 -30.8925 -30.8920
     8.3043   8.3051   8.4426   8.4436   8.6401   8.6402   8.7386   8.7390
     8.7761   8.7761   8.7998   8.8001   8.9261   8.9266   9.0268   9.0268
     9.1316   9.1317   9.1431   9.1437   9.2092   9.2098   9.3103   9.3107
     9.3644   9.3645   9.5154   9.5157   9.5891   9.5891   9.6239   9.6241
     9.7361   9.7362   9.8204   9.8204   9.9236   9.9238  10.0090  10.0091
    10.0861  10.0862  10.3072  10.3075  10.3711  10.3711  10.4796  10.4798
    10.5146  10.5149  10.5884  10.5885  10.6975  10.6979  10.8419  10.8422
    10.8709  10.8711  10.9222  10.9222  11.0290  11.0291  11.0414  11.0415
    11.1574  11.1581  11.2073  11.2075  11.2613  11.2619  11.2967  11.2975
    11.5250  11.5251  11.6568  11.6582  11.7228  11.7228  11.7605  11.7608
    11.8452  11.8457  11.8870  11.8870  11.9648  11.9649  12.0017  12.0018
    12.1141  12.1142  12.2459  12.2460  12.3105  12.3108  12.4369  12.4370
    12.4487  12.4488  12.5325  12.5325  12.8545  12.8546  12.9255  12.9256
    13.2479  13.2484  13.5618  13.5618  13.8400  13.8402  14.0202  14.0202
    14.5310  14.5314  14.6797  14.6804  15.0220  15.0229  15.4246  15.4251
    16.1827  16.1835  16.7942  16.7946  16.9510  16.9514  17.0431  17.0435
    17.1205  17.1210  17.1592  17.1595  17.4610  17.4624  17.6683  17.6684
    18.0682  18.0703  18.1656  18.1663  18.3081  18.3084  18.5043  18.5047
    19.6223  19.6225

          k = 0.3750 0.3750 0.0000 ( 13948 PWs)   bands (ev):

   -66.7597 -66.7577 -66.6267 -66.6266 -62.1778 -62.1766 -62.0680 -62.0676
   -35.5324 -35.5317 -35.4860 -35.4860 -35.4834 -35.4833 -35.4030 -35.4022
   -35.3538 -35.3537 -35.3536 -35.3535 -31.0086 -31.0084 -31.0071 -31.0069
   -31.0031 -31.0022 -30.8991 -30.8988 -30.8981 -30.8979 -30.8976 -30.8973
     7.9776   8.1508   8.3227   8.3879   8.4615   8.6074   8.6292   8.7757
     8.9644   8.9760   8.9795   8.9808   9.0760   9.1356   9.1790   9.2161
     9.2418   9.2795   9.3092   9.3263   9.3313   9.3820   9.4500   9.4734
     9.4787   9.4860   9.5273   9.5443   9.6502   9.6650   9.6885   9.8132
     9.9145   9.9444   9.9621   9.9635  10.0036  10.0044  10.0670  10.0870
    10.1003  10.1016  10.1443  10.1910  10.2163  10.3185  10.3492  10.3565
    10.4069  10.4574  10.4938  10.5373  10.5725  10.6262  10.6584  10.6710
    10.7213  10.7232  10.7550  10.9008  10.9612  10.9679  11.0559  11.0688
    11.1392  11.1608  11.2404  11.4040  11.4439  11.4657  11.4736  11.5287
    11.5791  11.5849  11.6025  11.6182  11.6585  11.6989  11.7328  11.7563
    11.8080  11.9019  11.9417  11.9460  11.9768  11.9890  11.9939  12.0123
    12.0125  12.0499  12.0999  12.1114  12.1457  12.2542  12.2929  12.3406
    12.4742  12.4919  12.5095  12.5507  12.6976  12.7870  12.8552  13.0544
    13.1178  13.4580  13.7591  14.0630  14.2132  14.6555  14.6568  15.1065
    15.2127  15.2154  15.2844  15.4573  15.4759  15.9279  16.1310  16.5857
    16.8831  16.9086  17.0150  17.0300  17.0729  17.0994  17.2328  17.2840
    17.3032  17.4697  17.5325  17.7106  17.7462  17.7656  17.8729  17.9878
    18.0542  18.1451  18.1604  18.2527  18.2898  18.5122  18.6668  18.7251
    18.8098  18.9078

          k = 0.3750 0.3750-0.0484 ( 13950 PWs)   bands (ev):

   -66.7597 -66.7577 -66.6267 -66.6266 -62.1778 -62.1766 -62.0680 -62.0676
   -35.5324 -35.5317 -35.4860 -35.4860 -35.4834 -35.4833 -35.4030 -35.4022
   -35.3538 -35.3537 -35.3536 -35.3535 -31.0086 -31.0084 -31.0071 -31.0069
   -31.0031 -31.0022 -30.8991 -30.8988 -30.8981 -30.8979 -30.8976 -30.8973
     7.9782   8.1471   8.3228   8.4145   8.4882   8.4896   8.7034   8.7959
     8.9403   8.9731   8.9763   8.9938   9.0575   9.1307   9.1641   9.1735
     9.2998   9.3107   9.3203   9.3226   9.3760   9.3980   9.4063   9.4219
     9.4244   9.5479   9.5630   9.5653   9.5693   9.6348   9.7871   9.8394
     9.8538   9.9169   9.9268   9.9693   9.9699  10.0472  10.0849  10.0861
    10.0931  10.1392  10.1616  10.2021  10.2505  10.2748  10.3040  10.3532
    10.4291  10.4549  10.4796  10.5104  10.6183  10.6364  10.6574  10.6769
    10.6988  10.7000  10.8415  10.8728  10.9007  10.9985  11.0377  11.0688
    11.1477  11.1532  11.2615  11.4149  11.4442  11.4655  11.4730  11.5293
    11.5714  11.5781  11.6035  11.6177  11.6314  11.6989  11.7563  11.7603
    11.8252  11.8722  11.9432  11.9450  11.9768  11.9823  12.0066  12.0112
    12.0465  12.0499  12.0629  12.0921  12.2062  12.2172  12.2906  12.3436
    12.4777  12.5008  12.5089  12.5726  12.6227  12.8547  12.8925  12.9445
    13.1871  13.4161  13.8642  13.9174  14.3250  14.5195  14.7493  15.1287
    15.1647  15.2079  15.3265  15.4238  15.4931  15.9321  16.1305  16.5745
    16.8976  16.9509  16.9795  17.0311  17.0851  17.0991  17.1757  17.2349
    17.3606  17.4899  17.5613  17.7007  17.7372  17.7803  17.8482  17.9623
    18.0957  18.1494  18.1496  18.3815  18.3865  18.4056  18.4891  18.4929
    18.8728  18.8980

          k = 0.3750-0.5000 0.0000 ( 13934 PWs)   bands (ev):

   -66.7598 -66.7577 -66.6268 -66.6267 -62.1776 -62.1763 -62.0678 -62.0674
   -35.5323 -35.5316 -35.4876 -35.4858 -35.4849 -35.4832 -35.4029 -35.4021
   -35.3553 -35.3551 -35.3536 -35.3534 -31.0107 -31.0092 -31.0083 -31.0068
   -31.0030 -31.0020 -30.9002 -30.8997 -30.8990 -30.8986 -30.8978 -30.8972
     8.1027   8.1036   8.2629   8.2640   8.5138   8.5141   8.6935   8.6937
     8.8774   8.8779   9.0928   9.0931   9.1550   9.1550   9.1931   9.1931
     9.1994   9.1996   9.2492   9.2495   9.3615   9.3615   9.3925   9.3928
     9.4428   9.4428   9.5713   9.5716   9.6251   9.6251   9.8494   9.8496
     9.8845   9.8845   9.9606   9.9607  10.0224  10.0225  10.0868  10.0872
    10.1526  10.1527  10.2251  10.2256  10.3571  10.3572  10.4076  10.4079
    10.4684  10.4691  10.6346  10.6347  10.6879  10.6880  10.8382  10.8383
    10.9524  10.9526  11.0117  11.0120  11.1284  11.1287  11.2540  11.2544
    11.2913  11.2915  11.3544  11.3548  11.4615  11.4620  11.6011  11.6013
    11.6262  11.6264  11.7055  11.7058  11.7621  11.7623  11.7835  11.7838
    11.9302  11.9305  11.9883  11.9886  12.0262  12.0264  12.0545  12.0547
    12.1560  12.1563  12.2335  12.2338  12.2774  12.2776  12.3039  12.3040
    12.4380  12.4381  12.6109  12.6110  13.0022  13.0027  13.1446  13.1451
    13.6719  13.6723  14.2178  14.2179  14.2673  14.2673  14.5458  14.5464
    14.7467  14.7471  15.0370  15.0372  15.6694  15.6698  16.3215  16.3218
    16.9335  16.9342  17.0126  17.0126  17.0452  17.0455  17.1991  17.1994
    17.3629  17.3630  17.7479  17.7485  17.8521  17.8528  18.0710  18.0724
    18.1575  18.1585  18.2373  18.2376  18.6294  18.6296  18.7626  18.7628
    18.8593  18.8599

          k = 0.3750-0.5000-0.0484 ( 13940 PWs)   bands (ev):

   -66.7598 -66.7577 -66.6268 -66.6267 -62.1776 -62.1763 -62.0678 -62.0674
   -35.5323 -35.5316 -35.4876 -35.4858 -35.4849 -35.4832 -35.4029 -35.4021
   -35.3553 -35.3551 -35.3536 -35.3534 -31.0107 -31.0092 -31.0083 -31.0068
   -31.0030 -31.0020 -30.9002 -30.8997 -30.8990 -30.8986 -30.8978 -30.8972
     8.1030   8.1039   8.2610   8.2621   8.5283   8.5286   8.6595   8.6596
     8.9419   8.9424   9.0365   9.0368   9.1314   9.1316   9.1719   9.1722
     9.2350   9.2352   9.2872   9.2875   9.3427   9.3427   9.4067   9.4067
     9.4541   9.4542   9.5109   9.5111   9.7230   9.7232   9.7442   9.7443
     9.9149   9.9150   9.9666   9.9668  10.0328  10.0329  10.1165  10.1167
    10.1587  10.1587  10.2079  10.2087  10.2762  10.2763  10.4348  10.4357
    10.5279  10.5280  10.6512  10.6513  10.6902  10.6902  10.7444  10.7444
    10.9912  10.9917  11.0449  11.0453  11.1487  11.1490  11.1806  11.1806
    11.3234  11.3237  11.3574  11.3575  11.4516  11.4522  11.6119  11.6124
    11.6234  11.6236  11.7001  11.7004  11.7641  11.7642  11.7831  11.7835
    11.9317  11.9320  11.9882  11.9884  12.0251  12.0254  12.0539  12.0541
    12.1605  12.1608  12.2241  12.2241  12.2487  12.2491  12.3530  12.3530
    12.4384  12.4384  12.5863  12.5864  13.0410  13.0415  13.1124  13.1127
    13.6779  13.6783  14.1735  14.1736  14.3377  14.3381  14.4967  14.4970
    14.7737  14.7743  15.0294  15.0295  15.6697  15.6701  16.3212  16.3215
    16.9468  16.9476  17.0171  17.0171  17.0449  17.0454  17.1397  17.1399
    17.4548  17.4548  17.6483  17.6489  17.9137  17.9147  18.0519  18.0519
    18.1226  18.1246  18.2904  18.2907  18.6660  18.6660  18.7398  18.7402
    18.8567  18.8591

          k =-0.5000-0.5000 0.0000 ( 13964 PWs)   bands (ev):

   -66.7598 -66.7577 -66.6268 -66.6267 -62.1775 -62.1762 -62.0677 -62.0672
   -35.5322 -35.5315 -35.4874 -35.4874 -35.4848 -35.4848 -35.4028 -35.4020
   -35.3552 -35.3552 -35.3550 -35.3550 -31.0105 -31.0105 -31.0090 -31.0090
   -31.0029 -31.0019 -30.9000 -30.9000 -30.8994 -30.8994 -30.8988 -30.8985
     8.0159   8.0168   8.1814   8.1825   8.4554   8.4558   8.6497   8.6499
     8.8045   8.8050   9.1094   9.1097   9.1827   9.1831   9.2476   9.2476
     9.2726   9.2726   9.3186   9.3186   9.4097   9.4099   9.4354   9.4354
     9.4384   9.4384   9.6822   9.6822   9.6893   9.6893   9.8528   9.8544
     9.9017   9.9017   9.9379   9.9379  10.0276  10.0276  10.0307  10.0321
    10.0471  10.0471  10.0574  10.0574  10.1856  10.1856  10.5568  10.5568
    10.5664  10.5665  10.6248  10.6248  10.6684  10.6685  11.0883  11.0890
    11.1162  11.1162  11.1609  11.1614  11.2265  11.2265  11.3531  11.3531
    11.4496  11.4521  11.5717  11.5718  11.5719  11.5722  11.6055  11.6055
    11.9300  11.9307  11.9548  11.9552  11.9787  11.9787  11.9821  11.9823
    12.0015  12.0016  12.0272  12.0276  12.0525  12.0527  12.0732  12.0734
    12.0956  12.0958  12.1921  12.1923  12.2315  12.2316  12.2546  12.2547
    12.3882  12.3883  12.6363  12.6363  13.3602  13.3610  13.4111  13.4123
    13.8442  13.8442  14.2142  14.2142  14.3778  14.3778  14.6821  14.6821
    14.7878  14.7878  15.4602  15.4602  16.3774  16.3774  16.6442  16.6454
    16.8193  16.8196  16.8392  16.8393  16.9827  16.9831  17.2233  17.2233
    17.2251  17.2251  17.7601  17.7603  17.9057  17.9058  17.9357  17.9357
    17.9976  17.9978  18.0831  18.0863  18.1942  18.1946  18.2328  18.2328
    18.4096  18.4097

          k =-0.5000-0.5000-0.0484 ( 13992 PWs)   bands (ev):

   -66.7598 -66.7577 -66.6268 -66.6267 -62.1775 -62.1762 -62.0677 -62.0672
   -35.5322 -35.5315 -35.4874 -35.4874 -35.4848 -35.4848 -35.4028 -35.4020
   -35.3552 -35.3552 -35.3550 -35.3550 -31.0105 -31.0105 -31.0090 -31.0090
   -31.0029 -31.0019 -30.9000 -30.9000 -30.8994 -30.8994 -30.8988 -30.8985
     8.0161   8.0171   8.1797   8.1809   8.4713   8.4717   8.6051   8.6053
     8.8970   8.8976   8.9780   8.9783   9.2527   9.2527   9.2612   9.2612
     9.3210   9.3212   9.3367   9.3370   9.3523   9.3523   9.3622   9.3622
     9.5457   9.5457   9.5469   9.5469   9.8457   9.8457   9.8593   9.8609
     9.8624   9.8624   9.9017   9.9017   9.9385   9.9385  10.0279  10.0293
    10.0478  10.0478  10.1331  10.1331  10.2476  10.2476  10.4002  10.4002
    10.5666  10.5667  10.6683  10.6684  10.8399  10.8399  10.9005  10.9005
    11.0884  11.0891  11.1606  11.1612  11.3532  11.3533  11.4458  11.4458
    11.4496  11.4521  11.4658  11.4658  11.5717  11.5718  11.5718  11.5721
    11.9300  11.9307  11.9548  11.9552  11.9821  11.9823  12.0015  12.0016
    12.0045  12.0045  12.0272  12.0276  12.0525  12.0527  12.0732  12.0734
    12.0956  12.0958  12.1948  12.1950  12.2251  12.2252  12.2585  12.2586
    12.3881  12.3881  12.6294  12.6294  13.3602  13.3610  13.4111  13.4123
    13.8710  13.8710  14.1304  14.1304  14.5211  14.5211  14.5692  14.5692
    14.8165  14.8165  15.4601  15.4601  16.3793  16.3793  16.6442  16.6454
    16.8190  16.8193  16.8398  16.8399  16.9822  16.9826  17.0932  17.0932
    17.4970  17.4970  17.6474  17.6474  17.7842  17.7844  17.8557  17.8558
    18.0260  18.0262  18.0831  18.0863  18.1942  18.1946  18.4075  18.4077
    18.5816  18.5816

     the Fermi energy is    15.2336 ev

!    total energy              =  -14694.00869391 Ry
     Harris-Foulkes estimate   =  -14694.00869152 Ry
     estimated scf accuracy    <       0.00000032 Ry

     total all-electron energy =   -626921.604416 Ry

     The total energy is the sum of the following terms:

     one-electron contribution =    -714.66022856 Ry
     hartree contribution      =     656.67031095 Ry
     xc contribution           =    -737.85906596 Ry
     ewald contribution        =   -2196.78933708 Ry
     Hubbard energy            =       0.45800741 Ry
     one-center paw contrib.   =  -11701.82838067 Ry

     total magnetization       =    -0.00 Bohr mag/cell
     absolute magnetization    =    37.06 Bohr mag/cell

     convergence has been achieved in  30 iterations

     Writing output data file mnau2.save/
 
     init_run     :     29.92s CPU     30.43s WALL (       1 calls)
     electrons    :   1327.42s CPU   1353.58s WALL (       1 calls)

     Called by init_run:
     wfcinit      :     27.59s CPU     28.02s WALL (       1 calls)
     potinit      :      1.14s CPU      1.18s WALL (       1 calls)
     hinit0       :      0.72s CPU      0.74s WALL (       1 calls)

     Called by electrons:
     c_bands      :   1140.92s CPU   1163.37s WALL (      30 calls)
     sum_band     :    169.16s CPU    172.00s WALL (      30 calls)
     v_of_rho     :      1.54s CPU      1.57s WALL (      31 calls)
     newd         :      4.57s CPU      4.61s WALL (      31 calls)
     PAW_pot      :     11.51s CPU     11.65s WALL (      31 calls)
     mix_rho      :      0.41s CPU      0.41s WALL (      30 calls)

     Called by c_bands:
     init_us_2    :      3.55s CPU      3.56s WALL (    3720 calls)
     cegterg      :   1104.81s CPU   1126.87s WALL (    1800 calls)

     Called by sum_band:
     sum_band:bec :      1.11s CPU      1.12s WALL (    1800 calls)
     addusdens    :      5.59s CPU      5.61s WALL (      30 calls)

     Called by *egterg:
     h_psi        :    652.90s CPU    663.90s WALL (    6031 calls)
     s_psi        :     30.60s CPU     30.63s WALL (    6091 calls)
     g_psi        :      1.10s CPU      1.10s WALL (    4171 calls)
     cdiaghg      :    301.88s CPU    312.01s WALL (    5971 calls)

     Called by h_psi:
     h_psi:pot    :    623.16s CPU    633.77s WALL (    6031 calls)
     h_psi:calbec :     53.19s CPU     54.71s WALL (    6031 calls)
     vloc_psi     :    540.63s CPU    549.68s WALL (    6031 calls)
     add_vuspsi   :     29.30s CPU     29.35s WALL (    6031 calls)
     vhpsi        :     28.99s CPU     29.37s WALL (    6031 calls)

     General routines
     calbec       :    107.10s CPU    109.82s WALL (   15722 calls)
     fft          :      1.71s CPU      1.76s WALL (     771 calls)
     ffts         :      0.09s CPU      0.09s WALL (     122 calls)
     fftw         :    649.73s CPU    660.65s WALL ( 1665086 calls)
     interpolate  :      0.16s CPU      0.16s WALL (      62 calls)
     davcio       :      0.01s CPU      1.15s WALL (      60 calls)
 
     Parallel routines
     fft_scatt_xy :     16.76s CPU     16.96s WALL ( 1665979 calls)
     fft_scatt_yz :    564.06s CPU    573.94s WALL ( 1665979 calls)

     Hubbard U routines
     new_ns       :      5.05s CPU      5.10s WALL (      30 calls)
     vhpsi        :     28.99s CPU     29.37s WALL (    6031 calls)
 
     PWSCF        : 23m16.39s CPU    24m31.77s WALL

 
   This run was terminated on:  22:40: 4   6Apr2019            

=------------------------------------------------------------------------------=
   JOB DONE.
=------------------------------------------------------------------------------=
