
     Program DOS v.6.1 (svn rev. 13369) starts on 25Mar2019 at 10:32:54 

     This program is part of the open-source Quantum ESPRESSO suite
     for quantum simulation of materials; please cite
         "P. Giannozzi et al., J. Phys.:Condens. Matter 21 395502 (2009);
          URL http://www.quantum-espresso.org", 
     in publications or presentations arising from this work. More details at
     http://www.quantum-espresso.org/quote

     Parallel version (MPI), running on     1 processors

   Info: using nr1, nr2, nr3 values from input

   Info: using nr1, nr2, nr3 values from input

     IMPORTANT: XC functional enforced from input :
     Exchange-correlation      =  SLA  PW   PBX  PBC ( 1  4  3  4 0 0)
     Any further DFT definition will be discarded
     Please, verify this is what you really want

               file Mn.pbe-spn-kjpaw_psl.0.3.1.UPF: wavefunction(s)  3P 3D renormalized
               file Au.pbe-dn-kjpaw_psl.0.1.UPF: wavefunction(s)  6S 6P 5D renormalized

     G-vector sticks info
     --------------------
     sticks:   dense  smooth     PW     G-vecs:    dense   smooth      PW
     Sum         973     577    185                29445    13639    2517

     Generating pointlists ...
     new r_m :   0.3384 (alat units)  2.1550 (a.u.) for type    1
     new r_m :   0.3384 (alat units)  2.1550 (a.u.) for type    2

     Check: negative/imaginary core charge=   -0.000007    0.000000

     Gaussian broadening (read from input): ngauss,degauss=   0    0.007000


     DOS          :     5.92s CPU         6.48s WALL


   This run was terminated on:  10:33: 0  25Mar2019            

=------------------------------------------------------------------------------=
   JOB DONE.
=------------------------------------------------------------------------------=
