
     Program PWSCF v.6.3MaX starts on  1Apr2019 at 17:54:25 

     This program is part of the open-source Quantum ESPRESSO suite
     for quantum simulation of materials; please cite
         "P. Giannozzi et al., J. Phys.:Condens. Matter 21 395502 (2009);
         "P. Giannozzi et al., J. Phys.:Condens. Matter 29 465901 (2017);
          URL http://www.quantum-espresso.org", 
     in publications or presentations arising from this work. More details at
     http://www.quantum-espresso.org/quote

     Parallel version (MPI), running on    24 processors

     MPI processes distributed on     3 nodes
     R & G space division:  proc/nbgrp/npool/nimage =      24
     Waiting for input...
     Reading input from standard input

     Current dimensions of program PWSCF are:
     Max number of different atomic species (ntypx) = 10
     Max number of k-points (npk) =  40000
     Max angular momentum in pseudopotentials (lmaxx) =  3
     Message from routine read_upf::
     Pseudo file ./pseudo/Mn.pbe-spn-kjpaw_psl.0.3.1.UPF has been successfully fixed on the fly.
To avoid this message in the future you can permanently fix 
 your pseudo files following instructions given in: 
https://gitlab.com/QEF/q-e/blob/master/upftools/how_to_fix_upf.md
               file Mn.pbe-spn-kjpaw_psl.0.3.1.UPF: wavefunction(s)  3P 3D renormalized

 %%%%%%%%%%%%%%%%%%%%%%%%%%%%%%%%%%%%%%%%%%%%%%%%%%%%%%%%%%%%%%%%%%%%%%%%%%%%%%
     Error in routine read_upf: (348):
     Failure while trying to fix ./pseudo/Mn.pbe-spn-kjpaw_psl.0.3.1.UPF.
For fixing manually UPF files see: 
https://gitlab.com/QEF/q-e/blob/master/upftools/how_to_fix_upf.md
 %%%%%%%%%%%%%%%%%%%%%%%%%%%%%%%%%%%%%%%%%%%%%%%%%%%%%%%%%%%%%%%%%%%%%%%%%%%%%%

     stopping ...

 %%%%%%%%%%%%%%%%%%%%%%%%%%%%%%%%%%%%%%%%%%%%%%%%%%%%%%%%%%%%%%%%%%%%%%%%%%%%%%
     Error in routine read_upf: (348):
     Failure while trying to fix ./pseudo/Mn.pbe-spn-kjpaw_psl.0.3.1.UPF.
For fixing manually UPF files see: 
https://gitlab.com/QEF/q-e/blob/master/upftools/how_to_fix_upf.md
 %%%%%%%%%%%%%%%%%%%%%%%%%%%%%%%%%%%%%%%%%%%%%%%%%%%%%%%%%%%%%%%%%%%%%%%%%%%%%%

     stopping ...

 %%%%%%%%%%%%%%%%%%%%%%%%%%%%%%%%%%%%%%%%%%%%%%%%%%%%%%%%%%%%%%%%%%%%%%%%%%%%%%
     Error in routine read_upf: (348):
     Failure while trying to fix ./pseudo/Mn.pbe-spn-kjpaw_psl.0.3.1.UPF.
For fixing manually UPF files see: 
https://gitlab.com/QEF/q-e/blob/master/upftools/how_to_fix_upf.md
 %%%%%%%%%%%%%%%%%%%%%%%%%%%%%%%%%%%%%%%%%%%%%%%%%%%%%%%%%%%%%%%%%%%%%%%%%%%%%%

     stopping ...

 %%%%%%%%%%%%%%%%%%%%%%%%%%%%%%%%%%%%%%%%%%%%%%%%%%%%%%%%%%%%%%%%%%%%%%%%%%%%%%
     Error in routine read_upf: (348):
     Failure while trying to fix ./pseudo/Mn.pbe-spn-kjpaw_psl.0.3.1.UPF.
For fixing manually UPF files see: 
https://gitlab.com/QEF/q-e/blob/master/upftools/how_to_fix_upf.md
 %%%%%%%%%%%%%%%%%%%%%%%%%%%%%%%%%%%%%%%%%%%%%%%%%%%%%%%%%%%%%%%%%%%%%%%%%%%%%%

     stopping ...

 %%%%%%%%%%%%%%%%%%%%%%%%%%%%%%%%%%%%%%%%%%%%%%%%%%%%%%%%%%%%%%%%%%%%%%%%%%%%%%
     Error in routine read_upf: (348):
     Failure while trying to fix ./pseudo/Mn.pbe-spn-kjpaw_psl.0.3.1.UPF.
For fixing manually UPF files see: 
https://gitlab.com/QEF/q-e/blob/master/upftools/how_to_fix_upf.md
 %%%%%%%%%%%%%%%%%%%%%%%%%%%%%%%%%%%%%%%%%%%%%%%%%%%%%%%%%%%%%%%%%%%%%%%%%%%%%%

     stopping ...

 %%%%%%%%%%%%%%%%%%%%%%%%%%%%%%%%%%%%%%%%%%%%%%%%%%%%%%%%%%%%%%%%%%%%%%%%%%%%%%
     Error in routine read_upf: (348):
     Failure while trying to fix ./pseudo/Mn.pbe-spn-kjpaw_psl.0.3.1.UPF.
For fixing manually UPF files see: 
https://gitlab.com/QEF/q-e/blob/master/upftools/how_to_fix_upf.md
 %%%%%%%%%%%%%%%%%%%%%%%%%%%%%%%%%%%%%%%%%%%%%%%%%%%%%%%%%%%%%%%%%%%%%%%%%%%%%%

     stopping ...

 %%%%%%%%%%%%%%%%%%%%%%%%%%%%%%%%%%%%%%%%%%%%%%%%%%%%%%%%%%%%%%%%%%%%%%%%%%%%%%
     Error in routine read_upf: (348):
     Failure while trying to fix ./pseudo/Mn.pbe-spn-kjpaw_psl.0.3.1.UPF.
For fixing manually UPF files see: 
https://gitlab.com/QEF/q-e/blob/master/upftools/how_to_fix_upf.md
 %%%%%%%%%%%%%%%%%%%%%%%%%%%%%%%%%%%%%%%%%%%%%%%%%%%%%%%%%%%%%%%%%%%%%%%%%%%%%%

     stopping ...

 %%%%%%%%%%%%%%%%%%%%%%%%%%%%%%%%%%%%%%%%%%%%%%%%%%%%%%%%%%%%%%%%%%%%%%%%%%%%%%
     Error in routine read_upf: (348):
     Failure while trying to fix ./pseudo/Mn.pbe-spn-kjpaw_psl.0.3.1.UPF.
For fixing manually UPF files see: 
https://gitlab.com/QEF/q-e/blob/master/upftools/how_to_fix_upf.md
 %%%%%%%%%%%%%%%%%%%%%%%%%%%%%%%%%%%%%%%%%%%%%%%%%%%%%%%%%%%%%%%%%%%%%%%%%%%%%%

     stopping ...

 %%%%%%%%%%%%%%%%%%%%%%%%%%%%%%%%%%%%%%%%%%%%%%%%%%%%%%%%%%%%%%%%%%%%%%%%%%%%%%
     Error in routine read_upf: (348):
     Failure while trying to fix ./pseudo/Mn.pbe-spn-kjpaw_psl.0.3.1.UPF.
For fixing manually UPF files see: 
https://gitlab.com/QEF/q-e/blob/master/upftools/how_to_fix_upf.md
 %%%%%%%%%%%%%%%%%%%%%%%%%%%%%%%%%%%%%%%%%%%%%%%%%%%%%%%%%%%%%%%%%%%%%%%%%%%%%%

     stopping ...

 %%%%%%%%%%%%%%%%%%%%%%%%%%%%%%%%%%%%%%%%%%%%%%%%%%%%%%%%%%%%%%%%%%%%%%%%%%%%%%
     Error in routine read_upf: (348):
     Failure while trying to fix ./pseudo/Mn.pbe-spn-kjpaw_psl.0.3.1.UPF.
For fixing manually UPF files see: 
https://gitlab.com/QEF/q-e/blob/master/upftools/how_to_fix_upf.md
 %%%%%%%%%%%%%%%%%%%%%%%%%%%%%%%%%%%%%%%%%%%%%%%%%%%%%%%%%%%%%%%%%%%%%%%%%%%%%%

     stopping ...

 %%%%%%%%%%%%%%%%%%%%%%%%%%%%%%%%%%%%%%%%%%%%%%%%%%%%%%%%%%%%%%%%%%%%%%%%%%%%%%
     Error in routine read_upf: (348):
     Failure while trying to fix ./pseudo/Mn.pbe-spn-kjpaw_psl.0.3.1.UPF.
For fixing manually UPF files see: 
https://gitlab.com/QEF/q-e/blob/master/upftools/how_to_fix_upf.md
 %%%%%%%%%%%%%%%%%%%%%%%%%%%%%%%%%%%%%%%%%%%%%%%%%%%%%%%%%%%%%%%%%%%%%%%%%%%%%%

     stopping ...

 %%%%%%%%%%%%%%%%%%%%%%%%%%%%%%%%%%%%%%%%%%%%%%%%%%%%%%%%%%%%%%%%%%%%%%%%%%%%%%
     Error in routine read_upf: (348):
     Failure while trying to fix ./pseudo/Mn.pbe-spn-kjpaw_psl.0.3.1.UPF.
For fixing manually UPF files see: 
https://gitlab.com/QEF/q-e/blob/master/upftools/how_to_fix_upf.md
 %%%%%%%%%%%%%%%%%%%%%%%%%%%%%%%%%%%%%%%%%%%%%%%%%%%%%%%%%%%%%%%%%%%%%%%%%%%%%%

     stopping ...

 %%%%%%%%%%%%%%%%%%%%%%%%%%%%%%%%%%%%%%%%%%%%%%%%%%%%%%%%%%%%%%%%%%%%%%%%%%%%%%
     Error in routine read_upf: (348):
     Failure while trying to fix ./pseudo/Mn.pbe-spn-kjpaw_psl.0.3.1.UPF.
For fixing manually UPF files see: 
https://gitlab.com/QEF/q-e/blob/master/upftools/how_to_fix_upf.md
 %%%%%%%%%%%%%%%%%%%%%%%%%%%%%%%%%%%%%%%%%%%%%%%%%%%%%%%%%%%%%%%%%%%%%%%%%%%%%%

     stopping ...

 %%%%%%%%%%%%%%%%%%%%%%%%%%%%%%%%%%%%%%%%%%%%%%%%%%%%%%%%%%%%%%%%%%%%%%%%%%%%%%
     Error in routine read_upf: (348):
     Failure while trying to fix ./pseudo/Mn.pbe-spn-kjpaw_psl.0.3.1.UPF.
For fixing manually UPF files see: 
https://gitlab.com/QEF/q-e/blob/master/upftools/how_to_fix_upf.md
 %%%%%%%%%%%%%%%%%%%%%%%%%%%%%%%%%%%%%%%%%%%%%%%%%%%%%%%%%%%%%%%%%%%%%%%%%%%%%%

     stopping ...

 %%%%%%%%%%%%%%%%%%%%%%%%%%%%%%%%%%%%%%%%%%%%%%%%%%%%%%%%%%%%%%%%%%%%%%%%%%%%%%
     Error in routine read_upf: (348):
     Failure while trying to fix ./pseudo/Mn.pbe-spn-kjpaw_psl.0.3.1.UPF.
For fixing manually UPF files see: 
https://gitlab.com/QEF/q-e/blob/master/upftools/how_to_fix_upf.md
 %%%%%%%%%%%%%%%%%%%%%%%%%%%%%%%%%%%%%%%%%%%%%%%%%%%%%%%%%%%%%%%%%%%%%%%%%%%%%%

     stopping ...

 %%%%%%%%%%%%%%%%%%%%%%%%%%%%%%%%%%%%%%%%%%%%%%%%%%%%%%%%%%%%%%%%%%%%%%%%%%%%%%
     Error in routine read_upf: (348):
     Failure while trying to fix ./pseudo/Mn.pbe-spn-kjpaw_psl.0.3.1.UPF.
For fixing manually UPF files see: 
https://gitlab.com/QEF/q-e/blob/master/upftools/how_to_fix_upf.md
 %%%%%%%%%%%%%%%%%%%%%%%%%%%%%%%%%%%%%%%%%%%%%%%%%%%%%%%%%%%%%%%%%%%%%%%%%%%%%%

     stopping ...

 %%%%%%%%%%%%%%%%%%%%%%%%%%%%%%%%%%%%%%%%%%%%%%%%%%%%%%%%%%%%%%%%%%%%%%%%%%%%%%
     Error in routine read_upf: (348):
     Failure while trying to fix ./pseudo/Mn.pbe-spn-kjpaw_psl.0.3.1.UPF.
For fixing manually UPF files see: 
https://gitlab.com/QEF/q-e/blob/master/upftools/how_to_fix_upf.md

 %%%%%%%%%%%%%%%%%%%%%%%%%%%%%%%%%%%%%%%%%%%%%%%%%%%%%%%%%%%%%%%%%%%%%%%%%%%%%%
     Error in routine read_upf: (348):
     Failure while trying to fix ./pseudo/Mn.pbe-spn-kjpaw_psl.0.3.1.UPF.
For fixing manually UPF files see: 
https://gitlab.com/QEF/q-e/blob/master/upftools/how_to_fix_upf.md
 %%%%%%%%%%%%%%%%%%%%%%%%%%%%%%%%%%%%%%%%%%%%%%%%%%%%%%%%%%%%%%%%%%%%%%%%%%%%%%

     stopping ...
 %%%%%%%%%%%%%%%%%%%%%%%%%%%%%%%%%%%%%%%%%%%%%%%%%%%%%%%%%%%%%%%%%%%%%%%%%%%%%%

     stopping ...

 %%%%%%%%%%%%%%%%%%%%%%%%%%%%%%%%%%%%%%%%%%%%%%%%%%%%%%%%%%%%%%%%%%%%%%%%%%%%%%
     Error in routine read_upf: (348):
     Failure while trying to fix ./pseudo/Mn.pbe-spn-kjpaw_psl.0.3.1.UPF.
For fixing manually UPF files see: 
https://gitlab.com/QEF/q-e/blob/master/upftools/how_to_fix_upf.md
 %%%%%%%%%%%%%%%%%%%%%%%%%%%%%%%%%%%%%%%%%%%%%%%%%%%%%%%%%%%%%%%%%%%%%%%%%%%%%%

     stopping ...

 %%%%%%%%%%%%%%%%%%%%%%%%%%%%%%%%%%%%%%%%%%%%%%%%%%%%%%%%%%%%%%%%%%%%%%%%%%%%%%
     Error in routine read_upf: (348):
     Failure while trying to fix ./pseudo/Mn.pbe-spn-kjpaw_psl.0.3.1.UPF.
For fixing manually UPF files see: 
https://gitlab.com/QEF/q-e/blob/master/upftools/how_to_fix_upf.md
 %%%%%%%%%%%%%%%%%%%%%%%%%%%%%%%%%%%%%%%%%%%%%%%%%%%%%%%%%%%%%%%%%%%%%%%%%%%%%%

     stopping ...

 %%%%%%%%%%%%%%%%%%%%%%%%%%%%%%%%%%%%%%%%%%%%%%%%%%%%%%%%%%%%%%%%%%%%%%%%%%%%%%
     Error in routine read_upf: (348):
     Failure while trying to fix ./pseudo/Mn.pbe-spn-kjpaw_psl.0.3.1.UPF.
For fixing manually UPF files see: 
https://gitlab.com/QEF/q-e/blob/master/upftools/how_to_fix_upf.md
 %%%%%%%%%%%%%%%%%%%%%%%%%%%%%%%%%%%%%%%%%%%%%%%%%%%%%%%%%%%%%%%%%%%%%%%%%%%%%%

     stopping ...

 %%%%%%%%%%%%%%%%%%%%%%%%%%%%%%%%%%%%%%%%%%%%%%%%%%%%%%%%%%%%%%%%%%%%%%%%%%%%%%
     Error in routine read_upf: (348):
     Failure while trying to fix ./pseudo/Mn.pbe-spn-kjpaw_psl.0.3.1.UPF.
For fixing manually UPF files see: 
https://gitlab.com/QEF/q-e/blob/master/upftools/how_to_fix_upf.md
 %%%%%%%%%%%%%%%%%%%%%%%%%%%%%%%%%%%%%%%%%%%%%%%%%%%%%%%%%%%%%%%%%%%%%%%%%%%%%%

     stopping ...

 %%%%%%%%%%%%%%%%%%%%%%%%%%%%%%%%%%%%%%%%%%%%%%%%%%%%%%%%%%%%%%%%%%%%%%%%%%%%%%
     Error in routine read_upf: (348):
     Failure while trying to fix ./pseudo/Mn.pbe-spn-kjpaw_psl.0.3.1.UPF.
For fixing manually UPF files see: 
https://gitlab.com/QEF/q-e/blob/master/upftools/how_to_fix_upf.md
 %%%%%%%%%%%%%%%%%%%%%%%%%%%%%%%%%%%%%%%%%%%%%%%%%%%%%%%%%%%%%%%%%%%%%%%%%%%%%%

     stopping ...

 %%%%%%%%%%%%%%%%%%%%%%%%%%%%%%%%%%%%%%%%%%%%%%%%%%%%%%%%%%%%%%%%%%%%%%%%%%%%%%
     Error in routine read_upf: (348):
     Failure while trying to fix ./pseudo/Mn.pbe-spn-kjpaw_psl.0.3.1.UPF.
For fixing manually UPF files see: 
https://gitlab.com/QEF/q-e/blob/master/upftools/how_to_fix_upf.md
 %%%%%%%%%%%%%%%%%%%%%%%%%%%%%%%%%%%%%%%%%%%%%%%%%%%%%%%%%%%%%%%%%%%%%%%%%%%%%%

     stopping ...
