
     Program PWSCF v.6.3MaX starts on 29Mar2019 at 14:42: 2 

     This program is part of the open-source Quantum ESPRESSO suite
     for quantum simulation of materials; please cite
         "P. Giannozzi et al., J. Phys.:Condens. Matter 21 395502 (2009);
         "P. Giannozzi et al., J. Phys.:Condens. Matter 29 465901 (2017);
          URL http://www.quantum-espresso.org", 
     in publications or presentations arising from this work. More details at
     http://www.quantum-espresso.org/quote

     Parallel version (MPI), running on    32 processors

     MPI processes distributed on     2 nodes
     R & G space division:  proc/nbgrp/npool/nimage =      32
     Waiting for input...
     Reading input from standard input

     Current dimensions of program PWSCF are:
     Max number of different atomic species (ntypx) = 10
     Max number of k-points (npk) =  40000
     Max angular momentum in pseudopotentials (lmaxx) =  3
     Message from routine read_upf::
     Pseudo file ./pseudo/Mn.pbe-spn-kjpaw_psl.0.3.1.UPF has been successfully fixed on the fly.
To avoid this message in the future you can permanently fix 
 your pseudo files following instructions given in: 
https://gitlab.com/QEF/q-e/blob/master/upftools/how_to_fix_upf.md
               file Mn.pbe-spn-kjpaw_psl.0.3.1.UPF: wavefunction(s)  3P 3D renormalized
     Message from routine read_upf::
     Pseudo file ./pseudo/Au.pbe-dn-kjpaw_psl.0.1.UPF has been successfully fixed on the fly.
To avoid this message in the future you can permanently fix 
 your pseudo files following instructions given in: 
https://gitlab.com/QEF/q-e/blob/master/upftools/how_to_fix_upf.md
               file Au.pbe-dn-kjpaw_psl.0.1.UPF: wavefunction(s)  6S 6P 5D renormalized

     Subspace diagonalization in iterative solution of the eigenvalue problem:
     one sub-group per band group will be used
     scalapack distributed-memory algorithm (size of sub-group:  4*  4 procs)

     Found symmetry operation: I + ( -0.5000 -0.5000  0.1250)
     This is a supercell, fractional translations are disabled
 
     Parallelization info
     --------------------
     sticks:   dense  smooth     PW     G-vecs:    dense   smooth      PW
     Min          41      18      5                11647     3506     571
     Max          42      19      6                11691     3549     614
     Sum        1313     593    177               373547   112863   18983
 


     bravais-lattice index     =            0
     lattice parameter (alat)  =       6.4153  a.u.
     unit-cell volume          =    2762.7331 (a.u.)^3
     number of atoms/cell      =           24
     number of atomic types    =            2
     number of electrons       =       296.00
     number of Kohn-Sham states=          178
     kinetic-energy cutoff     =      45.0000  Ry
     charge density cutoff     =     400.0000  Ry
     convergence threshold     =      1.0E-06
     mixing beta               =       0.1000
     number of iterations used =            8  plain     mixing
     Exchange-correlation      = SLA PW PBX PBC ( 1  4  3  4 0 0)

     celldm(1)=   6.415315  celldm(2)=   0.000000  celldm(3)=   0.000000
     celldm(4)=   0.000000  celldm(5)=   0.000000  celldm(6)=   0.000000

     crystal axes: (cart. coord. in units of alat)
               a(1) = (   1.000000   0.000000   0.000000 )  
               a(2) = (   0.000000   1.000000   0.000000 )  
               a(3) = (   0.000000   0.000000  10.463692 )  

     reciprocal axes: (cart. coord. in units 2 pi/alat)
               b(1) = (  1.000000  0.000000  0.000000 )  
               b(2) = (  0.000000  1.000000  0.000000 )  
               b(3) = (  0.000000  0.000000  0.095569 )  


     PseudoPot. # 1 for Mn read from file:
     ./pseudo/Mn.pbe-spn-kjpaw_psl.0.3.1.UPF
     MD5 check sum: 7eef95dd2aae66803482eea66ebeebf1
     Pseudo is Projector augmented-wave + core cor, Zval = 15.0
     Generated using "atomic" code by A. Dal Corso v.5.0.99 svn rev. 10869
     Shape of augmentation charge: PSQ
     Using radial grid of 1187 points,  6 beta functions with: 
                l(1) =   0
                l(2) =   0
                l(3) =   1
                l(4) =   1
                l(5) =   2
                l(6) =   2
     Q(r) pseudized with 0 coefficients 


     PseudoPot. # 2 for Au read from file:
     ./pseudo/Au.pbe-dn-kjpaw_psl.0.1.UPF
     MD5 check sum: 5c9b92683623e7ae2ab3f8e525febab6
     Pseudo is Projector augmented-wave + core cor, Zval = 11.0
     Generated using "atomic" code by A. Dal Corso v.5.0.2 svn rev. 9415
     Shape of augmentation charge: PSQ
     Using radial grid of 1279 points,  6 beta functions with: 
                l(1) =   0
                l(2) =   0
                l(3) =   1
                l(4) =   1
                l(5) =   2
                l(6) =   2
     Q(r) pseudized with 0 coefficients 


     atomic species   valence    mass     pseudopotential
        Mn            15.00    54.93800     Mn( 1.00)
        Au            11.00   196.96600     Au( 1.00)

     Starting magnetic structure 
     atomic species   magnetization
        Mn           0.800
        Au           0.000


     Full LDA+U calculation (l_max = 2) with parameters (eV):
     U(  1) =   3.1200   J(  1) =   0.7000   B(  1) =   0.0803



     16 Sym. Ops., with inversion, found



   Cartesian axes

     site n.     atom                  positions (alat units)
         1           Mn  tau(   1) = (   0.0000000   0.0000000   0.0000000  )
         2           Mn  tau(   2) = (   0.5000000   0.5000000   1.3079615  )
         3           Mn  tau(   3) = (   0.0000000   0.0000000   2.6159231  )
         4           Mn  tau(   4) = (   0.5000000   0.5000000   3.9238846  )
         5           Mn  tau(   5) = (   0.0000000   0.0000000   5.2318461  )
         6           Mn  tau(   6) = (   0.5000000   0.5000000   6.5398077  )
         7           Mn  tau(   7) = (   0.0000000   0.0000000   7.8477692  )
         8           Mn  tau(   8) = (   0.5000000   0.5000000   9.1557307  )
         9           Au  tau(   9) = (   0.5000000   0.5000000   0.4185477  )
        10           Au  tau(  10) = (   0.0000000   0.0000000   0.8894138  )
        11           Au  tau(  11) = (   0.0000000   0.0000000   1.7265092  )
        12           Au  tau(  12) = (   0.5000000   0.5000000   2.1973754  )
        13           Au  tau(  13) = (   0.5000000   0.5000000   3.0344708  )
        14           Au  tau(  14) = (   0.0000000   0.0000000   3.5053369  )
        15           Au  tau(  15) = (   0.0000000   0.0000000   4.3424323  )
        16           Au  tau(  16) = (   0.5000000   0.5000000   4.8132984  )
        17           Au  tau(  17) = (   0.5000000   0.5000000   5.6503938  )
        18           Au  tau(  18) = (   0.0000000   0.0000000   6.1212600  )
        19           Au  tau(  19) = (   0.0000000   0.0000000   6.9583554  )
        20           Au  tau(  20) = (   0.5000000   0.5000000   7.4292215  )
        21           Au  tau(  21) = (   0.5000000   0.5000000   8.2663169  )
        22           Au  tau(  22) = (   0.0000000   0.0000000   8.7371830  )
        23           Au  tau(  23) = (   0.0000000   0.0000000   9.5742784  )
        24           Au  tau(  24) = (   0.5000000   0.5000000  10.0451446  )

     number of k points=    75 (tetrahedron method)
                       cart. coord. in units 2pi/alat
        k(    1) = (   0.0000000   0.0000000   0.0000000), wk =   0.0019531
        k(    2) = (   0.0000000   0.0000000   0.0119461), wk =   0.0039062
        k(    3) = (   0.0000000   0.0000000   0.0238921), wk =   0.0039062
        k(    4) = (   0.0000000   0.0000000   0.0358382), wk =   0.0039062
        k(    5) = (   0.0000000   0.0000000  -0.0477843), wk =   0.0019531
        k(    6) = (   0.0000000   0.1250000   0.0000000), wk =   0.0078125
        k(    7) = (   0.0000000   0.1250000   0.0119461), wk =   0.0156250
        k(    8) = (   0.0000000   0.1250000   0.0238921), wk =   0.0156250
        k(    9) = (   0.0000000   0.1250000   0.0358382), wk =   0.0156250
        k(   10) = (   0.0000000   0.1250000  -0.0477843), wk =   0.0078125
        k(   11) = (   0.0000000   0.2500000   0.0000000), wk =   0.0078125
        k(   12) = (   0.0000000   0.2500000   0.0119461), wk =   0.0156250
        k(   13) = (   0.0000000   0.2500000   0.0238921), wk =   0.0156250
        k(   14) = (   0.0000000   0.2500000   0.0358382), wk =   0.0156250
        k(   15) = (   0.0000000   0.2500000  -0.0477843), wk =   0.0078125
        k(   16) = (   0.0000000   0.3750000   0.0000000), wk =   0.0078125
        k(   17) = (   0.0000000   0.3750000   0.0119461), wk =   0.0156250
        k(   18) = (   0.0000000   0.3750000   0.0238921), wk =   0.0156250
        k(   19) = (   0.0000000   0.3750000   0.0358382), wk =   0.0156250
        k(   20) = (   0.0000000   0.3750000  -0.0477843), wk =   0.0078125
        k(   21) = (   0.0000000  -0.5000000   0.0000000), wk =   0.0039062
        k(   22) = (   0.0000000  -0.5000000   0.0119461), wk =   0.0078125
        k(   23) = (   0.0000000  -0.5000000   0.0238921), wk =   0.0078125
        k(   24) = (   0.0000000  -0.5000000   0.0358382), wk =   0.0078125
        k(   25) = (   0.0000000  -0.5000000  -0.0477843), wk =   0.0039062
        k(   26) = (   0.1250000   0.1250000   0.0000000), wk =   0.0078125
        k(   27) = (   0.1250000   0.1250000   0.0119461), wk =   0.0156250
        k(   28) = (   0.1250000   0.1250000   0.0238921), wk =   0.0156250
        k(   29) = (   0.1250000   0.1250000   0.0358382), wk =   0.0156250
        k(   30) = (   0.1250000   0.1250000  -0.0477843), wk =   0.0078125
        k(   31) = (   0.1250000   0.2500000   0.0000000), wk =   0.0156250
        k(   32) = (   0.1250000   0.2500000   0.0119461), wk =   0.0312500
        k(   33) = (   0.1250000   0.2500000   0.0238921), wk =   0.0312500
        k(   34) = (   0.1250000   0.2500000   0.0358382), wk =   0.0312500
        k(   35) = (   0.1250000   0.2500000  -0.0477843), wk =   0.0156250
        k(   36) = (   0.1250000   0.3750000   0.0000000), wk =   0.0156250
        k(   37) = (   0.1250000   0.3750000   0.0119461), wk =   0.0312500
        k(   38) = (   0.1250000   0.3750000   0.0238921), wk =   0.0312500
        k(   39) = (   0.1250000   0.3750000   0.0358382), wk =   0.0312500
        k(   40) = (   0.1250000   0.3750000  -0.0477843), wk =   0.0156250
        k(   41) = (   0.1250000  -0.5000000   0.0000000), wk =   0.0078125
        k(   42) = (   0.1250000  -0.5000000   0.0119461), wk =   0.0156250
        k(   43) = (   0.1250000  -0.5000000   0.0238921), wk =   0.0156250
        k(   44) = (   0.1250000  -0.5000000   0.0358382), wk =   0.0156250
        k(   45) = (   0.1250000  -0.5000000  -0.0477843), wk =   0.0078125
        k(   46) = (   0.2500000   0.2500000   0.0000000), wk =   0.0078125
        k(   47) = (   0.2500000   0.2500000   0.0119461), wk =   0.0156250
        k(   48) = (   0.2500000   0.2500000   0.0238921), wk =   0.0156250
        k(   49) = (   0.2500000   0.2500000   0.0358382), wk =   0.0156250
        k(   50) = (   0.2500000   0.2500000  -0.0477843), wk =   0.0078125
        k(   51) = (   0.2500000   0.3750000   0.0000000), wk =   0.0156250
        k(   52) = (   0.2500000   0.3750000   0.0119461), wk =   0.0312500
        k(   53) = (   0.2500000   0.3750000   0.0238921), wk =   0.0312500
        k(   54) = (   0.2500000   0.3750000   0.0358382), wk =   0.0312500
        k(   55) = (   0.2500000   0.3750000  -0.0477843), wk =   0.0156250
        k(   56) = (   0.2500000  -0.5000000   0.0000000), wk =   0.0078125
        k(   57) = (   0.2500000  -0.5000000   0.0119461), wk =   0.0156250
        k(   58) = (   0.2500000  -0.5000000   0.0238921), wk =   0.0156250
        k(   59) = (   0.2500000  -0.5000000   0.0358382), wk =   0.0156250
        k(   60) = (   0.2500000  -0.5000000  -0.0477843), wk =   0.0078125
        k(   61) = (   0.3750000   0.3750000   0.0000000), wk =   0.0078125
        k(   62) = (   0.3750000   0.3750000   0.0119461), wk =   0.0156250
        k(   63) = (   0.3750000   0.3750000   0.0238921), wk =   0.0156250
        k(   64) = (   0.3750000   0.3750000   0.0358382), wk =   0.0156250
        k(   65) = (   0.3750000   0.3750000  -0.0477843), wk =   0.0078125
        k(   66) = (   0.3750000  -0.5000000   0.0000000), wk =   0.0078125
        k(   67) = (   0.3750000  -0.5000000   0.0119461), wk =   0.0156250
        k(   68) = (   0.3750000  -0.5000000   0.0238921), wk =   0.0156250
        k(   69) = (   0.3750000  -0.5000000   0.0358382), wk =   0.0156250
        k(   70) = (   0.3750000  -0.5000000  -0.0477843), wk =   0.0078125
        k(   71) = (  -0.5000000  -0.5000000   0.0000000), wk =   0.0019531
        k(   72) = (  -0.5000000  -0.5000000   0.0119461), wk =   0.0039062
        k(   73) = (  -0.5000000  -0.5000000   0.0238921), wk =   0.0039062
        k(   74) = (  -0.5000000  -0.5000000   0.0358382), wk =   0.0039062
        k(   75) = (  -0.5000000  -0.5000000  -0.0477843), wk =   0.0019531

     Dense  grid:   373547 G-vectors     FFT dimensions: (  45,  45, 432)

     Smooth grid:   112863 G-vectors     FFT dimensions: (  27,  27, 288)

     Estimated max dynamical RAM per process >     275.11 MB

     Estimated total dynamical RAM >       8.60 GB
     Generating pointlists ...
     new r_m :   0.3389 (alat units)  2.1745 (a.u.) for type    1
     new r_m :   0.3389 (alat units)  2.1745 (a.u.) for type    2

     Check: negative/imaginary core charge=   -0.000006    0.000000

     Initial potential from superposition of free atoms

     starting charge  295.99426, renormalised to  296.00000
     Number of +U iterations with fixed ns =  0
     Starting occupations:
 --- enter write_ns ---
 LDA+U parameters:
U(  1) =   3.1200   J(  1) =   0.7000   B(  1) =   0.0803
atom    1   Tr[ns(na)] (up, down, total) =   5.00000  0.00000  5.00000
   spin  1
    eigenvalues: 
  1.000  1.000  1.000  1.000  1.000
    eigenvectors:
  1.000  0.000  0.000  0.000  0.000
  0.000  1.000  0.000  0.000  0.000
  0.000  0.000  1.000  0.000  0.000
  0.000  0.000  0.000  1.000  0.000
  0.000  0.000  0.000  0.000  1.000
    occupations:
  1.000  0.000  0.000  0.000  0.000
  0.000  1.000  0.000  0.000  0.000
  0.000  0.000  1.000  0.000  0.000
  0.000  0.000  0.000  1.000  0.000
  0.000  0.000  0.000  0.000  1.000
   spin  2
    eigenvalues: 
  0.000  0.000  0.000  0.000  0.000
    eigenvectors:
  1.000  0.000  0.000  0.000  0.000
  0.000  1.000  0.000  0.000  0.000
  0.000  0.000  1.000  0.000  0.000
  0.000  0.000  0.000  1.000  0.000
  0.000  0.000  0.000  0.000  1.000
    occupations:
  0.000  0.000  0.000  0.000  0.000
  0.000  0.000  0.000  0.000  0.000
  0.000  0.000  0.000  0.000  0.000
  0.000  0.000  0.000  0.000  0.000
  0.000  0.000  0.000  0.000  0.000
atomic mag. moment =     5.000000
atom    2   Tr[ns(na)] (up, down, total) =   5.00000  0.00000  5.00000
   spin  1
    eigenvalues: 
  1.000  1.000  1.000  1.000  1.000
    eigenvectors:
  1.000  0.000  0.000  0.000  0.000
  0.000  1.000  0.000  0.000  0.000
  0.000  0.000  1.000  0.000  0.000
  0.000  0.000  0.000  1.000  0.000
  0.000  0.000  0.000  0.000  1.000
    occupations:
  1.000  0.000  0.000  0.000  0.000
  0.000  1.000  0.000  0.000  0.000
  0.000  0.000  1.000  0.000  0.000
  0.000  0.000  0.000  1.000  0.000
  0.000  0.000  0.000  0.000  1.000
   spin  2
    eigenvalues: 
  0.000  0.000  0.000  0.000  0.000
    eigenvectors:
  1.000  0.000  0.000  0.000  0.000
  0.000  1.000  0.000  0.000  0.000
  0.000  0.000  1.000  0.000  0.000
  0.000  0.000  0.000  1.000  0.000
  0.000  0.000  0.000  0.000  1.000
    occupations:
  0.000  0.000  0.000  0.000  0.000
  0.000  0.000  0.000  0.000  0.000
  0.000  0.000  0.000  0.000  0.000
  0.000  0.000  0.000  0.000  0.000
  0.000  0.000  0.000  0.000  0.000
atomic mag. moment =     5.000000
atom    3   Tr[ns(na)] (up, down, total) =   5.00000  0.00000  5.00000
   spin  1
    eigenvalues: 
  1.000  1.000  1.000  1.000  1.000
    eigenvectors:
  1.000  0.000  0.000  0.000  0.000
  0.000  1.000  0.000  0.000  0.000
  0.000  0.000  1.000  0.000  0.000
  0.000  0.000  0.000  1.000  0.000
  0.000  0.000  0.000  0.000  1.000
    occupations:
  1.000  0.000  0.000  0.000  0.000
  0.000  1.000  0.000  0.000  0.000
  0.000  0.000  1.000  0.000  0.000
  0.000  0.000  0.000  1.000  0.000
  0.000  0.000  0.000  0.000  1.000
   spin  2
    eigenvalues: 
  0.000  0.000  0.000  0.000  0.000
    eigenvectors:
  1.000  0.000  0.000  0.000  0.000
  0.000  1.000  0.000  0.000  0.000
  0.000  0.000  1.000  0.000  0.000
  0.000  0.000  0.000  1.000  0.000
  0.000  0.000  0.000  0.000  1.000
    occupations:
  0.000  0.000  0.000  0.000  0.000
  0.000  0.000  0.000  0.000  0.000
  0.000  0.000  0.000  0.000  0.000
  0.000  0.000  0.000  0.000  0.000
  0.000  0.000  0.000  0.000  0.000
atomic mag. moment =     5.000000
atom    4   Tr[ns(na)] (up, down, total) =   5.00000  0.00000  5.00000
   spin  1
    eigenvalues: 
  1.000  1.000  1.000  1.000  1.000
    eigenvectors:
  1.000  0.000  0.000  0.000  0.000
  0.000  1.000  0.000  0.000  0.000
  0.000  0.000  1.000  0.000  0.000
  0.000  0.000  0.000  1.000  0.000
  0.000  0.000  0.000  0.000  1.000
    occupations:
  1.000  0.000  0.000  0.000  0.000
  0.000  1.000  0.000  0.000  0.000
  0.000  0.000  1.000  0.000  0.000
  0.000  0.000  0.000  1.000  0.000
  0.000  0.000  0.000  0.000  1.000
   spin  2
    eigenvalues: 
  0.000  0.000  0.000  0.000  0.000
    eigenvectors:
  1.000  0.000  0.000  0.000  0.000
  0.000  1.000  0.000  0.000  0.000
  0.000  0.000  1.000  0.000  0.000
  0.000  0.000  0.000  1.000  0.000
  0.000  0.000  0.000  0.000  1.000
    occupations:
  0.000  0.000  0.000  0.000  0.000
  0.000  0.000  0.000  0.000  0.000
  0.000  0.000  0.000  0.000  0.000
  0.000  0.000  0.000  0.000  0.000
  0.000  0.000  0.000  0.000  0.000
atomic mag. moment =     5.000000
atom    5   Tr[ns(na)] (up, down, total) =   5.00000  0.00000  5.00000
   spin  1
    eigenvalues: 
  1.000  1.000  1.000  1.000  1.000
    eigenvectors:
  1.000  0.000  0.000  0.000  0.000
  0.000  1.000  0.000  0.000  0.000
  0.000  0.000  1.000  0.000  0.000
  0.000  0.000  0.000  1.000  0.000
  0.000  0.000  0.000  0.000  1.000
    occupations:
  1.000  0.000  0.000  0.000  0.000
  0.000  1.000  0.000  0.000  0.000
  0.000  0.000  1.000  0.000  0.000
  0.000  0.000  0.000  1.000  0.000
  0.000  0.000  0.000  0.000  1.000
   spin  2
    eigenvalues: 
  0.000  0.000  0.000  0.000  0.000
    eigenvectors:
  1.000  0.000  0.000  0.000  0.000
  0.000  1.000  0.000  0.000  0.000
  0.000  0.000  1.000  0.000  0.000
  0.000  0.000  0.000  1.000  0.000
  0.000  0.000  0.000  0.000  1.000
    occupations:
  0.000  0.000  0.000  0.000  0.000
  0.000  0.000  0.000  0.000  0.000
  0.000  0.000  0.000  0.000  0.000
  0.000  0.000  0.000  0.000  0.000
  0.000  0.000  0.000  0.000  0.000
atomic mag. moment =     5.000000
atom    6   Tr[ns(na)] (up, down, total) =   5.00000  0.00000  5.00000
   spin  1
    eigenvalues: 
  1.000  1.000  1.000  1.000  1.000
    eigenvectors:
  1.000  0.000  0.000  0.000  0.000
  0.000  1.000  0.000  0.000  0.000
  0.000  0.000  1.000  0.000  0.000
  0.000  0.000  0.000  1.000  0.000
  0.000  0.000  0.000  0.000  1.000
    occupations:
  1.000  0.000  0.000  0.000  0.000
  0.000  1.000  0.000  0.000  0.000
  0.000  0.000  1.000  0.000  0.000
  0.000  0.000  0.000  1.000  0.000
  0.000  0.000  0.000  0.000  1.000
   spin  2
    eigenvalues: 
  0.000  0.000  0.000  0.000  0.000
    eigenvectors:
  1.000  0.000  0.000  0.000  0.000
  0.000  1.000  0.000  0.000  0.000
  0.000  0.000  1.000  0.000  0.000
  0.000  0.000  0.000  1.000  0.000
  0.000  0.000  0.000  0.000  1.000
    occupations:
  0.000  0.000  0.000  0.000  0.000
  0.000  0.000  0.000  0.000  0.000
  0.000  0.000  0.000  0.000  0.000
  0.000  0.000  0.000  0.000  0.000
  0.000  0.000  0.000  0.000  0.000
atomic mag. moment =     5.000000
atom    7   Tr[ns(na)] (up, down, total) =   5.00000  0.00000  5.00000
   spin  1
    eigenvalues: 
  1.000  1.000  1.000  1.000  1.000
    eigenvectors:
  1.000  0.000  0.000  0.000  0.000
  0.000  1.000  0.000  0.000  0.000
  0.000  0.000  1.000  0.000  0.000
  0.000  0.000  0.000  1.000  0.000
  0.000  0.000  0.000  0.000  1.000
    occupations:
  1.000  0.000  0.000  0.000  0.000
  0.000  1.000  0.000  0.000  0.000
  0.000  0.000  1.000  0.000  0.000
  0.000  0.000  0.000  1.000  0.000
  0.000  0.000  0.000  0.000  1.000
   spin  2
    eigenvalues: 
  0.000  0.000  0.000  0.000  0.000
    eigenvectors:
  1.000  0.000  0.000  0.000  0.000
  0.000  1.000  0.000  0.000  0.000
  0.000  0.000  1.000  0.000  0.000
  0.000  0.000  0.000  1.000  0.000
  0.000  0.000  0.000  0.000  1.000
    occupations:
  0.000  0.000  0.000  0.000  0.000
  0.000  0.000  0.000  0.000  0.000
  0.000  0.000  0.000  0.000  0.000
  0.000  0.000  0.000  0.000  0.000
  0.000  0.000  0.000  0.000  0.000
atomic mag. moment =     5.000000
atom    8   Tr[ns(na)] (up, down, total) =   5.00000  0.00000  5.00000
   spin  1
    eigenvalues: 
  1.000  1.000  1.000  1.000  1.000
    eigenvectors:
  1.000  0.000  0.000  0.000  0.000
  0.000  1.000  0.000  0.000  0.000
  0.000  0.000  1.000  0.000  0.000
  0.000  0.000  0.000  1.000  0.000
  0.000  0.000  0.000  0.000  1.000
    occupations:
  1.000  0.000  0.000  0.000  0.000
  0.000  1.000  0.000  0.000  0.000
  0.000  0.000  1.000  0.000  0.000
  0.000  0.000  0.000  1.000  0.000
  0.000  0.000  0.000  0.000  1.000
   spin  2
    eigenvalues: 
  0.000  0.000  0.000  0.000  0.000
    eigenvectors:
  1.000  0.000  0.000  0.000  0.000
  0.000  1.000  0.000  0.000  0.000
  0.000  0.000  1.000  0.000  0.000
  0.000  0.000  0.000  1.000  0.000
  0.000  0.000  0.000  0.000  1.000
    occupations:
  0.000  0.000  0.000  0.000  0.000
  0.000  0.000  0.000  0.000  0.000
  0.000  0.000  0.000  0.000  0.000
  0.000  0.000  0.000  0.000  0.000
  0.000  0.000  0.000  0.000  0.000
atomic mag. moment =     5.000000
N of occupied +U levels =   40.000000
 --- exit write_ns ---
 Atomic wfc used for LDA+U Projector are NOT orthogonalized
     Starting wfcs are  224 randomized atomic wfcs
     Checking if some PAW data can be deallocated... 

     total cpu time spent up to now is       46.7 secs

     Self-consistent Calculation

     iteration #  1     ecut=    45.00 Ry     beta= 0.10
     Davidson diagonalization with overlap
     ethr =  1.00E-02,  avg # of iterations =  3.1
 --- enter write_ns ---
 LDA+U parameters:
U(  1) =   3.1200   J(  1) =   0.7000   B(  1) =   0.0803
atom    1   Tr[ns(na)] (up, down, total) =   5.01756  0.39074  5.40830
   spin  1
    eigenvalues: 
  1.003  1.003  1.003  1.004  1.004
    eigenvectors:
  0.000  0.000  0.000  1.000  0.000
  0.000  0.333  0.667  0.000  0.000
  0.000  0.667  0.333  0.000  0.000
  0.000  0.000  0.000  0.000  1.000
  1.000  0.000  0.000  0.000  0.000
    occupations:
  1.004 -0.000 -0.000  0.000  0.000
 -0.000  1.003 -0.000  0.000  0.000
 -0.000 -0.000  1.003  0.000  0.000
  0.000  0.000  0.000  1.004 -0.000
  0.000  0.000  0.000 -0.000  1.003
   spin  2
    eigenvalues: 
  0.051  0.069  0.079  0.079  0.112
    eigenvectors:
  0.000  1.000  0.000  0.000  0.000
  0.000  0.000  0.400  0.600  0.000
  0.000  0.000  0.600  0.400  0.000
  1.000  0.000  0.000  0.000  0.000
  0.000  0.000  0.000  0.000  1.000
    occupations:
  0.069 -0.000 -0.000  0.000  0.000
 -0.000  0.079 -0.000  0.000  0.000
 -0.000 -0.000  0.079  0.000  0.000
  0.000  0.000  0.000  0.051 -0.000
  0.000  0.000  0.000 -0.000  0.112
atomic mag. moment =     4.626827
atom    2   Tr[ns(na)] (up, down, total) =   5.01760  0.39128  5.40887
   spin  1
    eigenvalues: 
  1.003  1.003  1.003  1.004  1.004
    eigenvectors:
  0.000  0.000  0.000  1.000  0.000
  0.000  0.295  0.705  0.000  0.000
  0.000  0.705  0.295  0.000  0.000
  0.000  0.000  0.000  0.000  1.000
  1.000  0.000  0.000  0.000  0.000
    occupations:
  1.004 -0.000 -0.000  0.000  0.000
 -0.000  1.003 -0.000  0.000  0.000
 -0.000 -0.000  1.003  0.000  0.000
  0.000  0.000  0.000  1.004 -0.000
  0.000  0.000  0.000 -0.000  1.003
   spin  2
    eigenvalues: 
  0.051  0.069  0.079  0.079  0.112
    eigenvectors:
  0.000  1.000  0.000  0.000  0.000
  0.000  0.000  0.226  0.774  0.000
  0.000  0.000  0.774  0.226  0.000
  1.000  0.000  0.000  0.000  0.000
  0.000  0.000  0.000  0.000  1.000
    occupations:
  0.069 -0.000 -0.000  0.000  0.000
 -0.000  0.079 -0.000  0.000  0.000
 -0.000 -0.000  0.079  0.000  0.000
  0.000  0.000  0.000  0.051 -0.000
  0.000  0.000  0.000 -0.000  0.112
atomic mag. moment =     4.626320
atom    3   Tr[ns(na)] (up, down, total) =   5.01761  0.39150  5.40911
   spin  1
    eigenvalues: 
  1.003  1.003  1.003  1.004  1.004
    eigenvectors:
  0.000  0.000  0.000  1.000  0.000
  0.000  0.384  0.616  0.000  0.000
  0.000  0.616  0.384  0.000  0.000
  0.000  0.000  0.000  0.000  1.000
  1.000  0.000  0.000  0.000  0.000
    occupations:
  1.004 -0.000 -0.000  0.000  0.000
 -0.000  1.003 -0.000  0.000  0.000
 -0.000 -0.000  1.003  0.000  0.000
  0.000  0.000  0.000  1.004 -0.000
  0.000  0.000  0.000 -0.000  1.003
   spin  2
    eigenvalues: 
  0.051  0.069  0.079  0.079  0.112
    eigenvectors:
  0.000  1.000  0.000  0.000  0.000
  0.000  0.000  0.317  0.683  0.000
  0.000  0.000  0.683  0.317  0.000
  1.000  0.000  0.000  0.000  0.000
  0.000  0.000  0.000  0.000  1.000
    occupations:
  0.069 -0.000 -0.000  0.000  0.000
 -0.000  0.079 -0.000  0.000  0.000
 -0.000 -0.000  0.079  0.000  0.000
  0.000  0.000  0.000  0.051 -0.000
  0.000  0.000  0.000 -0.000  0.112
atomic mag. moment =     4.626108
atom    4   Tr[ns(na)] (up, down, total) =   5.01760  0.39114  5.40874
   spin  1
    eigenvalues: 
  1.003  1.003  1.003  1.004  1.004
    eigenvectors:
  0.000  0.000  0.000  1.000  0.000
  0.000  0.372  0.628  0.000  0.000
  0.000  0.628  0.372  0.000  0.000
  0.000  0.000  0.000  0.000  1.000
  1.000  0.000  0.000  0.000  0.000
    occupations:
  1.004 -0.000 -0.000  0.000  0.000
 -0.000  1.003 -0.000  0.000  0.000
 -0.000 -0.000  1.003  0.000  0.000
  0.000  0.000  0.000  1.004 -0.000
  0.000  0.000  0.000 -0.000  1.003
   spin  2
    eigenvalues: 
  0.051  0.069  0.079  0.079  0.112
    eigenvectors:
  0.000  1.000  0.000  0.000  0.000
  0.000  0.000  0.291  0.709  0.000
  0.000  0.000  0.709  0.291  0.000
  1.000  0.000  0.000  0.000  0.000
  0.000  0.000  0.000  0.000  1.000
    occupations:
  0.069 -0.000 -0.000  0.000  0.000
 -0.000  0.079 -0.000  0.000  0.000
 -0.000 -0.000  0.079  0.000  0.000
  0.000  0.000  0.000  0.051 -0.000
  0.000  0.000  0.000 -0.000  0.112
atomic mag. moment =     4.626461
atom    5   Tr[ns(na)] (up, down, total) =   5.01761  0.39124  5.40885
   spin  1
    eigenvalues: 
  1.003  1.003  1.003  1.004  1.004
    eigenvectors:
  0.000  0.000  0.000  1.000  0.000
  0.000  0.279  0.721  0.000  0.000
  0.000  0.721  0.279  0.000  0.000
  0.000  0.000  0.000  0.000  1.000
  1.000  0.000  0.000  0.000  0.000
    occupations:
  1.004 -0.000 -0.000  0.000  0.000
 -0.000  1.003 -0.000  0.000  0.000
 -0.000 -0.000  1.003  0.000  0.000
  0.000  0.000  0.000  1.004 -0.000
  0.000  0.000  0.000 -0.000  1.003
   spin  2
    eigenvalues: 
  0.051  0.069  0.079  0.079  0.112
    eigenvectors:
  0.000  1.000  0.000  0.000  0.000
  0.000  0.000  0.327  0.673  0.000
  0.000  0.000  0.673  0.327  0.000
  1.000  0.000  0.000  0.000  0.000
  0.000  0.000  0.000  0.000  1.000
    occupations:
  0.069 -0.000 -0.000  0.000  0.000
 -0.000  0.079 -0.000  0.000  0.000
 -0.000 -0.000  0.079  0.000  0.000
  0.000  0.000  0.000  0.051 -0.000
  0.000  0.000  0.000 -0.000  0.112
atomic mag. moment =     4.626363
atom    6   Tr[ns(na)] (up, down, total) =   5.01760  0.39114  5.40874
   spin  1
    eigenvalues: 
  1.003  1.003  1.003  1.004  1.004
    eigenvectors:
  0.000  0.000  0.000  1.000  0.000
  0.000  0.368  0.632  0.000  0.000
  0.000  0.632  0.368  0.000  0.000
  0.000  0.000  0.000  0.000  1.000
  1.000  0.000  0.000  0.000  0.000
    occupations:
  1.004 -0.000 -0.000  0.000  0.000
 -0.000  1.003 -0.000  0.000  0.000
 -0.000 -0.000  1.003  0.000  0.000
  0.000  0.000  0.000  1.004 -0.000
  0.000  0.000  0.000 -0.000  1.003
   spin  2
    eigenvalues: 
  0.051  0.069  0.079  0.079  0.112
    eigenvectors:
  0.000  1.000  0.000  0.000  0.000
  0.000  0.000  0.358  0.642  0.000
  0.000  0.000  0.642  0.358  0.000
  1.000  0.000  0.000  0.000  0.000
  0.000  0.000  0.000  0.000  1.000
    occupations:
  0.069 -0.000 -0.000  0.000  0.000
 -0.000  0.079 -0.000  0.000  0.000
 -0.000 -0.000  0.079  0.000  0.000
  0.000  0.000  0.000  0.051 -0.000
  0.000  0.000  0.000 -0.000  0.112
atomic mag. moment =     4.626461
atom    7   Tr[ns(na)] (up, down, total) =   5.01761  0.39150  5.40911
   spin  1
    eigenvalues: 
  1.003  1.003  1.003  1.004  1.004
    eigenvectors:
  0.000  0.000  0.000  1.000  0.000
  0.000  0.307  0.693  0.000  0.000
  0.000  0.693  0.307  0.000  0.000
  0.000  0.000  0.000  0.000  1.000
  1.000  0.000  0.000  0.000  0.000
    occupations:
  1.004 -0.000 -0.000  0.000  0.000
 -0.000  1.003 -0.000  0.000  0.000
 -0.000 -0.000  1.003  0.000  0.000
  0.000  0.000  0.000  1.004 -0.000
  0.000  0.000  0.000 -0.000  1.003
   spin  2
    eigenvalues: 
  0.051  0.069  0.079  0.079  0.112
    eigenvectors:
  0.000  1.000  0.000  0.000  0.000
  0.000  0.000  0.390  0.610  0.000
  0.000  0.000  0.610  0.390  0.000
  1.000  0.000  0.000  0.000  0.000
  0.000  0.000  0.000  0.000  1.000
    occupations:
  0.069 -0.000 -0.000  0.000  0.000
 -0.000  0.079 -0.000  0.000  0.000
 -0.000 -0.000  0.079  0.000  0.000
  0.000  0.000  0.000  0.051 -0.000
  0.000  0.000  0.000 -0.000  0.112
atomic mag. moment =     4.626108
atom    8   Tr[ns(na)] (up, down, total) =   5.01760  0.39128  5.40887
   spin  1
    eigenvalues: 
  1.003  1.003  1.003  1.004  1.004
    eigenvectors:
  0.000  0.000  0.000  1.000  0.000
  0.000  0.287  0.713  0.000  0.000
  0.000  0.713  0.287  0.000  0.000
  0.000  0.000  0.000  0.000  1.000
  1.000  0.000  0.000  0.000  0.000
    occupations:
  1.004 -0.000 -0.000  0.000  0.000
 -0.000  1.003 -0.000  0.000  0.000
 -0.000 -0.000  1.003  0.000  0.000
  0.000  0.000  0.000  1.004 -0.000
  0.000  0.000  0.000 -0.000  1.003
   spin  2
    eigenvalues: 
  0.051  0.069  0.079  0.079  0.112
    eigenvectors:
  0.000  1.000  0.000  0.000  0.000
  0.000  0.000  0.280  0.720  0.000
  0.000  0.000  0.720  0.280  0.000
  1.000  0.000  0.000  0.000  0.000
  0.000  0.000  0.000  0.000  1.000
    occupations:
  0.069 -0.000 -0.000  0.000  0.000
 -0.000  0.079 -0.000  0.000  0.000
 -0.000 -0.000  0.079  0.000  0.000
  0.000  0.000  0.000  0.051 -0.000
  0.000  0.000  0.000 -0.000  0.112
atomic mag. moment =     4.626320
N of occupied +U levels =   43.270589
 --- exit write_ns ---

     total cpu time spent up to now is      169.8 secs

     total energy              =  -14687.29476283 Ry
     Harris-Foulkes estimate   =  -14685.82789475 Ry
     estimated scf accuracy    <      11.47282806 Ry

     total magnetization       =    40.52 Bohr mag/cell
     absolute magnetization    =    41.57 Bohr mag/cell

     iteration #  2     ecut=    45.00 Ry     beta= 0.10
     Davidson diagonalization with overlap
     ethr =  3.88E-03,  avg # of iterations =  1.0

     total cpu time spent up to now is      248.8 secs

     total energy              =  -14692.69451197 Ry
     Harris-Foulkes estimate   =  -14687.36591276 Ry
     estimated scf accuracy    <       9.25391916 Ry

     total magnetization       =    40.11 Bohr mag/cell
     absolute magnetization    =    41.32 Bohr mag/cell

     iteration #  3     ecut=    45.00 Ry     beta= 0.10
     Davidson diagonalization with overlap
     ethr =  3.13E-03,  avg # of iterations =  2.6

     total cpu time spent up to now is      367.0 secs

     total energy              =  -14693.93113556 Ry
     Harris-Foulkes estimate   =  -14694.34038798 Ry
     estimated scf accuracy    <      30.71790478 Ry

     total magnetization       =    37.18 Bohr mag/cell
     absolute magnetization    =    38.43 Bohr mag/cell

     iteration #  4     ecut=    45.00 Ry     beta= 0.10
     Davidson diagonalization with overlap
     ethr =  3.13E-03,  avg # of iterations =  1.0

     total cpu time spent up to now is      445.4 secs

     total energy              =  -14696.00435853 Ry
     Harris-Foulkes estimate   =  -14694.13598107 Ry
     estimated scf accuracy    <       4.24230341 Ry

     total magnetization       =    37.29 Bohr mag/cell
     absolute magnetization    =    38.52 Bohr mag/cell

     iteration #  5     ecut=    45.00 Ry     beta= 0.10
     Davidson diagonalization with overlap
     ethr =  1.43E-03,  avg # of iterations =  2.5

     total cpu time spent up to now is      553.1 secs

     total energy              =  -14692.83200312 Ry
     Harris-Foulkes estimate   =  -14696.64333489 Ry
     estimated scf accuracy    <      14.15845230 Ry

     total magnetization       =    34.36 Bohr mag/cell
     absolute magnetization    =    35.54 Bohr mag/cell

     iteration #  6     ecut=    45.00 Ry     beta= 0.10
     Davidson diagonalization with overlap
     ethr =  1.43E-03,  avg # of iterations =  3.1

     total cpu time spent up to now is      689.2 secs

     total energy              =  -14693.92240513 Ry
     Harris-Foulkes estimate   =  -14694.07070853 Ry
     estimated scf accuracy    <       1.71804274 Ry

     total magnetization       =    36.68 Bohr mag/cell
     absolute magnetization    =    38.18 Bohr mag/cell

     iteration #  7     ecut=    45.00 Ry     beta= 0.10
     Davidson diagonalization with overlap
     ethr =  5.80E-04,  avg # of iterations =  2.5

     total cpu time spent up to now is      791.4 secs

     total energy              =  -14693.89570033 Ry
     Harris-Foulkes estimate   =  -14693.99378070 Ry
     estimated scf accuracy    <       0.42042445 Ry

     total magnetization       =    36.20 Bohr mag/cell
     absolute magnetization    =    37.94 Bohr mag/cell

     iteration #  8     ecut=    45.00 Ry     beta= 0.10
     Davidson diagonalization with overlap
     ethr =  1.42E-04,  avg # of iterations =  3.6

     total cpu time spent up to now is      943.4 secs

     total energy              =  -14694.04162062 Ry
     Harris-Foulkes estimate   =  -14694.03783348 Ry
     estimated scf accuracy    <       0.26841274 Ry

     total magnetization       =    34.86 Bohr mag/cell
     absolute magnetization    =    37.08 Bohr mag/cell

     iteration #  9     ecut=    45.00 Ry     beta= 0.10
     Davidson diagonalization with overlap
     ethr =  9.07E-05,  avg # of iterations =  1.0

     total cpu time spent up to now is     1022.3 secs

     total energy              =  -14694.03623166 Ry
     Harris-Foulkes estimate   =  -14694.04461883 Ry
     estimated scf accuracy    <       0.47289231 Ry

     total magnetization       =    34.96 Bohr mag/cell
     absolute magnetization    =    37.12 Bohr mag/cell

     iteration # 10     ecut=    45.00 Ry     beta= 0.10
     Davidson diagonalization with overlap
     ethr =  9.07E-05,  avg # of iterations =  1.0

     total cpu time spent up to now is     1101.3 secs

     total energy              =  -14694.00562682 Ry
     Harris-Foulkes estimate   =  -14694.04121905 Ry
     estimated scf accuracy    <       0.63212315 Ry

     total magnetization       =    34.81 Bohr mag/cell
     absolute magnetization    =    37.07 Bohr mag/cell

     iteration # 11     ecut=    45.00 Ry     beta= 0.10
     Davidson diagonalization with overlap
     ethr =  9.07E-05,  avg # of iterations =  1.6

     total cpu time spent up to now is     1188.7 secs

     total energy              =  -14694.02298418 Ry
     Harris-Foulkes estimate   =  -14694.02284129 Ry
     estimated scf accuracy    <       0.08605286 Ry

     total magnetization       =    34.80 Bohr mag/cell
     absolute magnetization    =    37.13 Bohr mag/cell

     iteration # 12     ecut=    45.00 Ry     beta= 0.10
     Davidson diagonalization with overlap
     ethr =  2.91E-05,  avg # of iterations =  1.3

     total cpu time spent up to now is     1271.6 secs

     total energy              =  -14694.02320463 Ry
     Harris-Foulkes estimate   =  -14694.02425128 Ry
     estimated scf accuracy    <       0.04139349 Ry

     total magnetization       =    34.74 Bohr mag/cell
     absolute magnetization    =    37.10 Bohr mag/cell

     iteration # 13     ecut=    45.00 Ry     beta= 0.10
     Davidson diagonalization with overlap
     ethr =  1.40E-05,  avg # of iterations =  1.2

     total cpu time spent up to now is     1352.8 secs

     total energy              =  -14694.02455579 Ry
     Harris-Foulkes estimate   =  -14694.02413861 Ry
     estimated scf accuracy    <       0.01091836 Ry

     total magnetization       =    34.70 Bohr mag/cell
     absolute magnetization    =    37.10 Bohr mag/cell

     iteration # 14     ecut=    45.00 Ry     beta= 0.10
     Davidson diagonalization with overlap
     ethr =  3.69E-06,  avg # of iterations =  4.0

     total cpu time spent up to now is     1487.0 secs

     total energy              =  -14694.02639308 Ry
     Harris-Foulkes estimate   =  -14694.02580413 Ry
     estimated scf accuracy    <       0.00115317 Ry

     total magnetization       =    34.60 Bohr mag/cell
     absolute magnetization    =    37.06 Bohr mag/cell

     iteration # 15     ecut=    45.00 Ry     beta= 0.10
     Davidson diagonalization with overlap
     ethr =  3.90E-07,  avg # of iterations =  3.0

     total cpu time spent up to now is     1601.0 secs

     total energy              =  -14694.02648845 Ry
     Harris-Foulkes estimate   =  -14694.02639063 Ry
     estimated scf accuracy    <       0.00032201 Ry

     total magnetization       =    34.50 Bohr mag/cell
     absolute magnetization    =    37.02 Bohr mag/cell

     iteration # 16     ecut=    45.00 Ry     beta= 0.10
     Davidson diagonalization with overlap
     ethr =  1.09E-07,  avg # of iterations =  1.7

     total cpu time spent up to now is     1689.3 secs

     total energy              =  -14694.02654763 Ry
     Harris-Foulkes estimate   =  -14694.02648709 Ry
     estimated scf accuracy    <       0.00015058 Ry

     total magnetization       =    34.49 Bohr mag/cell
     absolute magnetization    =    37.03 Bohr mag/cell

     iteration # 17     ecut=    45.00 Ry     beta= 0.10
     Davidson diagonalization with overlap
     ethr =  5.09E-08,  avg # of iterations =  2.3

     total cpu time spent up to now is     1794.2 secs

     total energy              =  -14694.02656437 Ry
     Harris-Foulkes estimate   =  -14694.02655632 Ry
     estimated scf accuracy    <       0.00022239 Ry

     total magnetization       =    34.49 Bohr mag/cell
     absolute magnetization    =    37.03 Bohr mag/cell

     iteration # 18     ecut=    45.00 Ry     beta= 0.10
     Davidson diagonalization with overlap
     ethr =  5.09E-08,  avg # of iterations =  1.2

     total cpu time spent up to now is     1875.7 secs

     total energy              =  -14694.02656730 Ry
     Harris-Foulkes estimate   =  -14694.02654598 Ry
     estimated scf accuracy    <       0.00006767 Ry

     total magnetization       =    34.48 Bohr mag/cell
     absolute magnetization    =    37.03 Bohr mag/cell

     iteration # 19     ecut=    45.00 Ry     beta= 0.10
     Davidson diagonalization with overlap
     ethr =  2.29E-08,  avg # of iterations =  1.3

     total cpu time spent up to now is     1959.4 secs

     total energy              =  -14694.02656114 Ry
     Harris-Foulkes estimate   =  -14694.02654693 Ry
     estimated scf accuracy    <       0.00006319 Ry

     total magnetization       =    34.47 Bohr mag/cell
     absolute magnetization    =    37.03 Bohr mag/cell

     iteration # 20     ecut=    45.00 Ry     beta= 0.10
     Davidson diagonalization with overlap
