
     Program PWSCF v.6.3MaX starts on 26Mar2019 at 11:45: 8 

     This program is part of the open-source Quantum ESPRESSO suite
     for quantum simulation of materials; please cite
         "P. Giannozzi et al., J. Phys.:Condens. Matter 21 395502 (2009);
         "P. Giannozzi et al., J. Phys.:Condens. Matter 29 465901 (2017);
          URL http://www.quantum-espresso.org", 
     in publications or presentations arising from this work. More details at
     http://www.quantum-espresso.org/quote

     Parallel version (MPI), running on    16 processors

     MPI processes distributed on     1 nodes
     R & G space division:  proc/nbgrp/npool/nimage =      16
     Waiting for input...
     Reading input from standard input

     Current dimensions of program PWSCF are:
     Max number of different atomic species (ntypx) = 10
     Max number of k-points (npk) =  40000
     Max angular momentum in pseudopotentials (lmaxx) =  3
     Message from routine read_upf::
     Pseudo file ./pseudo/Mn.pbe-spn-kjpaw_psl.0.3.1.UPF has been successfully fixed on the fly.
To avoid this message in the future you can permanently fix 
 your pseudo files following instructions given in: 
https://gitlab.com/QEF/q-e/blob/master/upftools/how_to_fix_upf.md
               file Mn.pbe-spn-kjpaw_psl.0.3.1.UPF: wavefunction(s)  3P 3D renormalized
     Message from routine read_upf::
     Pseudo file ./pseudo/Mn.pbe-spn-kjpaw_psl.0.3.1.UPF has been successfully fixed on the fly.
To avoid this message in the future you can permanently fix 
 your pseudo files following instructions given in: 
https://gitlab.com/QEF/q-e/blob/master/upftools/how_to_fix_upf.md
               file Mn.pbe-spn-kjpaw_psl.0.3.1.UPF: wavefunction(s)  3P 3D renormalized
     Message from routine read_upf::
     Pseudo file ./pseudo/Au.pbe-dn-kjpaw_psl.0.1.UPF has been successfully fixed on the fly.
To avoid this message in the future you can permanently fix 
 your pseudo files following instructions given in: 
https://gitlab.com/QEF/q-e/blob/master/upftools/how_to_fix_upf.md
               file Au.pbe-dn-kjpaw_psl.0.1.UPF: wavefunction(s)  6S 6P 5D renormalized

     Subspace diagonalization in iterative solution of the eigenvalue problem:
     one sub-group per band group will be used
     scalapack distributed-memory algorithm (size of sub-group:  2*  2 procs)

     Found symmetry operation: I + (  0.0000 -0.5000  0.0000)
     This is a supercell, fractional translations are disabled
 
     Parallelization info
     --------------------
     sticks:   dense  smooth     PW     G-vecs:    dense   smooth      PW
     Min         646     290     84                22663     6843    1075
     Max         647     291     85                22664     6844    1077
     Sum       10349    4645   1353               362619   109493   17211
 


     bravais-lattice index     =            0
     lattice parameter (alat)  =      18.0125  a.u.
     unit-cell volume          =    2685.0513 (a.u.)^3
     number of atoms/cell      =           24
     number of atomic types    =            3
     number of electrons       =       296.00
     number of Kohn-Sham states=          178
     kinetic-energy cutoff     =      45.0000  Ry
     charge density cutoff     =     400.0000  Ry
     convergence threshold     =      1.0E-06
     mixing beta               =       0.1000
     number of iterations used =            8  plain     mixing
     Exchange-correlation      = SLA PW PBX PBC ( 1  4  3  4 0 0)

     celldm(1)=  18.012490  celldm(2)=   0.000000  celldm(3)=   0.000000
     celldm(4)=   0.000000  celldm(5)=   0.000000  celldm(6)=   0.000000

     crystal axes: (cart. coord. in units of alat)
               a(1) = (   0.707107  -0.707107   0.000000 )  
               a(2) = (  -0.707107  -0.707107   0.000000 )  
               a(3) = (   0.176777   0.176777  -0.459443 )  

     reciprocal axes: (cart. coord. in units 2 pi/alat)
               b(1) = (  0.707107 -0.707107  0.000000 )  
               b(2) = ( -0.707107 -0.707107 -0.544138 )  
               b(3) = (  0.000000  0.000000 -2.176550 )  


     PseudoPot. # 1 for Mn read from file:
     ./pseudo/Mn.pbe-spn-kjpaw_psl.0.3.1.UPF
     MD5 check sum: 7eef95dd2aae66803482eea66ebeebf1
     Pseudo is Projector augmented-wave + core cor, Zval = 15.0
     Generated using "atomic" code by A. Dal Corso v.5.0.99 svn rev. 10869
     Shape of augmentation charge: PSQ
     Using radial grid of 1187 points,  6 beta functions with: 
                l(1) =   0
                l(2) =   0
                l(3) =   1
                l(4) =   1
                l(5) =   2
                l(6) =   2
     Q(r) pseudized with 0 coefficients 


     PseudoPot. # 2 for Mn read from file:
     ./pseudo/Mn.pbe-spn-kjpaw_psl.0.3.1.UPF
     MD5 check sum: 7eef95dd2aae66803482eea66ebeebf1
     Pseudo is Projector augmented-wave + core cor, Zval = 15.0
     Generated using "atomic" code by A. Dal Corso v.5.0.99 svn rev. 10869
     Shape of augmentation charge: PSQ
     Using radial grid of 1187 points,  6 beta functions with: 
                l(1) =   0
                l(2) =   0
                l(3) =   1
                l(4) =   1
                l(5) =   2
                l(6) =   2
     Q(r) pseudized with 0 coefficients 


     PseudoPot. # 3 for Au read from file:
     ./pseudo/Au.pbe-dn-kjpaw_psl.0.1.UPF
     MD5 check sum: 5c9b92683623e7ae2ab3f8e525febab6
     Pseudo is Projector augmented-wave + core cor, Zval = 11.0
     Generated using "atomic" code by A. Dal Corso v.5.0.2 svn rev. 9415
     Shape of augmentation charge: PSQ
     Using radial grid of 1279 points,  6 beta functions with: 
                l(1) =   0
                l(2) =   0
                l(3) =   1
                l(4) =   1
                l(5) =   2
                l(6) =   2
     Q(r) pseudized with 0 coefficients 


     atomic species   valence    mass     pseudopotential
        Mn1           15.00    54.93800     Mn( 1.00)
        Mn2           15.00    54.93800     Mn( 1.00)
        Au            11.00   196.96600     Au( 1.00)

     Starting magnetic structure 
     atomic species   magnetization
        Mn1          1.000
        Mn2         -1.000
        Au           0.000


     Full LDA+U calculation (l_max = 2) with parameters (eV):
     U(  1) =   3.1200   J(  1) =   0.7000   B(  1) =   0.0803
     U(  2) =   3.1200   J(  2) =   0.7000   B(  2) =   0.0803



      2 Sym. Ops. (no inversion) found



   Cartesian axes

     site n.     atom                  positions (alat units)
         1           Mn1 tau(   1) = (   0.3535534  -0.3535534   0.0000000  )
         2           Mn1 tau(   2) = (   0.0000000   0.0000000   0.0000000  )
         3           Mn1 tau(   3) = (   0.0000000  -0.3535534   0.0000000  )
         4           Mn2 tau(   4) = (   0.3535534  -0.7071068   0.0000000  )
         5           Mn1 tau(   5) = (  -0.3535534  -0.3535534   0.0000000  )
         6           Mn1 tau(   6) = (   0.0000000  -0.7071068   0.0000000  )
         7           Mn1 tau(   7) = (  -0.3535534  -0.7071068   0.0000000  )
         8           Mn2 tau(   8) = (   0.0000000  -1.0606602   0.0000000  )
         9           Au  tau(   9) = (  -0.1767767  -0.1767767  -0.1470216  )
        10           Au  tau(  10) = (   0.1767767  -0.5303301  -0.1470216  )
        11           Au  tau(  11) = (  -0.1767767  -0.5303301  -0.1470216  )
        12           Au  tau(  12) = (   0.1767767  -0.8838835  -0.1470216  )
        13           Au  tau(  13) = (  -0.5303301  -0.5303301  -0.1470216  )
        14           Au  tau(  14) = (  -0.1767767  -0.8838835  -0.1470216  )
        15           Au  tau(  15) = (   0.5303301  -0.5303301  -0.1470216  )
        16           Au  tau(  16) = (   0.1767767  -0.1767767  -0.1470216  )
        17           Au  tau(  17) = (   0.3535534  -0.3535534  -0.3124210  )
        18           Au  tau(  18) = (   0.0000000   0.0000000  -0.3124210  )
        19           Au  tau(  19) = (   0.0000000  -0.3535534  -0.3124210  )
        20           Au  tau(  20) = (   0.3535534  -0.7071068  -0.3124210  )
        21           Au  tau(  21) = (  -0.3535534  -0.3535534  -0.3124210  )
        22           Au  tau(  22) = (  -0.0000000  -0.7071068  -0.3124210  )
        23           Au  tau(  23) = (  -0.3535534  -0.7071068  -0.3124210  )
        24           Au  tau(  24) = (   0.0000000  -1.0606602  -0.3124210  )

     number of k points=    30 (tetrahedron method)
                       cart. coord. in units 2pi/alat
        k(    1) = (   0.0000000   0.0000000   0.0000000), wk =   0.0156250
        k(    2) = (   0.0000000   0.0000000  -0.5441376), wk =   0.0312500
        k(    3) = (   0.0000000   0.0000000   1.0882752), wk =   0.0156250
        k(    4) = (  -0.1767767  -0.1767767  -0.1360344), wk =   0.0312500
        k(    5) = (  -0.1767767  -0.1767767  -0.6801720), wk =   0.0312500
        k(    6) = (  -0.1767767  -0.1767767   0.9522408), wk =   0.0312500
        k(    7) = (  -0.1767767  -0.1767767   0.4081032), wk =   0.0312500
        k(    8) = (   0.3535534   0.3535534   0.2720688), wk =   0.0156250
        k(    9) = (   0.3535534   0.3535534  -0.2720688), wk =   0.0312500
        k(   10) = (   0.3535534   0.3535534   1.3603439), wk =   0.0156250
        k(   11) = (   0.1767767  -0.1767767   0.0000000), wk =   0.0312500
        k(   12) = (   0.1767767  -0.1767767  -0.5441376), wk =   0.0625000
        k(   13) = (   0.1767767  -0.1767767   1.0882752), wk =   0.0312500
        k(   14) = (   0.0000000  -0.3535534  -0.1360344), wk =   0.0625000
        k(   15) = (   0.0000000  -0.3535534  -0.6801720), wk =   0.0625000
        k(   16) = (   0.0000000  -0.3535534   0.9522408), wk =   0.0625000
        k(   17) = (   0.0000000  -0.3535534   0.4081032), wk =   0.0625000
        k(   18) = (   0.5303301   0.1767767   0.2720688), wk =   0.0312500
        k(   19) = (   0.5303301   0.1767767  -0.2720688), wk =   0.0625000
        k(   20) = (   0.5303301   0.1767767   1.3603439), wk =   0.0312500
        k(   21) = (  -0.3535534   0.3535534   0.0000000), wk =   0.0156250
        k(   22) = (  -0.3535534   0.3535534  -0.5441376), wk =   0.0312500
        k(   23) = (  -0.3535534   0.3535534   1.0882752), wk =   0.0156250
        k(   24) = (  -0.5303301   0.1767767  -0.1360344), wk =   0.0312500
        k(   25) = (  -0.5303301   0.1767767  -0.6801720), wk =   0.0312500
        k(   26) = (  -0.5303301   0.1767767   0.9522408), wk =   0.0312500
        k(   27) = (  -0.5303301   0.1767767   0.4081032), wk =   0.0312500
        k(   28) = (   0.0000000   0.7071068   0.2720688), wk =   0.0156250
        k(   29) = (   0.0000000   0.7071068  -0.2720688), wk =   0.0312500
        k(   30) = (   0.0000000   0.7071068   1.3603439), wk =   0.0156250

     Dense  grid:   362619 G-vectors     FFT dimensions: ( 120, 120,  60)

     Smooth grid:   109493 G-vectors     FFT dimensions: (  80,  80,  45)

     Estimated max dynamical RAM per process >     286.87 MB

     Estimated total dynamical RAM >       4.48 GB
     Generating pointlists ...
     new r_m :   0.1196 (alat units)  2.1549 (a.u.) for type    1
     new r_m :   0.1196 (alat units)  2.1549 (a.u.) for type    2
     new r_m :   0.1196 (alat units)  2.1549 (a.u.) for type    3

     Check: negative/imaginary core charge=   -0.000006    0.000000

     Initial potential from superposition of free atoms

     starting charge  295.99426, renormalised to  296.00000
     Number of +U iterations with fixed ns =  0
     Starting occupations:
 --- enter write_ns ---
 LDA+U parameters:
U(  1) =   3.1200   J(  1) =   0.7000   B(  1) =   0.0803
U(  2) =   3.1200   J(  2) =   0.7000   B(  2) =   0.0803
atom    1   Tr[ns(na)] (up, down, total) =   5.00000  0.00000  5.00000
   spin  1
    eigenvalues: 
  1.000  1.000  1.000  1.000  1.000
    eigenvectors:
  1.000  0.000  0.000  0.000  0.000
  0.000  1.000  0.000  0.000  0.000
  0.000  0.000  1.000  0.000  0.000
  0.000  0.000  0.000  1.000  0.000
  0.000  0.000  0.000  0.000  1.000
    occupations:
  1.000  0.000  0.000  0.000  0.000
  0.000  1.000  0.000  0.000  0.000
  0.000  0.000  1.000  0.000  0.000
  0.000  0.000  0.000  1.000  0.000
  0.000  0.000  0.000  0.000  1.000
   spin  2
    eigenvalues: 
  0.000  0.000  0.000  0.000  0.000
    eigenvectors:
  1.000  0.000  0.000  0.000  0.000
  0.000  1.000  0.000  0.000  0.000
  0.000  0.000  1.000  0.000  0.000
  0.000  0.000  0.000  1.000  0.000
  0.000  0.000  0.000  0.000  1.000
    occupations:
  0.000  0.000  0.000  0.000  0.000
  0.000  0.000  0.000  0.000  0.000
  0.000  0.000  0.000  0.000  0.000
  0.000  0.000  0.000  0.000  0.000
  0.000  0.000  0.000  0.000  0.000
atomic mag. moment =     5.000000
atom    2   Tr[ns(na)] (up, down, total) =   5.00000  0.00000  5.00000
   spin  1
    eigenvalues: 
  1.000  1.000  1.000  1.000  1.000
    eigenvectors:
  1.000  0.000  0.000  0.000  0.000
  0.000  1.000  0.000  0.000  0.000
  0.000  0.000  1.000  0.000  0.000
  0.000  0.000  0.000  1.000  0.000
  0.000  0.000  0.000  0.000  1.000
    occupations:
  1.000  0.000  0.000  0.000  0.000
  0.000  1.000  0.000  0.000  0.000
  0.000  0.000  1.000  0.000  0.000
  0.000  0.000  0.000  1.000  0.000
  0.000  0.000  0.000  0.000  1.000
   spin  2
    eigenvalues: 
  0.000  0.000  0.000  0.000  0.000
    eigenvectors:
  1.000  0.000  0.000  0.000  0.000
  0.000  1.000  0.000  0.000  0.000
  0.000  0.000  1.000  0.000  0.000
  0.000  0.000  0.000  1.000  0.000
  0.000  0.000  0.000  0.000  1.000
    occupations:
  0.000  0.000  0.000  0.000  0.000
  0.000  0.000  0.000  0.000  0.000
  0.000  0.000  0.000  0.000  0.000
  0.000  0.000  0.000  0.000  0.000
  0.000  0.000  0.000  0.000  0.000
atomic mag. moment =     5.000000
atom    3   Tr[ns(na)] (up, down, total) =   5.00000  0.00000  5.00000
   spin  1
    eigenvalues: 
  1.000  1.000  1.000  1.000  1.000
    eigenvectors:
  1.000  0.000  0.000  0.000  0.000
  0.000  1.000  0.000  0.000  0.000
  0.000  0.000  1.000  0.000  0.000
  0.000  0.000  0.000  1.000  0.000
  0.000  0.000  0.000  0.000  1.000
    occupations:
  1.000  0.000  0.000  0.000  0.000
  0.000  1.000  0.000  0.000  0.000
  0.000  0.000  1.000  0.000  0.000
  0.000  0.000  0.000  1.000  0.000
  0.000  0.000  0.000  0.000  1.000
   spin  2
    eigenvalues: 
  0.000  0.000  0.000  0.000  0.000
    eigenvectors:
  1.000  0.000  0.000  0.000  0.000
  0.000  1.000  0.000  0.000  0.000
  0.000  0.000  1.000  0.000  0.000
  0.000  0.000  0.000  1.000  0.000
  0.000  0.000  0.000  0.000  1.000
    occupations:
  0.000  0.000  0.000  0.000  0.000
  0.000  0.000  0.000  0.000  0.000
  0.000  0.000  0.000  0.000  0.000
  0.000  0.000  0.000  0.000  0.000
  0.000  0.000  0.000  0.000  0.000
atomic mag. moment =     5.000000
atom    4   Tr[ns(na)] (up, down, total) =   0.00000  5.00000  5.00000
   spin  1
    eigenvalues: 
  0.000  0.000  0.000  0.000  0.000
    eigenvectors:
  1.000  0.000  0.000  0.000  0.000
  0.000  1.000  0.000  0.000  0.000
  0.000  0.000  1.000  0.000  0.000
  0.000  0.000  0.000  1.000  0.000
  0.000  0.000  0.000  0.000  1.000
    occupations:
  0.000  0.000  0.000  0.000  0.000
  0.000  0.000  0.000  0.000  0.000
  0.000  0.000  0.000  0.000  0.000
  0.000  0.000  0.000  0.000  0.000
  0.000  0.000  0.000  0.000  0.000
   spin  2
    eigenvalues: 
  1.000  1.000  1.000  1.000  1.000
    eigenvectors:
  1.000  0.000  0.000  0.000  0.000
  0.000  1.000  0.000  0.000  0.000
  0.000  0.000  1.000  0.000  0.000
  0.000  0.000  0.000  1.000  0.000
  0.000  0.000  0.000  0.000  1.000
    occupations:
  1.000  0.000  0.000  0.000  0.000
  0.000  1.000  0.000  0.000  0.000
  0.000  0.000  1.000  0.000  0.000
  0.000  0.000  0.000  1.000  0.000
  0.000  0.000  0.000  0.000  1.000
atomic mag. moment =    -5.000000
atom    5   Tr[ns(na)] (up, down, total) =   5.00000  0.00000  5.00000
   spin  1
    eigenvalues: 
  1.000  1.000  1.000  1.000  1.000
    eigenvectors:
  1.000  0.000  0.000  0.000  0.000
  0.000  1.000  0.000  0.000  0.000
  0.000  0.000  1.000  0.000  0.000
  0.000  0.000  0.000  1.000  0.000
  0.000  0.000  0.000  0.000  1.000
    occupations:
  1.000  0.000  0.000  0.000  0.000
  0.000  1.000  0.000  0.000  0.000
  0.000  0.000  1.000  0.000  0.000
  0.000  0.000  0.000  1.000  0.000
  0.000  0.000  0.000  0.000  1.000
   spin  2
    eigenvalues: 
  0.000  0.000  0.000  0.000  0.000
    eigenvectors:
  1.000  0.000  0.000  0.000  0.000
  0.000  1.000  0.000  0.000  0.000
  0.000  0.000  1.000  0.000  0.000
  0.000  0.000  0.000  1.000  0.000
  0.000  0.000  0.000  0.000  1.000
    occupations:
  0.000  0.000  0.000  0.000  0.000
  0.000  0.000  0.000  0.000  0.000
  0.000  0.000  0.000  0.000  0.000
  0.000  0.000  0.000  0.000  0.000
  0.000  0.000  0.000  0.000  0.000
atomic mag. moment =     5.000000
atom    6   Tr[ns(na)] (up, down, total) =   5.00000  0.00000  5.00000
   spin  1
    eigenvalues: 
  1.000  1.000  1.000  1.000  1.000
    eigenvectors:
  1.000  0.000  0.000  0.000  0.000
  0.000  1.000  0.000  0.000  0.000
  0.000  0.000  1.000  0.000  0.000
  0.000  0.000  0.000  1.000  0.000
  0.000  0.000  0.000  0.000  1.000
    occupations:
  1.000  0.000  0.000  0.000  0.000
  0.000  1.000  0.000  0.000  0.000
  0.000  0.000  1.000  0.000  0.000
  0.000  0.000  0.000  1.000  0.000
  0.000  0.000  0.000  0.000  1.000
   spin  2
    eigenvalues: 
  0.000  0.000  0.000  0.000  0.000
    eigenvectors:
  1.000  0.000  0.000  0.000  0.000
  0.000  1.000  0.000  0.000  0.000
  0.000  0.000  1.000  0.000  0.000
  0.000  0.000  0.000  1.000  0.000
  0.000  0.000  0.000  0.000  1.000
    occupations:
  0.000  0.000  0.000  0.000  0.000
  0.000  0.000  0.000  0.000  0.000
  0.000  0.000  0.000  0.000  0.000
  0.000  0.000  0.000  0.000  0.000
  0.000  0.000  0.000  0.000  0.000
atomic mag. moment =     5.000000
atom    7   Tr[ns(na)] (up, down, total) =   5.00000  0.00000  5.00000
   spin  1
    eigenvalues: 
  1.000  1.000  1.000  1.000  1.000
    eigenvectors:
  1.000  0.000  0.000  0.000  0.000
  0.000  1.000  0.000  0.000  0.000
  0.000  0.000  1.000  0.000  0.000
  0.000  0.000  0.000  1.000  0.000
  0.000  0.000  0.000  0.000  1.000
    occupations:
  1.000  0.000  0.000  0.000  0.000
  0.000  1.000  0.000  0.000  0.000
  0.000  0.000  1.000  0.000  0.000
  0.000  0.000  0.000  1.000  0.000
  0.000  0.000  0.000  0.000  1.000
   spin  2
    eigenvalues: 
  0.000  0.000  0.000  0.000  0.000
    eigenvectors:
  1.000  0.000  0.000  0.000  0.000
  0.000  1.000  0.000  0.000  0.000
  0.000  0.000  1.000  0.000  0.000
  0.000  0.000  0.000  1.000  0.000
  0.000  0.000  0.000  0.000  1.000
    occupations:
  0.000  0.000  0.000  0.000  0.000
  0.000  0.000  0.000  0.000  0.000
  0.000  0.000  0.000  0.000  0.000
  0.000  0.000  0.000  0.000  0.000
  0.000  0.000  0.000  0.000  0.000
atomic mag. moment =     5.000000
atom    8   Tr[ns(na)] (up, down, total) =   0.00000  5.00000  5.00000
   spin  1
    eigenvalues: 
  0.000  0.000  0.000  0.000  0.000
    eigenvectors:
  1.000  0.000  0.000  0.000  0.000
  0.000  1.000  0.000  0.000  0.000
  0.000  0.000  1.000  0.000  0.000
  0.000  0.000  0.000  1.000  0.000
  0.000  0.000  0.000  0.000  1.000
    occupations:
  0.000  0.000  0.000  0.000  0.000
  0.000  0.000  0.000  0.000  0.000
  0.000  0.000  0.000  0.000  0.000
  0.000  0.000  0.000  0.000  0.000
  0.000  0.000  0.000  0.000  0.000
   spin  2
    eigenvalues: 
  1.000  1.000  1.000  1.000  1.000
    eigenvectors:
  1.000  0.000  0.000  0.000  0.000
  0.000  1.000  0.000  0.000  0.000
  0.000  0.000  1.000  0.000  0.000
  0.000  0.000  0.000  1.000  0.000
  0.000  0.000  0.000  0.000  1.000
    occupations:
  1.000  0.000  0.000  0.000  0.000
  0.000  1.000  0.000  0.000  0.000
  0.000  0.000  1.000  0.000  0.000
  0.000  0.000  0.000  1.000  0.000
  0.000  0.000  0.000  0.000  1.000
atomic mag. moment =    -5.000000
N of occupied +U levels =   40.000000
 --- exit write_ns ---
 Atomic wfc used for LDA+U Projector are NOT orthogonalized
     Starting wfcs are  224 randomized atomic wfcs
     Checking if some PAW data can be deallocated... 

     total cpu time spent up to now is       25.1 secs

     Self-consistent Calculation

     iteration #  1     ecut=    45.00 Ry     beta= 0.10
     Davidson diagonalization with overlap
     ethr =  1.00E-02,  avg # of iterations =  4.2
 --- enter write_ns ---
 LDA+U parameters:
U(  1) =   3.1200   J(  1) =   0.7000   B(  1) =   0.0803
U(  2) =   3.1200   J(  2) =   0.7000   B(  2) =   0.0803
atom    1   Tr[ns(na)] (up, down, total) =   5.01475  0.27360  5.28836
   spin  1
    eigenvalues: 
  1.003  1.003  1.003  1.003  1.004
    eigenvectors:
  0.000  0.000  0.000  1.000  0.000
  0.001  0.499  0.500  0.000  0.000
  0.001  0.499  0.500  0.000  0.000
  0.000  0.000  0.000  0.000  1.000
  0.998  0.002  0.000  0.000  0.000
    occupations:
  1.003  0.000  0.000 -0.000 -0.000
  0.000  1.003 -0.000  0.000  0.000
  0.000 -0.000  1.003 -0.000  0.000
 -0.000  0.000 -0.000  1.004 -0.000
 -0.000  0.000  0.000 -0.000  1.003
   spin  2
    eigenvalues: 
  0.041  0.051  0.054  0.054  0.073
    eigenvectors:
  0.000  0.996  0.000  0.004  0.001
  0.000  0.002  0.500  0.498  0.000
  0.000  0.002  0.500  0.498  0.000
  1.000  0.000  0.000  0.000  0.000
  0.000  0.001  0.000  0.000  0.999
    occupations:
  0.051  0.000  0.000 -0.000  0.001
  0.000  0.054  0.000 -0.000  0.000
  0.000  0.000  0.054  0.000  0.000
 -0.000 -0.000  0.000  0.041 -0.000
  0.001  0.000  0.000 -0.000  0.073
atomic mag. moment =     4.741149
atom    2   Tr[ns(na)] (up, down, total) =   5.01484  0.27415  5.28899
   spin  1
    eigenvalues: 
  1.003  1.003  1.003  1.003  1.004
    eigenvectors:
  0.000  0.000  0.002  0.998  0.000
  0.001  0.500  0.498  0.001  0.000
  0.001  0.500  0.498  0.001  0.000
  0.000  0.000  0.000  0.000  1.000
  0.998  0.000  0.002  0.000  0.000
    occupations:
  1.003 -0.000 -0.000 -0.000 -0.000
 -0.000  1.003  0.000 -0.000 -0.000
 -0.000  0.000  1.003  0.000 -0.000
 -0.000 -0.000  0.000  1.004 -0.000
 -0.000 -0.000 -0.000 -0.000  1.003
   spin  2
    eigenvalues: 
  0.041  0.051  0.054  0.055  0.073
    eigenvectors:
  0.000  0.994  0.000  0.005  0.001
  0.000  0.003  0.500  0.497  0.000
  0.000  0.003  0.500  0.497  0.000
  1.000  0.000  0.000  0.000  0.000
  0.000  0.001  0.000  0.000  0.999
    occupations:
  0.051  0.000  0.000 -0.000  0.001
  0.000  0.054  0.000 -0.000  0.000
  0.000  0.000  0.054  0.000  0.000
 -0.000 -0.000  0.000  0.041 -0.000
  0.001  0.000  0.000 -0.000  0.073
atomic mag. moment =     4.740683
atom    3   Tr[ns(na)] (up, down, total) =   5.01499  0.27118  5.28617
   spin  1
    eigenvalues: 
  1.003  1.003  1.003  1.003  1.004
    eigenvectors:
  0.000  0.000  0.000  0.999  0.001
  0.000  0.022  0.978  0.000  0.000
  0.000  0.977  0.022  0.000  0.000
  0.000  0.000  0.000  0.001  0.999
  1.000  0.000  0.000  0.000  0.000
    occupations:
  1.003 -0.000  0.000  0.000 -0.000
 -0.000  1.003 -0.000 -0.000  0.000
  0.000 -0.000  1.003  0.000  0.000
  0.000 -0.000  0.000  1.004  0.000
 -0.000  0.000  0.000  0.000  1.003
   spin  2
    eigenvalues: 
  0.040  0.049  0.054  0.055  0.073
    eigenvectors:
  0.000  0.994  0.004  0.000  0.002
  0.000  0.002  0.466  0.532  0.000
  0.000  0.002  0.530  0.468  0.000
  1.000  0.000  0.000  0.000  0.000
  0.000  0.002  0.000  0.000  0.998
    occupations:
  0.049  0.000  0.000 -0.000 -0.001
  0.000  0.055 -0.001 -0.000  0.000
  0.000 -0.001  0.055  0.000  0.000
 -0.000 -0.000  0.000  0.040  0.000
 -0.001  0.000  0.000  0.000  0.073
atomic mag. moment =     4.743808
atom    4   Tr[ns(na)] (up, down, total) =   0.27645  5.01451  5.29096
   spin  1
    eigenvalues: 
  0.043  0.054  0.054  0.055  0.071
    eigenvectors:
  0.000  0.400  0.594  0.005  0.001
  0.000  0.307  0.151  0.542  0.000
  0.000  0.292  0.255  0.453  0.000
  1.000  0.000  0.000  0.000  0.000
  0.000  0.001  0.000  0.000  0.999
    occupations:
  0.054  0.000  0.000 -0.000 -0.000
  0.000  0.054 -0.001  0.000  0.000
  0.000 -0.001  0.054  0.000  0.000
 -0.000  0.000  0.000  0.043  0.000
 -0.000  0.000  0.000  0.000  0.071
   spin  2
    eigenvalues: 
  1.003  1.003  1.003  1.003  1.003
    eigenvectors:
  0.001  0.000  0.000  0.999  0.000
  0.000  0.542  0.458  0.000  0.000
  0.000  0.458  0.542  0.000  0.000
  0.000  0.000  0.000  0.000  0.999
  0.999  0.000  0.000  0.001  0.000
    occupations:
  1.003  0.000  0.000  0.000 -0.000
  0.000  1.003  0.000 -0.000 -0.000
  0.000  0.000  1.003  0.000 -0.000
  0.000 -0.000  0.000  1.003  0.000
 -0.000 -0.000 -0.000  0.000  1.003
atomic mag. moment =    -4.738065
atom    5   Tr[ns(na)] (up, down, total) =   5.01479  0.27423  5.28902
   spin  1
    eigenvalues: 
  1.003  1.003  1.003  1.003  1.004
    eigenvectors:
  0.000  0.001  0.000  0.998  0.000
  0.000  0.499  0.500  0.001  0.000
  0.000  0.499  0.500  0.001  0.000
  0.000  0.000  0.000  0.000  1.000
  0.999  0.000  0.000  0.000  0.000
    occupations:
  1.003  0.000  0.000 -0.000 -0.000
  0.000  1.003 -0.000  0.000  0.000
  0.000 -0.000  1.003 -0.000  0.000
 -0.000  0.000 -0.000  1.004 -0.000
 -0.000  0.000  0.000 -0.000  1.003
   spin  2
    eigenvalues: 
  0.041  0.051  0.054  0.055  0.073
    eigenvectors:
  0.000  0.997  0.000  0.002  0.001
  0.000  0.001  0.500  0.499  0.000
  0.000  0.001  0.500  0.499  0.000
  1.000  0.000  0.000  0.000  0.000
  0.000  0.001  0.000  0.000  0.999
    occupations:
  0.051  0.000  0.000 -0.000  0.001
  0.000  0.054  0.000 -0.000 -0.000
  0.000  0.000  0.054  0.000 -0.000
 -0.000 -0.000  0.000  0.041 -0.000
  0.001 -0.000 -0.000 -0.000  0.073
atomic mag. moment =     4.740558
atom    6   Tr[ns(na)] (up, down, total) =   5.01500  0.27334  5.28834
   spin  1
    eigenvalues: 
  1.003  1.003  1.003  1.003  1.004
    eigenvectors:
  0.000  0.000  0.003  0.997  0.000
  0.000  0.499  0.498  0.002  0.001
  0.000  0.499  0.498  0.002  0.001
  0.000  0.002  0.000  0.000  0.998
  0.999  0.000  0.001  0.000  0.000
    occupations:
  1.003 -0.000 -0.000 -0.000 -0.000
 -0.000  1.003  0.000  0.000  0.000
 -0.000  0.000  1.003 -0.000  0.000
 -0.000  0.000 -0.000  1.004 -0.000
 -0.000  0.000  0.000 -0.000  1.003
   spin  2
    eigenvalues: 
  0.041  0.051  0.054  0.054  0.073
    eigenvectors:
  0.000  0.998  0.000  0.001  0.001
  0.000  0.000  0.500  0.500  0.000
  0.000  0.000  0.500  0.500  0.000
  1.000  0.000  0.000  0.000  0.000
  0.000  0.001  0.000  0.000  0.999
    occupations:
  0.051  0.000  0.000 -0.000  0.001
  0.000  0.054  0.000 -0.000  0.000
  0.000  0.000  0.054  0.000  0.000
 -0.000 -0.000  0.000  0.041 -0.000
  0.001  0.000  0.000 -0.000  0.073
atomic mag. moment =     4.741652
atom    7   Tr[ns(na)] (up, down, total) =   5.01499  0.27118  5.28617
   spin  1
    eigenvalues: 
  1.003  1.003  1.003  1.003  1.004
    eigenvectors:
  0.000  0.000  0.000  0.999  0.001
  0.000  0.977  0.022  0.000  0.000
  0.000  0.022  0.978  0.000  0.000
  0.000  0.000  0.000  0.001  0.999
  1.000  0.000  0.000  0.000  0.000
    occupations:
  1.003  0.000 -0.000 -0.000 -0.000
  0.000  1.003 -0.000 -0.000  0.000
 -0.000 -0.000  1.003  0.000  0.000
 -0.000 -0.000  0.000  1.004 -0.000
 -0.000  0.000  0.000 -0.000  1.003
   spin  2
    eigenvalues: 
  0.040  0.049  0.054  0.055  0.073
    eigenvectors:
  0.000  0.994  0.004  0.000  0.002
  0.000  0.002  0.530  0.468  0.000
  0.000  0.002  0.466  0.532  0.000
  1.000  0.000  0.000  0.000  0.000
  0.000  0.002  0.000  0.000  0.998
    occupations:
  0.049  0.000  0.000  0.000 -0.001
  0.000  0.055 -0.001 -0.000  0.000
  0.000 -0.001  0.055  0.000  0.000
  0.000 -0.000  0.000  0.040 -0.000
 -0.001  0.000  0.000 -0.000  0.073
atomic mag. moment =     4.743808
atom    8   Tr[ns(na)] (up, down, total) =   0.27645  5.01451  5.29096
   spin  1
    eigenvalues: 
  0.043  0.054  0.054  0.055  0.071
    eigenvectors:
  0.000  0.400  0.594  0.005  0.001
  0.000  0.292  0.255  0.453  0.000
  0.000  0.307  0.151  0.542  0.000
  1.000  0.000  0.000  0.000  0.000
  0.000  0.001  0.000  0.000  0.999
    occupations:
  0.054  0.000  0.000  0.000 -0.000
  0.000  0.054 -0.001 -0.000  0.000
  0.000 -0.001  0.054 -0.000  0.000
  0.000 -0.000 -0.000  0.043 -0.000
 -0.000  0.000  0.000 -0.000  0.071
   spin  2
    eigenvalues: 
  1.003  1.003  1.003  1.003  1.003
    eigenvectors:
  0.001  0.000  0.000  0.999  0.000
  0.000  0.458  0.542  0.000  0.000
  0.000  0.542  0.458  0.000  0.000
  0.000  0.000  0.000  0.000  0.999
  0.999  0.000  0.000  0.001  0.000
    occupations:
  1.003  0.000  0.000 -0.000 -0.000
  0.000  1.003  0.000 -0.000 -0.000
  0.000  0.000  1.003  0.000 -0.000
 -0.000 -0.000  0.000  1.003 -0.000
 -0.000 -0.000 -0.000 -0.000  1.003
atomic mag. moment =    -4.738065
N of occupied +U levels =   42.308978
 --- exit write_ns ---

     total cpu time spent up to now is       94.8 secs

     total energy              =  -14679.19357912 Ry
     Harris-Foulkes estimate   =  -14669.83655232 Ry
     estimated scf accuracy    <      21.26751718 Ry

     total magnetization       =    20.96 Bohr mag/cell
     absolute magnetization    =    43.59 Bohr mag/cell

     iteration #  2     ecut=    45.00 Ry     beta= 0.10
     Davidson diagonalization with overlap
     ethr =  7.18E-03,  avg # of iterations =  1.0

     total cpu time spent up to now is      133.3 secs

     total energy              =  -14692.16126252 Ry
     Harris-Foulkes estimate   =  -14679.29823646 Ry
     estimated scf accuracy    <      17.16558771 Ry

     total magnetization       =    20.67 Bohr mag/cell
     absolute magnetization    =    43.15 Bohr mag/cell

     iteration #  3     ecut=    45.00 Ry     beta= 0.10
     Davidson diagonalization with overlap
     ethr =  5.80E-03,  avg # of iterations =  2.2

     total cpu time spent up to now is      179.8 secs

     total energy              =  -14693.80420617 Ry
     Harris-Foulkes estimate   =  -14693.78762394 Ry
     estimated scf accuracy    <       4.09761921 Ry

     total magnetization       =    18.72 Bohr mag/cell
     absolute magnetization    =    39.22 Bohr mag/cell

     iteration #  4     ecut=    45.00 Ry     beta= 0.10
     Davidson diagonalization with overlap
     ethr =  1.38E-03,  avg # of iterations =  4.9

     total cpu time spent up to now is      242.5 secs

     total energy              =  -14693.77331067 Ry
     Harris-Foulkes estimate   =  -14693.84568749 Ry
     estimated scf accuracy    <       4.14654483 Ry

     total magnetization       =    18.65 Bohr mag/cell
     absolute magnetization    =    39.03 Bohr mag/cell

     iteration #  5     ecut=    45.00 Ry     beta= 0.10
     Davidson diagonalization with overlap
     ethr =  1.38E-03,  avg # of iterations =  1.6

     total cpu time spent up to now is      284.1 secs

     total energy              =  -14693.26969886 Ry
     Harris-Foulkes estimate   =  -14693.79203327 Ry
     estimated scf accuracy    <       3.11764712 Ry

     total magnetization       =    18.71 Bohr mag/cell
     absolute magnetization    =    39.05 Bohr mag/cell

     iteration #  6     ecut=    45.00 Ry     beta= 0.10
     Davidson diagonalization with overlap
     ethr =  1.05E-03,  avg # of iterations =  4.4

     total cpu time spent up to now is      369.3 secs

     total energy              =  -14693.89764739 Ry
     Harris-Foulkes estimate   =  -14693.96801787 Ry
     estimated scf accuracy    <       0.98494017 Ry

     total magnetization       =    17.10 Bohr mag/cell
     absolute magnetization    =    37.32 Bohr mag/cell

     iteration #  7     ecut=    45.00 Ry     beta= 0.10
     Davidson diagonalization with overlap
     ethr =  3.33E-04,  avg # of iterations =  1.1

     total cpu time spent up to now is      408.3 secs

     total energy              =  -14693.93001048 Ry
     Harris-Foulkes estimate   =  -14693.92215873 Ry
     estimated scf accuracy    <       0.42809216 Ry

     total magnetization       =    17.32 Bohr mag/cell
     absolute magnetization    =    37.34 Bohr mag/cell

     iteration #  8     ecut=    45.00 Ry     beta= 0.10
     Davidson diagonalization with overlap
     ethr =  1.45E-04,  avg # of iterations =  1.1

     total cpu time spent up to now is      447.4 secs

     total energy              =  -14693.92571860 Ry
     Harris-Foulkes estimate   =  -14693.93525447 Ry
     estimated scf accuracy    <       0.37709096 Ry

     total magnetization       =    17.31 Bohr mag/cell
     absolute magnetization    =    37.17 Bohr mag/cell

     iteration #  9     ecut=    45.00 Ry     beta= 0.10
     Davidson diagonalization with overlap
     ethr =  1.27E-04,  avg # of iterations =  1.0

     total cpu time spent up to now is      485.7 secs

     total energy              =  -14693.93972851 Ry
     Harris-Foulkes estimate   =  -14693.92847001 Ry
     estimated scf accuracy    <       0.23655511 Ry

     total magnetization       =    17.34 Bohr mag/cell
     absolute magnetization    =    37.16 Bohr mag/cell

     iteration # 10     ecut=    45.00 Ry     beta= 0.10
     Davidson diagonalization with overlap
     ethr =  7.99E-05,  avg # of iterations =  1.1

     total cpu time spent up to now is      524.7 secs

     total energy              =  -14693.91760864 Ry
     Harris-Foulkes estimate   =  -14693.94652973 Ry
     estimated scf accuracy    <       0.10687868 Ry

     total magnetization       =    17.17 Bohr mag/cell
     absolute magnetization    =    36.82 Bohr mag/cell

     iteration # 11     ecut=    45.00 Ry     beta= 0.10
     Davidson diagonalization with overlap
     ethr =  3.61E-05,  avg # of iterations =  3.9

     total cpu time spent up to now is      597.8 secs

     total energy              =  -14693.94197095 Ry
     Harris-Foulkes estimate   =  -14693.94820366 Ry
     estimated scf accuracy    <       0.03851703 Ry

     total magnetization       =    17.19 Bohr mag/cell
     absolute magnetization    =    36.66 Bohr mag/cell

     iteration # 12     ecut=    45.00 Ry     beta= 0.10
     Davidson diagonalization with overlap
     ethr =  1.30E-05,  avg # of iterations =  1.1

     total cpu time spent up to now is      636.6 secs

     total energy              =  -14693.94051454 Ry
     Harris-Foulkes estimate   =  -14693.94325564 Ry
     estimated scf accuracy    <       0.01178876 Ry

     total magnetization       =    17.17 Bohr mag/cell
     absolute magnetization    =    36.64 Bohr mag/cell

     iteration # 13     ecut=    45.00 Ry     beta= 0.10
     Davidson diagonalization with overlap
     ethr =  3.98E-06,  avg # of iterations =  2.8

     total cpu time spent up to now is      699.6 secs

     total energy              =  -14693.94223273 Ry
     Harris-Foulkes estimate   =  -14693.94279804 Ry
     estimated scf accuracy    <       0.00287740 Ry

     total magnetization       =    17.12 Bohr mag/cell
     absolute magnetization    =    36.68 Bohr mag/cell

     iteration # 14     ecut=    45.00 Ry     beta= 0.10
     Davidson diagonalization with overlap
     ethr =  9.72E-07,  avg # of iterations =  2.3

     total cpu time spent up to now is      746.9 secs

     total energy              =  -14693.94285456 Ry
     Harris-Foulkes estimate   =  -14693.94263920 Ry
     estimated scf accuracy    <       0.00049418 Ry

     total magnetization       =    17.15 Bohr mag/cell
     absolute magnetization    =    36.71 Bohr mag/cell

     iteration # 15     ecut=    45.00 Ry     beta= 0.10
     Davidson diagonalization with overlap
     ethr =  1.67E-07,  avg # of iterations =  3.4

     total cpu time spent up to now is      799.9 secs

     total energy              =  -14693.94305858 Ry
     Harris-Foulkes estimate   =  -14693.94296417 Ry
     estimated scf accuracy    <       0.00018998 Ry

     total magnetization       =    17.11 Bohr mag/cell
     absolute magnetization    =    36.67 Bohr mag/cell

     iteration # 16     ecut=    45.00 Ry     beta= 0.10
     Davidson diagonalization with overlap
     ethr =  6.42E-08,  avg # of iterations =  2.5

     total cpu time spent up to now is      846.8 secs

     total energy              =  -14693.94311612 Ry
     Harris-Foulkes estimate   =  -14693.94307922 Ry
     estimated scf accuracy    <       0.00007423 Ry

     total magnetization       =    17.11 Bohr mag/cell
     absolute magnetization    =    36.67 Bohr mag/cell

     iteration # 17     ecut=    45.00 Ry     beta= 0.10
     Davidson diagonalization with overlap
     ethr =  2.51E-08,  avg # of iterations =  2.5

     total cpu time spent up to now is      894.1 secs

     total energy              =  -14693.94314749 Ry
     Harris-Foulkes estimate   =  -14693.94313150 Ry
     estimated scf accuracy    <       0.00003818 Ry

     total magnetization       =    17.10 Bohr mag/cell
     absolute magnetization    =    36.67 Bohr mag/cell

     iteration # 18     ecut=    45.00 Ry     beta= 0.10
     Davidson diagonalization with overlap
     ethr =  1.29E-08,  avg # of iterations =  2.2

     total cpu time spent up to now is      939.9 secs

     total energy              =  -14693.94316747 Ry
     Harris-Foulkes estimate   =  -14693.94315390 Ry
     estimated scf accuracy    <       0.00001877 Ry

     total magnetization       =    17.10 Bohr mag/cell
     absolute magnetization    =    36.67 Bohr mag/cell

     iteration # 19     ecut=    45.00 Ry     beta= 0.10
     Davidson diagonalization with overlap
     ethr =  6.34E-09,  avg # of iterations =  2.9

     total cpu time spent up to now is      993.1 secs

     total energy              =  -14693.94318124 Ry
     Harris-Foulkes estimate   =  -14693.94317618 Ry
     estimated scf accuracy    <       0.00000494 Ry

     total magnetization       =    17.09 Bohr mag/cell
     absolute magnetization    =    36.66 Bohr mag/cell

     iteration # 20     ecut=    45.00 Ry     beta= 0.10
     Davidson diagonalization with overlap
     ethr =  1.67E-09,  avg # of iterations =  2.3

     total cpu time spent up to now is     1038.4 secs

     total energy              =  -14693.94318508 Ry
     Harris-Foulkes estimate   =  -14693.94318147 Ry
     estimated scf accuracy    <       0.00000288 Ry

     total magnetization       =    17.09 Bohr mag/cell
     absolute magnetization    =    36.66 Bohr mag/cell

     iteration # 21     ecut=    45.00 Ry     beta= 0.10
     Davidson diagonalization with overlap
     ethr =  9.74E-10,  avg # of iterations =  2.3

     total cpu time spent up to now is     1083.8 secs

     total energy              =  -14693.94318922 Ry
     Harris-Foulkes estimate   =  -14693.94318660 Ry
     estimated scf accuracy    <       0.00000144 Ry

     total magnetization       =    17.09 Bohr mag/cell
     absolute magnetization    =    36.66 Bohr mag/cell

     iteration # 22     ecut=    45.00 Ry     beta= 0.10
     Davidson diagonalization with overlap
     ethr =  4.88E-10,  avg # of iterations =  2.6
 
     Magnetic moment per site:
     atom:    1    charge:   13.5448    magn:    4.2047    constr:    0.0000
     atom:    2    charge:   13.5449    magn:    4.2047    constr:    0.0000
     atom:    3    charge:   13.5481    magn:    4.1730    constr:    0.0000
     atom:    4    charge:   13.5365    magn:   -4.2623    constr:    0.0000
     atom:    5    charge:   13.5444    magn:    4.2069    constr:    0.0000
     atom:    6    charge:   13.5445    magn:    4.2068    constr:    0.0000
     atom:    7    charge:   13.5481    magn:    4.1730    constr:    0.0000
     atom:    8    charge:   13.5365    magn:   -4.2623    constr:    0.0000
     atom:    9    charge:    9.0898    magn:    0.0099    constr:    0.0000
     atom:   10    charge:    9.0898    magn:    0.0099    constr:    0.0000
     atom:   11    charge:    9.0920    magn:    0.0474    constr:    0.0000
     atom:   12    charge:    9.0913    magn:   -0.0060    constr:    0.0000
     atom:   13    charge:    9.0898    magn:    0.0099    constr:    0.0000
     atom:   14    charge:    9.0899    magn:    0.0099    constr:    0.0000
     atom:   15    charge:    9.0911    magn:   -0.0061    constr:    0.0000
     atom:   16    charge:    9.0920    magn:    0.0478    constr:    0.0000
     atom:   17    charge:    9.0899    magn:    0.0099    constr:    0.0000
     atom:   18    charge:    9.0898    magn:    0.0099    constr:    0.0000
     atom:   19    charge:    9.0920    magn:    0.0474    constr:    0.0000
     atom:   20    charge:    9.0913    magn:   -0.0060    constr:    0.0000
     atom:   21    charge:    9.0898    magn:    0.0099    constr:    0.0000
     atom:   22    charge:    9.0898    magn:    0.0099    constr:    0.0000
     atom:   23    charge:    9.0920    magn:    0.0478    constr:    0.0000
     atom:   24    charge:    9.0911    magn:   -0.0061    constr:    0.0000

     total cpu time spent up to now is     1131.7 secs

     End of self-consistent calculation
 --- enter write_ns ---
 LDA+U parameters:
U(  1) =   3.1200   J(  1) =   0.7000   B(  1) =   0.0803
U(  2) =   3.1200   J(  2) =   0.7000   B(  2) =   0.0803
atom    1   Tr[ns(na)] (up, down, total) =   4.96712  0.76359  5.73071
   spin  1
    eigenvalues: 
  0.984  0.993  0.993  0.996  1.001
    eigenvectors:
  0.000  0.001  0.000  0.999  0.000
  0.002  0.498  0.500  0.000  0.000
  0.002  0.498  0.500  0.000  0.000
  0.000  0.000  0.000  0.000  1.000
  0.996  0.004  0.000  0.000  0.000
    occupations:
  0.996 -0.000 -0.000 -0.000  0.000
 -0.000  0.993 -0.000  0.000 -0.000
 -0.000 -0.000  0.993 -0.000 -0.000
 -0.000  0.000 -0.000  1.001 -0.000
  0.000 -0.000 -0.000 -0.000  0.984
   spin  2
    eigenvalues: 
  0.068  0.140  0.146  0.152  0.258
    eigenvectors:
  0.000  0.905  0.000  0.087  0.008
  0.000  0.044  0.500  0.455  0.000
  0.000  0.044  0.500  0.455  0.000
  1.000  0.000  0.000  0.000  0.000
  0.000  0.007  0.000  0.002  0.991
    occupations:
  0.142  0.003  0.003 -0.000 -0.011
  0.003  0.148  0.002 -0.000 -0.001
  0.003  0.002  0.148  0.000 -0.001
 -0.000 -0.000  0.000  0.068 -0.000
 -0.011 -0.001 -0.001 -0.000  0.257
atomic mag. moment =     4.203530
atom    2   Tr[ns(na)] (up, down, total) =   4.96713  0.76363  5.73076
   spin  1
    eigenvalues: 
  0.984  0.993  0.993  0.996  1.001
    eigenvectors:
  0.000  0.001  0.000  0.999  0.000
  0.002  0.498  0.500  0.000  0.000
  0.002  0.498  0.500  0.000  0.000
  0.000  0.000  0.000  0.000  1.000
  0.996  0.004  0.000  0.000  0.000
    occupations:
  0.996 -0.000 -0.000 -0.000  0.000
 -0.000  0.993 -0.000  0.000 -0.000
 -0.000 -0.000  0.993 -0.000 -0.000
 -0.000  0.000 -0.000  1.001 -0.000
  0.000 -0.000 -0.000 -0.000  0.984
   spin  2
    eigenvalues: 
  0.068  0.140  0.146  0.152  0.258
    eigenvectors:
  0.000  0.905  0.000  0.087  0.008
  0.000  0.044  0.500  0.455  0.000
  0.000  0.044  0.500  0.455  0.000
  1.000  0.000  0.000  0.000  0.000
  0.000  0.007  0.000  0.002  0.991
    occupations:
  0.142  0.003  0.003 -0.000 -0.011
  0.003  0.148  0.002 -0.000 -0.001
  0.003  0.002  0.148  0.000 -0.001
 -0.000 -0.000  0.000  0.068 -0.000
 -0.011 -0.001 -0.001 -0.000  0.257
atomic mag. moment =     4.203494
atom    3   Tr[ns(na)] (up, down, total) =   4.96422  0.78883  5.75305
   spin  1
    eigenvalues: 
  0.983  0.990  0.993  0.997  1.001
    eigenvectors:
  0.000  0.000  0.009  0.991  0.000
  0.002  0.500  0.494  0.005  0.000
  0.002  0.500  0.494  0.005  0.000
  0.000  0.000  0.000  0.000  1.000
  0.996  0.000  0.004  0.000  0.000
    occupations:
  0.997  0.000  0.000 -0.000  0.000
  0.000  0.992  0.001  0.000 -0.000
  0.000  0.001  0.992 -0.000 -0.000
 -0.000  0.000 -0.000  1.001  0.000
  0.000 -0.000 -0.000  0.000  0.983
   spin  2
    eigenvalues: 
  0.066  0.142  0.148  0.162  0.271
    eigenvectors:
  0.000  0.000  0.990  0.010  0.000
  0.000  0.500  0.005  0.495  0.000
  0.000  0.500  0.005  0.495  0.000
  1.000  0.000  0.000  0.000  0.000
  0.000  0.000  0.000  0.001  0.999
    occupations:
  0.148  0.001  0.001 -0.000  0.002
  0.001  0.152  0.010 -0.001  0.002
  0.001  0.010  0.152  0.001  0.002
 -0.000 -0.001  0.001  0.066 -0.000
  0.002  0.002  0.002 -0.000  0.271
atomic mag. moment =     4.175392
atom    4   Tr[ns(na)] (up, down, total) =   0.71982  4.97044  5.69026
   spin  1
    eigenvalues: 
  0.071  0.122  0.140  0.149  0.238
    eigenvectors:
  0.000  0.517  0.436  0.000  0.047
  0.000  0.235  0.262  0.500  0.003
  0.000  0.235  0.262  0.500  0.003
  1.000  0.000  0.000  0.000  0.000
  0.000  0.012  0.041  0.000  0.948
    occupations:
  0.135  0.007  0.007 -0.000 -0.022
  0.007  0.140 -0.008 -0.000 -0.004
  0.007 -0.008  0.140  0.000 -0.004
 -0.000 -0.000  0.000  0.071  0.000
 -0.022 -0.004 -0.004  0.000  0.233
   spin  2
    eigenvalues: 
  0.986  0.993  0.993  0.997  1.001
    eigenvectors:
  0.002  0.000  0.004  0.994  0.000
  0.001  0.500  0.497  0.002  0.000
  0.001  0.500  0.497  0.002  0.000
  0.000  0.000  0.000  0.000  1.000
  0.996  0.000  0.002  0.002  0.000
    occupations:
  0.997  0.000  0.000  0.000  0.000
  0.000  0.993  0.000  0.000 -0.000
  0.000  0.000  0.993 -0.000 -0.000
  0.000  0.000 -0.000  1.001 -0.000
  0.000 -0.000 -0.000 -0.000  0.986
atomic mag. moment =    -4.250614
atom    5   Tr[ns(na)] (up, down, total) =   4.96741  0.76211  5.72953
   spin  1
    eigenvalues: 
  0.984  0.993  0.993  0.996  1.001
    eigenvectors:
  0.000  0.000  0.000  1.000  0.000
  0.002  0.498  0.500  0.000  0.000
  0.002  0.498  0.500  0.000  0.000
  0.000  0.000  0.000  0.000  1.000
  0.996  0.004  0.000  0.000  0.000
    occupations:
  0.996 -0.000 -0.000 -0.000  0.000
 -0.000  0.993 -0.000  0.000 -0.000
 -0.000 -0.000  0.993 -0.000 -0.000
 -0.000  0.000 -0.000  1.001 -0.000
  0.000 -0.000 -0.000 -0.000  0.984
   spin  2
    eigenvalues: 
  0.068  0.138  0.147  0.152  0.256
    eigenvectors:
  0.000  0.924  0.000  0.067  0.010
  0.000  0.034  0.500  0.466  0.000
  0.000  0.034  0.500  0.466  0.000
  1.000  0.000  0.000  0.000  0.000
  0.000  0.008  0.000  0.002  0.990
    occupations:
  0.140  0.002  0.002 -0.000 -0.011
  0.002  0.149  0.002 -0.001 -0.001
  0.002  0.002  0.149  0.001 -0.001
 -0.000 -0.001  0.001  0.069 -0.000
 -0.011 -0.001 -0.001 -0.000  0.255
atomic mag. moment =     4.205303
atom    6   Tr[ns(na)] (up, down, total) =   4.96743  0.76218  5.72961
   spin  1
    eigenvalues: 
  0.984  0.993  0.993  0.996  1.001
    eigenvectors:
  0.000  0.000  0.000  1.000  0.000
  0.002  0.498  0.500  0.000  0.000
  0.002  0.498  0.500  0.000  0.000
  0.000  0.000  0.000  0.000  1.000
  0.996  0.004  0.000  0.000  0.000
    occupations:
  0.996 -0.000 -0.000 -0.000  0.000
 -0.000  0.993 -0.000  0.000 -0.000
 -0.000 -0.000  0.993 -0.000 -0.000
 -0.000  0.000 -0.000  1.001 -0.000
  0.000 -0.000 -0.000 -0.000  0.984
   spin  2
    eigenvalues: 
  0.069  0.138  0.147  0.152  0.256
    eigenvectors:
  0.000  0.924  0.000  0.067  0.010
  0.000  0.034  0.500  0.466  0.000
  0.000  0.034  0.500  0.466  0.000
  1.000  0.000  0.000  0.000  0.000
  0.000  0.008  0.000  0.002  0.990
    occupations:
  0.140  0.002  0.002 -0.000 -0.011
  0.002  0.149  0.002 -0.001 -0.001
  0.002  0.002  0.149  0.001 -0.001
 -0.000 -0.001  0.001  0.069 -0.000
 -0.011 -0.001 -0.001 -0.000  0.255
atomic mag. moment =     4.205242
atom    7   Tr[ns(na)] (up, down, total) =   4.96422  0.78883  5.75305
   spin  1
    eigenvalues: 
  0.983  0.990  0.993  0.997  1.001
    eigenvectors:
  0.000  0.000  0.009  0.991  0.000
  0.002  0.500  0.494  0.005  0.000
  0.002  0.500  0.494  0.005  0.000
  0.000  0.000  0.000  0.000  1.000
  0.996  0.000  0.004  0.000  0.000
    occupations:
  0.997  0.000  0.000  0.000  0.000
  0.000  0.992  0.001  0.000 -0.000
  0.000  0.001  0.992 -0.000 -0.000
  0.000  0.000 -0.000  1.001 -0.000
  0.000 -0.000 -0.000 -0.000  0.983
   spin  2
    eigenvalues: 
  0.066  0.142  0.148  0.162  0.271
    eigenvectors:
  0.000  0.000  0.990  0.010  0.000
  0.000  0.500  0.005  0.495  0.000
  0.000  0.500  0.005  0.495  0.000
  1.000  0.000  0.000  0.000  0.000
  0.000  0.000  0.000  0.001  0.999
    occupations:
  0.148  0.001  0.001  0.000  0.002
  0.001  0.152  0.010 -0.001  0.002
  0.001  0.010  0.152  0.001  0.002
  0.000 -0.001  0.001  0.066  0.000
  0.002  0.002  0.002  0.000  0.271
atomic mag. moment =     4.175392
atom    8   Tr[ns(na)] (up, down, total) =   0.71982  4.97044  5.69026
   spin  1
    eigenvalues: 
  0.071  0.122  0.140  0.149  0.238
    eigenvectors:
  0.000  0.517  0.436  0.000  0.047
  0.000  0.235  0.262  0.500  0.003
  0.000  0.235  0.262  0.500  0.003
  1.000  0.000  0.000  0.000  0.000
  0.000  0.012  0.041  0.000  0.948
    occupations:
  0.135  0.007  0.007  0.000 -0.022
  0.007  0.140 -0.008 -0.000 -0.004
  0.007 -0.008  0.140  0.000 -0.004
  0.000 -0.000  0.000  0.071 -0.000
 -0.022 -0.004 -0.004 -0.000  0.233
   spin  2
    eigenvalues: 
  0.986  0.993  0.993  0.997  1.001
    eigenvectors:
  0.002  0.000  0.004  0.994  0.000
  0.001  0.500  0.497  0.002  0.000
  0.001  0.500  0.497  0.002  0.000
  0.000  0.000  0.000  0.000  1.000
  0.996  0.000  0.002  0.002  0.000
    occupations:
  0.997  0.000  0.000 -0.000  0.000
  0.000  0.993  0.000  0.000 -0.000
  0.000  0.000  0.993 -0.000 -0.000
 -0.000  0.000 -0.000  1.001  0.000
  0.000 -0.000 -0.000  0.000  0.986
atomic mag. moment =    -4.250614
N of occupied +U levels =   45.807209
 --- exit write_ns ---

 ------ SPIN UP ------------


          k = 0.0000 0.0000 0.0000 ( 13629 PWs)   bands (ev):

   -66.3684 -66.3680 -66.3628 -66.3626 -66.2970 -66.2963 -61.8854 -61.8847
   -35.1367 -35.1364 -35.1318 -35.1316 -35.1128 -35.1124 -35.1066 -35.1062
   -35.0828 -35.0823 -35.0775 -35.0772 -35.0668 -35.0667 -35.0327 -35.0325
   -35.0147 -35.0146 -30.7154 -30.7153 -30.7134 -30.7133 -30.7063 -30.7061
     5.9241   7.4758   7.6287   8.0207   8.1424   8.2887   8.3748   8.3817
     8.6956   8.6973   8.9147   9.1566   9.3086   9.3102   9.3337   9.4359
     9.4420   9.4574   9.4576   9.4847   9.5611   9.5854   9.5902   9.6138
     9.6377   9.6810   9.6858   9.7353   9.7504   9.7969   9.8449   9.8968
     9.9333   9.9522   9.9742   9.9967  10.0052  10.0382  10.0620  10.1226
    10.2175  10.2244  10.2505  10.2599  10.2757  10.2867  10.3792  10.3801
    10.4167  10.4388  10.4595  10.4794  10.4828  10.4974  10.5164  10.6124
    10.6328  10.6544  10.6959  10.7313  10.8357  10.9129  10.9367  11.0791
    11.0835  11.0867  11.1764  11.2348  11.3212  11.3227  11.3629  11.5019
    11.5323  11.5678  11.7725  11.7743  11.8101  11.8114  11.8220  11.8464
    11.8598  11.8663  11.9678  11.9734  12.0019  12.0499  12.0524  12.0744
    12.1594  12.2560  12.2579  12.2807  12.2861  12.3462  12.4728  12.4787
    12.4805  12.5042  12.5129  12.5716  12.5873  12.6262  12.6722  12.6839
    12.6859  12.7224  12.7368  12.7453  12.8033  12.8557  13.0725  13.0972
    13.1584  13.1886  13.2527  13.2578  13.3005  13.4096  13.4096  14.0951
    14.9843  15.0896  15.1562  15.4850  15.9503  16.2383  16.2758  16.8923
    16.9437  17.1036  17.5026  17.5394  17.6517  17.7356  17.8070  17.8203
    18.1629  18.4799  18.8652  18.9272  19.2009  19.2703  19.3161  19.3649
    19.3863  19.3903

          k = 0.0000 0.0000-0.5441 ( 13704 PWs)   bands (ev):

   -66.3684 -66.3680 -66.3628 -66.3626 -66.2970 -66.2963 -61.8854 -61.8847
   -35.1367 -35.1364 -35.1319 -35.1316 -35.1128 -35.1124 -35.1066 -35.1062
   -35.0828 -35.0823 -35.0774 -35.0772 -35.0669 -35.0667 -35.0327 -35.0325
   -35.0148 -35.0146 -30.7155 -30.7153 -30.7134 -30.7133 -30.7063 -30.7061
     6.5160   7.5549   8.0299   8.1332   8.3861   8.4433   8.6433   8.6623
     8.6833   8.8284   8.8539   8.9048   8.9281   8.9707   8.9908   9.0199
     9.0479   9.0696   9.1425   9.3971   9.4548   9.5297   9.5705   9.6169
     9.6369   9.6372   9.6858   9.6893   9.7046   9.7186   9.7569   9.7820
     9.8198   9.8221   9.8461   9.9200   9.9399  10.0023  10.0150  10.0841
    10.1183  10.1557  10.2539  10.2656  10.3136  10.3303  10.3575  10.3974
    10.4237  10.4482  10.4937  10.5757  10.5813  10.6102  10.6502  10.6803
    10.6969  10.7230  10.7582  10.8300  10.9539  10.9870  11.1406  11.2186
    11.4422  11.4523  11.4674  11.5399  11.5442  11.5965  11.6046  11.6119
    11.6418  11.6993  11.7579  11.7885  11.8236  11.8610  11.8812  11.8859
    11.9170  11.9881  11.9905  11.9920  12.0170  12.0329  12.0591  12.0782
    12.1014  12.1149  12.1247  12.1271  12.1846  12.2484  12.2548  12.2926
    12.3235  12.3482  12.4807  12.5762  12.6071  12.6213  12.6363  12.6689
    12.6710  12.7893  12.8581  12.8751  12.8883  12.9300  12.9396  12.9740
    13.0080  13.1836  13.1947  13.2878  13.6397  13.6832  14.1252  14.1316
    14.1678  14.2100  14.3078  15.0253  15.4053  15.7681  16.1469  16.3384
    16.6884  17.2205  17.2382  17.2965  17.3254  17.4465  17.4733  17.5955
    17.7247  18.1576  18.2069  18.5736  18.8050  18.8720  19.1032  19.1862
    19.3467  19.4339

          k = 0.0000 0.0000 1.0883 ( 13706 PWs)   bands (ev):

   -66.3684 -66.3680 -66.3628 -66.3626 -66.2970 -66.2964 -61.8854 -61.8848
   -35.1368 -35.1364 -35.1319 -35.1316 -35.1128 -35.1124 -35.1066 -35.1062
   -35.0827 -35.0823 -35.0774 -35.0772 -35.0669 -35.0667 -35.0327 -35.0325
   -35.0148 -35.0145 -30.7156 -30.7153 -30.7134 -30.7133 -30.7063 -30.7060
     7.7817   8.0220   8.1428   8.2493   8.3752   8.3818   8.4127   8.5901
     8.6498   8.6942   8.6996   8.7335   8.8017   8.9130   9.0233   9.0627
     9.0664   9.1580   9.2733   9.3089   9.3317   9.4344   9.4539   9.4578
     9.5929   9.6139   9.6468   9.6815   9.6865   9.7507   9.7621   9.7950
     9.8474   9.8810   9.9067   9.9328   9.9518   9.9931  10.0072  10.0085
    10.0547  10.0612  10.1232  10.2029  10.2246  10.2425  10.2509  10.2623
    10.2852  10.3672  10.3674  10.3810  10.3833  10.4173  10.4382  10.4918
    10.5012  10.6375  10.6974  10.7021  10.8354  10.9154  11.0789  11.0825
    11.1989  11.2522  11.4406  11.4748  11.5144  11.5192  11.5324  11.5646
    11.7077  11.7391  11.8110  11.8136  11.8581  11.8653  11.9721  11.9783
    12.0341  12.0492  12.0504  12.0845  12.1928  12.2223  12.2572  12.2594
    12.2798  12.3471  12.4412  12.4607  12.4737  12.4775  12.4836  12.5039
    12.5725  12.5874  12.5927  12.6281  12.6836  12.6842  12.7348  12.7458
    12.7690  12.8561  12.8911  13.0998  13.1006  13.1583  13.1864  13.2191
    13.2519  13.2577  13.2884  13.4004  13.4090  13.4098  13.4472  13.6092
    13.7787  13.7846  14.0959  14.9838  15.0906  15.1568  15.8531  15.9499
    16.9196  16.9443  16.9649  17.1389  17.4569  17.4706  17.5011  17.5441
    17.7119  17.7768  18.0012  18.1633  18.3800  18.5774  18.8664  18.9262
    19.3171  19.3881

          k =-0.1768-0.1768-0.1360 ( 13673 PWs)   bands (ev):

   -66.3684 -66.3680 -66.3628 -66.3626 -66.2969 -66.2964 -61.8853 -61.8848
   -35.1367 -35.1364 -35.1318 -35.1316 -35.1128 -35.1124 -35.1066 -35.1062
   -35.0828 -35.0823 -35.0775 -35.0772 -35.0668 -35.0667 -35.0327 -35.0325
   -35.0147 -35.0146 -30.7154 -30.7153 -30.7134 -30.7133 -30.7063 -30.7061
     6.0864   7.2572   7.6223   7.7632   8.3959   8.4013   8.4281   8.5962
     8.5978   8.7737   9.0418   9.1544   9.1562   9.2513   9.2817   9.2916
     9.3022   9.4156   9.4218   9.4306   9.4796   9.4967   9.5596   9.5936
     9.6025   9.6197   9.6808   9.6913   9.7699   9.8124   9.9155   9.9163
     9.9448   9.9868  10.0182  10.0439  10.0550  10.0873  10.1192  10.1650
    10.1764  10.1879  10.2375  10.3079  10.3456  10.3516  10.3899  10.4603
    10.4823  10.4895  10.5047  10.5264  10.5314  10.5555  10.5843  10.6493
    10.6739  10.7211  10.7670  10.7926  10.8985  10.9402  10.9709  11.0189
    11.0342  11.0510  11.0598  11.1796  11.2742  11.3273  11.4119  11.5180
    11.5442  11.5515  11.6520  11.7125  11.7159  11.7260  11.7315  11.8208
    11.8367  11.8592  11.9033  11.9046  11.9760  11.9850  11.9855  11.9905
    12.0062  12.0621  12.1311  12.1946  12.2414  12.2670  12.2869  12.3231
    12.3314  12.3411  12.4534  12.5187  12.5572  12.5996  12.6010  12.7192
    12.7439  12.7905  12.8559  12.8717  12.8757  12.8979  12.9158  12.9666
    13.0742  13.0905  13.1838  13.1995  13.6052  14.3330  14.3802  14.7113
    15.2187  15.3613  15.6288  15.6609  15.8722  16.0310  16.0893  16.7565
    16.8662  17.1853  17.2634  17.3193  17.4549  17.5034  17.6287  17.8241
    18.1257  18.1372  18.3053  18.4849  18.7259  18.8125  18.8355  18.9115
    19.1094  19.8046

          k =-0.1768-0.1768-0.6802 ( 13666 PWs)   bands (ev):

   -66.3684 -66.3680 -66.3628 -66.3626 -66.2969 -66.2964 -61.8853 -61.8848
   -35.1367 -35.1364 -35.1319 -35.1316 -35.1128 -35.1124 -35.1066 -35.1062
   -35.0828 -35.0823 -35.0774 -35.0772 -35.0669 -35.0667 -35.0327 -35.0325
   -35.0147 -35.0146 -30.7155 -30.7153 -30.7134 -30.7133 -30.7063 -30.7061
     6.9359   6.9858   8.2639   8.3319   8.3434   8.4002   8.5351   8.7228
     8.7626   8.8259   8.8338   8.8372   8.8999   8.9200   8.9873   9.0273
     9.0857   9.2770   9.2937   9.3067   9.4387   9.4709   9.5228   9.5236
     9.5687   9.6002   9.6077   9.6876   9.6965   9.7269   9.7468   9.7737
     9.7939   9.8240   9.8597   9.8680   9.9172   9.9786   9.9895  10.0486
    10.2529  10.2681  10.2872  10.3418  10.3564  10.3884  10.4154  10.4176
    10.4214  10.4567  10.5027  10.5253  10.5585  10.6223  10.7287  10.7501
    10.7653  10.8141  10.8694  10.9357  10.9585  11.0664  11.0784  11.0913
    11.1106  11.1191  11.3333  11.3545  11.3594  11.4350  11.4695  11.5823
    11.6375  11.6588  11.7207  11.7607  11.7683  11.7797  11.7950  11.8569
    11.8632  11.8658  11.9309  11.9530  11.9556  11.9613  11.9645  12.0181
    12.1074  12.1096  12.1318  12.1761  12.2362  12.2618  12.2843  12.2884
    12.3126  12.3436  12.4566  12.4874  12.5243  12.5863  12.6299  12.6474
    12.7879  12.7958  12.8567  12.8632  12.8861  12.9802  12.9939  13.0323
    13.1178  13.1585  13.2194  13.2951  13.8932  14.1261  14.4463  14.7609
    14.8243  14.8714  14.9543  15.0193  15.4901  15.6157  16.3498  16.4819
    16.5039  16.5580  16.6109  16.6970  17.1976  17.3868  17.5439  17.6494
    17.8178  17.8411  17.9824  18.0927  18.3189  18.3886  18.8722  19.0034
    20.0210  20.4064

          k =-0.1768-0.1768 0.9522 ( 13713 PWs)   bands (ev):

   -66.3684 -66.3680 -66.3628 -66.3626 -66.2969 -66.2965 -61.8853 -61.8849
   -35.1368 -35.1364 -35.1319 -35.1316 -35.1128 -35.1124 -35.1066 -35.1062
   -35.0827 -35.0823 -35.0774 -35.0772 -35.0669 -35.0668 -35.0327 -35.0325
   -35.0147 -35.0146 -30.7156 -30.7153 -30.7134 -30.7133 -30.7063 -30.7061
     7.6394   7.7398   8.2837   8.3302   8.4431   8.4436   8.5925   8.6024
     8.6332   8.6475   8.6638   8.7198   8.7380   8.8827   8.9371   8.9538
     9.0678   9.1625   9.2159   9.2672   9.2950   9.3468   9.3592   9.3637
     9.4871   9.5506   9.5531   9.5776   9.6760   9.6774   9.7387   9.7456
     9.7857   9.7989   9.8262   9.8746   9.9538   9.9641   9.9868  10.0168
    10.0691  10.1126  10.2119  10.2342  10.3111  10.3151  10.3573  10.3993
    10.4482  10.4504  10.4548  10.5655  10.5703  10.6214  10.6789  10.6885
    10.7284  10.7863  10.8314  10.8588  11.0291  11.0932  11.1375  11.1436
    11.1554  11.3133  11.3526  11.4426  11.5510  11.5881  11.6094  11.6477
    11.7775  11.8380  11.8498  11.8925  11.9084  11.9371  11.9825  11.9875
    12.0304  12.0544  12.0555  12.0744  12.1017  12.1863  12.2201  12.2384
    12.2571  12.2676  12.2793  12.3029  12.3228  12.3977  12.4057  12.4340
    12.5093  12.5318  12.5527  12.5939  12.6732  12.7252  12.7308  12.8000
    12.8662  12.8670  12.9012  12.9693  12.9868  12.9973  13.0123  13.0720
    13.0747  13.1125  13.1534  13.2079  13.3111  13.4167  13.7523  13.7967
    13.8337  13.9423  13.9498  14.1999  14.7629  14.9029  16.0040  16.0546
    16.3443  16.5710  16.9348  16.9971  17.3576  17.4612  17.4694  17.5887
    17.5926  17.8791  18.2565  18.3277  18.6837  18.8090  18.9190  18.9727
    19.4719  19.5758

          k =-0.1768-0.1768 0.4081 ( 13683 PWs)   bands (ev):

   -66.3684 -66.3680 -66.3628 -66.3626 -66.2970 -66.2964 -61.8854 -61.8848
   -35.1367 -35.1364 -35.1319 -35.1316 -35.1128 -35.1124 -35.1066 -35.1062
   -35.0827 -35.0823 -35.0775 -35.0772 -35.0668 -35.0668 -35.0327 -35.0325
   -35.0147 -35.0146 -30.7154 -30.7154 -30.7134 -30.7133 -30.7063 -30.7061
     6.3818   7.8910   8.0090   8.0503   8.2706   8.4248   8.4639   8.6127
     8.6197   8.6372   8.7884   8.9529   8.9768   8.9871   9.0344   9.1129
     9.1311   9.2044   9.2249   9.2620   9.3457   9.4446   9.5090   9.5629
     9.5971   9.6056   9.6388   9.7142   9.7267   9.7505   9.7700   9.7714
     9.8221   9.8356   9.8501   9.8988   9.9103  10.0358  10.0701  10.1387
    10.1625  10.1839  10.2337  10.2497  10.2524  10.3398  10.3460  10.3519
    10.4366  10.4533  10.4810  10.5437  10.6280  10.6722  10.8164  10.8170
    10.8512  10.8637  10.9557  11.0069  11.1139  11.1843  11.2224  11.2745
    11.2934  11.3421  11.3883  11.4495  11.4893  11.5111  11.5736  11.6216
    11.6504  11.7499  11.8545  11.8706  11.8902  11.9195  11.9196  11.9873
    11.9877  12.0090  12.0105  12.0531  12.0889  12.1500  12.1710  12.1905
    12.2122  12.2227  12.2269  12.2573  12.2629  12.2867  12.3126  12.3354
    12.3828  12.3870  12.4278  12.5021  12.5624  12.5735  12.5750  12.5773
    12.6221  12.6446  12.7266  12.7401  12.8653  12.8794  12.9224  12.9373
    12.9738  12.9927  13.0129  13.1027  13.3372  13.3682  13.4282  13.6540
    13.9317  14.0831  14.8026  15.1896  15.4617  15.7099  16.3322  16.4546
    16.5650  17.0489  17.1766  17.2472  17.2969  17.4672  17.6104  17.6420
    17.8773  18.0659  18.3756  18.4508  18.7224  18.9339  19.0658  19.1144
    19.7755  19.9857

          k = 0.3536 0.3536 0.2721 ( 13708 PWs)   bands (ev):

   -66.3684 -66.3680 -66.3628 -66.3626 -66.2967 -66.2967 -61.8851 -61.8851
   -35.1367 -35.1364 -35.1318 -35.1316 -35.1128 -35.1124 -35.1066 -35.1062
   -35.0828 -35.0823 -35.0775 -35.0772 -35.0668 -35.0668 -35.0326 -35.0326
   -35.0147 -35.0147 -30.7153 -30.7153 -30.7133 -30.7133 -30.7062 -30.7062
     6.5520   6.5531   8.0067   8.0074   8.1121   8.1130   8.6778   8.6790
     8.8177   8.8185   8.8403   8.8415   9.2983   9.2984   9.2990   9.2997
     9.3263   9.3264   9.4413   9.4423   9.4511   9.4517   9.5342   9.5345
     9.5543   9.5548   9.6685   9.6692   9.6786   9.6792   9.8312   9.8312
     9.9618   9.9625  10.0623  10.0625  10.1023  10.1024  10.2411  10.2418
    10.2882  10.2894  10.2999  10.3000  10.3629  10.3633  10.4161  10.4165
    10.5001  10.5003  10.5849  10.5851  10.5977  10.5986  10.6773  10.6789
    10.6838  10.6847  10.9217  10.9223  10.9735  10.9737  11.0060  11.0061
    11.0576  11.0576  11.2557  11.2582  11.3122  11.3127  11.3840  11.3842
    11.4198  11.4199  11.4492  11.4492  11.5719  11.5751  11.7011  11.7012
    11.7012  11.7014  11.8747  11.8754  11.9074  11.9080  11.9734  11.9736
    12.0558  12.0559  12.1176  12.1176  12.1837  12.1848  12.2604  12.2611
    12.3161  12.3163  12.4336  12.4337  12.5017  12.5022  12.6223  12.6225
    12.7503  12.7508  12.7799  12.7803  12.9667  12.9692  12.9938  12.9943
    13.1130  13.1132  13.1258  13.1267  14.5982  14.5994  15.5359  15.5367
    15.5594  15.5602  15.6428  15.6439  16.1008  16.1014  16.1128  16.1132
    16.7372  16.7379  16.9438  16.9443  17.1728  17.1729  17.6653  17.6654
    17.9391  17.9392  17.9901  17.9903  18.1408  18.1409  18.8051  18.8057
    19.8602  19.8610

          k = 0.3536 0.3536-0.2721 ( 13700 PWs)   bands (ev):

   -66.3684 -66.3680 -66.3628 -66.3626 -66.2967 -66.2967 -61.8851 -61.8851
   -35.1367 -35.1364 -35.1319 -35.1316 -35.1128 -35.1124 -35.1066 -35.1062
   -35.0827 -35.0823 -35.0775 -35.0772 -35.0668 -35.0668 -35.0326 -35.0326
   -35.0147 -35.0147 -30.7154 -30.7153 -30.7133 -30.7133 -30.7062 -30.7062
     6.5527   7.5671   8.0066   8.1129   8.3497   8.5230   8.5906   8.6090
     8.6416   8.6781   8.8192   8.8421   8.8827   8.9483   8.9776   9.2366
     9.2527   9.2967   9.2982   9.3098   9.3265   9.4212   9.4416   9.4508
     9.4519   9.5350   9.5544   9.6675   9.6784   9.6952   9.7690   9.7715
     9.8306   9.8697   9.8879   9.9447   9.9641  10.0636  10.1024  10.1595
    10.2068  10.2437  10.2886  10.2995  10.3029  10.3643  10.4166  10.4377
    10.5005  10.5360  10.5843  10.5965  10.5971  10.6808  10.6836  10.7459
    10.8339  10.9153  10.9210  10.9742  11.0047  11.0573  11.0908  11.1598
    11.2544  11.3125  11.3492  11.3863  11.4078  11.4191  11.4486  11.5718
    11.6687  11.7003  11.7013  11.7588  11.8144  11.8369  11.8749  11.8768
    11.9076  11.9748  11.9778  12.0217  12.0259  12.0438  12.0573  12.0863
    12.1186  12.1485  12.1568  12.1698  12.1850  12.2556  12.2613  12.2729
    12.3017  12.3158  12.3445  12.4337  12.5004  12.5657  12.6205  12.6778
    12.7518  12.7730  12.7749  12.7800  12.8928  12.9107  12.9678  12.9963
    13.1135  13.1233  13.1268  13.1876  13.4292  13.5010  14.0841  14.1635
    14.6103  14.9380  15.1188  15.5307  15.5530  15.6439  16.0908  16.1118
    16.4572  16.7311  16.9442  16.9763  17.1702  17.4297  17.5333  17.6625
    17.7309  17.9415  18.0066  18.1430  18.4506  18.7802  18.8055  19.4782
    19.8603  19.9752

          k = 0.3536 0.3536 1.3603 ( 13692 PWs)   bands (ev):

   -66.3684 -66.3680 -66.3628 -66.3626 -66.2967 -66.2967 -61.8851 -61.8851
   -35.1368 -35.1364 -35.1319 -35.1316 -35.1128 -35.1124 -35.1066 -35.1062
   -35.0827 -35.0823 -35.0774 -35.0772 -35.0668 -35.0668 -35.0326 -35.0326
   -35.0147 -35.0147 -30.7154 -30.7154 -30.7133 -30.7133 -30.7062 -30.7062
     7.5672   7.5676   8.3493   8.3503   8.5221   8.5229   8.5898   8.5903
     8.6099   8.6103   8.6419   8.6426   8.8827   8.8833   8.9465   8.9479
     8.9766   8.9773   9.2370   9.2372   9.2520   9.2530   9.3087   9.3088
     9.4214   9.4215   9.4502   9.4520   9.6944   9.6953   9.7689   9.7694
     9.7724   9.7724   9.8703   9.8704   9.8880   9.8881   9.9432   9.9435
    10.1604  10.1606  10.2080  10.2089  10.3025  10.3041  10.4368  10.4376
    10.5362  10.5367  10.5954  10.5965  10.7478  10.7491  10.8327  10.8331
    10.9161  10.9163  11.0904  11.0906  11.1600  11.1605  11.3483  11.3490
    11.4077  11.4089  11.6670  11.6677  11.7564  11.7577  11.8140  11.8160
    11.8375  11.8376  11.8759  11.8766  11.9767  11.9770  12.0218  12.0226
    12.0238  12.0243  12.0432  12.0439  12.0863  12.0864  12.1480  12.1481
    12.1578  12.1580  12.1695  12.1705  12.2561  12.2563  12.2735  12.2739
    12.2999  12.3004  12.3460  12.3463  12.5654  12.5655  12.6773  12.6775
    12.7725  12.7730  12.7751  12.7760  12.8939  12.8945  12.9103  12.9116
    13.1227  13.1228  13.1870  13.1870  13.4293  13.4300  13.5012  13.5018
    14.0837  14.0837  14.1634  14.1641  14.9373  14.9380  15.1202  15.1206
    16.4447  16.4449  16.9770  16.9770  17.4387  17.4387  17.5291  17.5291
    17.7290  17.7291  18.4522  18.4523  18.7806  18.7807  19.4790  19.4799
    19.9745  19.9756

          k = 0.1768-0.1768 0.0000 ( 13644 PWs)   bands (ev):

   -66.3685 -66.3679 -66.3630 -66.3624 -66.2971 -66.2963 -61.8854 -61.8847
   -35.1367 -35.1364 -35.1318 -35.1316 -35.1128 -35.1124 -35.1065 -35.1062
   -35.0828 -35.0823 -35.0775 -35.0772 -35.0668 -35.0667 -35.0327 -35.0325
   -35.0147 -35.0146 -30.7154 -30.7153 -30.7134 -30.7133 -30.7063 -30.7061
     6.0483   6.9484   7.9918   8.0953   8.1952   8.3080   8.4299   8.4386
     8.5798   8.6129   8.8342   9.0580   9.2018   9.3563   9.3623   9.3865
     9.4287   9.4642   9.4926   9.5065   9.5421   9.5620   9.5820   9.6332
     9.6336   9.6508   9.6873   9.7149   9.7757   9.7930   9.8378   9.8391
     9.8459   9.9384   9.9515  10.0039  10.0434  10.0673  10.1052  10.1290
    10.1475  10.1573  10.2282  10.2344  10.2639  10.3210  10.4261  10.4715
    10.4741  10.4989  10.5023  10.5362  10.5605  10.5800  10.5829  10.6042
    10.6511  10.7096  10.7693  10.7996  10.9015  11.0113  11.0641  11.0729
    11.1463  11.1830  11.2267  11.2531  11.3155  11.3663  11.3751  11.4895
    11.4952  11.5525  11.6225  11.6877  11.6959  11.7870  11.7889  11.8068
    11.9117  11.9188  11.9618  11.9806  12.0258  12.0597  12.0830  12.0895
    12.1886  12.2137  12.2449  12.2542  12.2878  12.2947  12.3131  12.3694
    12.4155  12.4690  12.4867  12.5336  12.5403  12.5776  12.6736  12.6951
    12.7390  12.7547  12.7603  12.8100  12.8131  12.8957  12.9118  12.9342
    13.0064  13.1008  13.1781  13.1826  13.2279  13.3517  13.9220  14.0200
    14.9705  15.3456  15.4406  15.6352  15.8086  16.2738  16.4962  16.5856
    16.8733  17.0325  17.3535  17.3637  17.5467  17.6436  17.9676  17.9831
    17.9838  18.1831  18.2221  18.5236  18.7520  19.1378  19.1395  19.4710
    19.5356  19.6951

          k = 0.1768-0.1768-0.5441 ( 13695 PWs)   bands (ev):

   -66.3685 -66.3679 -66.3629 -66.3624 -66.2970 -66.2963 -61.8854 -61.8847
   -35.1367 -35.1364 -35.1319 -35.1316 -35.1128 -35.1124 -35.1065 -35.1062
   -35.0828 -35.0823 -35.0774 -35.0772 -35.0669 -35.0667 -35.0327 -35.0325
   -35.0148 -35.0146 -30.7155 -30.7153 -30.7134 -30.7133 -30.7063 -30.7061
     6.6303   7.4803   7.6605   8.2855   8.4553   8.5223   8.6151   8.7124
     8.7414   8.7467   8.8813   8.9126   8.9285   8.9546   9.0281   9.0923
     9.0952   9.1288   9.1629   9.2550   9.3256   9.4189   9.4525   9.4826
     9.5148   9.5270   9.6260   9.6443   9.6784   9.7029   9.7220   9.7292
     9.7348   9.8139   9.9018   9.9158  10.0024  10.0916  10.0921  10.1376
    10.2289  10.2682  10.2754  10.2911  10.3391  10.3933  10.4491  10.4848
    10.5629  10.5665  10.6419  10.6448  10.6777  10.6910  10.7141  10.7306
    10.7777  10.8020  10.9023  10.9545  10.9597  11.0023  11.1188  11.2468
    11.3663  11.3698  11.3708  11.3921  11.5324  11.5385  11.5495  11.5568
    11.5815  11.6095  11.6940  11.7315  11.7362  11.7756  11.8415  11.8781
    11.9495  11.9620  11.9654  11.9963  12.0061  12.0343  12.0421  12.0606
    12.1314  12.1320  12.1334  12.1625  12.1912  12.2797  12.2833  12.3162
    12.3183  12.3210  12.4376  12.4684  12.5443  12.5725  12.6120  12.6307
    12.6631  12.6686  12.6942  12.7658  12.8572  12.9340  13.0354  13.0646
    13.0812  13.2167  13.3504  13.3809  13.5150  13.6419  13.7598  13.8114
    14.2769  14.8296  14.9103  15.2063  15.2178  15.9270  16.0291  16.1082
    16.6533  16.8104  17.0594  17.1119  17.3135  17.5109  17.6143  17.6550
    17.9002  17.9273  18.3339  18.4070  18.7955  18.8185  18.8291  19.1356
    19.6278  19.8931

          k = 0.1768-0.1768 1.0883 ( 13696 PWs)   bands (ev):

   -66.3685 -66.3679 -66.3629 -66.3624 -66.2971 -66.2964 -61.8854 -61.8848
   -35.1368 -35.1364 -35.1319 -35.1316 -35.1128 -35.1124 -35.1065 -35.1063
   -35.0827 -35.0823 -35.0774 -35.0772 -35.0669 -35.0667 -35.0327 -35.0325
   -35.0148 -35.0145 -30.7156 -30.7153 -30.7134 -30.7133 -30.7063 -30.7060
     7.8520   8.0967   8.1956   8.3288   8.4106   8.4266   8.4302   8.4385
     8.5814   8.6115   8.6173   8.6814   8.7102   8.8313   8.8331   9.0596
     9.1385   9.3140   9.3561   9.3843   9.4186   9.4520   9.4630   9.4728
     9.4940   9.5067   9.6163   9.6333   9.6373   9.6862   9.7167   9.7806
     9.8392   9.8455   9.9341   9.9376   9.9533   9.9684  10.0457  10.0461
    10.0658  10.0668  10.1317  10.1770  10.1994  10.2230  10.2330  10.2343
    10.2877  10.2901  10.4362  10.4705  10.4754  10.4766  10.5000  10.5758
    10.5853  10.6049  10.6830  10.7699  10.8502  11.0107  11.2267  11.2297
    11.2523  11.2544  11.3130  11.4715  11.5529  11.6192  11.6682  11.7726
    11.7775  11.7878  11.7884  11.8089  11.8282  11.8556  11.9175  11.9605
    11.9791  12.0053  12.0256  12.0895  12.0921  12.1775  12.2129  12.2381
    12.2465  12.2937  12.3341  12.3705  12.3734  12.4167  12.4651  12.4693
    12.4832  12.4847  12.5470  12.5771  12.6932  12.6963  12.7418  12.7529
    12.7609  12.8099  12.8950  12.9128  12.9152  12.9595  13.0545  13.0792
    13.1034  13.1760  13.1844  13.2189  13.2875  13.4012  13.9217  14.0194
    14.3497  14.4219  14.5367  14.9701  15.3467  15.4404  15.8081  15.9033
    16.3778  16.4180  16.5867  17.0522  17.3499  17.3836  17.4417  17.4762
    17.5310  17.7597  17.8835  18.0085  18.0974  18.1862  18.5864  18.8161
    18.8716  19.4258

          k = 0.0000-0.3536-0.1360 ( 13676 PWs)   bands (ev):

   -66.3685 -66.3679 -66.3630 -66.3624 -66.2969 -66.2964 -61.8853 -61.8848
   -35.1367 -35.1364 -35.1318 -35.1316 -35.1128 -35.1124 -35.1065 -35.1062
   -35.0828 -35.0823 -35.0775 -35.0772 -35.0668 -35.0667 -35.0327 -35.0325
   -35.0147 -35.0146 -30.7154 -30.7153 -30.7134 -30.7133 -30.7063 -30.7061
     6.2091   7.0976   7.3584   8.0543   8.1255   8.4221   8.5499   8.5951
     8.7770   8.7985   8.9736   9.1065   9.1572   9.2459   9.2633   9.2945
     9.3312   9.3413   9.3837   9.4215   9.4239   9.4417   9.5110   9.5400
     9.5781   9.6350   9.7120   9.7469   9.7571   9.8272   9.9018   9.9029
     9.9406   9.9493   9.9920  10.0351  10.0368  10.0974  10.1332  10.1826
    10.1950  10.2033  10.2868  10.2941  10.3127  10.3799  10.4389  10.4517
    10.4562  10.5629  10.5760  10.5955  10.6026  10.6538  10.6660  10.7126
    10.7485  10.7811  10.7946  10.8781  10.9145  10.9399  10.9836  11.0408
    11.0855  11.1514  11.1799  11.2222  11.2363  11.3126  11.3681  11.5189
    11.5374  11.5699  11.6023  11.6173  11.6567  11.6933  11.7091  11.7127
    11.7962  11.8136  11.8245  11.8760  11.9449  12.0005  12.0143  12.0502
    12.0561  12.0764  12.1451  12.1832  12.2329  12.2446  12.2837  12.3051
    12.3150  12.3746  12.3832  12.4528  12.4581  12.5377  12.5899  12.6041
    12.7280  12.7702  12.7853  12.8308  12.8655  12.9575  12.9606  13.0696
    13.0919  13.1260  13.2023  13.4712  13.6306  13.9812  14.0155  14.7233
    15.2704  15.4925  15.6921  15.8840  15.9151  15.9328  16.2798  16.2884
    16.8277  17.1417  17.1871  17.3125  17.4051  17.5926  17.6480  17.6859
    17.9915  18.1072  18.1250  18.3024  18.6838  18.7897  19.1110  19.3623
    19.4707  19.8606

          k = 0.0000-0.3536-0.6802 ( 13702 PWs)   bands (ev):

   -66.3685 -66.3679 -66.3630 -66.3624 -66.2969 -66.2964 -61.8853 -61.8848
   -35.1367 -35.1364 -35.1319 -35.1316 -35.1128 -35.1124 -35.1065 -35.1062
   -35.0828 -35.0823 -35.0775 -35.0772 -35.0669 -35.0667 -35.0327 -35.0325
   -35.0147 -35.0146 -30.7155 -30.7153 -30.7134 -30.7133 -30.7063 -30.7061
     7.0389   7.0989   7.8101   7.8751   8.5367   8.5944   8.7732   8.7904
     8.8127   8.8466   8.8646   8.8983   8.9427   8.9988   9.0256   9.0788
     9.0954   9.1701   9.1702   9.2446   9.2731   9.3327   9.3939   9.4277
     9.4600   9.5047   9.5678   9.6087   9.6091   9.6318   9.7129   9.8103
     9.8137   9.8721   9.9852   9.9999  10.0189  10.1117  10.1507  10.1983
    10.2269  10.2321  10.2927  10.3298  10.3314  10.3868  10.4302  10.4841
    10.5009  10.5322  10.5712  10.6251  10.6786  10.7083  10.7674  10.7947
    10.8322  10.8364  10.8919  10.9602  10.9776  11.0399  11.0501  11.1118
    11.1439  11.2394  11.3213  11.3357  11.3648  11.4026  11.4555  11.4600
    11.5097  11.5916  11.6518  11.7010  11.7143  11.7302  11.7540  11.7862
    11.8004  11.8352  11.9144  11.9205  11.9871  12.0061  12.0298  12.0434
    12.0941  12.1305  12.1607  12.2244  12.2377  12.2608  12.2759  12.3101
    12.3278  12.3677  12.4147  12.4425  12.4717  12.5168  12.6070  12.6589
    12.7164  12.7488  12.7629  12.8088  12.8888  12.8904  13.0214  13.0749
    13.1323  13.2848  13.3053  13.6504  13.8371  14.0967  14.2130  14.5729
    14.6532  14.6798  15.1836  15.2598  15.5424  15.7857  15.8137  16.2302
    16.2869  16.5972  16.8006  17.1007  17.2022  17.4159  17.6133  17.7084
    17.7371  17.8364  17.9114  18.1560  18.3455  18.9105  19.2411  19.3510
    19.7186  19.9262

          k = 0.0000-0.3536 0.9522 ( 13693 PWs)   bands (ev):

   -66.3685 -66.3679 -66.3629 -66.3624 -66.2969 -66.2965 -61.8853 -61.8849
   -35.1368 -35.1364 -35.1319 -35.1316 -35.1128 -35.1124 -35.1065 -35.1063
   -35.0827 -35.0823 -35.0774 -35.0772 -35.0669 -35.0668 -35.0327 -35.0325
   -35.0147 -35.0146 -30.7156 -30.7153 -30.7134 -30.7133 -30.7063 -30.7061
     7.7120   7.8076   8.2748   8.2818   8.3647   8.4153   8.4760   8.5444
     8.5845   8.6856   8.7110   8.7861   8.7924   8.8516   8.8575   9.0876
     9.1603   9.1759   9.2475   9.2703   9.2725   9.3356   9.3507   9.4015
     9.4067   9.4780   9.5100   9.5408   9.5882   9.6057   9.6642   9.7020
     9.7273   9.7902   9.8866   9.9157   9.9210   9.9501   9.9711  10.0743
    10.1009  10.1068  10.1267  10.2062  10.3131  10.3460  10.4217  10.4255
    10.4761  10.4953  10.5408  10.5763  10.5880  10.6624  10.7271  10.7536
    10.7607  10.8514  10.8882  10.9003  11.0296  11.1254  11.1714  11.2464
    11.3214  11.3223  11.3892  11.4583  11.5497  11.5921  11.6669  11.6961
    11.7916  11.8392  11.8470  11.8860  11.8965  11.9321  11.9421  11.9667
    12.0200  12.0310  12.0411  12.0594  12.0869  12.1378  12.1703  12.1977
    12.2103  12.2518  12.2607  12.3169  12.3230  12.3404  12.3582  12.4032
    12.4135  12.4181  12.4657  12.5246  12.5349  12.6284  12.6630  12.7131
    12.7862  12.7903  12.8703  12.9244  12.9373  12.9920  12.9981  13.0786
    13.0870  13.1212  13.1265  13.1841  13.2358  13.4688  13.8115  13.9002
    13.9626  14.1784  14.2180  14.6202  14.9440  15.5344  15.5960  16.1847
    16.2646  16.4491  16.6627  16.9222  17.3476  17.4100  17.4526  17.4752
    17.5846  17.7829  17.8987  18.0436  18.1104  18.3209  18.4538  19.1136
    19.3727  19.9146

          k = 0.0000-0.3536 0.4081 ( 13687 PWs)   bands (ev):

   -66.3685 -66.3679 -66.3630 -66.3624 -66.2970 -66.2964 -61.8854 -61.8848
   -35.1367 -35.1364 -35.1319 -35.1316 -35.1128 -35.1124 -35.1065 -35.1062
   -35.0828 -35.0823 -35.0775 -35.0772 -35.0668 -35.0668 -35.0327 -35.0325
   -35.0147 -35.0146 -30.7154 -30.7154 -30.7134 -30.7133 -30.7063 -30.7061
     6.4991   7.3591   8.1443   8.2710   8.3863   8.4071   8.4431   8.5297
     8.6372   8.6878   8.8417   9.0016   9.0064   9.0468   9.0522   9.0968
     9.1343   9.1409   9.2211   9.2978   9.3688   9.4055   9.4598   9.4773
     9.4780   9.5577   9.5638   9.6210   9.6324   9.6344   9.6694   9.7521
     9.7637   9.7799   9.9034   9.9044   9.9424  10.0511  10.0527  10.1096
    10.1416  10.2553  10.2676  10.3065  10.3483  10.4036  10.4744  10.5416
    10.5826  10.5841  10.6252  10.6487  10.7370  10.7665  10.8384  10.8696
    10.8702  10.9196  10.9232  11.0485  11.0589  11.1004  11.1980  11.2796
    11.3026  11.3887  11.4093  11.4109  11.4844  11.4901  11.5437  11.5932
    11.6236  11.7251  11.7942  11.8087  11.8508  11.8755  11.9385  11.9432
    11.9648  12.0075  12.0218  12.0499  12.0541  12.1019  12.1236  12.1586
    12.1771  12.1854  12.2082  12.2569  12.2689  12.3146  12.3428  12.3450
    12.3574  12.3716  12.3961  12.4260  12.5148  12.5518  12.5772  12.6133
    12.6250  12.6854  12.7079  12.7248  12.7654  12.7728  12.8748  12.8999
    12.9436  12.9758  12.9970  13.0586  13.1035  13.1557  13.2183  14.3273
    14.4894  14.6515  14.8357  15.0564  15.3667  15.6641  16.2347  16.4261
    16.5076  16.7765  17.0354  17.0592  17.3401  17.4614  17.4834  17.6563
    17.9458  17.9661  18.2399  18.2733  18.7298  18.7464  18.9128  19.2678
    19.9030  20.0843

          k = 0.5303 0.1768 0.2721 ( 13658 PWs)   bands (ev):

   -66.3685 -66.3679 -66.3630 -66.3624 -66.2967 -66.2967 -61.8850 -61.8850
   -35.1367 -35.1364 -35.1318 -35.1316 -35.1128 -35.1124 -35.1065 -35.1062
   -35.0828 -35.0823 -35.0775 -35.0772 -35.0668 -35.0668 -35.0326 -35.0326
   -35.0147 -35.0147 -30.7153 -30.7153 -30.7133 -30.7133 -30.7062 -30.7062
     6.6687   6.6698   7.5074   7.5083   8.4586   8.4595   8.7028   8.7041
     8.8662   8.8666   8.9060   8.9067   9.2462   9.2464   9.2633   9.2636
     9.3159   9.3161   9.3624   9.3630   9.3767   9.3777   9.4466   9.4473
     9.5383   9.5385   9.6448   9.6455   9.7416   9.7418   9.8623   9.8625
     9.9216   9.9219  10.1069  10.1070  10.1686  10.1689  10.1973  10.1973
    10.2475  10.2481  10.3456  10.3457  10.4172  10.4179  10.5064  10.5064
    10.5671  10.5673  10.5940  10.5944  10.6758  10.6764  10.7395  10.7399
    10.7823  10.7830  10.9077  10.9079  10.9108  10.9116  11.0440  11.0440
    11.1389  11.1396  11.2280  11.2280  11.2889  11.2907  11.3576  11.3587
    11.4172  11.4175  11.4420  11.4426  11.5520  11.5537  11.6485  11.6490
[...]
    11.9236  11.9802  12.0058  12.0212  12.0241  12.0699  12.1397  12.1697
    12.1783  12.2231  12.2431  12.2625  12.2734  12.2760  12.3725  12.4697
    12.5082  12.5515  12.7140  12.7505  12.7552  12.7877  12.7987  12.8614
    12.9867  13.0684  14.0290  14.0321  14.2217  14.9180  15.1171  15.4580
    15.4682  15.5852  15.7109  15.7491  15.7854  16.1753  16.2776  16.6761
    16.7694  16.9261  16.9388  16.9725  16.9756  17.1228  17.1860  17.3659
    17.3917  17.4073  17.4170  17.4326  17.4618  17.4977  17.5005  17.5506
    17.7373  18.0292  18.0419  18.0576  18.0583  18.1274  18.3949  18.4520
    18.4866  18.4899  18.7480  18.7848  19.0231  19.6674  19.7532  20.2518
    20.2768  20.3773

          k =-0.3536 0.3536-0.5441 ( 13686 PWs)   bands (ev):

   -66.4859 -66.4852 -61.8129 -61.8121 -61.8092 -61.8084 -61.7658 -61.7651
   -35.2496 -35.2495 -35.2362 -35.2361 -35.1966 -35.1963 -30.6432 -30.6428
   -30.6417 -30.6414 -30.6392 -30.6389 -30.6387 -30.6384 -30.6375 -30.6372
   -30.6339 -30.6337 -30.5966 -30.5962 -30.5938 -30.5936 -30.5904 -30.5902
     6.9976   7.1213   7.9890   8.1424   8.6459   8.7632   8.8247   8.8480
     8.9674   8.9728   9.0611   9.1930   9.2370   9.2664   9.2764   9.3054
     9.3611   9.3867   9.4221   9.4461   9.4921   9.5404   9.5424   9.5831
     9.5903   9.7084   9.7562   9.7565   9.8569   9.9525   9.9799  10.0000
    10.0549  10.1336  10.2074  10.2315  10.2636  10.3056  10.3373  10.3495
    10.3550  10.4283  10.4657  10.6111  10.6325  10.7323  10.7505  10.8666
    10.8712  10.9779  10.9877  11.0154  11.0335  11.0354  11.0412  11.0470
    11.1433  11.2119  11.2233  11.3126  11.3732  11.3873  11.4408  11.5169
    11.5526  11.5658  11.6043  11.6619  11.7104  11.7497  11.8339  11.8418
    11.9530  11.9581  12.0131  12.0411  12.0581  12.0686  12.2310  12.3017
    12.3060  12.3255  12.3433  12.3508  12.3577  12.4262  12.4796  12.5009
    12.5171  12.5578  12.6014  12.6202  12.8045  12.8192  12.8374  13.0150
    13.3825  13.3835  13.3999  13.4056  13.8484  14.1989  14.5777  14.7815
    14.8510  15.3951  15.4543  15.5549  15.6438  15.8676  15.9522  16.0339
    17.0544  17.1493  17.2169  17.2660  17.2682  17.3100  17.3269  17.3397
    17.3661  17.3895  17.4291  17.4539  17.4598  17.4815  17.6772  17.6890
    17.6902  17.6944  17.8079  17.8722  17.9174  18.0619  18.2405  18.4967
    18.5494  18.6811  18.6910  18.7554  18.8305  19.2166  19.4362  19.5252
    20.4844  20.5069

          k =-0.3536 0.3536 1.0883 ( 13708 PWs)   bands (ev):

   -66.4859 -66.4853 -61.8129 -61.8122 -61.8092 -61.8084 -61.7658 -61.7651
   -35.2497 -35.2495 -35.2362 -35.2361 -35.1966 -35.1963 -30.6432 -30.6428
   -30.6418 -30.6415 -30.6392 -30.6389 -30.6388 -30.6385 -30.6374 -30.6371
   -30.6338 -30.6336 -30.5966 -30.5962 -30.5939 -30.5937 -30.5903 -30.5901
     8.1291   8.1920   8.3102   8.4772   8.4800   8.5000   8.5585   8.6140
     8.6560   8.8667   8.8972   8.9871   9.0559   9.0666   9.1721   9.1835
     9.3697   9.4420   9.5315   9.5446   9.5632   9.5840   9.6188   9.6984
     9.7296   9.7583   9.7895   9.8305   9.8545   9.8762   9.9198   9.9983
    10.0140  10.0355  10.0424  10.0612  10.0986  10.1126  10.1204  10.1723
    10.1847  10.2393  10.2434  10.3153  10.3406  10.4855  10.4948  10.5983
    10.6823  10.7455  10.7715  10.7775  10.8182  11.0121  11.1839  11.2512
    11.3127  11.3229  11.3705  11.4062  11.4803  11.4904  11.5217  11.5541
    11.5787  11.6641  11.6779  11.7966  11.8770  11.8857  11.9821  12.0071
    12.0700  12.1333  12.1440  12.1686  12.1779  12.1998  12.2738  12.2747
    12.2983  12.3727  12.3728  12.4522  12.4826  12.5187  12.5204  12.5405
    12.5405  12.6150  12.7118  12.7473  12.7954  12.8566  12.9621  13.0104
    13.0772  13.2452  13.3887  13.8470  14.0320  14.0340  14.2236  14.7244
    14.8628  14.9163  15.2791  15.4720  15.5192  15.5880  15.7871  16.1756
    16.9631  16.9780  16.9783  17.1943  17.2681  17.3188  17.3630  17.4054
    17.4081  17.4083  17.4187  17.4873  17.4978  17.5086  17.5229  17.5902
    17.6233  17.6856  17.7694  17.8763  17.9388  18.0469  18.0498  18.0613
    18.1301  18.1548  18.4557  18.5006  18.5100  18.5209  18.8439  19.6437
    19.8539  19.9524

          k =-0.5303 0.1768-0.1360 ( 13660 PWs)   bands (ev):

   -66.4859 -66.4854 -61.8129 -61.8121 -61.8093 -61.8085 -61.7658 -61.7653
   -35.2496 -35.2495 -35.2362 -35.2362 -35.1966 -35.1964 -30.6432 -30.6428
   -30.6416 -30.6413 -30.6392 -30.6390 -30.6386 -30.6383 -30.6375 -30.6372
   -30.6340 -30.6337 -30.5965 -30.5963 -30.5937 -30.5936 -30.5904 -30.5902
     6.5823   6.7272   7.6823   7.8026   8.4297   8.7223   8.7661   8.9160
     8.9420   8.9900   9.2452   9.2484   9.2577   9.3838   9.4224   9.4441
     9.4794   9.4991   9.5699   9.6581   9.6856   9.7156   9.7481   9.7580
     9.8152   9.8797   9.9025   9.9787  10.0041  10.0446  10.0480  10.0524
    10.0861  10.1228  10.1395  10.1655  10.2262  10.2369  10.2953  10.3643
    10.4085  10.4474  10.4610  10.5809  10.6099  10.6500  10.6894  10.6915
    10.7600  10.8371  10.8976  10.9035  10.9282  10.9949  11.0406  11.0755
    11.1824  11.1842  11.2505  11.2703  11.2789  11.3751  11.4226  11.4270
    11.4385  11.4828  11.4842  11.5926  11.6360  11.6673  11.6689  11.7104
    11.8111  11.8212  11.8220  11.8723  12.0471  12.0771  12.1004  12.1331
    12.1796  12.2123  12.2646  12.2715  12.3483  12.3959  12.4884  12.5399
    12.5653  12.6298  12.6629  12.6992  12.7447  12.8109  12.9730  13.0189
    13.1241  13.5525  13.7881  13.9999  14.5814  14.9142  14.9268  15.3067
    15.3252  15.3463  15.4764  15.7081  15.9263  16.1601  16.3527  16.4914
    16.6695  16.9213  17.1293  17.1833  17.2131  17.2592  17.2987  17.3457
    17.3797  17.3999  17.4002  17.4712  17.5005  17.5722  17.5727  17.6742
    17.7403  17.9268  17.9544  18.0616  18.2331  18.2525  18.3217  18.3311
    18.5349  18.6008  18.6027  18.6474  18.9746  19.2135  19.7241  20.1213
    20.5880  20.8831

          k =-0.5303 0.1768-0.6802 ( 13694 PWs)   bands (ev):

   -66.4858 -66.4854 -61.8129 -61.8121 -61.8092 -61.8085 -61.7657 -61.7653
   -35.2496 -35.2495 -35.2362 -35.2362 -35.1966 -35.1964 -30.6432 -30.6428
   -30.6417 -30.6414 -30.6392 -30.6390 -30.6387 -30.6384 -30.6375 -30.6372
   -30.6339 -30.6337 -30.5965 -30.5963 -30.5938 -30.5936 -30.5904 -30.5902
     7.3894   7.4462   7.4990   7.5775   8.7717   8.8275   8.9974   9.0447
     9.0596   9.0752   9.0867   9.0988   9.1177   9.2001   9.2169   9.2545
     9.3337   9.4205   9.4222   9.4993   9.5597   9.5641   9.5658   9.5842
     9.5857   9.6682   9.7061   9.7079   9.7852   9.9032   9.9531  10.0931
    10.1026  10.1109  10.1415  10.1952  10.3233  10.3909  10.4008  10.4041
    10.4232  10.4356  10.5163  10.5327  10.5775  10.5809  10.6611  10.8687
    10.8820  10.9151  10.9480  10.9817  11.0537  11.0590  11.0592  11.0838
    11.1081  11.1920  11.2441  11.2687  11.2970  11.3194  11.3833  11.4087
    11.4350  11.4616  11.4923  11.6208  11.7109  11.7332  11.7410  11.7655
    11.9550  11.9927  12.0048  12.0412  12.1350  12.1409  12.2041  12.2431
    12.2665  12.3133  12.3605  12.3620  12.4066  12.4074  12.4266  12.4971
    12.5862  12.5948  12.6356  12.6937  12.7742  12.8039  13.2035  13.4097
    13.4751  13.5079  13.6318  13.7577  13.7816  13.9966  14.6014  14.6652
    14.7894  14.7906  15.4519  15.4810  15.7898  15.9514  16.2532  16.3178
    17.0089  17.1201  17.1526  17.2743  17.3017  17.3412  17.3724  17.4173
    17.4185  17.4189  17.4357  17.4378  17.4911  17.5472  17.5677  17.7319
    17.7391  17.7830  17.8681  17.8929  18.0395  18.1601  18.2013  18.3909
    18.4011  18.4478  18.8098  18.8489  18.9595  18.9932  19.1485  19.2923
    19.8784  20.1741

          k =-0.5303 0.1768 0.9522 ( 13712 PWs)   bands (ev):

   -66.4858 -66.4853 -61.8129 -61.8121 -61.8092 -61.8085 -61.7657 -61.7652
   -35.2497 -35.2495 -35.2362 -35.2362 -35.1966 -35.1964 -30.6432 -30.6428
   -30.6418 -30.6414 -30.6392 -30.6390 -30.6387 -30.6385 -30.6374 -30.6371
   -30.6339 -30.6336 -30.5965 -30.5963 -30.5939 -30.5937 -30.5903 -30.5902
     8.0310   8.0688   8.0700   8.1861   8.6111   8.6612   8.7006   8.7233
     8.7939   8.8675   8.9118   8.9833   9.0865   9.1447   9.1651   9.1665
     9.3824   9.4038   9.4099   9.5022   9.5457   9.5485   9.5746   9.5920
     9.6941   9.7108   9.7313   9.7525   9.7740   9.8560   9.8899   9.9184
    10.0106  10.0194  10.0227  10.0939  10.1114  10.1807  10.1833  10.1969
    10.1998  10.3100  10.3305  10.3572  10.5474  10.6360  10.6519  10.7769
    10.8716  10.8879  10.8889  10.8998  10.9158  11.1273  11.1322  11.1815
    11.2484  11.2938  11.3277  11.3671  11.4314  11.4771  11.5357  11.5897
    11.6512  11.7283  11.7438  11.8283  11.8755  11.9173  11.9893  11.9929
    12.0210  12.0899  12.1174  12.1760  12.1820  12.1915  12.2206  12.2490
    12.2606  12.3583  12.3856  12.4190  12.4257  12.4932  12.5080  12.5431
    12.5565  12.6624  12.6813  12.7149  12.9047  12.9868  13.0018  13.0092
    13.0677  13.1064  13.3687  13.5879  13.7062  13.9100  14.2765  14.2844
    14.4771  14.8225  15.2146  15.3405  15.6405  15.6630  15.9423  16.1940
    16.9840  17.0482  17.0506  17.1263  17.1484  17.3595  17.3712  17.3934
    17.4270  17.4432  17.4510  17.4585  17.4753  17.4810  17.5702  17.5887
    17.5898  17.6321  17.7301  17.7378  17.8789  17.9680  18.0717  18.2696
    18.3714  18.3730  18.3826  18.5208  18.5237  18.5707  18.6248  18.7300
    19.8553  20.2328

          k =-0.5303 0.1768 0.4081 ( 13670 PWs)   bands (ev):

   -66.4858 -66.4853 -61.8129 -61.8121 -61.8093 -61.8085 -61.7658 -61.7652
   -35.2496 -35.2495 -35.2362 -35.2362 -35.1966 -35.1964 -30.6432 -30.6428
   -30.6417 -30.6414 -30.6392 -30.6390 -30.6387 -30.6384 -30.6375 -30.6372
   -30.6339 -30.6337 -30.5965 -30.5962 -30.5938 -30.5937 -30.5903 -30.5902
     6.8666   7.0000   8.4293   8.4506   8.5675   8.6252   8.6543   8.6637
     8.7943   8.8983   9.1320   9.1524   9.2335   9.2521   9.2852   9.3441
     9.3549   9.3953   9.4799   9.5131   9.5170   9.6110   9.6127   9.6371
     9.6596   9.7093   9.7628   9.8361   9.8704   9.9370   9.9662  10.0062
    10.0318  10.0654  10.1542  10.1843  10.1888  10.2108  10.2350  10.2686
    10.3463  10.4735  10.5084  10.6027  10.6404  10.7529  10.8301  10.8429
    10.9022  10.9215  10.9781  11.0119  11.0689  11.1196  11.1326  11.1878
    11.1942  11.2191  11.2651  11.3463  11.4218  11.4410  11.4579  11.4820
    11.6213  11.6347  11.7049  11.7545  11.7572  11.7619  11.8296  11.9114
    11.9241  11.9363  11.9952  12.0418  12.1332  12.1620  12.1700  12.2197
    12.2221  12.2545  12.2683  12.4189  12.4482  12.4535  12.4748  12.4923
    12.5752  12.5995  12.6206  12.6657  12.7201  12.7629  12.8488  12.8699
    12.8830  12.8936  13.2994  13.3411  14.3765  14.6646  14.7035  14.7307
    14.8065  15.3138  15.4536  15.5128  15.5323  15.6684  15.6751  16.1025
    16.8998  16.9840  17.0615  17.1861  17.2572  17.2596  17.2869  17.3578
    17.3688  17.3704  17.3926  17.4570  17.4969  17.5001  17.5781  17.6309
    17.7275  17.7288  17.7888  17.8855  18.0031  18.0385  18.2076  18.4008
    18.4194  18.4759  18.5523  18.5902  19.4393  19.5802  19.8460  19.8830
    20.0019  20.1648

          k = 0.0000 0.7071 0.2721 ( 13680 PWs)   bands (ev):

   -66.4856 -66.4856 -61.8129 -61.8120 -61.8093 -61.8085 -61.7655 -61.7655
   -35.2495 -35.2495 -35.2362 -35.2362 -35.1965 -35.1965 -30.6431 -30.6428
   -30.6416 -30.6413 -30.6393 -30.6390 -30.6385 -30.6383 -30.6375 -30.6372
   -30.6340 -30.6337 -30.5964 -30.5964 -30.5936 -30.5936 -30.5903 -30.5903
     7.0292   7.0295   7.1616   7.1618   8.7157   8.7160   8.9658   8.9659
     9.1414   9.1415   9.1748   9.1751   9.2847   9.2847   9.3067   9.3068
     9.5689   9.5690   9.5907   9.5909   9.6205   9.6207   9.6403   9.6404
     9.7856   9.7858   9.8984   9.8984  10.0502  10.0503  10.1094  10.1094
    10.1500  10.1501  10.1918  10.1919  10.1987  10.1987  10.2694  10.2695
    10.4964  10.4965  10.6157  10.6157  10.6177  10.6177  10.7627  10.7627
    10.8556  10.8558  10.9902  10.9904  11.1115  11.1116  11.1419  11.1419
    11.1777  11.1777  11.2144  11.2145  11.2198  11.2198  11.3119  11.3120
    11.3197  11.3197  11.3892  11.3893  11.5734  11.5734  11.7116  11.7119
    11.7259  11.7260  11.8845  11.8846  11.9534  11.9537  12.1818  12.1818
    12.1917  12.1918  12.2116  12.2117  12.3680  12.3681  12.5934  12.5935
    12.6118  12.6120  12.6780  12.6782  12.7260  12.7261  13.2636  13.2637
    13.4909  13.4912  14.0891  14.0892  14.5754  14.5755  15.0032  15.0038
    15.1760  15.1760  15.6141  15.6160  15.7769  15.7777  16.5779  16.5794
    16.7635  16.7657  17.2346  17.2381  17.3345  17.3361  17.3639  17.3648
    17.3746  17.3762  17.5413  17.5445  17.6834  17.6845  17.6988  17.7022
    17.8560  17.8583  18.1073  18.1087  18.1558  18.1559  18.2511  18.2518
    18.4886  18.4902  18.7435  18.7443  19.2990  19.2997  19.3667  19.3679
    20.8346  20.8349

          k = 0.0000 0.7071-0.2721 ( 13688 PWs)   bands (ev):

   -66.4856 -66.4856 -61.8128 -61.8120 -61.8093 -61.8085 -61.7655 -61.7655
   -35.2496 -35.2495 -35.2362 -35.2362 -35.1965 -35.1965 -30.6431 -30.6428
   -30.6417 -30.6414 -30.6393 -30.6390 -30.6386 -30.6384 -30.6375 -30.6372
   -30.6339 -30.6337 -30.5964 -30.5964 -30.5937 -30.5937 -30.5903 -30.5903
     7.0296   7.1622   7.9302   8.0385   8.7068   8.7157   8.7587   8.8897
     8.9648   8.9672   9.1404   9.1518   9.1710   9.1758   9.2419   9.2842
     9.3058   9.4453   9.5479   9.5657   9.5907   9.5949   9.6195   9.6256
     9.6408   9.7500   9.7856   9.8005   9.8063   9.8971   9.9493  10.0521
    10.1097  10.1339  10.1500  10.1903  10.1979  10.2213  10.2349  10.2573
    10.2684  10.3022  10.4969  10.6202  10.6244  10.7580  10.7619  10.8479
    10.8558  10.9897  11.0411  11.0845  11.1094  11.1253  11.1419  11.1553
    11.1778  11.2145  11.2206  11.2728  11.3110  11.3156  11.3295  11.3854
    11.4937  11.5536  11.5751  11.6927  11.7138  11.7273  11.8215  11.8839
    11.9153  11.9570  11.9988  12.0146  12.1198  12.1315  12.1817  12.1917
    12.2116  12.2545  12.2987  12.3338  12.3700  12.4389  12.5920  12.6122
    12.6188  12.6235  12.6369  12.6804  12.6956  12.7257  13.1032  13.2127
    13.2467  13.2631  13.4899  13.5926  14.0873  14.1321  14.4231  14.5772
    15.0079  15.1769  15.4296  15.6160  15.6195  15.7704  16.3111  16.5750
    16.6305  16.7644  17.0545  17.2340  17.2470  17.3298  17.3380  17.3620
    17.3715  17.4551  17.4658  17.4967  17.5358  17.5507  17.6474  17.6844
    17.6899  17.6948  17.8504  17.8837  18.1150  18.1221  18.1618  18.2518
    18.4062  18.4711  18.4895  18.5009  18.6870  18.7474  19.3046  19.3695
    20.7576  20.8367

          k = 0.0000 0.7071 1.3603 ( 13696 PWs)   bands (ev):

   -66.4856 -66.4856 -61.8128 -61.8121 -61.8093 -61.8086 -61.7655 -61.7655
   -35.2496 -35.2496 -35.2362 -35.2362 -35.1965 -35.1965 -30.6431 -30.6428
   -30.6418 -30.6414 -30.6393 -30.6390 -30.6387 -30.6385 -30.6374 -30.6371
   -30.6339 -30.6336 -30.5964 -30.5964 -30.5938 -30.5938 -30.5902 -30.5902
     7.9315   7.9317   8.0396   8.0397   8.7062   8.7064   8.7556   8.7558
     8.8900   8.8900   8.9642   8.9645   9.1486   9.1487   9.1716   9.1716
     9.2439   9.2441   9.4454   9.4454   9.5493   9.5494   9.5948   9.5949
     9.6263   9.6264   9.7527   9.7527   9.7998   9.7999   9.8036   9.8036
     9.9470   9.9470  10.1295  10.1296  10.2204  10.2205  10.2334  10.2335
    10.2606  10.2607  10.3050  10.3051  10.7598  10.7599  10.8475  10.8476
    11.0430  11.0431  11.0845  11.0847  11.1246  11.1246  11.1575  11.1576
    11.2718  11.2718  11.3275  11.3276  11.4945  11.4946  11.5538  11.5538
    11.6929  11.6930  11.8222  11.8222  11.9073  11.9073  11.9990  11.9991
    12.0189  12.0189  12.1208  12.1209  12.1329  12.1330  12.2547  12.2548
    12.2999  12.3000  12.3361  12.3361  12.4432  12.4432  12.6186  12.6186
    12.6210  12.6210  12.6366  12.6366  12.6937  12.6938  13.1041  13.1043
    13.2104  13.2105  13.2483  13.2486  13.5882  13.5883  14.1317  14.1324
    14.4233  14.4239  15.4307  15.4324  15.6181  15.6197  16.3144  16.3146
    16.6345  16.6347  17.0555  17.0565  17.2475  17.2480  17.3270  17.3281
    17.4474  17.4482  17.4554  17.4572  17.4954  17.5005  17.5410  17.5416
    17.6449  17.6468  17.6817  17.6822  17.8871  17.8896  18.1234  18.1262
    18.4072  18.4096  18.4799  18.4807  18.5003  18.5036  18.6826  18.6849
    20.7599  20.7600

     the Fermi energy is    15.5463 ev

!    total energy              =  -14693.94319960 Ry
     Harris-Foulkes estimate   =  -14693.94318959 Ry
     estimated scf accuracy    <       0.00000056 Ry

     total all-electron energy =   -626921.538922 Ry

     The total energy is the sum of the following terms:

     one-electron contribution =    -698.68120522 Ry
     hartree contribution      =     651.80272207 Ry
     xc contribution           =    -738.10871946 Ry
     ewald contribution        =   -2207.56121140 Ry
     Hubbard energy            =       0.46415451 Ry
     one-center paw contrib.   =  -11701.85894009 Ry

     total magnetization       =    17.09 Bohr mag/cell
     absolute magnetization    =    36.66 Bohr mag/cell

     convergence has been achieved in  22 iterations

     Writing output data file mnau2.save/
 
     init_run     :     21.67s CPU     22.49s WALL (       1 calls)
     electrons    :   1074.81s CPU   1106.92s WALL (       1 calls)

     Called by init_run:
     wfcinit      :     19.35s CPU     20.07s WALL (       1 calls)
     potinit      :      1.19s CPU      1.21s WALL (       1 calls)
     hinit0       :      0.67s CPU      0.71s WALL (       1 calls)

     Called by electrons:
     c_bands      :    930.51s CPU    957.05s WALL (      22 calls)
     sum_band     :    118.86s CPU    123.19s WALL (      22 calls)
     v_of_rho     :      2.02s CPU      2.03s WALL (      23 calls)
     newd         :      7.63s CPU      8.51s WALL (      23 calls)
     PAW_pot      :     16.37s CPU     16.45s WALL (      23 calls)
     mix_rho      :      0.34s CPU      0.36s WALL (      22 calls)

     Called by c_bands:
     init_us_2    :      9.29s CPU      9.34s WALL (    2760 calls)
     cegterg      :    885.19s CPU    911.14s WALL (    1320 calls)

     Called by sum_band:
     sum_band:bec :      0.99s CPU      1.00s WALL (    1320 calls)
     addusdens    :     14.45s CPU     16.01s WALL (      22 calls)

     Called by *egterg:
     h_psi        :    393.34s CPU    406.79s WALL (    4596 calls)
     s_psi        :     58.99s CPU     59.13s WALL (    4656 calls)
     g_psi        :      2.13s CPU      2.15s WALL (    3216 calls)
     cdiaghg      :    310.60s CPU    316.59s WALL (    4536 calls)

     Called by h_psi:
     h_psi:pot    :    371.45s CPU    382.23s WALL (    4596 calls)
     h_psi:calbec :     56.53s CPU     59.31s WALL (    4596 calls)
     vloc_psi     :    257.78s CPU    265.12s WALL (    4596 calls)
     add_vuspsi   :     57.10s CPU     57.77s WALL (    4596 calls)
     vhpsi        :     19.20s CPU     19.31s WALL (    4596 calls)

     General routines
     calbec       :     92.60s CPU     96.31s WALL (   11892 calls)
     fft          :      1.03s CPU      1.06s WALL (     571 calls)
     ffts         :      0.05s CPU      0.05s WALL (      90 calls)
     fftw         :    286.96s CPU    294.91s WALL ( 1278038 calls)
     interpolate  :      0.12s CPU      0.12s WALL (      46 calls)
     davcio       :      0.00s CPU      1.49s WALL (      60 calls)
 
     Parallel routines
     fft_scatt_xy :     35.50s CPU     36.37s WALL ( 1278699 calls)
     fft_scatt_yz :     94.21s CPU     97.14s WALL ( 1278699 calls)

     Hubbard U routines
     new_ns       :      5.30s CPU      5.58s WALL (      22 calls)
     vhpsi        :     19.20s CPU     19.31s WALL (    4596 calls)
 
     PWSCF        : 18m21.63s CPU    19m14.17s WALL

 
   This run was terminated on:  12: 4:22  26Mar2019            

=------------------------------------------------------------------------------=
   JOB DONE.
=------------------------------------------------------------------------------=
