
     Program PWSCF v.6.3MaX starts on 26Mar2019 at 12:42:25 

     This program is part of the open-source Quantum ESPRESSO suite
     for quantum simulation of materials; please cite
         "P. Giannozzi et al., J. Phys.:Condens. Matter 21 395502 (2009);
         "P. Giannozzi et al., J. Phys.:Condens. Matter 29 465901 (2017);
          URL http://www.quantum-espresso.org", 
     in publications or presentations arising from this work. More details at
     http://www.quantum-espresso.org/quote

     Parallel version (MPI), running on    16 processors

     MPI processes distributed on     1 nodes
     R & G space division:  proc/nbgrp/npool/nimage =      16
     Waiting for input...
     Reading input from standard input

     Current dimensions of program PWSCF are:
     Max number of different atomic species (ntypx) = 10
     Max number of k-points (npk) =  40000
     Max angular momentum in pseudopotentials (lmaxx) =  3
     Message from routine read_upf::
     Pseudo file ./pseudo/Mn.pbe-spn-kjpaw_psl.0.3.1.UPF has been successfully fixed on the fly.
To avoid this message in the future you can permanently fix 
 your pseudo files following instructions given in: 
https://gitlab.com/QEF/q-e/blob/master/upftools/how_to_fix_upf.md
               file Mn.pbe-spn-kjpaw_psl.0.3.1.UPF: wavefunction(s)  3P 3D renormalized
     Message from routine read_upf::
     Pseudo file ./pseudo/Mn.pbe-spn-kjpaw_psl.0.3.1.UPF has been successfully fixed on the fly.
To avoid this message in the future you can permanently fix 
 your pseudo files following instructions given in: 
https://gitlab.com/QEF/q-e/blob/master/upftools/how_to_fix_upf.md
               file Mn.pbe-spn-kjpaw_psl.0.3.1.UPF: wavefunction(s)  3P 3D renormalized
     Message from routine read_upf::
     Pseudo file ./pseudo/Au.pbe-dn-kjpaw_psl.0.1.UPF has been successfully fixed on the fly.
To avoid this message in the future you can permanently fix 
 your pseudo files following instructions given in: 
https://gitlab.com/QEF/q-e/blob/master/upftools/how_to_fix_upf.md
               file Au.pbe-dn-kjpaw_psl.0.1.UPF: wavefunction(s)  6S 6P 5D renormalized

     Subspace diagonalization in iterative solution of the eigenvalue problem:
     one sub-group per band group will be used
     scalapack distributed-memory algorithm (size of sub-group:  2*  2 procs)

 
     Parallelization info
     --------------------
     sticks:   dense  smooth     PW     G-vecs:    dense   smooth      PW
     Min         646     290     84                22663     6843    1075
     Max         647     291     85                22664     6844    1077
     Sum       10349    4645   1353               362619   109493   17211
 


     bravais-lattice index     =            0
     lattice parameter (alat)  =      18.0125  a.u.
     unit-cell volume          =    2685.0513 (a.u.)^3
     number of atoms/cell      =           24
     number of atomic types    =            3
     number of electrons       =       296.00
     number of Kohn-Sham states=          178
     kinetic-energy cutoff     =      45.0000  Ry
     charge density cutoff     =     400.0000  Ry
     convergence threshold     =      1.0E-06
     mixing beta               =       0.1000
     number of iterations used =            8  plain     mixing
     Exchange-correlation      = SLA PW PBX PBC ( 1  4  3  4 0 0)

     celldm(1)=  18.012490  celldm(2)=   0.000000  celldm(3)=   0.000000
     celldm(4)=   0.000000  celldm(5)=   0.000000  celldm(6)=   0.000000

     crystal axes: (cart. coord. in units of alat)
               a(1) = (   0.707107  -0.707107   0.000000 )  
               a(2) = (  -0.707107  -0.707107   0.000000 )  
               a(3) = (   0.176777   0.176777  -0.459443 )  

     reciprocal axes: (cart. coord. in units 2 pi/alat)
               b(1) = (  0.707107 -0.707107  0.000000 )  
               b(2) = ( -0.707107 -0.707107 -0.544138 )  
               b(3) = (  0.000000  0.000000 -2.176550 )  


     PseudoPot. # 1 for Mn read from file:
     ./pseudo/Mn.pbe-spn-kjpaw_psl.0.3.1.UPF
     MD5 check sum: 7eef95dd2aae66803482eea66ebeebf1
     Pseudo is Projector augmented-wave + core cor, Zval = 15.0
     Generated using "atomic" code by A. Dal Corso v.5.0.99 svn rev. 10869
     Shape of augmentation charge: PSQ
     Using radial grid of 1187 points,  6 beta functions with: 
                l(1) =   0
                l(2) =   0
                l(3) =   1
                l(4) =   1
                l(5) =   2
                l(6) =   2
     Q(r) pseudized with 0 coefficients 


     PseudoPot. # 2 for Mn read from file:
     ./pseudo/Mn.pbe-spn-kjpaw_psl.0.3.1.UPF
     MD5 check sum: 7eef95dd2aae66803482eea66ebeebf1
     Pseudo is Projector augmented-wave + core cor, Zval = 15.0
     Generated using "atomic" code by A. Dal Corso v.5.0.99 svn rev. 10869
     Shape of augmentation charge: PSQ
     Using radial grid of 1187 points,  6 beta functions with: 
                l(1) =   0
                l(2) =   0
                l(3) =   1
                l(4) =   1
                l(5) =   2
                l(6) =   2
     Q(r) pseudized with 0 coefficients 


     PseudoPot. # 3 for Au read from file:
     ./pseudo/Au.pbe-dn-kjpaw_psl.0.1.UPF
     MD5 check sum: 5c9b92683623e7ae2ab3f8e525febab6
     Pseudo is Projector augmented-wave + core cor, Zval = 11.0
     Generated using "atomic" code by A. Dal Corso v.5.0.2 svn rev. 9415
     Shape of augmentation charge: PSQ
     Using radial grid of 1279 points,  6 beta functions with: 
                l(1) =   0
                l(2) =   0
                l(3) =   1
                l(4) =   1
                l(5) =   2
                l(6) =   2
     Q(r) pseudized with 0 coefficients 


     atomic species   valence    mass     pseudopotential
        Mn1           15.00    54.93800     Mn( 1.00)
        Mn2           15.00    54.93800     Mn( 1.00)
        Au            11.00   196.96600     Au( 1.00)

     Starting magnetic structure 
     atomic species   magnetization
        Mn1          1.000
        Mn2         -1.000
        Au           0.000


     Full LDA+U calculation (l_max = 2) with parameters (eV):
     U(  1) =   3.1200   J(  1) =   0.7000   B(  1) =   0.0803
     U(  2) =   3.1200   J(  2) =   0.7000   B(  2) =   0.0803



     No symmetry found



   Cartesian axes

     site n.     atom                  positions (alat units)
         1           Mn1 tau(   1) = (   0.3535534  -0.3535534   0.0000000  )
         2           Mn1 tau(   2) = (   0.0000000   0.0000000   0.0000000  )
         3           Mn2 tau(   3) = (   0.0000000  -0.3535534   0.0000000  )
         4           Mn2 tau(   4) = (   0.3535534  -0.7071068   0.0000000  )
         5           Mn1 tau(   5) = (  -0.3535534  -0.3535534   0.0000000  )
         6           Mn2 tau(   6) = (   0.0000000  -0.7071068   0.0000000  )
         7           Mn1 tau(   7) = (  -0.3535534  -0.7071068   0.0000000  )
         8           Mn2 tau(   8) = (   0.0000000  -1.0606602   0.0000000  )
         9           Au  tau(   9) = (  -0.1767767  -0.1767767  -0.1470216  )
        10           Au  tau(  10) = (   0.1767767  -0.5303301  -0.1470216  )
        11           Au  tau(  11) = (  -0.1767767  -0.5303301  -0.1470216  )
        12           Au  tau(  12) = (   0.1767767  -0.8838835  -0.1470216  )
        13           Au  tau(  13) = (  -0.5303301  -0.5303301  -0.1470216  )
        14           Au  tau(  14) = (  -0.1767767  -0.8838835  -0.1470216  )
        15           Au  tau(  15) = (   0.5303301  -0.5303301  -0.1470216  )
        16           Au  tau(  16) = (   0.1767767  -0.1767767  -0.1470216  )
        17           Au  tau(  17) = (   0.3535534  -0.3535534  -0.3124210  )
        18           Au  tau(  18) = (   0.0000000   0.0000000  -0.3124210  )
        19           Au  tau(  19) = (   0.0000000  -0.3535534  -0.3124210  )
        20           Au  tau(  20) = (   0.3535534  -0.7071068  -0.3124210  )
        21           Au  tau(  21) = (  -0.3535534  -0.3535534  -0.3124210  )
        22           Au  tau(  22) = (  -0.0000000  -0.7071068  -0.3124210  )
        23           Au  tau(  23) = (  -0.3535534  -0.7071068  -0.3124210  )
        24           Au  tau(  24) = (   0.0000000  -1.0606602  -0.3124210  )

     number of k points=    36 (tetrahedron method)
                       cart. coord. in units 2pi/alat
        k(    1) = (   0.0000000   0.0000000   0.0000000), wk =   0.0156250
        k(    2) = (   0.0000000   0.0000000  -0.5441376), wk =   0.0312500
        k(    3) = (   0.0000000   0.0000000   1.0882752), wk =   0.0156250
        k(    4) = (  -0.1767767  -0.1767767  -0.1360344), wk =   0.0312500
        k(    5) = (  -0.1767767  -0.1767767  -0.6801720), wk =   0.0312500
        k(    6) = (  -0.1767767  -0.1767767   0.9522408), wk =   0.0312500
        k(    7) = (  -0.1767767  -0.1767767   0.4081032), wk =   0.0312500
        k(    8) = (   0.3535534   0.3535534   0.2720688), wk =   0.0156250
        k(    9) = (   0.3535534   0.3535534  -0.2720688), wk =   0.0312500
        k(   10) = (   0.3535534   0.3535534   1.3603439), wk =   0.0156250
        k(   11) = (   0.1767767  -0.1767767   0.0000000), wk =   0.0312500
        k(   12) = (   0.1767767  -0.1767767  -0.5441376), wk =   0.0312500
        k(   13) = (   0.1767767  -0.1767767   1.0882752), wk =   0.0312500
        k(   14) = (   0.0000000  -0.3535534  -0.1360344), wk =   0.0312500
        k(   15) = (   0.0000000  -0.3535534  -0.6801720), wk =   0.0312500
        k(   16) = (   0.0000000  -0.3535534   0.9522408), wk =   0.0312500
        k(   17) = (   0.0000000  -0.3535534   0.4081032), wk =   0.0312500
        k(   18) = (   0.5303301   0.1767767   0.2720688), wk =   0.0312500
        k(   19) = (   0.5303301   0.1767767  -0.2720688), wk =   0.0312500
        k(   20) = (   0.5303301   0.1767767   1.3603439), wk =   0.0312500
        k(   21) = (  -0.3535534   0.3535534   0.0000000), wk =   0.0156250
        k(   22) = (  -0.3535534   0.3535534  -0.5441376), wk =   0.0312500
        k(   23) = (  -0.3535534   0.3535534   1.0882752), wk =   0.0156250
        k(   24) = (  -0.5303301   0.1767767  -0.1360344), wk =   0.0312500
        k(   25) = (  -0.5303301   0.1767767  -0.6801720), wk =   0.0312500
        k(   26) = (  -0.5303301   0.1767767   0.9522408), wk =   0.0312500
        k(   27) = (  -0.5303301   0.1767767   0.4081032), wk =   0.0312500
        k(   28) = (   0.0000000   0.7071068   0.2720688), wk =   0.0156250
        k(   29) = (   0.0000000   0.7071068  -0.2720688), wk =   0.0312500
        k(   30) = (   0.0000000   0.7071068   1.3603439), wk =   0.0156250
        k(   31) = (   0.1767767  -0.1767767   0.5441376), wk =   0.0312500
        k(   32) = (   0.3535534   0.0000000   0.1360344), wk =   0.0312500
        k(   33) = (   0.3535534   0.0000000   0.6801720), wk =   0.0312500
        k(   34) = (   0.3535534   0.0000000  -0.9522408), wk =   0.0312500
        k(   35) = (   0.3535534   0.0000000  -0.4081032), wk =   0.0312500
        k(   36) = (  -0.1767767  -0.5303301   0.2720688), wk =   0.0312500

     Dense  grid:   362619 G-vectors     FFT dimensions: ( 120, 120,  60)

     Smooth grid:   109493 G-vectors     FFT dimensions: (  80,  80,  45)

     Estimated max dynamical RAM per process >     321.00 MB

     Estimated total dynamical RAM >       5.02 GB
     Generating pointlists ...
     new r_m :   0.1196 (alat units)  2.1549 (a.u.) for type    1
     new r_m :   0.1196 (alat units)  2.1549 (a.u.) for type    2
     new r_m :   0.1196 (alat units)  2.1549 (a.u.) for type    3

     Check: negative/imaginary core charge=   -0.000006    0.000000

     Initial potential from superposition of free atoms

     starting charge  295.99426, renormalised to  296.00000
     Number of +U iterations with fixed ns =  0
     Starting occupations:
 --- enter write_ns ---
 LDA+U parameters:
U(  1) =   3.1200   J(  1) =   0.7000   B(  1) =   0.0803
U(  2) =   3.1200   J(  2) =   0.7000   B(  2) =   0.0803
atom    1   Tr[ns(na)] (up, down, total) =   5.00000  0.00000  5.00000
   spin  1
    eigenvalues: 
  1.000  1.000  1.000  1.000  1.000
    eigenvectors:
  1.000  0.000  0.000  0.000  0.000
  0.000  1.000  0.000  0.000  0.000
  0.000  0.000  1.000  0.000  0.000
  0.000  0.000  0.000  1.000  0.000
  0.000  0.000  0.000  0.000  1.000
    occupations:
  1.000  0.000  0.000  0.000  0.000
  0.000  1.000  0.000  0.000  0.000
  0.000  0.000  1.000  0.000  0.000
  0.000  0.000  0.000  1.000  0.000
  0.000  0.000  0.000  0.000  1.000
   spin  2
    eigenvalues: 
  0.000  0.000  0.000  0.000  0.000
    eigenvectors:
  1.000  0.000  0.000  0.000  0.000
  0.000  1.000  0.000  0.000  0.000
  0.000  0.000  1.000  0.000  0.000
  0.000  0.000  0.000  1.000  0.000
  0.000  0.000  0.000  0.000  1.000
    occupations:
  0.000  0.000  0.000  0.000  0.000
  0.000  0.000  0.000  0.000  0.000
  0.000  0.000  0.000  0.000  0.000
  0.000  0.000  0.000  0.000  0.000
  0.000  0.000  0.000  0.000  0.000
atomic mag. moment =     5.000000
atom    2   Tr[ns(na)] (up, down, total) =   5.00000  0.00000  5.00000
   spin  1
    eigenvalues: 
  1.000  1.000  1.000  1.000  1.000
    eigenvectors:
  1.000  0.000  0.000  0.000  0.000
  0.000  1.000  0.000  0.000  0.000
  0.000  0.000  1.000  0.000  0.000
  0.000  0.000  0.000  1.000  0.000
  0.000  0.000  0.000  0.000  1.000
    occupations:
  1.000  0.000  0.000  0.000  0.000
  0.000  1.000  0.000  0.000  0.000
  0.000  0.000  1.000  0.000  0.000
  0.000  0.000  0.000  1.000  0.000
  0.000  0.000  0.000  0.000  1.000
   spin  2
    eigenvalues: 
  0.000  0.000  0.000  0.000  0.000
    eigenvectors:
  1.000  0.000  0.000  0.000  0.000
  0.000  1.000  0.000  0.000  0.000
  0.000  0.000  1.000  0.000  0.000
  0.000  0.000  0.000  1.000  0.000
  0.000  0.000  0.000  0.000  1.000
    occupations:
  0.000  0.000  0.000  0.000  0.000
  0.000  0.000  0.000  0.000  0.000
  0.000  0.000  0.000  0.000  0.000
  0.000  0.000  0.000  0.000  0.000
  0.000  0.000  0.000  0.000  0.000
atomic mag. moment =     5.000000
atom    3   Tr[ns(na)] (up, down, total) =   0.00000  5.00000  5.00000
   spin  1
    eigenvalues: 
  0.000  0.000  0.000  0.000  0.000
    eigenvectors:
  1.000  0.000  0.000  0.000  0.000
  0.000  1.000  0.000  0.000  0.000
  0.000  0.000  1.000  0.000  0.000
  0.000  0.000  0.000  1.000  0.000
  0.000  0.000  0.000  0.000  1.000
    occupations:
  0.000  0.000  0.000  0.000  0.000
  0.000  0.000  0.000  0.000  0.000
  0.000  0.000  0.000  0.000  0.000
  0.000  0.000  0.000  0.000  0.000
  0.000  0.000  0.000  0.000  0.000
   spin  2
    eigenvalues: 
  1.000  1.000  1.000  1.000  1.000
    eigenvectors:
  1.000  0.000  0.000  0.000  0.000
  0.000  1.000  0.000  0.000  0.000
  0.000  0.000  1.000  0.000  0.000
  0.000  0.000  0.000  1.000  0.000
  0.000  0.000  0.000  0.000  1.000
    occupations:
  1.000  0.000  0.000  0.000  0.000
  0.000  1.000  0.000  0.000  0.000
  0.000  0.000  1.000  0.000  0.000
  0.000  0.000  0.000  1.000  0.000
  0.000  0.000  0.000  0.000  1.000
atomic mag. moment =    -5.000000
atom    4   Tr[ns(na)] (up, down, total) =   0.00000  5.00000  5.00000
   spin  1
    eigenvalues: 
  0.000  0.000  0.000  0.000  0.000
    eigenvectors:
  1.000  0.000  0.000  0.000  0.000
  0.000  1.000  0.000  0.000  0.000
  0.000  0.000  1.000  0.000  0.000
  0.000  0.000  0.000  1.000  0.000
  0.000  0.000  0.000  0.000  1.000
    occupations:
  0.000  0.000  0.000  0.000  0.000
  0.000  0.000  0.000  0.000  0.000
  0.000  0.000  0.000  0.000  0.000
  0.000  0.000  0.000  0.000  0.000
  0.000  0.000  0.000  0.000  0.000
   spin  2
    eigenvalues: 
  1.000  1.000  1.000  1.000  1.000
    eigenvectors:
  1.000  0.000  0.000  0.000  0.000
  0.000  1.000  0.000  0.000  0.000
  0.000  0.000  1.000  0.000  0.000
  0.000  0.000  0.000  1.000  0.000
  0.000  0.000  0.000  0.000  1.000
    occupations:
  1.000  0.000  0.000  0.000  0.000
  0.000  1.000  0.000  0.000  0.000
  0.000  0.000  1.000  0.000  0.000
  0.000  0.000  0.000  1.000  0.000
  0.000  0.000  0.000  0.000  1.000
atomic mag. moment =    -5.000000
atom    5   Tr[ns(na)] (up, down, total) =   5.00000  0.00000  5.00000
   spin  1
    eigenvalues: 
  1.000  1.000  1.000  1.000  1.000
    eigenvectors:
  1.000  0.000  0.000  0.000  0.000
  0.000  1.000  0.000  0.000  0.000
  0.000  0.000  1.000  0.000  0.000
  0.000  0.000  0.000  1.000  0.000
  0.000  0.000  0.000  0.000  1.000
    occupations:
  1.000  0.000  0.000  0.000  0.000
  0.000  1.000  0.000  0.000  0.000
  0.000  0.000  1.000  0.000  0.000
  0.000  0.000  0.000  1.000  0.000
  0.000  0.000  0.000  0.000  1.000
   spin  2
    eigenvalues: 
  0.000  0.000  0.000  0.000  0.000
    eigenvectors:
  1.000  0.000  0.000  0.000  0.000
  0.000  1.000  0.000  0.000  0.000
  0.000  0.000  1.000  0.000  0.000
  0.000  0.000  0.000  1.000  0.000
  0.000  0.000  0.000  0.000  1.000
    occupations:
  0.000  0.000  0.000  0.000  0.000
  0.000  0.000  0.000  0.000  0.000
  0.000  0.000  0.000  0.000  0.000
  0.000  0.000  0.000  0.000  0.000
  0.000  0.000  0.000  0.000  0.000
atomic mag. moment =     5.000000
atom    6   Tr[ns(na)] (up, down, total) =   0.00000  5.00000  5.00000
   spin  1
    eigenvalues: 
  0.000  0.000  0.000  0.000  0.000
    eigenvectors:
  1.000  0.000  0.000  0.000  0.000
  0.000  1.000  0.000  0.000  0.000
  0.000  0.000  1.000  0.000  0.000
  0.000  0.000  0.000  1.000  0.000
  0.000  0.000  0.000  0.000  1.000
    occupations:
  0.000  0.000  0.000  0.000  0.000
  0.000  0.000  0.000  0.000  0.000
  0.000  0.000  0.000  0.000  0.000
  0.000  0.000  0.000  0.000  0.000
  0.000  0.000  0.000  0.000  0.000
   spin  2
    eigenvalues: 
  1.000  1.000  1.000  1.000  1.000
    eigenvectors:
  1.000  0.000  0.000  0.000  0.000
  0.000  1.000  0.000  0.000  0.000
  0.000  0.000  1.000  0.000  0.000
  0.000  0.000  0.000  1.000  0.000
  0.000  0.000  0.000  0.000  1.000
    occupations:
  1.000  0.000  0.000  0.000  0.000
  0.000  1.000  0.000  0.000  0.000
  0.000  0.000  1.000  0.000  0.000
  0.000  0.000  0.000  1.000  0.000
  0.000  0.000  0.000  0.000  1.000
atomic mag. moment =    -5.000000
atom    7   Tr[ns(na)] (up, down, total) =   5.00000  0.00000  5.00000
   spin  1
    eigenvalues: 
  1.000  1.000  1.000  1.000  1.000
    eigenvectors:
  1.000  0.000  0.000  0.000  0.000
  0.000  1.000  0.000  0.000  0.000
  0.000  0.000  1.000  0.000  0.000
  0.000  0.000  0.000  1.000  0.000
  0.000  0.000  0.000  0.000  1.000
    occupations:
  1.000  0.000  0.000  0.000  0.000
  0.000  1.000  0.000  0.000  0.000
  0.000  0.000  1.000  0.000  0.000
  0.000  0.000  0.000  1.000  0.000
  0.000  0.000  0.000  0.000  1.000
   spin  2
    eigenvalues: 
  0.000  0.000  0.000  0.000  0.000
    eigenvectors:
  1.000  0.000  0.000  0.000  0.000
  0.000  1.000  0.000  0.000  0.000
  0.000  0.000  1.000  0.000  0.000
  0.000  0.000  0.000  1.000  0.000
  0.000  0.000  0.000  0.000  1.000
    occupations:
  0.000  0.000  0.000  0.000  0.000
  0.000  0.000  0.000  0.000  0.000
  0.000  0.000  0.000  0.000  0.000
  0.000  0.000  0.000  0.000  0.000
  0.000  0.000  0.000  0.000  0.000
atomic mag. moment =     5.000000
atom    8   Tr[ns(na)] (up, down, total) =   0.00000  5.00000  5.00000
   spin  1
    eigenvalues: 
  0.000  0.000  0.000  0.000  0.000
    eigenvectors:
  1.000  0.000  0.000  0.000  0.000
  0.000  1.000  0.000  0.000  0.000
  0.000  0.000  1.000  0.000  0.000
  0.000  0.000  0.000  1.000  0.000
  0.000  0.000  0.000  0.000  1.000
    occupations:
  0.000  0.000  0.000  0.000  0.000
  0.000  0.000  0.000  0.000  0.000
  0.000  0.000  0.000  0.000  0.000
  0.000  0.000  0.000  0.000  0.000
  0.000  0.000  0.000  0.000  0.000
   spin  2
    eigenvalues: 
  1.000  1.000  1.000  1.000  1.000
    eigenvectors:
  1.000  0.000  0.000  0.000  0.000
  0.000  1.000  0.000  0.000  0.000
  0.000  0.000  1.000  0.000  0.000
  0.000  0.000  0.000  1.000  0.000
  0.000  0.000  0.000  0.000  1.000
    occupations:
  1.000  0.000  0.000  0.000  0.000
  0.000  1.000  0.000  0.000  0.000
  0.000  0.000  1.000  0.000  0.000
  0.000  0.000  0.000  1.000  0.000
  0.000  0.000  0.000  0.000  1.000
atomic mag. moment =    -5.000000
N of occupied +U levels =   40.000000
 --- exit write_ns ---
 Atomic wfc used for LDA+U Projector are NOT orthogonalized
     Starting wfcs are  224 randomized atomic wfcs
     Checking if some PAW data can be deallocated... 

     total cpu time spent up to now is       28.6 secs

     Self-consistent Calculation

     iteration #  1     ecut=    45.00 Ry     beta= 0.10
     Davidson diagonalization with overlap
     ethr =  1.00E-02,  avg # of iterations =  4.4
 --- enter write_ns ---
 LDA+U parameters:
U(  1) =   3.1200   J(  1) =   0.7000   B(  1) =   0.0803
U(  2) =   3.1200   J(  2) =   0.7000   B(  2) =   0.0803
atom    1   Tr[ns(na)] (up, down, total) =   5.01470  0.27740  5.29210
   spin  1
    eigenvalues: 
  1.003  1.003  1.003  1.003  1.003
    eigenvectors:
  0.000  0.000  0.000  0.998  0.001
  0.001  0.954  0.044  0.000  0.001
  0.007  0.042  0.950  0.000  0.000
  0.000  0.001  0.000  0.001  0.998
  0.991  0.003  0.006  0.000  0.000
    occupations:
  1.003  0.000 -0.000  0.000  0.000
  0.000  1.003 -0.000  0.000  0.000
 -0.000 -0.000  1.003  0.000  0.000
  0.000  0.000  0.000  1.003  0.000
  0.000  0.000  0.000  0.000  1.003
   spin  2
    eigenvalues: 
  0.042  0.053  0.054  0.056  0.072
    eigenvectors:
  0.007  0.558  0.405  0.030  0.001
  0.000  0.293  0.191  0.512  0.005
  0.000  0.147  0.400  0.448  0.005
  0.993  0.003  0.004  0.000  0.000
  0.000  0.000  0.000  0.010  0.990
    occupations:
  0.054  0.001  0.000 -0.001  0.001
  0.001  0.055  0.001 -0.000  0.001
  0.000  0.001  0.055  0.000  0.001
 -0.001 -0.000  0.000  0.043  0.000
  0.001  0.001  0.001  0.000  0.072
atomic mag. moment =     4.737307
atom    2   Tr[ns(na)] (up, down, total) =   5.01481  0.27448  5.28929
   spin  1
    eigenvalues: 
  1.003  1.003  1.003  1.003  1.003
    eigenvectors:
  0.000  0.000  0.003  0.995  0.002
  0.000  0.180  0.817  0.002  0.000
  0.009  0.814  0.177  0.000  0.000
  0.000  0.000  0.000  0.002  0.998
  0.991  0.006  0.002  0.000  0.000
    occupations:
  1.003 -0.000 -0.000 -0.000  0.000
 -0.000  1.003  0.000 -0.000 -0.000
 -0.000  0.000  1.003  0.000 -0.000
 -0.000 -0.000  0.000  1.003 -0.000
  0.000 -0.000 -0.000 -0.000  1.003
   spin  2
    eigenvalues: 
  0.042  0.052  0.054  0.054  0.072
    eigenvectors:
  0.011  0.926  0.045  0.018  0.000
  0.000  0.013  0.718  0.268  0.001
  0.000  0.051  0.235  0.714  0.000
  0.989  0.010  0.001  0.000  0.000
  0.000  0.000  0.000  0.000  0.999
    occupations:
  0.052 -0.000  0.001  0.001  0.000
 -0.000  0.054  0.000 -0.000  0.000
  0.001  0.000  0.054  0.000 -0.000
  0.001 -0.000  0.000  0.042 -0.000
  0.000  0.000 -0.000 -0.000  0.072
atomic mag. moment =     4.740328
atom    3   Tr[ns(na)] (up, down, total) =   0.27781  5.01472  5.29253
   spin  1
    eigenvalues: 
  0.043  0.053  0.054  0.056  0.072
    eigenvectors:
  0.007  0.625  0.331  0.036  0.001
  0.000  0.245  0.182  0.570  0.004
  0.000  0.126  0.484  0.383  0.006
  0.993  0.004  0.003  0.000  0.000
  0.000  0.001  0.000  0.011  0.989
    occupations:
  0.054  0.001  0.000 -0.001  0.001
  0.001  0.055  0.001 -0.000  0.001
  0.000  0.001  0.055  0.000  0.001
 -0.001 -0.000  0.000  0.043  0.000
  0.001  0.001  0.001  0.000  0.072
   spin  2
    eigenvalues: 
  1.003  1.003  1.003  1.003  1.003
    eigenvectors:
  0.001  0.005  0.000  0.968  0.026
  0.000  0.900  0.094  0.005  0.000
  0.000  0.094  0.906  0.000  0.000
  0.000  0.000  0.000  0.026  0.974
  0.999  0.000  0.000  0.001  0.000
    occupations:
  1.003 -0.000  0.000  0.000  0.000
 -0.000  1.003  0.000  0.000  0.000
  0.000  0.000  1.003 -0.000  0.000
  0.000  0.000 -0.000  1.003 -0.000
  0.000  0.000  0.000 -0.000  1.003
atomic mag. moment =    -4.736910
atom    4   Tr[ns(na)] (up, down, total) =   0.27511  5.01451  5.28962
   spin  1
    eigenvalues: 
  0.042  0.052  0.054  0.055  0.073
    eigenvectors:
  0.011  0.932  0.033  0.023  0.000
  0.000  0.010  0.794  0.195  0.000
  0.000  0.048  0.171  0.781  0.000
  0.989  0.009  0.002  0.000  0.000
  0.000  0.000  0.000  0.000  1.000
    occupations:
  0.052 -0.000  0.001  0.001  0.000
 -0.000  0.054  0.000 -0.000  0.000
  0.001  0.000  0.054  0.000 -0.000
  0.001 -0.000  0.000  0.042  0.000
  0.000  0.000 -0.000  0.000  0.073
   spin  2
    eigenvalues: 
  1.003  1.003  1.003  1.003  1.003
    eigenvectors:
  0.001  0.002  0.000  0.986  0.011
  0.000  0.020  0.980  0.000  0.000
  0.000  0.978  0.020  0.002  0.000
  0.001  0.000  0.000  0.011  0.988
  0.999  0.000  0.000  0.000  0.001
    occupations:
  1.003  0.000 -0.000 -0.000 -0.000
  0.000  1.003  0.000 -0.000 -0.000
 -0.000  0.000  1.003 -0.000 -0.000
 -0.000 -0.000 -0.000  1.003  0.000
 -0.000 -0.000 -0.000  0.000  1.003
atomic mag. moment =    -4.739392
atom    5   Tr[ns(na)] (up, down, total) =   5.01471  0.27640  5.29111
   spin  1
    eigenvalues: 
  1.003  1.003  1.003  1.003  1.003
    eigenvectors:
  0.001  0.000  0.001  0.969  0.029
  0.002  0.926  0.071  0.000  0.001
  0.001  0.072  0.925  0.001  0.000
  0.000  0.001  0.000  0.029  0.970
  0.995  0.001  0.002  0.001  0.000
    occupations:
  1.003  0.000  0.000  0.000 -0.000
  0.000  1.003  0.000  0.000  0.000
  0.000  0.000  1.003  0.000  0.000
  0.000  0.000  0.000  1.003  0.000
 -0.000  0.000  0.000  0.000  1.003
   spin  2
    eigenvalues: 
  0.042  0.052  0.055  0.055  0.072
    eigenvectors:
  0.011  0.937  0.002  0.048  0.001
  0.000  0.047  0.203  0.750  0.000
  0.000  0.004  0.794  0.201  0.001
  0.989  0.011  0.000  0.000  0.000
  0.000  0.001  0.001  0.001  0.998
    occupations:
  0.052  0.001 -0.000 -0.001 -0.001
  0.001  0.055 -0.000  0.000 -0.000
 -0.000 -0.000  0.055  0.000  0.001
 -0.001  0.000  0.000  0.042  0.000
 -0.001 -0.000  0.001  0.000  0.072
atomic mag. moment =     4.738318
atom    6   Tr[ns(na)] (up, down, total) =   0.27364  5.01515  5.28879
   spin  1
    eigenvalues: 
  0.040  0.052  0.055  0.056  0.071
    eigenvectors:
  0.008  0.959  0.007  0.025  0.001
  0.000  0.023  0.003  0.971  0.002
  0.000  0.008  0.983  0.002  0.007
  0.992  0.008  0.000  0.000  0.000
  0.000  0.002  0.006  0.002  0.990
    occupations:
  0.052  0.001  0.000 -0.001 -0.001
  0.001  0.055  0.000 -0.000  0.001
  0.000  0.000  0.055  0.000  0.001
 -0.001 -0.000  0.000  0.040 -0.000
 -0.001  0.001  0.001 -0.000  0.071
   spin  2
    eigenvalues: 
  1.003  1.003  1.003  1.003  1.004
    eigenvectors:
  0.000  0.000  0.001  0.991  0.007
  0.000  0.702  0.298  0.000  0.000
  0.006  0.297  0.696  0.002  0.000
  0.000  0.000  0.000  0.007  0.992
  0.994  0.001  0.005  0.000  0.000
    occupations:
  1.003  0.000  0.000  0.000 -0.000
  0.000  1.003  0.000 -0.000  0.000
  0.000  0.000  1.003 -0.000  0.000
  0.000 -0.000 -0.000  1.004  0.000
 -0.000  0.000  0.000  0.000  1.003
atomic mag. moment =    -4.741504
atom    7   Tr[ns(na)] (up, down, total) =   5.01498  0.27379  5.28877
   spin  1
    eigenvalues: 
  1.003  1.003  1.003  1.003  1.004
    eigenvectors:
  0.000  0.000  0.000  0.997  0.003
  0.000  1.000  0.000  0.000  0.000
  0.000  0.000  1.000  0.000  0.000
  0.000  0.000  0.000  0.002  0.997
  1.000  0.000  0.000  0.000  0.000
    occupations:
  1.003 -0.000 -0.000  0.000  0.000
 -0.000  1.003 -0.000 -0.000  0.000
 -0.000 -0.000  1.003  0.000  0.000
  0.000 -0.000  0.000  1.004 -0.000
  0.000  0.000  0.000 -0.000  1.003
   spin  2
    eigenvalues: 
  0.040  0.052  0.055  0.056  0.071
    eigenvectors:
  0.008  0.960  0.003  0.028  0.001
  0.000  0.024  0.026  0.947  0.002
  0.000  0.006  0.966  0.022  0.006
  0.992  0.008  0.000  0.000  0.000
  0.000  0.002  0.005  0.003  0.990
    occupations:
  0.052  0.001  0.000 -0.001 -0.001
  0.001  0.055  0.000 -0.000  0.001
  0.000  0.000  0.055  0.000  0.001
 -0.001 -0.000  0.000  0.040 -0.000
 -0.001  0.001  0.001 -0.000  0.071
atomic mag. moment =     4.741187
atom    8   Tr[ns(na)] (up, down, total) =   0.27619  5.01466  5.29085
   spin  1
    eigenvalues: 
  0.042  0.052  0.054  0.055  0.072
    eigenvectors:
  0.010  0.922  0.012  0.056  0.001
  0.000  0.067  0.267  0.666  0.000
  0.000  0.001  0.720  0.278  0.001
  0.990  0.009  0.000  0.000  0.000
  0.000  0.001  0.000  0.001  0.998
    occupations:
  0.052  0.001 -0.000 -0.001 -0.001
  0.001  0.055 -0.000  0.000 -0.000
 -0.000 -0.000  0.055  0.000  0.001
 -0.001  0.000  0.000  0.042  0.000
 -0.001 -0.000  0.001  0.000  0.072
   spin  2
    eigenvalues: 
  1.003  1.003  1.003  1.003  1.003
    eigenvectors:
  0.001  0.001  0.001  0.996  0.001
  0.000  0.929  0.071  0.001  0.000
  0.000  0.070  0.928  0.001  0.001
  0.000  0.000  0.000  0.001  0.998
  0.998  0.000  0.000  0.001  0.000
    occupations:
  1.003  0.000 -0.000  0.000 -0.000
  0.000  1.003  0.000 -0.000 -0.000
 -0.000  0.000  1.003  0.000  0.000
  0.000 -0.000  0.000  1.003 -0.000
 -0.000 -0.000  0.000 -0.000  1.003
atomic mag. moment =    -4.738469
N of occupied +U levels =   42.323066
 --- exit write_ns ---

     total cpu time spent up to now is      112.7 secs

     total energy              =  -14679.25186169 Ry
     Harris-Foulkes estimate   =  -14669.87747144 Ry
     estimated scf accuracy    <      21.27589330 Ry

     total magnetization       =    -0.00 Bohr mag/cell
     absolute magnetization    =    43.52 Bohr mag/cell

     iteration #  2     ecut=    45.00 Ry     beta= 0.10
     Davidson diagonalization with overlap
     ethr =  7.19E-03,  avg # of iterations =  1.0

     total cpu time spent up to now is      157.2 secs

     total energy              =  -14692.14786506 Ry
     Harris-Foulkes estimate   =  -14679.35619132 Ry
     estimated scf accuracy    <      17.16732896 Ry

     total magnetization       =     0.00 Bohr mag/cell
     absolute magnetization    =    43.11 Bohr mag/cell

     iteration #  3     ecut=    45.00 Ry     beta= 0.10
     Davidson diagonalization with overlap
     ethr =  5.80E-03,  avg # of iterations =  2.1

     total cpu time spent up to now is      210.8 secs

     total energy              =  -14693.88181957 Ry
     Harris-Foulkes estimate   =  -14693.76955609 Ry
     estimated scf accuracy    <       4.14146498 Ry

     total magnetization       =     0.00 Bohr mag/cell
     absolute magnetization    =    39.24 Bohr mag/cell

     iteration #  4     ecut=    45.00 Ry     beta= 0.10
     Davidson diagonalization with overlap
     ethr =  1.40E-03,  avg # of iterations =  5.3

     total cpu time spent up to now is      289.5 secs

     total energy              =  -14693.38463294 Ry
     Harris-Foulkes estimate   =  -14693.92280776 Ry
     estimated scf accuracy    <       4.65234247 Ry

     total magnetization       =     0.00 Bohr mag/cell
     absolute magnetization    =    38.99 Bohr mag/cell

     iteration #  5     ecut=    45.00 Ry     beta= 0.10
     Davidson diagonalization with overlap
     ethr =  1.40E-03,  avg # of iterations =  4.2

     total cpu time spent up to now is      366.3 secs

     total energy              =  -14693.87518322 Ry
     Harris-Foulkes estimate   =  -14693.84486823 Ry
     estimated scf accuracy    <       0.18998956 Ry

     total magnetization       =    -0.00 Bohr mag/cell
     absolute magnetization    =    37.99 Bohr mag/cell

     iteration #  6     ecut=    45.00 Ry     beta= 0.10
     Davidson diagonalization with overlap
     ethr =  6.42E-05,  avg # of iterations =  3.8

     total cpu time spent up to now is      466.0 secs

     total energy              =  -14693.95451013 Ry
     Harris-Foulkes estimate   =  -14693.93299547 Ry
     estimated scf accuracy    <       0.25454303 Ry

     total magnetization       =    -0.00 Bohr mag/cell
     absolute magnetization    =    37.02 Bohr mag/cell

     iteration #  7     ecut=    45.00 Ry     beta= 0.10
     Davidson diagonalization with overlap
     ethr =  6.42E-05,  avg # of iterations =  1.0

     total cpu time spent up to now is      510.5 secs

     total energy              =  -14693.85809347 Ry
     Harris-Foulkes estimate   =  -14693.96347850 Ry
     estimated scf accuracy    <       0.55548406 Ry

     total magnetization       =    -0.00 Bohr mag/cell
     absolute magnetization    =    36.94 Bohr mag/cell

     iteration #  8     ecut=    45.00 Ry     beta= 0.10
     Davidson diagonalization with overlap
     ethr =  6.42E-05,  avg # of iterations =  3.2

     total cpu time spent up to now is      590.7 secs

     total energy              =  -14693.92158104 Ry
     Harris-Foulkes estimate   =  -14693.92377876 Ry
     estimated scf accuracy    <       0.00667697 Ry

     total magnetization       =     0.00 Bohr mag/cell
     absolute magnetization    =    36.95 Bohr mag/cell

     iteration #  9     ecut=    45.00 Ry     beta= 0.10
     Davidson diagonalization with overlap
     ethr =  2.26E-06,  avg # of iterations =  4.0

     total cpu time spent up to now is      689.8 secs

     total energy              =  -14693.92294174 Ry
     Harris-Foulkes estimate   =  -14693.92386494 Ry
     estimated scf accuracy    <       0.02578840 Ry

     total magnetization       =     0.00 Bohr mag/cell
     absolute magnetization    =    36.98 Bohr mag/cell

     iteration # 10     ecut=    45.00 Ry     beta= 0.10
     Davidson diagonalization with overlap
     ethr =  2.26E-06,  avg # of iterations =  3.8

     total cpu time spent up to now is      787.9 secs

     total energy              =  -14693.92731697 Ry
     Harris-Foulkes estimate   =  -14693.92598471 Ry
     estimated scf accuracy    <       0.00142319 Ry

     total magnetization       =    -0.00 Bohr mag/cell
     absolute magnetization    =    36.93 Bohr mag/cell

     iteration # 11     ecut=    45.00 Ry     beta= 0.10
     Davidson diagonalization with overlap
     ethr =  4.81E-07,  avg # of iterations =  2.5

     total cpu time spent up to now is      842.9 secs

     total energy              =  -14693.92773101 Ry
     Harris-Foulkes estimate   =  -14693.92752733 Ry
     estimated scf accuracy    <       0.00084816 Ry

     total magnetization       =    -0.00 Bohr mag/cell
     absolute magnetization    =    36.83 Bohr mag/cell

     iteration # 12     ecut=    45.00 Ry     beta= 0.10
     Davidson diagonalization with overlap
     ethr =  2.87E-07,  avg # of iterations =  1.3

     total cpu time spent up to now is      889.4 secs

     total energy              =  -14693.92795184 Ry
     Harris-Foulkes estimate   =  -14693.92777457 Ry
     estimated scf accuracy    <       0.00034812 Ry

     total magnetization       =     0.00 Bohr mag/cell
     absolute magnetization    =    36.82 Bohr mag/cell

     iteration # 13     ecut=    45.00 Ry     beta= 0.10
     Davidson diagonalization with overlap
     ethr =  1.18E-07,  avg # of iterations =  2.8

     total cpu time spent up to now is      957.0 secs

     total energy              =  -14693.92804853 Ry
     Harris-Foulkes estimate   =  -14693.92801628 Ry
     estimated scf accuracy    <       0.00006287 Ry

     total magnetization       =     0.00 Bohr mag/cell
     absolute magnetization    =    36.78 Bohr mag/cell

     iteration # 14     ecut=    45.00 Ry     beta= 0.10
     Davidson diagonalization with overlap
     ethr =  2.12E-08,  avg # of iterations =  2.1

     total cpu time spent up to now is     1009.8 secs

     total energy              =  -14693.92806524 Ry
     Harris-Foulkes estimate   =  -14693.92804894 Ry
     estimated scf accuracy    <       0.00002210 Ry

     total magnetization       =     0.00 Bohr mag/cell
     absolute magnetization    =    36.77 Bohr mag/cell

     iteration # 15     ecut=    45.00 Ry     beta= 0.10
     Davidson diagonalization with overlap
     ethr =  7.47E-09,  avg # of iterations =  3.0

     total cpu time spent up to now is     1069.1 secs

     total energy              =  -14693.92807565 Ry
     Harris-Foulkes estimate   =  -14693.92806344 Ry
     estimated scf accuracy    <       0.00001238 Ry

     total magnetization       =     0.00 Bohr mag/cell
     absolute magnetization    =    36.77 Bohr mag/cell

     iteration # 16     ecut=    45.00 Ry     beta= 0.10
     Davidson diagonalization with overlap
     ethr =  4.18E-09,  avg # of iterations =  1.8

     total cpu time spent up to now is     1118.4 secs

     total energy              =  -14693.92808115 Ry
     Harris-Foulkes estimate   =  -14693.92807076 Ry
     estimated scf accuracy    <       0.00000731 Ry

     total magnetization       =     0.00 Bohr mag/cell
     absolute magnetization    =    36.77 Bohr mag/cell

     iteration # 17     ecut=    45.00 Ry     beta= 0.10
     Davidson diagonalization with overlap
     ethr =  2.47E-09,  avg # of iterations =  2.7

     total cpu time spent up to now is     1175.3 secs

     total energy              =  -14693.92808101 Ry
     Harris-Foulkes estimate   =  -14693.92807606 Ry
     estimated scf accuracy    <       0.00000151 Ry

     total magnetization       =     0.00 Bohr mag/cell
     absolute magnetization    =    36.77 Bohr mag/cell

     iteration # 18     ecut=    45.00 Ry     beta= 0.10
     Davidson diagonalization with overlap
     ethr =  5.10E-10,  avg # of iterations =  2.6
 
     Magnetic moment per site:
     atom:    1    charge:   13.5357    magn:    4.2575    constr:    0.0000
     atom:    2    charge:   13.5405    magn:    4.2250    constr:    0.0000
     atom:    3    charge:   13.5358    magn:   -4.2575    constr:    0.0000
     atom:    4    charge:   13.5405    magn:   -4.2249    constr:    0.0000
     atom:    5    charge:   13.5383    magn:    4.2431    constr:    0.0000
     atom:    6    charge:   13.5425    magn:   -4.2074    constr:    0.0000
     atom:    7    charge:   13.5425    magn:    4.2074    constr:    0.0000
     atom:    8    charge:   13.5385    magn:   -4.2431    constr:    0.0000
     atom:    9    charge:    9.0919    magn:    0.0001    constr:    0.0000
     atom:   10    charge:    9.0932    magn:   -0.0336    constr:    0.0000
     atom:   11    charge:    9.0916    magn:    0.0129    constr:    0.0000
     atom:   12    charge:    9.0901    magn:   -0.0219    constr:    0.0000
     atom:   13    charge:    9.0911    magn:    0.0181    constr:    0.0000
     atom:   14    charge:    9.0911    magn:    0.0044    constr:    0.0000
     atom:   15    charge:    9.0925    magn:    0.0002    constr:    0.0000
     atom:   16    charge:    9.0929    magn:    0.0194    constr:    0.0000
     atom:   17    charge:    9.0930    magn:   -0.0194    constr:    0.0000
     atom:   18    charge:    9.0925    magn:   -0.0002    constr:    0.0000
     atom:   19    charge:    9.0912    magn:   -0.0044    constr:    0.0000
     atom:   20    charge:    9.0912    magn:   -0.0181    constr:    0.0000
     atom:   21    charge:    9.0901    magn:    0.0219    constr:    0.0000
     atom:   22    charge:    9.0916    magn:   -0.0130    constr:    0.0000
     atom:   23    charge:    9.0933    magn:    0.0336    constr:    0.0000
     atom:   24    charge:    9.0919    magn:   -0.0001    constr:    0.0000

     total cpu time spent up to now is     1231.0 secs

     End of self-consistent calculation
 --- enter write_ns ---
 LDA+U parameters:
U(  1) =   3.1200   J(  1) =   0.7000   B(  1) =   0.0803
U(  2) =   3.1200   J(  2) =   0.7000   B(  2) =   0.0803
atom    1   Tr[ns(na)] (up, down, total) =   4.97118  0.71873  5.68990
   spin  1
    eigenvalues: 
  0.986  0.993  0.994  0.997  1.002
    eigenvectors:
  0.005  0.035  0.001  0.957  0.003
  0.003  0.587  0.381  0.027  0.001
  0.003  0.370  0.618  0.009  0.000
  0.000  0.000  0.000  0.003  0.996
  0.989  0.008  0.000  0.003  0.000
    occupations:
  0.997 -0.001 -0.000  0.000 -0.001
 -0.001  0.993 -0.000 -0.000 -0.000
 -0.000 -0.000  0.994 -0.000 -0.000
  0.000 -0.000 -0.000  1.002  0.000
 -0.001 -0.000 -0.000  0.000  0.986
   spin  2
    eigenvalues: 
  0.070  0.125  0.136  0.147  0.240
    eigenvectors:
  0.000  0.982  0.001  0.017  0.001
  0.002  0.012  0.497  0.487  0.002
  0.000  0.004  0.489  0.469  0.037
  0.998  0.000  0.001  0.001  0.000
  0.000  0.002  0.012  0.026  0.960
    occupations:
  0.126 -0.002 -0.001  0.001  0.004
 -0.002  0.141  0.006 -0.003  0.003
 -0.001  0.006  0.145  0.000  0.019
  0.001 -0.003  0.000  0.071  0.000
  0.004  0.003  0.019  0.000  0.237
atomic mag. moment =     4.252450
atom    2   Tr[ns(na)] (up, down, total) =   4.96674  0.74560  5.71234
   spin  1
    eigenvalues: 
  0.983  0.993  0.993  0.996  1.001
    eigenvectors:
  0.000  0.000  0.004  0.994  0.002
  0.001  0.310  0.686  0.003  0.000
  0.000  0.690  0.309  0.001  0.000
  0.000  0.000  0.000  0.002  0.998
  0.999  0.000  0.001  0.000  0.000
    occupations:
  0.996  0.000 -0.000 -0.000 -0.000
  0.000  0.993 -0.000  0.000 -0.000
 -0.000 -0.000  0.993 -0.000  0.000
 -0.000  0.000 -0.000  1.001 -0.000
 -0.000 -0.000  0.000 -0.000  0.983
   spin  2
    eigenvalues: 
  0.070  0.127  0.140  0.151  0.257
    eigenvectors:
  0.000  0.620  0.069  0.303  0.007
  0.001  0.143  0.255  0.597  0.004
  0.001  0.235  0.660  0.078  0.026
  0.999  0.001  0.000  0.000  0.000
  0.000  0.001  0.015  0.021  0.963
    occupations:
  0.136  0.009  0.008 -0.000 -0.009
  0.009  0.145  0.001  0.002 -0.007
  0.008  0.001  0.141  0.002 -0.018
 -0.000  0.002  0.002  0.070  0.000
 -0.009 -0.007 -0.018  0.000  0.253
atomic mag. moment =     4.221148
atom    3   Tr[ns(na)] (up, down, total) =   0.71881  4.97119  5.69000
   spin  1
    eigenvalues: 
  0.070  0.125  0.136  0.147  0.240
    eigenvectors:
  0.000  0.982  0.001  0.017  0.001
  0.002  0.012  0.497  0.487  0.002
  0.000  0.004  0.489  0.469  0.037
  0.998  0.000  0.001  0.001  0.000
  0.000  0.002  0.012  0.026  0.960
    occupations:
  0.126 -0.002 -0.001  0.001  0.004
 -0.002  0.141  0.006 -0.003  0.003
 -0.001  0.006  0.145  0.000  0.019
  0.001 -0.003  0.000  0.071  0.000
  0.004  0.003  0.019  0.000  0.237
   spin  2
    eigenvalues: 
  0.986  0.993  0.994  0.997  1.002
    eigenvectors:
  0.005  0.035  0.001  0.957  0.003
  0.003  0.587  0.381  0.027  0.001
  0.003  0.370  0.618  0.009  0.000
  0.000  0.000  0.000  0.003  0.996
  0.989  0.008  0.000  0.003  0.000
    occupations:
  0.997 -0.001 -0.000  0.000 -0.001
 -0.001  0.993 -0.000 -0.000 -0.000
 -0.000 -0.000  0.994 -0.000 -0.000
  0.000 -0.000 -0.000  1.002  0.000
 -0.001 -0.000 -0.000  0.000  0.986
atomic mag. moment =    -4.252385
atom    4   Tr[ns(na)] (up, down, total) =   0.74563  4.96674  5.71237
   spin  1
    eigenvalues: 
  0.070  0.127  0.140  0.151  0.257
    eigenvectors:
  0.000  0.620  0.069  0.303  0.007
  0.001  0.143  0.255  0.597  0.004
  0.001  0.235  0.660  0.078  0.026
  0.999  0.001  0.000  0.000  0.000
  0.000  0.001  0.015  0.021  0.963
    occupations:
  0.136  0.009  0.008 -0.000 -0.009
  0.009  0.145  0.001  0.002 -0.007
  0.008  0.001  0.141  0.002 -0.018
 -0.000  0.002  0.002  0.070  0.000
 -0.009 -0.007 -0.018  0.000  0.253
   spin  2
    eigenvalues: 
  0.983  0.993  0.993  0.996  1.001
    eigenvectors:
  0.000  0.000  0.004  0.994  0.002
  0.001  0.310  0.686  0.003  0.000
  0.000  0.690  0.309  0.001  0.000
  0.000  0.000  0.000  0.002  0.998
  0.999  0.000  0.001  0.000  0.000
    occupations:
  0.996  0.000 -0.000 -0.000 -0.000
  0.000  0.993 -0.000  0.000 -0.000
 -0.000 -0.000  0.993 -0.000  0.000
 -0.000  0.000 -0.000  1.001 -0.000
 -0.000 -0.000  0.000 -0.000  0.983
atomic mag. moment =    -4.221106
atom    5   Tr[ns(na)] (up, down, total) =   4.96951  0.73076  5.70027
   spin  1
    eigenvalues: 
  0.985  0.992  0.994  0.997  1.001
    eigenvectors:
  0.005  0.000  0.044  0.946  0.004
  0.003  0.497  0.477  0.021  0.001
  0.000  0.500  0.475  0.025  0.000
  0.000  0.001  0.001  0.003  0.995
  0.991  0.002  0.002  0.004  0.000
    occupations:
  0.997  0.001  0.001  0.000  0.001
  0.001  0.993  0.001 -0.000 -0.000
  0.001  0.001  0.993  0.000  0.000
  0.000 -0.000  0.000  1.001  0.000
  0.001 -0.000  0.000  0.000  0.985
   spin  2
    eigenvalues: 
  0.070  0.123  0.143  0.148  0.246
    eigenvectors:
  0.000  0.889  0.035  0.047  0.029
  0.001  0.024  0.900  0.061  0.015
  0.000  0.067  0.041  0.892  0.000
  0.999  0.000  0.001  0.000  0.000
  0.000  0.020  0.023  0.000  0.956
    occupations:
  0.129  0.005  0.006  0.000 -0.020
  0.005  0.144 -0.002 -0.002 -0.012
  0.006 -0.002  0.146 -0.001 -0.001
  0.000 -0.002 -0.001  0.070 -0.000
 -0.020 -0.012 -0.001 -0.000  0.241
atomic mag. moment =     4.238757
atom    6   Tr[ns(na)] (up, down, total) =   0.75887  4.96555  5.72441
   spin  1
    eigenvalues: 
  0.068  0.127  0.142  0.155  0.267
    eigenvectors:
  0.000  0.995  0.002  0.001  0.002
  0.001  0.003  0.670  0.325  0.001
  0.000  0.000  0.326  0.664  0.009
  0.999  0.000  0.001  0.000  0.000
  0.000  0.002  0.001  0.009  0.988
    occupations:
  0.127  0.001  0.001  0.000  0.006
  0.001  0.146  0.006 -0.002  0.002
  0.001  0.006  0.152  0.001  0.011
  0.000 -0.002  0.001  0.068  0.000
  0.006  0.002  0.011  0.000  0.266
   spin  2
    eigenvalues: 
  0.983  0.991  0.992  0.997  1.002
    eigenvectors:
  0.000  0.004  0.045  0.946  0.004
  0.004  0.591  0.371  0.034  0.001
  0.000  0.402  0.583  0.015  0.000
  0.000  0.000  0.000  0.005  0.995
  0.996  0.003  0.001  0.000  0.000
    occupations:
  0.997 -0.001 -0.001  0.000 -0.000
 -0.001  0.992  0.001 -0.000 -0.001
 -0.001  0.001  0.992  0.000  0.000
  0.000 -0.000  0.000  1.002  0.000
 -0.000 -0.001  0.000  0.000  0.983
atomic mag. moment =    -4.206681
atom    7   Tr[ns(na)] (up, down, total) =   4.96555  0.75886  5.72441
   spin  1
    eigenvalues: 
  0.983  0.991  0.992  0.997  1.002
    eigenvectors:
  0.000  0.004  0.045  0.946  0.004
  0.004  0.591  0.371  0.034  0.001
  0.000  0.402  0.583  0.015  0.000
  0.000  0.000  0.000  0.005  0.995
  0.996  0.003  0.001  0.000  0.000
    occupations:
  0.997 -0.001 -0.001  0.000 -0.000
 -0.001  0.992  0.001 -0.000 -0.001
 -0.001  0.001  0.992  0.000  0.000
  0.000 -0.000  0.000  1.002  0.000
 -0.000 -0.001  0.000  0.000  0.983
   spin  2
    eigenvalues: 
  0.068  0.127  0.142  0.155  0.267
    eigenvectors:
  0.000  0.995  0.002  0.001  0.002
  0.001  0.003  0.670  0.325  0.001
  0.000  0.000  0.326  0.664  0.009
  0.999  0.000  0.001  0.000  0.000
  0.000  0.002  0.001  0.009  0.988
    occupations:
  0.127  0.001  0.001  0.000  0.006
  0.001  0.146  0.006 -0.002  0.002
  0.001  0.006  0.152  0.001  0.011
  0.000 -0.002  0.001  0.068  0.000
  0.006  0.002  0.011  0.000  0.266
atomic mag. moment =     4.206686
atom    8   Tr[ns(na)] (up, down, total) =   0.73086  4.96953  5.70039
   spin  1
    eigenvalues: 
  0.070  0.123  0.143  0.148  0.246
    eigenvectors:
  0.000  0.889  0.035  0.047  0.029
  0.001  0.024  0.899  0.061  0.015
  0.000  0.067  0.041  0.891  0.000
  0.999  0.000  0.001  0.000  0.000
  0.000  0.020  0.023  0.000  0.956
    occupations:
  0.129  0.005  0.006  0.000 -0.020
  0.005  0.144 -0.002 -0.002 -0.012
  0.006 -0.002  0.146 -0.001 -0.001
  0.000 -0.002 -0.001  0.070 -0.000
 -0.020 -0.012 -0.001 -0.000  0.241
   spin  2
    eigenvalues: 
  0.985  0.992  0.994  0.997  1.001
    eigenvectors:
  0.005  0.000  0.044  0.946  0.004
  0.003  0.497  0.477  0.021  0.001
  0.000  0.500  0.475  0.025  0.000
  0.000  0.001  0.001  0.003  0.995
  0.991  0.002  0.002  0.004  0.000
    occupations:
  0.997  0.001  0.001  0.000  0.001
  0.001  0.993  0.001 -0.000 -0.000
  0.001  0.001  0.993  0.000  0.000
  0.000 -0.000  0.000  1.001  0.000
  0.001 -0.000  0.000  0.000  0.985
atomic mag. moment =    -4.238668
N of occupied +U levels =   45.654091
 --- exit write_ns ---

 ------ SPIN UP ------------


          k = 0.0000 0.0000 0.0000 ( 13629 PWs)   bands (ev):

   -66.4656 -66.4385 -66.4149 -66.3813 -61.8650 -61.8515 -61.8468 -61.8234
   -35.2401 -35.2101 -35.1928 -35.1900 -35.1887 -35.1859 -35.1682 -35.1540
   -35.1410 -35.1249 -35.1021 -35.0949 -30.6940 -30.6933 -30.6856 -30.6822
   -30.6810 -30.6790 -30.6724 -30.6718 -30.6685 -30.6579 -30.6492 -30.6421
     5.9678   7.5405   7.7055   8.0781   8.2156   8.3963   8.5046   8.5371
     8.7076   8.7079   9.0353   9.2920   9.3405   9.4218   9.4306   9.4676
     9.5068   9.5280   9.5659   9.5692   9.6048   9.6186   9.6564   9.7010
     9.7147   9.7585   9.8201   9.8533   9.8949   9.9371   9.9468   9.9524
    10.0168  10.0252  10.0527  10.0975  10.1119  10.1903  10.2219  10.2371
    10.2687  10.2712  10.3138  10.3660  10.3948  10.4142  10.4238  10.4675
    10.4812  10.5012  10.5308  10.5740  10.6653  10.7120  10.7299  10.8179
    10.8345  10.8865  11.0073  11.0708  11.1021  11.1168  11.1581  11.1864
    11.2249  11.3341  11.3375  11.3421  11.3954  11.4825  11.6045  11.6665
    11.8206  11.8245  11.8276  11.8589  11.8776  11.9167  11.9506  12.0044
    12.0937  12.1531  12.2116  12.2417  12.2714  12.2767  12.3211  12.3421
    12.3610  12.3687  12.3866  12.5043  12.5160  12.5254  12.5442  12.6818
    12.6932  12.7013  12.7041  12.7116  12.7633  12.8730  12.9119  12.9846
    13.1571  13.2170  13.2761  13.2776  13.2808  14.1456  14.5099  15.0279
    15.0505  15.1457  15.5587  15.8416  16.0731  16.3375  16.6835  16.7754
    16.8680  16.9398  16.9885  17.0772  17.1545  17.3005  17.3225  17.4850
    17.5485  17.5641  17.6276  17.7804  17.8428  17.9240  18.0642  18.1668
    18.6073  18.8047  19.1480  19.1587  19.4613  19.4875  19.4974  19.5685
    19.6881  19.7298

          k = 0.0000 0.0000-0.5441 ( 13704 PWs)   bands (ev):

   -66.4656 -66.4384 -66.4149 -66.3813 -61.8650 -61.8515 -61.8468 -61.8234
   -35.2401 -35.2101 -35.1928 -35.1900 -35.1887 -35.1859 -35.1682 -35.1540
   -35.1410 -35.1248 -35.1021 -35.0949 -30.6940 -30.6934 -30.6856 -30.6822
   -30.6811 -30.6790 -30.6725 -30.6718 -30.6684 -30.6580 -30.6491 -30.6420
     6.5574   7.6216   8.0888   8.1970   8.4333   8.5070   8.7564   8.7782
     8.8056   8.8691   8.9475   8.9702   9.0376   9.0815   9.1334   9.1650
     9.1894   9.2255   9.2604   9.4500   9.5641   9.6256   9.6446   9.6594
     9.6829   9.7014   9.7440   9.7644   9.8032   9.8128   9.8311   9.8989
     9.9067   9.9214   9.9788   9.9954  10.0087  10.0828  10.1370  10.1517
    10.2823  10.3200  10.3511  10.3645  10.4103  10.4508  10.4680  10.5140
    10.5710  10.5986  10.6020  10.6500  10.7172  10.7854  10.8738  10.8799
    10.9273  10.9380  11.0694  11.1188  11.1779  11.2182  11.3212  11.4876
    11.5003  11.5279  11.5582  11.5714  11.6539  11.6648  11.7614  11.7776
    11.8282  11.8607  11.8978  11.9076  11.9192  11.9435  11.9740  12.0100
    12.0241  12.0924  12.1153  12.1478  12.2116  12.2293  12.2688  12.2720
    12.2918  12.3618  12.3934  12.4003  12.5079  12.5669  12.6115  12.6476
    12.6668  12.7100  12.7509  12.8302  12.8439  12.8699  12.8865  12.9895
    13.0061  13.0940  13.3886  13.4216  13.9385  13.9714  14.0156  14.0952
    14.2551  14.6990  15.0755  15.4824  15.5012  15.6329  16.4578  16.8433
    16.9713  16.9998  17.0703  17.1096  17.2088  17.2940  17.3393  17.4313
    17.4750  17.5375  17.6064  17.6834  17.7512  17.8455  17.8754  17.9464
    18.0570  18.4588  18.5399  18.7030  19.1363  19.2458  19.3407  19.4579
    19.5280  19.6357

          k = 0.0000 0.0000 1.0883 ( 13706 PWs)   bands (ev):

   -66.4656 -66.4384 -66.4149 -66.3813 -61.8650 -61.8515 -61.8468 -61.8234
   -35.2401 -35.2101 -35.1928 -35.1901 -35.1887 -35.1859 -35.1682 -35.1540
   -35.1409 -35.1248 -35.1022 -35.0949 -30.6940 -30.6935 -30.6855 -30.6822
   -30.6812 -30.6790 -30.6726 -30.6717 -30.6684 -30.6580 -30.6491 -30.6420
     7.7895   8.0653   8.1961   8.3782   8.4535   8.4994   8.5756   8.7073
     8.7080   8.7192   8.7970   8.8443   8.9121   9.0653   9.1206   9.1363
     9.1738   9.2876   9.3407   9.4630   9.4685   9.4702   9.5606   9.6140
     9.6590   9.6812   9.7345   9.7650   9.7668   9.7797   9.8233   9.8669
     9.9216   9.9452   9.9531  10.0054  10.0184  10.0733  10.0967  10.1357
    10.1462  10.2348  10.2622  10.2708  10.2712  10.2804  10.3104  10.3440
    10.3795  10.3805  10.4367  10.4840  10.5109  10.6322  10.6687  10.8070
    10.9264  10.9471  10.9793  11.0892  11.1106  11.2155  11.2836  11.3757
    11.4606  11.4838  11.5542  11.5980  11.7280  11.7422  11.7541  11.8249
    11.8283  11.8368  11.9095  11.9447  11.9701  12.0554  12.1259  12.1930
    12.2426  12.2719  12.2952  12.3571  12.3608  12.3811  12.4129  12.4793
    12.5163  12.5190  12.5673  12.5893  12.6512  12.6973  12.7006  12.7123
    12.7238  12.7436  12.8212  12.9389  13.0424  13.1060  13.1138  13.2017
    13.2200  13.2720  13.2784  13.2837  13.2962  13.3578  13.6161  13.6424
    14.1461  14.6002  15.0403  15.1422  15.1961  15.7133  16.1446  16.7384
    16.7505  16.9406  17.0625  17.0928  17.1483  17.2195  17.3415  17.4270
    17.5081  17.5241  17.5782  17.6049  17.6318  17.6987  17.8358  17.9699
    18.0272  18.1644  18.3008  18.5812  18.5942  18.9913  19.1851  19.2657
    19.4468  19.5544

          k =-0.1768-0.1768-0.1360 ( 13673 PWs)   bands (ev):

   -66.4656 -66.4385 -66.4149 -66.3813 -61.8650 -61.8515 -61.8468 -61.8234
   -35.2401 -35.2101 -35.1928 -35.1900 -35.1887 -35.1859 -35.1682 -35.1540
   -35.1410 -35.1249 -35.1021 -35.0949 -30.6940 -30.6933 -30.6856 -30.6822
   -30.6810 -30.6790 -30.6724 -30.6718 -30.6685 -30.6579 -30.6492 -30.6421
     6.1296   7.3084   7.6853   7.8348   8.4391   8.4930   8.5477   8.6820
     8.6894   8.8403   9.1396   9.2536   9.2690   9.3447   9.3623   9.3918
     9.4118   9.4666   9.4955   9.5273   9.5397   9.5905   9.6294   9.6848
     9.6929   9.7164   9.7392   9.7686   9.8996   9.9368   9.9727  10.0273
    10.0571  10.0881  10.1068  10.1207  10.1381  10.1823  10.2120  10.2263
    10.2687  10.3059  10.3870  10.4037  10.4241  10.4578  10.4972  10.5219
    10.5491  10.5740  10.6175  10.6715  10.6795  10.7249  10.7767  10.8406
    10.9280  10.9689  10.9979  11.0123  11.0372  11.0665  11.0962  11.1706
    11.2478  11.2639  11.3061  11.3678  11.4710  11.5081  11.5731  11.6089
    11.6950  11.7191  11.7624  11.8135  11.8312  11.8648  11.9031  11.9443
    11.9752  12.0392  12.0583  12.1122  12.1768  12.2031  12.2431  12.2834
    12.3022  12.3261  12.3446  12.3692  12.4857  12.5066  12.5467  12.5859
    12.6249  12.7137  12.7426  12.7889  12.8190  12.8600  12.8750  12.9696
    13.0280  13.1035  13.3513  14.0675  14.2022  14.5754  14.6856  15.0244
    15.2844  15.4364  15.5712  15.7897  15.8225  16.2642  16.4272  16.6458
    16.6950  16.9746  17.0505  17.1572  17.2328  17.2916  17.3203  17.4274
    17.5032  17.5136  17.6587  17.7288  17.9158  17.9301  18.0694  18.1711
    18.4149  18.4801  18.7357  18.8340  18.9631  19.0410  19.1672  19.2328
    19.3425  19.9640

          k =-0.1768-0.1768-0.6802 ( 13666 PWs)   bands (ev):

   -66.4656 -66.4384 -66.4149 -66.3813 -61.8650 -61.8515 -61.8468 -61.8234
   -35.2401 -35.2101 -35.1928 -35.1900 -35.1887 -35.1859 -35.1682 -35.1540
   -35.1410 -35.1248 -35.1021 -35.0949 -30.6940 -30.6934 -30.6856 -30.6822
   -30.6811 -30.6790 -30.6725 -30.6718 -30.6684 -30.6580 -30.6491 -30.6420
     6.9663   7.0491   8.3029   8.3851   8.3903   8.4642   8.6342   8.8171
     8.8582   8.8778   8.9285   8.9581   9.0081   9.0601   9.1584   9.1777
     9.2222   9.3724   9.3902   9.4532   9.4997   9.5332   9.5827   9.6240
     9.6521   9.6695   9.6924   9.7473   9.7763   9.7921   9.8185   9.8358
     9.8564   9.9455   9.9690   9.9858  10.0528  10.0845  10.1356  10.2134
    10.3096  10.3644  10.3731  10.4141  10.4412  10.4679  10.4976  10.5398
    10.5880  10.6254  10.6561  10.7073  10.7476  10.8097  10.8441  10.8737
    10.9540  11.0196  11.0820  11.1142  11.1508  11.1985  11.2174  11.2923
    11.3214  11.3699  11.4266  11.4954  11.5861  11.6424  11.6769  11.7124
    11.7305  11.7601  11.8034  11.8190  11.8535  11.8677  11.9261  11.9941
    12.0111  12.0716  12.1284  12.1428  12.1821  12.2323  12.2582  12.2882
    12.3071  12.3666  12.3985  12.4199  12.4557  12.5087  12.5653  12.5804
    12.6173  12.6967  12.7436  12.7825  12.8450  12.8655  12.9172  13.0184
    13.0639  13.1418  13.6612  13.7965  13.9649  14.2333  14.5610  14.6876
    14.7145  14.9244  15.2839  15.4770  15.7674  15.9871  16.3019  16.3522
    16.4206  16.5190  17.0541  17.1157  17.1969  17.2739  17.3433  17.3945
    17.4219  17.5169  17.6104  17.6638  17.7368  17.7783  17.8761  17.9591
    18.0728  18.1915  18.2856  18.4767  18.5361  18.7627  19.1178  19.3388
    20.2340  20.5668

          k =-0.1768-0.1768 0.9522 ( 13713 PWs)   bands (ev):

   -66.4656 -66.4384 -66.4149 -66.3813 -61.8650 -61.8515 -61.8468 -61.8234
   -35.2401 -35.2101 -35.1928 -35.1901 -35.1887 -35.1859 -35.1682 -35.1540
   -35.1409 -35.1248 -35.1022 -35.0949 -30.6940 -30.6935 -30.6855 -30.6822
   -30.6812 -30.6790 -30.6726 -30.6717 -30.6684 -30.6580 -30.6491 -30.6420
     7.6674   7.7991   8.3310   8.4695   8.5154   8.5486   8.6301   8.6560
     8.7068   8.7361   8.8116   8.8548   8.8874   8.9742   9.0084   9.1160
     9.1426   9.2623   9.3061   9.3767   9.4134   9.4209   9.4649   9.5132
     9.5531   9.6408   9.6866   9.7077   9.7406   9.8006   9.8222   9.8618
     9.8933   9.9142   9.9342   9.9648  10.0391  10.0833  10.1141  10.1491
    10.1938  10.2667  10.2946  10.3393  10.3606  10.4141  10.4255  10.4695
    10.5296  10.5387  10.6200  10.6630  10.7483  10.7809  10.8208  10.8844
    10.9524  11.0052  11.0434  11.1215  11.1701  11.2402  11.3825  11.4361
    11.4501  11.4739  11.5522  11.6279  11.6992  11.7989  11.8436  11.8804
    11.9247  11.9571  11.9609  11.9838  12.0082  12.0564  12.1114  12.1347
    12.1623  12.2013  12.2525  12.2737  12.2902  12.3137  12.3472  12.4200
    12.4534  12.4827  12.5155  12.5545  12.5819  12.6058  12.6443  12.6891
    12.7487  12.8124  12.8616  12.8903  12.9222  12.9496  12.9866  13.0291
    13.0783  13.1588  13.1764  13.1924  13.4765  13.6007  13.7319  13.8161
    13.8373  14.0193  14.7357  14.8646  15.4412  15.9424  16.0427  16.1957
    16.2558  16.8484  17.0851  17.1151  17.2218  17.2763  17.3776  17.4230
    17.4516  17.5071  17.5574  17.6059  17.6255  17.6837  17.7664  17.8716
    18.1084  18.1692  18.2869  18.7278  19.0038  19.0621  19.1714  19.2753
    19.6795  19.8141

          k =-0.1768-0.1768 0.4081 ( 13683 PWs)   bands (ev):

   -66.4656 -66.4384 -66.4149 -66.3813 -61.8650 -61.8515 -61.8468 -61.8234
   -35.2401 -35.2101 -35.1928 -35.1900 -35.1887 -35.1859 -35.1682 -35.1540
   -35.1410 -35.1248 -35.1021 -35.0949 -30.6940 -30.6934 -30.6856 -30.6822
   -30.6811 -30.6790 -30.6725 -30.6718 -30.6684 -30.6580 -30.6491 -30.6420
     6.4247   7.9490   8.0729   8.1387   8.3427   8.4933   8.5715   8.7008
     8.7346   8.7466   8.8968   9.0212   9.0737   9.1029   9.1247   9.1912
     9.2691   9.3013   9.3358   9.3734   9.4517   9.5501   9.5820   9.5984
     9.6502   9.7003   9.7384   9.7884   9.7942   9.8406   9.8547   9.9068
     9.9419   9.9663   9.9864  10.0655  10.0813  10.1158  10.1414  10.1904
    10.2503  10.2795  10.3380  10.3551  10.4157  10.4518  10.4831  10.5228
    10.5669  10.6257  10.7173  10.7873  10.8250  10.8755  10.9078  10.9294
    11.0188  11.0915  11.1192  11.1962  11.2490  11.3412  11.3708  11.3929
    11.4336  11.4795  11.5159  11.5501  11.6464  11.7348  11.7964  11.8312
    11.8773  11.9102  11.9258  11.9460  11.9712  12.0162  12.0414  12.0841
    12.1301  12.1413  12.1608  12.1983  12.2257  12.2449  12.2711  12.2780
    12.3190  12.3311  12.3489  12.3988  12.4313  12.5349  12.5560  12.5863
    12.6303  12.6808  12.7310  12.7420  12.7841  12.8112  12.8534  12.8857
    12.9285  13.0996  13.2007  13.2503  13.3625  13.5193  13.8381  13.9966
    14.6305  14.7245  15.1764  15.3668  15.5548  15.8491  16.3634  16.5691
    16.8112  16.8869  17.0656  17.1895  17.2759  17.3205  17.3548  17.4089
    17.5152  17.5467  17.5948  17.6671  17.7561  17.8425  17.9936  18.0990
    18.1599  18.4186  18.6287  18.6955  18.9183  19.1471  19.1618  19.4006
    20.0718  20.2097

          k = 0.3536 0.3536 0.2721 ( 13708 PWs)   bands (ev):

   -66.4656 -66.4384 -66.4149 -66.3813 -61.8650 -61.8515 -61.8468 -61.8234
   -35.2401 -35.2101 -35.1928 -35.1900 -35.1887 -35.1859 -35.1682 -35.1540
   -35.1410 -35.1249 -35.1021 -35.0949 -30.6940 -30.6933 -30.6856 -30.6822
   -30.6810 -30.6790 -30.6724 -30.6718 -30.6685 -30.6579 -30.6492 -30.6421
     6.5613   6.6345   8.0163   8.0986   8.1212   8.2301   8.7150   8.8240
     8.8478   8.8948   9.0263   9.0896   9.3033   9.3164   9.3517   9.4102
     9.4234   9.4464   9.4574   9.4833   9.5374   9.5741   9.5980   9.6086
     9.6563   9.6700   9.7191   9.7585   9.8523   9.9101   9.9354   9.9846
    10.0103  10.0882  10.1178  10.1574  10.1679  10.2263  10.2823  10.3250
    10.3375  10.3443  10.3721  10.4238  10.4593  10.4968  10.5236  10.5566
    10.5771  10.6319  10.6595  10.6652  10.7371  10.7881  10.8739  10.8850
    10.9537  10.9835  10.9874  11.0472  11.0627  11.1151  11.2145  11.2346
    11.2748  11.3045  11.3212  11.3290  11.3436  11.4354  11.4947  11.5285
    11.5668  11.6114  11.6951  11.7106  11.7413  11.7596  11.8198  11.8630
    11.8973  11.9630  12.0035  12.0356  12.0929  12.1330  12.1680  12.2363
    12.2564  12.3019  12.3117  12.4057  12.4128  12.4606  12.5421  12.5981
    12.6195  12.6281  12.7367  12.7442  12.7859  12.8626  12.9434  12.9702
    13.0449  13.0755  13.9288  14.5108  14.6440  14.8519  15.1009  15.3533
    15.4820  15.6129  15.6431  15.7588  15.7962  16.0092  16.0450  16.2531
    16.7043  16.9998  17.0821  17.1355  17.2358  17.2785  17.3645  17.4329
    17.4543  17.5305  17.6265  17.7071  17.7754  17.9481  17.9719  18.0455
    18.1109  18.2274  18.2947  18.4159  18.5170  18.5700  18.8910  19.2407
    19.9515  19.9791

          k = 0.3536 0.3536-0.2721 ( 13700 PWs)   bands (ev):

   -66.4656 -66.4384 -66.4149 -66.3813 -61.8650 -61.8515 -61.8468 -61.8234
   -35.2401 -35.2101 -35.1928 -35.1900 -35.1887 -35.1859 -35.1682 -35.1540
   -35.1410 -35.1248 -35.1021 -35.0949 -30.6940 -30.6934 -30.6856 -30.6822
   -30.6811 -30.6790 -30.6725 -30.6718 -30.6684 -30.6580 -30.6491 -30.6420
     6.5969   7.6183   8.0592   8.1693   8.4492   8.5799   8.6578   8.7175
     8.7474   8.7745   8.9264   8.9577   8.9687   9.0795   9.1292   9.2946
     9.3106   9.3676   9.3910   9.4204   9.4631   9.4903   9.5250   9.5609
     9.5788   9.5940   9.6496   9.7607   9.7835   9.8219   9.8494   9.9179
     9.9470   9.9697  10.0042  10.0370  10.1519  10.1750  10.2042  10.2608
    10.2944  10.3188  10.3620  10.3982  10.4450  10.4688  10.5337  10.5626
    10.5939  10.6436  10.6818  10.7544  10.8125  10.8408  10.9320  10.9824
    11.0182  11.0399  11.0841  11.1454  11.1921  11.2336  11.2805  11.3044
    11.3570  11.4576  11.4733  11.5394  11.5707  11.6081  11.6392  11.7220
    11.7565  11.8180  11.8425  11.8896  11.9032  11.9461  11.9743  11.9995
    12.0466  12.0735  12.1339  12.1592  12.1903  12.2122  12.2419  12.2583
    12.2817  12.3126  12.3342  12.3983  12.4365  12.5107  12.5594  12.5828
    12.6263  12.7011  12.7499  12.7589  12.7752  12.8163  12.9119  12.9442
    13.0865  13.1032  13.2387  13.3740  13.7758  13.9041  14.3091  14.8816
    14.9951  15.0857  15.2085  15.5228  15.6032  15.7607  16.0792  16.2571
    16.4732  16.6101  17.1165  17.1836  17.2569  17.3061  17.3534  17.3879
    17.5021  17.5506  17.5975  17.6182  17.7148  17.8446  17.9148  18.0091
    18.1083  18.2338  18.3695  18.4183  18.5965  19.0355  19.0608  19.7574
    20.0576  20.1322

          k = 0.3536 0.3536 1.3603 ( 13692 PWs)   bands (ev):

   -66.4656 -66.4384 -66.4149 -66.3813 -61.8650 -61.8515 -61.8468 -61.8234
   -35.2401 -35.2101 -35.1928 -35.1901 -35.1887 -35.1859 -35.1682 -35.1540
   -35.1409 -35.1248 -35.1021 -35.0949 -30.6940 -30.6935 -30.6855 -30.6822
   -30.6812 -30.6790 -30.6725 -30.6718 -30.6684 -30.6580 -30.6491 -30.6420
     7.5808   7.6554   8.3674   8.5228   8.5289   8.6024   8.6153   8.6515
     8.6685   8.7455   8.8374   8.8532   8.8970   8.9501   9.0065   9.0169
     9.1849   9.2162   9.2567   9.2571   9.3271   9.3818   9.4228   9.4532
     9.5166   9.5594   9.6099   9.7184   9.7527   9.7915   9.8324   9.8658
     9.9096   9.9196   9.9493   9.9846   9.9967  10.0205  10.1192  10.1731
    10.2155  10.2863  10.3175  10.3440  10.4086  10.4333  10.5022  10.5546
    10.6060  10.6378  10.7434  10.7679  10.8702  10.9125  10.9876  11.0196
    11.0881  11.1411  11.1874  11.3424  11.3775  11.4178  11.4223  11.4657
    11.6061  11.7095  11.7364  11.7884  11.8264  11.8594  11.8657  11.8885
    11.9255  11.9602  11.9779  11.9912  12.0016  12.0263  12.0618  12.0805
    12.0918  12.1334  12.1504  12.2076  12.2215  12.2665  12.2791  12.2851
    12.3034  12.3113  12.3526  12.4016  12.4252  12.4517  12.5879  12.6595
    12.6786  12.6968  12.7517  12.7752  12.8196  12.8316  12.9223  12.9665
    13.0546  13.1296  13.1599  13.3059  13.3857  13.4708  13.6426  13.7917
    14.0376  14.1479  14.8628  14.9667  15.0386  15.1432  15.5997  16.2104
    16.2937  16.8286  17.0212  17.1067  17.2532  17.3642  17.3972  17.4129
    17.4413  17.4963  17.5599  17.6339  17.6373  17.6921  17.7635  17.8440
    18.0704  18.1008  18.4983  18.6887  18.9356  19.2172  19.5180  19.9285
    19.9671  20.1339

          k = 0.1768-0.1768 0.0000 ( 13644 PWs)   bands (ev):

   -66.4656 -66.4385 -66.4149 -66.3813 -61.8650 -61.8515 -61.8468 -61.8234
   -35.2401 -35.2101 -35.1928 -35.1900 -35.1887 -35.1859 -35.1682 -35.1540
   -35.1410 -35.1249 -35.1021 -35.0949 -30.6940 -30.6933 -30.6856 -30.6822
   -30.6810 -30.6790 -30.6724 -30.6718 -30.6685 -30.6579 -30.6492 -30.6421
     6.0918   6.9998   8.0960   8.1526   8.2696   8.4080   8.5447   8.5670
     8.6145   8.6654   8.9652   9.1619   9.2633   9.3734   9.4418   9.4681
     9.5075   9.5466   9.5740   9.5928   9.6070   9.6454   9.6701   9.7038
     9.7492   9.7733   9.8078   9.8251   9.8559   9.8778   9.9163   9.9640
     9.9742  10.0156  10.0800  10.0946  10.1200  10.1581  10.2163  10.2347
    10.2413  10.2820  10.3093  10.3423  10.4320  10.4578  10.4909  10.5149
    10.5447  10.5577  10.5912  10.6548  10.6782  10.7729  10.8280  10.8618
    10.8834  10.9174  11.0553  11.0836  11.1066  11.1196  11.1661  11.2084
    11.2672  11.3522  11.3635  11.3997  11.4294  11.5280  11.6164  11.7012
    11.7244  11.7732  11.8227  11.8631  11.8959  11.9187  11.9389  11.9837
    12.0960  12.1429  12.1633  12.1921  12.2211  12.2407  12.2681  12.2866
    12.3040  12.3416  12.3686  12.4077  12.4705  12.5399  12.6044  12.6231
    12.6494  12.6835  12.7430  12.7570  12.8003  12.8176  12.8503  12.8672
    12.9255  13.0600  13.1288  13.3154  13.8669  13.8831  14.5735  15.0608
    15.2119  15.4412  15.6305  15.9484  16.1288  16.3269  16.3721  16.7053
    16.8160  16.9010  16.9520  17.0172  17.1163  17.2862  17.3574  17.4413
    17.5191  17.5623  17.6003  17.7046  17.8341  17.9609  18.0694  18.2403
    18.3187  18.3662  18.7640  18.8607  19.1022  19.3435  19.5229  19.6689
    19.8913  20.0042

          k = 0.1768-0.1768-0.5441 ( 13695 PWs)   bands (ev):

   -66.4656 -66.4384 -66.4149 -66.3813 -61.8650 -61.8515 -61.8468 -61.8234
   -35.2401 -35.2101 -35.1928 -35.1900 -35.1887 -35.1859 -35.1682 -35.1540
   -35.1410 -35.1248 -35.1021 -35.0949 -30.6940 -30.6934 -30.6856 -30.6822
   -30.6811 -30.6790 -30.6725 -30.6718 -30.6684 -30.6580 -30.6491 -30.6420
     6.6728   7.5294   7.7293   8.3250   8.5207   8.5993   8.7509   8.7928
     8.8341   8.8611   8.9576   9.0164   9.0342   9.0487   9.1113   9.1991
     9.2135   9.2723   9.2766   9.3475   9.4495   9.5204   9.5617   9.5669
     9.6023   9.6270   9.6716   9.7391   9.7666   9.7781   9.8348   9.8595
     9.8886   9.9259   9.9810  10.0367  10.1001  10.1718  10.1975  10.2488
    10.2724  10.3592  10.4148  10.4665  10.4967  10.5169  10.5637  10.6127
    10.6533  10.6779  10.6993  10.7336  10.8271  10.8511  10.8984  10.9276
    10.9650  10.9753  11.0992  11.1287  11.1717  11.2400  11.3822  11.3921
    11.4262  11.4614  11.4956  11.5453  11.5699  11.6099  11.6564  11.7358
    11.7670  11.7908  11.8504  11.8819  11.9057  11.9390  11.9661  11.9898
    12.0672  12.0859  12.1096  12.1510  12.1712  12.2271  12.2534  12.2785
    12.3305  12.3545  12.3840  12.3943  12.4556  12.5068  12.5305  12.5694
    12.6259  12.6616  12.7017  12.7803  12.7948  12.8622  12.9099  13.0134
    13.1344  13.2867  13.3122  13.4531  13.5371  13.6933  14.1375  14.3902
    14.6346  14.9496  15.1114  15.5092  15.6776  15.8177  16.0800  16.4833
    16.6874  16.7303  17.1381  17.1700  17.2546  17.3318  17.3611  17.3987
    17.4771  17.5800  17.5967  17.6652  17.7039  17.7977  17.8146  18.0039
    18.2284  18.3948  18.6663  18.8017  19.0021  19.0694  19.1458  19.3537
    19.8202  20.0464

          k = 0.1768-0.1768 1.0883 ( 13696 PWs)   bands (ev):

   -66.4656 -66.4384 -66.4149 -66.3813 -61.8650 -61.8515 -61.8468 -61.8234
   -35.2401 -35.2101 -35.1928 -35.1901 -35.1887 -35.1859 -35.1682 -35.1540
   -35.1409 -35.1248 -35.1022 -35.0949 -30.6940 -30.6935 -30.6855 -30.6822
   -30.6812 -30.6790 -30.6726 -30.6717 -30.6684 -30.6580 -30.6491 -30.6420
     7.8709   8.1410   8.2508   8.4366   8.4579   8.5069   8.5533   8.5941
     8.6122   8.6671   8.7365   8.8112   8.8563   8.9069   9.0440   9.1717
     9.2079   9.3685   9.4328   9.4731   9.4879   9.5120   9.5778   9.5928
     9.6303   9.6353   9.6677   9.7484   9.7691   9.7808   9.8100   9.8435
     9.8933   9.9063   9.9623   9.9803  10.0385  10.0505  10.1031  10.1295
    10.1538  10.1791  10.2264  10.2355  10.2598  10.2914  10.3275  10.3928
    10.4168  10.4687  10.5541  10.6207  10.6325  10.6770  10.7181  10.7902
    10.8297  10.9778  11.0345  11.1835  11.2613  11.3004  11.3165  11.3757
    11.4301  11.4870  11.5676  11.6576  11.7100  11.7258  11.7558  11.8142
    11.8658  11.8889  11.9178  11.9330  11.9471  12.0435  12.0855  12.1494
    12.1965  12.2104  12.2683  12.3000  12.3201  12.3443  12.3732  12.3937
    12.4521  12.4752  12.4926  12.5170  12.5541  12.5790  12.6485  12.6694
    12.7462  12.7564  12.8001  12.8500  12.8776  12.9515  12.9551  13.0790
    13.1085  13.1357  13.1721  13.2948  13.7625  13.8174  14.0319  14.1005
    14.5499  14.5870  15.0476  15.2517  15.4364  15.6196  15.7337  16.2783
    16.4928  16.8534  16.9874  17.0515  17.1742  17.2668  17.2933  17.4285
    17.4673  17.5038  17.5302  17.5878  17.6366  17.7124  17.8395  17.9113
    17.9749  18.1163  18.2354  18.2886  18.4648  18.5400  18.8624  19.0789
    19.2175  19.6146

          k = 0.0000-0.3536-0.1360 ( 13676 PWs)   bands (ev):

   -66.4656 -66.4384 -66.4149 -66.3813 -61.8650 -61.8515 -61.8468 -61.8234
   -35.2401 -35.2101 -35.1928 -35.1900 -35.1887 -35.1859 -35.1682 -35.1540
   -35.1410 -35.1249 -35.1021 -35.0949 -30.6940 -30.6933 -30.6856 -30.6822
   -30.6810 -30.6790 -30.6724 -30.6718 -30.6685 -30.6579 -30.6492 -30.6421
     6.2521   7.1418   7.4180   8.0939   8.2258   8.5191   8.6590   8.7248
     8.8303   8.8567   9.0765   9.1907   9.2307   9.3238   9.3616   9.3778
     9.3955   9.4336   9.4537   9.4834   9.5332   9.6005   9.6414   9.6612
     9.7068   9.7494   9.7780   9.8194   9.8844   9.9397   9.9715   9.9882
    10.0036  10.0448  10.0754  10.1027  10.1282  10.2017  10.2178  10.2596
    10.2972  10.3375  10.3707  10.4192  10.4320  10.4894  10.5050  10.5613
    10.5945  10.6548  10.6725  10.7134  10.7640  10.8137  10.8520  10.8799
    10.9210  10.9473  10.9725  11.0489  11.0684  11.1287  11.1798  11.1887
    11.2472  11.2964  11.3499  11.3985  11.4148  11.4861  11.5721  11.6145
    11.6695  11.7128  11.7225  11.7579  11.8001  11.8464  11.8867  11.9263
    11.9678  12.0021  12.0490  12.0920  12.1669  12.2243  12.2424  12.2569
    12.2734  12.2832  12.3164  12.3696  12.3986  12.4294  12.5455  12.5677
    12.6322  12.6925  12.7478  12.7771  12.8188  12.8356  12.9553  12.9620
    13.0234  13.3471  13.3884  13.7877  13.8532  14.5224  14.7060  15.1548
    15.3619  15.5122  15.7261  15.8212  15.8821  16.0299  16.2438  16.5666
    16.6723  16.9328  17.0390  17.1615  17.2147  17.3257  17.3743  17.4164
    17.4853  17.5186  17.6891  17.7507  17.8612  17.9220  18.0527  18.1213
    18.2342  18.4909  18.6021  18.6356  18.9386  19.0787  19.3606  19.5940
    19.6707  20.0761

          k = 0.0000-0.3536-0.6802 ( 13702 PWs)   bands (ev):

   -66.4656 -66.4384 -66.4149 -66.3813 -61.8650 -61.8515 -61.8468 -61.8234
   -35.2401 -35.2101 -35.1928 -35.1900 -35.1887 -35.1859 -35.1682 -35.1540
   -35.1410 -35.1248 -35.1021 -35.0949 -30.6940 -30.6934 -30.6856 -30.6822
   -30.6811 -30.6790 -30.6725 -30.6718 -30.6684 -30.6580 -30.6491 -30.6420
     7.0731   7.1581   7.8616   7.9225   8.5955   8.6923   8.8269   8.8787
     8.8921   8.9206   8.9605   9.0076   9.0468   9.0924   9.1655   9.1910
     9.2359   9.2445   9.3126   9.3679   9.4198   9.4531   9.4747   9.5301
     9.5489   9.6138   9.6396   9.6698   9.7256   9.7593   9.8176   9.8663
     9.9169   9.9760  10.0647  10.1047  10.1441  10.1648  10.2377  10.2766
    10.3345  10.3585  10.3964  10.4214  10.4386  10.5242  10.5602  10.6116
    10.6760  10.6905  10.7210  10.7428  10.8195  10.8582  10.8801  10.9194
    10.9535  10.9844  11.0649  11.0972  11.1522  11.1946  11.2454  11.3111
    11.3444  11.3828  11.4041  11.4308  11.4893  11.5452  11.6169  11.6611
    11.6966  11.7229  11.7674  11.7998  11.8684  11.8935  11.9711  11.9839
    12.0279  12.0635  12.1199  12.1552  12.1745  12.1949  12.2338  12.2777
    12.3124  12.3312  12.3666  12.3828  12.4330  12.5075  12.5468  12.6002
    12.6226  12.6744  12.7316  12.7694  12.8293  12.9007  12.9248  13.0365
    13.0769  13.4217  13.6446  13.7804  13.9391  14.0669  14.2952  14.5688
    14.8428  15.0690  15.3105  15.4936  15.5748  15.8746  16.1110  16.2233
    16.4056  16.7783  17.0276  17.1783  17.2405  17.3470  17.3690  17.4119
    17.4869  17.5225  17.6093  17.6602  17.7758  17.8047  17.8735  17.9420
    18.0686  18.1291  18.3369  18.4615  18.6927  19.1406  19.4754  19.5593
    19.8854  20.1058

          k = 0.0000-0.3536 0.9522 ( 13693 PWs)   bands (ev):

   -66.4656 -66.4384 -66.4149 -66.3813 -61.8650 -61.8515 -61.8468 -61.8234
   -35.2401 -35.2101 -35.1928 -35.1901 -35.1887 -35.1859 -35.1682 -35.1540
   -35.1409 -35.1248 -35.1021 -35.0949 -30.6940 -30.6935 -30.6855 -30.6822
   -30.6812 -30.6790 -30.6726 -30.6717 -30.6684 -30.6580 -30.6491 -30.6420
     7.7494   7.8636   8.3437   8.3586   8.4143   8.5329   8.5808   8.5955
     8.7115   8.7546   8.8299   8.8500   8.9229   8.9467   9.0562   9.1663
     9.1926   9.2699   9.3303   9.3672   9.3899   9.4172   9.4530   9.4889
     9.5371   9.6151   9.6403   9.6677   9.7190   9.7759   9.7798   9.8220
     9.8525   9.9010   9.9289   9.9669  10.0170  10.0594  10.1067  10.1456
    10.1919  10.2298  10.2917  10.3290  10.3796  10.4908  10.5122  10.5695
    10.5934  10.6319  10.6871  10.7181  10.7295  10.7867  10.8741  10.9294
    10.9544  11.0278  11.0818  11.1887  11.2500  11.3036  11.3704  11.3938
    11.4801  11.5031  11.5660  11.6968  11.7174  11.7681  11.8214  11.8397
    11.8961  11.9233  11.9809  11.9866  12.0086  12.0263  12.0654  12.0915
    12.1365  12.1603  12.2163  12.2473  12.2689  12.2913  12.3301  12.3548
    12.3869  12.4172  12.4549  12.4745  12.5384  12.5617  12.5799  12.6351
    12.6881  12.7349  12.7800  12.8334  12.8713  12.9467  12.9626  13.0243
    13.0939  13.1086  13.1530  13.3889  13.6735  13.7234  13.7663  13.9418
    13.9942  14.3011  14.9380  15.2850  15.4973  15.5589  15.6883  16.0817
    16.5276  16.6646  16.9941  17.1682  17.2145  17.2676  17.3799  17.4148
    17.4570  17.4911  17.5346  17.5814  17.5932  17.6806  17.8172  17.8631
    18.0026  18.0978  18.1873  18.3889  18.4964  18.6262  18.7703  19.2618
    19.6196  20.0813

          k = 0.0000-0.3536 0.4081 ( 13687 PWs)   bands (ev):

   -66.4656 -66.4384 -66.4149 -66.3813 -61.8650 -61.8515 -61.8468 -61.8234
   -35.2401 -35.2101 -35.1928 -35.1900 -35.1887 -35.1859 -35.1682 -35.1540
   -35.1410 -35.1248 -35.1021 -35.0949 -30.6940 -30.6934 -30.6856 -30.6822
   -30.6811 -30.6790 -30.6725 -30.6718 -30.6684 -30.6580 -30.6491 -30.6420
     6.5426   7.4088   8.2271   8.3489   8.4644   8.4827   8.5736   8.6147
     8.7192   8.7788   8.9499   9.0504   9.0709   9.1302   9.1611   9.2174
     9.2233   9.2756   9.3360   9.3764   9.4244   9.5035   9.5452   9.5844
     9.6177   9.6514   9.6679   9.7254   9.7551   9.7949   9.8205   9.8718
     9.9185   9.9501   9.9744  10.0019  10.0657  10.1278  10.1540  10.1719
    10.2864  10.3186  10.3879  10.4436  10.5072  10.5795  10.5961  10.6447
    10.6698  10.7509  10.7713  10.8003  10.8757  10.9405  10.9791  11.0060
    11.0429  11.0713  11.1111  11.1482  11.2067  11.2862  11.3708  11.3953
    11.4557  11.4688  11.5326  11.5663  11.6104  11.6969  11.7201  11.7843
    11.8328  11.8777  11.9137  11.9298  11.9548  11.9850  12.0067  12.0599
    12.1070  12.1248  12.1535  12.1791  12.2132  12.2263  12.2617  12.2734
    12.3034  12.3315  12.3478  12.3820  12.4425  12.5112  12.5360  12.5731
    12.6074  12.6386  12.6858  12.7374  12.7591  12.7788  12.8222  12.8687
    12.8934  12.9556  13.0194  13.0471  13.1433  14.1871  14.3082  14.3814
    14.6165  14.8999  15.0097  15.2370  15.5937  15.8809  16.2715  16.4340
    16.5242  16.8004  16.9832  17.1718  17.2461  17.3127  17.3802  17.4254
    17.4762  17.5374  17.5700  17.6997  17.7659  17.8228  17.8928  18.0374
    18.1819  18.2785  18.4556  18.7020  18.9664  19.0257  19.1643  19.5250
    20.0766  20.2863

          k = 0.5303 0.1768 0.2721 ( 13658 PWs)   bands (ev):

   -66.4656 -66.4384 -66.4149 -66.3813 -61.8650 -61.8515 -61.8468 -61.8234
   -35.2401 -35.2101 -35.1928 -35.1900 -35.1887 -35.1859 -35.1682 -35.1540
   -35.1410 -35.1249 -35.1021 -35.0949 -30.6940 -30.6933 -30.6856 -30.6822
   -30.6810 -30.6790 -30.6724 -30.6718 -30.6685 -30.6579 -30.6492 -30.6421
     6.6786   6.7484   7.5264   7.5856   8.4789   8.5835   8.7396   8.8649
     8.9033   8.9318   9.0662   9.1028   9.2692   9.2857   9.3105   9.3478
     9.3686   9.3992   9.4236   9.4589   9.4824   9.5210   9.5787   9.6164
     9.6474   9.7080   9.7295   9.7990   9.8224   9.8816   9.9479   9.9867
     9.9987  10.0399  10.1685  10.1961  10.2080  10.2486  10.2759  10.2888
    10.3264  10.3712  10.4166  10.4546  10.4850  10.4953  10.5613  10.6090
    10.6387  10.6867  10.7497  10.7824  10.7916  10.8285  10.8676  10.9034
    10.9258  10.9563  11.0164  11.0618  11.1433  11.1631  11.1941  11.2248
    11.2597  11.3145  11.3283  11.3499  11.3657  11.3781  11.4242  11.4987
    11.5341  11.5702  11.6108  11.6953  11.7258  11.7534  11.7969  11.8691
    11.8968  11.9542  11.9978  12.0359  12.0931  12.1087  12.1873  12.2236
    12.2473  12.2726  12.3099  12.3699  12.4357  12.4912  12.5393  12.5941
    12.6180  12.6767  12.7233  12.7865  12.8279  12.9152  12.9576  13.0032
    13.0219  13.1414  13.9263  14.4476  14.4677  14.6734  14.8149  15.0271
    15.3909  15.4569  15.6016  15.6998  15.8024  15.9461  16.1245  16.4234
    16.8228  16.9267  17.1053  17.2092  17.2334  17.3264  17.4211  17.4834
    17.5077  17.5944  17.6734  17.7660  17.8454  17.8642  17.9357  18.0466
    18.1126  18.2519  18.3381  18.4897  18.5517  18.6002  19.7392  19.9922
    20.1464  20.1842

          k = 0.5303 0.1768-0.2721 ( 13683 PWs)   bands (ev):

   -66.4656 -66.4384 -66.4149 -66.3813 -61.8650 -61.8515 -61.8468 -61.8234
   -35.2401 -35.2101 -35.1928 -35.1900 -35.1887 -35.1859 -35.1682 -35.1540
   -35.1410 -35.1248 -35.1021 -35.0949 -30.6940 -30.6934 -30.6856 -30.6822
   -30.6811 -30.6790 -30.6725 -30.6718 -30.6684 -30.6580 -30.6491 -30.6420
     6.7127   7.5536   7.6951   8.2495   8.5249   8.5372   8.6689   8.7741
     8.8106   8.8782   8.9558   8.9891   9.0256   9.0851   9.1880   9.2459
     9.2696   9.3153   9.3484   9.3892   9.4052   9.4561   9.4740   9.5108
     9.5569   9.5841   9.6542   9.7218   9.7755   9.8007   9.8333   9.8613
     9.9266   9.9997  10.0444  10.0749  10.1153  10.2005  10.2325  10.2597
    10.2878  10.3319  10.3600  10.4084  10.4542  10.5158  10.6043  10.6337
    10.6997  10.7326  10.7653  10.8263  10.8406  10.8710  10.8913  10.9892
    11.0481  11.0787  11.0959  11.1419  11.2267  11.2442  11.2882  11.3360
[...]
    11.7368  11.7795  11.8310  11.8523  11.8829  11.9357  11.9743  12.0018
    12.0240  12.0976  12.1496  12.1670  12.1861  12.2068  12.2408  12.2728
    12.2953  12.3142  12.3480  12.3587  12.4525  12.4755  12.5020  12.5344
    12.5939  12.6292  12.6455  12.6874  12.7395  12.7835  12.8310  12.8545
    12.8763  12.9041  12.9315  13.0559  13.5256  13.6279  14.6348  14.9090
    15.0126  15.1693  15.3679  15.4187  15.5198  15.6230  15.8030  16.0261
    16.1628  16.5891  17.0469  17.1790  17.2604  17.3296  17.3898  17.4339
    17.4487  17.5358  17.5879  17.6868  17.7285  17.8128  17.8983  18.0103
    18.1085  18.2107  18.2598  18.3808  19.2881  19.4383  19.6216  19.6791
    19.8002  19.8929

          k = 0.0000 0.7071 0.2721 ( 13680 PWs)   bands (ev):

   -66.4661 -66.4389 -66.4148 -66.3814 -61.8644 -61.8509 -61.8468 -61.8234
   -35.2406 -35.2105 -35.1932 -35.1899 -35.1891 -35.1864 -35.1682 -35.1539
   -35.1414 -35.1247 -35.1023 -35.0950 -30.6935 -30.6928 -30.6850 -30.6816
   -30.6806 -30.6790 -30.6724 -30.6713 -30.6685 -30.6578 -30.6491 -30.6420
     6.9761   7.0459   7.0470   7.1365   8.5922   8.7339   8.7529   8.9160
     9.0037   9.0143   9.1236   9.1335   9.1717   9.1772   9.2453   9.2632
     9.3108   9.3446   9.4105   9.4453   9.4958   9.5088   9.5450   9.6034
     9.6427   9.6729   9.7140   9.8297   9.9133   9.9343  10.0054  10.0452
    10.0692  10.0719  10.0792  10.1133  10.1492  10.1759  10.1849  10.2081
    10.3049  10.4540  10.4903  10.5013  10.5751  10.5888  10.6030  10.6746
    10.7174  10.7434  10.7765  10.7914  10.8250  10.8485  10.8659  10.9156
    11.0325  11.0846  11.1004  11.1172  11.1419  11.1681  11.1767  11.1873
    11.2433  11.2461  11.2750  11.3665  11.3890  11.3893  11.4104  11.4456
    11.4708  11.5518  11.5844  11.6104  11.6666  11.7407  11.7509  11.8239
    11.9236  11.9512  11.9881  12.0642  12.0774  12.1641  12.2202  12.2291
    12.2685  12.2877  12.2979  12.3463  12.4148  12.4310  12.5179  12.6185
    12.6444  12.6559  12.6946  12.7245  12.8264  12.8948  12.9514  13.0588
    13.4589  13.5958  13.6264  13.7660  14.1689  14.6273  14.6723  14.9969
    15.2502  15.3435  15.6475  15.6980  15.7751  15.8678  16.1803  16.5326
    16.7995  16.9580  17.0655  17.1889  17.3716  17.4029  17.4707  17.4940
    17.5308  17.6399  17.7323  17.7953  17.8679  17.9338  18.0019  18.1079
    18.1297  18.1764  18.3673  18.5962  18.9029  19.0803  19.0947  19.2418
    20.5550  20.5879

          k = 0.0000 0.7071-0.2721 ( 13688 PWs)   bands (ev):

   -66.4661 -66.4389 -66.4147 -66.3814 -61.8644 -61.8509 -61.8468 -61.8234
   -35.2406 -35.2106 -35.1932 -35.1899 -35.1891 -35.1864 -35.1683 -35.1539
   -35.1414 -35.1246 -35.1023 -35.0950 -30.6935 -30.6929 -30.6850 -30.6817
   -30.6806 -30.6790 -30.6725 -30.6713 -30.6685 -30.6579 -30.6491 -30.6420
     7.0192   7.0795   7.8911   7.9397   8.6629   8.6798   8.7063   8.7741
     8.7900   8.8073   9.0501   9.0690   9.0886   9.1186   9.1332   9.1995
     9.2062   9.2351   9.2886   9.3731   9.4076   9.4416   9.4548   9.5156
     9.5566   9.6167   9.6333   9.6588   9.7154   9.7466   9.8525   9.9144
     9.9844  10.0282  10.0594  10.0753  10.0911  10.1382  10.1786  10.2053
    10.2151  10.2562  10.4520  10.5265  10.5436  10.5927  10.6463  10.6993
    10.7119  10.7472  10.8214  10.8441  10.9102  10.9751  11.0254  11.0663
    11.0980  11.1159  11.1479  11.1636  11.1736  11.1858  11.2269  11.2956
    11.3755  11.4075  11.4269  11.4914  11.5120  11.5575  11.5955  11.6283
    11.6784  11.7593  11.7943  11.8132  11.8820  11.9398  12.0068  12.0154
    12.0319  12.0502  12.0845  12.1245  12.1842  12.2208  12.2534  12.2657
    12.2887  12.2986  12.3287  12.3474  12.3594  12.4567  12.4764  12.5698
    12.6302  12.6532  12.6654  12.7105  12.7388  12.8523  12.9176  12.9933
    13.1864  13.3088  13.4046  13.5758  13.6588  13.7006  14.3767  14.5540
    14.7596  14.8882  15.4351  15.5323  15.7508  15.9196  15.9709  16.3432
    16.4541  16.6116  16.9122  17.1025  17.2833  17.3297  17.4239  17.4531
    17.5146  17.5536  17.5694  17.6900  17.7804  17.8313  17.9590  18.0038
    18.0412  18.1479  18.2105  18.3104  18.3976  18.4742  19.0490  19.1395
    20.5547  20.6771

          k = 0.0000 0.7071 1.3603 ( 13696 PWs)   bands (ev):

   -66.4661 -66.4389 -66.4147 -66.3814 -61.8644 -61.8509 -61.8468 -61.8233
   -35.2406 -35.2106 -35.1933 -35.1899 -35.1891 -35.1864 -35.1683 -35.1539
   -35.1414 -35.1246 -35.1023 -35.0950 -30.6935 -30.6930 -30.6850 -30.6817
   -30.6807 -30.6790 -30.6725 -30.6713 -30.6684 -30.6580 -30.6491 -30.6419
     7.8339   7.9119   7.9144   8.0064   8.5904   8.6217   8.6985   8.7165
     8.7385   8.7439   8.8541   8.8870   9.0337   9.0429   9.0825   9.0939
     9.1554   9.1879   9.2214   9.2454   9.2783   9.3995   9.4299   9.4736
     9.4974   9.5175   9.5530   9.6135   9.6167   9.6507   9.7166   9.7394
     9.8054   9.8659   9.9045   9.9827  10.0559  10.0853  10.1886  10.1923
    10.2152  10.2205  10.2245  10.3002  10.4758  10.5326  10.6752  10.6919
    10.8113  10.8403  10.8862  10.9733  11.0085  11.0274  11.0542  11.1191
    11.1433  11.1672  11.2348  11.2529  11.3440  11.4231  11.4366  11.4910
    11.5030  11.5774  11.6557  11.6644  11.7192  11.7378  11.8245  11.9049
    11.9393  11.9755  11.9818  11.9993  12.0174  12.0234  12.0410  12.0595
    12.0675  12.0824  12.0966  12.1162  12.2223  12.2502  12.2686  12.2783
    12.2992  12.3293  12.3309  12.3738  12.4224  12.4561  12.4671  12.5571
    12.6217  12.6520  12.6556  12.6672  12.7279  12.7511  12.7681  12.9203
    13.1050  13.2634  13.2782  13.3174  13.4185  13.6317  13.6592  13.8408
    14.2168  14.5980  14.6738  14.9575  15.5228  15.8430  15.9831  16.3595
    16.4396  16.5445  16.6002  16.7315  17.1841  17.2483  17.3259  17.4043
    17.4500  17.4794  17.4959  17.5510  17.6057  17.6267  17.7322  17.7996
    18.0435  18.0872  18.0955  18.3001  18.3424  18.3558  18.4170  18.5786
    20.5347  20.7236

          k = 0.1768-0.1768 0.5441 ( 13695 PWs)   bands (ev):

   -66.4661 -66.4389 -66.4148 -66.3814 -61.8644 -61.8509 -61.8468 -61.8234
   -35.2406 -35.2106 -35.1932 -35.1899 -35.1891 -35.1864 -35.1683 -35.1539
   -35.1414 -35.1246 -35.1023 -35.0950 -30.6935 -30.6929 -30.6850 -30.6816
   -30.6806 -30.6790 -30.6725 -30.6713 -30.6685 -30.6579 -30.6491 -30.6420
     6.6728   7.5324   7.7241   8.3266   8.5295   8.6021   8.7391   8.7966
     8.8228   8.8643   8.9352   8.9632   9.0379   9.1043   9.1416   9.1930
     9.2199   9.2650   9.2827   9.3457   9.4646   9.5159   9.5487   9.5614
     9.5948   9.6485   9.6724   9.7316   9.7584   9.7917   9.8412   9.8508
     9.8839   9.9235   9.9883  10.0418  10.1107  10.1719  10.2055  10.2309
    10.2673  10.3554  10.3891  10.4669  10.5143  10.5263  10.5628  10.6110
    10.6591  10.6746  10.7045  10.7285  10.8356  10.8502  10.9048  10.9245
    10.9612  10.9891  11.0646  11.1272  11.1640  11.2328  11.3826  11.3999
    11.4319  11.4887  11.5107  11.5310  11.5897  11.6011  11.6313  11.7267
    11.7445  11.7871  11.8420  11.8761  11.9025  11.9518  11.9765  12.0177
    12.0666  12.0857  12.1129  12.1553  12.1687  12.2333  12.2475  12.2708
    12.3164  12.3323  12.3448  12.4011  12.4704  12.5190  12.5333  12.5469
    12.6092  12.6615  12.6832  12.7717  12.8556  12.9089  12.9229  13.0460
    13.1835  13.2269  13.2860  13.4385  13.5349  13.7169  14.0777  14.4591
    14.6400  14.9852  15.1102  15.4531  15.6727  15.7690  16.0281  16.5316
    16.5651  16.8615  17.1538  17.2192  17.2534  17.3294  17.3705  17.4502
    17.4823  17.5192  17.5943  17.6477  17.7285  17.7811  17.8419  18.0749
    18.2020  18.3485  18.6617  18.7080  19.0072  19.0834  19.1602  19.3591
    19.8276  20.1119

          k = 0.3536 0.0000 0.1360 ( 13676 PWs)   bands (ev):

   -66.4661 -66.4389 -66.4148 -66.3814 -61.8644 -61.8509 -61.8468 -61.8234
   -35.2406 -35.2105 -35.1932 -35.1899 -35.1891 -35.1864 -35.1682 -35.1539
   -35.1414 -35.1247 -35.1023 -35.0950 -30.6935 -30.6928 -30.6850 -30.6816
   -30.6806 -30.6790 -30.6724 -30.6713 -30.6685 -30.6578 -30.6491 -30.6420
     6.2517   7.1472   7.4103   8.0993   8.2287   8.5060   8.6637   8.7192
     8.8337   8.8606   9.0874   9.1945   9.2553   9.3190   9.3389   9.3513
     9.3999   9.4175   9.4712   9.4994   9.5535   9.5864   9.6142   9.6515
     9.7052   9.7550   9.7798   9.8104   9.8950   9.9386   9.9538   9.9913
    10.0273  10.0455  10.0656  10.1182  10.1509  10.1948  10.2318  10.2546
    10.3078  10.3295  10.3693  10.3961  10.4272  10.4701  10.5050  10.5651
    10.6341  10.6460  10.6842  10.7228  10.7634  10.8126  10.8412  10.8571
    10.9088  10.9447  10.9782  11.0409  11.0982  11.1280  11.1784  11.2041
    11.2430  11.2757  11.3121  11.3888  11.4348  11.4876  11.5757  11.6384
    11.6723  11.7042  11.7394  11.7616  11.8123  11.8331  11.8820  11.9090
    11.9955  12.0335  12.0540  12.1020  12.1299  12.1614  12.2125  12.2427
    12.2672  12.3038  12.3673  12.3844  12.4042  12.4615  12.5024  12.5786
    12.6204  12.6536  12.7348  12.7903  12.8335  12.8723  12.9436  12.9879
    13.0181  13.3414  13.3790  13.7628  13.8692  14.5491  14.7186  15.0581
    15.3387  15.5594  15.7343  15.8037  15.9781  16.0354  16.2564  16.5554
    16.6715  16.9131  17.0419  17.0831  17.2209  17.3048  17.3719  17.4355
    17.5002  17.5449  17.6468  17.7057  17.8563  17.9512  18.0796  18.1506
    18.2535  18.4907  18.5740  18.6590  18.9294  19.0939  19.3842  19.5734
    19.6721  20.0663

          k = 0.3536 0.0000 0.6802 ( 13702 PWs)   bands (ev):

   -66.4661 -66.4389 -66.4148 -66.3814 -61.8644 -61.8509 -61.8468 -61.8234
   -35.2406 -35.2106 -35.1932 -35.1899 -35.1891 -35.1864 -35.1683 -35.1539
   -35.1414 -35.1246 -35.1023 -35.0950 -30.6935 -30.6929 -30.6850 -30.6816
   -30.6806 -30.6790 -30.6725 -30.6713 -30.6685 -30.6579 -30.6491 -30.6420
     7.0725   7.1589   7.8604   7.9238   8.6046   8.6881   8.8145   8.8541
     8.9058   8.9262   8.9720   9.0098   9.0346   9.1053   9.1348   9.1713
     9.2401   9.2581   9.3236   9.3771   9.4086   9.4581   9.4862   9.5585
     9.5745   9.5956   9.6412   9.6794   9.6998   9.7741   9.7967   9.8605
     9.9275   9.9739  10.0473  10.1019  10.1357  10.1852  10.2330  10.2755
    10.3294  10.3659  10.3806  10.4374  10.4589  10.5333  10.5859  10.6283
    10.6451  10.6797  10.7099  10.7726  10.7931  10.8577  10.8747  10.8948
    10.9467  10.9969  11.0563  11.0984  11.1462  11.1887  11.2488  11.2986
    11.3239  11.3825  11.4364  11.4730  11.5086  11.5635  11.5720  11.6597
    11.6932  11.7190  11.7439  11.7965  11.8491  11.8931  11.9665  11.9928
    12.0499  12.0649  12.1250  12.1498  12.1824  12.1997  12.2281  12.2705
    12.2975  12.3255  12.3558  12.3899  12.4224  12.4863  12.5064  12.5889
    12.6417  12.6927  12.7207  12.7679  12.8534  12.8917  12.9719  13.0661
    13.1493  13.4407  13.6172  13.7575  13.9084  14.0888  14.2604  14.5452
    14.8494  15.1045  15.3216  15.4533  15.6015  15.9314  16.0711  16.0995
    16.3855  16.9140  17.0290  17.1955  17.2460  17.3258  17.3438  17.4089
    17.4619  17.5659  17.6148  17.7014  17.7366  17.8002  17.8796  17.9892
    18.0323  18.1275  18.2920  18.4991  18.6900  19.1268  19.4737  19.5549
    19.8430  20.1550

          k = 0.3536 0.0000-0.9522 ( 13693 PWs)   bands (ev):

   -66.4661 -66.4389 -66.4147 -66.3814 -61.8644 -61.8509 -61.8468 -61.8234
   -35.2406 -35.2106 -35.1933 -35.1899 -35.1891 -35.1864 -35.1683 -35.1539
   -35.1414 -35.1246 -35.1023 -35.0950 -30.6935 -30.6930 -30.6850 -30.6817
   -30.6807 -30.6790 -30.6725 -30.6712 -30.6684 -30.6580 -30.6491 -30.6419
     7.7468   7.8685   8.3453   8.3554   8.4093   8.5301   8.5445   8.6208
     8.7303   8.7805   8.8204   8.8473   8.9209   8.9346   9.0343   9.1781
     9.2254   9.2703   9.3243   9.3543   9.3956   9.4121   9.4733   9.5055
     9.5483   9.5684   9.6497   9.6804   9.6896   9.7484   9.7842   9.8068
     9.8576   9.8990   9.9431   9.9776  10.0299  10.0787  10.1049  10.1307
    10.1623  10.2437  10.2979  10.3431  10.3788  10.4831  10.5408  10.5692
    10.5925  10.6288  10.6561  10.7196  10.7274  10.7521  10.8616  10.9215
    10.9571  11.0477  11.1413  11.1795  11.2426  11.3096  11.3753  11.4073
    11.4576  11.5343  11.5843  11.6620  11.6891  11.7538  11.8201  11.8619
    11.8972  11.9298  11.9613  11.9901  12.0101  12.0253  12.0764  12.1121
    12.1312  12.1699  12.1982  12.2518  12.2874  12.2964  12.3104  12.3561
    12.3797  12.4130  12.4368  12.4559  12.5163  12.5818  12.6052  12.6356
    12.6709  12.7010  12.8046  12.8522  12.8944  12.9540  12.9659  13.0329
    13.0785  13.1328  13.1615  13.3199  13.6248  13.7419  13.7816  13.9095
    14.0515  14.3711  14.9434  15.1435  15.5036  15.5889  15.6548  16.1847
    16.4986  16.6978  17.0250  17.1952  17.2131  17.2481  17.3354  17.3966
    17.4543  17.4906  17.5144  17.5577  17.6250  17.6760  17.8027  17.9042
    18.0125  18.0938  18.1812  18.3478  18.4860  18.6575  18.7584  19.2754
    19.6246  20.0842

          k = 0.3536 0.0000-0.4081 ( 13687 PWs)   bands (ev):

   -66.4661 -66.4389 -66.4148 -66.3814 -61.8644 -61.8509 -61.8468 -61.8234
   -35.2406 -35.2106 -35.1932 -35.1899 -35.1891 -35.1864 -35.1683 -35.1539
   -35.1414 -35.1246 -35.1023 -35.0950 -30.6935 -30.6929 -30.6850 -30.6816
   -30.6806 -30.6790 -30.6725 -30.6713 -30.6685 -30.6579 -30.6491 -30.6420
     6.5421   7.4096   8.2305   8.3527   8.4631   8.4775   8.5751   8.6197
     8.7180   8.7775   8.9460   9.0510   9.0859   9.1348   9.1726   9.1954
     9.2203   9.2522   9.3230   9.4091   9.4634   9.4862   9.5560   9.5705
     9.5901   9.6246   9.6902   9.6994   9.7245   9.7804   9.8349   9.8647
     9.9376   9.9489   9.9920  10.0133  10.0478  10.1467  10.1573  10.1932
    10.2812  10.3645  10.4021  10.4484  10.5090  10.5510  10.6048  10.6534
    10.6821  10.7297  10.7693  10.8009  10.8652  10.8992  10.9450  10.9995
    11.0098  11.0924  11.1208  11.1570  11.2146  11.3027  11.3732  11.4187
    11.4558  11.4685  11.4921  11.5656  11.5953  11.6948  11.7722  11.8025
    11.8404  11.8864  11.9228  11.9476  11.9612  11.9683  12.0344  12.0509
    12.0883  12.1379  12.1494  12.1772  12.1857  12.2113  12.2586  12.2702
    12.2988  12.3287  12.3587  12.3979  12.4313  12.4949  12.5399  12.5601
    12.6037  12.6320  12.6896  12.7462  12.7570  12.7968  12.8308  12.8696
    12.8953  12.9576  13.0160  13.0432  13.1552  14.1538  14.1873  14.3512
    14.6832  14.9324  15.0555  15.2578  15.6994  15.8601  16.1913  16.4713
    16.5313  16.7602  16.9762  17.1575  17.2632  17.3057  17.3524  17.4089
    17.4627  17.5236  17.6228  17.6665  17.7366  17.8008  17.8959  18.0506
    18.1946  18.3381  18.5194  18.6784  18.9280  19.0335  19.1631  19.5320
    20.0804  20.2844

          k =-0.1768-0.5303 0.2721 ( 13683 PWs)   bands (ev):

   -66.4661 -66.4389 -66.4147 -66.3814 -61.8644 -61.8509 -61.8468 -61.8234
   -35.2406 -35.2106 -35.1932 -35.1899 -35.1891 -35.1864 -35.1683 -35.1539
   -35.1414 -35.1246 -35.1023 -35.0950 -30.6935 -30.6929 -30.6850 -30.6816
   -30.6806 -30.6790 -30.6725 -30.6713 -30.6685 -30.6579 -30.6491 -30.6420
     6.7134   7.5497   7.6972   8.2506   8.5235   8.5360   8.6707   8.7780
     8.8006   8.8874   8.9606   8.9808   9.0259   9.0713   9.1562   9.2509
     9.2644   9.3167   9.3608   9.3798   9.4126   9.4722   9.5015   9.5358
     9.5866   9.6017   9.6447   9.7209   9.7609   9.7899   9.8449   9.8653
     9.8927   9.9772  10.0270  10.0676  10.1384  10.1794  10.2169  10.2448
    10.2852  10.3325  10.3632  10.4216  10.4768  10.5324  10.6064  10.6528
    10.7025  10.7108  10.7309  10.8079  10.8536  10.8961  10.9318  11.0086
    11.0405  11.0683  11.1171  11.1412  11.2091  11.2397  11.2722  11.3156
    11.3382  11.3515  11.4575  11.5147  11.5680  11.6275  11.6397  11.6826
    11.7328  11.7611  11.8066  11.8542  11.8908  11.9256  11.9808  11.9964
    12.0494  12.0803  12.1270  12.1507  12.1776  12.1954  12.2518  12.2612
    12.2802  12.2943  12.3218  12.3819  12.4379  12.4804  12.5404  12.5778
    12.6161  12.6558  12.6917  12.7489  12.7714  12.8238  12.8975  13.0134
    13.0507  13.2397  13.3324  13.3608  13.7449  14.0303  14.1968  14.6718
    14.8597  15.1874  15.4262  15.5057  15.6292  15.7375  15.9181  16.1420
    16.4355  16.6944  17.1233  17.2024  17.2639  17.3145  17.3656  17.4001
    17.5107  17.5785  17.6003  17.6953  17.7845  17.8338  17.8993  17.9560
    18.0482  18.2052  18.3387  18.3796  18.4749  18.6544  19.0648  19.8443
    20.1654  20.2571

     the Fermi energy is    15.5899 ev

!    total energy              =  -14693.92809892 Ry
     Harris-Foulkes estimate   =  -14693.92807913 Ry
     estimated scf accuracy    <       0.00000077 Ry

     total all-electron energy =   -626921.523821 Ry

     The total energy is the sum of the following terms:

     one-electron contribution =    -698.44416288 Ry
     hartree contribution      =     651.62341656 Ry
     xc contribution           =    -738.12341838 Ry
     ewald contribution        =   -2207.56121140 Ry
     Hubbard energy            =       0.45411534 Ry
     one-center paw contrib.   =  -11701.87683815 Ry

     total magnetization       =     0.00 Bohr mag/cell
     absolute magnetization    =    36.77 Bohr mag/cell

     convergence has been achieved in  18 iterations

     Writing output data file mnau2.save/
 
     init_run     :     24.96s CPU     25.85s WALL (       1 calls)
     electrons    :   1171.08s CPU   1202.65s WALL (       1 calls)

     Called by init_run:
     wfcinit      :     22.65s CPU     23.40s WALL (       1 calls)
     potinit      :      1.19s CPU      1.23s WALL (       1 calls)
     hinit0       :      0.69s CPU      0.74s WALL (       1 calls)

     Called by electrons:
     c_bands      :   1040.44s CPU   1067.61s WALL (      18 calls)
     sum_band     :    110.40s CPU    113.79s WALL (      18 calls)
     v_of_rho     :      1.64s CPU      1.66s WALL (      19 calls)
     newd         :      6.10s CPU      6.85s WALL (      19 calls)
     PAW_pot      :     13.16s CPU     13.22s WALL (      19 calls)
     mix_rho      :      0.24s CPU      0.26s WALL (      18 calls)

     Called by c_bands:
     init_us_2    :      8.87s CPU      8.91s WALL (    2736 calls)
     cegterg      :    996.42s CPU   1023.23s WALL (    1296 calls)

     Called by sum_band:
     sum_band:bec :      1.05s CPU      1.06s WALL (    1296 calls)
     addusdens    :     11.54s CPU     12.70s WALL (      18 calls)

     Called by *egterg:
     h_psi        :    402.88s CPU    415.48s WALL (    5090 calls)
     s_psi        :     60.64s CPU     60.93s WALL (    5162 calls)
     g_psi        :      2.30s CPU      2.32s WALL (    3722 calls)
     cdiaghg      :    403.61s CPU    411.32s WALL (    5018 calls)

     Called by h_psi:
     h_psi:pot    :    382.66s CPU    392.83s WALL (    5090 calls)
     h_psi:calbec :     56.85s CPU     59.14s WALL (    5090 calls)
     vloc_psi     :    267.26s CPU    274.46s WALL (    5090 calls)
     add_vuspsi   :     58.50s CPU     59.20s WALL (    5090 calls)
     vhpsi        :     17.61s CPU     17.70s WALL (    5090 calls)

     General routines
     calbec       :     92.20s CPU     95.23s WALL (   12844 calls)
     fft          :      0.95s CPU      0.98s WALL (     471 calls)
     ffts         :      0.04s CPU      0.04s WALL (      74 calls)
     fftw         :    293.87s CPU    301.62s WALL ( 1321390 calls)
     interpolate  :      0.10s CPU      0.10s WALL (      38 calls)
     davcio       :      0.00s CPU      0.28s WALL (      72 calls)
 
     Parallel routines
     fft_scatt_xy :     37.10s CPU     37.96s WALL ( 1321935 calls)
     fft_scatt_yz :     96.49s CPU     99.35s WALL ( 1321935 calls)

     Hubbard U routines
     new_ns       :      5.20s CPU      5.24s WALL (      18 calls)
     vhpsi        :     17.61s CPU     17.70s WALL (    5090 calls)
 
     PWSCF        : 20m 3.33s CPU    20m55.03s WALL

 
   This run was terminated on:  13: 3:20  26Mar2019            

=------------------------------------------------------------------------------=
   JOB DONE.
=------------------------------------------------------------------------------=
