
     Program PWSCF v.6.3MaX starts on 26Mar2019 at 13: 3:21 

     This program is part of the open-source Quantum ESPRESSO suite
     for quantum simulation of materials; please cite
         "P. Giannozzi et al., J. Phys.:Condens. Matter 21 395502 (2009);
         "P. Giannozzi et al., J. Phys.:Condens. Matter 29 465901 (2017);
          URL http://www.quantum-espresso.org", 
     in publications or presentations arising from this work. More details at
     http://www.quantum-espresso.org/quote

     Parallel version (MPI), running on    16 processors

     MPI processes distributed on     1 nodes
     R & G space division:  proc/nbgrp/npool/nimage =      16
     Waiting for input...
     Reading input from standard input

     Current dimensions of program PWSCF are:
     Max number of different atomic species (ntypx) = 10
     Max number of k-points (npk) =  40000
     Max angular momentum in pseudopotentials (lmaxx) =  3
     Message from routine read_upf::
     Pseudo file ./pseudo/Mn.pbe-spn-kjpaw_psl.0.3.1.UPF has been successfully fixed on the fly.
To avoid this message in the future you can permanently fix 
 your pseudo files following instructions given in: 
https://gitlab.com/QEF/q-e/blob/master/upftools/how_to_fix_upf.md
               file Mn.pbe-spn-kjpaw_psl.0.3.1.UPF: wavefunction(s)  3P 3D renormalized
     Message from routine read_upf::
     Pseudo file ./pseudo/Mn.pbe-spn-kjpaw_psl.0.3.1.UPF has been successfully fixed on the fly.
To avoid this message in the future you can permanently fix 
 your pseudo files following instructions given in: 
https://gitlab.com/QEF/q-e/blob/master/upftools/how_to_fix_upf.md
               file Mn.pbe-spn-kjpaw_psl.0.3.1.UPF: wavefunction(s)  3P 3D renormalized
     Message from routine read_upf::
     Pseudo file ./pseudo/Au.pbe-dn-kjpaw_psl.0.1.UPF has been successfully fixed on the fly.
To avoid this message in the future you can permanently fix 
 your pseudo files following instructions given in: 
https://gitlab.com/QEF/q-e/blob/master/upftools/how_to_fix_upf.md
               file Au.pbe-dn-kjpaw_psl.0.1.UPF: wavefunction(s)  6S 6P 5D renormalized

     Subspace diagonalization in iterative solution of the eigenvalue problem:
     one sub-group per band group will be used
     scalapack distributed-memory algorithm (size of sub-group:  2*  2 procs)

 
     Parallelization info
     --------------------
     sticks:   dense  smooth     PW     G-vecs:    dense   smooth      PW
     Min         646     290     84                22663     6843    1075
     Max         647     291     85                22664     6844    1077
     Sum       10349    4645   1353               362619   109493   17211
 


     bravais-lattice index     =            0
     lattice parameter (alat)  =      18.0125  a.u.
     unit-cell volume          =    2685.0513 (a.u.)^3
     number of atoms/cell      =           24
     number of atomic types    =            3
     number of electrons       =       296.00
     number of Kohn-Sham states=          178
     kinetic-energy cutoff     =      45.0000  Ry
     charge density cutoff     =     400.0000  Ry
     convergence threshold     =      1.0E-06
     mixing beta               =       0.1000
     number of iterations used =            8  plain     mixing
     Exchange-correlation      = SLA PW PBX PBC ( 1  4  3  4 0 0)

     celldm(1)=  18.012490  celldm(2)=   0.000000  celldm(3)=   0.000000
     celldm(4)=   0.000000  celldm(5)=   0.000000  celldm(6)=   0.000000

     crystal axes: (cart. coord. in units of alat)
               a(1) = (   0.707107  -0.707107   0.000000 )  
               a(2) = (  -0.707107  -0.707107   0.000000 )  
               a(3) = (   0.176777   0.176777  -0.459443 )  

     reciprocal axes: (cart. coord. in units 2 pi/alat)
               b(1) = (  0.707107 -0.707107  0.000000 )  
               b(2) = ( -0.707107 -0.707107 -0.544138 )  
               b(3) = (  0.000000  0.000000 -2.176550 )  


     PseudoPot. # 1 for Mn read from file:
     ./pseudo/Mn.pbe-spn-kjpaw_psl.0.3.1.UPF
     MD5 check sum: 7eef95dd2aae66803482eea66ebeebf1
     Pseudo is Projector augmented-wave + core cor, Zval = 15.0
     Generated using "atomic" code by A. Dal Corso v.5.0.99 svn rev. 10869
     Shape of augmentation charge: PSQ
     Using radial grid of 1187 points,  6 beta functions with: 
                l(1) =   0
                l(2) =   0
                l(3) =   1
                l(4) =   1
                l(5) =   2
                l(6) =   2
     Q(r) pseudized with 0 coefficients 


     PseudoPot. # 2 for Mn read from file:
     ./pseudo/Mn.pbe-spn-kjpaw_psl.0.3.1.UPF
     MD5 check sum: 7eef95dd2aae66803482eea66ebeebf1
     Pseudo is Projector augmented-wave + core cor, Zval = 15.0
     Generated using "atomic" code by A. Dal Corso v.5.0.99 svn rev. 10869
     Shape of augmentation charge: PSQ
     Using radial grid of 1187 points,  6 beta functions with: 
                l(1) =   0
                l(2) =   0
                l(3) =   1
                l(4) =   1
                l(5) =   2
                l(6) =   2
     Q(r) pseudized with 0 coefficients 


     PseudoPot. # 3 for Au read from file:
     ./pseudo/Au.pbe-dn-kjpaw_psl.0.1.UPF
     MD5 check sum: 5c9b92683623e7ae2ab3f8e525febab6
     Pseudo is Projector augmented-wave + core cor, Zval = 11.0
     Generated using "atomic" code by A. Dal Corso v.5.0.2 svn rev. 9415
     Shape of augmentation charge: PSQ
     Using radial grid of 1279 points,  6 beta functions with: 
                l(1) =   0
                l(2) =   0
                l(3) =   1
                l(4) =   1
                l(5) =   2
                l(6) =   2
     Q(r) pseudized with 0 coefficients 


     atomic species   valence    mass     pseudopotential
        Mn1           15.00    54.93800     Mn( 1.00)
        Mn2           15.00    54.93800     Mn( 1.00)
        Au            11.00   196.96600     Au( 1.00)

     Starting magnetic structure 
     atomic species   magnetization
        Mn1          1.000
        Mn2         -1.000
        Au           0.000


     Full LDA+U calculation (l_max = 2) with parameters (eV):
     U(  1) =   3.1200   J(  1) =   0.7000   B(  1) =   0.0803
     U(  2) =   3.1200   J(  2) =   0.7000   B(  2) =   0.0803



      4 Sym. Ops., with inversion, found ( 2 have fractional translation)



   Cartesian axes

     site n.     atom                  positions (alat units)
         1           Mn1 tau(   1) = (   0.3535534  -0.3535534   0.0000000  )
         2           Mn2 tau(   2) = (   0.0000000   0.0000000   0.0000000  )
         3           Mn1 tau(   3) = (   0.0000000  -0.3535534   0.0000000  )
         4           Mn2 tau(   4) = (   0.3535534  -0.7071068   0.0000000  )
         5           Mn2 tau(   5) = (  -0.3535534  -0.3535534   0.0000000  )
         6           Mn1 tau(   6) = (   0.0000000  -0.7071068   0.0000000  )
         7           Mn2 tau(   7) = (  -0.3535534  -0.7071068   0.0000000  )
         8           Mn1 tau(   8) = (   0.0000000  -1.0606602   0.0000000  )
         9           Au  tau(   9) = (  -0.1767767  -0.1767767  -0.1470216  )
        10           Au  tau(  10) = (   0.1767767  -0.5303301  -0.1470216  )
        11           Au  tau(  11) = (  -0.1767767  -0.5303301  -0.1470216  )
        12           Au  tau(  12) = (   0.1767767  -0.8838835  -0.1470216  )
        13           Au  tau(  13) = (  -0.5303301  -0.5303301  -0.1470216  )
        14           Au  tau(  14) = (  -0.1767767  -0.8838835  -0.1470216  )
        15           Au  tau(  15) = (   0.5303301  -0.5303301  -0.1470216  )
        16           Au  tau(  16) = (   0.1767767  -0.1767767  -0.1470216  )
        17           Au  tau(  17) = (   0.3535534  -0.3535534  -0.3124210  )
        18           Au  tau(  18) = (   0.0000000   0.0000000  -0.3124210  )
        19           Au  tau(  19) = (   0.0000000  -0.3535534  -0.3124210  )
        20           Au  tau(  20) = (   0.3535534  -0.7071068  -0.3124210  )
        21           Au  tau(  21) = (  -0.3535534  -0.3535534  -0.3124210  )
        22           Au  tau(  22) = (  -0.0000000  -0.7071068  -0.3124210  )
        23           Au  tau(  23) = (  -0.3535534  -0.7071068  -0.3124210  )
        24           Au  tau(  24) = (   0.0000000  -1.0606602  -0.3124210  )

     number of k points=    30 (tetrahedron method)
                       cart. coord. in units 2pi/alat
        k(    1) = (   0.0000000   0.0000000   0.0000000), wk =   0.0156250
        k(    2) = (   0.0000000   0.0000000  -0.5441376), wk =   0.0312500
        k(    3) = (   0.0000000   0.0000000   1.0882752), wk =   0.0156250
        k(    4) = (  -0.1767767  -0.1767767  -0.1360344), wk =   0.0312500
        k(    5) = (  -0.1767767  -0.1767767  -0.6801720), wk =   0.0312500
        k(    6) = (  -0.1767767  -0.1767767   0.9522408), wk =   0.0312500
        k(    7) = (  -0.1767767  -0.1767767   0.4081032), wk =   0.0312500
        k(    8) = (   0.3535534   0.3535534   0.2720688), wk =   0.0156250
        k(    9) = (   0.3535534   0.3535534  -0.2720688), wk =   0.0312500
        k(   10) = (   0.3535534   0.3535534   1.3603439), wk =   0.0156250
        k(   11) = (   0.1767767  -0.1767767   0.0000000), wk =   0.0312500
        k(   12) = (   0.1767767  -0.1767767  -0.5441376), wk =   0.0625000
        k(   13) = (   0.1767767  -0.1767767   1.0882752), wk =   0.0312500
        k(   14) = (   0.0000000  -0.3535534  -0.1360344), wk =   0.0625000
        k(   15) = (   0.0000000  -0.3535534  -0.6801720), wk =   0.0625000
        k(   16) = (   0.0000000  -0.3535534   0.9522408), wk =   0.0625000
        k(   17) = (   0.0000000  -0.3535534   0.4081032), wk =   0.0625000
        k(   18) = (   0.5303301   0.1767767   0.2720688), wk =   0.0312500
        k(   19) = (   0.5303301   0.1767767  -0.2720688), wk =   0.0625000
        k(   20) = (   0.5303301   0.1767767   1.3603439), wk =   0.0312500
        k(   21) = (  -0.3535534   0.3535534   0.0000000), wk =   0.0156250
        k(   22) = (  -0.3535534   0.3535534  -0.5441376), wk =   0.0312500
        k(   23) = (  -0.3535534   0.3535534   1.0882752), wk =   0.0156250
        k(   24) = (  -0.5303301   0.1767767  -0.1360344), wk =   0.0312500
        k(   25) = (  -0.5303301   0.1767767  -0.6801720), wk =   0.0312500
        k(   26) = (  -0.5303301   0.1767767   0.9522408), wk =   0.0312500
        k(   27) = (  -0.5303301   0.1767767   0.4081032), wk =   0.0312500
        k(   28) = (   0.0000000   0.7071068   0.2720688), wk =   0.0156250
        k(   29) = (   0.0000000   0.7071068  -0.2720688), wk =   0.0312500
        k(   30) = (   0.0000000   0.7071068   1.3603439), wk =   0.0156250

     Dense  grid:   362619 G-vectors     FFT dimensions: ( 120, 120,  60)

     Smooth grid:   109493 G-vectors     FFT dimensions: (  80,  80,  45)

     Estimated max dynamical RAM per process >     286.87 MB

     Estimated total dynamical RAM >       4.48 GB
     Generating pointlists ...
     new r_m :   0.1196 (alat units)  2.1549 (a.u.) for type    1
     new r_m :   0.1196 (alat units)  2.1549 (a.u.) for type    2
     new r_m :   0.1196 (alat units)  2.1549 (a.u.) for type    3

     Check: negative/imaginary core charge=   -0.000006    0.000000

     Initial potential from superposition of free atoms

     starting charge  295.99426, renormalised to  296.00000
     Number of +U iterations with fixed ns =  0
     Starting occupations:
 --- enter write_ns ---
 LDA+U parameters:
U(  1) =   3.1200   J(  1) =   0.7000   B(  1) =   0.0803
U(  2) =   3.1200   J(  2) =   0.7000   B(  2) =   0.0803
atom    1   Tr[ns(na)] (up, down, total) =   5.00000  0.00000  5.00000
   spin  1
    eigenvalues: 
  1.000  1.000  1.000  1.000  1.000
    eigenvectors:
  1.000  0.000  0.000  0.000  0.000
  0.000  1.000  0.000  0.000  0.000
  0.000  0.000  1.000  0.000  0.000
  0.000  0.000  0.000  1.000  0.000
  0.000  0.000  0.000  0.000  1.000
    occupations:
  1.000  0.000  0.000  0.000  0.000
  0.000  1.000  0.000  0.000  0.000
  0.000  0.000  1.000  0.000  0.000
  0.000  0.000  0.000  1.000  0.000
  0.000  0.000  0.000  0.000  1.000
   spin  2
    eigenvalues: 
  0.000  0.000  0.000  0.000  0.000
    eigenvectors:
  1.000  0.000  0.000  0.000  0.000
  0.000  1.000  0.000  0.000  0.000
  0.000  0.000  1.000  0.000  0.000
  0.000  0.000  0.000  1.000  0.000
  0.000  0.000  0.000  0.000  1.000
    occupations:
  0.000  0.000  0.000  0.000  0.000
  0.000  0.000  0.000  0.000  0.000
  0.000  0.000  0.000  0.000  0.000
  0.000  0.000  0.000  0.000  0.000
  0.000  0.000  0.000  0.000  0.000
atomic mag. moment =     5.000000
atom    2   Tr[ns(na)] (up, down, total) =   0.00000  5.00000  5.00000
   spin  1
    eigenvalues: 
  0.000  0.000  0.000  0.000  0.000
    eigenvectors:
  1.000  0.000  0.000  0.000  0.000
  0.000  1.000  0.000  0.000  0.000
  0.000  0.000  1.000  0.000  0.000
  0.000  0.000  0.000  1.000  0.000
  0.000  0.000  0.000  0.000  1.000
    occupations:
  0.000  0.000  0.000  0.000  0.000
  0.000  0.000  0.000  0.000  0.000
  0.000  0.000  0.000  0.000  0.000
  0.000  0.000  0.000  0.000  0.000
  0.000  0.000  0.000  0.000  0.000
   spin  2
    eigenvalues: 
  1.000  1.000  1.000  1.000  1.000
    eigenvectors:
  1.000  0.000  0.000  0.000  0.000
  0.000  1.000  0.000  0.000  0.000
  0.000  0.000  1.000  0.000  0.000
  0.000  0.000  0.000  1.000  0.000
  0.000  0.000  0.000  0.000  1.000
    occupations:
  1.000  0.000  0.000  0.000  0.000
  0.000  1.000  0.000  0.000  0.000
  0.000  0.000  1.000  0.000  0.000
  0.000  0.000  0.000  1.000  0.000
  0.000  0.000  0.000  0.000  1.000
atomic mag. moment =    -5.000000
atom    3   Tr[ns(na)] (up, down, total) =   5.00000  0.00000  5.00000
   spin  1
    eigenvalues: 
  1.000  1.000  1.000  1.000  1.000
    eigenvectors:
  1.000  0.000  0.000  0.000  0.000
  0.000  1.000  0.000  0.000  0.000
  0.000  0.000  1.000  0.000  0.000
  0.000  0.000  0.000  1.000  0.000
  0.000  0.000  0.000  0.000  1.000
    occupations:
  1.000  0.000  0.000  0.000  0.000
  0.000  1.000  0.000  0.000  0.000
  0.000  0.000  1.000  0.000  0.000
  0.000  0.000  0.000  1.000  0.000
  0.000  0.000  0.000  0.000  1.000
   spin  2
    eigenvalues: 
  0.000  0.000  0.000  0.000  0.000
    eigenvectors:
  1.000  0.000  0.000  0.000  0.000
  0.000  1.000  0.000  0.000  0.000
  0.000  0.000  1.000  0.000  0.000
  0.000  0.000  0.000  1.000  0.000
  0.000  0.000  0.000  0.000  1.000
    occupations:
  0.000  0.000  0.000  0.000  0.000
  0.000  0.000  0.000  0.000  0.000
  0.000  0.000  0.000  0.000  0.000
  0.000  0.000  0.000  0.000  0.000
  0.000  0.000  0.000  0.000  0.000
atomic mag. moment =     5.000000
atom    4   Tr[ns(na)] (up, down, total) =   0.00000  5.00000  5.00000
   spin  1
    eigenvalues: 
  0.000  0.000  0.000  0.000  0.000
    eigenvectors:
  1.000  0.000  0.000  0.000  0.000
  0.000  1.000  0.000  0.000  0.000
  0.000  0.000  1.000  0.000  0.000
  0.000  0.000  0.000  1.000  0.000
  0.000  0.000  0.000  0.000  1.000
    occupations:
  0.000  0.000  0.000  0.000  0.000
  0.000  0.000  0.000  0.000  0.000
  0.000  0.000  0.000  0.000  0.000
  0.000  0.000  0.000  0.000  0.000
  0.000  0.000  0.000  0.000  0.000
   spin  2
    eigenvalues: 
  1.000  1.000  1.000  1.000  1.000
    eigenvectors:
  1.000  0.000  0.000  0.000  0.000
  0.000  1.000  0.000  0.000  0.000
  0.000  0.000  1.000  0.000  0.000
  0.000  0.000  0.000  1.000  0.000
  0.000  0.000  0.000  0.000  1.000
    occupations:
  1.000  0.000  0.000  0.000  0.000
  0.000  1.000  0.000  0.000  0.000
  0.000  0.000  1.000  0.000  0.000
  0.000  0.000  0.000  1.000  0.000
  0.000  0.000  0.000  0.000  1.000
atomic mag. moment =    -5.000000
atom    5   Tr[ns(na)] (up, down, total) =   0.00000  5.00000  5.00000
   spin  1
    eigenvalues: 
  0.000  0.000  0.000  0.000  0.000
    eigenvectors:
  1.000  0.000  0.000  0.000  0.000
  0.000  1.000  0.000  0.000  0.000
  0.000  0.000  1.000  0.000  0.000
  0.000  0.000  0.000  1.000  0.000
  0.000  0.000  0.000  0.000  1.000
    occupations:
  0.000  0.000  0.000  0.000  0.000
  0.000  0.000  0.000  0.000  0.000
  0.000  0.000  0.000  0.000  0.000
  0.000  0.000  0.000  0.000  0.000
  0.000  0.000  0.000  0.000  0.000
   spin  2
    eigenvalues: 
  1.000  1.000  1.000  1.000  1.000
    eigenvectors:
  1.000  0.000  0.000  0.000  0.000
  0.000  1.000  0.000  0.000  0.000
  0.000  0.000  1.000  0.000  0.000
  0.000  0.000  0.000  1.000  0.000
  0.000  0.000  0.000  0.000  1.000
    occupations:
  1.000  0.000  0.000  0.000  0.000
  0.000  1.000  0.000  0.000  0.000
  0.000  0.000  1.000  0.000  0.000
  0.000  0.000  0.000  1.000  0.000
  0.000  0.000  0.000  0.000  1.000
atomic mag. moment =    -5.000000
atom    6   Tr[ns(na)] (up, down, total) =   5.00000  0.00000  5.00000
   spin  1
    eigenvalues: 
  1.000  1.000  1.000  1.000  1.000
    eigenvectors:
  1.000  0.000  0.000  0.000  0.000
  0.000  1.000  0.000  0.000  0.000
  0.000  0.000  1.000  0.000  0.000
  0.000  0.000  0.000  1.000  0.000
  0.000  0.000  0.000  0.000  1.000
    occupations:
  1.000  0.000  0.000  0.000  0.000
  0.000  1.000  0.000  0.000  0.000
  0.000  0.000  1.000  0.000  0.000
  0.000  0.000  0.000  1.000  0.000
  0.000  0.000  0.000  0.000  1.000
   spin  2
    eigenvalues: 
  0.000  0.000  0.000  0.000  0.000
    eigenvectors:
  1.000  0.000  0.000  0.000  0.000
  0.000  1.000  0.000  0.000  0.000
  0.000  0.000  1.000  0.000  0.000
  0.000  0.000  0.000  1.000  0.000
  0.000  0.000  0.000  0.000  1.000
    occupations:
  0.000  0.000  0.000  0.000  0.000
  0.000  0.000  0.000  0.000  0.000
  0.000  0.000  0.000  0.000  0.000
  0.000  0.000  0.000  0.000  0.000
  0.000  0.000  0.000  0.000  0.000
atomic mag. moment =     5.000000
atom    7   Tr[ns(na)] (up, down, total) =   0.00000  5.00000  5.00000
   spin  1
    eigenvalues: 
  0.000  0.000  0.000  0.000  0.000
    eigenvectors:
  1.000  0.000  0.000  0.000  0.000
  0.000  1.000  0.000  0.000  0.000
  0.000  0.000  1.000  0.000  0.000
  0.000  0.000  0.000  1.000  0.000
  0.000  0.000  0.000  0.000  1.000
    occupations:
  0.000  0.000  0.000  0.000  0.000
  0.000  0.000  0.000  0.000  0.000
  0.000  0.000  0.000  0.000  0.000
  0.000  0.000  0.000  0.000  0.000
  0.000  0.000  0.000  0.000  0.000
   spin  2
    eigenvalues: 
  1.000  1.000  1.000  1.000  1.000
    eigenvectors:
  1.000  0.000  0.000  0.000  0.000
  0.000  1.000  0.000  0.000  0.000
  0.000  0.000  1.000  0.000  0.000
  0.000  0.000  0.000  1.000  0.000
  0.000  0.000  0.000  0.000  1.000
    occupations:
  1.000  0.000  0.000  0.000  0.000
  0.000  1.000  0.000  0.000  0.000
  0.000  0.000  1.000  0.000  0.000
  0.000  0.000  0.000  1.000  0.000
  0.000  0.000  0.000  0.000  1.000
atomic mag. moment =    -5.000000
atom    8   Tr[ns(na)] (up, down, total) =   5.00000  0.00000  5.00000
   spin  1
    eigenvalues: 
  1.000  1.000  1.000  1.000  1.000
    eigenvectors:
  1.000  0.000  0.000  0.000  0.000
  0.000  1.000  0.000  0.000  0.000
  0.000  0.000  1.000  0.000  0.000
  0.000  0.000  0.000  1.000  0.000
  0.000  0.000  0.000  0.000  1.000
    occupations:
  1.000  0.000  0.000  0.000  0.000
  0.000  1.000  0.000  0.000  0.000
  0.000  0.000  1.000  0.000  0.000
  0.000  0.000  0.000  1.000  0.000
  0.000  0.000  0.000  0.000  1.000
   spin  2
    eigenvalues: 
  0.000  0.000  0.000  0.000  0.000
    eigenvectors:
  1.000  0.000  0.000  0.000  0.000
  0.000  1.000  0.000  0.000  0.000
  0.000  0.000  1.000  0.000  0.000
  0.000  0.000  0.000  1.000  0.000
  0.000  0.000  0.000  0.000  1.000
    occupations:
  0.000  0.000  0.000  0.000  0.000
  0.000  0.000  0.000  0.000  0.000
  0.000  0.000  0.000  0.000  0.000
  0.000  0.000  0.000  0.000  0.000
  0.000  0.000  0.000  0.000  0.000
atomic mag. moment =     5.000000
N of occupied +U levels =   40.000000
 --- exit write_ns ---
 Atomic wfc used for LDA+U Projector are NOT orthogonalized
     Starting wfcs are  224 randomized atomic wfcs
     Checking if some PAW data can be deallocated... 

     total cpu time spent up to now is       24.7 secs

     Self-consistent Calculation

     iteration #  1     ecut=    45.00 Ry     beta= 0.10
     Davidson diagonalization with overlap
     ethr =  1.00E-02,  avg # of iterations =  4.5
 --- enter write_ns ---
 LDA+U parameters:
U(  1) =   3.1200   J(  1) =   0.7000   B(  1) =   0.0803
U(  2) =   3.1200   J(  2) =   0.7000   B(  2) =   0.0803
atom    1   Tr[ns(na)] (up, down, total) =   5.01497  0.27418  5.28916
   spin  1
    eigenvalues: 
  1.003  1.003  1.003  1.003  1.004
    eigenvectors:
  0.000  0.002  0.001  0.970  0.027
  0.004  0.067  0.929  0.000  0.000
  0.001  0.931  0.066  0.003  0.000
  0.000  0.000  0.000  0.026  0.973
  0.995  0.000  0.004  0.000  0.000
    occupations:
  1.003 -0.000 -0.000 -0.000 -0.000
 -0.000  1.003  0.000  0.000  0.000
 -0.000  0.000  1.003 -0.000  0.000
 -0.000  0.000 -0.000  1.004  0.000
 -0.000  0.000  0.000  0.000  1.003
   spin  2
    eigenvalues: 
  0.041  0.051  0.054  0.055  0.072
    eigenvectors:
  0.035  0.907  0.000  0.056  0.002
  0.000  0.012  0.758  0.226  0.003
  0.000  0.047  0.240  0.713  0.001
  0.965  0.033  0.000  0.002  0.000
  0.000  0.001  0.001  0.004  0.994
    occupations:
  0.051 -0.000  0.001  0.002 -0.001
 -0.000  0.055 -0.000 -0.000  0.001
  0.001 -0.000  0.055  0.000 -0.000
  0.002 -0.000  0.000  0.041 -0.000
 -0.001  0.001 -0.000 -0.000  0.072
atomic mag. moment =     4.740788
atom    2   Tr[ns(na)] (up, down, total) =   0.27480  5.01491  5.28971
   spin  1
    eigenvalues: 
  0.041  0.051  0.054  0.056  0.073
    eigenvectors:
  0.035  0.906  0.001  0.056  0.002
  0.000  0.007  0.830  0.160  0.003
  0.000  0.052  0.168  0.779  0.000
  0.965  0.034  0.000  0.002  0.000
  0.000  0.001  0.002  0.003  0.994
    occupations:
  0.051 -0.000  0.001  0.002 -0.001
 -0.000  0.055 -0.000 -0.000  0.001
  0.001 -0.000  0.055  0.000 -0.000
  0.002 -0.000  0.000  0.041 -0.000
 -0.001  0.001 -0.000 -0.000  0.072
   spin  2
    eigenvalues: 
  1.003  1.003  1.003  1.003  1.004
    eigenvectors:
  0.001  0.000  0.000  0.967  0.032
  0.003  0.001  0.996  0.000  0.000
  0.000  0.999  0.001  0.000  0.000
  0.000  0.000  0.000  0.032  0.967
  0.996  0.000  0.003  0.001  0.000
    occupations:
  1.003  0.000  0.000 -0.000 -0.000
  0.000  1.003  0.000 -0.000  0.000
  0.000  0.000  1.003 -0.000 -0.000
 -0.000 -0.000 -0.000  1.004  0.000
 -0.000  0.000 -0.000  0.000  1.003
atomic mag. moment =    -4.740102
atom    3   Tr[ns(na)] (up, down, total) =   5.01481  0.27580  5.29062
   spin  1
    eigenvalues: 
  1.003  1.003  1.003  1.003  1.004
    eigenvectors:
  0.000  0.000  0.000  1.000  0.000
  0.000  0.500  0.500  0.000  0.000
  0.000  0.500  0.500  0.000  0.000
  0.000  0.000  0.000  0.000  1.000
  1.000  0.000  0.000  0.000  0.000
    occupations:
  1.003 -0.000 -0.000 -0.000  0.000
 -0.000  1.003  0.000 -0.000  0.000
 -0.000  0.000  1.003  0.000  0.000
 -0.000 -0.000  0.000  1.004 -0.000
  0.000  0.000  0.000 -0.000  1.003
   spin  2
    eigenvalues: 
  0.041  0.052  0.055  0.056  0.071
    eigenvectors:
  0.000  0.969  0.000  0.031  0.000
  0.000  0.015  0.500  0.482  0.003
  0.000  0.015  0.500  0.482  0.003
  1.000  0.000  0.000  0.000  0.000
  0.000  0.001  0.000  0.006  0.993
    occupations:
  0.053  0.000  0.000 -0.000 -0.000
  0.000  0.055  0.000  0.000  0.001
  0.000  0.000  0.055 -0.000  0.001
 -0.000  0.000 -0.000  0.041 -0.000
 -0.000  0.001  0.001 -0.000  0.071
atomic mag. moment =     4.739007
atom    4   Tr[ns(na)] (up, down, total) =   0.27586  5.01478  5.29064
   spin  1
    eigenvalues: 
  0.041  0.052  0.055  0.056  0.071
    eigenvectors:
  0.000  0.966  0.000  0.034  0.000
  0.000  0.017  0.500  0.480  0.004
  0.000  0.017  0.500  0.480  0.004
  1.000  0.000  0.000  0.000  0.000
  0.000  0.001  0.000  0.006  0.993
    occupations:
  0.053  0.000  0.000 -0.000 -0.000
  0.000  0.055  0.000  0.000  0.001
  0.000  0.000  0.055 -0.000  0.001
 -0.000  0.000 -0.000  0.041 -0.000
 -0.000  0.001  0.001 -0.000  0.071
   spin  2
    eigenvalues: 
  1.003  1.003  1.003  1.003  1.004
    eigenvectors:
  0.000  0.000  0.001  0.999  0.000
  0.000  0.500  0.500  0.000  0.000
  0.000  0.500  0.500  0.000  0.000
  0.000  0.000  0.000  0.000  1.000
  1.000  0.000  0.000  0.000  0.000
    occupations:
  1.003 -0.000 -0.000 -0.000  0.000
 -0.000  1.003  0.000  0.000  0.000
 -0.000  0.000  1.003 -0.000  0.000
 -0.000  0.000 -0.000  1.004 -0.000
  0.000  0.000  0.000 -0.000  1.003
atomic mag. moment =    -4.738916
atom    5   Tr[ns(na)] (up, down, total) =   0.27480  5.01491  5.28971
   spin  1
    eigenvalues: 
  0.041  0.051  0.054  0.056  0.073
    eigenvectors:
  0.035  0.906  0.001  0.056  0.002
  0.000  0.052  0.168  0.779  0.000
  0.000  0.007  0.830  0.160  0.003
  0.965  0.034  0.000  0.002  0.000
  0.000  0.001  0.002  0.003  0.994
    occupations:
  0.051  0.001 -0.000 -0.002 -0.001
  0.001  0.055 -0.000 -0.000 -0.000
 -0.000 -0.000  0.055  0.000  0.001
 -0.002 -0.000  0.000  0.041  0.000
 -0.001 -0.000  0.001  0.000  0.072
   spin  2
    eigenvalues: 
  1.003  1.003  1.003  1.003  1.004
    eigenvectors:
  0.001  0.000  0.000  0.967  0.032
  0.000  0.999  0.001  0.000  0.000
  0.003  0.001  0.996  0.000  0.000
  0.000  0.000  0.000  0.032  0.967
  0.996  0.000  0.003  0.001  0.000
    occupations:
  1.003  0.000  0.000  0.000 -0.000
  0.000  1.003  0.000  0.000 -0.000
  0.000  0.000  1.003  0.000  0.000
  0.000  0.000  0.000  1.004 -0.000
 -0.000 -0.000  0.000 -0.000  1.003
atomic mag. moment =    -4.740102
atom    6   Tr[ns(na)] (up, down, total) =   5.01497  0.27418  5.28916
   spin  1
    eigenvalues: 
  1.003  1.003  1.003  1.003  1.004
    eigenvectors:
  0.000  0.002  0.001  0.970  0.027
  0.001  0.931  0.066  0.003  0.000
  0.004  0.067  0.929  0.000  0.000
  0.000  0.000  0.000  0.026  0.973
  0.995  0.000  0.004  0.000  0.000
    occupations:
  1.003 -0.000 -0.000  0.000 -0.000
 -0.000  1.003  0.000  0.000  0.000
 -0.000  0.000  1.003 -0.000  0.000
  0.000  0.000 -0.000  1.004 -0.000
 -0.000  0.000  0.000 -0.000  1.003
   spin  2
    eigenvalues: 
  0.041  0.051  0.054  0.055  0.072
    eigenvectors:
  0.035  0.907  0.000  0.056  0.002
  0.000  0.047  0.240  0.713  0.001
  0.000  0.012  0.758  0.226  0.003
  0.965  0.033  0.000  0.002  0.000
  0.000  0.001  0.001  0.004  0.994
    occupations:
  0.051  0.001 -0.000 -0.002 -0.001
  0.001  0.055 -0.000 -0.000 -0.000
 -0.000 -0.000  0.055  0.000  0.001
 -0.002 -0.000  0.000  0.041  0.000
 -0.001 -0.000  0.001  0.000  0.072
atomic mag. moment =     4.740788
atom    7   Tr[ns(na)] (up, down, total) =   0.27586  5.01478  5.29064
   spin  1
    eigenvalues: 
  0.041  0.052  0.055  0.056  0.071
    eigenvectors:
  0.000  0.966  0.000  0.034  0.000
  0.000  0.017  0.500  0.480  0.004
  0.000  0.017  0.500  0.480  0.004
  1.000  0.000  0.000  0.000  0.000
  0.000  0.001  0.000  0.006  0.993
    occupations:
  0.053  0.000  0.000 -0.000 -0.000
  0.000  0.055  0.000  0.000  0.001
  0.000  0.000  0.055 -0.000  0.001
 -0.000  0.000 -0.000  0.041 -0.000
 -0.000  0.001  0.001 -0.000  0.071
   spin  2
    eigenvalues: 
  1.003  1.003  1.003  1.003  1.004
    eigenvectors:
  0.000  0.000  0.001  0.999  0.000
  0.000  0.500  0.500  0.000  0.000
  0.000  0.500  0.500  0.000  0.000
  0.000  0.000  0.000  0.000  1.000
  1.000  0.000  0.000  0.000  0.000
    occupations:
  1.003 -0.000 -0.000 -0.000  0.000
 -0.000  1.003  0.000  0.000  0.000
 -0.000  0.000  1.003 -0.000  0.000
 -0.000  0.000 -0.000  1.004 -0.000
  0.000  0.000  0.000 -0.000  1.003
atomic mag. moment =    -4.738916
atom    8   Tr[ns(na)] (up, down, total) =   5.01481  0.27580  5.29062
   spin  1
    eigenvalues: 
  1.003  1.003  1.003  1.003  1.004
    eigenvectors:
  0.000  0.000  0.000  1.000  0.000
  0.000  0.500  0.500  0.000  0.000
  0.000  0.500  0.500  0.000  0.000
  0.000  0.000  0.000  0.000  1.000
  1.000  0.000  0.000  0.000  0.000
    occupations:
  1.003 -0.000 -0.000 -0.000  0.000
 -0.000  1.003  0.000 -0.000  0.000
 -0.000  0.000  1.003  0.000  0.000
 -0.000 -0.000  0.000  1.004 -0.000
  0.000  0.000  0.000 -0.000  1.003
   spin  2
    eigenvalues: 
  0.041  0.052  0.055  0.056  0.071
    eigenvectors:
  0.000  0.969  0.000  0.031  0.000
  0.000  0.015  0.500  0.482  0.003
  0.000  0.015  0.500  0.482  0.003
  1.000  0.000  0.000  0.000  0.000
  0.000  0.001  0.000  0.006  0.993
    occupations:
  0.053  0.000  0.000 -0.000 -0.000
  0.000  0.055  0.000  0.000  0.001
  0.000  0.000  0.055 -0.000  0.001
 -0.000  0.000 -0.000  0.041 -0.000
 -0.000  0.001  0.001 -0.000  0.071
atomic mag. moment =     4.739007
N of occupied +U levels =   42.320255
 --- exit write_ns ---

     total cpu time spent up to now is       95.8 secs

     total energy              =  -14679.21016165 Ry
     Harris-Foulkes estimate   =  -14669.84283107 Ry
     estimated scf accuracy    <      21.28595060 Ry

     total magnetization       =    -0.00 Bohr mag/cell
     absolute magnetization    =    43.52 Bohr mag/cell

     iteration #  2     ecut=    45.00 Ry     beta= 0.10
     Davidson diagonalization with overlap
     ethr =  7.19E-03,  avg # of iterations =  1.0

     total cpu time spent up to now is      133.1 secs

     total energy              =  -14692.14233142 Ry
     Harris-Foulkes estimate   =  -14679.31544105 Ry
     estimated scf accuracy    <      17.16814317 Ry

     total magnetization       =    -0.00 Bohr mag/cell
     absolute magnetization    =    43.09 Bohr mag/cell

     iteration #  3     ecut=    45.00 Ry     beta= 0.10
     Davidson diagonalization with overlap
     ethr =  5.80E-03,  avg # of iterations =  2.2

     total cpu time spent up to now is      178.6 secs

     total energy              =  -14693.80969140 Ry
     Harris-Foulkes estimate   =  -14693.74488715 Ry
     estimated scf accuracy    <       4.09159141 Ry

     total magnetization       =     0.00 Bohr mag/cell
     absolute magnetization    =    39.25 Bohr mag/cell

     iteration #  4     ecut=    45.00 Ry     beta= 0.10
     Davidson diagonalization with overlap
     ethr =  1.38E-03,  avg # of iterations =  5.6

     total cpu time spent up to now is      246.3 secs

     total energy              =  -14693.46426735 Ry
     Harris-Foulkes estimate   =  -14693.84981120 Ry
     estimated scf accuracy    <       4.38157185 Ry

     total magnetization       =     0.00 Bohr mag/cell
     absolute magnetization    =    39.04 Bohr mag/cell

     iteration #  5     ecut=    45.00 Ry     beta= 0.10
     Davidson diagonalization with overlap
     ethr =  1.38E-03,  avg # of iterations =  4.6

     total cpu time spent up to now is      312.8 secs

     total energy              =  -14693.85487828 Ry
     Harris-Foulkes estimate   =  -14693.83176421 Ry
     estimated scf accuracy    <       0.28216516 Ry

     total magnetization       =    -0.00 Bohr mag/cell
     absolute magnetization    =    38.20 Bohr mag/cell

     iteration #  6     ecut=    45.00 Ry     beta= 0.10
     Davidson diagonalization with overlap
     ethr =  9.53E-05,  avg # of iterations =  3.8

     total cpu time spent up to now is      393.0 secs

     total energy              =  -14693.98156003 Ry
     Harris-Foulkes estimate   =  -14693.94131593 Ry
     estimated scf accuracy    <       0.28303857 Ry

     total magnetization       =    -0.00 Bohr mag/cell
     absolute magnetization    =    37.07 Bohr mag/cell

     iteration #  7     ecut=    45.00 Ry     beta= 0.10
     Davidson diagonalization with overlap
     ethr =  9.53E-05,  avg # of iterations =  2.0

     total cpu time spent up to now is      436.5 secs

     total energy              =  -14693.86098291 Ry
     Harris-Foulkes estimate   =  -14694.01336335 Ry
     estimated scf accuracy    <       0.98025879 Ry

     total magnetization       =    -0.02 Bohr mag/cell
     absolute magnetization    =    36.87 Bohr mag/cell

     iteration #  8     ecut=    45.00 Ry     beta= 0.10
     Davidson diagonalization with overlap
     ethr =  9.53E-05,  avg # of iterations =  2.2

     total cpu time spent up to now is      489.3 secs

     total energy              =  -14693.93169138 Ry
     Harris-Foulkes estimate   =  -14693.93609071 Ry
     estimated scf accuracy    <       0.05334420 Ry

     total magnetization       =     0.00 Bohr mag/cell
     absolute magnetization    =    36.96 Bohr mag/cell

     iteration #  9     ecut=    45.00 Ry     beta= 0.10
     Davidson diagonalization with overlap
     ethr =  1.80E-05,  avg # of iterations =  2.2

     total cpu time spent up to now is      532.9 secs

     total energy              =  -14693.93396260 Ry
     Harris-Foulkes estimate   =  -14693.93319999 Ry
     estimated scf accuracy    <       0.02253173 Ry

     total magnetization       =     0.00 Bohr mag/cell
     absolute magnetization    =    36.99 Bohr mag/cell

     iteration # 10     ecut=    45.00 Ry     beta= 0.10
     Davidson diagonalization with overlap
     ethr =  7.61E-06,  avg # of iterations =  3.4

     total cpu time spent up to now is      587.8 secs

     total energy              =  -14693.93660678 Ry
     Harris-Foulkes estimate   =  -14693.93620899 Ry
     estimated scf accuracy    <       0.00259899 Ry

     total magnetization       =    -0.00 Bohr mag/cell
     absolute magnetization    =    36.89 Bohr mag/cell

     iteration # 11     ecut=    45.00 Ry     beta= 0.10
     Davidson diagonalization with overlap
     ethr =  8.78E-07,  avg # of iterations =  3.4

     total cpu time spent up to now is      638.8 secs

     total energy              =  -14693.93696560 Ry
     Harris-Foulkes estimate   =  -14693.93676464 Ry
     estimated scf accuracy    <       0.00113221 Ry

     total magnetization       =    -0.00 Bohr mag/cell
     absolute magnetization    =    36.87 Bohr mag/cell

     iteration # 12     ecut=    45.00 Ry     beta= 0.10
     Davidson diagonalization with overlap
     ethr =  3.83E-07,  avg # of iterations =  3.4

     total cpu time spent up to now is      709.6 secs

     total energy              =  -14693.93725098 Ry
     Harris-Foulkes estimate   =  -14693.93741792 Ry
     estimated scf accuracy    <       0.00072052 Ry

     total magnetization       =     0.00 Bohr mag/cell
     absolute magnetization    =    36.83 Bohr mag/cell

     iteration # 13     ecut=    45.00 Ry     beta= 0.10
     Davidson diagonalization with overlap
     ethr =  2.43E-07,  avg # of iterations =  2.0

     total cpu time spent up to now is      753.4 secs

     total energy              =  -14693.93739502 Ry
     Harris-Foulkes estimate   =  -14693.93736983 Ry
     estimated scf accuracy    <       0.00005228 Ry

     total magnetization       =     0.00 Bohr mag/cell
     absolute magnetization    =    36.81 Bohr mag/cell

     iteration # 14     ecut=    45.00 Ry     beta= 0.10
     Davidson diagonalization with overlap
     ethr =  1.77E-08,  avg # of iterations =  2.7

     total cpu time spent up to now is      804.3 secs

     total energy              =  -14693.93741177 Ry
     Harris-Foulkes estimate   =  -14693.93740143 Ry
     estimated scf accuracy    <       0.00003072 Ry

     total magnetization       =    -0.00 Bohr mag/cell
     absolute magnetization    =    36.81 Bohr mag/cell

     iteration # 15     ecut=    45.00 Ry     beta= 0.10
     Davidson diagonalization with overlap
     ethr =  1.04E-08,  avg # of iterations =  2.6

     total cpu time spent up to now is      851.0 secs

     total energy              =  -14693.93743061 Ry
     Harris-Foulkes estimate   =  -14693.93742098 Ry
     estimated scf accuracy    <       0.00000904 Ry

     total magnetization       =     0.00 Bohr mag/cell
     absolute magnetization    =    36.81 Bohr mag/cell

     iteration # 16     ecut=    45.00 Ry     beta= 0.10
     Davidson diagonalization with overlap
     ethr =  3.05E-09,  avg # of iterations =  2.3

     total cpu time spent up to now is      895.2 secs

     total energy              =  -14693.93743997 Ry
     Harris-Foulkes estimate   =  -14693.93743194 Ry
     estimated scf accuracy    <       0.00000680 Ry

     total magnetization       =     0.00 Bohr mag/cell
     absolute magnetization    =    36.81 Bohr mag/cell

     iteration # 17     ecut=    45.00 Ry     beta= 0.10
     Davidson diagonalization with overlap
     ethr =  2.30E-09,  avg # of iterations =  2.3

     total cpu time spent up to now is      944.1 secs

     total energy              =  -14693.93744473 Ry
     Harris-Foulkes estimate   =  -14693.93744037 Ry
     estimated scf accuracy    <       0.00000459 Ry

     total magnetization       =     0.00 Bohr mag/cell
     absolute magnetization    =    36.81 Bohr mag/cell

     iteration # 18     ecut=    45.00 Ry     beta= 0.10
     Davidson diagonalization with overlap
     ethr =  1.55E-09,  avg # of iterations =  2.4
 
     Magnetic moment per site:
     atom:    1    charge:   13.5415    magn:    4.2092    constr:    0.0000
     atom:    2    charge:   13.5416    magn:   -4.2092    constr:    0.0000
     atom:    3    charge:   13.5375    magn:    4.2424    constr:    0.0000
     atom:    4    charge:   13.5374    magn:   -4.2424    constr:    0.0000
     atom:    5    charge:   13.5416    magn:   -4.2092    constr:    0.0000
     atom:    6    charge:   13.5415    magn:    4.2092    constr:    0.0000
     atom:    7    charge:   13.5374    magn:   -4.2424    constr:    0.0000
     atom:    8    charge:   13.5375    magn:    4.2424    constr:    0.0000
     atom:    9    charge:    9.0908    magn:   -0.0254    constr:    0.0000
     atom:   10    charge:    9.0909    magn:    0.0254    constr:    0.0000
     atom:   11    charge:    9.0911    magn:   -0.0108    constr:    0.0000
     atom:   12    charge:    9.0911    magn:    0.0108    constr:    0.0000
     atom:   13    charge:    9.0908    magn:   -0.0254    constr:    0.0000
     atom:   14    charge:    9.0909    magn:    0.0254    constr:    0.0000
     atom:   15    charge:    9.0911    magn:   -0.0108    constr:    0.0000
     atom:   16    charge:    9.0911    magn:    0.0108    constr:    0.0000
     atom:   17    charge:    9.0909    magn:    0.0254    constr:    0.0000
     atom:   18    charge:    9.0908    magn:   -0.0254    constr:    0.0000
     atom:   19    charge:    9.0911    magn:    0.0108    constr:    0.0000
     atom:   20    charge:    9.0911    magn:   -0.0108    constr:    0.0000
     atom:   21    charge:    9.0908    magn:   -0.0254    constr:    0.0000
     atom:   22    charge:    9.0909    magn:    0.0254    constr:    0.0000
     atom:   23    charge:    9.0911    magn:   -0.0108    constr:    0.0000
     atom:   24    charge:    9.0911    magn:    0.0108    constr:    0.0000

     total cpu time spent up to now is      989.1 secs

     End of self-consistent calculation
 --- enter write_ns ---
 LDA+U parameters:
U(  1) =   3.1200   J(  1) =   0.7000   B(  1) =   0.0803
U(  2) =   3.1200   J(  2) =   0.7000   B(  2) =   0.0803
atom    1   Tr[ns(na)] (up, down, total) =   4.96493  0.75621  5.72114
   spin  1
    eigenvalues: 
  0.982  0.991  0.993  0.997  1.002
    eigenvectors:
  0.002  0.003  0.032  0.948  0.014
  0.004  0.419  0.548  0.029  0.000
  0.004  0.570  0.419  0.007  0.001
  0.000  0.000  0.001  0.013  0.985
  0.990  0.007  0.000  0.002  0.000
    occupations:
  0.997  0.001  0.000 -0.001  0.001
  0.001  0.992  0.001 -0.000  0.001
  0.000  0.001  0.992  0.000 -0.001
 -0.001 -0.000  0.000  1.001  0.000
  0.001  0.001 -0.001  0.000  0.982
   spin  2
    eigenvalues: 
  0.069  0.130  0.141  0.155  0.261
    eigenvectors:
  0.000  0.855  0.000  0.130  0.015
  0.001  0.110  0.147  0.743  0.000
  0.001  0.025  0.838  0.119  0.016
  0.998  0.000  0.000  0.001  0.000
  0.000  0.009  0.015  0.007  0.969
    occupations:
  0.135  0.008  0.005 -0.000 -0.015
  0.008  0.150  0.004  0.003  0.002
  0.005  0.004  0.144  0.002 -0.014
 -0.000  0.003  0.002  0.069  0.001
 -0.015  0.002 -0.014  0.001  0.258
atomic mag. moment =     4.208724
atom    2   Tr[ns(na)] (up, down, total) =   0.75623  4.96493  5.72117
   spin  1
    eigenvalues: 
  0.069  0.130  0.141  0.155  0.261
    eigenvectors:
  0.000  0.855  0.000  0.130  0.015
  0.001  0.110  0.147  0.743  0.000
  0.001  0.025  0.838  0.120  0.016
  0.998  0.000  0.000  0.001  0.000
  0.000  0.009  0.015  0.007  0.969
    occupations:
  0.135  0.008  0.005 -0.000 -0.015
  0.008  0.150  0.004  0.003  0.002
  0.005  0.004  0.144  0.002 -0.014
 -0.000  0.003  0.002  0.069  0.001
 -0.015  0.002 -0.014  0.001  0.258
   spin  2
    eigenvalues: 
  0.982  0.991  0.993  0.997  1.002
    eigenvectors:
  0.002  0.003  0.032  0.948  0.014
  0.004  0.419  0.548  0.029  0.000
  0.004  0.570  0.419  0.007  0.001
  0.000  0.000  0.001  0.013  0.985
  0.990  0.007  0.000  0.002  0.000
    occupations:
  0.997  0.001  0.000 -0.001  0.001
  0.001  0.992  0.001 -0.000  0.001
  0.000  0.001  0.992  0.000 -0.001
 -0.001 -0.000  0.000  1.001  0.000
  0.001  0.001 -0.001  0.000  0.982
atomic mag. moment =    -4.208698
atom    3   Tr[ns(na)] (up, down, total) =   4.96956  0.73181  5.70137
   spin  1
    eigenvalues: 
  0.985  0.992  0.993  0.997  1.002
    eigenvectors:
  0.000  0.000  0.045  0.955  0.000
  0.003  0.499  0.475  0.022  0.001
  0.003  0.499  0.475  0.022  0.001
  0.000  0.002  0.000  0.000  0.998
  0.993  0.000  0.005  0.001  0.000
    occupations:
  0.997 -0.001 -0.001 -0.000  0.000
 -0.001  0.993  0.000 -0.000 -0.000
 -0.001  0.000  0.993  0.000 -0.000
 -0.000 -0.000  0.000  1.002 -0.000
  0.000 -0.000 -0.000 -0.000  0.985
   spin  2
    eigenvalues: 
  0.070  0.125  0.142  0.153  0.242
    eigenvectors:
  0.000  0.979  0.000  0.020  0.000
  0.002  0.010  0.498  0.467  0.023
  0.002  0.010  0.498  0.467  0.023
  0.997  0.000  0.003  0.000  0.000
  0.000  0.000  0.000  0.046  0.953
    occupations:
  0.125 -0.003 -0.003 -0.000 -0.001
 -0.003  0.149  0.007 -0.003  0.013
 -0.003  0.007  0.149  0.003  0.013
 -0.000 -0.003  0.003  0.070 -0.000
 -0.001  0.013  0.013 -0.000  0.238
atomic mag. moment =     4.237749
atom    4   Tr[ns(na)] (up, down, total) =   0.73174  4.96954  5.70128
   spin  1
    eigenvalues: 
  0.070  0.125  0.142  0.153  0.242
    eigenvectors:
  0.000  0.979  0.000  0.020  0.000
  0.002  0.010  0.498  0.467  0.023
  0.002  0.010  0.498  0.467  0.023
  0.997  0.000  0.003  0.000  0.000
  0.000  0.000  0.000  0.046  0.953
    occupations:
  0.125 -0.003 -0.003 -0.000 -0.001
 -0.003  0.149  0.007 -0.003  0.013
 -0.003  0.007  0.149  0.003  0.013
 -0.000 -0.003  0.003  0.070 -0.000
 -0.001  0.013  0.013 -0.000  0.238
   spin  2
    eigenvalues: 
  0.985  0.992  0.993  0.997  1.002
    eigenvectors:
  0.000  0.000  0.045  0.955  0.000
  0.003  0.499  0.475  0.022  0.001
  0.003  0.499  0.475  0.022  0.001
  0.000  0.002  0.000  0.000  0.998
  0.993  0.000  0.005  0.001  0.000
    occupations:
  0.997 -0.001 -0.001 -0.000  0.000
 -0.001  0.993  0.000 -0.000 -0.000
 -0.001  0.000  0.993  0.000 -0.000
 -0.000 -0.000  0.000  1.002 -0.000
  0.000 -0.000 -0.000 -0.000  0.985
atomic mag. moment =    -4.237799
atom    5   Tr[ns(na)] (up, down, total) =   0.75623  4.96493  5.72117
   spin  1
    eigenvalues: 
  0.069  0.130  0.141  0.155  0.261
    eigenvectors:
  0.000  0.855  0.000  0.130  0.015
  0.001  0.025  0.838  0.120  0.016
  0.001  0.110  0.147  0.743  0.000
  0.998  0.000  0.000  0.001  0.000
  0.000  0.009  0.015  0.007  0.969
    occupations:
  0.135  0.005  0.008  0.000 -0.015
  0.005  0.144  0.004 -0.002 -0.014
  0.008  0.004  0.150 -0.003  0.002
  0.000 -0.002 -0.003  0.069 -0.001
 -0.015 -0.014  0.002 -0.001  0.258
   spin  2
    eigenvalues: 
  0.982  0.991  0.993  0.997  1.002
    eigenvectors:
  0.002  0.003  0.032  0.948  0.014
  0.004  0.570  0.419  0.007  0.001
  0.004  0.419  0.548  0.029  0.000
  0.000  0.000  0.001  0.013  0.985
  0.990  0.007  0.000  0.002  0.000
    occupations:
  0.997  0.000  0.001  0.001  0.001
  0.000  0.992  0.001 -0.000 -0.001
  0.001  0.001  0.992  0.000  0.001
  0.001 -0.000  0.000  1.001 -0.000
  0.001 -0.001  0.001 -0.000  0.982
atomic mag. moment =    -4.208698
atom    6   Tr[ns(na)] (up, down, total) =   4.96493  0.75621  5.72114
   spin  1
    eigenvalues: 
  0.982  0.991  0.993  0.997  1.002
    eigenvectors:
  0.002  0.003  0.032  0.948  0.014
  0.004  0.570  0.419  0.007  0.001
  0.004  0.419  0.548  0.029  0.000
  0.000  0.000  0.001  0.013  0.985
  0.990  0.007  0.000  0.002  0.000
    occupations:
  0.997  0.000  0.001  0.001  0.001
  0.000  0.992  0.001 -0.000 -0.001
  0.001  0.001  0.992  0.000  0.001
  0.001 -0.000  0.000  1.001 -0.000
  0.001 -0.001  0.001 -0.000  0.982
   spin  2
    eigenvalues: 
  0.069  0.130  0.141  0.155  0.261
    eigenvectors:
  0.000  0.855  0.000  0.130  0.015
  0.001  0.025  0.838  0.119  0.016
  0.001  0.110  0.147  0.743  0.000
  0.998  0.000  0.000  0.001  0.000
  0.000  0.009  0.015  0.007  0.969
    occupations:
  0.135  0.005  0.008  0.000 -0.015
  0.005  0.144  0.004 -0.002 -0.014
  0.008  0.004  0.150 -0.003  0.002
  0.000 -0.002 -0.003  0.069 -0.001
 -0.015 -0.014  0.002 -0.001  0.258
atomic mag. moment =     4.208724
atom    7   Tr[ns(na)] (up, down, total) =   0.73174  4.96954  5.70128
   spin  1
    eigenvalues: 
  0.070  0.125  0.142  0.153  0.242
    eigenvectors:
  0.000  0.979  0.000  0.020  0.000
  0.002  0.010  0.498  0.467  0.023
  0.002  0.010  0.498  0.467  0.023
  0.997  0.000  0.003  0.000  0.000
  0.000  0.000  0.000  0.046  0.953
    occupations:
  0.125 -0.003 -0.003 -0.000 -0.001
 -0.003  0.149  0.007 -0.003  0.013
 -0.003  0.007  0.149  0.003  0.013
 -0.000 -0.003  0.003  0.070 -0.000
 -0.001  0.013  0.013 -0.000  0.238
   spin  2
    eigenvalues: 
  0.985  0.992  0.993  0.997  1.002
    eigenvectors:
  0.000  0.000  0.045  0.955  0.000
  0.003  0.499  0.475  0.022  0.001
  0.003  0.499  0.475  0.022  0.001
  0.000  0.002  0.000  0.000  0.998
  0.993  0.000  0.005  0.001  0.000
    occupations:
  0.997 -0.001 -0.001 -0.000  0.000
 -0.001  0.993  0.000 -0.000 -0.000
 -0.001  0.000  0.993  0.000 -0.000
 -0.000 -0.000  0.000  1.002 -0.000
  0.000 -0.000 -0.000 -0.000  0.985
atomic mag. moment =    -4.237799
atom    8   Tr[ns(na)] (up, down, total) =   4.96956  0.73181  5.70137
   spin  1
    eigenvalues: 
  0.985  0.992  0.993  0.997  1.002
    eigenvectors:
  0.000  0.000  0.045  0.955  0.000
  0.003  0.499  0.475  0.022  0.001
  0.003  0.499  0.475  0.022  0.001
  0.000  0.002  0.000  0.000  0.998
  0.993  0.000  0.005  0.001  0.000
    occupations:
  0.997 -0.001 -0.001 -0.000  0.000
 -0.001  0.993  0.000 -0.000 -0.000
 -0.001  0.000  0.993  0.000 -0.000
 -0.000 -0.000  0.000  1.002 -0.000
  0.000 -0.000 -0.000 -0.000  0.985
   spin  2
    eigenvalues: 
  0.070  0.125  0.142  0.153  0.242
    eigenvectors:
  0.000  0.979  0.000  0.020  0.000
  0.002  0.010  0.498  0.467  0.023
  0.002  0.010  0.498  0.467  0.023
  0.997  0.000  0.003  0.000  0.000
  0.000  0.000  0.000  0.046  0.953
    occupations:
  0.125 -0.003 -0.003 -0.000 -0.001
 -0.003  0.149  0.007 -0.003  0.013
 -0.003  0.007  0.149  0.003  0.013
 -0.000 -0.003  0.003  0.070 -0.000
 -0.001  0.013  0.013 -0.000  0.238
atomic mag. moment =     4.237749
N of occupied +U levels =   45.689916
 --- exit write_ns ---

 ------ SPIN UP ------------


          k = 0.0000 0.0000 0.0000 ( 13629 PWs)   bands (ev):

   -66.4503 -66.4502 -66.4062 -66.4062 -61.8600 -61.8599 -61.8488 -61.8487
   -35.2192 -35.2192 -35.1895 -35.1891 -35.1816 -35.1813 -35.1645 -35.1636
   -35.1544 -35.1538 -35.1038 -35.1036 -30.6908 -30.6905 -30.6902 -30.6882
   -30.6855 -30.6835 -30.6801 -30.6801 -30.6727 -30.6726 -30.6666 -30.6659
     5.9671   7.6157   7.6185   8.1390   8.1418   8.4042   8.4939   8.5380
     8.7045   8.7072   9.1459   9.1753   9.4170   9.4280   9.4633   9.4656
     9.4687   9.5089   9.5638   9.5998   9.6098   9.6456   9.6457   9.6629
     9.6872   9.7001   9.7416   9.8561   9.8606   9.9362   9.9453   9.9512
     9.9748   9.9873  10.0738  10.0746  10.0926  10.1671  10.2146  10.2477
    10.2592  10.2613  10.2700  10.3137  10.3869  10.4340  10.4739  10.4973
    10.5112  10.5217  10.5933  10.6863  10.6878  10.7161  10.8016  10.8024
    10.8704  10.9476  11.0471  11.0489  11.0862  11.0997  11.1317  11.1375
    11.2095  11.2457  11.3284  11.3382  11.3900  11.5884  11.6484  11.7892
    11.7924  11.8184  11.8218  11.8234  11.8326  11.8879  11.9329  12.0782
    12.0951  12.1034  12.1937  12.2427  12.2444  12.2684  12.3310  12.3420
    12.3576  12.3898  12.4350  12.4439  12.5115  12.5220  12.5404  12.5515
    12.6403  12.6959  12.6974  12.7319  12.7366  12.8868  12.9188  12.9915
    13.0761  13.1453  13.2748  13.2755  13.2919  14.1426  14.9774  15.0009
    15.0876  15.1227  15.1418  15.8532  15.9321  16.4799  16.7134  16.7939
    16.8779  16.8866  17.0081  17.0838  17.1706  17.1888  17.3396  17.4387
    17.5012  17.6566  17.6761  17.6887  17.8243  17.8458  18.1646  18.1728
    18.6077  18.7610  19.1834  19.3177  19.3628  19.4286  19.4988  19.5573
    19.6933  19.6996

          k = 0.0000 0.0000-0.5441 ( 13704 PWs)   bands (ev):

   -66.4503 -66.4502 -66.4062 -66.4062 -61.8601 -61.8599 -61.8488 -61.8487
   -35.2192 -35.2192 -35.1895 -35.1891 -35.1816 -35.1813 -35.1645 -35.1636
   -35.1544 -35.1538 -35.1038 -35.1036 -30.6909 -30.6905 -30.6902 -30.6882
   -30.6855 -30.6835 -30.6800 -30.6800 -30.6728 -30.6727 -30.6666 -30.6659
     6.5567   7.6197   8.1386   8.1463   8.4568   8.4628   8.7495   8.7616
     8.8383   8.9193   8.9233   8.9320   9.0377   9.0872   9.1520   9.1554
     9.1777   9.1987   9.2958   9.4360   9.6297   9.6471   9.6503   9.6550
     9.6740   9.6750   9.7044   9.7566   9.7590   9.7680   9.8196   9.8508
     9.8755   9.9491   9.9744  10.0141  10.0279  10.0588  10.0924  10.1598
    10.2440  10.3409  10.3631  10.3741  10.4554  10.4605  10.5087  10.5438
    10.5707  10.5932  10.6030  10.6448  10.6523  10.7819  10.8964  10.9124
    10.9730  11.0020  11.0769  11.0859  11.1572  11.2744  11.2943  11.3386
    11.4866  11.5304  11.5836  11.6380  11.6553  11.7076  11.7560  11.8000
    11.8453  11.8552  11.8718  11.9028  11.9340  11.9366  11.9803  12.0149
    12.0263  12.0552  12.1151  12.1845  12.1951  12.2171  12.2313  12.2679
    12.2920  12.3578  12.3974  12.4210  12.4978  12.5651  12.5893  12.5995
    12.6719  12.7034  12.7357  12.8076  12.8230  12.8323  12.8433  13.0002
    13.0164  13.1291  13.3900  13.4614  13.8505  13.9396  13.9950  14.1007
    14.3050  14.6582  14.9791  15.4906  15.6909  15.7073  16.4471  16.7683
    16.8493  16.9358  17.0759  17.1149  17.2650  17.2859  17.3341  17.3540
    17.5080  17.5315  17.5443  17.7213  17.7458  17.7498  17.9246  17.9384
    18.1156  18.4118  18.5218  18.7507  19.2344  19.3149  19.3703  19.3979
    19.4396  19.6591

          k = 0.0000 0.0000 1.0883 ( 13706 PWs)   bands (ev):

   -66.4504 -66.4502 -66.4062 -66.4062 -61.8601 -61.8599 -61.8488 -61.8487
   -35.2192 -35.2192 -35.1895 -35.1891 -35.1817 -35.1813 -35.1645 -35.1636
   -35.1544 -35.1538 -35.1038 -35.1036 -30.6910 -30.6906 -30.6902 -30.6882
   -30.6854 -30.6835 -30.6800 -30.6800 -30.6729 -30.6727 -30.6666 -30.6659
     7.7892   8.1359   8.1391   8.3646   8.4301   8.4723   8.5797   8.7010
     8.7035   8.7105   8.7829   8.8640   9.0041   9.0167   9.1312   9.1772
     9.1790   9.2241   9.2904   9.4707   9.4761   9.5215   9.5820   9.6113
     9.6488   9.6529   9.7089   9.7464   9.7634   9.7689   9.8284   9.8618
     9.9220   9.9434   9.9499   9.9605  10.0170  10.0539  10.0634  10.0845
    10.1825  10.2322  10.2619  10.2648  10.2793  10.2797  10.3118  10.3486
    10.3710  10.3827  10.4342  10.4703  10.6004  10.6746  10.7991  10.8368
    10.8810  10.9236  11.0227  11.0808  11.0889  11.2073  11.2956  11.3665
    11.4102  11.4620  11.4807  11.5799  11.7589  11.7750  11.7956  11.7985
    11.8217  11.8258  11.8944  11.9107  11.9714  12.0348  12.1576  12.1987
    12.2522  12.2685  12.3001  12.3573  12.3625  12.4273  12.4284  12.4382
    12.4774  12.5013  12.5164  12.6271  12.6656  12.6820  12.6940  12.6963
    12.7281  12.7426  12.8403  12.9569  13.0622  13.1108  13.1298  13.1571
    13.2284  13.2727  13.2732  13.2782  13.3346  13.3809  13.4227  13.5255
    14.1479  15.0663  15.0888  15.1390  15.1800  15.2119  16.2523  16.7674
    16.8610  16.9238  17.0009  17.1079  17.1209  17.2418  17.3122  17.3824
    17.4573  17.4802  17.5063  17.5554  17.6058  17.8339  17.8608  17.9060
    18.0370  18.1618  18.2819  18.4973  18.5551  19.2190  19.3632  19.3998
    19.4118  19.4594

          k =-0.1768-0.1768-0.1360 ( 13673 PWs)   bands (ev):

   -66.4503 -66.4502 -66.4062 -66.4062 -61.8600 -61.8599 -61.8488 -61.8488
   -35.2192 -35.2192 -35.1895 -35.1892 -35.1816 -35.1814 -35.1643 -35.1637
   -35.1543 -35.1539 -35.1038 -35.1037 -30.6908 -30.6906 -30.6898 -30.6886
   -30.6851 -30.6838 -30.6801 -30.6801 -30.6727 -30.6726 -30.6665 -30.6660
     6.1291   7.3044   7.7555   7.7587   8.4348   8.4779   8.5754   8.6701
     8.6955   8.8276   9.1793   9.2426   9.2646   9.3225   9.3692   9.3864
     9.4019   9.4924   9.4964   9.5350   9.5558   9.5637   9.6290   9.6423
     9.6876   9.6918   9.7375   9.7576   9.8909   9.9076   9.9708  10.0087
    10.0175  10.0618  10.0982  10.0993  10.1184  10.1715  10.2150  10.2408
    10.2652  10.3055  10.4025  10.4075  10.4149  10.4732  10.4855  10.5310
    10.5764  10.5994  10.6081  10.6841  10.7389  10.7657  10.8039  10.8813
    10.9462  10.9870  11.0013  11.0018  11.0178  11.0823  11.1058  11.1623
    11.1907  11.2663  11.2852  11.3614  11.4420  11.6130  11.6134  11.6633
    11.6767  11.7361  11.7466  11.7801  11.7998  11.8793  11.8844  11.9450
    11.9901  12.0395  12.0543  12.1220  12.1650  12.1700  12.2131  12.2384
    12.2934  12.3146  12.3452  12.3742  12.5068  12.5156  12.5386  12.5876
    12.5969  12.7020  12.7174  12.7602  12.8465  12.8485  12.8657  12.9149
    12.9592  13.0839  13.3394  14.0343  14.2096  14.6975  14.8749  14.9831
    15.2257  15.2477  15.6257  15.6906  15.8675  16.3122  16.4582  16.6929
    16.7561  16.7637  17.0472  17.1644  17.1975  17.2986  17.3453  17.4203
    17.4727  17.5260  17.5793  17.7529  17.7874  17.9803  18.1069  18.1907
    18.3476  18.4639  18.9038  18.9137  19.0014  19.0069  19.1281  19.1518
    19.3298  20.0508

          k =-0.1768-0.1768-0.6802 ( 13666 PWs)   bands (ev):

   -66.4503 -66.4502 -66.4062 -66.4062 -61.8600 -61.8599 -61.8488 -61.8488
   -35.2192 -35.2192 -35.1895 -35.1892 -35.1816 -35.1814 -35.1643 -35.1637
   -35.1543 -35.1539 -35.1038 -35.1036 -30.6909 -30.6907 -30.6899 -30.6886
   -30.6851 -30.6837 -30.6800 -30.6800 -30.6728 -30.6727 -30.6665 -30.6660
     6.9771   7.0350   8.3362   8.3434   8.4274   8.4336   8.6378   8.7959
     8.8633   8.8697   8.9272   8.9778   9.0024   9.0553   9.1128   9.1684
     9.2220   9.4067   9.4253   9.4434   9.4844   9.5553   9.5724   9.6029
     9.6306   9.6744   9.6891   9.7568   9.7731   9.8072   9.8237   9.8445
     9.8480   9.9296   9.9460   9.9572   9.9987  10.0251  10.1096  10.1895
    10.3536  10.3616  10.4123  10.4260  10.4626  10.5137  10.5286  10.5536
    10.5795  10.6485  10.6728  10.6965  10.7204  10.8172  10.8298  10.9210
    10.9367  10.9674  11.0752  11.1443  11.1478  11.1784  11.1917  11.3006
    11.3045  11.4486  11.4798  11.4961  11.5721  11.6390  11.6567  11.6670
    11.7350  11.8048  11.8282  11.8451  11.8577  11.8672  11.9154  11.9727
    12.0194  12.0475  12.0925  12.1263  12.1723  12.2220  12.2399  12.3004
    12.3252  12.3457  12.3973  12.4209  12.4648  12.4944  12.5422  12.5936
    12.6195  12.6977  12.7483  12.7524  12.7835  12.8506  12.8878  13.0305
    13.0520  13.1447  13.6999  13.7278  14.0634  14.1090  14.4935  14.7832
    14.7848  14.8088  15.3694  15.4245  15.8169  16.1040  16.2555  16.2784
    16.4463  16.5135  16.9480  17.1228  17.2325  17.2344  17.3048  17.3301
    17.4679  17.5242  17.5963  17.6236  17.6666  17.7544  17.7986  18.0029
    18.0853  18.2108  18.3877  18.4393  18.6205  18.7587  19.1614  19.2683
    20.2314  20.5735

          k =-0.1768-0.1768 0.9522 ( 13713 PWs)   bands (ev):

   -66.4503 -66.4502 -66.4062 -66.4062 -61.8600 -61.8599 -61.8488 -61.8488
   -35.2192 -35.2192 -35.1895 -35.1892 -35.1816 -35.1814 -35.1644 -35.1637
   -35.1543 -35.1539 -35.1038 -35.1036 -30.6910 -30.6908 -30.6899 -30.6886
   -30.6850 -30.6837 -30.6800 -30.6800 -30.6729 -30.6727 -30.6665 -30.6660
     7.6715   7.7948   8.3914   8.3973   8.5130   8.5320   8.6562   8.6618
     8.7083   8.7326   8.7748   8.8554   8.8894   8.9072   9.0735   9.1353
     9.1615   9.2219   9.3077   9.3521   9.3689   9.4111   9.5093   9.5734
     9.5895   9.6194   9.6713   9.7351   9.7594   9.7878   9.7890   9.8601
     9.8773   9.9005   9.9109   9.9459  10.0019  10.0643  10.0842  10.0979
    10.2229  10.2239  10.2730  10.3383  10.3518  10.4280  10.4504  10.4846
    10.5541  10.6111  10.6338  10.6928  10.8048  10.8321  10.8575  10.9408
    10.9409  10.9660  11.0385  11.0796  11.1202  11.2083  11.3347  11.3537
    11.4904  11.5171  11.5855  11.6208  11.7248  11.8241  11.8278  11.8609
    11.8640  11.9322  11.9493  11.9527  12.0378  12.0433  12.1117  12.1386
    12.1836  12.1967  12.2599  12.2735  12.3167  12.3227  12.3802  12.4223
    12.4349  12.4654  12.4737  12.5338  12.6004  12.6013  12.6056  12.7082
    12.7673  12.7738  12.8665  12.8920  12.9488  12.9573  12.9979  13.0056
    13.0570  13.1646  13.1949  13.2193  13.3888  13.5780  13.7129  13.7335
    13.8285  14.0913  14.7846  14.8093  15.6125  15.7657  16.0495  16.1520
    16.4057  16.8378  16.9983  17.1492  17.2200  17.2433  17.3406  17.3966
    17.4604  17.4637  17.4884  17.5161  17.6199  17.7069  17.8716  17.8886
    17.9322  18.2028  18.3020  18.8098  19.0701  19.0908  19.2379  19.2473
    19.6518  19.7687

          k =-0.1768-0.1768 0.4081 ( 13683 PWs)   bands (ev):

   -66.4503 -66.4502 -66.4062 -66.4062 -61.8600 -61.8599 -61.8488 -61.8488
   -35.2192 -35.2192 -35.1895 -35.1892 -35.1816 -35.1814 -35.1643 -35.1637
   -35.1543 -35.1539 -35.1038 -35.1036 -30.6909 -30.6907 -30.6898 -30.6886
   -30.6851 -30.6837 -30.6800 -30.6800 -30.6728 -30.6727 -30.6665 -30.6660
     6.4239   8.0022   8.0131   8.1407   8.3311   8.5076   8.5335   8.7031
     8.7516   8.7663   8.9388   9.0196   9.0676   9.0904   9.0969   9.1899
     9.2200   9.2817   9.3297   9.3868   9.4742   9.5623   9.5973   9.6019
     9.6390   9.7184   9.7480   9.7569   9.7785   9.7990   9.8735   9.8745
     9.9229   9.9461   9.9917  10.0303  10.0517  10.0963  10.1716  10.1946
    10.2470  10.2851  10.2917  10.3418  10.4078  10.4607  10.4958  10.5765
    10.6090  10.6703  10.7306  10.8273  10.8493  10.8957  10.9063  10.9479
    10.9674  11.0258  11.1096  11.2074  11.3076  11.3202  11.3879  11.4484
    11.4598  11.4671  11.4958  11.5594  11.6327  11.7380  11.7476  11.8196
    11.8721  11.8863  11.9215  11.9544  11.9669  12.0112  12.0557  12.0777
    12.1321  12.1389  12.1764  12.1900  12.1915  12.2431  12.2433  12.2922
    12.3059  12.3189  12.3707  12.4074  12.4188  12.4807  12.5586  12.5849
    12.6002  12.6738  12.6939  12.7332  12.7967  12.8432  12.8957  12.9062
    12.9277  13.0898  13.2333  13.2628  13.3720  13.4008  13.8338  13.9207
    14.5632  14.7734  15.1591  15.4310  15.6195  15.8880  16.3035  16.6772
    16.7623  16.8865  16.9090  17.2170  17.2222  17.2925  17.3282  17.4399
    17.4443  17.5524  17.5899  17.6793  17.7068  17.8775  18.0484  18.0681
    18.0928  18.5141  18.5439  18.7704  18.9423  19.1354  19.1770  19.4701
    19.9704  20.1657

          k = 0.3536 0.3536 0.2721 ( 13708 PWs)   bands (ev):

   -66.4503 -66.4503 -66.4062 -66.4062 -61.8600 -61.8600 -61.8488 -61.8488
   -35.2192 -35.2192 -35.1893 -35.1893 -35.1815 -35.1815 -35.1640 -35.1640
   -35.1541 -35.1541 -35.1037 -35.1037 -30.6908 -30.6908 -30.6893 -30.6893
   -30.6844 -30.6844 -30.6801 -30.6801 -30.6727 -30.6727 -30.6663 -30.6663
     6.5958   6.5958   8.0960   8.0960   8.1247   8.1247   8.7827   8.7827
     8.9215   8.9215   8.9730   8.9730   9.3196   9.3196   9.3821   9.3821
     9.4202   9.4202   9.5226   9.5226   9.5322   9.5322   9.5884   9.5884
     9.6607   9.6607   9.7550   9.7550   9.8586   9.8586   9.8964   9.8964
    10.0689  10.0689  10.1304  10.1304  10.1723  10.1723  10.3279  10.3279
    10.3449  10.3449  10.3753  10.3753  10.4904  10.4904  10.5228  10.5228
    10.6431  10.6431  10.6551  10.6551  10.8127  10.8127  10.8537  10.8537
    10.9629  10.9629  11.0439  11.0439  11.0846  11.0846  11.2207  11.2207
    11.3055  11.3055  11.3273  11.3273  11.4384  11.4384  11.5234  11.5234
    11.5625  11.5625  11.6985  11.6985  11.7511  11.7511  11.8412  11.8412
    11.9160  11.9160  12.0065  12.0065  12.1246  12.1246  12.1766  12.1766
    12.2497  12.2497  12.3916  12.3916  12.4269  12.4269  12.5988  12.5988
    12.6254  12.6254  12.6525  12.6525  12.8266  12.8266  12.9606  12.9606
    13.0189  13.0189  14.0878  14.0878  14.9922  14.9922  15.1092  15.1092
    15.4945  15.4945  15.7966  15.7966  15.8953  15.8953  16.1936  16.1936
    16.6468  16.6468  17.0812  17.0812  17.2966  17.2966  17.4285  17.4285
    17.6256  17.6256  17.6750  17.6750  17.7801  17.7801  17.8390  17.8390
    18.2626  18.2626  18.4110  18.4110  18.4896  18.4896  19.0790  19.0790
    20.1350  20.1351

          k = 0.3536 0.3536-0.2721 ( 13700 PWs)   bands (ev):

   -66.4503 -66.4503 -66.4062 -66.4062 -61.8600 -61.8600 -61.8488 -61.8488
   -35.2192 -35.2192 -35.1893 -35.1893 -35.1815 -35.1815 -35.1640 -35.1640
   -35.1541 -35.1541 -35.1037 -35.1037 -30.6909 -30.6908 -30.6893 -30.6893
   -30.6843 -30.6843 -30.6800 -30.6800 -30.6728 -30.6727 -30.6663 -30.6662
     6.5965   7.6148   8.1070   8.1140   8.4487   8.6245   8.6253   8.7217
     8.7403   8.7791   8.9222   8.9245   8.9648   9.1107   9.1153   9.2688
     9.3010   9.3304   9.4252   9.4372   9.4760   9.4838   9.5361   9.5728
     9.5850   9.5959   9.6324   9.7531   9.7948   9.8221   9.8481   9.8553
     9.9115   9.9218   9.9756  10.0248  10.1350  10.1472  10.2152  10.2713
    10.3164  10.3320  10.3778  10.3889  10.4500  10.4735  10.5193  10.5861
    10.6254  10.7132  10.7273  10.7538  10.8379  10.8658  10.9325  10.9712
    10.9795  11.0101  11.0744  11.1314  11.1716  11.2375  11.2979  11.3596
    11.4035  11.4643  11.4743  11.4761  11.5504  11.6248  11.6923  11.6996
    11.7531  11.7635  11.8663  11.8920  11.8961  11.9335  11.9628  11.9967
    12.0239  12.0634  12.0978  12.1485  12.1566  12.2444  12.2669  12.2775
    12.2793  12.3168  12.3430  12.4196  12.4327  12.4748  12.5488  12.5888
    12.6327  12.6331  12.7387  12.7508  12.7757  12.8143  12.9221  12.9547
    13.0688  13.0689  13.2423  13.4059  13.7171  13.8826  14.2550  14.9708
    14.9881  15.1549  15.1792  15.3390  15.7622  15.7760  16.1033  16.3362
    16.4084  16.5084  17.0956  17.1976  17.1989  17.3091  17.3763  17.3844
    17.4631  17.4965  17.5633  17.6612  17.7210  17.8084  17.8787  18.0087
    18.0641  18.3014  18.3668  18.3997  18.6457  19.0431  19.0802  19.8853
    19.9412  20.0460

          k = 0.3536 0.3536 1.3603 ( 13692 PWs)   bands (ev):

   -66.4503 -66.4503 -66.4062 -66.4062 -61.8600 -61.8600 -61.8488 -61.8488
   -35.2192 -35.2192 -35.1893 -35.1893 -35.1815 -35.1815 -35.1640 -35.1640
   -35.1541 -35.1541 -35.1037 -35.1037 -30.6909 -30.6909 -30.6893 -30.6893
   -30.6843 -30.6843 -30.6800 -30.6800 -30.6728 -30.6728 -30.6662 -30.6662
     7.6153   7.6153   8.4382   8.4382   8.6000   8.6000   8.6371   8.6371
     8.7223   8.7223   8.7428   8.7428   8.9251   8.9251   9.0496   9.0496
     9.1636   9.1636   9.2641   9.2641   9.3386   9.3386   9.5135   9.5135
     9.5213   9.5213   9.7012   9.7012   9.7835   9.7835   9.8450   9.8450
     9.8519   9.8519   9.9693   9.9693   9.9944   9.9944  10.0285  10.0285
    10.2716  10.2716  10.3825  10.3825  10.4208  10.4208  10.5393  10.5393
    10.6191  10.6191  10.8727  10.8727  10.9071  10.9071  11.0199  11.0199
    11.0525  11.0525  11.1426  11.1426  11.4324  11.4324  11.4633  11.4633
    11.7139  11.7139  11.7305  11.7305  11.8266  11.8266  11.8674  11.8674
    11.9557  11.9557  11.9877  11.9877  12.0231  12.0231  12.0574  12.0574
    12.1173  12.1173  12.1315  12.1315  12.2593  12.2593  12.2785  12.2785
    12.3189  12.3189  12.3504  12.3504  12.4241  12.4241  12.6249  12.6249
    12.7319  12.7319  12.7638  12.7638  12.7876  12.7876  12.9419  12.9419
    13.1237  13.1237  13.1959  13.1959  13.4201  13.4201  13.8008  13.8008
    13.9465  13.9465  14.9907  14.9907  15.0079  15.0079  15.9336  15.9336
    16.6254  16.6254  17.0207  17.0207  17.2883  17.2883  17.4020  17.4020
    17.4564  17.4564  17.4861  17.4861  17.6688  17.6688  17.8559  17.8559
    18.0003  18.0003  18.6349  18.6349  19.1444  19.1444  19.9103  19.9103
    19.9703  19.9703

          k = 0.1768-0.1768 0.0000 ( 13644 PWs)   bands (ev):

   -66.4507 -66.4498 -66.4062 -66.4062 -61.8604 -61.8595 -61.8488 -61.8487
   -35.2192 -35.2192 -35.1895 -35.1891 -35.1816 -35.1813 -35.1644 -35.1636
   -35.1544 -35.1538 -35.1038 -35.1036 -30.6909 -30.6905 -30.6902 -30.6882
   -30.6855 -30.6835 -30.6801 -30.6800 -30.6727 -30.6726 -30.6666 -30.6659
     6.0908   7.0037   8.0698   8.1996   8.2072   8.4282   8.5331   8.5668
     8.6309   8.6392   9.0483   9.1108   9.2604   9.3831   9.4528   9.4796
     9.5075   9.5244   9.5890   9.5975   9.6013   9.6175   9.6341   9.6906
     9.7149   9.7757   9.8144   9.8229   9.8480   9.8624   9.8998   9.9000
     9.9793   9.9925  10.0713  10.0828  10.1257  10.1805  10.2233  10.2380
    10.2634  10.2854  10.3018  10.3221  10.3945  10.5079  10.5116  10.5247
    10.5264  10.6067  10.6262  10.6886  10.7247  10.7430  10.8164  10.8589
    10.8755  10.9734  11.0780  11.0816  11.0948  11.1348  11.1401  11.2013
    11.2418  11.3415  11.3813  11.3995  11.4045  11.5855  11.6358  11.7218
    11.7327  11.7412  11.8151  11.8444  11.8775  11.8845  11.9394  12.0574
    12.0712  12.1220  12.1256  12.1786  12.1903  12.2303  12.2651  12.2852
    12.3086  12.3092  12.3503  12.3818  12.4935  12.5412  12.6066  12.6071
    12.6438  12.6867  12.7360  12.7396  12.7751  12.8488  12.8504  12.8696
    12.8863  13.0872  13.1342  13.3013  13.8035  13.8616  14.9046  14.9289
    15.1700  15.4290  15.4627  15.9335  16.0205  16.4454  16.4595  16.6238
    16.8622  16.9465  16.9639  17.0112  17.1125  17.1799  17.3524  17.4166
    17.4527  17.6090  17.6486  17.6629  17.7958  18.0095  18.0789  18.2312
    18.3185  18.4212  18.6596  18.9031  19.0252  19.3166  19.6127  19.6682
    19.7967  20.0098

          k = 0.1768-0.1768-0.5441 ( 13695 PWs)   bands (ev):

   -66.4507 -66.4498 -66.4062 -66.4062 -61.8604 -61.8595 -61.8488 -61.8487
   -35.2192 -35.2192 -35.1895 -35.1891 -35.1816 -35.1813 -35.1644 -35.1636
   -35.1544 -35.1538 -35.1038 -35.1036 -30.6910 -30.6905 -30.6902 -30.6882
   -30.6855 -30.6835 -30.6801 -30.6800 -30.6728 -30.6727 -30.6666 -30.6659
     6.6718   7.5319   7.7267   8.3263   8.5086   8.5807   8.7426   8.8025
     8.8256   8.8461   8.9444   8.9760   9.0779   9.0962   9.1259   9.1583
     9.2267   9.2369   9.3145   9.3273   9.5040   9.5185   9.5515   9.5637
     9.5728   9.6535   9.6682   9.7248   9.7504   9.7758   9.7879   9.8611
     9.8866   9.9156   9.9629  10.0487  10.1472  10.1598  10.1935  10.2277
    10.2507  10.3415  10.4085  10.4761  10.4954  10.5479  10.5592  10.6199
    10.6620  10.6688  10.7334  10.7417  10.7627  10.8516  10.9278  10.9666
    11.0019  11.0347  11.0487  11.0895  11.1587  11.1986  11.3743  11.4070
    11.4236  11.4435  11.5016  11.5454  11.5925  11.6144  11.6403  11.7610
    11.7639  11.8007  11.8437  11.8842  11.9127  11.9412  11.9718  12.0002
    12.0383  12.1005  12.1153  12.1636  12.1767  12.2058  12.2389  12.2677
    12.3029  12.3236  12.3352  12.3881  12.4881  12.5037  12.5318  12.5688
    12.6303  12.6617  12.6723  12.7522  12.8071  12.8412  12.9192  13.0572
    13.1934  13.2327  13.2570  13.4610  13.5657  13.6987  14.0337  14.4355
    14.6162  14.9174  15.0872  15.5208  15.6799  15.9013  16.0850  16.4338
    16.5809  16.8508  17.0644  17.2044  17.2648  17.3158  17.3655  17.4094
    17.4312  17.5046  17.5667  17.6839  17.7340  17.7546  17.8178  18.0828
    18.2350  18.3152  18.6152  18.7313  19.0150  19.1212  19.2614  19.3162
    19.8002  20.0415

          k = 0.1768-0.1768 1.0883 ( 13696 PWs)   bands (ev):

   -66.4508 -66.4498 -66.4062 -66.4062 -61.8605 -61.8595 -61.8488 -61.8487
   -35.2192 -35.2192 -35.1895 -35.1891 -35.1817 -35.1813 -35.1645 -35.1636
   -35.1544 -35.1538 -35.1038 -35.1036 -30.6911 -30.6906 -30.6903 -30.6882
   -30.6854 -30.6835 -30.6801 -30.6799 -30.6729 -30.6727 -30.6666 -30.6659
     7.8695   8.1948   8.2011   8.4266   8.4520   8.5101   8.5216   8.5747
     8.6209   8.6700   8.7142   8.8060   8.8405   8.9577   9.1121   9.1144
     9.2072   9.3974   9.4742   9.4796   9.4925   9.4940   9.5370   9.6040
     9.6277   9.6387   9.6429   9.6987   9.7106   9.7993   9.8103   9.8351
     9.8890   9.9096   9.9582  10.0031  10.0508  10.0528  10.0997  10.1008
    10.1365  10.1838  10.2212  10.2303  10.2639  10.2911  10.3441  10.3713
    10.4202  10.5339  10.6035  10.6178  10.6732  10.6823  10.7171  10.7687
    10.8272  10.8739  11.0682  11.1746  11.2368  11.2799  11.3218  11.3552
    11.4800  11.5004  11.5544  11.7020  11.7267  11.7350  11.7650  11.8138
    11.8271  11.8411  11.8735  11.9366  11.9890  12.0274  12.0476  12.1757
    12.1941  12.2030  12.2414  12.2980  12.3105  12.3390  12.3557  12.3912
    12.4668  12.4673  12.5079  12.5310  12.5568  12.6017  12.6135  12.6890
    12.7508  12.7531  12.8059  12.8537  12.8875  12.9495  12.9541  13.0778
    13.1303  13.1326  13.1367  13.3119  13.7348  13.7451  13.9543  13.9758
    14.5637  14.9139  14.9603  15.2035  15.4367  15.5024  15.8741  16.3012
    16.6225  16.7336  16.8811  17.0994  17.1004  17.1960  17.2742  17.4198
    17.4381  17.4966  17.5273  17.5815  17.5991  17.7887  17.8177  17.8754
    17.9862  18.1083  18.2745  18.2915  18.4452  18.5431  18.8838  19.0712
    19.3055  19.5501

          k = 0.0000-0.3536-0.1360 ( 13676 PWs)   bands (ev):

   -66.4506 -66.4500 -66.4062 -66.4062 -61.8603 -61.8597 -61.8488 -61.8487
   -35.2192 -35.2192 -35.1894 -35.1892 -35.1816 -35.1814 -35.1643 -35.1637
   -35.1543 -35.1539 -35.1038 -35.1037 -30.6908 -30.6906 -30.6899 -30.6886
   -30.6851 -30.6838 -30.6801 -30.6800 -30.6727 -30.6726 -30.6665 -30.6660
     6.2512   7.1454   7.4149   8.0986   8.2001   8.5270   8.6530   8.7184
     8.8284   8.8529   9.1286   9.1747   9.2171   9.3010   9.3565   9.3616
     9.3923   9.4421   9.4679   9.5048   9.5279   9.5732   9.6261   9.6507
     9.6916   9.7482   9.7891   9.8006   9.8692   9.9173   9.9636   9.9750
    10.0258  10.0515  10.0558  10.0946  10.1208  10.1977  10.2184  10.2500
    10.2998  10.3448  10.3748  10.3895  10.4655  10.4965  10.5368  10.5923
    10.6005  10.6339  10.7062  10.7221  10.7586  10.7939  10.8578  10.8918
    10.9279  10.9386  10.9710  11.0781  11.0839  11.1112  11.1744  11.2248
    11.2531  11.2692  11.3301  11.3549  11.4116  11.5391  11.5876  11.6327
    11.7047  11.7116  11.7234  11.7573  11.7964  11.8305  11.8853  11.9150
    11.9743  12.0243  12.0428  12.0884  12.1133  12.1560  12.1750  12.2099
    12.2767  12.3057  12.3222  12.3516  12.3992  12.4657  12.5104  12.6025
    12.6198  12.7065  12.7303  12.7782  12.8203  12.8647  12.9410  12.9718
    13.0090  13.2887  13.3551  13.7649  13.9023  14.5088  14.8566  15.0460
    15.2595  15.4164  15.7814  15.8094  15.9914  16.0303  16.2559  16.5909
    16.6929  16.8445  17.0537  17.1058  17.2345  17.3084  17.3697  17.4367
    17.4643  17.5271  17.5767  17.7099  17.8346  17.9519  18.0407  18.1841
    18.2393  18.4845  18.5872  18.6485  18.9414  19.0794  19.3565  19.5915
    19.6927  20.1765

          k = 0.0000-0.3536-0.6802 ( 13702 PWs)   bands (ev):

   -66.4506 -66.4500 -66.4062 -66.4062 -61.8603 -61.8596 -61.8488 -61.8488
   -35.2192 -35.2192 -35.1895 -35.1892 -35.1816 -35.1814 -35.1643 -35.1637
   -35.1543 -35.1539 -35.1038 -35.1036 -30.6909 -30.6907 -30.6899 -30.6886
   -30.6851 -30.6837 -30.6801 -30.6800 -30.6728 -30.6727 -30.6665 -30.6660
     7.0815   7.1453   7.8723   7.9162   8.5845   8.6845   8.8351   8.8516
     8.8769   8.9317   8.9623   9.0086   9.0241   9.0778   9.1560   9.1791
     9.2054   9.2588   9.3582   9.3719   9.4441   9.4552   9.4684   9.5193
     9.5669   9.6149   9.6464   9.6783   9.7069   9.7860   9.8117   9.8739
     9.9129   9.9640  10.0343  10.0655  10.1410  10.1575  10.2324  10.2947
    10.3196  10.3461  10.3733  10.4276  10.4690  10.5302  10.5815  10.6257
    10.6502  10.7087  10.7330  10.7497  10.8001  10.8290  10.8821  10.9203
    10.9495  11.0139  11.0383  11.1223  11.1474  11.1972  11.2221  11.2836
    11.3109  11.3888  11.4529  11.4658  11.5131  11.5416  11.6067  11.6665
    11.6933  11.7207  11.7825  11.7995  11.8719  11.8893  11.9555  12.0033
    12.0325  12.0468  12.0851  12.1401  12.1726  12.1881  12.1971  12.2743
    12.3083  12.3363  12.3783  12.3810  12.4133  12.4880  12.5520  12.5832
    12.6169  12.6911  12.7472  12.7644  12.8058  12.8717  12.9559  13.0170
    13.1241  13.4421  13.6519  13.6803  13.9345  14.1514  14.2729  14.3327
    14.9741  15.1201  15.2644  15.5423  15.6054  15.8631  16.0752  16.2570
    16.3394  16.7916  17.0401  17.1448  17.2638  17.2988  17.3410  17.3889
    17.5111  17.5359  17.5610  17.6108  17.7035  17.7816  17.8674  18.0040
    18.0703  18.1668  18.3227  18.4929  18.6939  19.1391  19.4771  19.5812
    19.8508  20.1465

          k = 0.0000-0.3536 0.9522 ( 13693 PWs)   bands (ev):

   -66.4506 -66.4500 -66.4062 -66.4062 -61.8603 -61.8596 -61.8488 -61.8487
   -35.2192 -35.2192 -35.1895 -35.1892 -35.1816 -35.1814 -35.1643 -35.1638
   -35.1543 -35.1539 -35.1038 -35.1036 -30.6910 -30.6908 -30.6899 -30.6886
   -30.6850 -30.6837 -30.6800 -30.6799 -30.6729 -30.6727 -30.6665 -30.6660
     7.7495   7.8599   8.3479   8.3679   8.4599   8.4739   8.5392   8.5988
     8.7148   8.7439   8.8214   8.8396   8.9123   8.9848   9.0722   9.1452
     9.2205   9.2590   9.3291   9.3415   9.3633   9.4120   9.4867   9.5237
     9.5764   9.6072   9.6490   9.6795   9.6930   9.7228   9.7681   9.8121
     9.8451   9.8959   9.9330   9.9673   9.9958  10.0596  10.0929  10.1435
    10.2099  10.2181  10.2457  10.3293  10.4319  10.4638  10.5300  10.5624
    10.6029  10.6336  10.6757  10.7387  10.7792  10.8175  10.8539  10.9041
    10.9455  10.9902  11.0988  11.2332  11.2634  11.2945  11.3424  11.3647
    11.4404  11.5448  11.6110  11.6791  11.7314  11.7492  11.8158  11.8435
    11.8719  11.8932  11.9519  11.9853  12.0187  12.0231  12.0659  12.1277
    12.1337  12.1557  12.1888  12.2395  12.2775  12.3008  12.3243  12.3509
    12.3903  12.4146  12.4327  12.4471  12.5143  12.5612  12.6091  12.6552
    12.6912  12.7575  12.7719  12.8267  12.8871  12.9170  12.9697  13.0592
    13.0765  13.1380  13.1641  13.3352  13.5858  13.6892  13.7732  13.9130
    14.0491  14.2775  14.9193  15.1341  15.5504  15.6956  15.7655  16.1107
    16.5818  16.6827  16.8488  17.1348  17.2047  17.2385  17.3156  17.3769
    17.4296  17.4666  17.4982  17.5213  17.6163  17.7015  17.8195  17.8845
    17.9170  18.1229  18.3469  18.4241  18.5136  18.5984  18.6963  19.2664
    19.5884  20.0622

          k = 0.0000-0.3536 0.4081 ( 13687 PWs)   bands (ev):

   -66.4506 -66.4500 -66.4062 -66.4062 -61.8603 -61.8597 -61.8488 -61.8488
   -35.2192 -35.2192 -35.1895 -35.1892 -35.1816 -35.1814 -35.1643 -35.1637
   -35.1543 -35.1539 -35.1038 -35.1036 -30.6909 -30.6907 -30.6899 -30.6886
   -30.6851 -30.6837 -30.6801 -30.6800 -30.6728 -30.6727 -30.6665 -30.6660
     6.5413   7.4118   8.2290   8.3370   8.4473   8.4782   8.5718   8.6040
     8.7332   8.7863   8.9703   9.0436   9.1036   9.1401   9.1558   9.1871
     9.2191   9.2497   9.2901   9.3719   9.4675   9.4764   9.5673   9.5900
     9.6219   9.6498   9.6578   9.6771   9.7269   9.7702   9.8357   9.8807
     9.9092   9.9523   9.9902  10.0155  10.0477  10.1287  10.1555  10.1971
    10.2564  10.3212  10.4315  10.4409  10.5182  10.5396  10.6094  10.6634
    10.6795  10.7273  10.7625  10.8483  10.8588  10.9210  10.9549  10.9858
    11.0383  11.0449  11.1581  11.1738  11.2046  11.2851  11.3801  11.4111
    11.4410  11.4984  11.5346  11.5611  11.6428  11.6623  11.7324  11.7813
    11.8270  11.8696  11.9194  11.9490  11.9564  11.9993  12.0070  12.0201
    12.0841  12.1173  12.1365  12.1630  12.1880  12.2141  12.2561  12.2758
    12.3113  12.3371  12.3389  12.3793  12.4579  12.4867  12.5022  12.5661
    12.6188  12.6249  12.6905  12.7537  12.7621  12.7804  12.8269  12.8741
    12.9079  12.9385  13.0143  13.0849  13.1347  14.1041  14.1599  14.3473
    14.6948  14.8758  15.0246  15.3214  15.5793  15.9819  16.2498  16.4718
    16.5963  16.7062  16.9337  17.1697  17.1940  17.2545  17.3570  17.3944
    17.4440  17.5201  17.5573  17.7110  17.7643  17.8154  17.8714  18.0176
    18.1752  18.3539  18.4764  18.6950  18.9548  19.0857  19.1260  19.5055
    20.0690  20.2867

          k = 0.5303 0.1768 0.2721 ( 13658 PWs)   bands (ev):

   -66.4503 -66.4503 -66.4062 -66.4062 -61.8600 -61.8600 -61.8488 -61.8488
   -35.2192 -35.2192 -35.1893 -35.1893 -35.1815 -35.1815 -35.1640 -35.1640
   -35.1541 -35.1541 -35.1037 -35.1037 -30.6908 -30.6908 -30.6893 -30.6893
   -30.6844 -30.6844 -30.6801 -30.6801 -30.6727 -30.6727 -30.6663 -30.6663
     6.7108   6.7108   7.5595   7.5595   8.5013   8.5013   8.8282   8.8282
     8.9549   8.9549   9.0094   9.0094   9.2712   9.2712   9.3118   9.3118
     9.4114   9.4114   9.4602   9.4602   9.4871   9.4871   9.5995   9.5995
     9.6871   9.6871   9.7691   9.7691   9.8223   9.8223   9.9502   9.9502
    10.0169  10.0169  10.2043  10.2043  10.2312  10.2312  10.2966  10.2966
    10.3357  10.3357  10.4255  10.4255  10.4849  10.4849  10.5730  10.5730
    10.6478  10.6478  10.7729  10.7729  10.8415  10.8415  10.8853  10.8853
    10.9182  10.9182  11.0774  11.0774  11.1301  11.1301  11.1991  11.1991
    11.3149  11.3149  11.3373  11.3373  11.3777  11.3777  11.5224  11.5224
    11.5473  11.5473  11.6251  11.6251  11.7141  11.7141  11.8473  11.8473
    11.9279  11.9279  12.0027  12.0027  12.0720  12.0720  12.1553  12.1553
    12.2735  12.2735  12.3307  12.3307  12.4686  12.4686  12.5828  12.5828
    12.6427  12.6427  12.7649  12.7649  12.8772  12.8772  12.9743  12.9743
    13.0440  13.0440  14.0762  14.0762  14.6107  14.6107  15.0376  15.0376
    15.3403  15.3403  15.5473  15.5473  16.0186  16.0186  16.2942  16.2942
    16.7550  16.7550  17.1393  17.1393  17.3292  17.3292  17.4588  17.4588
    17.5836  17.5836  17.7165  17.7165  17.7998  17.7998  17.8809  17.8809
    18.2332  18.2332  18.4545  18.4545  18.5733  18.5733  19.8865  19.8865
    20.1886  20.1886

          k = 0.5303 0.1768-0.2721 ( 13683 PWs)   bands (ev):

   -66.4503 -66.4503 -66.4062 -66.4062 -61.8600 -61.8600 -61.8488 -61.8488
   -35.2192 -35.2192 -35.1893 -35.1893 -35.1815 -35.1815 -35.1640 -35.1640
   -35.1541 -35.1541 -35.1037 -35.1037 -30.6909 -30.6908 -30.6893 -30.6893
   -30.6843 -30.6843 -30.6800 -30.6800 -30.6728 -30.6727 -30.6663 -30.6662
     6.7123   7.5518   7.6944   8.2539   8.5125   8.5267   8.6612   8.7839
     8.8014   8.8825   8.9523   8.9631   9.0514   9.0881   9.1510   9.2405
     9.2665   9.3032   9.3508   9.3800   9.4124   9.4268   9.4851   9.5591
     9.5879   9.6260   9.6434   9.6979   9.7492   9.8244   9.8531   9.8571
     9.8933   9.9469  10.0052  10.0677  10.1424  10.1936  10.2435  10.2492
    10.2821  10.3290  10.3638  10.4134  10.4558  10.5327  10.5951  10.6087
    10.6789  10.7289  10.7853  10.8286  10.8690  10.8965  10.9639  10.9869
    11.0351  11.0675  11.1031  11.1394  11.1442  11.2456  11.2851  11.3496
    11.3712  11.4009  11.4422  11.4676  11.5742  11.6180  11.6396  11.6903
    11.7316  11.7756  11.8275  11.8478  11.8683  11.9429  11.9653  12.0220
    12.0394  12.0572  12.0704  12.1241  12.1615  12.2039  12.2497  12.2688
    12.2872  12.3077  12.3297  12.3781  12.4218  12.4621  12.5775  12.5945
    12.6248  12.6381  12.6771  12.7332  12.7885  12.8385  12.8941  12.9464
    13.0253  13.2705  13.3140  13.4172  13.6799  13.9640  14.1359  14.6671
[...]
    11.7298  11.7960  11.8289  11.8501  11.8862  11.9506  11.9744  11.9761
    12.0059  12.0772  12.1056  12.1125  12.1176  12.1759  12.2064  12.2485
    12.2512  12.2551  12.3386  12.3532  12.3607  12.3623  12.5061  12.6094
    12.6525  12.6593  12.6878  12.7626  12.7735  12.7884  12.8254  12.8520
    12.8642  12.8691  12.9923  13.1200  14.0905  14.4006  14.6957  15.1250
    15.4029  15.6005  15.7625  15.7960  16.0108  16.0662  16.1210  16.4514
    16.8338  16.8612  16.9928  17.0140  17.2003  17.2482  17.3237  17.3594
    17.4316  17.4494  17.6383  17.6808  17.8142  17.8171  18.2202  18.2297
    18.4036  18.4947  18.5531  18.6656  18.6903  19.2686  19.4005  19.9462
    20.0492  20.0804

          k =-0.3536 0.3536-0.5441 ( 13686 PWs)   bands (ev):

   -66.4504 -66.4491 -66.4062 -66.4062 -61.8611 -61.8598 -61.8487 -61.8487
   -35.2187 -35.2187 -35.1890 -35.1886 -35.1816 -35.1813 -35.1639 -35.1631
   -35.1544 -35.1538 -35.1039 -35.1036 -30.6914 -30.6909 -30.6906 -30.6886
   -30.6856 -30.6835 -30.6804 -30.6803 -30.6728 -30.6726 -30.6665 -30.6658
     6.9731   7.0484   7.9550   8.0540   8.5779   8.6825   8.7114   8.7578
     8.8024   8.8632   9.0108   9.0759   9.0974   9.1303   9.1607   9.2218
     9.2245   9.2506   9.2642   9.3210   9.3326   9.4080   9.4136   9.4419
     9.5454   9.5917   9.6474   9.6879   9.7166   9.7772   9.8219   9.8590
     9.9072   9.9288  10.0320  10.0554  10.1084  10.1714  10.2398  10.2956
    10.3272  10.3395  10.4486  10.4867  10.5316  10.5903  10.7137  10.7509
    10.7740  10.8296  10.8750  10.8993  10.9095  10.9660  10.9763  10.9920
    11.0399  11.0691  11.1164  11.1304  11.1987  11.2402  11.2772  11.2801
    11.3395  11.3665  11.3999  11.5095  11.5096  11.5929  11.6044  11.6051
    11.6455  11.7731  11.7838  11.8240  11.8581  11.8840  11.9374  11.9457
    11.9704  12.0602  12.0786  12.1051  12.1802  12.1852  12.2452  12.2476
    12.3200  12.3575  12.3778  12.4047  12.4111  12.4650  12.5534  12.5704
    12.6212  12.6316  12.6379  12.7155  12.7524  12.7875  12.8903  13.0090
    13.1937  13.2055  13.4410  13.5295  13.6925  13.8921  14.0383  14.4692
    14.5930  14.8091  15.2794  15.5998  15.7549  16.0096  16.0651  16.3111
    16.3486  16.5209  17.1935  17.2065  17.2851  17.3389  17.3855  17.3947
    17.4321  17.4526  17.6291  17.7100  17.7342  17.8050  17.8449  18.1354
    18.2547  18.2858  18.4205  18.5796  18.6222  18.9625  19.2871  19.3180
    20.2782  20.3828

          k =-0.3536 0.3536 1.0883 ( 13708 PWs)   bands (ev):

   -66.4504 -66.4491 -66.4062 -66.4062 -61.8611 -61.8598 -61.8487 -61.8487
   -35.2187 -35.2187 -35.1890 -35.1886 -35.1817 -35.1813 -35.1639 -35.1631
   -35.1544 -35.1538 -35.1039 -35.1036 -30.6915 -30.6910 -30.6907 -30.6886
   -30.6855 -30.6834 -30.6803 -30.6803 -30.6729 -30.6727 -30.6665 -30.6658
     8.0691   8.1563   8.3057   8.3319   8.3983   8.4735   8.4807   8.5618
     8.6167   8.7042   8.7432   8.7597   8.8472   8.9283   8.9566   8.9958
     9.1660   9.2480   9.4692   9.5049   9.5279   9.5499   9.5574   9.6404
     9.6557   9.6889   9.6940   9.7224   9.7253   9.7371   9.8131   9.8694
     9.9066   9.9355   9.9459   9.9993  10.0097  10.0421  10.0790  10.1316
    10.1390  10.1525  10.1625  10.1931  10.2626  10.2925  10.3683  10.4251
    10.4593  10.5515  10.5704  10.6374  10.6622  10.7488  10.7585  10.7879
    10.9559  11.0862  11.1327  11.1513  11.2789  11.2890  11.3686  11.3735
    11.5089  11.5453  11.6215  11.6224  11.7385  11.7509  11.7619  11.7849
    11.8602  11.8728  11.9057  11.9584  11.9736  12.0482  12.0838  12.1038
    12.1266  12.1472  12.1585  12.2176  12.2222  12.2599  12.2879  12.3210
    12.3686  12.4403  12.4740  12.5027  12.5377  12.5432  12.5600  12.6024
    12.6675  12.7689  12.7737  12.7823  12.8101  12.8485  12.9799  13.0123
    13.1240  13.1251  13.1265  13.3128  13.8879  14.0139  14.3501  14.5594
    14.7412  14.9378  15.2935  15.4059  15.5289  15.5394  15.5570  15.8910
    15.9619  16.1057  16.9557  17.0838  17.2212  17.3137  17.3235  17.3520
    17.4041  17.4951  17.5003  17.5724  17.6688  17.7182  17.7886  17.8319
    17.8326  17.9614  18.0343  18.2765  18.3023  18.4492  18.7382  19.3184
    19.6663  19.7527

          k =-0.5303 0.1768-0.1360 ( 13660 PWs)   bands (ev):

   -66.4502 -66.4493 -66.4062 -66.4062 -61.8609 -61.8600 -61.8487 -61.8487
   -35.2187 -35.2187 -35.1889 -35.1887 -35.1815 -35.1814 -35.1638 -35.1632
   -35.1543 -35.1539 -35.1038 -35.1037 -30.6912 -30.6910 -30.6903 -30.6890
   -30.6852 -30.6838 -30.6804 -30.6804 -30.6727 -30.6726 -30.6664 -30.6660
     6.5624   6.6544   7.6610   7.7314   8.3273   8.5624   8.7333   8.8163
     8.8517   8.8964   9.0257   9.0659   9.2048   9.2727   9.2975   9.3523
     9.4005   9.4238   9.4337   9.4866   9.4959   9.5831   9.6483   9.6822
     9.6834   9.7951   9.8329   9.8716   9.9068   9.9233   9.9581   9.9610
    10.0122  10.0255  10.0447  10.0590  10.1567  10.1720  10.1819  10.2250
    10.2591  10.3450  10.3809  10.3998  10.5269  10.5631  10.5937  10.6073
    10.6709  10.6802  10.7551  10.7624  10.7887  10.8211  10.8454  10.8733
    10.8886  10.9450  11.0423  11.1044  11.1594  11.1654  11.2673  11.2972
    11.3061  11.3109  11.4013  11.4254  11.4492  11.4768  11.5331  11.5630
    11.6145  11.6801  11.7006  11.7077  11.7674  11.8091  11.8806  11.8920
    11.9305  12.0080  12.0613  12.0747  12.0937  12.1212  12.1446  12.1846
    12.2492  12.2982  12.3262  12.3568  12.3678  12.4544  12.5413  12.5543
    12.6206  12.6690  12.6996  12.7956  12.8082  12.8728  12.9299  13.0040
    13.0604  13.1668  13.3595  13.6865  14.0468  14.1871  14.8426  15.0580
    15.3477  15.4149  15.5363  15.8904  16.1298  16.1746  16.2437  16.4573
    16.5739  16.9681  17.0622  17.1395  17.2294  17.2718  17.4074  17.4194
    17.4758  17.5400  17.5480  17.6665  17.8445  17.8890  17.9548  18.2119
    18.2636  18.2925  18.4620  18.4943  18.6966  18.9660  19.5269  19.8284
    20.4315  20.5875

          k =-0.5303 0.1768-0.6802 ( 13694 PWs)   bands (ev):

   -66.4502 -66.4493 -66.4062 -66.4062 -61.8609 -61.8600 -61.8487 -61.8487
   -35.2187 -35.2187 -35.1889 -35.1887 -35.1816 -35.1813 -35.1638 -35.1632
   -35.1543 -35.1539 -35.1038 -35.1037 -30.6913 -30.6911 -30.6903 -30.6889
   -30.6852 -30.6837 -30.6804 -30.6803 -30.6728 -30.6727 -30.6664 -30.6659
     7.3514   7.3920   7.4559   7.5131   8.6965   8.7825   8.8369   8.9030
     8.9607   8.9726   9.0078   9.0478   9.0653   9.0738   9.1064   9.1302
     9.1935   9.2491   9.2557   9.3101   9.3585   9.3686   9.4290   9.4757
     9.5521   9.5707   9.5730   9.5917   9.6766   9.7742   9.8372   9.8613
    10.0305  10.0519  10.0927  10.1254  10.2503  10.2618  10.2707  10.3064
    10.3490  10.3620  10.4133  10.4543  10.5241  10.5357  10.5696  10.5697
    10.6372  10.7407  10.8154  10.8209  10.9007  10.9078  10.9675  10.9859
    11.0146  11.0166  11.0913  11.1135  11.1429  11.1560  11.2164  11.2596
    11.2869  11.3429  11.3664  11.4115  11.4265  11.5174  11.6128  11.6216
    11.6526  11.6571  11.7615  11.7968  11.8438  11.8537  11.9891  12.0034
    12.0301  12.0312  12.0846  12.0914  12.1587  12.1978  12.2042  12.2495
    12.2928  12.3025  12.3545  12.3802  12.4252  12.5004  12.5594  12.5728
    12.6127  12.6152  12.7290  12.7367  12.8057  12.8420  12.9423  13.0734
    13.5152  13.5479  13.7969  13.7989  13.8741  14.0210  14.0429  14.2472
    14.7539  14.8528  15.1715  15.2233  15.7593  15.8107  16.1574  16.3370
    16.6429  16.6819  17.1890  17.2420  17.2967  17.3067  17.3754  17.4111
    17.4898  17.5407  17.5712  17.6030  17.7039  17.9341  18.0286  18.1002
    18.2266  18.2407  18.4501  18.5754  18.6400  18.7596  18.9631  19.0001
    19.7304  19.9646

          k =-0.5303 0.1768 0.9522 ( 13712 PWs)   bands (ev):

   -66.4502 -66.4493 -66.4062 -66.4062 -61.8609 -61.8599 -61.8487 -61.8487
   -35.2187 -35.2187 -35.1889 -35.1887 -35.1816 -35.1813 -35.1638 -35.1632
   -35.1543 -35.1539 -35.1038 -35.1037 -30.6914 -30.6912 -30.6903 -30.6890
   -30.6851 -30.6837 -30.6803 -30.6803 -30.6729 -30.6727 -30.6664 -30.6659
     7.9518   7.9583   8.0725   8.1263   8.5614   8.5738   8.5817   8.6267
     8.7101   8.7586   8.8124   8.8211   8.9029   8.9792   9.0049   9.0278
     9.1884   9.2343   9.3632   9.3661   9.4275   9.4525   9.4865   9.5115
     9.5427   9.5850   9.6609   9.6702   9.6877   9.6877   9.7408   9.7971
     9.8459   9.8826   9.9184   9.9467  10.0403  10.0843  10.1028  10.1471
    10.1713  10.1902  10.2374  10.2942  10.4142  10.4328  10.5629  10.6431
    10.6824  10.7160  10.7215  10.7422  10.7931  10.8524  10.8830  10.9254
    11.0612  11.0807  11.1287  11.1758  11.2915  11.3389  11.4178  11.4202
    11.5341  11.5732  11.6158  11.6574  11.6783  11.7535  11.7720  11.7916
    11.8807  11.9257  11.9634  11.9640  11.9716  12.0354  12.0500  12.1231
    12.1322  12.1550  12.1624  12.1872  12.1900  12.2301  12.2711  12.2821
    12.3128  12.3277  12.4070  12.4241  12.4632  12.4803  12.5785  12.5791
    12.6456  12.6550  12.7696  12.7933  12.9001  12.9377  12.9703  13.0523
    13.0928  13.1091  13.1457  13.2145  13.6734  13.7656  14.1042  14.1791
    14.4734  14.5782  14.7529  15.1718  15.3895  15.6845  15.8436  16.0850
    16.3086  16.4024  17.0591  17.1154  17.2373  17.2530  17.3563  17.3695
    17.4027  17.4731  17.5168  17.5255  17.6125  17.6203  17.7607  17.8225
    17.9096  18.0579  18.1805  18.2903  18.3840  18.4358  18.4744  18.5388
    19.6675  19.9764

          k =-0.5303 0.1768 0.4081 ( 13670 PWs)   bands (ev):

   -66.4502 -66.4493 -66.4062 -66.4062 -61.8609 -61.8600 -61.8487 -61.8487
   -35.2187 -35.2187 -35.1889 -35.1887 -35.1816 -35.1814 -35.1638 -35.1632
   -35.1543 -35.1539 -35.1038 -35.1037 -30.6913 -30.6911 -30.6903 -30.6890
   -30.6852 -30.6837 -30.6804 -30.6803 -30.6728 -30.6727 -30.6664 -30.6659
     6.8445   6.9271   8.3565   8.4027   8.4362   8.5368   8.5491   8.5684
     8.6680   8.7685   9.0287   9.0610   9.0993   9.1915   9.1977   9.2556
     9.2594   9.2877   9.3153   9.3401   9.3885   9.3917   9.4085   9.4831
     9.5754   9.6415   9.6630   9.7180   9.7333   9.7734   9.7799   9.8299
     9.8631   9.9177   9.9456  10.0361  10.0476  10.1280  10.1784  10.2632
    10.3188  10.3585  10.4338  10.4965  10.5554  10.6174  10.6322  10.6620
    10.8046  10.8476  10.8885  10.8888  10.9436  10.9827  11.0500  11.0821
    11.1048  11.1160  11.1622  11.1676  11.2221  11.2737  11.3818  11.4372
    11.4407  11.4677  11.4895  11.5108  11.5965  11.6368  11.6800  11.6964
    11.7854  11.7982  11.8192  11.8426  11.8721  11.9588  11.9860  11.9937
    12.0135  12.0244  12.1246  12.1707  12.1826  12.2111  12.2384  12.2788
    12.3153  12.3215  12.3318  12.3424  12.4327  12.4752  12.4776  12.5594
    12.5948  12.6430  12.6593  12.6849  12.7956  12.8112  12.8220  12.8269
    12.8632  12.8866  12.9803  12.9990  13.5343  13.6252  14.4856  14.9403
    15.0622  15.0962  15.2602  15.3561  15.5045  15.8070  15.9192  15.9593
    16.2326  16.6434  17.0014  17.1436  17.2121  17.3001  17.3750  17.3961
    17.4321  17.4871  17.5468  17.7360  17.7462  17.8152  17.8312  17.9261
    18.1226  18.2605  18.3156  18.3879  19.2426  19.4638  19.6630  19.6788
    19.7562  19.8819

          k = 0.0000 0.7071 0.2721 ( 13680 PWs)   bands (ev):

   -66.4498 -66.4498 -66.4062 -66.4062 -61.8604 -61.8604 -61.8487 -61.8487
   -35.2187 -35.2187 -35.1888 -35.1888 -35.1814 -35.1814 -35.1635 -35.1635
   -35.1541 -35.1541 -35.1038 -35.1038 -30.6912 -30.6912 -30.6897 -30.6897
   -30.6844 -30.6844 -30.6804 -30.6804 -30.6727 -30.6727 -30.6662 -30.6662
     6.9863   6.9863   7.1165   7.1165   8.6100   8.6100   8.8833   8.8833
     9.0267   9.0267   9.0445   9.0445   9.1991   9.1991   9.2614   9.2614
     9.3484   9.3484   9.3902   9.3902   9.4671   9.4671   9.6191   9.6191
     9.6841   9.6841   9.7791   9.7791   9.9140   9.9140  10.0246  10.0246
    10.0718  10.0718  10.1120  10.1120  10.1443  10.1443  10.2076  10.2076
    10.3570  10.3570  10.4710  10.4710  10.5788  10.5788  10.6661  10.6661
    10.7282  10.7282  10.7822  10.7822  10.8478  10.8478  10.8708  10.8708
    11.0470  11.0470  11.1025  11.1025  11.1584  11.1584  11.2035  11.2035
    11.2356  11.2356  11.3665  11.3665  11.3854  11.3854  11.4522  11.4522
    11.4694  11.4694  11.5661  11.5661  11.7410  11.7410  11.7642  11.7642
    11.9303  11.9303  12.0546  12.0546  12.1012  12.1012  12.1292  12.1292
    12.2664  12.2664  12.3253  12.3253  12.4254  12.4254  12.6141  12.6141
    12.6853  12.6853  12.7076  12.7076  12.8453  12.8453  13.0092  13.0092
    13.4956  13.4956  13.7284  13.7284  14.2646  14.2646  14.9617  14.9617
    15.3117  15.3117  15.3779  15.3779  16.0929  16.0929  16.3609  16.3609
    16.7804  16.7804  17.1586  17.1586  17.3951  17.3951  17.4863  17.4863
    17.6078  17.6078  17.6558  17.6558  17.8153  17.8153  18.0994  18.0994
    18.1803  18.1803  18.5454  18.5454  18.9127  18.9127  19.2218  19.2218
    20.5187  20.5187

          k = 0.0000 0.7071-0.2721 ( 13688 PWs)   bands (ev):

   -66.4498 -66.4497 -66.4062 -66.4062 -61.8605 -61.8604 -61.8487 -61.8487
   -35.2187 -35.2187 -35.1888 -35.1888 -35.1815 -35.1814 -35.1635 -35.1635
   -35.1541 -35.1541 -35.1038 -35.1037 -30.6913 -30.6912 -30.6897 -30.6897
   -30.6844 -30.6844 -30.6804 -30.6803 -30.6728 -30.6727 -30.6662 -30.6661
     7.0085   7.0902   7.8818   7.9448   8.6351   8.6584   8.6891   8.7842
     8.8131   8.8267   9.0275   9.0305   9.0982   9.1197   9.1250   9.2038
     9.2505   9.2544   9.2832   9.3037   9.3634   9.4172   9.4205   9.5748
     9.6213   9.6376   9.6596   9.6617   9.7263   9.7352   9.8811   9.9142
     9.9925  10.0283  10.0495  10.0702  10.0910  10.0960  10.1721  10.1906
    10.2435  10.2456  10.4278  10.5311  10.5341  10.6036  10.6123  10.6691
    10.7216  10.7246  10.8418  10.8647  10.9115  10.9655  11.0400  11.0653
    11.0870  11.1096  11.1106  11.1309  11.1681  11.2300  11.2407  11.3124
    11.3719  11.4162  11.4289  11.4676  11.5169  11.5623  11.5813  11.6548
    11.6619  11.7221  11.7895  11.8582  11.9030  11.9680  12.0027  12.0287
    12.0340  12.0504  12.0733  12.0887  12.1618  12.2129  12.2391  12.2493
    12.2603  12.2871  12.3329  12.3364  12.3627  12.4677  12.5209  12.5647
    12.6191  12.6335  12.6891  12.7055  12.7955  12.8357  12.9165  12.9517
    13.1634  13.3288  13.4795  13.5338  13.6045  13.7086  14.2559  14.5675
    14.6823  14.9744  15.3605  15.4939  15.8185  15.9459  16.1956  16.3121
    16.3608  16.6756  16.9317  16.9487  17.2935  17.3078  17.4120  17.4294
    17.4704  17.5012  17.5298  17.6562  17.7293  17.8713  17.8791  17.9907
    18.1002  18.1574  18.2608  18.3567  18.3683  18.5468  19.0282  19.1197
    20.5490  20.6961

          k = 0.0000 0.7071 1.3603 ( 13696 PWs)   bands (ev):

   -66.4498 -66.4498 -66.4062 -66.4062 -61.8604 -61.8604 -61.8487 -61.8487
   -35.2187 -35.2187 -35.1888 -35.1888 -35.1815 -35.1815 -35.1635 -35.1635
   -35.1541 -35.1541 -35.1037 -35.1037 -30.6913 -30.6913 -30.6897 -30.6897
   -30.6844 -30.6844 -30.6803 -30.6803 -30.6728 -30.6728 -30.6661 -30.6661
     7.8384   7.8384   7.9965   7.9965   8.6180   8.6180   8.6272   8.6272
     8.8317   8.8317   8.8448   8.8448   9.0566   9.0566   9.0634   9.0634
     9.1185   9.1185   9.2617   9.2617   9.2839   9.2839   9.4929   9.4929
     9.5070   9.5070   9.6371   9.6371   9.6537   9.6537   9.7059   9.7059
     9.8323   9.8323   9.9469   9.9469  10.0500  10.0500  10.1639  10.1639
    10.2136  10.2136  10.2904  10.2904  10.4799  10.4799  10.6538  10.6538
    10.8525  10.8525  10.9121  10.9121  11.0049  11.0049  11.0841  11.0841
    11.2103  11.2103  11.2259  11.2259  11.3578  11.3578  11.4794  11.4794
    11.5344  11.5344  11.6179  11.6179  11.7350  11.7350  11.9251  11.9251
    11.9500  11.9500  12.0031  12.0031  12.0065  12.0065  12.0418  12.0418
    12.0818  12.0818  12.1009  12.1009  12.2235  12.2235  12.2615  12.2615
    12.3002  12.3002  12.3631  12.3631  12.4186  12.4186  12.5393  12.5393
    12.6225  12.6225  12.6670  12.6670  12.7216  12.7216  12.8692  12.8692
    13.1380  13.1380  13.3824  13.3824  13.4078  13.4078  13.8139  13.8139
    14.2780  14.2780  14.8785  14.8785  15.6214  15.6214  16.3128  16.3128
    16.4502  16.4502  16.7220  16.7220  17.2710  17.2710  17.3056  17.3056
    17.4134  17.4134  17.4907  17.4907  17.5823  17.5823  17.7058  17.7058
    18.0216  18.0216  18.2326  18.2326  18.3391  18.3391  18.5325  18.5325
    20.5585  20.5585

     the Fermi energy is    15.5896 ev

!    total energy              =  -14693.93746786 Ry
     Harris-Foulkes estimate   =  -14693.93744764 Ry
     estimated scf accuracy    <       0.00000047 Ry

     total all-electron energy =   -626921.533190 Ry

     The total energy is the sum of the following terms:

     one-electron contribution =    -698.41703475 Ry
     hartree contribution      =     651.55487775 Ry
     xc contribution           =    -738.09728312 Ry
     ewald contribution        =   -2207.56121140 Ry
     Hubbard energy            =       0.45772655 Ry
     one-center paw contrib.   =  -11701.87454288 Ry

     total magnetization       =     0.00 Bohr mag/cell
     absolute magnetization    =    36.80 Bohr mag/cell

     convergence has been achieved in  18 iterations

     Writing output data file mnau2.save/
 
     init_run     :     21.05s CPU     21.88s WALL (       1 calls)
     electrons    :    938.73s CPU    964.62s WALL (       1 calls)

     Called by init_run:
     wfcinit      :     18.71s CPU     19.40s WALL (       1 calls)
     potinit      :      1.20s CPU      1.24s WALL (       1 calls)
     hinit0       :      0.71s CPU      0.73s WALL (       1 calls)

     Called by electrons:
     c_bands      :    823.33s CPU    845.03s WALL (      18 calls)
     sum_band     :     95.06s CPU     98.21s WALL (      18 calls)
     v_of_rho     :      1.63s CPU      1.65s WALL (      19 calls)
     newd         :      6.14s CPU      6.87s WALL (      19 calls)
     PAW_pot      :     13.24s CPU     13.31s WALL (      19 calls)
     mix_rho      :      0.25s CPU      0.27s WALL (      18 calls)

     Called by c_bands:
     init_us_2    :      5.45s CPU      5.48s WALL (    2280 calls)
     cegterg      :    786.13s CPU    807.21s WALL (    1080 calls)

     Called by sum_band:
     sum_band:bec :      0.82s CPU      0.84s WALL (    1080 calls)
     addusdens    :     10.77s CPU     11.71s WALL (      18 calls)

     Called by *egterg:
     h_psi        :    326.98s CPU    337.34s WALL (    4295 calls)
     s_psi        :     45.34s CPU     45.59s WALL (    4355 calls)
     g_psi        :      1.76s CPU      1.77s WALL (    3155 calls)
     cdiaghg      :    306.70s CPU    312.94s WALL (    4235 calls)

     Called by h_psi:
     h_psi:pot    :    308.75s CPU    317.23s WALL (    4295 calls)
     h_psi:calbec :     46.23s CPU     48.34s WALL (    4295 calls)
     vloc_psi     :    218.75s CPU    224.57s WALL (    4295 calls)
     add_vuspsi   :     43.73s CPU     44.29s WALL (    4295 calls)
     vhpsi        :     16.94s CPU     17.04s WALL (    4295 calls)

     General routines
     calbec       :     80.30s CPU     83.21s WALL (   10810 calls)
     fft          :      1.00s CPU      1.03s WALL (     471 calls)
     ffts         :      0.04s CPU      0.04s WALL (      74 calls)
     fftw         :    243.70s CPU    249.98s WALL ( 1080906 calls)
     interpolate  :      0.09s CPU      0.10s WALL (      38 calls)
     davcio       :      0.00s CPU      0.47s WALL (      60 calls)
 
     Parallel routines
     fft_scatt_xy :     29.43s CPU     30.14s WALL ( 1081451 calls)
     fft_scatt_yz :     80.74s CPU     83.03s WALL ( 1081451 calls)

     Hubbard U routines
     new_ns       :      4.18s CPU      4.43s WALL (      18 calls)
     vhpsi        :     16.94s CPU     17.04s WALL (    4295 calls)
 
     PWSCF        : 16m 4.86s CPU    17m24.66s WALL

 
   This run was terminated on:  13:20:46  26Mar2019            

=------------------------------------------------------------------------------=
   JOB DONE.
=------------------------------------------------------------------------------=
