
     Program PWSCF v.6.3MaX starts on 26Mar2019 at 12: 1:49 

     This program is part of the open-source Quantum ESPRESSO suite
     for quantum simulation of materials; please cite
         "P. Giannozzi et al., J. Phys.:Condens. Matter 21 395502 (2009);
         "P. Giannozzi et al., J. Phys.:Condens. Matter 29 465901 (2017);
          URL http://www.quantum-espresso.org", 
     in publications or presentations arising from this work. More details at
     http://www.quantum-espresso.org/quote

     Parallel version (MPI), running on    16 processors

     MPI processes distributed on     1 nodes
     R & G space division:  proc/nbgrp/npool/nimage =      16
     Waiting for input...
     Reading input from standard input

     Current dimensions of program PWSCF are:
     Max number of different atomic species (ntypx) = 10
     Max number of k-points (npk) =  40000
     Max angular momentum in pseudopotentials (lmaxx) =  3
     Message from routine read_upf::
     Pseudo file ./pseudo/Mn.pbe-spn-kjpaw_psl.0.3.1.UPF has been successfully fixed on the fly.
To avoid this message in the future you can permanently fix 
 your pseudo files following instructions given in: 
https://gitlab.com/QEF/q-e/blob/master/upftools/how_to_fix_upf.md
               file Mn.pbe-spn-kjpaw_psl.0.3.1.UPF: wavefunction(s)  3P 3D renormalized
     Message from routine read_upf::
     Pseudo file ./pseudo/Mn.pbe-spn-kjpaw_psl.0.3.1.UPF has been successfully fixed on the fly.
To avoid this message in the future you can permanently fix 
 your pseudo files following instructions given in: 
https://gitlab.com/QEF/q-e/blob/master/upftools/how_to_fix_upf.md
               file Mn.pbe-spn-kjpaw_psl.0.3.1.UPF: wavefunction(s)  3P 3D renormalized
     Message from routine read_upf::
     Pseudo file ./pseudo/Au.pbe-dn-kjpaw_psl.0.1.UPF has been successfully fixed on the fly.
To avoid this message in the future you can permanently fix 
 your pseudo files following instructions given in: 
https://gitlab.com/QEF/q-e/blob/master/upftools/how_to_fix_upf.md
               file Au.pbe-dn-kjpaw_psl.0.1.UPF: wavefunction(s)  6S 6P 5D renormalized

     Subspace diagonalization in iterative solution of the eigenvalue problem:
     one sub-group per band group will be used
     scalapack distributed-memory algorithm (size of sub-group:  2*  2 procs)

     Found symmetry operation: I + (  0.5000  0.0000  0.0000)
     This is a supercell, fractional translations are disabled
 
     Parallelization info
     --------------------
     sticks:   dense  smooth     PW     G-vecs:    dense   smooth      PW
     Min         646     290     84                22663     6843    1075
     Max         647     291     85                22664     6844    1077
     Sum       10349    4645   1353               362619   109493   17211
 


     bravais-lattice index     =            0
     lattice parameter (alat)  =      18.0125  a.u.
     unit-cell volume          =    2685.0513 (a.u.)^3
     number of atoms/cell      =           24
     number of atomic types    =            3
     number of electrons       =       296.00
     number of Kohn-Sham states=          178
     kinetic-energy cutoff     =      45.0000  Ry
     charge density cutoff     =     400.0000  Ry
     convergence threshold     =      1.0E-06
     mixing beta               =       0.1000
     number of iterations used =            8  plain     mixing
     Exchange-correlation      = SLA PW PBX PBC ( 1  4  3  4 0 0)

     celldm(1)=  18.012490  celldm(2)=   0.000000  celldm(3)=   0.000000
     celldm(4)=   0.000000  celldm(5)=   0.000000  celldm(6)=   0.000000

     crystal axes: (cart. coord. in units of alat)
               a(1) = (   0.707107  -0.707107   0.000000 )  
               a(2) = (  -0.707107  -0.707107   0.000000 )  
               a(3) = (   0.176777   0.176777  -0.459443 )  

     reciprocal axes: (cart. coord. in units 2 pi/alat)
               b(1) = (  0.707107 -0.707107  0.000000 )  
               b(2) = ( -0.707107 -0.707107 -0.544138 )  
               b(3) = (  0.000000  0.000000 -2.176550 )  


     PseudoPot. # 1 for Mn read from file:
     ./pseudo/Mn.pbe-spn-kjpaw_psl.0.3.1.UPF
     MD5 check sum: 7eef95dd2aae66803482eea66ebeebf1
     Pseudo is Projector augmented-wave + core cor, Zval = 15.0
     Generated using "atomic" code by A. Dal Corso v.5.0.99 svn rev. 10869
     Shape of augmentation charge: PSQ
     Using radial grid of 1187 points,  6 beta functions with: 
                l(1) =   0
                l(2) =   0
                l(3) =   1
                l(4) =   1
                l(5) =   2
                l(6) =   2
     Q(r) pseudized with 0 coefficients 


     PseudoPot. # 2 for Mn read from file:
     ./pseudo/Mn.pbe-spn-kjpaw_psl.0.3.1.UPF
     MD5 check sum: 7eef95dd2aae66803482eea66ebeebf1
     Pseudo is Projector augmented-wave + core cor, Zval = 15.0
     Generated using "atomic" code by A. Dal Corso v.5.0.99 svn rev. 10869
     Shape of augmentation charge: PSQ
     Using radial grid of 1187 points,  6 beta functions with: 
                l(1) =   0
                l(2) =   0
                l(3) =   1
                l(4) =   1
                l(5) =   2
                l(6) =   2
     Q(r) pseudized with 0 coefficients 


     PseudoPot. # 3 for Au read from file:
     ./pseudo/Au.pbe-dn-kjpaw_psl.0.1.UPF
     MD5 check sum: 5c9b92683623e7ae2ab3f8e525febab6
     Pseudo is Projector augmented-wave + core cor, Zval = 11.0
     Generated using "atomic" code by A. Dal Corso v.5.0.2 svn rev. 9415
     Shape of augmentation charge: PSQ
     Using radial grid of 1279 points,  6 beta functions with: 
                l(1) =   0
                l(2) =   0
                l(3) =   1
                l(4) =   1
                l(5) =   2
                l(6) =   2
     Q(r) pseudized with 0 coefficients 


     atomic species   valence    mass     pseudopotential
        Mn1           15.00    54.93800     Mn( 1.00)
        Mn2           15.00    54.93800     Mn( 1.00)
        Au            11.00   196.96600     Au( 1.00)

     Starting magnetic structure 
     atomic species   magnetization
        Mn1          1.000
        Mn2         -1.000
        Au           0.000


     Full LDA+U calculation (l_max = 2) with parameters (eV):
     U(  1) =   3.1200   J(  1) =   0.7000   B(  1) =   0.0803
     U(  2) =   3.1200   J(  2) =   0.7000   B(  2) =   0.0803



      4 Sym. Ops., with inversion, found



   Cartesian axes

     site n.     atom                  positions (alat units)
         1           Mn1 tau(   1) = (   0.3535534  -0.3535534   0.0000000  )
         2           Mn1 tau(   2) = (   0.0000000   0.0000000   0.0000000  )
         3           Mn2 tau(   3) = (   0.0000000  -0.3535534   0.0000000  )
         4           Mn2 tau(   4) = (   0.3535534  -0.7071068   0.0000000  )
         5           Mn1 tau(   5) = (  -0.3535534  -0.3535534   0.0000000  )
         6           Mn1 tau(   6) = (   0.0000000  -0.7071068   0.0000000  )
         7           Mn2 tau(   7) = (  -0.3535534  -0.7071068   0.0000000  )
         8           Mn2 tau(   8) = (   0.0000000  -1.0606602   0.0000000  )
         9           Au  tau(   9) = (  -0.1767767  -0.1767767  -0.1470216  )
        10           Au  tau(  10) = (   0.1767767  -0.5303301  -0.1470216  )
        11           Au  tau(  11) = (  -0.1767767  -0.5303301  -0.1470216  )
        12           Au  tau(  12) = (   0.1767767  -0.8838835  -0.1470216  )
        13           Au  tau(  13) = (  -0.5303301  -0.5303301  -0.1470216  )
        14           Au  tau(  14) = (  -0.1767767  -0.8838835  -0.1470216  )
        15           Au  tau(  15) = (   0.5303301  -0.5303301  -0.1470216  )
        16           Au  tau(  16) = (   0.1767767  -0.1767767  -0.1470216  )
        17           Au  tau(  17) = (   0.3535534  -0.3535534  -0.3124210  )
        18           Au  tau(  18) = (   0.0000000   0.0000000  -0.3124210  )
        19           Au  tau(  19) = (   0.0000000  -0.3535534  -0.3124210  )
        20           Au  tau(  20) = (   0.3535534  -0.7071068  -0.3124210  )
        21           Au  tau(  21) = (  -0.3535534  -0.3535534  -0.3124210  )
        22           Au  tau(  22) = (  -0.0000000  -0.7071068  -0.3124210  )
        23           Au  tau(  23) = (  -0.3535534  -0.7071068  -0.3124210  )
        24           Au  tau(  24) = (   0.0000000  -1.0606602  -0.3124210  )

     number of k points=    30 (tetrahedron method)
                       cart. coord. in units 2pi/alat
        k(    1) = (   0.0000000   0.0000000   0.0000000), wk =   0.0156250
        k(    2) = (   0.0000000   0.0000000  -0.5441376), wk =   0.0312500
        k(    3) = (   0.0000000   0.0000000   1.0882752), wk =   0.0156250
        k(    4) = (  -0.1767767  -0.1767767  -0.1360344), wk =   0.0312500
        k(    5) = (  -0.1767767  -0.1767767  -0.6801720), wk =   0.0312500
        k(    6) = (  -0.1767767  -0.1767767   0.9522408), wk =   0.0312500
        k(    7) = (  -0.1767767  -0.1767767   0.4081032), wk =   0.0312500
        k(    8) = (   0.3535534   0.3535534   0.2720688), wk =   0.0156250
        k(    9) = (   0.3535534   0.3535534  -0.2720688), wk =   0.0312500
        k(   10) = (   0.3535534   0.3535534   1.3603439), wk =   0.0156250
        k(   11) = (   0.1767767  -0.1767767   0.0000000), wk =   0.0312500
        k(   12) = (   0.1767767  -0.1767767  -0.5441376), wk =   0.0625000
        k(   13) = (   0.1767767  -0.1767767   1.0882752), wk =   0.0312500
        k(   14) = (   0.0000000  -0.3535534  -0.1360344), wk =   0.0625000
        k(   15) = (   0.0000000  -0.3535534  -0.6801720), wk =   0.0625000
        k(   16) = (   0.0000000  -0.3535534   0.9522408), wk =   0.0625000
        k(   17) = (   0.0000000  -0.3535534   0.4081032), wk =   0.0625000
        k(   18) = (   0.5303301   0.1767767   0.2720688), wk =   0.0312500
        k(   19) = (   0.5303301   0.1767767  -0.2720688), wk =   0.0625000
        k(   20) = (   0.5303301   0.1767767   1.3603439), wk =   0.0312500
        k(   21) = (  -0.3535534   0.3535534   0.0000000), wk =   0.0156250
        k(   22) = (  -0.3535534   0.3535534  -0.5441376), wk =   0.0312500
        k(   23) = (  -0.3535534   0.3535534   1.0882752), wk =   0.0156250
        k(   24) = (  -0.5303301   0.1767767  -0.1360344), wk =   0.0312500
        k(   25) = (  -0.5303301   0.1767767  -0.6801720), wk =   0.0312500
        k(   26) = (  -0.5303301   0.1767767   0.9522408), wk =   0.0312500
        k(   27) = (  -0.5303301   0.1767767   0.4081032), wk =   0.0312500
        k(   28) = (   0.0000000   0.7071068   0.2720688), wk =   0.0156250
        k(   29) = (   0.0000000   0.7071068  -0.2720688), wk =   0.0312500
        k(   30) = (   0.0000000   0.7071068   1.3603439), wk =   0.0156250

     Dense  grid:   362619 G-vectors     FFT dimensions: ( 120, 120,  60)

     Smooth grid:   109493 G-vectors     FFT dimensions: (  80,  80,  45)

     Estimated max dynamical RAM per process >     286.87 MB

     Estimated total dynamical RAM >       4.48 GB
     Generating pointlists ...
     new r_m :   0.1196 (alat units)  2.1549 (a.u.) for type    1
     new r_m :   0.1196 (alat units)  2.1549 (a.u.) for type    2
     new r_m :   0.1196 (alat units)  2.1549 (a.u.) for type    3

     Check: negative/imaginary core charge=   -0.000006    0.000000

     Initial potential from superposition of free atoms

     starting charge  295.99426, renormalised to  296.00000
     Number of +U iterations with fixed ns =  0
     Starting occupations:
 --- enter write_ns ---
 LDA+U parameters:
U(  1) =   3.1200   J(  1) =   0.7000   B(  1) =   0.0803
U(  2) =   3.1200   J(  2) =   0.7000   B(  2) =   0.0803
atom    1   Tr[ns(na)] (up, down, total) =   5.00000  0.00000  5.00000
   spin  1
    eigenvalues: 
  1.000  1.000  1.000  1.000  1.000
    eigenvectors:
  1.000  0.000  0.000  0.000  0.000
  0.000  1.000  0.000  0.000  0.000
  0.000  0.000  1.000  0.000  0.000
  0.000  0.000  0.000  1.000  0.000
  0.000  0.000  0.000  0.000  1.000
    occupations:
  1.000  0.000  0.000  0.000  0.000
  0.000  1.000  0.000  0.000  0.000
  0.000  0.000  1.000  0.000  0.000
  0.000  0.000  0.000  1.000  0.000
  0.000  0.000  0.000  0.000  1.000
   spin  2
    eigenvalues: 
  0.000  0.000  0.000  0.000  0.000
    eigenvectors:
  1.000  0.000  0.000  0.000  0.000
  0.000  1.000  0.000  0.000  0.000
  0.000  0.000  1.000  0.000  0.000
  0.000  0.000  0.000  1.000  0.000
  0.000  0.000  0.000  0.000  1.000
    occupations:
  0.000  0.000  0.000  0.000  0.000
  0.000  0.000  0.000  0.000  0.000
  0.000  0.000  0.000  0.000  0.000
  0.000  0.000  0.000  0.000  0.000
  0.000  0.000  0.000  0.000  0.000
atomic mag. moment =     5.000000
atom    2   Tr[ns(na)] (up, down, total) =   5.00000  0.00000  5.00000
   spin  1
    eigenvalues: 
  1.000  1.000  1.000  1.000  1.000
    eigenvectors:
  1.000  0.000  0.000  0.000  0.000
  0.000  1.000  0.000  0.000  0.000
  0.000  0.000  1.000  0.000  0.000
  0.000  0.000  0.000  1.000  0.000
  0.000  0.000  0.000  0.000  1.000
    occupations:
  1.000  0.000  0.000  0.000  0.000
  0.000  1.000  0.000  0.000  0.000
  0.000  0.000  1.000  0.000  0.000
  0.000  0.000  0.000  1.000  0.000
  0.000  0.000  0.000  0.000  1.000
   spin  2
    eigenvalues: 
  0.000  0.000  0.000  0.000  0.000
    eigenvectors:
  1.000  0.000  0.000  0.000  0.000
  0.000  1.000  0.000  0.000  0.000
  0.000  0.000  1.000  0.000  0.000
  0.000  0.000  0.000  1.000  0.000
  0.000  0.000  0.000  0.000  1.000
    occupations:
  0.000  0.000  0.000  0.000  0.000
  0.000  0.000  0.000  0.000  0.000
  0.000  0.000  0.000  0.000  0.000
  0.000  0.000  0.000  0.000  0.000
  0.000  0.000  0.000  0.000  0.000
atomic mag. moment =     5.000000
atom    3   Tr[ns(na)] (up, down, total) =   0.00000  5.00000  5.00000
   spin  1
    eigenvalues: 
  0.000  0.000  0.000  0.000  0.000
    eigenvectors:
  1.000  0.000  0.000  0.000  0.000
  0.000  1.000  0.000  0.000  0.000
  0.000  0.000  1.000  0.000  0.000
  0.000  0.000  0.000  1.000  0.000
  0.000  0.000  0.000  0.000  1.000
    occupations:
  0.000  0.000  0.000  0.000  0.000
  0.000  0.000  0.000  0.000  0.000
  0.000  0.000  0.000  0.000  0.000
  0.000  0.000  0.000  0.000  0.000
  0.000  0.000  0.000  0.000  0.000
   spin  2
    eigenvalues: 
  1.000  1.000  1.000  1.000  1.000
    eigenvectors:
  1.000  0.000  0.000  0.000  0.000
  0.000  1.000  0.000  0.000  0.000
  0.000  0.000  1.000  0.000  0.000
  0.000  0.000  0.000  1.000  0.000
  0.000  0.000  0.000  0.000  1.000
    occupations:
  1.000  0.000  0.000  0.000  0.000
  0.000  1.000  0.000  0.000  0.000
  0.000  0.000  1.000  0.000  0.000
  0.000  0.000  0.000  1.000  0.000
  0.000  0.000  0.000  0.000  1.000
atomic mag. moment =    -5.000000
atom    4   Tr[ns(na)] (up, down, total) =   0.00000  5.00000  5.00000
   spin  1
    eigenvalues: 
  0.000  0.000  0.000  0.000  0.000
    eigenvectors:
  1.000  0.000  0.000  0.000  0.000
  0.000  1.000  0.000  0.000  0.000
  0.000  0.000  1.000  0.000  0.000
  0.000  0.000  0.000  1.000  0.000
  0.000  0.000  0.000  0.000  1.000
    occupations:
  0.000  0.000  0.000  0.000  0.000
  0.000  0.000  0.000  0.000  0.000
  0.000  0.000  0.000  0.000  0.000
  0.000  0.000  0.000  0.000  0.000
  0.000  0.000  0.000  0.000  0.000
   spin  2
    eigenvalues: 
  1.000  1.000  1.000  1.000  1.000
    eigenvectors:
  1.000  0.000  0.000  0.000  0.000
  0.000  1.000  0.000  0.000  0.000
  0.000  0.000  1.000  0.000  0.000
  0.000  0.000  0.000  1.000  0.000
  0.000  0.000  0.000  0.000  1.000
    occupations:
  1.000  0.000  0.000  0.000  0.000
  0.000  1.000  0.000  0.000  0.000
  0.000  0.000  1.000  0.000  0.000
  0.000  0.000  0.000  1.000  0.000
  0.000  0.000  0.000  0.000  1.000
atomic mag. moment =    -5.000000
atom    5   Tr[ns(na)] (up, down, total) =   5.00000  0.00000  5.00000
   spin  1
    eigenvalues: 
  1.000  1.000  1.000  1.000  1.000
    eigenvectors:
  1.000  0.000  0.000  0.000  0.000
  0.000  1.000  0.000  0.000  0.000
  0.000  0.000  1.000  0.000  0.000
  0.000  0.000  0.000  1.000  0.000
  0.000  0.000  0.000  0.000  1.000
    occupations:
  1.000  0.000  0.000  0.000  0.000
  0.000  1.000  0.000  0.000  0.000
  0.000  0.000  1.000  0.000  0.000
  0.000  0.000  0.000  1.000  0.000
  0.000  0.000  0.000  0.000  1.000
   spin  2
    eigenvalues: 
  0.000  0.000  0.000  0.000  0.000
    eigenvectors:
  1.000  0.000  0.000  0.000  0.000
  0.000  1.000  0.000  0.000  0.000
  0.000  0.000  1.000  0.000  0.000
  0.000  0.000  0.000  1.000  0.000
  0.000  0.000  0.000  0.000  1.000
    occupations:
  0.000  0.000  0.000  0.000  0.000
  0.000  0.000  0.000  0.000  0.000
  0.000  0.000  0.000  0.000  0.000
  0.000  0.000  0.000  0.000  0.000
  0.000  0.000  0.000  0.000  0.000
atomic mag. moment =     5.000000
atom    6   Tr[ns(na)] (up, down, total) =   5.00000  0.00000  5.00000
   spin  1
    eigenvalues: 
  1.000  1.000  1.000  1.000  1.000
    eigenvectors:
  1.000  0.000  0.000  0.000  0.000
  0.000  1.000  0.000  0.000  0.000
  0.000  0.000  1.000  0.000  0.000
  0.000  0.000  0.000  1.000  0.000
  0.000  0.000  0.000  0.000  1.000
    occupations:
  1.000  0.000  0.000  0.000  0.000
  0.000  1.000  0.000  0.000  0.000
  0.000  0.000  1.000  0.000  0.000
  0.000  0.000  0.000  1.000  0.000
  0.000  0.000  0.000  0.000  1.000
   spin  2
    eigenvalues: 
  0.000  0.000  0.000  0.000  0.000
    eigenvectors:
  1.000  0.000  0.000  0.000  0.000
  0.000  1.000  0.000  0.000  0.000
  0.000  0.000  1.000  0.000  0.000
  0.000  0.000  0.000  1.000  0.000
  0.000  0.000  0.000  0.000  1.000
    occupations:
  0.000  0.000  0.000  0.000  0.000
  0.000  0.000  0.000  0.000  0.000
  0.000  0.000  0.000  0.000  0.000
  0.000  0.000  0.000  0.000  0.000
  0.000  0.000  0.000  0.000  0.000
atomic mag. moment =     5.000000
atom    7   Tr[ns(na)] (up, down, total) =   0.00000  5.00000  5.00000
   spin  1
    eigenvalues: 
  0.000  0.000  0.000  0.000  0.000
    eigenvectors:
  1.000  0.000  0.000  0.000  0.000
  0.000  1.000  0.000  0.000  0.000
  0.000  0.000  1.000  0.000  0.000
  0.000  0.000  0.000  1.000  0.000
  0.000  0.000  0.000  0.000  1.000
    occupations:
  0.000  0.000  0.000  0.000  0.000
  0.000  0.000  0.000  0.000  0.000
  0.000  0.000  0.000  0.000  0.000
  0.000  0.000  0.000  0.000  0.000
  0.000  0.000  0.000  0.000  0.000
   spin  2
    eigenvalues: 
  1.000  1.000  1.000  1.000  1.000
    eigenvectors:
  1.000  0.000  0.000  0.000  0.000
  0.000  1.000  0.000  0.000  0.000
  0.000  0.000  1.000  0.000  0.000
  0.000  0.000  0.000  1.000  0.000
  0.000  0.000  0.000  0.000  1.000
    occupations:
  1.000  0.000  0.000  0.000  0.000
  0.000  1.000  0.000  0.000  0.000
  0.000  0.000  1.000  0.000  0.000
  0.000  0.000  0.000  1.000  0.000
  0.000  0.000  0.000  0.000  1.000
atomic mag. moment =    -5.000000
atom    8   Tr[ns(na)] (up, down, total) =   0.00000  5.00000  5.00000
   spin  1
    eigenvalues: 
  0.000  0.000  0.000  0.000  0.000
    eigenvectors:
  1.000  0.000  0.000  0.000  0.000
  0.000  1.000  0.000  0.000  0.000
  0.000  0.000  1.000  0.000  0.000
  0.000  0.000  0.000  1.000  0.000
  0.000  0.000  0.000  0.000  1.000
    occupations:
  0.000  0.000  0.000  0.000  0.000
  0.000  0.000  0.000  0.000  0.000
  0.000  0.000  0.000  0.000  0.000
  0.000  0.000  0.000  0.000  0.000
  0.000  0.000  0.000  0.000  0.000
   spin  2
    eigenvalues: 
  1.000  1.000  1.000  1.000  1.000
    eigenvectors:
  1.000  0.000  0.000  0.000  0.000
  0.000  1.000  0.000  0.000  0.000
  0.000  0.000  1.000  0.000  0.000
  0.000  0.000  0.000  1.000  0.000
  0.000  0.000  0.000  0.000  1.000
    occupations:
  1.000  0.000  0.000  0.000  0.000
  0.000  1.000  0.000  0.000  0.000
  0.000  0.000  1.000  0.000  0.000
  0.000  0.000  0.000  1.000  0.000
  0.000  0.000  0.000  0.000  1.000
atomic mag. moment =    -5.000000
N of occupied +U levels =   40.000000
 --- exit write_ns ---
 Atomic wfc used for LDA+U Projector are NOT orthogonalized
     Starting wfcs are  224 randomized atomic wfcs
     Checking if some PAW data can be deallocated... 

     total cpu time spent up to now is       23.5 secs

     Self-consistent Calculation

     iteration #  1     ecut=    45.00 Ry     beta= 0.10
     Davidson diagonalization with overlap
     ethr =  1.00E-02,  avg # of iterations =  4.4
 --- enter write_ns ---
 LDA+U parameters:
U(  1) =   3.1200   J(  1) =   0.7000   B(  1) =   0.0803
U(  2) =   3.1200   J(  2) =   0.7000   B(  2) =   0.0803
atom    1   Tr[ns(na)] (up, down, total) =   5.01464  0.27723  5.29187
   spin  1
    eigenvalues: 
  1.003  1.003  1.003  1.003  1.003
    eigenvectors:
  0.000  0.000  0.000  0.999  0.000
  0.001  0.499  0.500  0.000  0.000
  0.001  0.499  0.500  0.000  0.000
  0.000  0.000  0.000  0.000  1.000
  0.997  0.003  0.000  0.000  0.000
    occupations:
  1.003  0.000  0.000 -0.000 -0.000
  0.000  1.003 -0.000  0.000  0.000
  0.000 -0.000  1.003 -0.000  0.000
 -0.000  0.000 -0.000  1.003 -0.000
 -0.000  0.000  0.000 -0.000  1.003
   spin  2
    eigenvalues: 
  0.043  0.053  0.054  0.055  0.072
    eigenvectors:
  0.000  0.989  0.000  0.011  0.000
  0.000  0.005  0.500  0.494  0.000
  0.000  0.005  0.500  0.494  0.000
  1.000  0.000  0.000  0.000  0.000
  0.000  0.000  0.000  0.000  1.000
    occupations:
  0.053  0.000  0.000 -0.000  0.000
  0.000  0.054  0.000 -0.000  0.000
  0.000  0.000  0.054  0.000  0.000
 -0.000 -0.000  0.000  0.043 -0.000
  0.000  0.000  0.000 -0.000  0.072
atomic mag. moment =     4.737401
atom    2   Tr[ns(na)] (up, down, total) =   5.01472  0.27732  5.29204
   spin  1
    eigenvalues: 
  1.003  1.003  1.003  1.003  1.003
    eigenvectors:
  0.001  0.000  0.003  0.996  0.000
  0.000  0.500  0.498  0.002  0.000
  0.000  0.500  0.498  0.002  0.000
  0.000  0.000  0.000  0.000  1.000
  0.998  0.000  0.001  0.001  0.000
    occupations:
  1.003 -0.000 -0.000 -0.000 -0.000
 -0.000  1.003  0.000 -0.000 -0.000
 -0.000  0.000  1.003  0.000 -0.000
 -0.000 -0.000  0.000  1.003 -0.000
 -0.000 -0.000 -0.000 -0.000  1.003
   spin  2
    eigenvalues: 
  0.043  0.053  0.054  0.055  0.072
    eigenvectors:
  0.000  0.984  0.000  0.015  0.000
  0.000  0.008  0.500  0.492  0.000
  0.000  0.008  0.500  0.492  0.000
  1.000  0.000  0.000  0.000  0.000
  0.000  0.000  0.000  0.001  0.999
    occupations:
  0.053  0.000  0.000 -0.000  0.000
  0.000  0.054  0.000 -0.000  0.000
  0.000  0.000  0.054  0.000  0.000
 -0.000 -0.000  0.000  0.043 -0.000
  0.000  0.000  0.000 -0.000  0.072
atomic mag. moment =     4.737391
atom    3   Tr[ns(na)] (up, down, total) =   0.27758  5.01461  5.29219
   spin  1
    eigenvalues: 
  0.044  0.053  0.054  0.055  0.072
    eigenvectors:
  0.000  0.976  0.000  0.024  0.000
  0.000  0.013  0.493  0.494  0.000
  0.000  0.011  0.507  0.482  0.000
  1.000  0.000  0.000  0.000  0.000
  0.000  0.000  0.000  0.000  0.999
    occupations:
  0.053  0.000  0.000 -0.000  0.000
  0.000  0.054  0.000 -0.000  0.000
  0.000  0.000  0.054  0.000  0.000
 -0.000 -0.000  0.000  0.044 -0.000
  0.000  0.000  0.000 -0.000  0.072
   spin  2
    eigenvalues: 
  1.003  1.003  1.003  1.003  1.003
    eigenvectors:
  0.001  0.000  0.000  0.999  0.000
  0.000  0.933  0.067  0.000  0.000
  0.000  0.067  0.933  0.000  0.000
  0.000  0.000  0.000  0.000  1.000
  0.999  0.000  0.000  0.001  0.000
    occupations:
  1.003  0.000  0.000  0.000 -0.000
  0.000  1.003 -0.000  0.000  0.000
  0.000 -0.000  1.003  0.000 -0.000
  0.000  0.000  0.000  1.003 -0.000
 -0.000  0.000 -0.000 -0.000  1.003
atomic mag. moment =    -4.737034
atom    4   Tr[ns(na)] (up, down, total) =   0.27758  5.01461  5.29219
   spin  1
    eigenvalues: 
  0.044  0.053  0.054  0.055  0.072
    eigenvectors:
  0.000  0.976  0.000  0.024  0.000
  0.000  0.011  0.507  0.482  0.000
  0.000  0.013  0.493  0.494  0.000
  1.000  0.000  0.000  0.000  0.000
  0.000  0.000  0.000  0.000  0.999
    occupations:
  0.053  0.000  0.000  0.000  0.000
  0.000  0.054  0.000 -0.000  0.000
  0.000  0.000  0.054  0.000  0.000
  0.000 -0.000  0.000  0.044  0.000
  0.000  0.000  0.000  0.000  0.072
   spin  2
    eigenvalues: 
  1.003  1.003  1.003  1.003  1.003
    eigenvectors:
  0.001  0.000  0.000  0.999  0.000
  0.000  0.067  0.933  0.000  0.000
  0.000  0.933  0.067  0.000  0.000
  0.000  0.000  0.000  0.000  1.000
  0.999  0.000  0.000  0.001  0.000
    occupations:
  1.003  0.000  0.000 -0.000 -0.000
  0.000  1.003 -0.000 -0.000 -0.000
  0.000 -0.000  1.003 -0.000  0.000
 -0.000 -0.000 -0.000  1.003  0.000
 -0.000 -0.000  0.000  0.000  1.003
atomic mag. moment =    -4.737034
atom    5   Tr[ns(na)] (up, down, total) =   5.01466  0.27778  5.29244
   spin  1
    eigenvalues: 
  1.003  1.003  1.003  1.003  1.003
    eigenvectors:
  0.002  0.002  0.000  0.996  0.000
  0.001  0.498  0.500  0.001  0.000
  0.001  0.498  0.500  0.001  0.000
  0.000  0.000  0.000  0.000  1.000
  0.997  0.002  0.000  0.002  0.000
    occupations:
  1.003  0.000  0.000 -0.000 -0.000
  0.000  1.003 -0.000  0.000  0.000
  0.000 -0.000  1.003 -0.000  0.000
 -0.000  0.000 -0.000  1.003 -0.000
 -0.000  0.000  0.000 -0.000  1.003
   spin  2
    eigenvalues: 
  0.044  0.053  0.054  0.055  0.072
    eigenvectors:
  0.000  0.987  0.000  0.013  0.000
  0.000  0.006  0.500  0.494  0.000
  0.000  0.006  0.500  0.494  0.000
  1.000  0.000  0.000  0.000  0.000
  0.000  0.000  0.000  0.000  0.999
    occupations:
  0.053  0.000  0.000 -0.000  0.000
  0.000  0.055  0.000 -0.000  0.000
  0.000  0.000  0.055  0.000  0.000
 -0.000 -0.000  0.000  0.044 -0.000
  0.000  0.000  0.000 -0.000  0.072
atomic mag. moment =     4.736881
atom    6   Tr[ns(na)] (up, down, total) =   5.01488  0.27725  5.29212
   spin  1
    eigenvalues: 
  1.003  1.003  1.003  1.003  1.003
    eigenvectors:
  0.001  0.000  0.004  0.995  0.000
  0.001  0.499  0.497  0.002  0.001
  0.001  0.499  0.497  0.002  0.001
  0.000  0.002  0.000  0.000  0.998
  0.997  0.000  0.002  0.001  0.000
    occupations:
  1.003 -0.000 -0.000 -0.000 -0.000
 -0.000  1.003  0.000  0.000  0.000
 -0.000  0.000  1.003 -0.000  0.000
 -0.000  0.000 -0.000  1.003 -0.000
 -0.000  0.000  0.000 -0.000  1.003
   spin  2
    eigenvalues: 
  0.044  0.053  0.054  0.055  0.072
    eigenvectors:
  0.000  0.991  0.000  0.009  0.000
  0.000  0.005  0.500  0.495  0.000
  0.000  0.005  0.500  0.495  0.000
  1.000  0.000  0.000  0.000  0.000
  0.000  0.000  0.000  0.000  1.000
    occupations:
  0.053  0.000  0.000 -0.000  0.000
  0.000  0.054  0.000 -0.000  0.000
  0.000  0.000  0.054  0.000  0.000
 -0.000 -0.000  0.000  0.044 -0.000
  0.000  0.000  0.000 -0.000  0.072
atomic mag. moment =     4.737629
atom    7   Tr[ns(na)] (up, down, total) =   0.27758  5.01461  5.29219
   spin  1
    eigenvalues: 
  0.044  0.053  0.054  0.055  0.072
    eigenvectors:
  0.000  0.976  0.000  0.024  0.000
  0.000  0.011  0.507  0.482  0.000
  0.000  0.013  0.493  0.494  0.000
  1.000  0.000  0.000  0.000  0.000
  0.000  0.000  0.000  0.000  0.999
    occupations:
  0.053  0.000  0.000  0.000  0.000
  0.000  0.054  0.000 -0.000  0.000
  0.000  0.000  0.054  0.000  0.000
  0.000 -0.000  0.000  0.044  0.000
  0.000  0.000  0.000  0.000  0.072
   spin  2
    eigenvalues: 
  1.003  1.003  1.003  1.003  1.003
    eigenvectors:
  0.001  0.000  0.000  0.999  0.000
  0.000  0.067  0.933  0.000  0.000
  0.000  0.933  0.067  0.000  0.000
  0.000  0.000  0.000  0.000  1.000
  0.999  0.000  0.000  0.001  0.000
    occupations:
  1.003  0.000  0.000 -0.000 -0.000
  0.000  1.003 -0.000 -0.000 -0.000
  0.000 -0.000  1.003 -0.000  0.000
 -0.000 -0.000 -0.000  1.003  0.000
 -0.000 -0.000  0.000  0.000  1.003
atomic mag. moment =    -4.737034
atom    8   Tr[ns(na)] (up, down, total) =   0.27758  5.01461  5.29219
   spin  1
    eigenvalues: 
  0.044  0.053  0.054  0.055  0.072
    eigenvectors:
  0.000  0.976  0.000  0.024  0.000
  0.000  0.013  0.493  0.494  0.000
  0.000  0.011  0.507  0.482  0.000
  1.000  0.000  0.000  0.000  0.000
  0.000  0.000  0.000  0.000  0.999
    occupations:
  0.053  0.000  0.000 -0.000  0.000
  0.000  0.054  0.000 -0.000  0.000
  0.000  0.000  0.054  0.000  0.000
 -0.000 -0.000  0.000  0.044 -0.000
  0.000  0.000  0.000 -0.000  0.072
   spin  2
    eigenvalues: 
  1.003  1.003  1.003  1.003  1.003
    eigenvectors:
  0.001  0.000  0.000  0.999  0.000
  0.000  0.933  0.067  0.000  0.000
  0.000  0.067  0.933  0.000  0.000
  0.000  0.000  0.000  0.000  1.000
  0.999  0.000  0.000  0.001  0.000
    occupations:
  1.003  0.000  0.000  0.000 -0.000
  0.000  1.003 -0.000  0.000  0.000
  0.000 -0.000  1.003  0.000 -0.000
  0.000  0.000  0.000  1.003 -0.000
 -0.000  0.000 -0.000 -0.000  1.003
atomic mag. moment =    -4.737034
N of occupied +U levels =   42.337229
 --- exit write_ns ---

     total cpu time spent up to now is       91.5 secs

     total energy              =  -14679.29466435 Ry
     Harris-Foulkes estimate   =  -14670.05493346 Ry
     estimated scf accuracy    <      21.27068658 Ry

     total magnetization       =    -0.00 Bohr mag/cell
     absolute magnetization    =    43.44 Bohr mag/cell

     iteration #  2     ecut=    45.00 Ry     beta= 0.10
     Davidson diagonalization with overlap
     ethr =  7.19E-03,  avg # of iterations =  1.0

     total cpu time spent up to now is      127.1 secs

     total energy              =  -14692.12894964 Ry
     Harris-Foulkes estimate   =  -14679.39907350 Ry
     estimated scf accuracy    <      17.14857248 Ry

     total magnetization       =    -0.00 Bohr mag/cell
     absolute magnetization    =    43.05 Bohr mag/cell

     iteration #  3     ecut=    45.00 Ry     beta= 0.10
     Davidson diagonalization with overlap
     ethr =  5.79E-03,  avg # of iterations =  2.1

     total cpu time spent up to now is      170.5 secs

     total energy              =  -14693.89331211 Ry
     Harris-Foulkes estimate   =  -14693.74258516 Ry
     estimated scf accuracy    <       4.19182176 Ry

     total magnetization       =     0.01 Bohr mag/cell
     absolute magnetization    =    39.27 Bohr mag/cell

     iteration #  4     ecut=    45.00 Ry     beta= 0.10
     Davidson diagonalization with overlap
     ethr =  1.42E-03,  avg # of iterations =  5.2

     total cpu time spent up to now is      232.4 secs

     total energy              =  -14693.28541081 Ry
     Harris-Foulkes estimate   =  -14693.93618023 Ry
     estimated scf accuracy    <       4.89609816 Ry

     total magnetization       =     0.01 Bohr mag/cell
     absolute magnetization    =    39.01 Bohr mag/cell

     iteration #  5     ecut=    45.00 Ry     beta= 0.10
     Davidson diagonalization with overlap
     ethr =  1.42E-03,  avg # of iterations =  4.5

     total cpu time spent up to now is      299.4 secs

     total energy              =  -14693.87775415 Ry
     Harris-Foulkes estimate   =  -14693.84005959 Ry
     estimated scf accuracy    <       0.14153080 Ry

     total magnetization       =    -0.00 Bohr mag/cell
     absolute magnetization    =    37.78 Bohr mag/cell

     iteration #  6     ecut=    45.00 Ry     beta= 0.10
     Davidson diagonalization with overlap
     ethr =  4.78E-05,  avg # of iterations =  3.9

     total cpu time spent up to now is      371.1 secs

     total energy              =  -14693.94172104 Ry
     Harris-Foulkes estimate   =  -14693.91424157 Ry
     estimated scf accuracy    <       0.24231141 Ry

     total magnetization       =     0.00 Bohr mag/cell
     absolute magnetization    =    36.84 Bohr mag/cell

     iteration #  7     ecut=    45.00 Ry     beta= 0.10
     Davidson diagonalization with overlap
     ethr =  4.78E-05,  avg # of iterations =  2.0

     total cpu time spent up to now is      413.5 secs

     total energy              =  -14693.85027316 Ry
     Harris-Foulkes estimate   =  -14693.95628271 Ry
     estimated scf accuracy    <       0.65289141 Ry

     total magnetization       =    -0.01 Bohr mag/cell
     absolute magnetization    =    36.75 Bohr mag/cell

     iteration #  8     ecut=    45.00 Ry     beta= 0.10
     Davidson diagonalization with overlap
     ethr =  4.78E-05,  avg # of iterations =  3.0

     total cpu time spent up to now is      476.8 secs

     total energy              =  -14693.90239176 Ry
     Harris-Foulkes estimate   =  -14693.90290347 Ry
     estimated scf accuracy    <       0.03604449 Ry

     total magnetization       =     0.00 Bohr mag/cell
     absolute magnetization    =    36.81 Bohr mag/cell

     iteration #  9     ecut=    45.00 Ry     beta= 0.10
     Davidson diagonalization with overlap
     ethr =  1.22E-05,  avg # of iterations =  1.2

     total cpu time spent up to now is      513.7 secs

     total energy              =  -14693.90047435 Ry
     Harris-Foulkes estimate   =  -14693.90269491 Ry
     estimated scf accuracy    <       0.03368348 Ry

     total magnetization       =     0.00 Bohr mag/cell
     absolute magnetization    =    36.84 Bohr mag/cell

     iteration # 10     ecut=    45.00 Ry     beta= 0.10
     Davidson diagonalization with overlap
     ethr =  1.14E-05,  avg # of iterations =  1.8

     total cpu time spent up to now is      553.6 secs

     total energy              =  -14693.90449039 Ry
     Harris-Foulkes estimate   =  -14693.90284062 Ry
     estimated scf accuracy    <       0.00523754 Ry

     total magnetization       =    -0.00 Bohr mag/cell
     absolute magnetization    =    36.81 Bohr mag/cell

     iteration # 11     ecut=    45.00 Ry     beta= 0.10
     Davidson diagonalization with overlap
     ethr =  1.77E-06,  avg # of iterations =  3.9

     total cpu time spent up to now is      610.5 secs

     total energy              =  -14693.90493632 Ry
     Harris-Foulkes estimate   =  -14693.90480622 Ry
     estimated scf accuracy    <       0.00182684 Ry

     total magnetization       =    -0.00 Bohr mag/cell
     absolute magnetization    =    36.68 Bohr mag/cell

     iteration # 12     ecut=    45.00 Ry     beta= 0.10
     Davidson diagonalization with overlap
     ethr =  6.17E-07,  avg # of iterations =  1.8

     total cpu time spent up to now is      650.1 secs

     total energy              =  -14693.90528976 Ry
     Harris-Foulkes estimate   =  -14693.90492461 Ry
     estimated scf accuracy    <       0.00166701 Ry

     total magnetization       =     0.00 Bohr mag/cell
     absolute magnetization    =    36.67 Bohr mag/cell

     iteration # 13     ecut=    45.00 Ry     beta= 0.10
     Davidson diagonalization with overlap
     ethr =  5.63E-07,  avg # of iterations =  1.4

     total cpu time spent up to now is      687.6 secs

     total energy              =  -14693.90521766 Ry
     Harris-Foulkes estimate   =  -14693.90528223 Ry
     estimated scf accuracy    <       0.00233416 Ry

     total magnetization       =     0.00 Bohr mag/cell
     absolute magnetization    =    36.62 Bohr mag/cell

     iteration # 14     ecut=    45.00 Ry     beta= 0.10
     Davidson diagonalization with overlap
     ethr =  5.63E-07,  avg # of iterations =  2.0

     total cpu time spent up to now is      731.8 secs

     total energy              =  -14693.90534768 Ry
     Harris-Foulkes estimate   =  -14693.90534619 Ry
     estimated scf accuracy    <       0.00040491 Ry

     total magnetization       =     0.00 Bohr mag/cell
     absolute magnetization    =    36.58 Bohr mag/cell

     iteration # 15     ecut=    45.00 Ry     beta= 0.10
     Davidson diagonalization with overlap
     ethr =  1.37E-07,  avg # of iterations =  1.1

     total cpu time spent up to now is      767.9 secs

     total energy              =  -14693.90532759 Ry
     Harris-Foulkes estimate   =  -14693.90531326 Ry
     estimated scf accuracy    <       0.00006585 Ry

     total magnetization       =     0.00 Bohr mag/cell
     absolute magnetization    =    36.56 Bohr mag/cell

     iteration # 16     ecut=    45.00 Ry     beta= 0.10
     Davidson diagonalization with overlap
     ethr =  2.22E-08,  avg # of iterations =  3.0

     total cpu time spent up to now is      816.0 secs

     total energy              =  -14693.90529853 Ry
     Harris-Foulkes estimate   =  -14693.90529737 Ry
     estimated scf accuracy    <       0.00010954 Ry

     total magnetization       =     0.00 Bohr mag/cell
     absolute magnetization    =    36.56 Bohr mag/cell

     iteration # 17     ecut=    45.00 Ry     beta= 0.10
     Davidson diagonalization with overlap
     ethr =  2.22E-08,  avg # of iterations =  1.2

     total cpu time spent up to now is      852.8 secs

     total energy              =  -14693.90529603 Ry
     Harris-Foulkes estimate   =  -14693.90529257 Ry
     estimated scf accuracy    <       0.00014949 Ry

     total magnetization       =     0.00 Bohr mag/cell
     absolute magnetization    =    36.56 Bohr mag/cell

     iteration # 18     ecut=    45.00 Ry     beta= 0.10
     Davidson diagonalization with overlap
     ethr =  2.22E-08,  avg # of iterations =  1.1

     total cpu time spent up to now is      889.4 secs

     total energy              =  -14693.90526234 Ry
     Harris-Foulkes estimate   =  -14693.90525425 Ry
     estimated scf accuracy    <       0.00009063 Ry

     total magnetization       =     0.00 Bohr mag/cell
     absolute magnetization    =    36.55 Bohr mag/cell

     iteration # 19     ecut=    45.00 Ry     beta= 0.10
     Davidson diagonalization with overlap
     ethr =  2.22E-08,  avg # of iterations =  1.1

     total cpu time spent up to now is      925.7 secs

     total energy              =  -14693.90521571 Ry
     Harris-Foulkes estimate   =  -14693.90521450 Ry
     estimated scf accuracy    <       0.00003053 Ry

     total magnetization       =    -0.00 Bohr mag/cell
     absolute magnetization    =    36.55 Bohr mag/cell

     iteration # 20     ecut=    45.00 Ry     beta= 0.10
     Davidson diagonalization with overlap
     ethr =  1.03E-08,  avg # of iterations =  1.1

     total cpu time spent up to now is      962.2 secs

     total energy              =  -14693.90521162 Ry
     Harris-Foulkes estimate   =  -14693.90521082 Ry
     estimated scf accuracy    <       0.00008962 Ry

     total magnetization       =     0.00 Bohr mag/cell
     absolute magnetization    =    36.55 Bohr mag/cell

     iteration # 21     ecut=    45.00 Ry     beta= 0.10
     Davidson diagonalization with overlap
     ethr =  1.03E-08,  avg # of iterations =  1.0

     total cpu time spent up to now is      998.1 secs

     total energy              =  -14693.90519259 Ry
     Harris-Foulkes estimate   =  -14693.90519230 Ry
     estimated scf accuracy    <       0.00003375 Ry

     total magnetization       =     0.00 Bohr mag/cell
     absolute magnetization    =    36.55 Bohr mag/cell

     iteration # 22     ecut=    45.00 Ry     beta= 0.10
     Davidson diagonalization with overlap
     ethr =  1.03E-08,  avg # of iterations =  1.0

     total cpu time spent up to now is     1034.1 secs

     total energy              =  -14693.90519700 Ry
     Harris-Foulkes estimate   =  -14693.90519599 Ry
     estimated scf accuracy    <       0.00003163 Ry

     total magnetization       =     0.00 Bohr mag/cell
     absolute magnetization    =    36.55 Bohr mag/cell

     iteration # 23     ecut=    45.00 Ry     beta= 0.10
     Davidson diagonalization with overlap
     ethr =  1.03E-08,  avg # of iterations =  1.0

     total cpu time spent up to now is     1069.9 secs

     total energy              =  -14693.90518548 Ry
     Harris-Foulkes estimate   =  -14693.90518441 Ry
     estimated scf accuracy    <       0.00000533 Ry

     total magnetization       =     0.00 Bohr mag/cell
     absolute magnetization    =    36.55 Bohr mag/cell

     iteration # 24     ecut=    45.00 Ry     beta= 0.10
     Davidson diagonalization with overlap
     ethr =  1.80E-09,  avg # of iterations =  1.0

     total cpu time spent up to now is     1106.0 secs

     total energy              =  -14693.90518518 Ry
     Harris-Foulkes estimate   =  -14693.90518422 Ry
     estimated scf accuracy    <       0.00000508 Ry

     total magnetization       =     0.00 Bohr mag/cell
     absolute magnetization    =    36.55 Bohr mag/cell

     iteration # 25     ecut=    45.00 Ry     beta= 0.10
     Davidson diagonalization with overlap
     ethr =  1.72E-09,  avg # of iterations =  1.0

     total cpu time spent up to now is     1142.1 secs

     total energy              =  -14693.90518019 Ry
     Harris-Foulkes estimate   =  -14693.90517948 Ry
     estimated scf accuracy    <       0.00000368 Ry

     total magnetization       =     0.00 Bohr mag/cell
     absolute magnetization    =    36.55 Bohr mag/cell

     iteration # 26     ecut=    45.00 Ry     beta= 0.10
     Davidson diagonalization with overlap
     ethr =  1.24E-09,  avg # of iterations =  1.0

     total cpu time spent up to now is     1178.0 secs

     total energy              =  -14693.90518294 Ry
     Harris-Foulkes estimate   =  -14693.90518233 Ry
     estimated scf accuracy    <       0.00000493 Ry

     total magnetization       =     0.00 Bohr mag/cell
     absolute magnetization    =    36.55 Bohr mag/cell

     iteration # 27     ecut=    45.00 Ry     beta= 0.10
     Davidson diagonalization with overlap
     ethr =  1.24E-09,  avg # of iterations =  1.0

     total cpu time spent up to now is     1213.9 secs

     total energy              =  -14693.90518218 Ry
     Harris-Foulkes estimate   =  -14693.90518169 Ry
     estimated scf accuracy    <       0.00000853 Ry

     total magnetization       =     0.00 Bohr mag/cell
     absolute magnetization    =    36.55 Bohr mag/cell

     iteration # 28     ecut=    45.00 Ry     beta= 0.10
     Davidson diagonalization with overlap
     ethr =  1.24E-09,  avg # of iterations =  1.0

     total cpu time spent up to now is     1249.8 secs

     total energy              =  -14693.90518222 Ry
     Harris-Foulkes estimate   =  -14693.90518192 Ry
     estimated scf accuracy    <       0.00000851 Ry

     total magnetization       =     0.00 Bohr mag/cell
     absolute magnetization    =    36.55 Bohr mag/cell

     iteration # 29     ecut=    45.00 Ry     beta= 0.10
     Davidson diagonalization with overlap
     ethr =  1.24E-09,  avg # of iterations =  1.0

     total cpu time spent up to now is     1285.6 secs

     total energy              =  -14693.90518618 Ry
     Harris-Foulkes estimate   =  -14693.90518585 Ry
     estimated scf accuracy    <       0.00000871 Ry

     total magnetization       =     0.00 Bohr mag/cell
     absolute magnetization    =    36.55 Bohr mag/cell

     iteration # 30     ecut=    45.00 Ry     beta= 0.10
     Davidson diagonalization with overlap
     ethr =  1.24E-09,  avg # of iterations =  1.0

     total cpu time spent up to now is     1321.6 secs

     total energy              =  -14693.90518491 Ry
     Harris-Foulkes estimate   =  -14693.90518427 Ry
     estimated scf accuracy    <       0.00000839 Ry

     total magnetization       =     0.00 Bohr mag/cell
     absolute magnetization    =    36.55 Bohr mag/cell

     iteration # 31     ecut=    45.00 Ry     beta= 0.10
     Davidson diagonalization with overlap
     ethr =  1.24E-09,  avg # of iterations =  1.1

     total cpu time spent up to now is     1357.6 secs

     total energy              =  -14693.90517245 Ry
     Harris-Foulkes estimate   =  -14693.90517185 Ry
     estimated scf accuracy    <       0.00000448 Ry

     total magnetization       =     0.00 Bohr mag/cell
     absolute magnetization    =    36.55 Bohr mag/cell

     iteration # 32     ecut=    45.00 Ry     beta= 0.10
     Davidson diagonalization with overlap
     ethr =  1.24E-09,  avg # of iterations =  1.0

     total cpu time spent up to now is     1393.1 secs

     total energy              =  -14693.90517141 Ry
     Harris-Foulkes estimate   =  -14693.90517102 Ry
     estimated scf accuracy    <       0.00001188 Ry

     total magnetization       =     0.00 Bohr mag/cell
     absolute magnetization    =    36.55 Bohr mag/cell

     iteration # 33     ecut=    45.00 Ry     beta= 0.10
     Davidson diagonalization with overlap
     ethr =  1.24E-09,  avg # of iterations =  1.0

     total cpu time spent up to now is     1429.3 secs

     total energy              =  -14693.90517356 Ry
     Harris-Foulkes estimate   =  -14693.90517312 Ry
     estimated scf accuracy    <       0.00000394 Ry

     total magnetization       =     0.00 Bohr mag/cell
     absolute magnetization    =    36.55 Bohr mag/cell

     iteration # 34     ecut=    45.00 Ry     beta= 0.10
     Davidson diagonalization with overlap
     ethr =  1.24E-09,  avg # of iterations =  1.0

     total cpu time spent up to now is     1465.1 secs

     total energy              =  -14693.90517302 Ry
     Harris-Foulkes estimate   =  -14693.90517292 Ry
     estimated scf accuracy    <       0.00000278 Ry

     total magnetization       =     0.00 Bohr mag/cell
     absolute magnetization    =    36.55 Bohr mag/cell

     iteration # 35     ecut=    45.00 Ry     beta= 0.10
     Davidson diagonalization with overlap
     ethr =  9.41E-10,  avg # of iterations =  1.0

     total cpu time spent up to now is     1500.9 secs

     total energy              =  -14693.90517467 Ry
     Harris-Foulkes estimate   =  -14693.90517423 Ry
     estimated scf accuracy    <       0.00000229 Ry

     total magnetization       =     0.00 Bohr mag/cell
     absolute magnetization    =    36.55 Bohr mag/cell

     iteration # 36     ecut=    45.00 Ry     beta= 0.10
     Davidson diagonalization with overlap
     ethr =  7.73E-10,  avg # of iterations =  1.1

     total cpu time spent up to now is     1537.3 secs

     total energy              =  -14693.90517177 Ry
     Harris-Foulkes estimate   =  -14693.90517161 Ry
     estimated scf accuracy    <       0.00000176 Ry

     total magnetization       =     0.00 Bohr mag/cell
     absolute magnetization    =    36.55 Bohr mag/cell

     iteration # 37     ecut=    45.00 Ry     beta= 0.10
     Davidson diagonalization with overlap
     ethr =  5.96E-10,  avg # of iterations =  1.0

     total cpu time spent up to now is     1573.3 secs

     total energy              =  -14693.90516944 Ry
     Harris-Foulkes estimate   =  -14693.90516912 Ry
     estimated scf accuracy    <       0.00000150 Ry

     total magnetization       =     0.00 Bohr mag/cell
     absolute magnetization    =    36.55 Bohr mag/cell

     iteration # 38     ecut=    45.00 Ry     beta= 0.10
     Davidson diagonalization with overlap
     ethr =  5.06E-10,  avg # of iterations =  1.3

     total cpu time spent up to now is     1610.5 secs

     total energy              =  -14693.90516447 Ry
     Harris-Foulkes estimate   =  -14693.90516428 Ry
     estimated scf accuracy    <       0.00000193 Ry

     total magnetization       =     0.00 Bohr mag/cell
     absolute magnetization    =    36.55 Bohr mag/cell

     iteration # 39     ecut=    45.00 Ry     beta= 0.10
     Davidson diagonalization with overlap
     ethr =  5.06E-10,  avg # of iterations =  1.2

     total cpu time spent up to now is     1647.3 secs

     total energy              =  -14693.90515939 Ry
     Harris-Foulkes estimate   =  -14693.90515932 Ry
     estimated scf accuracy    <       0.00000114 Ry

     total magnetization       =     0.00 Bohr mag/cell
     absolute magnetization    =    36.55 Bohr mag/cell

     iteration # 40     ecut=    45.00 Ry     beta= 0.10
     Davidson diagonalization with overlap
     ethr =  3.87E-10,  avg # of iterations =  1.0

     total cpu time spent up to now is     1683.2 secs

     total energy              =  -14693.90515810 Ry
     Harris-Foulkes estimate   =  -14693.90515802 Ry
     estimated scf accuracy    <       0.00000106 Ry

     total magnetization       =     0.00 Bohr mag/cell
     absolute magnetization    =    36.55 Bohr mag/cell

     iteration # 41     ecut=    45.00 Ry     beta= 0.10
     Davidson diagonalization with overlap
     ethr =  3.57E-10,  avg # of iterations =  1.0
 
     Magnetic moment per site:
     atom:    1    charge:   13.5384    magn:    4.2477    constr:    0.0000
     atom:    2    charge:   13.5392    magn:    4.2417    constr:    0.0000
     atom:    3    charge:   13.5385    magn:   -4.2464    constr:    0.0000
     atom:    4    charge:   13.5385    magn:   -4.2464    constr:    0.0000
     atom:    5    charge:   13.5386    magn:    4.2450    constr:    0.0000
     atom:    6    charge:   13.5378    magn:    4.2513    constr:    0.0000
     atom:    7    charge:   13.5385    magn:   -4.2464    constr:    0.0000
     atom:    8    charge:   13.5385    magn:   -4.2464    constr:    0.0000
     atom:    9    charge:    9.0921    magn:   -0.0089    constr:    0.0000
     atom:   10    charge:    9.0928    magn:   -0.0068    constr:    0.0000
     atom:   11    charge:    9.0927    magn:    0.0075    constr:    0.0000
     atom:   12    charge:    9.0927    magn:    0.0075    constr:    0.0000
     atom:   13    charge:    9.0925    magn:   -0.0086    constr:    0.0000
     atom:   14    charge:    9.0932    magn:   -0.0065    constr:    0.0000
     atom:   15    charge:    9.0926    magn:    0.0078    constr:    0.0000
     atom:   16    charge:    9.0926    magn:    0.0078    constr:    0.0000
     atom:   17    charge:    9.0932    magn:   -0.0065    constr:    0.0000
     atom:   18    charge:    9.0925    magn:   -0.0086    constr:    0.0000
     atom:   19    charge:    9.0927    magn:    0.0075    constr:    0.0000
     atom:   20    charge:    9.0927    magn:    0.0075    constr:    0.0000
     atom:   21    charge:    9.0921    magn:   -0.0089    constr:    0.0000
     atom:   22    charge:    9.0928    magn:   -0.0068    constr:    0.0000
     atom:   23    charge:    9.0926    magn:    0.0078    constr:    0.0000
     atom:   24    charge:    9.0926    magn:    0.0078    constr:    0.0000

     total cpu time spent up to now is     1719.0 secs

     End of self-consistent calculation
 --- enter write_ns ---
 LDA+U parameters:
U(  1) =   3.1200   J(  1) =   0.7000   B(  1) =   0.0803
U(  2) =   3.1200   J(  2) =   0.7000   B(  2) =   0.0803
atom    1   Tr[ns(na)] (up, down, total) =   4.96871  0.72903  5.69775
   spin  1
    eigenvalues: 
  0.984  0.993  0.994  0.997  1.001
    eigenvectors:
  0.006  0.000  0.000  0.994  0.000
  0.001  0.499  0.500  0.000  0.000
  0.001  0.499  0.500  0.000  0.000
  0.000  0.000  0.000  0.000  1.000
  0.992  0.002  0.000  0.006  0.000
    occupations:
  0.997 -0.000 -0.000 -0.000 -0.001
 -0.000  0.993 -0.001 -0.000 -0.000
 -0.000 -0.001  0.993  0.000 -0.000
 -0.000 -0.000  0.000  1.001 -0.000
 -0.001 -0.000 -0.000 -0.000  0.984
   spin  2
    eigenvalues: 
  0.072  0.129  0.141  0.145  0.243
    eigenvectors:
  0.000  0.520  0.000  0.460  0.020
  0.000  0.238  0.500  0.260  0.002
  0.000  0.238  0.500  0.260  0.002
  0.999  0.000  0.001  0.000  0.000
  0.000  0.004  0.000  0.021  0.976
    occupations:
  0.139  0.006  0.006  0.000 -0.014
  0.006  0.139 -0.002 -0.001 -0.004
  0.006 -0.002  0.139  0.001 -0.004
  0.000 -0.001  0.001  0.072 -0.000
 -0.014 -0.004 -0.004 -0.000  0.240
atomic mag. moment =     4.239681
atom    2   Tr[ns(na)] (up, down, total) =   4.96787  0.73327  5.70114
   spin  1
    eigenvalues: 
  0.983  0.993  0.994  0.996  1.001
    eigenvectors:
  0.004  0.000  0.000  0.996  0.000
  0.001  0.499  0.500  0.000  0.000
  0.001  0.499  0.500  0.000  0.000
  0.000  0.000  0.000  0.000  1.000
  0.994  0.002  0.000  0.004  0.000
    occupations:
  0.996 -0.000 -0.000 -0.000 -0.001
 -0.000  0.993 -0.001 -0.000 -0.000
 -0.000 -0.001  0.993  0.000 -0.000
 -0.000 -0.000  0.000  1.001 -0.000
 -0.001 -0.000 -0.000 -0.000  0.983
   spin  2
    eigenvalues: 
  0.071  0.130  0.141  0.145  0.247
    eigenvectors:
  0.000  0.459  0.000  0.517  0.024
  0.000  0.269  0.500  0.229  0.002
  0.000  0.269  0.500  0.229  0.002
  0.999  0.000  0.001  0.000  0.000
  0.000  0.004  0.000  0.024  0.972
    occupations:
  0.140  0.006  0.006  0.000 -0.016
  0.006  0.139 -0.002 -0.001 -0.004
  0.006 -0.002  0.139  0.001 -0.004
  0.000 -0.001  0.001  0.071 -0.000
 -0.016 -0.004 -0.004 -0.000  0.244
atomic mag. moment =     4.234603
atom    3   Tr[ns(na)] (up, down, total) =   0.72991  4.96858  5.69850
   spin  1
    eigenvalues: 
  0.072  0.128  0.142  0.144  0.244
    eigenvectors:
  0.000  0.526  0.000  0.451  0.023
  0.000  0.233  0.526  0.239  0.002
  0.000  0.237  0.473  0.287  0.002
  0.999  0.000  0.001  0.000  0.000
  0.000  0.004  0.000  0.023  0.973
    occupations:
  0.138  0.006  0.006  0.000 -0.016
  0.006  0.139 -0.002 -0.001 -0.004
  0.006 -0.002  0.139  0.001 -0.004
  0.000 -0.001  0.001  0.072  0.000
 -0.016 -0.004 -0.004  0.000  0.241
   spin  2
    eigenvalues: 
  0.984  0.993  0.994  0.997  1.001
    eigenvectors:
  0.005  0.000  0.000  0.995  0.000
  0.001  0.499  0.499  0.000  0.000
  0.001  0.498  0.500  0.000  0.000
  0.000  0.000  0.000  0.000  1.000
  0.993  0.002  0.000  0.005  0.000
    occupations:
  0.997  0.000  0.000 -0.000 -0.001
  0.000  0.993 -0.001 -0.000 -0.000
  0.000 -0.001  0.993  0.000 -0.000
 -0.000 -0.000  0.000  1.001 -0.000
 -0.001 -0.000 -0.000 -0.000  0.984
atomic mag. moment =    -4.238668
atom    4   Tr[ns(na)] (up, down, total) =   0.72991  4.96858  5.69850
   spin  1
    eigenvalues: 
  0.072  0.128  0.142  0.144  0.244
    eigenvectors:
  0.000  0.526  0.000  0.451  0.023
  0.000  0.237  0.473  0.287  0.002
  0.000  0.233  0.526  0.239  0.002
  0.999  0.000  0.001  0.000  0.000
  0.000  0.004  0.000  0.023  0.973
    occupations:
  0.138  0.006  0.006 -0.000 -0.016
  0.006  0.139 -0.002 -0.001 -0.004
  0.006 -0.002  0.139  0.001 -0.004
 -0.000 -0.001  0.001  0.072 -0.000
 -0.016 -0.004 -0.004 -0.000  0.241
   spin  2
    eigenvalues: 
  0.984  0.993  0.994  0.997  1.001
    eigenvectors:
  0.005  0.000  0.000  0.995  0.000
  0.001  0.498  0.500  0.000  0.000
  0.001  0.499  0.499  0.000  0.000
  0.000  0.000  0.000  0.000  1.000
  0.993  0.002  0.000  0.005  0.000
    occupations:
  0.997  0.000  0.000  0.000 -0.001
  0.000  0.993 -0.001 -0.000 -0.000
  0.000 -0.001  0.993  0.000 -0.000
  0.000 -0.000  0.000  1.001  0.000
 -0.001 -0.000 -0.000  0.000  0.984
atomic mag. moment =    -4.238668
atom    5   Tr[ns(na)] (up, down, total) =   4.96845  0.73091  5.69936
   spin  1
    eigenvalues: 
  0.984  0.993  0.994  0.997  1.001
    eigenvectors:
  0.005  0.001  0.000  0.994  0.000
  0.002  0.498  0.500  0.000  0.000
  0.002  0.498  0.500  0.000  0.000
  0.000  0.000  0.000  0.000  1.000
  0.992  0.003  0.000  0.005  0.000
    occupations:
  0.997  0.000  0.000 -0.000 -0.001
  0.000  0.993 -0.001 -0.000 -0.000
  0.000 -0.001  0.993  0.000 -0.000
 -0.000 -0.000  0.000  1.001 -0.000
 -0.001 -0.000 -0.000 -0.000  0.984
   spin  2
    eigenvalues: 
  0.072  0.128  0.142  0.143  0.246
    eigenvectors:
  0.000  0.526  0.000  0.450  0.024
  0.001  0.235  0.499  0.263  0.002
  0.001  0.235  0.499  0.263  0.002
  0.999  0.000  0.001  0.000  0.000
  0.000  0.005  0.000  0.024  0.971
    occupations:
  0.138  0.006  0.006  0.000 -0.016
  0.006  0.139 -0.003 -0.002 -0.004
  0.006 -0.003  0.139  0.002 -0.004
  0.000 -0.002  0.002  0.072 -0.000
 -0.016 -0.004 -0.004 -0.000  0.243
atomic mag. moment =     4.237538
atom    6   Tr[ns(na)] (up, down, total) =   4.96928  0.72639  5.69566
   spin  1
    eigenvalues: 
  0.984  0.993  0.994  0.997  1.001
    eigenvectors:
  0.006  0.002  0.000  0.992  0.000
  0.001  0.498  0.500  0.001  0.000
  0.001  0.498  0.500  0.001  0.000
  0.000  0.000  0.000  0.000  1.000
  0.991  0.002  0.000  0.007  0.000
    occupations:
  0.997  0.000  0.000 -0.000 -0.001
  0.000  0.994 -0.001 -0.000 -0.000
  0.000 -0.001  0.994  0.000 -0.000
 -0.000 -0.000  0.000  1.001 -0.000
 -0.001 -0.000 -0.000 -0.000  0.984
   spin  2
    eigenvalues: 
  0.072  0.127  0.143  0.143  0.242
    eigenvectors:
  0.000  0.597  0.000  0.382  0.021
  0.001  0.199  0.499  0.299  0.002
  0.001  0.199  0.499  0.299  0.002
  0.999  0.000  0.001  0.000  0.000
  0.000  0.005  0.000  0.021  0.974
    occupations:
  0.136  0.006  0.006  0.000 -0.015
  0.006  0.140 -0.003 -0.002 -0.004
  0.006 -0.003  0.140  0.002 -0.004
  0.000 -0.002  0.002  0.072 -0.000
 -0.015 -0.004 -0.004 -0.000  0.239
atomic mag. moment =     4.242889
atom    7   Tr[ns(na)] (up, down, total) =   0.72991  4.96858  5.69850
   spin  1
    eigenvalues: 
  0.072  0.128  0.142  0.144  0.244
    eigenvectors:
  0.000  0.526  0.000  0.451  0.023
  0.000  0.237  0.473  0.287  0.002
  0.000  0.233  0.526  0.239  0.002
  0.999  0.000  0.001  0.000  0.000
  0.000  0.004  0.000  0.023  0.973
    occupations:
  0.138  0.006  0.006 -0.000 -0.016
  0.006  0.139 -0.002 -0.001 -0.004
  0.006 -0.002  0.139  0.001 -0.004
 -0.000 -0.001  0.001  0.072 -0.000
 -0.016 -0.004 -0.004 -0.000  0.241
   spin  2
    eigenvalues: 
  0.984  0.993  0.994  0.997  1.001
    eigenvectors:
  0.005  0.000  0.000  0.995  0.000
  0.001  0.498  0.500  0.000  0.000
  0.001  0.499  0.499  0.000  0.000
  0.000  0.000  0.000  0.000  1.000
  0.993  0.002  0.000  0.005  0.000
    occupations:
  0.997  0.000  0.000  0.000 -0.001
  0.000  0.993 -0.001 -0.000 -0.000
  0.000 -0.001  0.993  0.000 -0.000
  0.000 -0.000  0.000  1.001  0.000
 -0.001 -0.000 -0.000  0.000  0.984
atomic mag. moment =    -4.238668
atom    8   Tr[ns(na)] (up, down, total) =   0.72991  4.96858  5.69850
   spin  1
    eigenvalues: 
  0.072  0.128  0.142  0.144  0.244
    eigenvectors:
  0.000  0.526  0.000  0.451  0.023
  0.000  0.233  0.526  0.239  0.002
  0.000  0.237  0.473  0.287  0.002
  0.999  0.000  0.001  0.000  0.000
  0.000  0.004  0.000  0.023  0.973
    occupations:
  0.138  0.006  0.006  0.000 -0.016
  0.006  0.139 -0.002 -0.001 -0.004
  0.006 -0.002  0.139  0.001 -0.004
  0.000 -0.001  0.001  0.072  0.000
 -0.016 -0.004 -0.004  0.000  0.241
   spin  2
    eigenvalues: 
  0.984  0.993  0.994  0.997  1.001
    eigenvectors:
  0.005  0.000  0.000  0.995  0.000
  0.001  0.499  0.499  0.000  0.000
  0.001  0.498  0.500  0.000  0.000
  0.000  0.000  0.000  0.000  1.000
  0.993  0.002  0.000  0.005  0.000
    occupations:
  0.997  0.000  0.000 -0.000 -0.001
  0.000  0.993 -0.001 -0.000 -0.000
  0.000 -0.001  0.993  0.000 -0.000
 -0.000 -0.000  0.000  1.001 -0.000
 -0.001 -0.000 -0.000 -0.000  0.984
atomic mag. moment =    -4.238668
N of occupied +U levels =   45.587882
 --- exit write_ns ---

 ------ SPIN UP ------------


          k = 0.0000 0.0000 0.0000 ( 13629 PWs)   bands (ev):

   -66.4371 -66.4318 -66.4269 -66.4245 -61.8483 -61.8468 -61.8462 -61.8462
   -35.2063 -35.1999 -35.1974 -35.1943 -35.1830 -35.1779 -35.1738 -35.1716
   -35.1466 -35.1420 -35.1349 -35.1327 -30.6797 -30.6796 -30.6795 -30.6793
   -30.6735 -30.6734 -30.6734 -30.6732 -30.6662 -30.6661 -30.6660 -30.6658
     5.9691   7.4665   7.8024   8.0194   8.2886   8.3919   8.5054   8.5633
     8.7073   8.7112   8.9114   9.3044   9.3908   9.4175   9.4506   9.4701
     9.4756   9.5363   9.5730   9.5940   9.6047   9.6787   9.6961   9.7473
     9.8021   9.8531   9.8608   9.8915   9.8943   9.9059   9.9449   9.9582
     9.9976  10.0126  10.0419  10.0671  10.1599  10.2371  10.2470  10.2748
    10.2765  10.3129  10.3494  10.3540  10.3546  10.3600  10.3939  10.4155
    10.4539  10.4945  10.5033  10.5492  10.5944  10.6222  10.7475  10.7797
    10.8063  10.8266  10.8467  11.0834  11.1360  11.1467  11.1753  11.2136
    11.2495  11.3064  11.3380  11.3415  11.3665  11.4870  11.5151  11.6755
    11.7772  11.8149  11.8274  11.8332  11.8522  11.8567  11.9138  11.9511
    12.0751  12.0977  12.1836  12.2512  12.2725  12.2941  12.3141  12.3503
    12.3684  12.4541  12.4645  12.5213  12.5334  12.6279  12.6834  12.7072
    12.7082  12.7091  12.7412  12.7783  12.8176  12.8422  12.9726  13.0716
    13.0925  13.2782  13.2884  13.3550  13.3981  14.1491  14.2094  14.9816
    15.2053  15.2609  15.6115  15.9230  15.9836  15.9934  16.5756  16.6115
    16.7962  17.0962  17.1374  17.1594  17.1654  17.3753  17.4144  17.5481
    17.5645  17.5694  17.5985  17.8397  17.8505  17.9899  18.1286  18.1747
    18.5927  18.8744  19.0239  19.0655  19.1739  19.3287  19.4979  19.6674
    19.7705  19.9039

          k = 0.0000 0.0000-0.5441 ( 13704 PWs)   bands (ev):

   -66.4370 -66.4317 -66.4269 -66.4245 -61.8483 -61.8469 -61.8462 -61.8462
   -35.2063 -35.1999 -35.1974 -35.1944 -35.1830 -35.1779 -35.1738 -35.1716
   -35.1466 -35.1420 -35.1349 -35.1327 -30.6797 -30.6796 -30.6795 -30.6793
   -30.6736 -30.6735 -30.6735 -30.6733 -30.6662 -30.6660 -30.6660 -30.6658
     6.5601   7.6236   8.0375   8.2598   8.4126   8.5716   8.7718   8.8093
     8.8107   8.8541   8.9228   8.9631   9.0793   9.0925   9.0992   9.1804
     9.1910   9.1998   9.2260   9.4586   9.5004   9.5223   9.6610   9.6669
     9.6984   9.7010   9.7729   9.7812   9.7881   9.8542   9.8997   9.9140
     9.9440   9.9448  10.0389  10.0401  10.0828  10.1681  10.2308  10.2501
    10.2889  10.3015  10.3295  10.3432  10.3450  10.4269  10.4307  10.4765
    10.4852  10.5244  10.6086  10.6091  10.7283  10.7345  10.7500  10.8104
    10.8818  10.8897  10.9821  11.1545  11.2989  11.3083  11.3407  11.5123
    11.5295  11.5344  11.6079  11.6431  11.6569  11.6587  11.6666  11.7154
    11.7603  11.8103  11.8657  11.8857  11.9026  11.9511  12.0074  12.0675
    12.0870  12.0925  12.0934  12.1334  12.1352  12.2132  12.2269  12.2367
    12.2789  12.3696  12.3833  12.5245  12.5688  12.5878  12.5888  12.6212
    12.6903  12.7065  12.8291  12.8766  12.8935  12.8962  12.9065  12.9288
    12.9320  13.1815  13.4040  13.4796  14.0279  14.0851  14.1163  14.1257
    14.1474  14.5594  15.3420  15.4156  15.4618  15.4693  16.2586  16.8109
    16.9824  17.0428  17.1753  17.2810  17.2962  17.3064  17.3729  17.4267
    17.5337  17.5351  17.6285  17.7308  17.7352  17.8270  17.8751  17.8922
    17.9676  18.4256  18.7251  18.7589  18.8962  18.9120  19.3386  19.5124
    19.6225  19.6640

          k = 0.0000 0.0000 1.0883 ( 13706 PWs)   bands (ev):

   -66.4370 -66.4317 -66.4268 -66.4245 -61.8483 -61.8470 -61.8462 -61.8462
   -35.2063 -35.1999 -35.1975 -35.1944 -35.1830 -35.1779 -35.1738 -35.1716
   -35.1466 -35.1420 -35.1349 -35.1327 -30.6797 -30.6796 -30.6795 -30.6793
   -30.6737 -30.6736 -30.6736 -30.6734 -30.6661 -30.6660 -30.6659 -30.6658
     7.7927   8.0187   8.2908   8.3365   8.4986   8.5689   8.5704   8.7099
     8.7126   8.7377   8.7984   8.8539   8.8788   8.9001   9.0615   9.2034
     9.2747   9.3862   9.4115   9.4297   9.4514   9.4700   9.5376   9.6195
     9.6555   9.6973   9.7669   9.7684   9.8023   9.8589   9.8598   9.8954
     9.9022   9.9035   9.9429   9.9566  10.0073  10.0205  10.1160  10.1647
    10.2074  10.2184  10.2415  10.2777  10.2808  10.3105  10.3192  10.3477
    10.3660  10.3687  10.3790  10.3867  10.3931  10.4143  10.6626  10.7822
    10.8465  10.9217  10.9338  11.0832  11.2848  11.3106  11.3657  11.4533
    11.4908  11.5152  11.5163  11.5179  11.6702  11.6874  11.7709  11.8306
    11.8368  11.8512  11.9146  12.0149  12.1705  12.1726  12.1832  12.1901
    12.1977  12.2547  12.2793  12.3512  12.3686  12.4105  12.4493  12.4551
    12.5198  12.5507  12.6060  12.6125  12.6308  12.6411  12.6798  12.7036
    12.7058  12.7345  12.7680  12.8171  12.9674  13.0635  13.1004  13.1160
    13.2757  13.2840  13.2876  13.2915  13.3617  13.3961  13.7863  13.7948
    14.1446  14.2132  14.9856  15.2046  15.3768  15.9948  16.2361  16.5803
    16.6591  16.6947  17.1283  17.1331  17.1786  17.3865  17.4768  17.4936
    17.5418  17.5537  17.5633  17.5681  17.5994  17.8026  17.8563  17.8634
    17.9946  18.1687  18.1700  18.5790  18.7085  18.8701  18.8741  19.0641
    19.4583  19.6688

          k =-0.1768-0.1768-0.1360 ( 13673 PWs)   bands (ev):

   -66.4370 -66.4317 -66.4269 -66.4245 -61.8480 -61.8467 -61.8465 -61.8463
   -35.2063 -35.1999 -35.1974 -35.1943 -35.1830 -35.1779 -35.1738 -35.1716
   -35.1466 -35.1420 -35.1349 -35.1327 -30.6797 -30.6796 -30.6795 -30.6793
   -30.6735 -30.6734 -30.6734 -30.6732 -30.6662 -30.6661 -30.6660 -30.6659
     6.1313   7.3074   7.6160   7.9236   8.4389   8.5010   8.5429   8.6971
     8.7084   8.8441   9.0614   9.2305   9.2441   9.3140   9.3749   9.3941
     9.4807   9.4927   9.5197   9.5404   9.5838   9.6166   9.6643   9.6654
     9.7029   9.7173   9.7852   9.8146   9.9278   9.9340   9.9848  10.0670
    10.0883  10.0905  10.1012  10.1174  10.1639  10.1696  10.2039  10.2573
    10.2605  10.2726  10.3193  10.4038  10.4447  10.4632  10.5121  10.5419
    10.5446  10.5525  10.6146  10.6219  10.6689  10.6825  10.7690  10.7732
    10.8305  10.9431  11.0067  11.0179  11.0568  11.0577  11.0845  11.1621
    11.2084  11.2662  11.2876  11.3309  11.4827  11.5274  11.5289  11.5685
    11.6687  11.6996  11.8298  11.8498  11.8635  11.8756  11.8909  11.9189
    11.9607  11.9738  12.0569  12.1156  12.1224  12.2531  12.2574  12.2915
    12.2983  12.3445  12.3527  12.3939  12.4988  12.5352  12.5772  12.6025
    12.6822  12.7463  12.7621  12.7842  12.8593  12.8651  12.9205  12.9342
    13.0365  13.1076  13.5061  14.0881  14.3213  14.4909  14.6769  15.1601
    15.4272  15.4733  15.4741  15.6569  15.8788  15.9238  16.3488  16.3516
    16.7259  17.1280  17.1955  17.2082  17.2909  17.3577  17.4098  17.4984
    17.5356  17.6076  17.7267  17.7602  17.8646  18.0014  18.1536  18.2091
    18.3150  18.4820  18.5337  18.5586  18.9780  19.0650  19.0702  19.3157
    19.3593  20.0006

          k =-0.1768-0.1768-0.6802 ( 13666 PWs)   bands (ev):

   -66.4370 -66.4317 -66.4269 -66.4245 -61.8480 -61.8468 -61.8465 -61.8463
   -35.2063 -35.1999 -35.1974 -35.1944 -35.1830 -35.1779 -35.1738 -35.1716
   -35.1466 -35.1420 -35.1349 -35.1327 -30.6797 -30.6796 -30.6795 -30.6793
   -30.6736 -30.6735 -30.6734 -30.6733 -30.6661 -30.6660 -30.6660 -30.6659
     6.9815   7.0376   8.2703   8.3506   8.4480   8.5064   8.6256   8.8490
     8.9122   8.9147   8.9601   8.9605   9.0373   9.0472   9.0956   9.1950
     9.2094   9.2959   9.3028   9.4113   9.5194   9.5666   9.6166   9.6243
     9.6444   9.6473   9.7203   9.7243   9.7606   9.7840   9.7876   9.9224
     9.9261   9.9273   9.9954  10.0589  10.1281  10.1376  10.1564  10.3043
    10.3338  10.3441  10.3660  10.3714  10.4109  10.4342  10.4487  10.4904
    10.4975  10.5324  10.6654  10.6762  10.6790  10.7701  10.8993  10.9016
    10.9955  11.0877  11.0907  11.0975  11.1056  11.2099  11.3062  11.3199
    11.3629  11.3701  11.3888  11.4230  11.5592  11.5772  11.5874  11.7147
    11.7636  11.7746  11.7967  11.8180  11.8336  11.8710  11.9806  12.0410
    12.0554  12.0590  12.0619  12.1683  12.1721  12.2142  12.2594  12.2615
    12.3137  12.3844  12.3927  12.4568  12.4693  12.4943  12.5145  12.6053
    12.6289  12.6600  12.8324  12.8355  12.8668  12.8831  12.9393  12.9622
    12.9703  13.1683  13.7315  13.9437  14.1728  14.3737  14.3998  14.5794
    14.7963  14.9535  15.1147  15.5734  15.7312  15.8928  16.2866  16.3124
    16.3983  16.4035  17.1908  17.2004  17.2846  17.3100  17.3233  17.4806
    17.4936  17.5086  17.6678  17.7011  17.7484  17.7936  17.9238  18.0049
    18.0824  18.1253  18.1928  18.2434  18.6194  18.6420  19.1730  19.2953
    20.2806  20.6111

          k =-0.1768-0.1768 0.9522 ( 13713 PWs)   bands (ev):

   -66.4370 -66.4317 -66.4268 -66.4245 -61.8480 -61.8469 -61.8465 -61.8463
   -35.2063 -35.1999 -35.1975 -35.1944 -35.1830 -35.1779 -35.1738 -35.1716
   -35.1466 -35.1420 -35.1349 -35.1327 -30.6797 -30.6796 -30.6795 -30.6793
   -30.6736 -30.6736 -30.6735 -30.6734 -30.6660 -30.6660 -30.6659 -30.6659
     7.6776   7.7893   8.3787   8.4328   8.5543   8.6187   8.6320   8.6701
     8.6953   8.7404   8.7578   8.9314   8.9333   8.9404   9.0201   9.0505
     9.0728   9.2507   9.4016   9.4076   9.4147   9.4275   9.4688   9.4816
     9.5629   9.5731   9.6060   9.7118   9.7693   9.8107   9.8638   9.8732
     9.8960   9.9755   9.9784  10.0261  10.0338  10.0506  10.0884  10.2206
    10.2515  10.2770  10.3212  10.3314  10.3476  10.3588  10.4162  10.4226
    10.4476  10.4900  10.5954  10.6184  10.6541  10.7123  10.7836  10.8102
    10.9711  11.0010  11.0575  11.1247  11.2850  11.3713  11.3763  11.4340
    11.4841  11.4924  11.5632  11.5758  11.5784  11.8216  11.8678  11.9190
    11.9216  11.9421  12.0229  12.0426  12.0746  12.0887  12.1109  12.1455
    12.1875  12.2101  12.2257  12.2500  12.2812  12.3211  12.3329  12.4330
    12.4753  12.4825  12.5107  12.5841  12.6067  12.6530  12.6654  12.6703
    12.6744  12.8332  12.8524  12.8757  12.8852  12.9563  12.9765  13.0094
    13.0284  13.1263  13.1501  13.1692  13.6699  13.7276  13.7391  13.7957
    13.8114  13.9003  14.6960  14.9271  15.7710  15.8909  15.9156  16.2244
    16.2867  16.5300  17.1793  17.1899  17.3385  17.4281  17.4404  17.4492
    17.5039  17.5047  17.5317  17.5749  17.5997  17.7411  17.7676  17.8362
    17.9959  18.0715  18.3090  18.6259  19.0264  19.0413  19.1673  19.2291
    19.7669  19.8195

          k =-0.1768-0.1768 0.4081 ( 13683 PWs)   bands (ev):

   -66.4370 -66.4317 -66.4269 -66.4245 -61.8480 -61.8468 -61.8465 -61.8463
   -35.2063 -35.1999 -35.1974 -35.1944 -35.1830 -35.1779 -35.1738 -35.1716
   -35.1466 -35.1420 -35.1349 -35.1327 -30.6797 -30.6796 -30.6795 -30.6793
   -30.6736 -30.6735 -30.6734 -30.6733 -30.6661 -30.6660 -30.6660 -30.6659
     6.4268   7.8943   8.1363   8.1468   8.3574   8.4710   8.6365   8.7070
     8.7324   8.7515   8.8294   9.0418   9.0809   9.0849   9.1464   9.2626
     9.2758   9.2793   9.3599   9.3906   9.3986   9.4649   9.5973   9.6227
     9.6340   9.6457   9.7183   9.7714   9.8464   9.9196   9.9299   9.9763
    10.0066  10.0178  10.0204  10.0708  10.0808  10.1169  10.1941  10.2322
    10.2496  10.2878  10.3142  10.3205  10.3923  10.4161  10.4443  10.4838
    10.5267  10.5342  10.6483  10.7898  10.8365  10.8737  10.9200  10.9270
    10.9350  11.1090  11.1300  11.1854  11.2052  11.2690  11.3498  11.3909
    11.4254  11.4477  11.5452  11.5559  11.5900  11.6769  11.7674  11.7824
    11.9021  11.9305  11.9553  11.9750  11.9781  12.0284  12.0887  12.1090
    12.1126  12.1159  12.1815  12.2190  12.2249  12.2271  12.2404  12.2589
    12.3487  12.4117  12.4229  12.4947  12.5022  12.5318  12.5598  12.5992
    12.6008  12.7383  12.7387  12.7449  12.8392  12.8851  12.8883  12.8889
    12.8915  13.0153  13.0855  13.1594  13.3795  13.6826  13.8371  14.1243
    14.6706  14.9033  14.9436  15.2720  15.6478  15.9735  16.1004  16.4193
    16.7903  17.0816  17.1134  17.2660  17.3858  17.4273  17.4502  17.4687
    17.4740  17.4749  17.5692  17.6555  17.8423  17.8685  17.8750  17.9708
    18.1907  18.2645  18.7479  18.7950  18.8240  19.1415  19.1800  19.1836
    20.2167  20.2535

          k = 0.3536 0.3536 0.2721 ( 13708 PWs)   bands (ev):

   -66.4370 -66.4317 -66.4269 -66.4246 -61.8473 -61.8473 -61.8465 -61.8465
   -35.2063 -35.1999 -35.1974 -35.1943 -35.1830 -35.1779 -35.1738 -35.1716
   -35.1466 -35.1421 -35.1349 -35.1328 -30.6796 -30.6796 -30.6794 -30.6794
   -30.6735 -30.6735 -30.6733 -30.6733 -30.6661 -30.6661 -30.6660 -30.6660
     6.5982   6.5992   8.0091   8.0100   8.2350   8.2360   8.7738   8.7755
     8.9106   8.9116   9.0022   9.0041   9.3654   9.3659   9.3683   9.3685
     9.4317   9.4328   9.4860   9.4878   9.4922   9.4928   9.6032   9.6035
     9.6685   9.6689   9.8214   9.8221   9.8758   9.8759   9.9646   9.9656
    10.0775  10.0787  10.1274  10.1275  10.1877  10.1879  10.2856  10.2867
    10.3439  10.3444  10.4821  10.4828  10.4883  10.4884  10.5032  10.5038
    10.5735  10.5756  10.6712  10.6738  10.7458  10.7481  10.8220  10.8241
    10.9778  10.9783  11.0575  11.0579  11.0594  11.0596  11.2189  11.2191
    11.2512  11.2513  11.2539  11.2569  11.3367  11.3374  11.5746  11.5794
    11.5797  11.5797  11.6877  11.6888  11.7589  11.7590  11.8657  11.8661
    11.9848  11.9861  11.9911  11.9922  12.1284  12.1300  12.2505  12.2515
    12.2668  12.2675  12.2946  12.2946  12.4496  12.4497  12.5623  12.5627
    12.7308  12.7314  12.7442  12.7447  12.8199  12.8202  12.9511  12.9512
    12.9886  12.9911  14.4202  14.4209  14.9437  14.9450  14.9855  14.9863
    15.6122  15.6125  15.8058  15.8066  15.8342  15.8360  15.8681  15.8686
    16.9058  16.9059  17.1501  17.1502  17.3155  17.3156  17.3887  17.3888
    17.4365  17.4366  17.8071  17.8072  17.9429  17.9431  18.0857  18.0858
    18.1553  18.1557  18.3147  18.3147  18.3911  18.3913  19.0652  19.0659
    20.1570  20.1580

          k = 0.3536 0.3536-0.2721 ( 13700 PWs)   bands (ev):

   -66.4370 -66.4317 -66.4269 -66.4246 -61.8473 -61.8473 -61.8466 -61.8465
   -35.2063 -35.1999 -35.1974 -35.1944 -35.1830 -35.1779 -35.1738 -35.1716
   -35.1466 -35.1420 -35.1349 -35.1327 -30.6797 -30.6796 -30.6794 -30.6794
   -30.6735 -30.6735 -30.6734 -30.6734 -30.6660 -30.6660 -30.6660 -30.6660
     6.5990   7.6202   8.0105   8.2361   8.4520   8.5455   8.6916   8.7750
     8.7760   8.7841   8.9166   8.9387   9.0016   9.0487   9.1521   9.2632
     9.3596   9.3696   9.3698   9.4076   9.4281   9.4777   9.4777   9.4907
     9.5988   9.6041   9.6693   9.8024   9.8206   9.8716   9.9203   9.9439
     9.9553   9.9635  10.0831  10.1140  10.1294  10.1809  10.1907  10.2186
    10.2929  10.3100  10.3451  10.4071  10.4405  10.4807  10.4895  10.5037
    10.5792  10.6380  10.6828  10.7351  10.7470  10.7719  10.8276  10.9777
    11.0447  11.0563  11.0585  11.2143  11.2163  11.2445  11.2518  11.3203
    11.3330  11.3971  11.4236  11.5026  11.5755  11.5773  11.6892  11.7599
    11.8030  11.8647  11.8659  11.9194  11.9331  11.9840  11.9959  12.0042
    12.0077  12.0512  12.1043  12.1352  12.2040  12.2224  12.2532  12.2670
    12.2887  12.2954  12.3101  12.4405  12.4494  12.4625  12.5589  12.6535
    12.6741  12.7015  12.7338  12.7472  12.7944  12.8180  12.9520  12.9719
    12.9906  13.0255  13.3343  13.3556  13.8490  14.0878  14.4217  14.8332
    14.9630  14.9896  15.1849  15.6134  15.8024  15.8182  15.8349  15.9404
    16.4061  16.9080  17.1473  17.1543  17.3122  17.3596  17.3896  17.4192
    17.5403  17.5406  17.6343  17.6373  17.7239  17.8170  17.9445  18.0000
    18.0897  18.2048  18.2738  18.4135  18.5782  19.0653  19.0663  19.5558
    20.1170  20.1566

          k = 0.3536 0.3536 1.3603 ( 13692 PWs)   bands (ev):

   -66.4370 -66.4317 -66.4269 -66.4245 -61.8473 -61.8473 -61.8466 -61.8466
   -35.2063 -35.1999 -35.1975 -35.1944 -35.1830 -35.1779 -35.1738 -35.1716
   -35.1466 -35.1420 -35.1349 -35.1327 -30.6797 -30.6797 -30.6794 -30.6794
   -30.6736 -30.6736 -30.6735 -30.6735 -30.6660 -30.6660 -30.6659 -30.6659
     7.6210   7.6212   8.4519   8.4533   8.5493   8.5500   8.6915   8.6916
     8.7795   8.7796   8.7796   8.7804   8.9345   8.9355   9.0424   9.0446
     9.1512   9.1519   9.2616   9.2633   9.3742   9.3744   9.4046   9.4051
     9.4724   9.4745   9.5997   9.5999   9.7996   9.8003   9.9225   9.9230
     9.9426   9.9427   9.9563   9.9566  10.1173  10.1175  10.1826  10.1832
    10.2230  10.2238  10.3112  10.3116  10.4054  10.4075  10.4397  10.4404
    10.6339  10.6341  10.7352  10.7368  10.7685  10.7688  11.0482  11.0485
    11.2154  11.2159  11.3208  11.3229  11.3942  11.3947  11.4225  11.4241
    11.5004  11.5005  11.8085  11.8100  11.8677  11.8689  11.9157  11.9171
    11.9311  11.9323  11.9953  11.9976  12.0007  12.0029  12.0562  12.0563
    12.1075  12.1083  12.2076  12.2084  12.2254  12.2259  12.2890  12.2895
    12.3133  12.3141  12.4406  12.4410  12.4655  12.4664  12.6511  12.6512
    12.6732  12.6740  12.7022  12.7025  12.7951  12.7968  12.9700  12.9709
    13.0238  13.0249  13.3253  13.3268  13.3576  13.3584  13.8482  13.8484
    14.0863  14.0869  14.8316  14.8323  15.1870  15.1877  15.9316  15.9321
    16.4083  16.4084  17.1357  17.1358  17.4033  17.4034  17.4967  17.4968
    17.5008  17.5008  17.6336  17.6337  17.6880  17.6880  17.7201  17.7201
    18.0040  18.0041  18.5800  18.5802  19.0667  19.0667  19.5595  19.5598
    20.1164  20.1175

          k = 0.1768-0.1768 0.0000 ( 13644 PWs)   bands (ev):

   -66.4370 -66.4317 -66.4269 -66.4245 -61.8480 -61.8467 -61.8465 -61.8463
   -35.2063 -35.1999 -35.1974 -35.1943 -35.1830 -35.1779 -35.1738 -35.1716
   -35.1466 -35.1420 -35.1349 -35.1327 -30.6796 -30.6796 -30.6795 -30.6793
   -30.6735 -30.6734 -30.6734 -30.6732 -30.6662 -30.6661 -30.6660 -30.6659
     6.0931   6.9895   8.1044   8.1411   8.3332   8.3888   8.5443   8.5749
     8.6053   8.7066   8.8477   9.2557   9.2582   9.3871   9.4498   9.4526
     9.4767   9.5018   9.5618   9.5991   9.6798   9.7340   9.7650   9.7772
     9.7790   9.7957   9.8236   9.8349   9.8593   9.8958   9.9422   9.9636
     9.9769   9.9786  10.0746  10.1185  10.1268  10.1499  10.1536  10.2203
    10.2402  10.2775  10.2909  10.3371  10.3572  10.5034  10.5072  10.5104
    10.5448  10.5535  10.5702  10.6137  10.6367  10.7069  10.7719  10.8099
    10.8677  10.8842  11.0963  11.1053  11.1432  11.1542  11.1838  11.1924
    11.2354  11.2438  11.3087  11.3944  11.4276  11.4442  11.6383  11.6550
    11.7153  11.7753  11.8117  11.8579  11.9187  11.9248  12.0012  12.0044
    12.0090  12.1581  12.1604  12.2583  12.2741  12.2917  12.2923  12.2994
    12.3017  12.3104  12.3928  12.3943  12.4467  12.5217  12.5915  12.5998
    12.6769  12.7593  12.7630  12.7882  12.7997  12.8486  12.8904  12.9549
    13.0152  13.0954  13.1523  13.3534  13.9313  13.9328  14.2014  15.1943
    15.4256  15.6539  15.6630  15.7720  16.0677  16.1100  16.2052  16.5284
    16.8242  17.0294  17.0582  17.1745  17.1936  17.1938  17.4983  17.5032
    17.5188  17.5837  17.6111  17.6446  17.7939  18.0117  18.0389  18.2698
    18.3302  18.3568  18.7367  18.7785  19.2505  19.2648  19.4321  19.6679
    19.9896  20.0008

          k = 0.1768-0.1768-0.5441 ( 13695 PWs)   bands (ev):

   -66.4370 -66.4317 -66.4269 -66.4245 -61.8480 -61.8468 -61.8465 -61.8463
   -35.2063 -35.1999 -35.1974 -35.1944 -35.1830 -35.1779 -35.1738 -35.1716
   -35.1466 -35.1420 -35.1349 -35.1327 -30.6796 -30.6796 -30.6795 -30.6793
   -30.6736 -30.6735 -30.6735 -30.6733 -30.6661 -30.6660 -30.6660 -30.6659
     6.6756   7.5280   7.7272   8.3231   8.5608   8.6354   8.7642   8.7904
     8.8449   8.9079   8.9085   8.9561   9.0179   9.1356   9.1427   9.1716
     9.2360   9.2670   9.2862   9.3479   9.3561   9.5057   9.5075   9.5435
     9.5704   9.6772   9.6976   9.7029   9.7648   9.8176   9.8205   9.9544
     9.9873   9.9933  10.0088  10.0744  10.1092  10.2217  10.2363  10.2381
    10.2718  10.2981  10.3756  10.4402  10.5099  10.5276  10.5536  10.5904
    10.5994  10.6599  10.7015  10.7178  10.7241  10.8118  10.8568  10.8751
    10.8843  10.9286  11.0070  11.2551  11.3345  11.3664  11.4015  11.4034
    11.4070  11.4527  11.5382  11.5495  11.5521  11.5665  11.6580  11.6946
    11.7622  11.7640  11.7853  11.8781  11.8862  11.9313  11.9882  12.0027
    12.0763  12.0882  12.1002  12.1315  12.1553  12.1919  12.2757  12.2810
    12.3388  12.3700  12.4433  12.4496  12.4714  12.4937  12.5224  12.5893
    12.6057  12.6587  12.7534  12.7664  12.8185  12.8196  12.8767  12.8856
    13.2658  13.3646  13.4172  13.4706  13.5224  13.7516  14.1729  14.4517
    14.5549  15.0448  15.0994  15.5905  15.6571  15.7802  15.9131  16.4276
    16.5920  16.7478  17.2101  17.2540  17.3330  17.3556  17.4350  17.5085
    17.5642  17.5816  17.6132  17.6178  17.6801  17.7451  17.9541  17.9979
    18.0126  18.3844  18.7470  18.7550  18.9032  19.0389  19.1115  19.3078
    19.8749  20.1518

          k = 0.1768-0.1768 1.0883 ( 13696 PWs)   bands (ev):

   -66.4370 -66.4317 -66.4269 -66.4245 -61.8480 -61.8469 -61.8465 -61.8463
   -35.2063 -35.1999 -35.1975 -35.1944 -35.1830 -35.1779 -35.1738 -35.1716
   -35.1466 -35.1420 -35.1349 -35.1327 -30.6797 -30.6796 -30.6795 -30.6793
   -30.6736 -30.6736 -30.6736 -30.6734 -30.6660 -30.6660 -30.6659 -30.6658
     7.8752   8.1038   8.3354   8.4083   8.4875   8.5372   8.5787   8.5862
     8.6060   8.6954   8.7104   8.8376   8.8451   8.9163   8.9269   9.2597
     9.2853   9.3853   9.4460   9.4477   9.4933   9.5023   9.5024   9.6008
     9.6428   9.6740   9.6767   9.7777   9.8183   9.8229   9.8356   9.8613
[...]
    11.8151  11.8158  11.8969  11.8975  11.9832  11.9837  12.0387  12.0393
    12.0759  12.0762  12.1504  12.1514  12.1745  12.1746  12.1917  12.1918
    12.2423  12.2437  12.2867  12.2867  12.3997  12.3999  12.5476  12.5476
    12.5917  12.5917  12.7666  12.7678  12.8069  12.8086  12.8093  12.8098
    12.9945  12.9948  13.1078  13.1078  14.1615  14.1626  14.8762  14.8767
    15.7206  15.7282  15.8128  15.8142  16.0739  16.0740  16.3111  16.3156
    16.6731  16.6745  16.9123  16.9148  17.1854  17.1913  17.3409  17.3442
    17.5694  17.5700  17.6762  17.6818  17.9823  17.9836  18.0947  18.0999
    18.3390  18.3404  18.7115  18.7126  19.0197  19.0212  19.6890  19.6910
    20.1233  20.1245

          k =-0.3536 0.3536-0.5441 ( 13686 PWs)   bands (ev):

   -66.4302 -66.4302 -66.4296 -66.4296 -61.8495 -61.8481 -61.8462 -61.8443
   -35.1994 -35.1994 -35.1993 -35.1993 -35.1766 -35.1766 -35.1765 -35.1765
   -35.1391 -35.1391 -35.1388 -35.1388 -30.6829 -30.6802 -30.6779 -30.6776
   -30.6757 -30.6748 -30.6730 -30.6708 -30.6679 -30.6676 -30.6659 -30.6631
     7.0110   7.0118   8.0059   8.0069   8.6691   8.6694   8.7891   8.7906
     8.8109   8.8111   9.0621   9.0626   9.0948   9.0959   9.1949   9.1950
     9.2824   9.2833   9.2879   9.2885   9.3560   9.3569   9.3868   9.3880
     9.5506   9.5517   9.6096   9.6101   9.7272   9.7286   9.9046   9.9048
     9.9848   9.9849  10.1485  10.1491  10.1594  10.1599  10.1799  10.1812
    10.3073  10.3077  10.4793  10.4793  10.5742  10.5747  10.6763  10.6770
    10.7327  10.7328  10.8623  10.8627  10.9620  10.9628  11.0111  11.0116
    11.0339  11.0344  11.1012  11.1020  11.1506  11.1508  11.3307  11.3310
    11.3832  11.3840  11.5271  11.5274  11.5855  11.5856  11.6582  11.6584
    11.6608  11.6615  11.7914  11.7914  11.8759  11.8762  11.8859  11.8871
    12.1179  12.1183  12.1478  12.1479  12.1938  12.1942  12.1984  12.1992
    12.3470  12.3470  12.3999  12.4000  12.4259  12.4267  12.5222  12.5228
    12.5529  12.5533  12.6863  12.6866  12.7745  12.7761  12.8703  12.8718
    13.4393  13.4396  13.4481  13.4483  13.7887  13.7891  14.2765  14.2784
    14.6838  14.6840  15.7672  15.7710  15.9491  15.9510  16.0378  16.0387
    16.1192  16.1210  17.2855  17.2945  17.3307  17.3337  17.4732  17.4745
    17.5302  17.5343  17.6690  17.6716  17.7614  17.7652  18.1492  18.1512
    18.2881  18.2912  18.2916  18.2928  18.8119  18.8156  19.2275  19.2280
    20.4480  20.4486

          k =-0.3536 0.3536 1.0883 ( 13708 PWs)   bands (ev):

   -66.4302 -66.4302 -66.4296 -66.4296 -61.8495 -61.8481 -61.8462 -61.8443
   -35.1995 -35.1995 -35.1993 -35.1993 -35.1766 -35.1766 -35.1765 -35.1765
   -35.1390 -35.1390 -35.1388 -35.1388 -30.6829 -30.6802 -30.6779 -30.6776
   -30.6758 -30.6748 -30.6731 -30.6709 -30.6679 -30.6675 -30.6658 -30.6630
     8.1161   8.1168   8.3263   8.3278   8.4547   8.4548   8.5855   8.5859
     8.6424   8.6426   8.6925   8.6928   8.9212   8.9222   9.0785   9.0814
     9.0995   9.1001   9.5448   9.5449   9.5620   9.5635   9.5891   9.5902
     9.6490   9.6507   9.7100   9.7112   9.8188   9.8198   9.8644   9.8656
     9.8861   9.8869   9.9864   9.9869  10.0117  10.0118  10.0743  10.0747
    10.1121  10.1121  10.1620  10.1631  10.2738  10.2739  10.2907  10.2908
    10.3467  10.3471  10.6813  10.6818  10.7947  10.7961  10.7961  10.7964
    11.0446  11.0449  11.1878  11.1887  11.2704  11.2708  11.4861  11.4861
    11.5114  11.5121  11.5325  11.5338  11.6716  11.6720  11.8156  11.8162
    11.8955  11.8961  11.9307  11.9308  12.0754  12.0756  12.1543  12.1550
    12.1725  12.1726  12.1757  12.1760  12.1903  12.1905  12.3268  12.3276
    12.4002  12.4003  12.4922  12.4922  12.5138  12.5146  12.5780  12.5780
    12.6110  12.6114  12.8029  12.8050  12.8073  12.8077  12.9919  12.9936
    13.1158  13.1159  13.2884  13.2884  14.1639  14.1649  14.7373  14.7399
    14.8638  14.8646  14.8766  14.8771  15.3845  15.3851  15.8141  15.8152
    16.0750  16.0751  17.2205  17.2275  17.3349  17.3385  17.3757  17.3801
    17.4956  17.4959  17.5357  17.5412  17.7574  17.7586  17.8393  17.8450
    18.0185  18.0198  18.0995  18.1046  18.1277  18.1308  18.8321  18.8329
    19.7777  19.7791

          k =-0.5303 0.1768-0.1360 ( 13660 PWs)   bands (ev):

   -66.4302 -66.4302 -66.4297 -66.4297 -61.8494 -61.8481 -61.8462 -61.8443
   -35.1994 -35.1994 -35.1993 -35.1993 -35.1766 -35.1766 -35.1765 -35.1765
   -35.1390 -35.1390 -35.1388 -35.1388 -30.6829 -30.6802 -30.6779 -30.6776
   -30.6756 -30.6747 -30.6729 -30.6707 -30.6680 -30.6676 -30.6659 -30.6631
     6.6069   6.6078   7.6947   7.6956   8.4595   8.4608   8.7943   8.7945
     8.9191   8.9196   8.9934   8.9941   9.2473   9.2482   9.3611   9.3617
     9.3705   9.3708   9.5220   9.5224   9.6284   9.6284   9.6542   9.6544
     9.6940   9.6943   9.8870   9.8881   9.9162   9.9169   9.9405   9.9410
    10.0168  10.0175  10.0187  10.0200  10.0853  10.0860  10.2920  10.2922
    10.3414  10.3416  10.3851  10.3856  10.4813  10.4823  10.5798  10.5803
    10.6896  10.6900  10.7194  10.7195  10.7866  10.7871  10.8300  10.8305
    11.0003  11.0006  11.0989  11.0993  11.1013  11.1016  11.2136  11.2137
    11.3099  11.3105  11.4232  11.4243  11.4652  11.4655  11.6072  11.6076
    11.6127  11.6139  11.6697  11.6701  11.8052  11.8054  11.9865  11.9866
    12.0128  12.0136  12.0251  12.0252  12.1914  12.1921  12.2409  12.2415
    12.2533  12.2542  12.3194  12.3200  12.3856  12.3858  12.5168  12.5169
    12.6577  12.6580  12.7087  12.7093  12.8736  12.8746  12.8942  12.8951
    13.1223  13.1227  13.6018  13.6021  14.2127  14.2131  14.9056  14.9062
    15.5507  15.5546  15.7898  15.7919  15.9749  15.9751  16.3682  16.3695
    16.6722  16.6729  17.0075  17.0100  17.3210  17.3251  17.3735  17.3768
    17.6481  17.6530  17.6805  17.6827  17.9329  17.9346  18.2146  18.2147
    18.2694  18.2701  18.3236  18.3252  18.8346  18.8375  19.6536  19.6546
    20.4134  20.4143

          k =-0.5303 0.1768-0.6802 ( 13694 PWs)   bands (ev):

   -66.4301 -66.4301 -66.4297 -66.4297 -61.8495 -61.8481 -61.8462 -61.8443
   -35.1994 -35.1994 -35.1993 -35.1993 -35.1766 -35.1766 -35.1765 -35.1765
   -35.1390 -35.1390 -35.1388 -35.1388 -30.6829 -30.6802 -30.6779 -30.6776
   -30.6757 -30.6748 -30.6730 -30.6708 -30.6679 -30.6676 -30.6659 -30.6631
     7.3925   7.3933   7.4656   7.4665   8.8020   8.8026   8.8370   8.8379
     9.0534   9.0538   9.0593   9.0600   9.1092   9.1100   9.1259   9.1260
     9.2123   9.2130   9.2390   9.2393   9.3849   9.3851   9.3877   9.3878
     9.4853   9.4859   9.6037   9.6042   9.6688   9.6688   9.8969   9.8977
    10.0367  10.0376  10.1022  10.1033  10.2434  10.2435  10.2755  10.2758
    10.3493  10.3499  10.4111  10.4119  10.5667  10.5667  10.5943  10.5947
    10.7789  10.7793  10.8476  10.8476  10.9243  10.9248  10.9339  10.9343
    11.0635  11.0643  11.0707  11.0715  11.0998  11.1000  11.2129  11.2131
    11.3346  11.3347  11.4037  11.4039  11.4852  11.4855  11.5892  11.5895
    11.6980  11.6983  11.7491  11.7492  11.8295  11.8298  11.9704  11.9710
    12.0129  12.0137  12.1454  12.1458  12.2299  12.2304  12.2579  12.2588
    12.3010  12.3012  12.3721  12.3725  12.4581  12.4581  12.4773  12.4778
    12.6438  12.6444  12.7227  12.7230  12.7884  12.7893  12.9182  12.9192
    13.7547  13.7561  13.8282  13.8285  14.0974  14.0976  14.1201  14.1206
    14.8588  14.8594  14.9789  14.9796  15.9878  15.9906  16.0640  16.0661
    16.6493  16.6505  17.2281  17.2290  17.3918  17.3996  17.4274  17.4309
    17.6407  17.6416  17.6678  17.6688  17.7854  17.7889  17.9526  17.9562
    18.2260  18.2271  18.5496  18.5511  18.6178  18.6204  18.9910  18.9918
    19.8770  19.8785

          k =-0.5303 0.1768 0.9522 ( 13712 PWs)   bands (ev):

   -66.4301 -66.4301 -66.4297 -66.4297 -61.8495 -61.8482 -61.8462 -61.8444
   -35.1995 -35.1995 -35.1993 -35.1993 -35.1766 -35.1766 -35.1765 -35.1765
   -35.1390 -35.1390 -35.1388 -35.1388 -30.6829 -30.6802 -30.6779 -30.6776
   -30.6758 -30.6748 -30.6731 -30.6709 -30.6679 -30.6675 -30.6658 -30.6630
     7.9935   7.9941   8.0671   8.0678   8.6363   8.6369   8.6669   8.6678
     8.7136   8.7137   8.7147   8.7148   8.9758   8.9768   9.0967   9.0989
     9.1880   9.1881   9.4044   9.4052   9.4152   9.4159   9.5228   9.5231
     9.5767   9.5773   9.6142   9.6149   9.6753   9.6758   9.6913   9.6914
     9.8725   9.8737   9.8943   9.8948  10.0507  10.0516  10.1525  10.1537
    10.1677  10.1687  10.3013  10.3016  10.4889  10.4891  10.5771  10.5772
    10.6483  10.6484  10.7344  10.7344  10.9060  10.9073  10.9263  10.9266
    11.0858  11.0861  11.1502  11.1504  11.1724  11.1727  11.5556  11.5563
    11.5671  11.5674  11.6088  11.6091  11.6400  11.6405  11.7935  11.7935
    11.9182  11.9186  11.9590  11.9591  12.0665  12.0666  12.0984  12.0986
    12.1294  12.1298  12.1995  12.1997  12.2092  12.2096  12.2774  12.2781
    12.3304  12.3308  12.4133  12.4139  12.4572  12.4577  12.5212  12.5214
    12.6828  12.6839  12.7562  12.7575  12.9436  12.9437  13.0339  13.0348
    13.1044  13.1048  13.1605  13.1608  13.7527  13.7536  14.2819  14.2830
    14.7376  14.7382  14.8217  14.8224  15.4642  15.4664  15.7837  15.7849
    16.3271  16.3287  17.3099  17.3116  17.3735  17.3738  17.3836  17.3879
    17.4215  17.4221  17.5706  17.5739  17.6503  17.6523  17.8536  17.8561
    18.0510  18.0552  18.1861  18.1893  18.2648  18.2658  18.4206  18.4227
    19.8591  19.8606

          k =-0.5303 0.1768 0.4081 ( 13670 PWs)   bands (ev):

   -66.4302 -66.4302 -66.4297 -66.4296 -61.8495 -61.8481 -61.8462 -61.8443
   -35.1994 -35.1994 -35.1993 -35.1993 -35.1766 -35.1766 -35.1765 -35.1765
   -35.1390 -35.1390 -35.1388 -35.1388 -30.6829 -30.6802 -30.6779 -30.6776
   -30.6757 -30.6748 -30.6730 -30.6708 -30.6679 -30.6675 -30.6659 -30.6631
     6.8854   6.8862   8.4104   8.4110   8.4663   8.4672   8.6146   8.6148
     8.6830   8.6843   9.0360   9.0370   9.2051   9.2055   9.2597   9.2611
     9.2670   9.2676   9.3240   9.3242   9.3987   9.3989   9.4970   9.4973
     9.5736   9.5742   9.6669   9.6679   9.6928   9.6934   9.7395   9.7404
     9.9428   9.9434  10.1007  10.1012  10.1228  10.1237  10.1460  10.1475
    10.3056  10.3058  10.4503  10.4510  10.6248  10.6250  10.7369  10.7374
    10.7548  10.7554  10.8376  10.8378  10.8971  10.8974  11.0494  11.0496
    11.0960  11.0970  11.2399  11.2399  11.2953  11.2959  11.3799  11.3801
    11.4471  11.4472  11.5180  11.5183  11.5324  11.5329  11.6701  11.6705
    11.7549  11.7558  11.8337  11.8350  11.9841  11.9843  12.0638  12.0645
    12.0957  12.0958  12.1634  12.1636  12.2157  12.2162  12.2480  12.2482
    12.3051  12.3051  12.3520  12.3525  12.4957  12.4958  12.5306  12.5310
    12.5600  12.5604  12.6708  12.6710  12.7876  12.7889  12.8397  12.8411
    12.8986  12.8995  12.9249  12.9251  13.6141  13.6141  14.8071  14.8098
    15.2230  15.2238  15.4890  15.4900  15.5312  15.5313  15.8401  15.8421
    16.1565  16.1579  17.2259  17.2287  17.3218  17.3265  17.4428  17.4446
    17.4881  17.4907  17.7292  17.7320  17.7355  17.7374  18.0867  18.0912
    18.1175  18.1200  18.1824  18.1850  19.3392  19.3403  19.5910  19.5926
    19.9097  19.9101

          k = 0.0000 0.7071 0.2721 ( 13680 PWs)   bands (ev):

   -66.4299 -66.4299 -66.4299 -66.4299 -61.8494 -61.8481 -61.8461 -61.8443
   -35.1993 -35.1993 -35.1993 -35.1993 -35.1765 -35.1765 -35.1765 -35.1765
   -35.1389 -35.1389 -35.1389 -35.1389 -30.6829 -30.6802 -30.6779 -30.6776
   -30.6756 -30.6747 -30.6729 -30.6707 -30.6680 -30.6676 -30.6659 -30.6631
     7.0496   7.0497   7.0505   7.0505   8.7431   8.7433   8.7445   8.7446
     9.1307   9.1308   9.1311   9.1312   9.1767   9.1768   9.1770   9.1770
     9.4215   9.4216   9.4218   9.4223   9.5184   9.5186   9.5188   9.5191
     9.6839   9.6841   9.6842   9.6845   9.9399   9.9399   9.9403   9.9403
    10.0815  10.0819  10.0827  10.0832  10.1857  10.1864  10.1866  10.1873
    10.4933  10.4933  10.4943  10.4943  10.6006  10.6007  10.6008  10.6008
    10.7456  10.7456  10.7456  10.7458  10.8307  10.8310  10.8311  10.8314
    11.1225  11.1225  11.1234  11.1234  11.1903  11.1903  11.1904  11.1905
    11.2498  11.2499  11.2501  11.2501  11.3960  11.3962  11.3963  11.3966
    11.5870  11.5875  11.5877  11.5881  11.7494  11.7496  11.7500  11.7500
    11.9609  11.9612  11.9613  11.9617  12.2374  12.2381  12.2382  12.2391
    12.3028  12.3033  12.3033  12.3036  12.4411  12.4411  12.4416  12.4417
    12.6627  12.6629  12.6629  12.6631  12.9023  12.9032  12.9032  12.9040
    13.6388  13.6388  13.6392  13.6392  14.6827  14.6831  14.6832  14.6834
    15.6290  15.6299  15.6320  15.6329  15.8284  15.8307  15.8323  15.8338
    17.0592  17.0624  17.0652  17.0667  17.4886  17.4919  17.4921  17.4938
    17.8280  17.8305  17.8326  17.8339  17.9661  17.9693  17.9711  17.9730
    18.1438  18.1461  18.1466  18.1478  19.1048  19.1053  19.1063  19.1064
    20.6387  20.6392

          k = 0.0000 0.7071-0.2721 ( 13688 PWs)   bands (ev):

   -66.4299 -66.4299 -66.4299 -66.4299 -61.8494 -61.8482 -61.8462 -61.8444
   -35.1994 -35.1994 -35.1993 -35.1993 -35.1765 -35.1765 -35.1765 -35.1765
   -35.1389 -35.1389 -35.1389 -35.1389 -30.6829 -30.6802 -30.6779 -30.6776
   -30.6757 -30.6748 -30.6730 -30.6708 -30.6679 -30.6676 -30.6659 -30.6631
     7.0500   7.0509   7.9170   7.9178   8.7210   8.7220   8.7440   8.7453
     8.7500   8.7502   9.1026   9.1036   9.1316   9.1320   9.1781   9.1784
     9.2273   9.2289   9.4072   9.4076   9.4152   9.4155   9.4766   9.4770
     9.5177   9.5180   9.6213   9.6220   9.6819   9.6824   9.8734   9.8742
     9.9439   9.9442  10.0825  10.0837  10.1832  10.1841  10.2006  10.2007
    10.2202  10.2217  10.4951  10.4959  10.6066  10.6067  10.6774  10.6775
    10.7448  10.7449  10.8327  10.8330  10.8441  10.8443  11.0392  11.0392
    11.1211  11.1220  11.1726  11.1734  11.1894  11.1896  11.2494  11.2496
    11.3905  11.3908  11.4143  11.4144  11.5915  11.5921  11.6639  11.6640
    11.7372  11.7372  11.7480  11.7485  11.9558  11.9560  11.9617  11.9621
    12.0399  12.0399  12.0933  12.0937  12.2383  12.2392  12.2828  12.2831
    12.3055  12.3057  12.3353  12.3354  12.4415  12.4420  12.4631  12.4633
    12.6593  12.6602  12.6640  12.6641  12.7594  12.7603  12.9037  12.9047
    13.2744  13.2753  13.6379  13.6379  13.6481  13.6484  14.6811  14.6818
    14.6911  14.6917  15.6349  15.6358  15.8018  15.8047  15.8413  15.8444
    16.5400  16.5403  17.0600  17.0624  17.4608  17.4649  17.4985  17.5015
    17.5225  17.5249  17.7213  17.7233  17.8134  17.8152  18.0010  18.0041
    18.0903  18.0956  18.1268  18.1284  18.3540  18.3564  19.1171  19.1174
    20.6426  20.6433

          k = 0.0000 0.7071 1.3603 ( 13696 PWs)   bands (ev):

   -66.4299 -66.4299 -66.4299 -66.4299 -61.8494 -61.8482 -61.8462 -61.8444
   -35.1994 -35.1994 -35.1994 -35.1994 -35.1765 -35.1765 -35.1765 -35.1765
   -35.1389 -35.1389 -35.1389 -35.1389 -30.6829 -30.6802 -30.6779 -30.6776
   -30.6758 -30.6748 -30.6731 -30.6709 -30.6679 -30.6675 -30.6658 -30.6630
     7.9182   7.9186   7.9189   7.9192   8.7223   8.7223   8.7232   8.7232
     8.7460   8.7460   8.7462   8.7463   9.1016   9.1018   9.1027   9.1029
     9.2288   9.2289   9.2303   9.2304   9.4044   9.4046   9.4048   9.4050
     9.4834   9.4837   9.4837   9.4842   9.6184   9.6187   9.6190   9.6194
     9.8694   9.8696   9.8706   9.8708  10.2005  10.2007  10.2007  10.2008
    10.2217  10.2225  10.2231  10.2238  10.6769  10.6771  10.6771  10.6772
    10.8428  10.8429  10.8434  10.8434  11.0415  11.0415  11.0416  11.0416
    11.1722  11.1725  11.1730  11.1733  11.4178  11.4178  11.4178  11.4180
    11.6619  11.6620  11.6620  11.6621  11.7408  11.7410  11.7412  11.7412
    11.9483  11.9484  11.9484  11.9485  12.0409  12.0410  12.0411  12.0411
    12.0941  12.0945  12.0946  12.0950  12.2835  12.2836  12.2838  12.2838
    12.3371  12.3372  12.3381  12.3382  12.4682  12.4684  12.4684  12.4686
    12.6583  12.6583  12.6591  12.6592  12.7573  12.7578  12.7583  12.7589
    13.2760  13.2761  13.2768  13.2770  13.6437  13.6440  13.6441  13.6444
    14.6796  14.6804  14.6810  14.6816  15.8346  15.8372  15.8379  15.8397
    16.5487  16.5494  16.5501  16.5503  17.4064  17.4085  17.4101  17.4101
    17.5382  17.5399  17.5417  17.5422  17.7447  17.7472  17.7524  17.7535
    18.0910  18.0940  18.0969  18.0985  18.3519  18.3550  18.3561  18.3577
    20.7605  20.7609

     the Fermi energy is    15.6140 ev

!    total energy              =  -14693.90515737 Ry
     Harris-Foulkes estimate   =  -14693.90515737 Ry
     estimated scf accuracy    <       0.00000099 Ry

     total all-electron energy =   -626921.500879 Ry

     The total energy is the sum of the following terms:

     one-electron contribution =    -698.42187773 Ry
     hartree contribution      =     651.66136972 Ry
     xc contribution           =    -738.15184892 Ry
     ewald contribution        =   -2207.56121140 Ry
     Hubbard energy            =       0.45154195 Ry
     one-center paw contrib.   =  -11701.88313098 Ry

     total magnetization       =     0.00 Bohr mag/cell
     absolute magnetization    =    36.55 Bohr mag/cell

     convergence has been achieved in  41 iterations

     Writing output data file mnau2.save/
 
     init_run     :     20.00s CPU     20.80s WALL (       1 calls)
     electrons    :   1647.79s CPU   1695.80s WALL (       1 calls)

     Called by init_run:
     wfcinit      :     17.74s CPU     18.39s WALL (       1 calls)
     potinit      :      1.17s CPU      1.21s WALL (       1 calls)
     hinit0       :      0.68s CPU      0.72s WALL (       1 calls)

     Called by electrons:
     c_bands      :   1396.98s CPU   1436.27s WALL (      41 calls)
     sum_band     :    206.22s CPU    212.90s WALL (      41 calls)
     v_of_rho     :      3.32s CPU      3.36s WALL (      42 calls)
     newd         :     12.79s CPU     14.36s WALL (      42 calls)
     PAW_pot      :     28.67s CPU     28.80s WALL (      42 calls)
     mix_rho      :      0.55s CPU      0.58s WALL (      41 calls)

     Called by c_bands:
     init_us_2    :     12.46s CPU     12.56s WALL (    5040 calls)
     cegterg      :   1316.32s CPU   1354.59s WALL (    2460 calls)

     Called by sum_band:
     sum_band:bec :      1.72s CPU      1.74s WALL (    2460 calls)
     addusdens    :     24.70s CPU     26.57s WALL (      41 calls)

     Called by *egterg:
     h_psi        :    653.57s CPU    674.88s WALL (    6641 calls)
     s_psi        :     90.71s CPU     91.11s WALL (    6701 calls)
     g_psi        :      3.47s CPU      3.49s WALL (    4121 calls)
     cdiaghg      :    382.80s CPU    390.23s WALL (    6581 calls)

     Called by h_psi:
     h_psi:pot    :    625.15s CPU    643.00s WALL (    6641 calls)
     h_psi:calbec :     86.13s CPU     91.78s WALL (    6641 calls)
     vloc_psi     :    450.60s CPU    461.85s WALL (    6641 calls)
     add_vuspsi   :     88.36s CPU     89.32s WALL (    6641 calls)
     vhpsi        :     25.55s CPU     25.65s WALL (    6641 calls)

     General routines
     calbec       :    144.88s CPU    152.46s WALL (   18262 calls)
     fft          :      1.71s CPU      1.74s WALL (    1046 calls)
     ffts         :      0.08s CPU      0.09s WALL (     166 calls)
     fftw         :    507.70s CPU    519.97s WALL ( 2284466 calls)
     interpolate  :      0.18s CPU      0.19s WALL (      84 calls)
     davcio       :      0.00s CPU      0.82s WALL (      60 calls)
 
     Parallel routines
     fft_scatt_xy :     63.09s CPU     64.54s WALL ( 2285678 calls)
     fft_scatt_yz :    169.06s CPU    173.58s WALL ( 2285678 calls)

     Hubbard U routines
     new_ns       :      8.05s CPU      8.39s WALL (      41 calls)
     vhpsi        :     25.55s CPU     25.65s WALL (    6641 calls)
 
     PWSCF        : 27m53.12s CPU    28m57.02s WALL

 
   This run was terminated on:  12:30:46  26Mar2019            

=------------------------------------------------------------------------------=
   JOB DONE.
=------------------------------------------------------------------------------=
